CNT in water
33518
    1C        C    1   2.851   2.775   4.746 -0.1228  0.0156  0.0611
    1C        C    2   2.900   2.721   4.867 -0.2600  0.0255  0.1235
    1C        C    3   2.846   2.772   4.986  0.1248 -0.0114  0.3170
    1C        C    4   2.851   2.778   4.260  0.0608  0.1249  0.2690
    1C        C    5   2.906   2.730   4.381  0.1587  0.3337  0.3130
    1C        C    6   2.854   2.777   4.504 -0.1145  0.1933  0.2552
    1C        C    7   3.018   2.643   4.625  0.1302  0.2211  0.3398
    1C        C    8   2.902   2.723   4.625 -0.1211 -0.1300  0.1205
    1C        C    9   3.082   2.604   4.745  0.0925 -0.0662  0.2721
    1C        C   10   3.011   2.633   4.863 -0.3854 -0.1324  0.0089
    1C        C   11   3.184   2.497   4.977  0.3538  0.0703  0.6547
    1C        C   12   3.061   2.565   4.975  0.2195 -0.1864 -0.2926
    1C        C   13   2.851   2.771   3.772 -0.0844 -0.0841 -0.2466
    1C        C   14   2.900   2.722   3.895 -0.4755 -0.5818 -0.2835
    1C        C   15   2.846   2.770   4.016 -0.5276 -0.8667 -0.1888
    1C        C   16   3.015   2.642   4.139 -0.0013  0.6176 -0.0188
    1C        C   17   2.899   2.724   4.138 -0.4429  0.0064  0.1166
    1C        C   18   3.081   2.611   4.259 -0.0891  0.2433 -0.0612
    1C        C   19   3.023   2.651   4.381 -0.1213 -0.0927  0.0426
    1C        C   20   3.212   2.557   4.501 -0.3344 -0.0295  0.7523
    1C        C   21   3.082   2.612   4.503 -0.4910 -0.3528  0.1470
    1C        C   22   3.281   2.530   4.621 -0.2035 -1.3612  0.3954
    1C        C   23   3.212   2.547   4.743 -0.2487 -0.8822  0.3117
    1C        C   24   3.414   2.482   4.862  0.1760  0.2578 -0.1307
    1C        C   25   3.273   2.504   4.864  0.1751  0.2398  0.5186
    1C        C   26   3.493   2.474   4.978  0.4318  0.1288 -0.3104
    1C        C   27   2.853   2.773   3.280 -0.7958 -0.3432 -0.1680
    1C        C   28   2.910   2.731   3.402 -0.2615 -0.3539 -0.4232
    1C        C   29   2.857   2.774   3.525  0.0209 -0.0345 -0.4110
    1C        C   30   3.023   2.647   3.652  0.0344  0.3215  0.1527
    1C        C   31   2.908   2.729   3.650 -0.3392 -0.2043 -0.3251
    1C        C   32   3.084   2.610   3.774  0.1426  0.0761  0.0277
    1C        C   33   3.016   2.642   3.894 -0.5218 -0.6571 -0.1407
    1C        C   34   3.204   2.547   4.014 -0.0073  0.6682  0.2864
    1C        C   35   3.078   2.610   4.017 -0.3425  0.0220 -0.0441
    1C        C   36   3.276   2.530   4.134 -0.2252  0.2977  0.3710
    1C        C   37   3.211   2.555   4.257 -0.1056  0.1613  0.4704
    1C        C   38   3.415   2.499   4.375 -0.3282 -0.0449 -0.2066
    1C        C   39   3.277   2.530   4.379 -0.1157  0.9022  0.6427
    1C        C   40   3.486   2.489   4.497 -0.3634 -0.0680 -0.1811
    1C        C   41   3.418   2.494   4.620  0.0911 -0.2949  0.0883
    1C        C   42   3.630   2.476   4.739  0.3819  0.1192 -0.3640
    1C        C   43   3.488   2.475   4.741  0.3829  0.1507 -0.0035
    1C        C   44   3.705   2.484   4.859  0.0446 -0.4031 -0.1155
    1C        C   45   3.632   2.481   4.978  0.4258  0.2921  0.1417
    1C        C   46   2.842   2.756   2.794 -0.4336 -0.7755  0.4043
    1C        C   47   2.895   2.710   2.917 -0.2901 -0.6534  0.3880
    1C        C   48   2.847   2.765   3.038 -0.2751 -0.3184  0.2427
    1C        C   49   3.018   2.638   3.163 -0.0273 -0.2152 -0.0125
    1C        C   50   2.905   2.721   3.159 -0.4354 -0.7558  0.1638
    1C        C   51   3.078   2.599   3.285 -0.4833 -0.5563  0.1056
    1C        C   52   3.022   2.645   3.406 -0.3597 -0.4552  0.1244
    1C        C   53   3.210   2.549   3.526 -0.1731 -0.0940  0.1397
    1C        C   54   3.084   2.612   3.529  0.0937  0.4420  0.1479
    1C        C   55   3.276   2.522   3.647 -0.3040 -0.1432  0.2024
    1C        C   56   3.212   2.552   3.770  0.4615  0.7412  0.3994
    1C        C   57   3.413   2.502   3.892  0.1790  0.3418 -0.2466
    1C        C   58   3.274   2.523   3.893  0.1826  0.3565  0.4517
    1C        C   59   3.485   2.492   4.013 -0.4758  0.1669  0.1364
    1C        C   60   3.415   2.503   4.135 -0.1241  0.7728  0.2922
    1C        C   61   3.629   2.489   4.256  0.2501  0.2115 -0.0246
    1C        C   62   3.488   2.486   4.255  0.2375  0.5841  0.0550
    1C        C   63   3.700   2.499   4.377  0.1786 -0.1816  0.0566
    1C        C   64   3.627   2.490   4.498 -0.3601  0.4035 -0.2180
    1C        C   65   3.836   2.535   4.619  0.2771 -0.5055 -0.0535
    1C        C   66   3.700   2.496   4.618  0.2527 -0.4169 -0.5341
    1C        C   67   3.904   2.561   4.740 -0.0978  0.2313 -0.0008
    1C        C   68   3.840   2.523   4.860 -0.0984  0.0988 -0.0451
    1C        C   69   4.042   2.592   4.981 -0.0424  0.1947  0.1289
    1C        C   70   3.922   2.520   4.974 -0.1022  0.3139 -0.0387
    1C        C   71   2.825   2.735   2.307  0.3523  0.2156 -0.0293
    1C        C   72   2.887   2.696   2.428  0.1398 -0.3022 -0.0869
    1C        C   73   2.839   2.750   2.549  0.3343  0.0774 -0.1794
    1C        C   74   3.011   2.629   2.673 -0.6655 -0.5092 -0.2832
    1C        C   75   2.894   2.707   2.672 -0.1899  0.2173  0.1028
    1C        C   76   3.074   2.598   2.795 -0.6999 -0.3211 -0.2176
    1C        C   77   3.014   2.635   2.918  0.0416 -0.1355  0.0912
    1C        C   78   3.204   2.540   3.037  0.0455 -0.2262  0.3637
    1C        C   79   3.076   2.598   3.040 -0.0763 -0.4803  0.0486
    1C        C   80   3.272   2.518   3.159  0.0040 -0.1797  0.3966
    1C        C   81   3.206   2.540   3.282 -0.0281  0.4025  0.2773
    1C        C   82   3.413   2.491   3.403  0.1304  0.5058  0.1363
    1C        C   83   3.275   2.521   3.404  0.0644  0.2087  0.1946
    1C        C   84   3.482   2.478   3.525  0.0383  0.4984  0.1901
    1C        C   85   3.414   2.492   3.648 -0.3561 -0.3978  0.0788
    1C        C   86   3.626   2.492   3.769  0.1460  0.0473  0.2136
    1C        C   87   3.484   2.488   3.771  0.1476 -0.2760 -0.2006
    1C        C   88   3.698   2.503   3.890 -0.0114  0.1004  0.3057
    1C        C   89   3.626   2.498   4.012 -0.4730  0.1579  0.0418
    1C        C   90   3.833   2.537   4.134 -0.2020  0.1181 -0.2465
    1C        C   91   3.698   2.496   4.133 -0.0191 -0.5057 -0.2287
    1C        C   92   3.900   2.567   4.255  0.1723 -0.2471 -0.3559
    1C        C   93   3.835   2.543   4.378 -0.0083  0.4129 -0.3180
    1C        C   94   4.029   2.630   4.496  0.0055 -0.3141  0.0212
    1C        C   95   3.901   2.570   4.499  0.0977 -0.5209 -0.1561
    1C        C   96   4.087   2.669   4.619 -0.1350 -0.4556  0.1315
    1C        C   97   4.032   2.622   4.740  0.1275 -0.2418  0.3316
    1C        C   98   4.182   2.767   4.860 -0.0329  0.1624 -0.1318
    1C        C   99   4.095   2.654   4.864  0.4913 -0.2310  0.1428
    1C        C  100   4.206   2.844   4.975  0.0591 -0.2953  0.1531
    1C        C  101   2.830   2.734   2.070  0.5382 -0.0033  0.1238
    1C        C  102   2.990   2.588   2.190  0.1940 -0.3853  0.3165
    1C        C  103   2.879   2.678   2.189  0.5398  0.0416  0.1428
    1C        C  104   3.063   2.568   2.311  0.2919 -0.6142  0.2178
    1C        C  105   3.007   2.622   2.429  0.3204 -0.0056 -0.0451
    1C        C  106   3.201   2.535   2.552  0.1895 -0.0282  0.1066
    1C        C  107   3.070   2.589   2.551  0.0898 -0.2712  0.0005
    1C        C  108   3.270   2.513   2.673 -0.3568 -0.4433  0.3474
    1C        C  109   3.201   2.537   2.794 -0.3605  0.3586  0.1920
    1C        C  110   3.411   2.495   2.915 -0.3341 -0.4329 -0.1065
    1C        C  111   3.271   2.517   2.915 -0.2182  0.3408  0.1086
    1C        C  112   3.482   2.484   3.036 -0.0971 -0.0856 -0.2125
    1C        C  113   3.410   2.487   3.157 -0.1259 -0.7545 -0.2069
    1C        C  114   3.622   2.483   3.281 -0.2726  0.4759  0.0084
    1C        C  115   3.481   2.482   3.279 -0.2712  0.2611 -0.0698
    1C        C  116   3.693   2.493   3.403 -0.1210  0.5665 -0.0863
    1C        C  117   3.623   2.485   3.525  0.0243  0.8812  0.0215
    1C        C  118   3.831   2.534   3.644  0.1129 -0.4058 -0.0356
    1C        C  119   3.695   2.498   3.646  0.0285 -0.0816  0.1381
    1C        C  120   3.896   2.562   3.766 -0.2947  0.2460  0.0380
    1C        C  121   3.833   2.544   3.891 -0.0926  0.3781  0.1629
    1C        C  122   4.024   2.635   4.010  0.6625 -0.4421 -0.0571
    1C        C  123   3.899   2.569   4.013  0.0266  0.7276  0.0321
    1C        C  124   4.084   2.672   4.132  0.5008 -0.5438  0.0565
    1C        C  125   4.028   2.627   4.253  0.1827 -0.2525  0.0204
    1C        C  126   4.191   2.764   4.374 -0.0410  0.0205 -0.1665
    1C        C  127   4.090   2.665   4.374 -0.1168  0.0951  0.0716
    1C        C  128   4.235   2.822   4.495  0.1131 -0.3831 -0.0268
    1C        C  129   4.181   2.774   4.617 -0.2125 -0.3944 -0.1755
    1C        C  130   4.310   2.940   4.738 -0.5281  0.0061 -0.2893
    1C        C  131   4.235   2.820   4.739  0.0973 -0.3909 -0.3145
    1C        C  132   4.341   3.008   4.858 -0.0622 -0.1777 -0.3026
    1C        C  133   4.277   2.963   4.975  0.5208 -0.5701 -0.1293
    1C        C  134   3.171   2.465   2.081 -0.1505 -0.2429 -0.2759
    1C        C  135   3.037   2.505   2.083 -0.2302 -0.5295  0.2439
    1C        C  136   3.257   2.472   2.192 -0.0169 -0.3428 -0.3734
    1C        C  137   3.195   2.515   2.312  0.3755 -0.4089 -0.1471
    1C        C  138   3.407   2.477   2.427 -0.0022 -0.4002 -0.0415
    1C        C  139   3.269   2.507   2.432  0.0337 -0.2622  0.0719
    1C        C  140   3.478   2.474   2.549 -0.2834 -0.1800  0.1299
    1C        C  141   3.407   2.478   2.670 -0.4384 -0.7463  0.0620
    1C        C  142   3.620   2.493   2.791 -0.2986  0.2458 -0.0090
    1C        C  143   3.479   2.486   2.792 -0.2605 -0.6754 -0.0481
    1C        C  144   3.692   2.495   2.913 -0.3396  0.5039  0.0105
    1C        C  145   3.623   2.490   3.036 -0.1043  0.1503  0.1257
    1C        C  146   3.828   2.537   3.157 -0.0671  0.4344  0.2321
    1C        C  147   3.691   2.501   3.159 -0.2023  0.9249  0.1128
    1C        C  148   3.894   2.563   3.279  0.2248  0.0359  0.1579
    1C        C  149   3.829   2.533   3.400  0.1494 -0.3275  0.0288
    1C        C  150   4.020   2.626   3.520 -0.0636  0.2181 -0.1341
    1C        C  151   3.898   2.555   3.521  0.0946 -0.0566  0.0117
    1C        C  152   4.078   2.666   3.642 -0.2352  0.1996 -0.0436
    1C        C  153   4.021   2.629   3.765 -0.3890  0.4274 -0.0427
    1C        C  154   4.186   2.765   3.884  0.4793 -0.4607 -0.3845
    1C        C  155   4.083   2.668   3.886  0.3832 -0.3596 -0.1719
    1C        C  156   4.236   2.816   4.006  0.1164 -0.2414 -0.3216
    1C        C  157   4.187   2.769   4.130  0.2645 -0.2942 -0.2798
    1C        C  158   4.323   2.931   4.251 -0.4383  0.1833 -0.0689
    1C        C  159   4.237   2.819   4.252  0.1570 -0.2888 -0.2356
    1C        C  160   4.360   2.992   4.372 -0.0593 -0.2713  0.0505
    1C        C  161   4.319   2.935   4.495  0.0401 -0.3290  0.0590
    1C        C  162   4.426   3.118   4.612  0.3494 -0.1968 -0.1810
    1C        C  163   4.352   2.998   4.617 -0.3111  0.2066 -0.1190
    1C        C  164   4.461   3.185   4.731 -0.0620  0.0013 -0.1725
    1C        C  165   4.420   3.124   4.852 -0.2472 -0.0495 -0.2604
    1C        C  166   4.501   3.320   4.968 -0.6563 -0.1304 -0.0150
    1C        C  167   4.462   3.186   4.970  0.0286 -0.3356 -0.2080
    1C        C  168   3.474   2.444   2.073 -0.0282 -0.0632  0.0079
    1C        C  169   3.397   2.457   2.189 -0.0253 -0.5189  0.0610
    1C        C  170   3.619   2.465   2.306  0.1066  0.1121  0.1869
    1C        C  171   3.477   2.462   2.306  0.1057  0.1570 -0.0504
    1C        C  172   3.691   2.483   2.426 -0.0688 -0.0012  0.3087
    1C        C  173   3.619   2.479   2.547 -0.2945  0.1457  0.1824
    1C        C  174   3.826   2.530   2.667 -0.0038 -0.2790  0.1373
    1C        C  175   3.689   2.496   2.669 -0.1482  0.2881  0.0780
    1C        C  176   3.891   2.561   2.789 -0.2709  0.4415  0.1036
    1C        C  177   3.827   2.537   2.913 -0.4178  0.7569  0.0889
    1C        C  178   4.019   2.624   3.030 -0.2981  0.3141 -0.2086
    1C        C  179   3.895   2.556   3.035 -0.2980  0.3332  0.0889
    1C        C  180   4.078   2.663   3.152 -0.4720  0.1247 -0.0635
    1C        C  181   4.021   2.626   3.276  0.2476 -0.0030  0.2400
    1C        C  182   4.184   2.761   3.397  0.1767  0.4565 -0.0563
    1C        C  183   4.078   2.668   3.398  0.5812 -0.0092  0.0898
    1C        C  184   4.229   2.813   3.520 -0.1362  0.4892  0.0505
    1C        C  185   4.180   2.764   3.643 -0.4803  0.4611 -0.0946
    1C        C  186   4.329   2.920   3.763  0.3584 -0.0197  0.1489
    1C        C  187   4.236   2.815   3.762  0.3168  0.0132 -0.2632
    1C        C  188   4.367   2.982   3.884 -0.9173  0.6344  0.2302
    1C        C  189   4.325   2.925   4.007 -0.0701 -0.0849  0.2029
    1C        C  190   4.438   3.106   4.125  0.4475 -0.0396 -0.0193
    1C        C  191   4.370   2.982   4.128 -0.2006  0.3129  0.0707
    1C        C  192   4.461   3.175   4.246  0.0681 -0.0558  0.0660
    1C        C  193   4.430   3.115   4.370 -0.6634  0.0772 -0.0444
    1C        C  194   4.502   3.317   4.490 -0.4276  0.1481  0.0084
    1C        C  195   4.458   3.183   4.490  0.1125 -0.0333 -0.1580
    1C        C  196   4.522   3.390   4.609 -0.4904 -0.0745  0.1557
    1C        C  197   4.502   3.321   4.731 -0.0678  0.0056  0.2733
    1C        C  198   4.551   3.535   4.854  0.2925  0.0166  0.1180
    1C        C  199   4.522   3.395   4.851 -0.1610  0.1081  0.2263
    1C        C  200   4.593   3.624   4.958  0.0197  0.2115  0.0616
    1C        C  201   3.613   2.424   2.071  0.0003  0.1163  0.1563
    1C        C  202   3.828   2.508   2.183  0.2070 -0.4462 -0.0551
    1C        C  203   3.691   2.465   2.183  0.0108  0.1643  0.1304
    1C        C  204   3.895   2.543   2.303 -0.0858  0.1379 -0.0543
    1C        C  205   3.827   2.523   2.425 -0.0605 -0.0353 -0.0668
    1C        C  206   4.020   2.615   2.544 -0.4702  0.4245  0.0194
    1C        C  207   3.895   2.549   2.545 -0.2619  0.0298  0.0352
    1C        C  208   4.076   2.661   2.665 -0.2886  0.5607 -0.1118
    1C        C  209   4.015   2.629   2.789 -0.1473  0.2183 -0.1284
    1C        C  210   4.193   2.748   2.905  0.0295  0.1271 -0.3309
    1C        C  211   4.082   2.662   2.909 -0.2877  0.5375 -0.1365
    1C        C  212   4.241   2.798   3.029  0.0058 -0.1033 -0.2256
    1C        C  213   4.188   2.751   3.151 -0.4911  0.1497 -0.3395
    1C        C  214   4.323   2.915   3.273  0.0815 -0.2044  0.2393
    1C        C  215   4.234   2.805   3.273 -0.2977  0.0962 -0.3845
    1C        C  216   4.358   2.978   3.395  0.0760  0.2285  0.0225
    1C        C  217   4.316   2.925   3.518  0.4221  0.0677  0.0784
    1C        C  218   4.432   3.103   3.639  0.6185 -0.1128 -0.2811
    1C        C  219   4.365   2.979   3.639  0.1742  0.1236  0.1597
    1C        C  220   4.465   3.170   3.759  0.0604 -0.0302 -0.1691
    1C        C  221   4.433   3.107   3.881 -0.4638  0.3955 -0.0772
    1C        C  222   4.503   3.307   4.002 -0.1379  0.1265  0.2208
    1C        C  223   4.465   3.171   4.003  0.1709  0.0335 -0.0463
    1C        C  224   4.514   3.377   4.124  0.4960 -0.2898  0.4117
    1C        C  225   4.499   3.311   4.248  0.4463 -0.1604  0.4770
    1C        C  226   4.526   3.526   4.364  0.6808  0.2862 -0.1298
    1C        C  227   4.514   3.385   4.367  0.5675  0.2996  0.1800
    1C        C  228   4.521   3.599   4.485 -0.0927 -0.0190  0.0303
    1C        C  229   4.530   3.531   4.609 -0.3409 -0.0838  0.0141
    1C        C  230   4.499   3.739   4.725 -0.0658 -0.0958  0.2391
    1C        C  231   4.540   3.603   4.729 -0.3151 -0.1748  0.0658
    1C        C  232   4.494   3.818   4.843  0.3439  0.4126 -0.0812
    1C        C  233   4.550   3.757   4.956 -0.4959  0.0491  0.1457
    1C        C  234   4.015   2.608   2.064 -0.2007  0.1868  0.0005
    1C        C  235   3.893   2.542   2.063 -0.1786  0.1455 -0.1017
    1C        C  236   4.084   2.648   2.179 -0.0788 -0.0859  0.0246
    1C        C  237   4.020   2.610   2.299 -0.0648  0.1111  0.0964
    1C        C  238   4.194   2.734   2.422  0.1365 -0.0932 -0.0183
    1C        C  239   4.081   2.649   2.421 -0.3307  0.5096  0.1080
    1C        C  240   4.243   2.792   2.541  0.3089 -0.0543 -0.1026
    1C        C  241   4.187   2.747   2.663 -0.0099  0.2085 -0.1492
    1C        C  242   4.330   2.907   2.787  0.1241  0.1548  0.6228
    1C        C  243   4.244   2.796   2.783  0.4201 -0.0518 -0.2422
    1C        C  244   4.371   2.967   2.908  0.2795  0.2568  0.5263
    1C        C  245   4.327   2.910   3.030 -0.0453 -0.0619  0.2663
    1C        C  246   4.431   3.097   3.154  0.1976 -0.1697 -0.0488
    1C        C  247   4.366   2.971   3.151  0.0087 -0.0856  0.2655
    1C        C  248   4.453   3.167   3.274  0.0418  0.0909 -0.1671
    1C        C  249   4.421   3.104   3.396 -0.3566  0.4539 -0.0752
    1C        C  250   4.491   3.307   3.513  0.3905  0.2957  0.1357
    1C        C  251   4.456   3.170   3.517  0.0343  0.3739 -0.1372
    1C        C  252   4.514   3.375   3.635  0.3352  0.0683  0.2819
    1C        C  253   4.503   3.306   3.757 -0.0281  0.0064  0.2199
    1C        C  254   4.517   3.517   3.879  0.2534  0.0441  0.2961
    1C        C  255   4.512   3.376   3.879  0.1743  0.0424  0.1900
    1C        C  256   4.517   3.590   4.000  0.8034  0.2842  0.1582
    1C        C  257   4.527   3.518   4.121  1.3606 -0.3680 -0.2656
    1C        C  258   4.496   3.732   4.241  0.3336 -0.3640  0.0439
    1C        C  259   4.526   3.594   4.240  1.2235 -0.1774 -0.3862
    1C        C  260   4.475   3.803   4.361  0.2082 -0.3657  0.0243
    1C        C  261   4.493   3.737   4.484  0.3926  0.0807  0.2357
    1C        C  262   4.423   3.940   4.603 -0.0276 -0.0347 -0.0930
    1C        C  263   4.476   3.809   4.605 -0.2362 -0.1126  0.2637
    1C        C  264   4.396   4.007   4.724  0.1633  0.1184 -0.1363
    1C        C  265   4.427   3.942   4.845 -0.0851  0.1810 -0.0390
    1C        C  266   4.319   4.130   4.962 -0.2986 -0.2330  0.1277
    1C        C  267   4.394   4.012   4.961 -0.5312 -0.3815  0.1771
    1C        C  268   4.261   2.775   2.063 -0.2736  0.2430 -0.0093
    1C        C  269   4.197   2.732   2.180 -0.7717  0.8690 -0.0401
    1C        C  270   4.342   2.890   2.301  0.4041 -0.2269  0.2658
    1C        C  271   4.249   2.782   2.301 -0.1958  0.2761 -0.0299
    1C        C  272   4.383   2.953   2.421  0.0381 -0.0742  0.3187
    1C        C  273   4.337   2.898   2.542  0.6952 -0.3893  0.4380
    1C        C  274   4.438   3.086   2.660 -0.1934  0.0008 -0.1874
    1C        C  275   4.371   2.962   2.663  0.3184 -0.2736  0.4904
    1C        C  276   4.463   3.153   2.783  0.1414 -0.0437 -0.2228
    1C        C  277   4.435   3.093   2.907 -0.0585  0.4331 -0.0295
    1C        C  278   4.493   3.295   3.024  0.4301  0.0467 -0.2376
    1C        C  279   4.457   3.159   3.030  0.3130  0.0875  0.0992
    1C        C  280   4.509   3.367   3.145  0.8134 -0.1490 -0.1667
    1C        C  281   4.495   3.302   3.270  0.4514 -0.0298 -0.1408
    1C        C  282   4.522   3.514   3.389  0.3812 -0.0587  0.1828
    1C        C  283   4.507   3.374   3.390  0.0584 -0.0306 -0.0947
    1C        C  284   4.520   3.585   3.511 -0.1489 -0.1491  0.2350
    1C        C  285   4.522   3.516   3.635 -0.4170  0.1200  0.3965
    1C        C  286   4.492   3.726   3.753  0.2382  0.1896  0.0544
    1C        C  287   4.516   3.587   3.757  0.3712  0.2153  0.3888
    1C        C  288   4.472   3.795   3.875  0.6371  0.2698  0.0799
    1C        C  289   4.485   3.727   3.998  0.8801  0.3045  0.0783
    1C        C  290   4.422   3.931   4.117  0.2764 -0.0773  0.2736
    1C        C  291   4.470   3.798   4.119  0.6465  0.0521  0.2021
    1C        C  292   4.390   3.995   4.239 -0.1209 -0.1410  0.2047
    1C        C  293   4.419   3.932   4.362 -0.0725 -0.4855  0.0188
    1C        C  294   4.321   4.125   4.479 -0.3128 -0.3196  0.2728
    1C        C  295   4.396   4.005   4.481 -0.1196 -0.2040 -0.1612
    1C        C  296   4.281   4.186   4.601 -0.5024  0.0522  0.0251
    1C        C  297   4.322   4.129   4.723  0.0792  0.0635 -0.1592
    1C        C  298   4.201   4.313   4.840 -0.0731 -0.3760 -0.1385
    1C        C  299   4.277   4.191   4.843 -0.5307 -0.6564 -0.0075
    1C        C  300   4.167   4.397   4.951 -0.2096 -0.7391  0.0957
    1C        C  301   4.353   2.880   2.064  0.1174 -0.0983  0.5760
    1C        C  302   4.459   3.072   2.177  0.4600 -0.0673 -0.3764
    1C        C  303   4.397   2.944   2.181  0.6435 -0.1391  0.4073
    1C        C  304   4.480   3.144   2.298 -0.7263  0.0179 -0.2121
    1C        C  305   4.449   3.078   2.419  0.4495 -0.2868 -0.0603
    1C        C  306   4.508   3.285   2.538 -0.7091  0.2286 -0.2003
    1C        C  307   4.474   3.148   2.539 -0.1386  0.0802 -0.1381
    1C        C  308   4.512   3.359   2.658  0.1466 -0.0115 -0.0732
    1C        C  309   4.497   3.290   2.781  0.5594 -0.1419 -0.0896
    1C        C  310   4.523   3.502   2.901 -0.1965  0.1123  0.0666
    1C        C  311   4.514   3.361   2.901  0.6169  0.0525 -0.2078
    1C        C  312   4.524   3.576   3.021 -0.2315  0.0163  0.1293
    1C        C  313   4.527   3.507   3.144  0.2618 -0.0709  0.0745
    1C        C  314   4.498   3.720   3.262  0.9860 -0.0573  0.2329
    1C        C  315   4.521   3.580   3.264  0.5753 -0.1334  0.1352
    1C        C  316   4.485   3.790   3.384  0.8577  0.2357  0.0567
    1C        C  317   4.501   3.725   3.508 -0.1953 -0.1551  0.0046
    1C        C  318   4.427   3.925   3.626  0.2995  0.0886  0.0685
    1C        C  319   4.480   3.794   3.630  0.1948  0.0372 -0.0312
    1C        C  320   4.395   3.988   3.748  0.0746 -0.2471  0.1902
    1C        C  321   4.424   3.928   3.873  0.4837  0.2237  0.3309
    1C        C  322   4.316   4.112   3.989 -0.5646 -0.3381 -0.0416
    1C        C  323   4.393   3.994   3.994 -0.3476 -0.1885  0.3555
    1C        C  324   4.272   4.167   4.111 -0.2749 -0.1272 -0.0255
    1C        C  325   4.317   4.116   4.235 -0.2553 -0.2261 -0.0689
    1C        C  326   4.184   4.283   4.354  0.0975 -0.3792 -0.1338
    1C        C  327   4.282   4.181   4.356  0.1025 -0.3719  0.1161
    1C        C  328   4.132   4.334   4.475  0.2340  0.3058 -0.3592
    1C        C  329   4.183   4.287   4.598 -0.5429  0.0080 -0.1423
    1C        C  330   4.028   4.436   4.712  0.1293  0.2831  0.1010
    1C        C  331   4.142   4.351   4.717  0.0658  0.1917 -0.0296
    1C        C  332   3.970   4.492   4.828 -0.1570  0.0250  0.0812
    1C        C  333   4.053   4.477   4.940 -0.0663 -0.5543 -0.0589
    1C        C  334   4.563   3.264   2.066  0.0280  0.3328  0.1732
    1C        C  335   4.531   3.127   2.066  0.4965  0.2172 -0.2181
    1C        C  336   4.533   3.348   2.174 -0.6813  0.0555  0.1969
    1C        C  337   4.517   3.281   2.297 -0.5998 -0.0100  0.1747
    1C        C  338   4.524   3.498   2.411  0.1791  0.3682  0.1083
    1C        C  339   4.522   3.356   2.417 -0.1973  0.3606 -0.0691
    1C        C  340   4.524   3.568   2.533 -0.3240  0.2667  0.1699
    1C        C  341   4.526   3.499   2.657  0.9600 -0.0836 -0.0355
    1C        C  342   4.501   3.711   2.774  0.4200 -0.0271  0.2095
    1C        C  343   4.526   3.572   2.778  0.1938 -0.0768 -0.0341
    1C        C  344   4.487   3.784   2.894  0.6257  0.1548  0.1269
    1C        C  345   4.501   3.715   3.016  0.0340  0.0638  0.1530
    1C        C  346   4.427   3.914   3.134  0.0753 -0.1211 -0.3681
    1C        C  347   4.484   3.785   3.138 -0.0541 -0.1670  0.2765
    1C        C  348   4.395   3.978   3.256  0.2674 -0.3448 -0.1954
    1C        C  349   4.428   3.919   3.380  0.7999  0.2126 -0.0649
    1C        C  350   4.318   4.102   3.501  0.0067 -0.2593  0.0319
    1C        C  351   4.396   3.984   3.501  0.1811 -0.1521 -0.0240
    1C        C  352   4.271   4.157   3.622 -0.2458 -0.0063 -0.1721
    1C        C  353   4.319   4.106   3.745  0.0396 -0.2752 -0.3844
    1C        C  354   4.174   4.265   3.867  0.2638 -0.2009  0.0609
    1C        C  355   4.274   4.165   3.865  0.0218 -0.4499 -0.2983
    1C        C  356   4.120   4.314   3.988 -0.0756  0.1767 -0.2349
    1C        C  357   4.169   4.264   4.110  0.2633  0.4546 -0.2507
    1C        C  358   4.011   4.403   4.230 -0.1831 -0.3972  0.1467
    1C        C  359   4.125   4.321   4.231 -0.1141 -0.3104 -0.0151
    1C        C  360   3.950   4.447   4.350 -0.1967  0.1872 -0.0668
    1C        C  361   4.016   4.415   4.471  0.1132  0.1427 -0.2454
    1C        C  362   3.829   4.515   4.591 -0.0407 -0.6430 -0.1673
    1C        C  363   3.962   4.466   4.591  0.0319 -0.4473 -0.0286
    1C        C  364   3.762   4.539   4.713 -0.1005 -0.7265 -0.1845
    1C        C  365   3.837   4.538   4.832 -0.0572  0.3411 -0.1883
    1C        C  366   3.627   4.583   4.951 -0.1504  0.2510 -0.0477
    1C        C  367   3.764   4.561   4.949 -0.1667  0.1612 -0.2205
    1C        C  368   4.514   3.562   2.050  0.0306  0.4119  0.4251
    1C        C  369   4.524   3.488   2.169  0.4384  0.1407  0.2270
    1C        C  370   4.509   3.706   2.288  0.3053  0.3505  0.2039
    1C        C  371   4.523   3.566   2.287  0.2363  0.3442  0.0932
    1C        C  372   4.492   3.779   2.408  0.5196  0.5273  0.1270
    1C        C  373   4.510   3.708   2.529 -0.0461  0.2927  0.0785
    1C        C  374   4.433   3.907   2.647  0.1886 -0.0268 -0.0360
    1C        C  375   4.489   3.778   2.650  0.5322  0.1261  0.2793
    1C        C  376   4.397   3.971   2.768  0.3086 -0.1304  0.0541
    1C        C  377   4.425   3.911   2.892  0.2772 -0.0122  0.1180
    1C        C  378   4.318   4.097   3.011  0.3879  0.5377 -0.0032
    1C        C  379   4.393   3.978   3.013  0.1618  0.3892 -0.1334
    1C        C  380   4.270   4.150   3.133 -0.2125 -0.2546  0.1233
    1C        C  381   4.311   4.092   3.255 -0.3945 -0.8161 -0.0741
    1C        C  382   4.170   4.250   3.378  0.1789 -0.3428  0.0529
    1C        C  383   4.270   4.150   3.377  0.0815 -0.4494 -0.0787
    1C        C  384   4.119   4.302   3.499 -0.6464 -0.8665 -0.0590
    1C        C  385   4.172   4.258   3.622 -0.4537 -0.1982  0.1105
    1C        C  386   4.008   4.392   3.741 -0.8317 -1.0772  0.1219
    1C        C  387   4.122   4.309   3.743 -0.1902 -0.2201  0.2375
    1C        C  388   3.945   4.428   3.862 -0.5560 -0.6343  0.1445
    1C        C  389   4.004   4.395   3.986 -0.6869 -0.6621  0.2069
    1C        C  390   3.815   4.488   4.107 -0.2525  0.1193  0.1538
    1C        C  391   3.945   4.432   4.108 -0.6681 -0.8758  0.2876
    1C        C  392   3.748   4.514   4.229 -0.5322  0.0846  0.0119
    1C        C  393   3.821   4.503   4.350 -0.5288 -0.5663 -0.0481
    1C        C  394   3.617   4.557   4.475 -0.2621 -0.2518  0.2714
    1C        C  395   3.756   4.531   4.472 -0.2721 -0.2795  0.0244
    1C        C  396   3.546   4.566   4.597 -0.3044  0.5346  0.1896
    1C        C  397   3.622   4.560   4.715  0.0082 -0.0015 -0.0351
    1C        C  398   3.409   4.553   4.837 -0.0381  0.1834  0.4010
    1C        C  399   3.549   4.571   4.835 -0.0684  0.3817 -0.1164
    1C        C  400   3.339   4.522   4.955  0.0636 -0.5824  0.2636
    1C        C  401   4.503   3.701   2.050 -0.5354  0.3662  0.1763
    1C        C  402   4.455   3.913   2.164  0.2808  0.3702 -0.1289
    1C        C  403   4.494   3.778   2.167  0.3483  0.3967  0.2266
    1C        C  404   4.415   3.978   2.283  0.0106  0.2674 -0.1628
    1C        C  405   4.441   3.911   2.405  0.1597  0.3821 -0.1306
    1C        C  406   4.322   4.089   2.522 -0.2650 -0.2060 -0.2241
    1C        C  407   4.399   3.971   2.525  0.0573  0.0105  0.0198
    1C        C  408   4.274   4.141   2.645 -0.7135 -0.7884 -0.1480
    1C        C  409   4.309   4.081   2.768 -0.5244 -0.7814 -0.1970
    1C        C  410   4.174   4.250   2.890 -0.1962 -0.5288  0.1521
    1C        C  411   4.270   4.146   2.887 -0.2485 -0.5725 -0.2179
    1C        C  412   4.123   4.301   3.011 -0.5235 -0.4574 -0.0091
    1C        C  413   4.173   4.253   3.134 -0.1406 -0.1766 -0.0461
    1C        C  414   4.000   4.376   3.253  0.0411 -0.3427 -0.1047
    1C        C  415   4.114   4.293   3.256 -0.0419 -0.4625  0.1046
    1C        C  416   3.938   4.409   3.376 -0.4089 -0.6077 -0.2473
    1C        C  417   4.002   4.381   3.499 -0.4522 -0.5665 -0.2067
    1C        C  418   3.817   4.486   3.617 -0.1305 -0.1125 -0.0672
    1C        C  419   3.946   4.428   3.620 -0.5574 -1.1066 -0.0346
    1C        C  420   3.750   4.508   3.739 -0.2297 -0.0217 -0.1310
    1C        C  421   3.816   4.486   3.862 -0.4020 -0.2801 -0.0805
    1C        C  422   3.610   4.538   3.983 -0.2836 -0.6981  0.4122
    1C        C  423   3.747   4.504   3.984 -0.1501 -0.1976  0.0536
    1C        C  424   3.542   4.541   4.106 -0.6256 -0.2246  0.2121
    1C        C  425   3.610   4.541   4.229 -0.5158  0.1725  0.1527
    1C        C  426   3.403   4.547   4.353 -0.3903  0.1696  0.3305
    1C        C  427   3.544   4.553   4.354 -0.3479 -0.7356  0.3365
    1C        C  428   3.332   4.544   4.475 -0.2548  0.3681  0.4112
    1C        C  429   3.405   4.560   4.595 -0.2988  0.3379  0.4390
    1C        C  430   3.198   4.505   4.721 -0.0317 -0.4482  0.0074
    1C        C  431   3.336   4.540   4.717 -0.2243  0.3980  0.4887
    1C        C  432   3.125   4.489   4.842  0.2499 -0.6897  0.1447
    1C        C  433   3.203   4.494   4.958 -0.0541 -0.0137  0.3197
    1C        C  434   4.381   4.118   2.049 -0.2703 -0.2592  0.0571
    1C        C  435   4.448   3.995   2.051 -0.0327 -0.1413 -0.4794
    1C        C  436   4.307   4.166   2.162  0.1244  0.2298  0.1119
    1C        C  437   4.338   4.097   2.283  0.2095  0.3991  0.1858
    1C        C  438   4.178   4.246   2.404 -0.6287 -0.1160  0.2128
    1C        C  439   4.280   4.148   2.401 -0.1994  0.3371  0.0156
    1C        C  440   4.124   4.294   2.525 -0.5522 -0.5809  0.4360
    1C        C  441   4.179   4.246   2.646 -0.2659 -0.3818  0.3870
    1C        C  442   4.006   4.373   2.767  0.0695  0.4025 -0.2793
    1C        C  443   4.121   4.292   2.766 -0.5834 -0.5557  0.3033
    1C        C  444   3.943   4.411   2.888 -0.0669 -0.1639 -0.1653
    1C        C  445   4.007   4.381   3.011 -0.3877 -0.2468 -0.0096
    1C        C  446   3.813   4.475   3.130 -0.1432  0.2558 -0.0617
    1C        C  447   3.943   4.420   3.131 -0.4531 -0.5093  0.0511
    1C        C  448   3.745   4.492   3.253 -0.3362  0.2858 -0.1643
    1C        C  449   3.811   4.470   3.375 -0.3087 -0.3806 -0.2901
    1C        C  450   3.607   4.528   3.494 -0.1520 -0.5352 -0.0059
    1C        C  451   3.746   4.504   3.496 -0.1543 -0.5996 -0.1359
    1C        C  452   3.539   4.540   3.617  0.0567  0.1033  0.0531
    1C        C  453   3.612   4.535   3.738 -0.2824 -0.2557  0.2480
    1C        C  454   3.400   4.547   3.864 -0.1419  0.1050 -0.1812
    1C        C  455   3.542   4.551   3.860 -0.1119 -0.2992  0.3563
    1C        C  456   3.331   4.534   3.986 -0.0554 -0.7286 -0.2175
    1C        C  457   3.401   4.549   4.107 -0.5862  0.6264 -0.0639
    1C        C  458   3.200   4.490   4.235 -0.1764  0.5467 -0.1130
    1C        C  459   3.333   4.538   4.231 -0.1402  0.4619  0.1660
    1C        C  460   3.128   4.475   4.355 -0.1646 -0.1148 -0.1928
    1C        C  461   3.197   4.504   4.475 -0.2079  0.2171 -0.2515
    1C        C  462   3.001   4.432   4.599 -0.0227  0.0267  0.2717
    1C        C  463   3.130   4.489   4.598  0.1956 -0.4711 -0.1134
    1C        C  464   2.935   4.397   4.719 -0.3553  0.0873  0.1051
    1C        C  465   2.989   4.444   4.842  0.0007  0.0615 -0.0424
    1C        C  466   2.807   4.336   4.953  0.5405 -0.2493  0.1806
    1C        C  467   2.904   4.437   4.956  0.3419 -0.0592  0.2016
    1C        C  468   4.123   4.288   2.046 -0.3746 -0.4119  0.1644
    1C        C  469   4.192   4.251   2.162 -0.0451  0.0019  0.1003
    1C        C  470   4.006   4.365   2.282 -0.1830 -0.1470  0.1586
    1C        C  471   4.131   4.296   2.281 -0.0596  0.0741  0.0659
    1C        C  472   3.941   4.397   2.403 -0.3713  0.4041 -0.0830
    1C        C  473   4.007   4.373   2.525 -0.0178  0.2258 -0.3057
    1C        C  474   3.812   4.461   2.647 -0.2993 -0.4532  0.2973
    1C        C  475   3.944   4.409   2.646 -0.0610  0.1309 -0.2972
    1C        C  476   3.744   4.489   2.768 -0.4473  0.0481  0.1087
    1C        C  477   3.813   4.465   2.889  0.1265  0.3266 -0.1496
    1C        C  478   3.603   4.513   3.006 -0.0743  0.2155 -0.1426
    1C        C  479   3.743   4.490   3.009 -0.1638 -0.4144 -0.1477
    1C        C  480   3.535   4.523   3.129 -0.1435 -0.8940 -0.0706
    1C        C  481   3.605   4.512   3.251 -0.4510 -0.4216  0.1601
    1C        C  482   3.393   4.527   3.376 -0.4204  0.6280  0.2037
    1C        C  483   3.534   4.529   3.372 -0.4020 -0.0213  0.1413
    1C        C  484   3.325   4.523   3.500 -0.4868  0.6853  0.1738
    1C        C  485   3.398   4.533   3.620  0.0571 -0.0437 -0.0893
    1C        C  486   3.191   4.501   3.745 -0.3303  0.7068 -0.1763
    1C        C  487   3.329   4.534   3.743 -0.0990 -0.2213 -0.1729
    1C        C  488   3.126   4.477   3.868 -0.1736  0.8027 -0.0732
    1C        C  489   3.193   4.502   3.990 -0.1735 -0.1789  0.1299
    1C        C  490   3.002   4.414   4.113 -0.4797  0.3166 -0.1494
    1C        C  491   3.133   4.466   4.113 -0.3717  0.0424  0.0956
    1C        C  492   2.939   4.381   4.236 -0.4093  0.4292 -0.0876
    1C        C  493   2.996   4.424   4.358 -0.3523  0.3870 -0.1030
    1C        C  494   2.826   4.301   4.482 -0.2510  0.7526 -0.0274
    1C        C  495   2.937   4.389   4.481  0.1809  0.2062  0.0982
    1C        C  496   2.773   4.255   4.604 -0.7836  0.7794 -0.2454
    1C        C  497   2.824   4.308   4.724 -0.4130  0.1475 -0.1173
    1C        C  498   2.660   4.165   4.844  0.7684 -0.5686 -0.2487
    1C        C  499   2.758   4.267   4.842  0.0516  0.1449  0.1452
    1C        C  500   2.598   4.113   4.958 -0.0776  0.0835 -0.3964
    1C        C  501   3.998   4.349   2.045 -0.3678 -0.4000 -0.0930
    1C        C  502   3.810   4.456   2.159 -0.1014 -0.2015 -0.2314
    1C        C  503   3.940   4.399   2.162 -0.3525 -0.7684  0.0731
    1C        C  504   3.742   4.471   2.281 -0.0784  0.0563 -0.2494
    1C        C  505   3.807   4.444   2.403 -0.6253 -0.2954 -0.0280
    1C        C  506   3.603   4.495   2.520 -0.3649 -0.9024  0.0723
    1C        C  507   3.742   4.474   2.525 -0.3879 -1.0235  0.2836
    1C        C  508   3.534   4.516   2.642 -0.0278 -0.4299  0.1887
    1C        C  509   3.605   4.515   2.764 -0.3054  0.9028  0.3830
    1C        C  510   3.391   4.516   2.887 -0.6651  0.4332 -0.3301
    1C        C  511   3.533   4.521   2.885 -0.6522  0.5291  0.2025
    1C        C  512   3.322   4.515   3.010 -0.1318  0.1955 -0.0218
    1C        C  513   3.394   4.531   3.130 -0.0838  0.5032 -0.0845
    1C        C  514   3.187   4.491   3.253  0.0293  0.2950 -0.5788
    1C        C  515   3.325   4.524   3.253  0.0002  0.4545 -0.0342
    1C        C  516   3.122   4.473   3.377 -0.1440  0.7379 -0.5981
    1C        C  517   3.186   4.494   3.501 -0.3671  0.0453 -0.3513
    1C        C  518   3.001   4.403   3.624 -0.4014  0.6706 -0.1446
    1C        C  519   3.122   4.475   3.625 -0.1234  0.2115 -0.1949
    1C        C  520   2.945   4.364   3.748 -0.5880  0.7273 -0.2111
    1C        C  521   3.004   4.406   3.869 -0.1647  0.7851 -0.4377
    1C        C  522   2.829   4.289   3.997  0.1834  0.2669 -0.0935
    1C        C  523   2.945   4.369   3.992  0.1383  0.3094 -0.4346
    1C        C  524   2.776   4.241   4.119  0.1639  0.1770 -0.1394
    1C        C  525   2.832   4.289   4.239 -0.5802  0.6365  0.0258
    1C        C  526   2.698   4.129   4.365  0.5029 -0.0774  0.1564
    1C        C  527   2.778   4.245   4.362 -0.1944  0.4109  0.1130
    1C        C  528   2.650   4.078   4.488  0.1082  0.0559  0.0564
    1C        C  529   2.680   4.149   4.606 -0.2983  0.3486 -0.0140
    1C        C  530   2.577   3.961   4.730 -0.0602 -0.3270 -0.2179
    1C        C  531   2.631   4.093   4.726  0.0521 -0.3697 -0.1981
    1C        C  532   2.537   3.901   4.852 -0.6203  0.1121 -0.1822
    1C        C  533   2.528   3.992   4.962  0.1798 -0.0554  0.0272
    1C        C  534   3.621   4.563   2.046 -0.0820  0.2688 -0.1766
    1C        C  535   3.751   4.510   2.044 -0.1624  0.0681 -0.0736
    1C        C  536   3.536   4.537   2.158  0.2050  0.2772  0.0476
    1C        C  537   3.603   4.502   2.278 -0.1030 -0.0044  0.1423
    1C        C  538   3.391   4.518   2.398 -0.1136  0.1294 -0.0915
    1C        C  539   3.532   4.513   2.400 -0.1019  0.4601  0.1042
    1C        C  540   3.323   4.510   2.521 -0.1899  0.1189 -0.1324
    1C        C  541   3.393   4.516   2.644 -0.0373 -0.3737 -0.1897
    1C        C  542   3.181   4.484   2.766 -0.5056  0.2066  0.3226
    1C        C  543   3.321   4.504   2.765 -0.4734  0.0019 -0.4046
    1C        C  544   3.113   4.465   2.888 -0.7299  0.7496  0.2874
    1C        C  545   3.184   4.483   3.008 -0.2669  0.7498  0.0180
    1C        C  546   2.996   4.395   3.135 -0.4345 -0.0792  0.0376
    1C        C  547   3.122   4.459   3.132 -0.5592  0.1659 -0.2342
    1C        C  548   2.935   4.367   3.259 -0.2636  0.6805  0.3004
    1C        C  549   2.997   4.406   3.380  0.2015  0.1042  0.2497
    1C        C  550   2.830   4.276   3.503 -0.7157  0.5907 -0.1098
    1C        C  551   2.941   4.364   3.502 -0.4531  0.2611  0.0102
    1C        C  552   2.778   4.232   3.627 -0.2552  0.6277  0.0987
    1C        C  553   2.831   4.280   3.749 -0.5276  0.6497  0.2082
    1C        C  554   2.698   4.125   3.879 -0.1802  0.2195  0.2620
    1C        C  555   2.780   4.240   3.874 -0.6443  0.5451  0.1259
    1C        C  556   2.658   4.066   4.001  0.5171 -0.1315  0.3190
    1C        C  557   2.688   4.131   4.122  0.2392  0.1305  0.2460
    1C        C  558   2.588   3.946   4.247  0.1692  0.0440 -0.3573
    1C        C  559   2.650   4.073   4.245  0.3414 -0.0300  0.1998
    1C        C  560   2.560   3.880   4.368  0.0370 -0.2101 -0.5251
    1C        C  561   2.589   3.950   4.487  0.0387  0.0870 -0.7012
    1C        C  562   2.527   3.751   4.614  0.3497  0.0891  0.0569
    1C        C  563   2.558   3.888   4.610  0.8148 -0.0247 -0.5552
    1C        C  564   2.512   3.683   4.736  0.1531 -0.0760 -0.0553
    1C        C  565   2.515   3.760   4.855  0.0467  0.0096 -0.1062
    1C        C  566   2.525   3.547   4.977 -0.2591 -0.2132  0.2970
    1C        C  567   2.521   3.686   4.974  0.0775 -0.2112 -0.2434
    1C        C  568   3.323   4.480   2.040  0.2132  0.3622 -0.0694
    1C        C  569   3.396   4.511   2.155  0.1821  0.4092 -0.0619
    1C        C  570   3.183   4.477   2.279  0.0466 -0.1116  0.1518
    1C        C  571   3.321   4.511   2.276  0.0224 -0.0322 -0.1614
    1C        C  572   3.119   4.451   2.402  0.0386 -0.2184  0.1260
    1C        C  573   3.185   4.480   2.523 -0.2811  0.5500  0.1215
    1C        C  574   2.990   4.392   2.647  0.0831 -0.0975 -0.0907
    1C        C  575   3.115   4.458   2.644 -0.3415  0.7265  0.1201
    1C        C  576   2.930   4.358   2.770  0.1183 -0.0284 -0.0536
    1C        C  577   2.989   4.396   2.892 -0.6403  0.5747  0.1422
    1C        C  578   2.820   4.271   3.014 -0.7382  0.3566 -0.4875
    1C        C  579   2.933   4.355   3.015 -0.5639  0.1258  0.0341
    1C        C  580   2.768   4.226   3.138 -0.1012  0.4157 -0.1974
    1C        C  581   2.825   4.278   3.256  0.2294  0.0777 -0.2032
    1C        C  582   2.693   4.118   3.387 -0.0147  0.0784 -0.2228
    1C        C  583   2.778   4.230   3.381  0.3036 -0.1657 -0.2691
    1C        C  584   2.655   4.060   3.511  0.4154  0.3013  0.0126
    1C        C  585   2.695   4.118   3.633  0.4464  0.1058  0.0947
    1C        C  586   2.592   3.939   3.757  0.1548  0.3240 -0.1558
    1C        C  587   2.656   4.065   3.758  0.1592  0.3187  0.0960
    1C        C  588   2.570   3.872   3.880  0.0337  0.0647 -0.3195
    1C        C  589   2.594   3.940   4.001  0.0158  0.1189 -0.3488
    1C        C  590   2.532   3.741   4.127  0.4747 -0.0255  0.1909
    1C        C  591   2.568   3.877   4.125  0.0542  0.0843 -0.3602
    1C        C  592   2.516   3.672   4.249  0.3702 -0.2776  0.0374
    1C        C  593   2.523   3.743   4.371  0.1668 -0.2388  0.0261
    1C        C  594   2.510   3.535   4.494 -0.1204  0.0110  0.1766
    1C        C  595   2.514   3.676   4.494 -0.0514  0.0097  0.1475
    1C        C  596   2.523   3.467   4.617  0.3052  0.1560  0.2112
    1C        C  597   2.517   3.540   4.738 -0.2218 -0.0897  0.3368
    1C        C  598   2.539   3.331   4.860 -0.3637 -0.2310 -0.0222
    1C        C  599   2.520   3.470   4.860 -0.1247 -0.1943  0.2766
    1C        C  600   2.531   3.250   4.974 -0.2697 -0.2137 -0.0025
    1C        C  601   3.192   4.438   2.044  0.0419  0.8684 -0.3061
    1C        C  602   2.977   4.396   2.161  0.3862 -0.2835  0.2660
    1C        C  603   3.113   4.443   2.159  0.3962 -0.3190  0.0025
    1C        C  604   2.920   4.360   2.285 -0.0877  0.0182  0.1378
    1C        C  605   2.991   4.392   2.403 -0.1436  0.1704  0.1306
    1C        C  606   2.817   4.269   2.527 -0.2338  0.1020 -0.0380
    1C        C  607   2.929   4.356   2.525 -0.4833  0.4267  0.0337
    1C        C  608   2.766   4.220   2.649 -0.0682  0.1561  0.0540
    1C        C  609   2.817   4.273   2.770  0.0337  0.0812  0.0443
    1C        C  610   2.680   4.112   2.895 -0.8455  0.0932  0.1917
    1C        C  611   2.767   4.224   2.892 -0.9729  0.1835 -0.3207
    1C        C  612   2.646   4.056   3.019 -0.4344  0.0401  0.2845
    1C        C  613   2.683   4.114   3.143  0.2188  0.1787  0.0276
    1C        C  614   2.594   3.926   3.266  0.4447 -0.2873  0.3818
    1C        C  615   2.655   4.054   3.267 -0.1449  0.0006 -0.1394
    1C        C  616   2.571   3.864   3.391  0.6798 -0.3588  0.3886
    1C        C  617   2.602   3.929   3.512  0.5085  0.2652  0.0961
    1C        C  618   2.540   3.731   3.636  0.5540 -0.0985  0.1974
    1C        C  619   2.574   3.868   3.636  1.2990 -0.2769  0.0110
    1C        C  620   2.524   3.666   3.760 -0.0310 -0.0252  0.1602
    1C        C  621   2.535   3.736   3.883  0.3124  0.0019  0.1134
    1C        C  622   2.508   3.527   4.006 -0.1842  0.0597 -0.2016
    1C        C  623   2.520   3.668   4.006  0.7110 -0.0080  0.1572
    1C        C  624   2.512   3.459   4.130 -0.2916  0.1364 -0.1551
    1C        C  625   2.512   3.531   4.251  0.2681 -0.2746  0.0938
    1C        C  626   2.545   3.324   4.376  0.1936  0.0013 -0.0729
    1C        C  627   2.512   3.462   4.374 -0.0755 -0.0572  0.2173
    1C        C  628   2.563   3.254   4.497  0.2140 -0.2761 -0.2349
    1C        C  629   2.547   3.327   4.616  0.3567  0.1644 -0.4826
    1C        C  630   2.605   3.126   4.743  0.2568  0.4421 -0.1111
    1C        C  631   2.559   3.260   4.740  0.2296  0.4289 -0.3240
    1C        C  632   2.625   3.055   4.865  0.2927  0.6825  0.0231
    1C        C  633   2.563   3.113   4.981  0.3305 -0.0577  0.4224
    1C        C  634   2.785   4.296   2.050  0.4702 -0.4768  0.1162
    1C        C  635   2.892   4.388   2.046  0.2713 -0.2349  0.3490
    1C        C  636   2.748   4.228   2.166 -0.0590 -0.3123  0.0438
    1C        C  637   2.808   4.272   2.286 -0.4389  0.4604 -0.0408
    1C        C  638   2.672   4.109   2.409  0.5190 -0.4021 -0.3635
    1C        C  639   2.761   4.219   2.408 -0.4315  0.3879 -0.0689
    1C        C  640   2.640   4.044   2.530  0.4324 -0.0149 -0.1755
    1C        C  641   2.685   4.105   2.650  0.2922 -0.1013 -0.0768
    1C        C  642   2.584   3.922   2.776  0.2258 -0.0055 -0.3892
    1C        C  643   2.643   4.050   2.773  0.0037  0.1056 -0.0807
    1C        C  644   2.559   3.859   2.900  0.6227  0.1247 -0.2407
    1C        C  645   2.588   3.927   3.020  0.3671 -0.3234  0.0765
    1C        C  646   2.534   3.724   3.148  0.4022 -0.0048 -0.0128
    1C        C  647   2.566   3.862   3.144  0.3006  0.0264  0.2508
    1C        C  648   2.520   3.656   3.271  0.4996 -0.1817 -0.1021
    1C        C  649   2.532   3.728   3.392  0.6263 -0.3467 -0.0188
    1C        C  650   2.513   3.519   3.518  0.3283 -0.0104 -0.2124
    1C        C  651   2.521   3.660   3.515  0.5336 -0.0165  0.1529
    1C        C  652   2.514   3.451   3.642  1.1128  0.4004  0.0137
    1C        C  653   2.514   3.525   3.762  0.8865 -0.0938  0.3239
    1C        C  654   2.535   3.317   3.887  0.9304 -0.2357 -0.2498
    1C        C  655   2.509   3.456   3.885 -0.3087 -0.4480  0.0908
    1C        C  656   2.555   3.251   4.010  0.1709  0.0285  0.0202
    1C        C  657   2.541   3.320   4.132  0.1754  0.2340 -0.0947
    1C        C  658   2.608   3.120   4.257 -0.3277 -0.0681 -0.1945
    1C        C  659   2.562   3.253   4.255  0.3827  0.1831 -0.1556
    1C        C  660   2.643   3.059   4.380 -0.6734 -0.0522 -0.0840
    1C        C  661   2.604   3.119   4.502  0.2498 -0.2505  0.3188
    1C        C  662   2.716   2.940   4.624  0.2039 -0.3546 -0.0637
    1C        C  663   2.636   3.056   4.624  0.4189 -0.2056  0.2996
    1C        C  664   2.761   2.885   4.745 -0.0381  0.0896  0.2310
    1C        C  665   2.707   2.938   4.866 -0.1674  0.3556  0.0576
    1C        C  666   2.751   2.873   4.982  0.2476  0.0857 -0.2462
    1C        C  667   2.666   4.027   2.050 -0.5654  0.2384 -0.3100
    1C        C  668   2.684   4.102   2.167 -0.3134 -0.1868 -0.0737
    1C        C  669   2.579   3.915   2.289 -0.7096 -0.2675 -0.1629
    1C        C  670   2.640   4.044   2.288  0.1143 -0.6437 -0.1297
    1C        C  671   2.550   3.851   2.411 -0.7877  0.1996  0.0695
    1C        C  672   2.577   3.918   2.532  0.6614 -0.1297 -0.0508
    1C        C  673   2.516   3.718   2.659 -0.6603 -0.0240  0.1833
    1C        C  674   2.555   3.854   2.656 -0.0601 -0.1986 -0.2106
    1C        C  675   2.511   3.651   2.783 -0.0575  0.0483  0.2513
    1C        C  676   2.523   3.723   2.904  0.4025  0.1915  0.1175
    1C        C  677   2.503   3.514   3.029 -0.1249  0.1187  0.0221
    1C        C  678   2.514   3.654   3.027 -0.3872  0.1378  0.0301
    1C        C  679   2.502   3.445   3.152 -0.0577 -0.2013 -0.1578
    1C        C  680   2.507   3.516   3.274  0.2706 -0.1617 -0.1973
    1C        C  681   2.531   3.307   3.399  0.6523 -0.1222 -0.0079
    1C        C  682   2.510   3.446   3.397  0.8112 -0.1008 -0.1718
    1C        C  683   2.552   3.242   3.523  0.2202 -0.2847 -0.0172
    1C        C  684   2.540   3.313   3.645 -0.3861  0.0931 -0.2912
    1C        C  685   2.602   3.113   3.769 -0.8723 -0.4321 -0.0721
    1C        C  686   2.547   3.243   3.768 -0.1858 -0.1376 -0.4303
    1C        C  687   2.643   3.055   3.891 -0.5718 -0.1600 -0.0401
    1C        C  688   2.607   3.119   4.012 -0.3018 -0.1626  0.0457
    1C        C  689   2.708   2.937   4.136 -0.0628 -0.2161 -0.2774
    1C        C  690   2.628   3.053   4.134 -0.2054 -0.3069 -0.0469
    1C        C  691   2.755   2.881   4.257 -0.2357 -0.1556 -0.1796
    1C        C  692   2.721   2.942   4.380 -0.7151 -0.0841 -0.3409
    1C        C  693   2.765   2.887   4.502  0.2329  0.4723 -0.4211
    1C        C  694   2.626   3.893   2.055 -0.7768  0.3035 -0.2110
    1C        C  695   2.526   3.703   2.172 -0.7706 -0.0740  0.2302
    1C        C  696   2.573   3.836   2.172 -0.0102 -0.3343 -0.1623
    1C        C  697   2.510   3.637   2.296 -0.3560 -0.0661  0.2932
    1C        C  698   2.517   3.714   2.414  0.1882 -0.0408  0.2500
    1C        C  699   2.496   3.506   2.543 -0.0541 -0.1117  0.1639
    1C        C  700   2.502   3.647   2.538 -0.1858 -0.1049  0.1734
    1C        C  701   2.500   3.436   2.666  0.0291 -0.0100  0.2194
    1C        C  702   2.504   3.510   2.786 -0.0249  0.0462  0.1850
    1C        C  703   2.528   3.299   2.912  0.5213  0.0215  0.1911
    1C        C  704   2.511   3.440   2.909  0.1551 -0.0245  0.1317
    1C        C  705   2.541   3.232   3.035  0.0144 -0.1588  0.1454
    1C        C  706   2.532   3.307   3.155  0.3672 -0.1025  0.1332
    1C        C  707   2.599   3.106   3.281 -0.0686 -0.4274 -0.2264
    1C        C  708   2.550   3.239   3.277  0.1683 -0.3329  0.0323
    1C        C  709   2.632   3.044   3.404 -0.2635 -0.1731 -0.0459
    1C        C  710   2.600   3.110   3.525 -0.1130 -0.4051  0.1191
    1C        C  711   2.715   2.934   3.648 -0.0202 -0.3835  0.1408
    1C        C  712   2.634   3.049   3.648  0.0430 -0.3384  0.1094
    1C        C  713   2.758   2.877   3.770 -0.5303 -0.4578  0.2888
    1C        C  714   2.719   2.936   3.893 -0.6075 -0.1839  0.1356
    1C        C  715   2.756   2.879   4.016 -0.0745 -0.4886 -0.1561
    1C        C  716   2.447   3.500   2.061  0.2827 -0.0057  0.0210
    1C        C  717   2.483   3.635   2.057  0.2813 -0.0114 -0.2114
    1C        C  718   2.464   3.423   2.180  0.3071  0.0038  0.0252
    1C        C  719   2.488   3.497   2.299  0.3799 -0.1916  0.1343
    1C        C  720   2.524   3.293   2.424  0.1383 -0.1661  0.1569
    1C        C  721   2.493   3.431   2.424  0.2605 -0.1374  0.1694
    1C        C  722   2.539   3.226   2.547 -0.0401  0.0983  0.3242
    1C        C  723   2.521   3.296   2.668 -0.0721 -0.0212  0.3880
    1C        C  724   2.592   3.097   2.791  0.5014 -0.0963 -0.1558
    1C        C  725   2.540   3.228   2.790  0.5251 -0.0871  0.2579
    1C        C  726   2.625   3.037   2.914 -0.0979 -0.4015 -0.1440
    1C        C  727   2.593   3.101   3.036 -0.3631 -0.3109 -0.2627
    1C        C  728   2.705   2.924   3.158 -0.0486 -0.2716 -0.2784
    1C        C  729   2.627   3.041   3.159  0.0972 -0.1758 -0.3227
    1C        C  730   2.757   2.877   3.281 -0.6772 -0.2370 -0.0001
    1C        C  731   2.714   2.929   3.405 -0.5883 -0.4029  0.0992
    1C        C  732   2.761   2.877   3.527 -0.3667 -0.3992  0.0145
    1C        C  733   2.490   3.198   2.074  0.2571 -0.0662  0.0051
    1C        C  734   2.487   3.282   2.186  0.2324 -0.0122 -0.0350
    1C        C  735   2.583   3.086   2.306  0.3974  0.1667  0.3117
    1C        C  736   2.528   3.217   2.306 -0.0365 -0.0175  0.0551
    1C        C  737   2.609   3.018   2.428  0.1123 -0.0615  0.2449
    1C        C  738   2.586   3.092   2.545  0.0928  0.1483  0.1080
    1C        C  739   2.705   2.919   2.670  0.1848 -0.3539 -0.3700
    1C        C  740   2.623   3.033   2.668  0.5413 -0.0961 -0.1443
    1C        C  741   2.754   2.867   2.791 -0.1564 -0.5704 -0.3245
    1C        C  742   2.707   2.922   2.913 -0.3770 -0.5976 -0.3993
    1C        C  743   2.755   2.872   3.036 -0.0483 -0.1309 -0.3365
    1C        C  744   2.546   3.070   2.076  1.1294  0.3062 -0.1627
    1C        C  745   2.693   2.901   2.186 -0.1834 -0.1444 -0.4883
    1C        C  746   2.612   3.017   2.187  0.4324  0.2897  0.2488
    1C        C  747   2.735   2.846   2.309  0.7126  0.5148 -0.4894
    1C        C  748   2.686   2.899   2.430  0.0406 -0.1219 -0.4784
    1C        C  749   2.745   2.856   2.550  0.1462 -0.0882 -0.5212
    1C        C  750   2.742   2.841   2.069  0.1989 -0.2841 -0.2606
    1C        C  751   3.661   2.300   2.006 -0.0095  0.3269 -0.2578
    1C        O  752   3.696   2.201   2.077 -0.4277  0.3764  0.0189
    1C        O  753   3.710   2.296   1.875 -0.2538 -0.2447 -0.3328
    1C        C  754   4.618   3.038   1.986  0.5712  0.2270 -0.1509
    1C        O  755   4.612   3.039   1.860 -0.3650  0.0570 -0.1128
    1C        O  756   4.742   2.986   2.026  0.3028 -0.1512  0.1979
    1C        C  757   4.452   4.200   1.948 -0.3114 -0.2764  0.0152
    1C        O  758   4.518   4.304   1.974  0.1892 -0.4391 -0.5545
    1C        O  759   4.426   4.186   1.811 -0.0407 -0.2477 -0.0408
    1C        C  760   3.604   4.685   1.963 -0.6926  0.2241 -0.1180
    1C        O  761   3.595   4.801   2.010  0.0075  0.1245  0.2673
    1C        O  762   3.639   4.679   1.828 -0.3201  0.3641 -0.0291
    1C        C  763   2.858   4.511   1.972 -0.3577 -0.3619  0.4216
    1C        O  764   2.917   4.533   1.863 -1.2016  0.0619  0.0423
    1C        O  765   2.742   4.588   1.985  0.1197  0.3644  0.3968
    1C        C  766   2.343   3.466   1.961  0.1188  0.5491 -0.0055
    1C        O  767   2.364   3.419   1.846 -0.2938 -0.2230  0.2243
    1C        O  768   2.207   3.462   1.993 -0.0858  0.1940 -0.9044
    1C        C  769   4.715   3.591   5.035 -0.1759 -0.6554  0.0136
    1C        O  770   4.705   3.602   5.160 -0.6649  0.2451 -0.0975
    1C        O  771   4.844   3.631   4.997 -0.3362 -0.3164 -0.1724
    1C        C  772   4.261   4.434   5.060 -0.4332 -0.3117  0.1445
    1C        O  773   4.259   4.386   5.176  0.0575  0.0518  0.3048
    1C        O  774   4.367   4.524   5.046 -0.1729 -0.7136 -0.5531
    1C        C  775   4.136   2.533   5.080 -0.2149 -0.3647 -0.0348
    1C        O  776   4.251   2.497   5.043 -0.0617  0.3928 -0.3303
    1C        O  777   4.118   2.495   5.213 -0.5631 -0.0091  0.0190
    1C        C  778   2.890   4.545   5.056  0.3471  0.0941  0.0350
    1C        O  779   2.839   4.657   5.027 -0.2924 -0.2962 -0.3749
    1C        O  780   2.901   4.524   5.194 -0.2238  0.3821  0.1274
    1C        C  781   2.459   3.038   5.054 -0.1281  0.2864  0.1285
    1C        O  782   2.359   2.981   5.002 -0.0652  0.4233 -0.1474
    1C        O  783   2.451   3.021   5.192  0.3567  0.2880  0.1576
    1C        C  784   2.399   3.986   5.035  0.0426 -0.3647 -0.2418
    1C        O  785   2.298   4.045   4.987  0.0709 -0.5539 -0.5420
    1C        O  786   2.393   3.990   5.175 -0.2897 -0.3652 -0.2542
    1C        C  787   2.943   2.424   2.002 -0.0217 -0.5828  0.0581
    1C        O  788   2.954   2.422   1.876 -0.3452 -0.2300  0.0229
    1C        O  789   2.856   2.331   2.056 -0.4714  0.1644  0.6214
    1C        C  790   3.180   2.379   5.065  0.3155 -0.3599  0.0833
    1C        O  791   3.164   2.262   5.022  0.8366 -0.3295 -0.2015
    1C        O  792   3.229   2.378   5.196  0.3341 -0.2366  0.0775
    1C        H  793   4.234   3.034   5.042 -0.6551 -1.4573  0.0934
    1C        H  794   4.176   2.807   5.071  0.4849 -0.4254  0.2351
    1C        H  795   4.512   3.129   5.046  0.2818  1.6549  1.2101
    1C        H  796   4.517   3.368   5.062  2.1069 -0.3486 -0.2764
    1C        H  797   4.584   3.821   5.035  1.6320 -0.3351 -0.3807
    1C        H  798   4.467   4.006   5.040 -2.4880 -0.8798  2.0404
    1C        H  799   4.277   4.162   5.054  0.7862  2.3055 -0.1769
    1C        H  800   4.047   4.564   5.002 -1.3891 -1.6033  1.3623
    1C        H  801   3.793   4.492   5.026 -0.0548 -0.8142 -1.1150
    1C        H  802   3.594   4.650   5.028 -0.0350 -1.1751  1.2813
    1C        H  803   3.389   4.501   5.047 -0.7977  0.7773  1.0856
    1C        H  804   3.159   4.462   5.050 -2.2409  0.1984 -0.5918
    1C        H  805   3.894   2.463   5.061 -0.0106 -0.9211 -0.8040
    1C        H  806   3.681   2.467   5.072 -0.5958 -0.8176  0.5341
    1C        H  807   2.995   2.549   5.057  0.2897  1.2108  0.0586
    1C        H  808   3.454   2.406   5.051 -0.0184  0.4119 -0.2803
    1C        H  809   2.836   2.704   5.068 -0.7080 -1.5838 -1.0365
    1C        H  810   2.734   2.918   5.078  1.5938  0.0290  0.0426
    1C        H  811   2.474   3.283   5.058 -0.4093 -2.2493  0.7749
    1C        H  812   2.556   3.497   5.067 -0.3362 -1.6376 -0.4429
    1C        H  813   2.513   3.736   5.069 -2.2280 -0.6043 -0.1743
    1C        H  814   2.607   4.163   5.052 -0.6621  0.2583 -0.4336
    1C        H  815   2.764   4.309   5.048  0.9782  0.3152  0.5516
    1C        H  816   2.730   2.893   1.976  0.7739 -0.4413 -0.4282
    1C        H  817   2.831   2.671   1.983  1.9801 -0.6829  0.5920
    1C        H  818   3.214   2.445   1.986  0.1105 -0.9286 -0.0186
    1C        H  819   3.429   2.470   1.979  1.2738  0.0167 -0.6116
    1C        H  820   3.857   2.497   1.973  1.1500 -0.8332 -0.1762
    1C        H  821   4.027   2.675   1.981  0.4241 -0.6144 -0.5806
    1C        H  822   4.261   2.716   1.974  0.0919 -0.3462  0.3740
    1C        H  823   4.389   2.910   1.968  1.6745 -1.6219  0.6390
    1C        H  824   4.646   3.297   2.007 -0.9999  3.0288  0.1303
    1C        H  825   4.521   3.512   1.956 -1.5391 -0.7845  0.9052
    1C        H  826   4.485   3.747   1.955  0.0594 -0.1089 -0.1700
    1C        H  827   3.815   4.541   1.964  0.5188 -1.8882 -0.3379
    1C        H  828   3.931   4.321   1.967 -0.8058  0.8522 -0.1892
    1C        H  829   4.186   4.331   1.971 -0.0576  0.0325  0.6811
    1C        H  830   4.454   3.944   1.957 -0.2836 -1.3920  0.1651
    1C        H  831   2.694   3.830   2.001  0.9042  1.4066  0.5701
    1C        H  832   2.677   4.071   1.953 -0.8590 -0.9936 -0.9254
    1C        H  833   2.709   4.306   1.976  0.4331  0.9208  0.3075
    1C        H  834   3.352   4.521   1.945  0.0371 -1.1420 -0.8090
    1C        H  835   3.144   4.427   1.949 -0.6751  0.2858  0.1153
    1C        H  836   2.520   3.005   1.995  3.0368 -2.5443  1.3403
    1C        H  837   2.447   3.231   1.982  0.7848 -2.4256 -1.1783
    1C        H  838   2.475   3.684   1.962 -0.3799  0.4668  0.0864
    2V3OU   H29  839   2.800   3.545   0.629  1.0370 -0.7230  0.6884
    2V3OU   C27  840   2.787   3.505   0.732  0.2986 -0.5060  0.6833
    2V3OU   H27  841   2.731   3.572   0.803 -1.5038 -2.1869  0.9518
    2V3OU   H28  842   2.734   3.407   0.718  0.8092 -0.3470 -3.2776
    2V3OU   O11  843   2.914   3.468   0.786  0.6128  0.2991  0.5022
    2V3OU   C15  844   2.922   3.395   0.903  0.1454 -0.7126 -0.0832
    2V3OU   C13  845   3.053   3.366   0.947  0.1986 -0.0073  0.2428
    2V3OU   C14  846   3.081   3.267   1.041 -0.0772  0.2612  0.6095
    2V3OU   C16  847   2.973   3.193   1.088  0.1082 -0.3726  0.0638
    2V3OU    H6  848   2.988   3.106   1.154 -0.3816  0.7770  1.7831
    2V3OU   C12  849   3.217   3.230   1.086  0.0981 -0.7015 -0.6472
    2V3OU    O2  850   3.229   3.127   1.156  0.5718 -0.3034 -0.1294
    2V3OU   C10  851   3.330   3.313   1.040 -0.0023 -0.2982 -0.1727
    2V3OU    C8  852   3.459   3.268   1.064  0.0979  0.0198 -0.1238
    2V3OU   O10  853   3.491   3.143   1.106  0.7286 -0.0164 -0.6938
    2V3OU   H26  854   3.406   3.105   1.133  0.4151  0.7236 -0.6184
    2V3OU    C6  855   3.565   3.352   1.017  0.0828 -0.1774 -0.5088
    2V3OU    C5  856   3.538   3.466   0.942  0.0179 -0.2341 -0.5687
    2V3OU    C4  857   3.702   3.295   1.002  0.0006 -0.4463 -0.2343
    2V3OU    H4  858   3.720   3.228   1.091  0.1868  0.3882  0.3698
    2V3OU    H5  859   3.711   3.231   0.910  0.8612  0.7578 -1.0164
    2V3OU    C2  860   3.817   3.397   1.004 -0.4167  0.0242  0.2705
    2V3OU    O6  861   3.808   3.467   1.128 -0.1341 -0.5817  0.6404
    2V3OU   H21  862   3.761   3.546   1.097  0.1047 -1.0653 -1.0553
    2V3OU    C3  863   3.783   3.498   0.894 -0.2518 -0.1688  0.0414
    2V3OU    H2  864   3.860   3.579   0.896 -0.4518  0.0113  0.5011
    2V3OU    H3  865   3.787   3.441   0.797  0.4544  1.1229 -0.7034
    2V3OU   C25  866   3.952   3.326   0.989 -0.5058  0.0463 -0.7285
    2V3OU    O7  867   4.001   3.287   0.883  0.0468 -0.0368 -0.4480
    2V3OU   C26  868   4.025   3.293   1.118 -0.4756  0.6053 -0.5969
    2V3OU   H22  869   4.052   3.386   1.174 -3.3344  0.2621  1.6491
    2V3OU   H23  870   4.114   3.229   1.097 -0.1118  1.1182 -0.6389
    2V3OU    O8  871   3.954   3.203   1.201  0.7746  0.5671  0.4685
    2V3OU   H24  872   3.929   3.250   1.283  2.7284 -2.2123  2.8359
    2V3OU    C1  873   3.646   3.563   0.905 -0.1607  0.0763 -0.2846
    2V3OU    H1  874   3.625   3.615   0.807  1.0033  0.0103 -0.5841
    2V3OU    O3  875   3.658   3.655   1.013 -0.2086  0.0777 -0.2806
    2V3OU   C19  876   3.615   3.791   1.017 -0.6122 -0.0555 -0.0111
    2V3OU    H9  877   3.511   3.804   0.973 -0.5592  3.4689  0.6256
    2V3OU    O4  878   3.707   3.859   0.934  0.1554 -0.7950  0.2156
    2V3OU   C20  879   3.843   3.875   0.977  0.0234  0.3049  0.2530
    2V3OU   H10  880   3.884   3.774   1.005 -0.5983  0.6702  2.7061
    2V3OU   C24  881   3.613   3.853   1.156 -0.0246  0.1842 -0.1045
    2V3OU   H16  882   3.541   3.794   1.219 -0.6088 -1.5619 -2.2832
    2V3OU   H17  883   3.577   3.959   1.151  0.2357  0.3358  0.9303
    2V3OU   C23  884   3.753   3.875   1.213 -0.0295  0.0044 -0.0212
    2V3OU   H15  885   3.793   3.770   1.234 -2.0869 -0.8143  0.0481
    2V3OU    N1  886   3.734   3.951   1.335  0.4560 -0.3849  0.3015
    2V3OU   H19  887   3.810   3.929   1.397  1.6146 -0.8011 -1.2022
    2V3OU   H20  888   3.651   3.932   1.387  0.8487  0.9115  1.4752
    2V3OU   C21  889   3.852   3.943   1.113 -0.0039  0.3445  0.2355
    2V3OU   H11  890   3.953   3.919   1.157  0.5936 -2.0398 -2.1786
    2V3OU    O5  891   3.833   4.084   1.113  0.2476  0.3789 -0.4206
    2V3OU   H18  892   3.785   4.101   1.196 -2.0788 -2.4943 -1.0041
    2V3OU   C22  893   3.913   3.949   0.864  0.5841 -0.4031  0.1371
    2V3OU   H12  894   3.869   4.051   0.855  0.6516 -0.1884  1.8983
    2V3OU   H13  895   3.902   3.894   0.767  0.1405 -0.3953  0.1849
    2V3OU   H14  896   4.023   3.958   0.884  0.2200  2.3338  1.2467
    2V3OU   C11  897   3.158   3.469   0.940 -0.0560  0.2349 -0.1065
    2V3OU    O1  898   3.130   3.578   0.888  0.0848  0.1982 -0.2567
    2V3OU    C9  899   3.299   3.430   0.966 -0.2062 -0.1698  0.1171
    2V3OU    C7  900   3.403   3.506   0.914 -0.1332 -0.4898 -0.2057
    2V3OU    O9  901   3.387   3.628   0.852 -0.1936 -0.3667  0.0497
    2V3OU   H25  902   3.291   3.633   0.869 -0.3334 -0.6802 -0.5698
    2V3OU   C17  903   2.815   3.318   0.953 -0.0227 -0.4722 -0.0716
    2V3OU    H7  904   2.710   3.336   0.933  0.0914 -1.1180 -1.3369
    2V3OU   C18  905   2.843   3.219   1.046  0.1660 -0.5652 -0.2287
    2V3OU    H8  906   2.762   3.170   1.102 -0.2105 -1.1573 -1.2631
    3SOL     OW  907   6.243   4.127   1.850  0.1024 -0.2185  0.4116
    3SOL    HW1  908   6.302   4.124   1.931  0.0754 -0.5560  0.4214
    3SOL    HW2  909   6.223   4.222   1.827  1.6533 -0.0456 -0.3330
    4SOL     OW  910   5.168   1.083   2.739  0.0584 -0.2113  0.1700
    4SOL    HW1  911   5.147   1.158   2.801  1.8464  0.3887  0.0886
    4SOL    HW2  912   5.099   1.079   2.667 -1.8123 -0.6544  1.9017
    5SOL     OW  913   3.150   3.526   6.904  0.1156  0.0392  0.0486
    5SOL    HW1  914   3.168   3.623   6.887  0.5860 -0.3605 -1.9928
    5SOL    HW2  915   3.071   3.517   6.965  0.4839  1.6956  0.8252
    6SOL     OW  916   2.832   1.589   0.290 -0.1651 -0.5933 -0.2353
    6SOL    HW1  917   2.881   1.641   0.219  1.1284 -0.9891  0.3405
    6SOL    HW2  918   2.845   1.491   0.275 -0.5302 -0.6960  0.1055
    7SOL     OW  919   5.418   0.228   1.734  0.2021  0.8629  0.0828
    7SOL    HW1  920   5.390   0.154   1.672 -0.9780  0.9617  0.4793
    7SOL    HW2  921   5.422   0.193   1.828 -0.1063  1.2463  0.2387
    8SOL     OW  922   5.089   1.791   3.849  0.2377  0.5748  0.4573
    8SOL    HW1  923   5.179   1.796   3.892 -0.0234  0.1916  1.0595
    8SOL    HW2  924   5.099   1.764   3.753  0.8116  1.2547  0.3178
    9SOL     OW  925   0.201   3.977   0.999  0.4280 -0.1439  0.3189
    9SOL    HW1  926   0.289   4.013   0.968 -0.1540  0.0429 -1.1547
    9SOL    HW2  927   0.177   4.019   1.087  1.1943  0.7765  0.0984
   10SOL     OW  928   6.801   3.686   3.354  0.3051  0.4291  0.6944
   10SOL    HW1  929   6.899   3.704   3.364  0.5389 -0.5349  0.2881
   10SOL    HW2  930   6.776   3.608   3.411  0.3144 -0.9415 -1.1166
   11SOL     OW  931   3.279   1.364   2.035  0.2305 -0.5721 -1.1263
   11SOL    HW1  932   3.340   1.301   2.084  1.0291  1.5943  0.8627
   11SOL    HW2  933   3.331   1.413   1.965  0.5374  0.4283 -0.2239
   12SOL     OW  934   0.297   0.019   2.761  0.4866 -0.1911 -0.0322
   12SOL    HW1  935   0.310  -0.053   2.830 -1.3449  0.7189  1.3474
   12SOL    HW2  936   0.359   0.095   2.780  0.1953 -0.0691  0.4525
   13SOL     OW  937   2.386   6.542   2.147  0.1806  0.1061 -0.0083
   13SOL    HW1  938   2.336   6.620   2.109 -1.7230 -0.9901  0.0826
   13SOL    HW2  939   2.379   6.543   2.247  1.2791  0.5154  0.0733
   14SOL     OW  940   0.763   0.574   3.519  0.1228 -0.4714  0.1367
   14SOL    HW1  941   0.676   0.592   3.566  0.3346 -0.4553  0.5219
   14SOL    HW2  942   0.813   0.503   3.568  1.6726  1.5361  1.6645
   15SOL     OW  943   2.804   6.593   5.548  0.2616  0.0532 -0.5454
   15SOL    HW1  944   2.890   6.543   5.561 -0.8174 -1.6287  0.4989
   15SOL    HW2  945   2.761   6.610   5.637  0.0848  1.9917 -0.9610
   16SOL     OW  946   6.689   1.084   6.611 -0.2054 -0.1116  0.2094
   16SOL    HW1  947   6.605   1.096   6.559 -0.2254 -2.7662 -0.5373
   16SOL    HW2  948   6.741   1.007   6.573  3.0560  1.9595  0.0380
   17SOL     OW  949   4.241   0.457   5.270  0.3129  0.5429 -0.5456
   17SOL    HW1  950   4.330   0.503   5.269  0.5360  0.1307 -1.4761
   17SOL    HW2  951   4.241   0.385   5.200 -0.7434  0.5123 -0.5233
   18SOL     OW  952   1.517   1.335   6.520  0.4588 -0.2467 -0.1132
   18SOL    HW1  953   1.534   1.242   6.487  1.3820  0.7612 -2.7456
   18SOL    HW2  954   1.595   1.367   6.573 -0.3210 -1.2985  1.7579
   19SOL     OW  955   0.379   0.379   2.025  0.3517  0.7490 -0.6183
   19SOL    HW1  956   0.319   0.300   2.039 -0.0103  0.5630 -2.8141
   19SOL    HW2  957   0.472   0.347   2.007  0.1220  0.7349 -1.9408
   20SOL     OW  958   4.131   0.590   5.663  0.0654  0.4105  0.6256
   20SOL    HW1  959   4.042   0.548   5.682  0.3958  0.5099  2.5844
   20SOL    HW2  960   4.196   0.520   5.634 -0.4165  0.2116  0.0014
   21SOL     OW  961   3.001   3.233   2.743 -0.2145 -0.4368  0.1978
   21SOL    HW1  962   3.061   3.158   2.714 -1.4718 -1.4999  0.2400
   21SOL    HW2  963   2.963   3.212   2.834 -3.0397 -1.3436 -1.0807
   22SOL     OW  964   1.443   0.778   4.914 -0.2697  0.3749  0.0864
   22SOL    HW1  965   1.376   0.852   4.906 -0.0654  1.0651  3.3399
   22SOL    HW2  966   1.516   0.792   4.847 -0.4526  2.9313  0.3181
   23SOL     OW  967   0.868   5.968   3.899  0.4210 -0.2748 -0.1376
   23SOL    HW1  968   0.890   5.874   3.924 -1.1098  0.4271  5.0429
   23SOL    HW2  969   0.929   6.030   3.948 -2.2080  1.3939  1.2416
   24SOL     OW  970   6.917   1.249   6.572  0.5807 -0.4276  0.0636
   24SOL    HW1  971   6.861   1.172   6.601 -0.7565  0.6647  0.4939
   24SOL    HW2  972   6.918   1.254   6.472 -0.1006 -0.4760  0.0459
   25SOL     OW  973   2.915   5.404   1.036  0.0108  0.1480  0.4108
   25SOL    HW1  974   2.909   5.488   0.982 -0.7146  0.9304  1.6356
   25SOL    HW2  975   2.895   5.325   0.979 -2.6724  1.0795 -0.0912
   26SOL     OW  976   0.460   1.384   2.329  0.3110  0.0246 -0.0935
   26SOL    HW1  977   0.409   1.372   2.244  0.6044 -0.9068 -0.1498
   26SOL    HW2  978   0.401   1.425   2.398 -0.0343  0.4451 -0.6330
   27SOL     OW  979   5.223   5.894   2.977 -0.4273 -0.0194  0.3197
   27SOL    HW1  980   5.234   5.795   2.984  0.9776  0.1565  0.8096
   27SOL    HW2  981   5.143   5.922   3.031  0.2777 -0.6887  1.7709
   28SOL     OW  982   1.530   1.986   0.897  0.0370 -0.2428 -0.5086
   28SOL    HW1  983   1.522   1.912   0.964  1.0124  0.4524  0.4072
   28SOL    HW2  984   1.444   1.994   0.846 -0.8449 -0.5982  0.8694
   29SOL     OW  985   2.862   3.394   2.357 -0.3847  0.0483 -0.2763
   29SOL    HW1  986   2.871   3.414   2.260  1.2194 -0.3039 -0.2251
   29SOL    HW2  987   2.862   3.295   2.372 -1.2374  0.0810  0.0553
   30SOL     OW  988   4.600   1.017   1.215  0.0438 -0.6101  0.1305
   30SOL    HW1  989   4.536   0.980   1.149  0.4077 -0.7196 -0.1662
   30SOL    HW2  990   4.551   1.073   1.282 -0.4503 -1.2715  0.3320
   31SOL     OW  991   1.323   1.454   4.848 -0.3479 -0.0213  0.4638
   31SOL    HW1  992   1.225   1.472   4.843  0.0527  2.1617 -1.0766
   31SOL    HW2  993   1.344   1.372   4.794 -1.3530 -0.8525  1.2861
   32SOL     OW  994   4.713   0.884   1.883  0.3370  0.1489  0.8042
   32SOL    HW1  995   4.686   0.977   1.907 -0.7237 -0.1107  0.6967
   32SOL    HW2  996   4.809   0.869   1.905  0.6015  1.3666  0.5292
   33SOL     OW  997   1.172   1.274   4.473  0.5001 -0.2285  0.9656
   33SOL    HW1  998   1.077   1.304   4.480  0.8915  0.9326  1.4868
   33SOL    HW2  999   1.216   1.319   4.396  1.2284  0.9634  2.0437
   34SOL     OW 1000   1.241   1.715   3.565  0.1176 -0.4132 -0.3550
   34SOL    HW1 1001   1.173   1.642   3.562 -0.9979  0.5359  0.5664
   34SOL    HW2 1002   1.332   1.677   3.548 -0.7200 -1.5543 -2.6756
   35SOL     OW 1003   3.696   2.527   0.686  0.2272 -0.4597 -0.1175
   35SOL    HW1 1004   3.703   2.428   0.696  0.0954 -0.5234 -0.6642
   35SOL    HW2 1005   3.733   2.555   0.597 -0.0781 -0.0570 -0.1216
   36SOL     OW 1006   1.530   2.793   5.720  0.3851 -0.0117 -0.4422
   36SOL    HW1 1007   1.437   2.779   5.688  0.6519 -1.6813 -0.5436
   36SOL    HW2 1008   1.593   2.735   5.668  1.2370 -0.3375  0.8888
   37SOL     OW 1009   3.519   6.263   0.967  0.1680 -0.1057  0.7370
   37SOL    HW1 1010   3.500   6.356   0.935  2.1651  0.1282  0.0665
   37SOL    HW2 1011   3.584   6.267   1.043  0.1094 -0.9490  0.8400
   38SOL     OW 1012   0.737   4.145   2.653  0.1618 -0.0607 -0.4878
   38SOL    HW1 1013   0.830   4.178   2.638  1.1394 -2.2998  0.2165
   38SOL    HW2 1014   0.729   4.052   2.618 -1.5055 -0.2962  0.4165
   39SOL     OW 1015   1.528   3.450   0.616 -0.3657  0.4107  0.9558
   39SOL    HW1 1016   1.467   3.460   0.537  0.3871  0.9908  0.4360
   39SOL    HW2 1017   1.597   3.522   0.614 -0.4181  0.5069  2.2288
   40SOL     OW 1018   6.636   0.235   6.845  0.6241 -0.4713 -0.4232
   40SOL    HW1 1019   6.589   0.178   6.912  0.5278 -1.2921 -1.1754
   40SOL    HW2 1020   6.735   0.216   6.848  0.6212 -0.4999 -0.5133
   41SOL     OW 1021   1.062   2.125   6.264 -0.3327 -0.2687  0.2191
   41SOL    HW1 1022   1.056   2.027   6.282  0.3921 -0.4381 -0.4137
   41SOL    HW2 1023   1.155   2.157   6.281 -0.8384  0.5703  1.6152
   42SOL     OW 1024   3.691   5.139   1.062 -0.5307  0.4959 -0.0470
   42SOL    HW1 1025   3.660   5.044   1.063 -1.1264  0.6855 -0.1369
   42SOL    HW2 1026   3.769   5.148   1.000 -0.4203  0.0520  0.0240
   43SOL     OW 1027   4.983   5.759   4.136  0.2691  0.0506  0.2107
   43SOL    HW1 1028   4.939   5.697   4.201  0.1184 -0.7674 -0.6578
   43SOL    HW2 1029   5.005   5.845   4.182  0.1506 -0.5050  1.3411
   44SOL     OW 1030   4.310   5.207   6.870  0.2363  0.2732  0.8249
   44SOL    HW1 1031   4.336   5.194   6.966  0.7583 -0.3200  0.6086
   44SOL    HW2 1032   4.216   5.240   6.865  1.1899  3.4542  1.6755
   45SOL     OW 1033   2.105   5.501   0.296  0.0320  0.7856 -0.1906
   45SOL    HW1 1034   2.197   5.521   0.330 -0.1150  0.8664  0.1671
   45SOL    HW2 1035   2.059   5.587   0.273 -0.1101  0.7754  0.0495
   46SOL     OW 1036   6.963   6.442   3.883  0.3762 -0.8467 -0.6342
   46SOL    HW1 1037   6.925   6.479   3.799 -0.1325 -0.4006 -0.2178
   46SOL    HW2 1038   7.034   6.504   3.918 -0.4864 -0.2331  0.0709
   47SOL     OW 1039   6.556   4.636   3.459  0.2722  0.4541  0.1965
   47SOL    HW1 1040   6.550   4.540   3.486  0.7558  0.4682  0.3564
   47SOL    HW2 1041   6.570   4.643   3.361 -0.7237  0.3871  0.0337
   48SOL     OW 1042   6.398   0.656   6.625  0.2363 -0.0140 -0.2037
   48SOL    HW1 1043   6.402   0.688   6.530  0.9698  0.7071  0.0663
   48SOL    HW2 1044   6.445   0.721   6.685 -0.4963 -0.2926  0.7064
   49SOL     OW 1045   6.573   0.928   6.131 -0.7044  0.0930  0.0165
   49SOL    HW1 1046   6.537   0.946   6.040 -1.4201  2.1922  0.6505
   49SOL    HW2 1047   6.651   0.866   6.125 -2.5497 -2.2299 -1.6871
   50SOL     OW 1048   1.384   4.635   4.172  0.4460  0.3035  0.5506
   50SOL    HW1 1049   1.431   4.704   4.226 -0.7769  2.1058 -0.5925
   50SOL    HW2 1050   1.312   4.592   4.227  0.1262  1.1238  0.7783
   51SOL     OW 1051   2.368   6.850   1.120 -0.2482 -0.7400 -0.6491
   51SOL    HW1 1052   2.338   6.884   1.031 -0.5228 -1.2464 -0.7511
   51SOL    HW2 1053   2.344   6.916   1.191  0.8658  0.1456 -1.0625
   52SOL     OW 1054   1.356   2.193   1.546 -0.1109  0.1222 -0.1228
   52SOL    HW1 1055   1.414   2.123   1.502 -1.5265 -0.8729 -0.4675
   52SOL    HW2 1056   1.319   2.254   1.477 -0.7500 -0.2290 -0.0977
   53SOL     OW 1057   3.801   6.863   3.461 -0.2283  0.3082 -0.0398
   53SOL    HW1 1058   3.786   6.957   3.429 -2.6985 -0.3834 -1.1262
   53SOL    HW2 1059   3.860   6.816   3.395  0.2577  0.8123  0.0212
   54SOL     OW 1060   6.776   2.710   5.641 -0.0006 -0.1143 -0.2010
   54SOL    HW1 1061   6.861   2.673   5.604 -0.6573 -0.2789 -1.6140
   54SOL    HW2 1062   6.700   2.687   5.580 -0.9870  0.4633  0.7692
   55SOL     OW 1063   4.414   2.727   6.786 -0.2105  0.2950 -0.3175
   55SOL    HW1 1064   4.395   2.680   6.872 -3.3332  2.2020  0.1691
   55SOL    HW2 1065   4.496   2.784   6.796  0.9026 -1.3650  0.5232
   56SOL     OW 1066   5.695   6.497   0.660  0.4607  0.1470 -0.0047
   56SOL    HW1 1067   5.683   6.400   0.639  1.1446  0.0471  0.0279
   56SOL    HW2 1068   5.624   6.527   0.723  0.0486 -0.2465 -0.2717
   57SOL     OW 1069   5.825   1.295   6.608  0.8344 -0.0075 -0.1471
   57SOL    HW1 1070   5.911   1.246   6.616  0.6722 -0.2384  0.2056
   57SOL    HW2 1071   5.771   1.282   6.691  0.5613  0.3309 -0.2677
   58SOL     OW 1072   1.426   5.466   6.398  0.8125  0.0927 -0.3433
   58SOL    HW1 1073   1.400   5.374   6.368 -0.7992  0.3897  0.0477
   58SOL    HW2 1074   1.526   5.472   6.402  0.9804 -1.3213 -1.3233
   59SOL     OW 1075   6.069   0.911   6.299  0.2731 -0.6709  0.4146
   59SOL    HW1 1076   6.154   0.860   6.301  1.5994  1.2848 -1.2496
   59SOL    HW2 1077   6.066   0.975   6.376  1.2779  0.5703 -0.5180
   60SOL     OW 1078   4.686   6.316   5.628 -0.1159  0.5880  0.0476
   60SOL    HW1 1079   4.733   6.404   5.633 -1.7246  1.4404  1.3635
   60SOL    HW2 1080   4.590   6.329   5.654 -0.5814 -1.4359 -0.5212
   61SOL     OW 1081   3.417   0.915   6.221  0.0784 -0.4869  0.4008
   61SOL    HW1 1082   3.345   0.962   6.272 -0.3944 -1.2883  0.4908
   61SOL    HW2 1083   3.460   0.979   6.157 -1.3622 -0.2360 -0.3521
   62SOL     OW 1084   4.792   0.126   5.703 -0.2331  0.0535  0.1417
   62SOL    HW1 1085   4.890   0.141   5.685 -0.1688  0.5587  0.8442
   62SOL    HW2 1086   4.744   0.110   5.617  0.2377  1.2210 -0.3589
   63SOL     OW 1087   6.097   4.533   5.130  0.0516  0.3193 -0.0996
   63SOL    HW1 1088   6.048   4.451   5.098  0.8536 -0.6177  0.9923
   63SOL    HW2 1089   6.159   4.565   5.058  0.3722 -0.5705 -0.2343
   64SOL     OW 1090   5.913   2.817   6.241  0.1956 -0.6036  0.4009
   64SOL    HW1 1091   5.912   2.831   6.142  0.4914  0.4339  0.5374
   64SOL    HW2 1092   5.878   2.725   6.261 -0.4719 -0.5972 -0.6233
   65SOL     OW 1093   6.049   5.432   5.680  0.0159  0.5612  0.4465
   65SOL    HW1 1094   5.999   5.365   5.734 -1.7770  1.6061  0.1704
   65SOL    HW2 1095   6.102   5.386   5.609  0.3655 -0.6536  1.4632
   66SOL     OW 1096   1.779   1.036   6.219  0.4500  0.2743 -0.2292
   66SOL    HW1 1097   1.789   0.977   6.299 -0.8341  0.5951  0.1849
   66SOL    HW2 1098   1.813   0.988   6.138  1.7031 -0.0821  0.4721
   67SOL     OW 1099   4.455   5.305   5.070 -0.0218 -0.0695  0.6441
   67SOL    HW1 1100   4.359   5.277   5.069  0.1738 -0.8203  1.6618
   67SOL    HW2 1101   4.460   5.405   5.076 -0.7342 -0.0354  0.8293
   68SOL     OW 1102   6.077   0.380   1.683  0.5807  0.3092  0.3350
   68SOL    HW1 1103   6.019   0.449   1.639 -0.4291  0.6416  2.1026
   68SOL    HW2 1104   6.022   0.327   1.747  1.9992 -0.1497  1.2043
   69SOL     OW 1105   1.418   3.964   2.873  0.4020  0.3907 -0.1278
   69SOL    HW1 1106   1.342   3.900   2.861 -0.9936  1.8452  0.5238
   69SOL    HW2 1107   1.431   3.983   2.970  0.9653  0.8934 -0.2948
   70SOL     OW 1108   6.236   0.444   2.779  0.0877 -0.2285  0.2775
   70SOL    HW1 1109   6.282   0.356   2.768 -0.2620 -0.1744 -2.3266
   70SOL    HW2 1110   6.169   0.455   2.706  1.3431  2.9360 -0.5454
   71SOL     OW 1111   6.490   4.535   1.328 -0.1792 -0.5883 -0.2861
   71SOL    HW1 1112   6.429   4.612   1.348  0.8607  0.3409 -0.5963
   71SOL    HW2 1113   6.488   4.515   1.230 -0.1412 -0.6966 -0.2653
   72SOL     OW 1114   4.957   6.642   4.600  0.6502 -0.2170  0.0742
   72SOL    HW1 1115   4.937   6.703   4.677  0.7403 -0.3175  0.1791
   72SOL    HW2 1116   5.043   6.594   4.618  0.4349 -0.5864  0.1240
   73SOL     OW 1117   4.016   2.927   1.185 -0.0169 -0.1556 -0.3068
   73SOL    HW1 1118   4.009   3.024   1.160  1.1722 -0.3733 -1.6531
   73SOL    HW2 1119   3.927   2.883   1.176 -0.0708  0.2660 -2.3297
   74SOL     OW 1120   4.801   0.019   4.601  0.1832 -0.2497 -0.2443
   74SOL    HW1 1121   4.852  -0.005   4.519 -0.8234 -0.2904 -0.8664
   74SOL    HW2 1122   4.803  -0.058   4.665 -1.3705 -1.3250 -1.4082
   75SOL     OW 1123   4.305   6.156   4.969  0.0530  0.1089 -0.5743
   75SOL    HW1 1124   4.277   6.179   4.875 -0.8659 -3.3237 -1.2810
   75SOL    HW2 1125   4.235   6.098   5.011  2.4740 -2.2681  0.5012
   76SOL     OW 1126   3.839   2.975   6.508 -0.0281 -0.0398 -0.4848
   76SOL    HW1 1127   3.919   2.931   6.548  0.1328 -0.3706 -1.1639
   76SOL    HW2 1128   3.865   3.064   6.470  0.1822 -0.4557 -1.3451
   77SOL     OW 1129   6.701   4.654   5.351  0.1308 -0.3058  0.6347
   77SOL    HW1 1130   6.768   4.584   5.326 -0.5133  0.2459 -3.2612
   77SOL    HW2 1131   6.614   4.634   5.308 -0.6870  1.7582  1.1919
   78SOL     OW 1132   6.004   6.629   4.843  0.1903 -0.4524 -0.1174
   78SOL    HW1 1133   6.048   6.633   4.933 -0.4900  0.5981  0.1971
   78SOL    HW2 1134   6.073   6.616   4.773  0.5417 -3.7433  0.6953
   79SOL     OW 1135   2.668   5.594   1.333 -0.5747  0.7583  0.0123
   79SOL    HW1 1136   2.673   5.624   1.429 -0.0598  1.6481 -0.2816
   79SOL    HW2 1137   2.637   5.499   1.330 -0.7060  0.7506  1.0576
   80SOL     OW 1138   5.038   0.063   4.172 -0.2325  0.4652 -0.3945
   80SOL    HW1 1139   5.043   0.050   4.073  1.4855 -1.5481 -0.1275
   80SOL    HW2 1140   5.129   0.084   4.208 -0.4710 -0.6021  0.9270
   81SOL     OW 1141   2.223   6.251   2.961 -0.7875 -0.0850  0.1579
   81SOL    HW1 1142   2.232   6.152   2.959  0.4089  0.0178  0.1143
   81SOL    HW2 1143   2.214   6.286   2.868  0.5057 -0.0179  0.0408
   82SOL     OW 1144   5.970   3.794   0.207 -0.0787  0.4870 -0.5101
   82SOL    HW1 1145   6.024   3.716   0.174  0.7022  1.3632 -1.3871
   82SOL    HW2 1146   6.014   3.879   0.178 -1.0795  1.2549  0.1626
   83SOL     OW 1147   6.212   0.624   5.660 -0.0269  0.3398 -0.1950
   83SOL    HW1 1148   6.294   0.660   5.705  1.6414 -0.3637 -2.4770
   83SOL    HW2 1149   6.182   0.688   5.589  0.1446 -0.6015 -1.1306
   84SOL     OW 1150   6.077   2.574   1.895  0.2008 -0.3375  0.3273
   84SOL    HW1 1151   6.076   2.566   1.795  2.2393  1.6675  0.0770
   84SOL    HW2 1152   6.002   2.633   1.924 -0.7592 -1.3897  0.0943
   85SOL     OW 1153   0.826   0.760   5.804  0.0245  0.2248 -1.0159
   85SOL    HW1 1154   0.797   0.669   5.774 -2.4256  0.9867 -1.1197
   85SOL    HW2 1155   0.825   0.765   5.904  0.7458 -0.0133 -0.9886
   86SOL     OW 1156   2.315   0.978   4.209  0.2293  0.4053  0.4189
   86SOL    HW1 1157   2.294   1.005   4.115 -0.9792  1.2166  0.8953
   86SOL    HW2 1158   2.412   0.991   4.227  0.2636  1.3288 -0.3710
   87SOL     OW 1159   4.471   0.149   2.143  0.2811  0.1179  0.2084
   87SOL    HW1 1160   4.509   0.189   2.226 -2.2082  1.9960  0.5602
   87SOL    HW2 1161   4.455   0.221   2.075 -2.9728 -0.3457  0.3009
   88SOL     OW 1162   5.323   2.039   2.261 -0.0679  0.0562 -0.0855
   88SOL    HW1 1163   5.242   2.066   2.315 -0.1693  0.3574 -0.3819
   88SOL    HW2 1164   5.393   2.110   2.270  0.1865 -0.2333  0.2174
   89SOL     OW 1165   0.887   2.983   5.275  0.6858  0.1548 -0.3414
   89SOL    HW1 1166   0.792   2.956   5.286  0.5240  0.8695  0.1158
   89SOL    HW2 1167   0.917   2.963   5.182  0.5654 -1.4835 -0.0531
   90SOL     OW 1168   6.018   0.198   2.338 -0.1114  0.4533 -0.0076
   90SOL    HW1 1169   6.067   0.282   2.317  0.2345 -0.4561 -3.3101
   90SOL    HW2 1170   6.083   0.123   2.350 -0.5141  0.2379  0.9751
   91SOL     OW 1171   5.551   6.966   5.164 -0.2514 -0.0431  0.1882
   91SOL    HW1 1172   5.470   6.913   5.139 -0.6562  0.7881 -0.3009
   91SOL    HW2 1173   5.628   6.904   5.177 -0.8069 -0.7877  0.0231
   92SOL     OW 1174   4.791   6.180   0.896 -0.1258  0.1968 -0.1920
   92SOL    HW1 1175   4.774   6.206   0.801  0.0200 -0.4733 -0.4098
   92SOL    HW2 1176   4.868   6.233   0.932  1.9953 -1.7821 -1.4964
   93SOL     OW 1177   4.827   6.301   6.873 -0.4126  0.1982 -0.2992
   93SOL    HW1 1178   4.888   6.381   6.881 -1.4057  1.2621 -2.4658
   93SOL    HW2 1179   4.773   6.292   6.957 -0.2276  1.7754  0.0222
   94SOL     OW 1180   1.258   1.524   1.696 -0.8249 -0.2962 -0.6109
   94SOL    HW1 1181   1.246   1.554   1.791  0.0447 -2.4190  0.2180
   94SOL    HW2 1182   1.169   1.499   1.658 -1.0911 -0.1685 -0.0906
   95SOL     OW 1183   6.423   1.126   5.468  0.3898 -0.0669 -0.6464
   95SOL    HW1 1184   6.345   1.186   5.455  0.2612  0.3822  1.7508
   95SOL    HW2 1185   6.405   1.038   5.423 -1.2031  0.2642 -0.7117
   96SOL     OW 1186   1.726   5.140   5.344 -0.0944  0.3856 -0.6707
   96SOL    HW1 1187   1.724   5.149   5.245  0.0264  1.7348 -0.5676
   96SOL    HW2 1188   1.814   5.170   5.379  0.0463 -0.5615 -0.1844
   97SOL     OW 1189   6.298   2.827   4.294  0.4347 -0.0288  0.3355
   97SOL    HW1 1190   6.374   2.774   4.331  1.1918  0.8486  0.0940
   97SOL    HW2 1191   6.228   2.838   4.365  0.6110 -0.6909  0.6196
   98SOL     OW 1192   4.749   1.315   5.291  0.8332 -0.2114  0.5842
   98SOL    HW1 1193   4.721   1.226   5.255  3.2160 -1.5417  1.7914
   98SOL    HW2 1194   4.688   1.342   5.365 -0.1140 -0.6571 -0.0204
   99SOL     OW 1195   5.408   2.319   1.403 -0.2040  0.2691  0.5908
   99SOL    HW1 1196   5.333   2.340   1.340 -0.8950  1.3622  1.7282
   99SOL    HW2 1197   5.487   2.376   1.380 -0.0352 -0.2025 -0.0217
  100SOL     OW 1198   0.447   0.789   2.374  0.6192  0.1579  0.2187
  100SOL    HW1 1199   0.450   0.790   2.474  1.1855 -1.6779  0.2665
  100SOL    HW2 1200   0.394   0.709   2.343 -0.3009  1.1729 -0.9690
  101SOL     OW 1201   2.379   5.622   4.531 -0.0719  0.4239  0.4600
  101SOL    HW1 1202   2.419   5.531   4.524 -0.3734  0.1613  1.7356
  101SOL    HW2 1203   2.308   5.634   4.461 -0.6058 -0.6395  0.7959
  102SOL     OW 1204   4.336   1.127   0.879 -0.2744 -0.8363 -0.0931
  102SOL    HW1 1205   4.402   1.186   0.831  1.1796 -4.0120 -2.3379
  102SOL    HW2 1206   4.269   1.092   0.813 -1.7918 -0.8669  1.3982
  103SOL     OW 1207   3.356   1.393   2.541  0.0231 -0.3928  0.0980
  103SOL    HW1 1208   3.297   1.312   2.540 -1.2927  0.5153  1.2009
  103SOL    HW2 1209   3.300   1.475   2.548  1.4210  0.4545  2.4345
  104SOL     OW 1210   6.755   6.322   2.118  0.5886 -0.2283  0.0759
  104SOL    HW1 1211   6.853   6.308   2.134  0.7147  0.8059  0.3457
  104SOL    HW2 1212   6.718   6.377   2.193 -0.3915 -1.3199  0.4161
  105SOL     OW 1213   5.534   2.225   6.467 -0.3064  0.3736  0.0598
  105SOL    HW1 1214   5.580   2.176   6.541 -1.1317 -0.0789  0.2826
  105SOL    HW2 1215   5.545   2.175   6.381  0.6103  0.8740 -0.1334
  106SOL     OW 1216   3.343   6.021   1.250  0.0256 -0.1239 -0.1578
  106SOL    HW1 1217   3.256   6.059   1.282 -1.1208 -0.9899 -2.0788
  106SOL    HW2 1218   3.418   6.082   1.277 -1.0060  0.1012  2.4829
  107SOL     OW 1219   3.379   5.255   6.668 -0.5178  0.0247 -0.2571
  107SOL    HW1 1220   3.427   5.279   6.583 -0.8549  3.4017  0.3630
  107SOL    HW2 1221   3.442   5.206   6.728  0.2116 -1.0338 -1.8142
  108SOL     OW 1222   4.872   3.730   4.734 -0.0477 -0.1008 -0.4982
  108SOL    HW1 1223   4.853   3.713   4.830  1.0232  0.4037 -0.1804
  108SOL    HW2 1224   4.875   3.829   4.718 -2.1139 -0.1519 -1.4584
  109SOL     OW 1225   4.298   1.942   2.481 -0.5697  0.1235  0.4734
  109SOL    HW1 1226   4.209   1.954   2.525 -0.7690 -1.3302  0.5244
  109SOL    HW2 1227   4.299   1.992   2.394 -1.8773 -0.7935 -0.0996
  110SOL     OW 1228   2.416   6.130   4.490  0.6552 -0.4426 -0.3742
  110SOL    HW1 1229   2.327   6.175   4.496  1.3833  0.8790  1.8265
  110SOL    HW2 1230   2.480   6.187   4.438  1.7167  1.5322  2.8274
  111SOL     OW 1231   3.968   1.682   3.774 -0.2061  0.1520  0.1933
  111SOL    HW1 1232   4.000   1.630   3.694 -2.5842  1.0370 -1.4616
  111SOL    HW2 1233   3.926   1.620   3.839 -1.7831 -0.2319 -1.1264
  112SOL     OW 1234   0.909   0.718   0.040 -0.0206 -0.3835 -0.2739
  112SOL    HW1 1235   1.003   0.685   0.048 -0.0626 -0.3778  0.2877
  112SOL    HW2 1236   0.908   0.818   0.046  0.1106 -0.2467 -2.0036
  113SOL     OW 1237   5.260   0.152   2.775 -0.0282 -0.3622  0.6175
  113SOL    HW1 1238   5.221   0.135   2.865  1.4143  0.1623  1.3834
  113SOL    HW2 1239   5.222   0.087   2.709 -2.4203  0.3739  1.1882
  114SOL     OW 1240   2.386   0.174   2.778 -0.5547 -0.0641 -0.3701
  114SOL    HW1 1241   2.473   0.222   2.791 -0.0321 -1.3903  1.5201
  114SOL    HW2 1242   2.366   0.167   2.680  0.6378  1.6533 -0.7907
  115SOL     OW 1243   6.458   1.416   6.733  0.2339 -0.2827 -0.6220
  115SOL    HW1 1244   6.375   1.418   6.678  0.0388 -0.4910 -0.3324
  115SOL    HW2 1245   6.442   1.460   6.821  0.3042 -0.7190 -0.3893
  116SOL     OW 1246   5.402   4.522   3.640 -0.0555  0.2711  0.1648
  116SOL    HW1 1247   5.496   4.546   3.618 -0.0472 -0.4210 -0.6020
  116SOL    HW2 1248   5.366   4.586   3.709  0.0163  2.3639 -1.6476
  117SOL     OW 1249   1.214   5.316   5.223  0.7869  0.0574 -0.0876
  117SOL    HW1 1250   1.231   5.358   5.312  0.7688 -1.2463  0.5646
  117SOL    HW2 1251   1.170   5.382   5.163  0.0863  0.7452  1.1274
  118SOL     OW 1252   3.464   1.082   3.408 -0.2416  0.0611 -0.5508
  118SOL    HW1 1253   3.535   1.015   3.427 -0.1895  0.9690  3.0790
  118SOL    HW2 1254   3.506   1.169   3.381 -0.1593 -0.2353 -1.4197
  119SOL     OW 1255   1.935   0.677   0.100  0.1037  0.5991 -0.1185
  119SOL    HW1 1256   1.879   0.740   0.153  0.4087 -1.3631  2.7326
  119SOL    HW2 1257   2.030   0.708   0.099 -0.0588  1.1078 -0.3488
  120SOL     OW 1258   4.399   6.674   2.436 -0.3974 -0.2205  0.5970
  120SOL    HW1 1259   4.299   6.679   2.433 -0.3770  0.2379  0.7341
  120SOL    HW2 1260   4.427   6.609   2.506 -0.6386 -2.0439 -0.9059
  121SOL     OW 1261   2.565   3.106   6.257  0.0068 -0.7554  0.1235
  121SOL    HW1 1262   2.624   3.185   6.245  0.9377 -1.2871  1.0266
  121SOL    HW2 1263   2.575   3.070   6.350 -4.7058  1.4941  1.8678
  122SOL     OW 1264   1.471   3.368   4.895  0.7373 -0.0175  0.1474
  122SOL    HW1 1265   1.514   3.454   4.869  0.7182 -0.4017 -1.2320
  122SOL    HW2 1266   1.529   3.292   4.867 -0.0363 -0.4997 -0.1779
  123SOL     OW 1267   0.107   1.221   2.422 -0.2099  0.5050 -0.4775
  123SOL    HW1 1268   0.115   1.229   2.323  0.1894  1.6496 -0.3771
  123SOL    HW2 1269   0.033   1.159   2.445 -1.1529  1.2047 -1.5121
  124SOL     OW 1270   5.150   2.492   0.662  0.0234 -0.3820 -0.2157
  124SOL    HW1 1271   5.167   2.424   0.734 -1.4272 -0.6692 -0.1190
  124SOL    HW2 1272   5.057   2.527   0.670  0.5585  1.2146 -0.6286
  125SOL     OW 1273   3.699   4.456   0.963 -0.5057 -0.1014  0.2567
  125SOL    HW1 1274   3.622   4.518   0.970  0.0568  0.4599  2.4026
  125SOL    HW2 1275   3.666   4.363   0.948 -1.7121 -0.0515  2.2477
  126SOL     OW 1276   3.926   5.019   6.884  0.2500  0.5724 -0.0539
  126SOL    HW1 1277   3.853   4.979   6.939  0.4564 -0.6204 -0.6130
  126SOL    HW2 1278   3.890   5.046   6.794  0.2522  1.0654  0.0888
  127SOL     OW 1279   5.193   6.211   4.804  0.2111  0.0481 -0.7234
  127SOL    HW1 1280   5.270   6.265   4.768  0.2790 -0.7704 -1.8622
  127SOL    HW2 1281   5.118   6.213   4.738 -0.2930 -0.1638 -0.1643
  128SOL     OW 1282   5.695   2.089   0.506 -0.0702 -0.0075  0.2805
  128SOL    HW1 1283   5.623   2.139   0.456 -0.8097 -1.1930  0.1283
  128SOL    HW2 1284   5.698   2.123   0.600  1.1277  2.0311 -0.4185
  129SOL     OW 1285   3.077   4.192   0.624 -0.1393  0.1494 -0.0406
  129SOL    HW1 1286   3.054   4.164   0.531 -1.0980  1.6733 -0.3022
  129SOL    HW2 1287   3.114   4.114   0.675 -1.0390 -1.0927 -1.2207
  130SOL     OW 1288   1.422   1.184   4.052  0.1156 -0.5334 -0.0639
  130SOL    HW1 1289   1.502   1.216   4.002  0.7067 -0.8021  0.6944
  130SOL    HW2 1290   1.423   1.084   4.056 -0.6429 -0.5717 -0.6714
  131SOL     OW 1291   5.950   0.588   1.523 -0.6661 -0.0389  0.9330
  131SOL    HW1 1292   5.922   0.602   1.618 -2.0982  1.0981  0.3880
  131SOL    HW2 1293   5.945   0.675   1.474  4.2159  0.3970  0.7679
  132SOL     OW 1294   1.600   3.251   3.015 -0.4743  0.5154 -0.4347
  132SOL    HW1 1295   1.664   3.178   3.039 -1.3918  0.0841  0.8130
  132SOL    HW2 1296   1.650   3.332   2.987  0.5818 -0.1597 -0.5536
  133SOL     OW 1297   1.507   4.699   3.320  0.5904  0.1279  0.3987
  133SOL    HW1 1298   1.594   4.747   3.322  1.2118 -0.8028 -1.7777
  133SOL    HW2 1299   1.516   4.615   3.268 -1.3258 -0.6378  1.1970
  134SOL     OW 1300   1.487   3.238   3.757 -0.2460 -0.1284 -0.1757
  134SOL    HW1 1301   1.531   3.173   3.819 -0.2653 -0.4276 -0.4682
  134SOL    HW2 1302   1.392   3.251   3.784 -0.1942 -0.0882 -0.0121
  135SOL     OW 1303   3.373   6.571   5.159  0.0619 -0.2595  0.8263
  135SOL    HW1 1304   3.277   6.566   5.131  0.2156 -0.7695  0.3590
  135SOL    HW2 1305   3.401   6.482   5.194  0.7986 -0.5851 -0.5270
  136SOL     OW 1306   3.944   4.974   4.223 -0.6274 -0.1077 -0.1184
  136SOL    HW1 1307   3.959   4.892   4.167 -1.3766 -1.5319  1.6710
  136SOL    HW2 1308   4.018   5.040   4.207  0.8099 -1.7587 -0.5135
  137SOL     OW 1309   3.910   1.817   4.461 -0.3009  0.1060 -0.1768
  137SOL    HW1 1310   3.824   1.773   4.438  0.0017 -0.7695  0.3134
  137SOL    HW2 1311   3.952   1.854   4.379 -1.2570  0.7723 -0.3863
  138SOL     OW 1312   6.219   4.844   2.951  0.1647  0.2890 -0.2580
  138SOL    HW1 1313   6.319   4.848   2.959  0.2711 -0.1922 -1.1490
  138SOL    HW2 1314   6.195   4.816   2.858 -0.8071  0.4984 -0.0768
  139SOL     OW 1315   2.878   6.623   6.016 -0.2751 -0.0807  0.1119
  139SOL    HW1 1316   2.870   6.545   5.954  1.9083 -0.6985  0.4915
  139SOL    HW2 1317   2.944   6.601   6.089 -2.1993  0.8684  2.2729
  140SOL     OW 1318   1.082   4.070   3.963 -0.1215  0.3254 -0.2224
  140SOL    HW1 1319   1.068   4.091   4.060  0.1140  1.4575 -0.4252
  140SOL    HW2 1320   1.158   4.006   3.953 -1.6522 -1.7260  0.4967
  141SOL     OW 1321   1.008   2.559   2.939 -0.3124 -0.6113  0.5640
  141SOL    HW1 1322   1.093   2.604   2.911 -0.0467 -1.4758 -0.0743
  141SOL    HW2 1323   0.939   2.571   2.868 -1.0146  0.7786  1.4315
  142SOL     OW 1324   0.986   5.230   6.923  0.1905 -0.2473  0.5974
  142SOL    HW1 1325   1.057   5.174   6.881 -0.9618 -0.7746 -0.7167
  142SOL    HW2 1326   0.936   5.279   6.852  1.3413  2.7732  1.6960
  143SOL     OW 1327   6.053   4.803   2.039  0.5442  0.0801 -0.0532
  143SOL    HW1 1328   5.964   4.791   1.995 -0.1195  1.0263  0.9769
  143SOL    HW2 1329   6.108   4.867   1.985  0.5583 -0.3895 -0.6103
  144SOL     OW 1330   3.615   6.970   2.423 -0.4535  0.5282 -0.4434
  144SOL    HW1 1331   3.646   7.056   2.463  0.1568  0.8885 -1.6499
  144SOL    HW2 1332   3.600   6.902   2.495 -4.0660  2.5384  0.9338
  145SOL     OW 1333   6.274   6.018   0.065  0.5487  0.3680 -0.1939
  145SOL    HW1 1334   6.244   5.940   0.011 -0.2601  1.4235 -1.3068
  145SOL    HW2 1335   6.332   5.986   0.140 -1.4585 -1.5060  0.6589
  146SOL     OW 1336   0.583   3.247   6.818  0.7218 -0.0676 -0.5943
  146SOL    HW1 1337   0.573   3.339   6.778  1.0837  0.6661  0.9456
  146SOL    HW2 1338   0.565   3.251   6.916  0.9770 -1.6193 -0.4608
  147SOL     OW 1339   0.073   1.952   1.048 -0.4275  0.4349  0.0387
  147SOL    HW1 1340   0.013   2.029   1.025 -1.3870 -0.2954  0.0707
  147SOL    HW2 1341   0.019   1.871   1.066  0.6582 -1.2352 -3.3709
  148SOL     OW 1342   0.260   5.043   0.230 -0.0939  0.3398 -0.6330
  148SOL    HW1 1343   0.210   5.037   0.316 -0.5575  1.0922 -0.8425
  148SOL    HW2 1344   0.237   5.129   0.184  2.2201  1.2383 -0.2196
  149SOL     OW 1345   2.001   0.430   5.455 -0.4855  0.5175  0.2008
  149SOL    HW1 1346   1.961   0.372   5.527 -0.1758  1.0985  0.8586
  149SOL    HW2 1347   2.072   0.488   5.495  1.4252 -0.8408 -1.0227
  150SOL     OW 1348   5.399   6.525   4.363  0.5716  0.4222 -0.2203
  150SOL    HW1 1349   5.318   6.539   4.307 -0.5507  1.0948  1.4925
  150SOL    HW2 1350   5.444   6.613   4.379 -1.3221  0.9801  3.0057
  151SOL     OW 1351   5.451   6.945   2.061 -0.0533  0.3468  0.2662
  151SOL    HW1 1352   5.361   6.903   2.073 -0.0799  0.1020 -0.6489
  151SOL    HW2 1353   5.441   7.044   2.048 -0.1511  0.3826  0.6218
  152SOL     OW 1354   4.223   1.292   4.338 -0.2576  0.3506 -0.4596
  152SOL    HW1 1355   4.261   1.346   4.263  1.4293 -2.4066 -1.7493
  152SOL    HW2 1356   4.279   1.306   4.420 -0.6902  1.5796 -0.3526
  153SOL     OW 1357   6.862   6.268   1.801  0.2759 -0.2292 -0.0598
  153SOL    HW1 1358   6.911   6.350   1.771  0.8975 -0.2433  0.8863
  153SOL    HW2 1359   6.790   6.294   1.865  0.9933 -0.4836  0.8693
  154SOL     OW 1360   1.962   0.762   2.291  0.0396  0.2337 -0.4312
  154SOL    HW1 1361   1.885   0.813   2.252 -0.3448 -0.8796 -1.1767
  154SOL    HW2 1362   2.003   0.704   2.221 -0.6335 -1.7887  0.7665
  155SOL     OW 1363   2.312   2.110   4.725 -0.0770  0.2445  0.3102
  155SOL    HW1 1364   2.392   2.166   4.704  2.4776 -1.1736  4.9550
  155SOL    HW2 1365   2.330   2.015   4.699 -1.2941  0.2291 -0.6156
  156SOL     OW 1366   6.210   1.120   2.589 -0.0312 -0.0396 -0.1141
  156SOL    HW1 1367   6.119   1.156   2.569  0.2890  0.3467 -0.8974
  156SOL    HW2 1368   6.215   1.095   2.686 -0.6495  0.8691  0.1633
  157SOL     OW 1369   0.334   1.659   2.737 -0.0272 -0.0591 -0.1523
  157SOL    HW1 1370   0.345   1.629   2.642  1.1288  1.6852 -0.6162
  157SOL    HW2 1371   0.368   1.588   2.799 -2.1881 -1.8707 -0.9096
  158SOL     OW 1372   0.338   0.454   2.631  0.0739 -0.2517  0.4908
  158SOL    HW1 1373   0.250   0.499   2.644  1.2582  1.6154  2.8758
  158SOL    HW2 1374   0.350   0.383   2.701  0.9823  0.4386  1.0557
  159SOL     OW 1375   4.829   5.577   2.343 -0.1730  0.1388  0.7308
  159SOL    HW1 1376   4.819   5.670   2.308  2.9465  0.5717  0.7007
  159SOL    HW2 1377   4.875   5.520   2.274 -0.9803 -1.1198  1.1937
  160SOL     OW 1378   1.439   2.494   0.078  0.4058 -0.1649  0.4406
  160SOL    HW1 1379   1.415   2.555   0.153  0.3365 -1.9543  1.9285
  160SOL    HW2 1380   1.538   2.491   0.067  0.3673  1.2932 -0.6217
  161SOL     OW 1381   2.243   4.974   4.740 -0.5662  0.0174  0.6210
  161SOL    HW1 1382   2.231   4.945   4.835 -2.1105  1.1381  0.8001
  161SOL    HW2 1383   2.279   5.067   4.737 -2.1088  0.6198  0.1484
  162SOL     OW 1384   4.657   4.849   3.589  0.1440  0.9424 -0.3351
  162SOL    HW1 1385   4.604   4.932   3.610 -1.0614  0.0489  0.2976
  162SOL    HW2 1386   4.720   4.830   3.664 -1.5083 -0.1795  0.8296
  163SOL     OW 1387   6.372   0.159   0.856 -0.6073  0.0897  0.3839
  163SOL    HW1 1388   6.357   0.225   0.930 -0.4786 -0.8926  1.3163
  163SOL    HW2 1389   6.428   0.084   0.890  0.6124  0.2929 -1.1173
  164SOL     OW 1390   6.002   2.433   1.622  0.1002 -0.1557  0.0741
  164SOL    HW1 1391   5.913   2.442   1.665 -0.3985 -1.9690 -0.4751
  164SOL    HW2 1392   6.012   2.503   1.551 -0.0423  1.3137  1.4574
  165SOL     OW 1393   6.934   4.434   0.395 -0.3182 -1.0719 -0.1501
  165SOL    HW1 1394   6.877   4.493   0.452  1.2439 -0.9094  1.3142
  165SOL    HW2 1395   6.882   4.351   0.371 -0.5328 -1.9623  2.9557
  166SOL     OW 1396   1.676   0.030   6.127 -0.0201 -0.1870 -0.1868
  166SOL    HW1 1397   1.586   0.024   6.170 -0.6777 -2.2592 -1.6816
  166SOL    HW2 1398   1.666   0.062   6.033  0.9188  0.3365 -0.1183
  167SOL     OW 1399   5.840   1.122   2.809  0.2436  0.1119  0.6947
  167SOL    HW1 1400   5.801   1.030   2.817  0.6957 -0.0113  1.5092
  167SOL    HW2 1401   5.870   1.154   2.899 -0.2447  1.2115  0.4818
  168SOL     OW 1402   3.605   4.860   1.047 -0.2109 -0.8301  0.6357
  168SOL    HW1 1403   3.507   4.847   1.061 -0.2238 -0.0814  1.3193
  168SOL    HW2 1404   3.654   4.840   1.132  0.2424 -1.3505  0.2543
  169SOL     OW 1405   0.895   6.733   0.062 -0.0327 -0.2982 -0.3648
  169SOL    HW1 1406   0.934   6.795  -0.006  0.0672 -0.2522 -0.2651
  169SOL    HW2 1407   0.927   6.758   0.153  1.6461 -1.7055 -0.5098
  170SOL     OW 1408   6.988   0.837   4.164 -0.2707 -0.0466  0.2447
  170SOL    HW1 1409   7.001   0.894   4.246 -1.0889  0.1946  0.2096
  170SOL    HW2 1410   7.059   0.767   4.162 -1.7472 -1.7448  2.5823
  171SOL     OW 1411   4.059   3.220   2.141  0.7073 -0.1538  0.1193
  171SOL    HW1 1412   4.067   3.308   2.187  1.1559  0.1935 -0.5928
  171SOL    HW2 1413   4.041   3.148   2.208  0.8722  0.4014  0.7691
  172SOL     OW 1414   5.786   2.223   2.112 -0.2848  0.3328  0.0154
  172SOL    HW1 1415   5.862   2.240   2.048  0.4706 -1.7994  0.2611
  172SOL    HW2 1416   5.805   2.267   2.199  0.0023  0.9669 -0.3619
  173SOL     OW 1417   6.990   5.364   5.823 -0.2174  0.1153 -0.5185
  173SOL    HW1 1418   7.046   5.298   5.873  0.3104  0.8670 -0.0849
  173SOL    HW2 1419   7.047   5.441   5.794 -0.9558  0.7489 -0.3395
  174SOL     OW 1420   3.426   0.290   2.449  0.0288  0.6210 -0.1269
  174SOL    HW1 1421   3.514   0.292   2.496 -0.2590  0.1194  0.4661
  174SOL    HW2 1422   3.439   0.297   2.351  0.6572  1.6260  0.0192
  175SOL     OW 1423   6.870   5.421   3.409 -0.1882  0.1972  0.2036
  175SOL    HW1 1424   6.894   5.355   3.480 -0.5008  0.0413  0.1662
  175SOL    HW2 1425   6.848   5.509   3.452  0.8534  0.4642  0.2061
  176SOL     OW 1426   2.368   0.534   6.543  0.3272 -0.7731  0.0409
  176SOL    HW1 1427   2.331   0.532   6.636  2.0544 -2.0473  0.7796
  176SOL    HW2 1428   2.459   0.575   6.545  0.0781 -0.1331 -1.2346
  177SOL     OW 1429   5.488   1.479   2.409  0.2770  0.1780 -0.1384
  177SOL    HW1 1430   5.424   1.535   2.357 -0.9972  1.7026  2.8297
  177SOL    HW2 1431   5.439   1.404   2.452  0.7318  0.5115  1.0039
  178SOL     OW 1432   4.917   4.034   6.934  0.0571 -0.6522 -0.0833
  178SOL    HW1 1433   4.830   4.035   6.885  0.5984 -0.6796 -1.0511
  178SOL    HW2 1434   4.966   4.120   6.917  0.7760 -1.1490 -0.5600
  179SOL     OW 1435   3.607   0.412   0.722 -0.4645  0.0832 -0.2650
  179SOL    HW1 1436   3.649   0.381   0.807  1.9734  0.0162 -1.4013
  179SOL    HW2 1437   3.515   0.445   0.741  0.5855  1.7737  2.7450
  180SOL     OW 1438   1.558   4.974   6.606 -0.1382  0.1663 -0.2185
  180SOL    HW1 1439   1.621   4.955   6.681  0.9460 -1.4941 -1.4603
  180SOL    HW2 1440   1.609   4.979   6.520 -1.5270  0.3281 -1.0687
  181SOL     OW 1441   4.141   3.914   5.312 -0.1186  0.2680  0.3176
  181SOL    HW1 1442   4.156   3.918   5.213  0.1318 -0.7321  0.3082
  181SOL    HW2 1443   4.057   3.864   5.331 -0.0146  0.2113  0.6275
  182SOL     OW 1444   5.568   2.492   4.998  0.1358 -0.0576 -0.1986
  182SOL    HW1 1445   5.660   2.469   4.967 -0.4065  0.3032 -2.2118
  182SOL    HW2 1446   5.505   2.490   4.920 -1.5613 -0.2395  1.1202
  183SOL     OW 1447   4.727   0.460   2.941  0.3094 -0.4135  0.6105
  183SOL    HW1 1448   4.732   0.544   2.887 -1.0000 -0.0417  1.0252
  183SOL    HW2 1449   4.819   0.431   2.966  0.8264  0.4378 -0.2312
  184SOL     OW 1450   1.250   2.751   2.917  0.2688 -0.6069 -0.1814
  184SOL    HW1 1451   1.212   2.773   2.827 -0.3660  0.5476  0.3596
  184SOL    HW2 1452   1.340   2.794   2.927  0.5842 -1.1867 -0.4598
  185SOL     OW 1453   4.016   4.152   5.467  0.2504  0.5329  0.1807
  185SOL    HW1 1454   4.061   4.092   5.400  0.5859 -1.0766  1.7851
  185SOL    HW2 1455   4.043   4.247   5.450  0.3283  0.1774 -1.9437
  186SOL     OW 1456   6.261   5.762   3.228  0.1774  0.5410 -0.1699
  186SOL    HW1 1457   6.279   5.856   3.259  1.3196  0.1632  0.3669
  186SOL    HW2 1458   6.170   5.757   3.189 -0.9018  1.3138  2.0948
  187SOL     OW 1459   4.803   6.396   3.396  0.4855 -0.4296  0.2912
  187SOL    HW1 1460   4.873   6.404   3.325 -0.8289 -0.9498 -1.1071
  187SOL    HW2 1461   4.805   6.303   3.434  0.3736 -0.5226  0.0684
  188SOL     OW 1462   6.900   1.676   5.003 -0.2257 -0.1728  0.1948
  188SOL    HW1 1463   6.820   1.616   5.003 -1.4034  1.3317 -0.2322
  188SOL    HW2 1464   6.871   1.770   5.021  1.6226  0.2257  1.3509
  189SOL     OW 1465   0.952   5.720   3.928  0.2857  0.8019 -0.3357
  189SOL    HW1 1466   1.026   5.746   3.991  0.0656 -0.0836  0.3122
  189SOL    HW2 1467   0.921   5.627   3.950 -1.1080  1.2093 -0.5140
  190SOL     OW 1468   2.698   6.671   0.720  0.0162  0.5959  0.1124
  190SOL    HW1 1469   2.750   6.690   0.636  0.5115  0.0313  0.2815
  190SOL    HW2 1470   2.699   6.572   0.738 -1.5660  0.4979 -0.1638
  191SOL     OW 1471   5.254   6.337   6.753  0.4438  0.4256 -0.3169
  191SOL    HW1 1472   5.266   6.431   6.720 -2.3636  1.4549  1.2165
  191SOL    HW2 1473   5.164   6.304   6.728  1.3662 -1.9234 -0.7847
  192SOL     OW 1474   6.277   0.107   6.709  0.6656 -0.0275 -0.3626
  192SOL    HW1 1475   6.249   0.200   6.734 -0.0350 -0.1346 -0.7495
  192SOL    HW2 1476   6.320   0.108   6.619  4.2839  0.5601  1.1719
  193SOL     OW 1477   4.607   5.708   0.499  0.3768  0.3358 -0.2978
  193SOL    HW1 1478   4.614   5.790   0.555  1.5222  1.1762 -1.5858
  193SOL    HW2 1479   4.699   5.670   0.485  0.2308  0.5851 -2.1588
  194SOL     OW 1480   0.159   6.947   5.031  0.1033 -0.3871 -0.2028
  194SOL    HW1 1481   0.072   6.899   5.021 -0.6251  0.7732  0.2443
  194SOL    HW2 1482   0.196   6.969   4.941  0.3013 -1.5051 -0.4042
  195SOL     OW 1483   0.602   6.935   2.387 -0.0475  0.0026  0.1834
  195SOL    HW1 1484   0.660   6.932   2.306  1.8253 -0.8426  1.4965
  195SOL    HW2 1485   0.531   6.864   2.379 -0.6534  0.7007 -1.1888
  196SOL     OW 1486   1.751   0.037   1.154  0.5964 -0.1793  0.2558
  196SOL    HW1 1487   1.704   0.068   1.072  1.7028  1.3980  0.1851
  196SOL    HW2 1488   1.714   0.086   1.234  0.6296 -0.5374  0.4955
  197SOL     OW 1489   0.252   1.348   1.699  0.4938 -0.1893 -0.1907
  197SOL    HW1 1490   0.305   1.272   1.738 -0.5118 -1.1064 -0.5652
  197SOL    HW2 1491   0.190   1.384   1.768  1.5198  0.8429  0.2281
  198SOL     OW 1492   2.082   6.623   3.819 -0.0254 -0.5030 -0.0405
  198SOL    HW1 1493   2.024   6.673   3.755 -1.8383 -2.2285  0.1769
  198SOL    HW2 1494   2.097   6.678   3.901 -2.3589 -0.4569  0.4035
  199SOL     OW 1495   1.552   0.635   5.100 -0.2768  0.4335 -0.2330
  199SOL    HW1 1496   1.648   0.664   5.102 -0.2193  0.2366 -0.0864
  199SOL    HW2 1497   1.501   0.692   5.036  0.1312 -0.0523 -1.0016
  200SOL     OW 1498   5.861   2.542   0.454 -0.0407  0.1447  0.0406
  200SOL    HW1 1499   5.763   2.526   0.464  0.0445  0.2688  1.1822
  200SOL    HW2 1500   5.878   2.639   0.438  0.0880  0.9009  3.8063
  201SOL     OW 1501   1.806   6.196   6.818 -0.0092 -0.3701 -0.0295
  201SOL    HW1 1502   1.817   6.168   6.722 -0.5993 -0.7881  0.0166
  201SOL    HW2 1503   1.722   6.250   6.827 -0.8854 -1.7849  0.5481
  202SOL     OW 1504   4.507   0.446   0.139 -0.5316 -0.2772  0.1574
  202SOL    HW1 1505   4.410   0.435   0.118 -0.5797 -1.1270  0.7877
  202SOL    HW2 1506   4.539   0.369   0.194  0.0805  0.8018  1.3981
  203SOL     OW 1507   0.530   4.117   0.052  0.2699 -0.2214 -0.0680
  203SOL    HW1 1508   0.490   4.202   0.087  0.9143  0.1746 -0.2761
  203SOL    HW2 1509   0.548   4.055   0.129 -1.8320 -0.9184 -0.0608
  204SOL     OW 1510   7.001   0.349   5.784  0.1544 -0.1606 -0.3208
  204SOL    HW1 1511   6.911   0.306   5.791  0.1041  0.1668  1.3932
  204SOL    HW2 1512   7.072   0.279   5.778 -0.1671 -0.4198 -1.4943
  205SOL     OW 1513   3.774   5.171   3.670  0.1928 -0.1483 -0.2691
  205SOL    HW1 1514   3.789   5.072   3.670 -0.2012 -0.2079 -0.5673
  205SOL    HW2 1515   3.688   5.192   3.624  1.2576  0.4840 -2.0612
  206SOL     OW 1516   1.504   3.237   1.207 -0.3840 -0.3671  0.0233
  206SOL    HW1 1517   1.571   3.310   1.214 -1.1286  0.1861  2.3290
  206SOL    HW2 1518   1.474   3.227   1.112  1.3810  0.7760 -0.6822
  207SOL     OW 1519   6.371   3.695   4.382  0.5633  0.0312  0.0291
  207SOL    HW1 1520   6.322   3.689   4.469 -0.8469 -0.7877 -0.7743
  207SOL    HW2 1521   6.397   3.604   4.351 -0.8988  0.0546 -1.4217
  208SOL     OW 1522   1.156   4.347   3.210 -0.2071  0.1873  0.4153
  208SOL    HW1 1523   1.202   4.385   3.130  0.7018 -0.6664  0.5165
  208SOL    HW2 1524   1.169   4.408   3.288 -1.2577  1.1175 -0.1140
  209SOL     OW 1525   6.369   3.699   3.182  0.2982  0.3501  0.2731
  209SOL    HW1 1526   6.395   3.744   3.097  0.7537 -0.4884 -0.0410
  209SOL    HW2 1527   6.415   3.611   3.188 -0.2757  0.0988  1.0657
  210SOL     OW 1528   4.063   4.414   1.240  0.2204 -0.2125 -0.2859
  210SOL    HW1 1529   4.055   4.393   1.337 -0.2706  0.3190 -0.2051
  210SOL    HW2 1530   3.986   4.471   1.212  0.2323 -0.5599 -1.0428
  211SOL     OW 1531   6.608   2.289   1.229 -0.5528 -0.0502  0.1506
  211SOL    HW1 1532   6.610   2.189   1.233 -0.2655 -0.0260  0.7209
  211SOL    HW2 1533   6.690   2.322   1.183  0.2937 -0.0160  1.6178
  212SOL     OW 1534   0.638   5.046   2.767  0.2052  0.4451 -0.0454
  212SOL    HW1 1535   0.552   5.085   2.734  0.7073  0.8331 -0.9333
  212SOL    HW2 1536   0.682   4.995   2.693 -0.0734 -1.1963  0.8909
  213SOL     OW 1537   1.524   1.602   1.936  0.1467 -0.3027 -0.5139
  213SOL    HW1 1538   1.603   1.542   1.940  0.0396 -0.3920  2.7751
  213SOL    HW2 1539   1.451   1.566   1.995 -1.2278  1.3035 -1.1338
  214SOL     OW 1540   6.397   6.562   2.145  0.3114 -0.7705  0.1184
  214SOL    HW1 1541   6.365   6.653   2.169 -0.5505 -1.1145  0.3211
  214SOL    HW2 1542   6.443   6.521   2.224  1.5298 -0.1743 -0.2541
  215SOL     OW 1543   2.551   6.152   2.164  0.1156 -0.3307  0.3741
  215SOL    HW1 1544   2.636   6.205   2.160 -0.2318  0.2490  0.4868
  215SOL    HW2 1545   2.480   6.200   2.112 -0.4370 -0.2429  1.1901
  216SOL     OW 1546   0.932   4.718   3.682 -0.2575 -0.2281 -0.5034
  216SOL    HW1 1547   1.022   4.686   3.651 -0.6418 -0.8612 -0.9851
  216SOL    HW2 1548   0.944   4.795   3.745  0.6161 -0.2134 -0.6739
  217SOL     OW 1549   0.831   2.190   4.307  0.3235 -0.9580 -0.2872
  217SOL    HW1 1550   0.748   2.136   4.322  0.1210 -0.4681  0.4252
  217SOL    HW2 1551   0.910   2.129   4.310 -0.1075 -1.8206 -3.2555
  218SOL     OW 1552   3.136   4.550   6.970  0.3747  0.1142  0.3711
  218SOL    HW1 1553   3.097   4.494   7.043 -0.2426  1.2856  0.9739
  218SOL    HW2 1554   3.072   4.624   6.948  1.4163  0.9179 -0.0043
  219SOL     OW 1555   6.374   1.715   1.348 -0.1631 -0.2521 -0.7959
  219SOL    HW1 1556   6.338   1.648   1.283  0.5650  0.8995 -2.4705
  219SOL    HW2 1557   6.455   1.678   1.394 -0.6837 -1.0802 -0.5278
  220SOL     OW 1558   3.050   6.545   6.239 -0.0175 -0.6342  0.0104
  220SOL    HW1 1559   3.131   6.603   6.241  0.0667 -0.7676  0.5894
  220SOL    HW2 1560   3.074   6.454   6.207 -0.3079 -0.1264 -1.7853
  221SOL     OW 1561   4.509   5.499   1.890 -0.3740  0.4664 -0.2236
  221SOL    HW1 1562   4.579   5.545   1.946  0.5377 -1.1746  0.0603
  221SOL    HW2 1563   4.516   5.531   1.796 -1.1583  2.4077  0.3159
  222SOL     OW 1564   2.097   6.113   0.365 -0.2087 -0.1576 -0.1181
  222SOL    HW1 1565   2.007   6.152   0.385 -0.3536 -0.3975 -0.2942
  222SOL    HW2 1566   2.168   6.177   0.393 -0.4241 -0.1204  0.3676
  223SOL     OW 1567   5.510   1.356   5.643  0.0681 -0.0705 -0.2198
  223SOL    HW1 1568   5.586   1.399   5.691  0.8615 -0.8022 -0.8074
  223SOL    HW2 1569   5.427   1.367   5.698  1.0652 -1.4357  1.6887
  224SOL     OW 1570   4.052   3.395   5.492  0.5687 -0.1227 -0.1024
  224SOL    HW1 1571   4.038   3.310   5.542 -1.7150 -0.8033 -1.7356
  224SOL    HW2 1572   4.029   3.472   5.551  0.9962 -0.6981  0.8530
  225SOL     OW 1573   4.178   0.194   0.719  0.6011  0.7789 -0.1583
  225SOL    HW1 1574   4.205   0.288   0.701 -0.1671  1.0639  0.1307
  225SOL    HW2 1575   4.078   0.188   0.723  0.6227 -0.1229 -0.5789
  226SOL     OW 1576   2.824   1.825   0.635  0.8876 -0.2443 -0.2857
  226SOL    HW1 1577   2.906   1.832   0.691  0.3469 -1.4627  0.7034
  226SOL    HW2 1578   2.750   1.877   0.677  0.9995  0.4467 -0.9179
  227SOL     OW 1579   0.952   3.270   2.340 -0.5249 -0.2522  0.2487
  227SOL    HW1 1580   1.049   3.268   2.317 -0.3990 -2.6602  0.7425
  227SOL    HW2 1581   0.941   3.301   2.435 -0.2383  0.0146  0.1944
  228SOL     OW 1582   1.510   0.059   3.393  0.1168  0.3372 -0.5452
  228SOL    HW1 1583   1.454  -0.016   3.427  1.4490 -0.3933  0.1381
  228SOL    HW2 1584   1.546   0.035   3.302 -1.4284  1.2317 -1.4404
  229SOL     OW 1585   5.259   2.413   5.340  0.4150 -0.5460  0.3239
  229SOL    HW1 1586   5.345   2.370   5.313  1.0986  0.2099  1.2321
  229SOL    HW2 1587   5.254   2.506   5.303  1.1533  0.3322  2.2694
  230SOL     OW 1588   5.134   2.446   6.509 -0.7640 -0.1782  0.3948
  230SOL    HW1 1589   5.189   2.406   6.436  1.2938  0.9944  1.2362
  230SOL    HW2 1590   5.038   2.449   6.480 -0.2360 -1.0597 -1.6467
  231SOL     OW 1591   4.803   2.273   0.382 -0.3053 -0.9242 -0.2127
  231SOL    HW1 1592   4.872   2.289   0.312 -0.3577  1.0915  0.1307
  231SOL    HW2 1593   4.721   2.326   0.361 -1.3187 -2.3292  0.0311
  232SOL     OW 1594   1.659   2.420   3.874  0.0750  0.4104 -0.2982
  232SOL    HW1 1595   1.641   2.518   3.875 -1.5655  0.2335 -3.3015
  232SOL    HW2 1596   1.726   2.399   3.804  1.5951 -0.5372  1.3467
  233SOL     OW 1597   4.064   2.234   3.873  0.0061  0.2665 -0.2655
  233SOL    HW1 1598   4.079   2.204   3.967 -0.1606  1.2731  0.0936
  233SOL    HW2 1599   3.977   2.282   3.866 -0.1637 -0.1362 -1.0207
  234SOL     OW 1600   4.976   6.930   4.414  0.2205 -0.5733  0.4897
  234SOL    HW1 1601   4.956   6.839   4.380  1.0943 -0.7385  0.3820
  234SOL    HW2 1602   5.002   6.989   4.337 -0.6986 -0.1226  0.5097
  235SOL     OW 1603   5.553   2.264   4.781  0.3828 -0.5188  0.2412
  235SOL    HW1 1604   5.640   2.278   4.734  1.0544 -0.4884  1.4473
  235SOL    HW2 1605   5.567   2.204   4.860 -1.2719 -3.1279 -1.2813
  236SOL     OW 1606   1.899   2.561   5.628  0.3511  0.4724 -0.5657
  236SOL    HW1 1607   1.886   2.647   5.676 -0.0831 -0.2382  0.6263
  236SOL    HW2 1608   1.836   2.556   5.550 -1.1390  0.3650  0.5929
  237SOL     OW 1609   4.874   5.076   2.444  0.2782  0.0675 -0.5162
  237SOL    HW1 1610   4.931   5.148   2.482  1.3720 -0.9752 -0.1052
  237SOL    HW2 1611   4.816   5.113   2.371 -1.1253  1.8939  1.4355
  238SOL     OW 1612   0.343   1.421   5.789 -0.5902 -0.2530 -0.0106
  238SOL    HW1 1613   0.255   1.416   5.837 -1.6764  0.5026 -1.8198
  238SOL    HW2 1614   0.345   1.353   5.716 -0.0187  0.3014 -0.5192
  239SOL     OW 1615   2.250   4.938   6.715 -0.5793 -0.1898 -0.1898
  239SOL    HW1 1616   2.172   4.874   6.712 -0.0978 -0.8677  0.9645
  239SOL    HW2 1617   2.323   4.898   6.771 -0.0814  1.1930  0.1734
  240SOL     OW 1618   5.198   2.970   4.009  0.1594 -0.2508  0.4495
  240SOL    HW1 1619   5.224   2.942   4.101  2.5118  0.8267  0.1983
  240SOL    HW2 1620   5.266   2.937   3.944 -0.0476  1.1825 -0.5433
  241SOL     OW 1621   1.929   2.028   5.629  0.3174 -0.0094  0.4592
  241SOL    HW1 1622   1.851   2.019   5.568  0.2530  0.4576  0.4686
  241SOL    HW2 1623   1.930   2.120   5.668  0.3360 -0.3104  1.1867
  242SOL     OW 1624   3.352   4.097   1.809 -0.3151  1.2916 -0.4873
  242SOL    HW1 1625   3.281   4.099   1.879 -0.0806 -0.7645 -0.1406
  242SOL    HW2 1626   3.403   4.012   1.816  1.6520  2.3420 -1.2773
  243SOL     OW 1627   4.898   2.408   0.960 -0.3732 -0.3479  0.2836
  243SOL    HW1 1628   4.909   2.435   0.865 -2.4833 -0.1881  0.0463
  243SOL    HW2 1629   4.903   2.489   1.019 -1.5713 -0.0965  0.0557
  244SOL     OW 1630   5.084   4.117   5.070  0.2547  0.2539 -0.5195
  244SOL    HW1 1631   5.093   4.070   5.158  0.0495 -0.3571 -0.8163
  244SOL    HW2 1632   5.149   4.078   5.005  0.9718  1.2517 -0.4202
  245SOL     OW 1633   2.170   5.780   3.237  0.2726 -0.4258 -0.2566
  245SOL    HW1 1634   2.265   5.752   3.222 -0.1448 -2.1602  0.1298
  245SOL    HW2 1635   2.120   5.774   3.150  0.4285  0.1378 -0.3864
  246SOL     OW 1636   0.719   2.008   3.182 -0.0258  0.3305  0.2317
  246SOL    HW1 1637   0.794   2.068   3.210 -0.0119  0.6753 -0.5398
  246SOL    HW2 1638   0.638   2.062   3.162  0.1415  0.1579 -0.9878
  247SOL     OW 1639   1.804   6.061   0.057 -0.1589  0.3424  0.0510
  247SOL    HW1 1640   1.791   6.126   0.132  1.7831 -0.0328  0.7772
  247SOL    HW2 1641   1.833   6.110  -0.025  0.3572  0.4910  0.3208
  248SOL     OW 1642   2.916   3.483   2.642  0.0790 -0.1421 -0.0293
  248SOL    HW1 1643   2.959   3.395   2.661 -0.7947 -0.5735 -0.0096
  248SOL    HW2 1644   2.856   3.475   2.562 -1.9071 -0.2236  1.4010
  249SOL     OW 1645   5.617   0.465   6.532  0.2529  0.1545  0.3348
  249SOL    HW1 1646   5.614   0.370   6.500  0.4058 -0.3017  1.5924
  249SOL    HW2 1647   5.711   0.489   6.555  0.3623  0.9426 -0.8756
  250SOL     OW 1648   5.506   1.487   0.773 -0.3120 -0.3295  0.5342
  250SOL    HW1 1649   5.559   1.471   0.856 -0.6728  0.3062  0.8965
  250SOL    HW2 1650   5.518   1.582   0.744  0.2769 -0.7013 -0.4779
  251SOL     OW 1651   3.786   4.948   5.072  0.0994  0.1719  0.5516
  251SOL    HW1 1652   3.692   4.974   5.047  0.6157  0.7011 -0.9158
  251SOL    HW2 1653   3.784   4.898   5.159 -1.2544  2.5432  1.9794
  252SOL     OW 1654   0.834   6.626   6.550  0.1400 -0.2455  0.2069
  252SOL    HW1 1655   0.910   6.567   6.522  2.1223  1.2787  2.0348
  252SOL    HW2 1656   0.810   6.607   6.645 -0.2559  0.8037  0.3271
  253SOL     OW 1657   4.486   4.869   5.610  0.0930  0.0825  0.2554
  253SOL    HW1 1658   4.578   4.866   5.571  0.9067  0.1081  2.0451
  253SOL    HW2 1659   4.489   4.917   5.698 -1.6367  0.0208  0.3862
  254SOL     OW 1660   0.937   1.438   5.731 -0.2003  0.1958  0.1002
  254SOL    HW1 1661   0.974   1.477   5.647 -0.6049  1.8855  0.6762
  254SOL    HW2 1662   0.837   1.438   5.726 -0.2097 -0.9904  0.0308
  255SOL     OW 1663   0.443   4.740   5.726  0.4557 -0.0767 -0.4252
  255SOL    HW1 1664   0.351   4.730   5.765  0.2685  1.1446 -0.5155
  255SOL    HW2 1665   0.491   4.652   5.731 -0.6460 -0.6843 -0.2110
  256SOL     OW 1666   4.707   2.194   4.832  0.2734 -0.2971  0.5367
  256SOL    HW1 1667   4.790   2.163   4.878 -0.3436 -0.6158  1.4646
  256SOL    HW2 1668   4.644   2.117   4.822  0.0883 -0.0572 -0.1495
  257SOL     OW 1669   5.975   6.270   2.592 -0.9857 -0.2533 -0.8994
  257SOL    HW1 1670   5.894   6.292   2.646 -1.7082 -1.0248 -1.6325
  257SOL    HW2 1671   5.966   6.311   2.501  0.8428  2.2217 -0.0837
  258SOL     OW 1672   3.657   3.416   5.529 -0.3285 -0.4648  0.2250
  258SOL    HW1 1673   3.596   3.417   5.449  0.6279 -0.7803 -0.5285
  258SOL    HW2 1674   3.698   3.325   5.539 -0.0457 -0.2834  0.7738
  259SOL     OW 1675   2.332   1.190   3.379  0.2104  0.0262 -0.1110
  259SOL    HW1 1676   2.358   1.268   3.321 -1.3078  0.6540  0.0153
  259SOL    HW2 1677   2.235   1.196   3.401  0.1533 -1.7315  0.2090
  260SOL     OW 1678   4.038   5.874   4.179 -0.9155  0.4294  0.0097
  260SOL    HW1 1679   4.008   5.967   4.159  0.3362  0.6901 -0.7203
  260SOL    HW2 1680   4.096   5.841   4.105  0.4611 -0.1176  1.2960
  261SOL     OW 1681   5.024   5.611   1.683  0.8271 -0.1200 -0.5130
  261SOL    HW1 1682   5.025   5.539   1.753  1.4282 -1.0056 -1.4124
  261SOL    HW2 1683   5.117   5.629   1.652  0.5841  0.3989 -0.9650
  262SOL     OW 1684   1.877   2.146   0.477  0.1056  0.5531  0.1586
  262SOL    HW1 1685   1.807   2.110   0.539  0.6983  0.7349  0.9497
  262SOL    HW2 1686   1.843   2.228   0.431 -0.0176  0.9407  0.9310
  263SOL     OW 1687   0.424   0.068   4.528 -0.0034 -0.0527 -0.0607
  263SOL    HW1 1688   0.496   0.019   4.579 -0.8939 -0.4916  0.7973
  263SOL    HW2 1689   0.466   0.142   4.476  1.0701 -0.2228  0.5183
  264SOL     OW 1690   0.351   6.018   5.528  0.4611  0.1302  0.2976
  264SOL    HW1 1691   0.279   6.049   5.590  0.0155 -0.3217  0.0061
  264SOL    HW2 1692   0.315   5.950   5.464  1.3944 -0.9560  0.8714
  265SOL     OW 1693   0.341   1.334   2.772 -0.3953 -0.4191 -0.4819
  265SOL    HW1 1694   0.432   1.293   2.783 -0.5634 -1.0329 -1.3138
  265SOL    HW2 1695   0.271   1.267   2.793 -0.7371  0.7917  2.9175
  266SOL     OW 1696   3.824   1.796   6.329  0.1037 -0.2080  0.0111
  266SOL    HW1 1697   3.889   1.871   6.327  0.7992 -0.8221 -1.4581
  266SOL    HW2 1698   3.864   1.718   6.378 -0.2943  0.0680  0.7969
  267SOL     OW 1699   0.519   6.757   2.022  0.0812 -0.0121  0.0642
  267SOL    HW1 1700   0.612   6.791   2.004 -0.1417  0.1982 -0.7314
  267SOL    HW2 1701   0.524   6.681   2.087  0.9186 -0.6105 -0.6565
  268SOL     OW 1702   6.104   3.568   6.755 -0.3715 -0.3267  0.3081
  268SOL    HW1 1703   6.016   3.568   6.804 -0.8727  0.0175 -0.5705
  268SOL    HW2 1704   6.094   3.516   6.670 -0.5501  2.1160 -1.2296
  269SOL     OW 1705   5.617   2.885   1.496  0.0043  0.0163 -0.4489
  269SOL    HW1 1706   5.701   2.837   1.472  1.3223  2.4175 -0.8962
  269SOL    HW2 1707   5.638   2.977   1.529 -2.4715  0.9991 -1.3161
  270SOL     OW 1708   3.983   2.112   0.564  0.5834  0.0140  0.1498
  270SOL    HW1 1709   4.033   2.166   0.632  0.1622 -0.4889  0.8721
  270SOL    HW2 1710   4.030   2.118   0.476  1.7345 -0.2001  0.7324
  271SOL     OW 1711   6.892   6.028   0.285 -0.1514 -0.6475  0.2142
  271SOL    HW1 1712   6.979   6.049   0.241 -1.1279  1.5360 -0.8191
  271SOL    HW2 1713   6.836   5.972   0.224  0.0845 -1.0911  0.4039
  272SOL     OW 1714   4.270   5.417   3.860  0.1999 -0.4817  0.2631
  272SOL    HW1 1715   4.200   5.438   3.928  1.1723 -1.1043  1.4997
  272SOL    HW2 1716   4.276   5.493   3.795 -0.0378  0.6344  1.4794
  273SOL     OW 1717   0.799   5.917   5.701 -1.1823  0.1894  0.0469
  273SOL    HW1 1718   0.853   5.845   5.658 -0.2736 -0.1114  1.6133
  273SOL    HW2 1719   0.717   5.935   5.646 -0.9079 -1.3015 -0.9055
  274SOL     OW 1720   4.640   0.170   4.749 -0.3229  0.1044  0.4498
  274SOL    HW1 1721   4.710   0.121   4.697 -1.6594  0.2423 -1.6022
  274SOL    HW2 1722   4.682   0.246   4.799  1.2357 -0.9452  0.8357
  275SOL     OW 1723   4.970   1.139   4.533  0.1723  0.1444  0.5771
  275SOL    HW1 1724   5.033   1.206   4.493 -2.4822  1.8784 -1.0035
  275SOL    HW2 1725   4.923   1.180   4.612 -0.9417 -0.0843  0.0503
  276SOL     OW 1726   1.470   4.624   3.588  0.2982 -0.1381  0.2853
  276SOL    HW1 1727   1.496   4.528   3.582  0.8976  0.0952 -1.1889
  276SOL    HW2 1728   1.469   4.664   3.497  0.4239  1.3619  0.9158
  277SOL     OW 1729   1.138   3.959   1.739 -0.4351  0.3370  0.7095
  277SOL    HW1 1730   1.062   3.923   1.685 -0.4896 -0.9300  1.5935
  277SOL    HW2 1731   1.221   3.905   1.721  0.0215  1.0993  0.4827
  278SOL     OW 1732   1.352   1.903   4.714  0.2098  0.5189  0.1148
  278SOL    HW1 1733   1.348   1.821   4.656 -1.9857  1.3764 -1.0395
  278SOL    HW2 1734   1.315   1.981   4.664 -0.2459  1.6609  2.1341
  279SOL     OW 1735   5.992   2.001   2.969  0.7224  0.3015  0.5108
  279SOL    HW1 1736   5.969   2.032   2.877  0.5025  0.3676  0.5858
  279SOL    HW2 1737   5.907   1.988   3.021  0.7408 -1.2669  0.2141
  280SOL     OW 1738   1.037   5.757   0.834 -0.2699 -0.0532 -0.3073
  280SOL    HW1 1739   0.995   5.795   0.752 -0.0098 -0.4993 -0.6517
  280SOL    HW2 1740   0.989   5.673   0.859 -1.7112  1.1522  1.2187
  281SOL     OW 1741   1.916   4.281   6.826  0.2197 -0.1635 -0.0711
  281SOL    HW1 1742   1.919   4.379   6.844 -2.9638 -0.3669  2.5540
  281SOL    HW2 1743   1.866   4.265   6.741 -0.8495  0.5235  0.3956
  282SOL     OW 1744   1.600   0.806   4.674  0.0235  0.1121 -0.4324
  282SOL    HW1 1745   1.557   0.883   4.627  0.4161  0.9174  0.4824
  282SOL    HW2 1746   1.622   0.734   4.609  0.8201  1.3145 -1.5370
  283SOL     OW 1747   0.500   3.836   5.887 -0.1248  0.1894 -0.0302
  283SOL    HW1 1748   0.519   3.930   5.861  0.9801  0.6356  2.1323
  283SOL    HW2 1749   0.537   3.774   5.819 -1.1286  1.2795 -1.6349
  284SOL     OW 1750   1.478   3.855   3.450 -0.4800  0.6123  0.0819
  284SOL    HW1 1751   1.524   3.766   3.448 -1.5932  0.0210 -0.6041
  284SOL    HW2 1752   1.505   3.904   3.533 -0.7627 -0.8936  1.1269
  285SOL     OW 1753   4.482   4.475   2.783  0.2331  0.6462  0.2285
  285SOL    HW1 1754   4.412   4.538   2.749  3.2701  3.6592 -1.1334
  285SOL    HW2 1755   4.500   4.404   2.715 -0.4344  0.7946 -0.1032
  286SOL     OW 1756   3.118   3.484   2.331  0.1347 -0.1808  0.1143
  286SOL    HW1 1757   3.019   3.472   2.337  0.2537 -1.2097  0.3139
  286SOL    HW2 1758   3.146   3.557   2.393 -0.6503  1.1282 -1.0299
  287SOL     OW 1759   2.149   2.875   0.642 -0.0196 -0.0124 -0.1226
  287SOL    HW1 1760   2.152   2.960   0.588 -0.2403  0.2349  0.2511
  287SOL    HW2 1761   2.158   2.897   0.739 -0.2814 -0.4011 -0.0097
  288SOL     OW 1762   0.349   4.305   3.641 -0.1187  0.0781  0.0499
  288SOL    HW1 1763   0.318   4.242   3.712  2.7835  0.0866  1.4950
  288SOL    HW2 1764   0.399   4.255   3.571 -1.2419  0.3400 -0.9853
  289SOL     OW 1765   4.291   5.153   5.953  0.2294  0.0846  0.0122
  289SOL    HW1 1766   4.240   5.167   6.038  1.3716  0.0501  0.7171
  289SOL    HW2 1767   4.229   5.166   5.875 -1.3222 -1.7242  0.8408
  290SOL     OW 1768   1.167   6.508   3.193  0.2680 -0.4100  0.1942
  290SOL    HW1 1769   1.190   6.541   3.101 -1.1362  0.4721  0.1323
  290SOL    HW2 1770   1.235   6.543   3.258 -0.4950  1.6910 -0.0531
  291SOL     OW 1771   0.618   2.133   4.562 -0.0268  0.2112  0.1491
  291SOL    HW1 1772   0.617   2.216   4.617 -0.8024 -0.7372  1.6431
  291SOL    HW2 1773   0.686   2.069   4.598  0.3620  0.0735 -0.8031
  292SOL     OW 1774   3.135   1.916   3.125 -0.0811 -0.3008  0.5798
  292SOL    HW1 1775   3.150   2.009   3.092 -2.0676 -0.1443 -0.0524
  292SOL    HW2 1776   3.161   1.851   3.053 -3.0187 -0.0045 -0.9115
  293SOL     OW 1777   3.520   5.324   4.684 -0.0570 -0.4501  0.7603
  293SOL    HW1 1778   3.445   5.266   4.652 -0.4583  0.7254 -0.5411
  293SOL    HW2 1779   3.596   5.320   4.619 -0.9518  2.1100 -0.5934
  294SOL     OW 1780   4.390   1.217   0.479  0.1831 -0.1125  0.3304
  294SOL    HW1 1781   4.324   1.144   0.499  1.6038 -1.4374  0.3528
  294SOL    HW2 1782   4.378   1.247   0.385  1.2061 -2.1985 -0.5376
  295SOL     OW 1783   0.047   0.709   4.467  0.7404 -0.2478 -0.0812
  295SOL    HW1 1784   0.003   0.711   4.557  0.4546  0.4023 -0.2268
  295SOL    HW2 1785   0.039   0.617   4.428  1.8482 -0.8438  1.0224
  296SOL     OW 1786   2.401   1.844   3.085 -0.5276 -0.2191  0.3923
  296SOL    HW1 1787   2.491   1.880   3.059 -0.2813 -0.3367  1.0615
  296SOL    HW2 1788   2.407   1.801   3.175 -1.5848  1.0889  1.1174
  297SOL     OW 1789   2.360   4.227   0.640 -0.2993  0.4707 -0.4204
  297SOL    HW1 1790   2.377   4.322   0.612  4.4504 -0.2566 -0.7945
  297SOL    HW2 1791   2.396   4.212   0.732 -2.4916 -0.6911  0.3315
  298SOL     OW 1792   6.152   5.184   0.458 -0.0916  0.4865  0.1560
  298SOL    HW1 1793   6.081   5.253   0.471 -0.7928 -0.1982  0.0981
  298SOL    HW2 1794   6.138   5.138   0.370  0.0153 -0.1047  0.4364
  299SOL     OW 1795   4.870   3.042   3.249  0.2727  0.2894  0.3237
  299SOL    HW1 1796   4.880   3.135   3.283 -2.5642  1.1388 -0.8499
  299SOL    HW2 1797   4.875   2.977   3.325  3.1102  1.2085  1.0701
  300SOL     OW 1798   3.570   1.380   1.937 -0.1278  0.4263  0.6522
  300SOL    HW1 1799   3.559   1.475   1.909 -0.2353 -0.1489 -1.4391
  300SOL    HW2 1800   3.665   1.364   1.965  0.0606  0.9856  0.3456
  301SOL     OW 1801   0.181   4.114   6.097  0.2382  0.3722  0.0603
  301SOL    HW1 1802   0.121   4.189   6.125  1.5338  1.4384  0.0967
  301SOL    HW2 1803   0.140   4.067   6.018 -1.1532  0.3525  0.7598
  302SOL     OW 1804   2.608   0.130   3.657  0.1511  0.0563  0.5801
  302SOL    HW1 1805   2.509   0.121   3.642 -0.0943  2.4825  0.4405
  302SOL    HW2 1806   2.627   0.129   3.755  0.1200 -1.1646  0.5985
  303SOL     OW 1807   6.220   1.158   3.793 -0.0252  0.2412 -0.5975
  303SOL    HW1 1808   6.245   1.064   3.813 -0.0585  0.3206 -0.1825
  303SOL    HW2 1809   6.140   1.185   3.846  0.8410  0.9543  0.3942
  304SOL     OW 1810   5.245   1.098   5.868 -0.0752  0.2142 -0.1961
  304SOL    HW1 1811   5.265   1.139   5.957  0.8273 -0.2877 -0.1624
  304SOL    HW2 1812   5.330   1.083   5.818 -0.4693 -0.7542 -0.5941
  305SOL     OW 1813   0.818   3.890   2.438  0.6841 -0.2069 -0.4480
  305SOL    HW1 1814   0.802   3.797   2.406  1.0377 -1.3490  2.3666
  305SOL    HW2 1815   0.749   3.951   2.400 -0.4123 -1.8759 -1.2488
  306SOL     OW 1816   0.912   2.627   4.687 -0.0905  0.3958  0.2552
  306SOL    HW1 1817   0.893   2.607   4.591  2.0256  1.3707 -0.4409
  306SOL    HW2 1818   0.890   2.723   4.705 -1.1526  0.0302  0.9592
  307SOL     OW 1819   2.308   6.415   4.762 -0.3849  0.1188  0.3378
  307SOL    HW1 1820   2.239   6.387   4.829 -1.0159  0.7935 -0.0123
  307SOL    HW2 1821   2.312   6.515   4.759 -0.4053  0.0992 -0.6564
  308SOL     OW 1822   0.305   5.999   3.500 -0.0380  0.5352 -0.0488
  308SOL    HW1 1823   0.350   6.039   3.580  0.2325  0.9584 -0.4057
  308SOL    HW2 1824   0.372   5.986   3.427 -0.4279  0.8515 -0.4660
  309SOL     OW 1825   4.352   4.014   5.551  0.4620  0.2363  0.2133
  309SOL    HW1 1826   4.280   3.968   5.603  0.7909 -0.8925 -0.3022
  309SOL    HW2 1827   4.350   4.112   5.571  0.7673 -0.1711  2.6180
  310SOL     OW 1828   1.179   4.644   6.625 -0.1534  0.3463  0.0909
  310SOL    HW1 1829   1.163   4.545   6.619  0.5304  0.2416 -0.0967
  310SOL    HW2 1830   1.223   4.676   6.542 -1.5591  1.0621 -0.4035
  311SOL     OW 1831   1.597   1.341   2.990  0.0890  0.0865  0.0666
  311SOL    HW1 1832   1.553   1.430   2.988  0.9182  0.6453  2.7332
  311SOL    HW2 1833   1.696   1.352   3.000 -0.0167 -0.9657  3.7018
  312SOL     OW 1834   3.448   2.098   6.241  0.6852  0.3114  0.3146
  312SOL    HW1 1835   3.526   2.125   6.185  0.2808 -1.0656 -0.9719
  312SOL    HW2 1836   3.424   2.173   6.303  1.3516  1.7750 -1.1272
  313SOL     OW 1837   0.513   5.655   3.000  0.4817 -0.3205  0.0305
  313SOL    HW1 1838   0.567   5.724   2.952  0.0723 -0.3772 -0.5210
  313SOL    HW2 1839   0.522   5.668   3.099 -1.1148  1.7160 -0.0514
  314SOL     OW 1840   4.097   6.458   0.811 -0.2725  0.3295  0.7338
  314SOL    HW1 1841   4.019   6.397   0.798  2.4740 -2.9760 -2.5401
  314SOL    HW2 1842   4.081   6.544   0.764 -1.1548 -1.2189 -2.0255
  315SOL     OW 1843   0.979   5.985   2.525  0.1453  0.1864 -0.1294
  315SOL    HW1 1844   1.047   5.957   2.458  0.0201 -1.3187  0.3359
  315SOL    HW2 1845   0.948   5.905   2.577 -1.6870  0.8814 -0.0638
  316SOL     OW 1846   1.981   1.358   3.638  0.8221 -0.3851  0.0908
  316SOL    HW1 1847   1.914   1.319   3.701  0.9686  0.1658  0.5924
  316SOL    HW2 1848   1.951   1.449   3.609  0.2055 -1.0604 -1.5152
  317SOL     OW 1849   1.530   3.671   6.552  0.0648 -0.8850  0.2254
  317SOL    HW1 1850   1.466   3.708   6.619  0.9616  0.7430  0.2569
  317SOL    HW2 1851   1.501   3.697   6.460 -0.4050 -1.9021  0.0807
  318SOL     OW 1852   2.955   5.144   5.854  0.5012 -0.0653 -0.5812
  318SOL    HW1 1853   3.033   5.200   5.881 -0.7335  0.7830  1.4484
  318SOL    HW2 1854   2.946   5.145   5.755  0.0927  4.1034 -0.6899
  319SOL     OW 1855   6.492   6.966   6.832  0.2216 -0.2267 -0.0673
  319SOL    HW1 1856   6.417   7.026   6.803  1.8405  1.3450 -1.2529
  319SOL    HW2 1857   6.463   6.912   6.911 -1.9104  0.8192 -0.0655
  320SOL     OW 1858   5.100   3.206   4.907  0.1888  0.1213  0.4266
  320SOL    HW1 1859   5.063   3.298   4.899  1.9823  0.7701 -1.2789
  320SOL    HW2 1860   5.141   3.179   4.820  3.8668 -0.4169  2.1562
  321SOL     OW 1861   2.416   6.794   0.273  0.3355 -0.0923  0.3954
  321SOL    HW1 1862   2.493   6.858   0.270 -1.9754  2.8624 -0.5924
  321SOL    HW2 1863   2.357   6.809   0.194 -1.4286 -2.0737  1.2413
  322SOL     OW 1864   3.877   3.429   6.206 -0.4677  0.3476  0.3578
  322SOL    HW1 1865   3.967   3.460   6.233 -1.2242  0.7132  2.6764
  322SOL    HW2 1866   3.827   3.504   6.163 -0.0822  0.4788  0.1381
  323SOL     OW 1867   3.031   5.696   1.521  0.2404  1.3289  0.0573
  323SOL    HW1 1868   2.952   5.700   1.582  1.0797  1.1740  1.1777
  323SOL    HW2 1869   3.106   5.749   1.559  2.1844 -2.0013  1.3112
  324SOL     OW 1870   6.460   2.679   3.913 -0.7763  0.2350  0.4022
  324SOL    HW1 1871   6.423   2.589   3.935  0.3382 -0.8684 -1.9085
  324SOL    HW2 1872   6.559   2.679   3.930 -0.1959 -0.0823 -2.5371
  325SOL     OW 1873   2.612   1.877   0.403  0.2734  0.0460  0.1471
  325SOL    HW1 1874   2.593   1.973   0.423 -0.0418 -0.1524  0.8502
  325SOL    HW2 1875   2.697   1.850   0.448  0.1131 -0.1274  0.3502
  326SOL     OW 1876   1.361   5.910   4.081 -0.3068  0.5131 -0.5581
  326SOL    HW1 1877   1.378   5.982   4.013 -0.7662  1.5328  0.3755
  326SOL    HW2 1878   1.432   5.841   4.073  0.6598  1.5057 -0.9113
  327SOL     OW 1879   0.872   3.905   0.031  0.0251  0.0691  0.2309
  327SOL    HW1 1880   0.831   3.821  -0.005 -0.3123 -0.3944  1.6581
  327SOL    HW2 1881   0.799   3.968   0.058  0.2053  1.7592 -2.7414
  328SOL     OW 1882   4.617   6.669   4.061  0.3905  1.0309  0.1297
  328SOL    HW1 1883   4.587   6.749   4.113  1.1722  0.8409  0.9091
  328SOL    HW2 1884   4.571   6.667   3.972  0.0530  2.1154  0.2662
  329SOL     OW 1885   3.678   4.450   1.706 -0.0238  0.0708  0.6540
  329SOL    HW1 1886   3.655   4.534   1.757  0.2837  0.0296  0.8670
  329SOL    HW2 1887   3.642   4.371   1.755 -2.8123  0.2175 -0.9758
  330SOL     OW 1888   4.445   2.547   6.999  0.3373 -0.1514 -0.1072
  330SOL    HW1 1889   4.520   2.486   6.975 -0.2600 -1.5251  1.3568
  330SOL    HW2 1890   4.361   2.495   7.012 -0.5601  1.1775 -0.3311
  331SOL     OW 1891   5.775   2.082   5.171 -0.2579  0.5580  0.2435
  331SOL    HW1 1892   5.701   2.045   5.226 -0.7861  0.0702 -0.7728
  331SOL    HW2 1893   5.783   2.180   5.187 -0.2561  0.3975  1.3329
  332SOL     OW 1894   5.951   2.400   2.928  0.0555  0.4270 -0.2605
  332SOL    HW1 1895   5.891   2.466   2.974  0.3632  0.4697  0.0797
  332SOL    HW2 1896   5.993   2.340   2.996  1.5741  1.3519 -0.3384
  333SOL     OW 1897   5.115   0.074   1.970  0.0714  0.0496  0.1174
  333SOL    HW1 1898   5.137   0.166   1.937  0.4785  0.4734  1.5056
  333SOL    HW2 1899   5.043   0.080   2.039 -1.2839 -0.8904 -1.1536
  334SOL     OW 1900   5.956   6.033   3.090  0.0520  0.5674 -0.2976
  334SOL    HW1 1901   5.990   6.038   2.996  0.9061 -1.1545 -0.1339
  334SOL    HW2 1902   5.908   5.946   3.103 -0.7637  1.1372  0.6550
  335SOL     OW 1903   4.057   0.524   2.505  0.2341  0.2592 -0.2512
  335SOL    HW1 1904   4.051   0.449   2.571 -0.9922 -0.3872 -1.0611
  335SOL    HW2 1905   4.124   0.591   2.537  0.1098 -0.3297  1.3405
  336SOL     OW 1906   2.083   1.149   3.506 -0.4571  0.2037 -0.1581
  336SOL    HW1 1907   2.111   1.098   3.587 -0.4497 -0.2611 -0.4539
  336SOL    HW2 1908   2.039   1.234   3.534  0.8205  0.7340  0.3236
  337SOL     OW 1909   0.060   4.643   3.479  0.2177 -0.4539  0.0451
  337SOL    HW1 1910   0.077   4.581   3.555  0.9190 -0.4262 -0.0789
  337SOL    HW2 1911   0.118   4.724   3.488 -0.9904  0.4008  0.4362
  338SOL     OW 1912   2.021   2.065   2.425  0.1626 -0.2107  0.1766
  338SOL    HW1 1913   2.120   2.063   2.439  0.4789  1.4808 -1.4307
  338SOL    HW2 1914   2.001   2.099   2.334 -1.9476  1.0164  1.0294
  339SOL     OW 1915   4.067   0.369   4.147 -0.0150  0.0845  0.3701
  339SOL    HW1 1916   4.127   0.378   4.226  0.3260 -0.4573  0.1833
  339SOL    HW2 1917   4.122   0.364   4.064 -0.3940  1.3291  0.0205
  340SOL     OW 1918   5.726   4.080   4.994  0.1379 -0.1534  0.5117
  340SOL    HW1 1919   5.671   4.003   5.025 -0.0511  0.8089  2.7318
  340SOL    HW2 1920   5.776   4.119   5.071  1.6452  0.8428 -0.8992
  341SOL     OW 1921   6.393   3.658   5.566  0.2772 -0.6291 -0.7227
  341SOL    HW1 1922   6.375   3.581   5.628  3.0484 -0.9793 -0.2341
  341SOL    HW2 1923   6.420   3.738   5.620  0.3702 -0.2141 -1.3804
  342SOL     OW 1924   6.400   3.135   1.344 -0.0691 -0.6223 -0.0335
  342SOL    HW1 1925   6.403   3.079   1.262 -0.9805 -0.6666 -0.0456
  342SOL    HW2 1926   6.336   3.211   1.330  0.2751 -0.2488  0.3974
  343SOL     OW 1927   2.384   2.325   3.475  0.8104 -0.3054  0.2187
  343SOL    HW1 1928   2.440   2.378   3.539 -0.6423  3.5746 -1.4610
  343SOL    HW2 1929   2.422   2.334   3.383 -0.9164 -0.0341 -0.4931
  344SOL     OW 1930   4.477   6.249   1.778  0.0746  0.3047 -0.2455
  344SOL    HW1 1931   4.574   6.251   1.755  0.0741  0.3080 -0.2477
  344SOL    HW2 1932   4.437   6.339   1.761 -0.1095  0.0777 -1.0236
  345SOL     OW 1933   2.106   6.969   3.018 -0.1383 -0.6038  0.4651
  345SOL    HW1 1934   2.033   7.000   3.077  0.0896 -0.7482  0.8265
  345SOL    HW2 1935   2.194   7.003   3.052 -0.1331  0.5992 -0.6382
  346SOL     OW 1936   2.229   0.019   4.972  0.6454 -0.2742  0.6724
  346SOL    HW1 1937   2.172  -0.049   4.925  0.4881  1.6487 -2.2055
  346SOL    HW2 1938   2.208   0.019   5.069 -0.4589 -3.2017  0.5219
  347SOL     OW 1939   4.347   5.733   5.333 -0.9706 -0.4863 -0.1994
  347SOL    HW1 1940   4.259   5.778   5.351 -0.2041  0.5765  1.0857
  347SOL    HW2 1941   4.396   5.721   5.419  1.5200  1.8778 -1.1391
  348SOL     OW 1942   2.144   6.278   4.928  0.1631  0.3311  0.3160
  348SOL    HW1 1943   2.087   6.243   4.854  1.8094  0.2061 -0.9599
  348SOL    HW2 1944   2.163   6.204   4.993 -1.6785  0.5587  1.1892
  349SOL     OW 1945   2.759   4.707   1.060  0.0093 -0.1985 -0.1706
  349SOL    HW1 1946   2.818   4.688   0.981 -1.7725 -2.9166 -1.0002
  349SOL    HW2 1947   2.805   4.677   1.143 -0.2865 -2.9262 -0.8750
  350SOL     OW 1948   6.862   3.963   0.040 -0.3836  0.5068  0.1162
  350SOL    HW1 1949   6.872   3.897  -0.034  0.4909  1.9362 -1.0747
  350SOL    HW2 1950   6.825   4.049   0.005  0.4036  1.3457  1.2488
  351SOL     OW 1951   2.602   1.964   6.961 -0.1836 -0.5407  0.2485
  351SOL    HW1 1952   2.631   1.892   6.898  0.2818 -0.8972  0.8536
  351SOL    HW2 1953   2.562   1.923   7.043 -2.0864 -0.0680 -0.3839
  352SOL     OW 1954   2.847   2.299   0.309 -0.2955  0.5459 -0.3897
  352SOL    HW1 1955   2.861   2.203   0.336 -1.3187  0.7756  1.0411
  352SOL    HW2 1956   2.797   2.347   0.381 -0.2953  2.0281 -1.3444
  353SOL     OW 1957   1.518   0.643   6.798  0.1259  0.5789 -0.0499
  353SOL    HW1 1958   1.558   0.552   6.810  0.1375  0.7357  1.3289
  353SOL    HW2 1959   1.420   0.634   6.781  0.3884  0.2679 -1.5369
  354SOL     OW 1960   4.858   0.142   1.780  0.3643 -0.4441 -0.5623
  354SOL    HW1 1961   4.933   0.182   1.727  1.1521 -0.2018  0.7114
  354SOL    HW2 1962   4.777   0.199   1.770  1.5528  1.7898  1.4847
  355SOL     OW 1963   5.538   1.186   5.058 -0.9872 -0.9542 -0.0438
  355SOL    HW1 1964   5.512   1.154   5.149  0.5769 -0.8279  0.4734
  355SOL    HW2 1965   5.490   1.133   4.989 -3.6574  0.1743  0.8175
  356SOL     OW 1966   3.323   1.448   3.476 -0.1023  0.3755 -0.0648
  356SOL    HW1 1967   3.234   1.404   3.491  0.6714 -1.4954 -0.6497
  356SOL    HW2 1968   3.337   1.464   3.378  1.5751 -2.5911 -0.4188
  357SOL     OW 1969   1.634   4.271   4.207 -0.3442 -0.2094  0.0050
  357SOL    HW1 1970   1.668   4.185   4.170 -0.9071 -0.6997  0.6005
  357SOL    HW2 1971   1.653   4.345   4.142  0.8479 -0.6391 -0.1602
  358SOL     OW 1972   4.261   6.279   3.455  0.0115  0.2660 -0.1936
  358SOL    HW1 1973   4.211   6.214   3.398  1.1874 -0.0817 -0.8706
  358SOL    HW2 1974   4.303   6.349   3.396 -0.5037  1.1332  0.4495
  359SOL     OW 1975   6.725   1.785   0.306 -0.0513  0.2033 -0.0696
  359SOL    HW1 1976   6.784   1.755   0.231  0.5283  1.0042  0.0502
  359SOL    HW2 1977   6.665   1.859   0.274 -1.2098 -0.7983 -0.2675
  360SOL     OW 1978   5.215   0.523   5.000 -0.4764 -0.4731 -0.0720
  360SOL    HW1 1979   5.297   0.465   4.997 -0.3505 -0.2967 -0.0535
  360SOL    HW2 1980   5.210   0.569   5.089 -0.8972 -0.9179  0.1358
  361SOL     OW 1981   3.951   0.914   2.030  0.0200  0.1728 -0.3542
  361SOL    HW1 1982   3.938   0.947   1.937 -0.1340 -1.2644 -0.8638
  361SOL    HW2 1983   3.902   0.974   2.094 -0.0786  1.0254 -1.2067
  362SOL     OW 1984   2.317   5.387   0.683  0.0750  0.2123  0.3914
  362SOL    HW1 1985   2.264   5.471   0.674  0.0318  0.0938 -0.6280
  362SOL    HW2 1986   2.304   5.330   0.602 -0.1648 -0.9444  1.2106
  363SOL     OW 1987   5.861   3.888   3.505 -0.8897 -0.1270  0.0647
  363SOL    HW1 1988   5.863   3.979   3.462 -1.2647  0.3783  1.0841
  363SOL    HW2 1989   5.813   3.894   3.592 -0.4107 -1.1959  0.4108
  364SOL     OW 1990   1.797   6.441   4.188 -0.4965  0.5553  0.2250
  364SOL    HW1 1991   1.859   6.452   4.266 -1.3135  0.9946  0.8343
  364SOL    HW2 1992   1.784   6.529   4.143  0.3508  0.2138 -0.7270
  365SOL     OW 1993   4.186   6.735   2.171  0.1208 -0.1997  0.0580
  365SOL    HW1 1994   4.193   6.692   2.261  0.0105 -0.4208 -0.0396
  365SOL    HW2 1995   4.257   6.806   2.163 -0.2120  0.1902  0.5167
  366SOL     OW 1996   4.938   1.281   6.861  0.1934 -0.4010 -0.1275
  366SOL    HW1 1997   4.923   1.223   6.941  0.5352 -0.8048 -0.3488
  366SOL    HW2 1998   4.947   1.224   6.779  1.7101 -0.1306 -0.1794
  367SOL     OW 1999   6.660   2.701   0.841  0.5049 -0.3198 -0.2920
  367SOL    HW1 2000   6.624   2.607   0.834 -2.3669  0.4051  2.3806
  367SOL    HW2 2001   6.725   2.706   0.917 -0.4947  0.0990  0.5583
  368SOL     OW 2002   5.334   6.374   5.089  0.2419  0.0840 -0.2641
  368SOL    HW1 2003   5.374   6.303   5.030  0.4791  0.5023 -0.6191
  368SOL    HW2 2004   5.296   6.332   5.171  1.0573 -0.3780 -0.1051
  369SOL     OW 2005   1.138   2.984   2.069 -0.0365  0.7815 -0.0950
  369SOL    HW1 2006   1.176   3.074   2.049  3.0842  0.2023  2.4509
  369SOL    HW2 2007   1.155   2.960   2.165 -0.1231 -2.7849 -0.8086
  370SOL     OW 2008   3.843   2.949   6.954  0.3929 -0.1907  0.0679
  370SOL    HW1 2009   3.747   2.973   6.969  0.7820  0.6776  1.3623
  370SOL    HW2 2010   3.850   2.883   6.880 -1.1202  0.4379 -0.6749
  371SOL     OW 2011   2.879   3.334   0.230  0.0073 -0.0070 -0.3352
  371SOL    HW1 2012   2.946   3.272   0.189  0.8694 -0.0969  1.1264
  371SOL    HW2 2013   2.797   3.338   0.173  0.9630 -0.4715 -1.7822
  372SOL     OW 2014   1.040   4.926   0.852 -0.0118  0.5444 -0.1880
  372SOL    HW1 2015   1.099   4.935   0.772  1.2150  0.9295  0.7475
  372SOL    HW2 2016   1.035   4.830   0.879  1.4571  0.6917  0.6613
  373SOL     OW 2017   0.249   6.513   2.987 -0.2704 -0.4114 -0.1012
  373SOL    HW1 2018   0.332   6.515   3.043 -0.2673 -0.0224 -0.1210
  373SOL    HW2 2019   0.169   6.515   3.046 -0.2679 -0.3718 -0.0997
  374SOL     OW 2020   3.092   1.140   2.071  0.3023  0.0778 -0.2077
  374SOL    HW1 2021   3.124   1.228   2.107  1.1207 -0.9091  1.5956
  374SOL    HW2 2022   3.158   1.068   2.096 -1.0999 -1.2929 -0.3305
  375SOL     OW 2023   6.799   4.215   3.120  0.7439 -1.1946  0.4309
  375SOL    HW1 2024   6.783   4.162   3.203  1.1686 -1.3386  0.4223
  375SOL    HW2 2025   6.870   4.171   3.066  1.4449 -0.3642  0.6580
  376SOL     OW 2026   1.350   5.748   6.916  0.7162  0.0383  0.4291
  376SOL    HW1 2027   1.351   5.721   6.820 -0.4280 -0.3041  0.4972
  376SOL    HW2 2028   1.269   5.710   6.961  0.9208  0.6869  1.3844
  377SOL     OW 2029   3.948   0.014   2.713 -0.1100  0.1134 -0.3210
  377SOL    HW1 2030   3.891   0.044   2.789  0.2180  0.0618 -0.0506
  377SOL    HW2 2031   3.984   0.093   2.664  2.2002  0.2884  1.4597
  378SOL     OW 2032   0.170   4.301   6.434  0.2771  0.3746 -0.8555
  378SOL    HW1 2033   0.116   4.293   6.351 -0.0818  0.9100 -0.6791
  378SOL    HW2 2034   0.188   4.397   6.453  2.3706  0.1819 -1.5941
  379SOL     OW 2035   6.918   3.859   0.804  0.1716 -0.0600 -1.1662
  379SOL    HW1 2036   7.011   3.849   0.840  0.1291  2.4795 -0.1386
  379SOL    HW2 2037   6.919   3.844   0.705  1.4755 -1.0010 -1.0386
  380SOL     OW 2038   6.985   2.963   0.614  0.5609 -0.0396 -0.0958
  380SOL    HW1 2039   7.062   3.024   0.593 -0.3225  1.1101 -0.1196
  380SOL    HW2 2040   6.919   3.012   0.672 -0.5082 -0.7500 -0.6858
  381SOL     OW 2041   5.166   3.920   6.837  0.0658 -0.7389  0.5934
  381SOL    HW1 2042   5.233   3.993   6.821 -2.5693  1.3459 -2.1268
  381SOL    HW2 2043   5.087   3.957   6.887 -0.5638 -2.2024  0.7213
  382SOL     OW 2044   1.951   6.108   5.931 -0.5654 -0.6657 -0.2508
  382SOL    HW1 2045   1.893   6.036   5.893 -1.8014 -0.2649  0.7674
  382SOL    HW2 2046   2.036   6.069   5.965 -1.2411 -1.6760  0.3288
  383SOL     OW 2047   6.295   1.761   4.974 -0.3113  0.2108 -0.2499
  383SOL    HW1 2048   6.313   1.716   4.886 -0.6396  1.9198 -1.2403
  383SOL    HW2 2049   6.370   1.742   5.037 -0.1531 -1.1965 -0.8355
  384SOL     OW 2050   0.486   3.864   4.521  0.0397  0.5631  0.0271
  384SOL    HW1 2051   0.537   3.949   4.512 -0.7511  1.1109  0.5710
  384SOL    HW2 2052   0.463   3.829   4.430  0.9714  0.5458 -0.2114
  385SOL     OW 2053   3.825   4.836   2.385  0.2882 -0.0386 -0.3114
  385SOL    HW1 2054   3.800   4.891   2.305  0.9268  1.8501  0.7093
  385SOL    HW2 2055   3.750   4.838   2.451  0.3080 -0.4345 -0.2735
  386SOL     OW 2056   2.473   6.141   3.693  0.4652 -0.3563  0.4319
  386SOL    HW1 2057   2.426   6.062   3.732  0.4098 -0.9388 -0.7502
  386SOL    HW2 2058   2.517   6.114   3.607 -1.6864  1.4521 -1.3534
  387SOL     OW 2059   6.772   5.744   5.808 -0.2205 -0.0675  0.5466
  387SOL    HW1 2060   6.742   5.649   5.809 -2.2870  0.5031  3.2759
  387SOL    HW2 2061   6.857   5.753   5.861 -0.4334 -0.2748  0.9225
  388SOL     OW 2062   5.805   1.452   6.208  0.0542  0.0138 -0.6008
  388SOL    HW1 2063   5.807   1.480   6.304  0.6949  1.8549 -1.1160
  388SOL    HW2 2064   5.865   1.511   6.155 -1.0371 -0.3415 -2.2996
  389SOL     OW 2065   5.401   4.770   1.842  0.9540 -0.3648 -0.0224
  389SOL    HW1 2066   5.325   4.818   1.798  1.2158  0.8232  0.7897
  389SOL    HW2 2067   5.365   4.714   1.917  0.9221  0.6661  0.7530
  390SOL     OW 2068   1.821   1.727   5.736 -0.6421  0.0441 -0.2068
  390SOL    HW1 2069   1.884   1.735   5.813 -1.2905 -1.1638  0.4668
  390SOL    HW2 2070   1.845   1.648   5.680 -1.5996 -0.4966  0.1149
  391SOL     OW 2071   3.867   3.864   3.083 -0.5679  0.1683  0.6707
  391SOL    HW1 2072   3.964   3.849   3.062 -0.4775 -2.1944  2.3455
  391SOL    HW2 2073   3.859   3.937   3.150  0.0436  0.5389  0.3500
  392SOL     OW 2074   1.180   2.640   3.183  0.0085 -0.0515  0.2400
  392SOL    HW1 2075   1.222   2.667   3.097  0.6063 -0.9115  0.2440
  392SOL    HW2 2076   1.140   2.548   3.174  1.9819 -1.0943  1.4600
  393SOL     OW 2077   1.490   6.501   1.320 -0.1187 -0.4284  0.5845
  393SOL    HW1 2078   1.427   6.573   1.291  0.5983 -0.5761 -1.5165
  393SOL    HW2 2079   1.438   6.419   1.344 -0.8521  0.2946  1.5806
  394SOL     OW 2080   5.943   2.679   5.487 -0.0831 -0.1999  0.4686
  394SOL    HW1 2081   5.882   2.675   5.567 -1.5519  3.2391 -0.2937
  394SOL    HW2 2082   5.892   2.650   5.406  0.9959 -2.3468  0.4899
  395SOL     OW 2083   0.972   3.860   0.315 -0.2268 -0.2747  0.0302
  395SOL    HW1 2084   0.908   3.881   0.389 -0.5758 -0.8430 -0.1035
  395SOL    HW2 2085   0.949   3.916   0.235 -0.4342 -0.3347  0.0462
  396SOL     OW 2086   5.912   2.785   2.048  0.3183  0.0833 -0.3923
  396SOL    HW1 2087   5.866   2.833   1.974 -0.6798 -0.0480  0.1292
  396SOL    HW2 2088   5.943   2.851   2.116 -2.0430 -0.0378  0.8788
  397SOL     OW 2089   4.964   2.725   4.209 -0.1837 -0.0360 -0.5586
  397SOL    HW1 2090   5.055   2.703   4.245 -0.3252 -1.2580 -0.8981
  397SOL    HW2 2091   4.907   2.762   4.281  0.4962  0.4743 -0.2728
  398SOL     OW 2092   6.265   2.332   2.905 -0.1742  0.0436 -0.5205
  398SOL    HW1 2093   6.262   2.240   2.945 -0.4313  0.1624 -0.2588
  398SOL    HW2 2094   6.334   2.387   2.954 -1.3707  0.5781  0.6343
  399SOL     OW 2095   4.121   4.840   4.848 -0.2715 -0.4172  0.2085
  399SOL    HW1 2096   4.023   4.826   4.834 -0.3555 -0.1467  0.5300
  399SOL    HW2 2097   4.172   4.772   4.795 -0.6015  0.0743 -0.7659
  400SOL     OW 2098   0.856   6.754   4.174 -0.1624  0.1673  0.1571
  400SOL    HW1 2099   0.871   6.721   4.267  1.9014 -0.4999 -0.3571
  400SOL    HW2 2100   0.888   6.685   4.108  0.9581  1.7139 -0.9985
  401SOL     OW 2101   0.890   5.571   6.500  0.3440  0.1140 -0.1090
  401SOL    HW1 2102   0.874   5.658   6.454  0.0447  0.5097  0.7240
  401SOL    HW2 2103   0.899   5.498   6.432 -0.2072  0.6616 -0.7758
  402SOL     OW 2104   6.258   2.379   4.992  0.6688 -0.3117  0.3807
  402SOL    HW1 2105   6.167   2.340   5.007  1.3764 -1.3149  2.4166
  402SOL    HW2 2106   6.324   2.334   5.052  2.2286  1.5221  0.1388
  403SOL     OW 2107   2.699   0.100   2.145  0.0187 -0.5269  0.1441
  403SOL    HW1 2108   2.781   0.157   2.143 -0.4761  0.3499  2.2651
  403SOL    HW2 2109   2.625   0.150   2.189 -0.8710 -2.2694  0.7147
  404SOL     OW 2110   4.355   4.951   2.387 -0.0576  0.1061 -0.5899
  404SOL    HW1 2111   4.358   4.999   2.475 -0.5008 -0.8982  0.0000
  404SOL    HW2 2112   4.391   5.010   2.315 -1.5682  1.7276 -0.0858
  405SOL     OW 2113   2.624   4.595   2.417 -0.5079 -0.1399  0.5626
  405SOL    HW1 2114   2.621   4.581   2.516  0.3078  2.3030  0.9972
  405SOL    HW2 2115   2.702   4.652   2.394 -0.3006 -1.1888 -1.6115
  406SOL     OW 2116   6.968   0.989   2.487 -0.1311 -0.6199 -0.3265
  406SOL    HW1 2117   6.940   1.022   2.578  1.1987  1.3854 -0.5776
  406SOL    HW2 2118   7.036   0.916   2.498  0.1381 -0.2854  0.3088
  407SOL     OW 2119   4.735   4.784   4.243  0.1988 -0.2921 -0.2803
  407SOL    HW1 2120   4.803   4.723   4.284  0.5844  0.6016  0.4509
  407SOL    HW2 2121   4.782   4.854   4.189 -0.2027 -0.2964 -0.6335
  408SOL     OW 2122   3.231   0.678   1.213  0.3313  0.2398 -0.4211
  408SOL    HW1 2123   3.178   0.600   1.178 -1.0271  1.6769 -1.7167
  408SOL    HW2 2124   3.226   0.679   1.313 -0.4053 -0.8092 -0.4273
  409SOL     OW 2125   4.236   0.734   0.709  0.2742  0.1412 -0.1243
  409SOL    HW1 2126   4.190   0.809   0.755  0.0887 -0.6053  0.9439
  409SOL    HW2 2127   4.311   0.769   0.653 -1.2142  1.3311 -1.4788
  410SOL     OW 2128   1.439   3.347   5.166 -0.3094 -0.0322 -0.5056
  410SOL    HW1 2129   1.358   3.399   5.139 -0.7663 -0.2196  0.4402
  410SOL    HW2 2130   1.456   3.275   5.100 -0.0329  0.9220 -1.5090
  411SOL     OW 2131   6.150   2.312   3.886  0.0345  0.1820 -0.4200
  411SOL    HW1 2132   6.071   2.371   3.898 -0.5250 -0.2825 -1.5959
  411SOL    HW2 2133   6.159   2.288   3.789  0.9680 -0.6574 -0.1446
  412SOL     OW 2134   2.645   6.604   2.104 -0.1229  0.2689 -0.2680
  412SOL    HW1 2135   2.573   6.536   2.117 -0.9736  1.5490  2.4226
  412SOL    HW2 2136   2.606   6.696   2.114  1.6579  1.0389 -0.0414
  413SOL     OW 2137   0.327   5.658   2.450 -0.6864  0.3807 -0.0344
  413SOL    HW1 2138   0.352   5.637   2.545 -0.9997 -0.1772 -0.0686
  413SOL    HW2 2139   0.236   5.621   2.431 -0.6928  0.6337 -0.5048
  414SOL     OW 2140   0.886   6.492   1.519  0.3605  0.3153  0.2837
  414SOL    HW1 2141   0.908   6.526   1.611  1.4322  2.8108 -0.8066
  414SOL    HW2 2142   0.788   6.501   1.502  0.1241 -0.3391  1.2141
  415SOL     OW 2143   4.818   0.631   2.713  0.3737  0.1537  0.3106
  415SOL    HW1 2144   4.890   0.574   2.676 -0.1812 -0.4888  0.2036
  415SOL    HW2 2145   4.817   0.719   2.666  0.2729 -0.3048 -0.5541
  416SOL     OW 2146   4.821   2.647   5.791  0.4914  0.2599  0.6152
  416SOL    HW1 2147   4.800   2.575   5.725  1.2426  0.1569  0.4735
  416SOL    HW2 2148   4.739   2.672   5.841 -0.5191  1.5140 -1.5302
  417SOL     OW 2149   3.396   2.180   5.270  0.0942 -0.2942 -0.3664
  417SOL    HW1 2150   3.332   2.253   5.249 -1.0504 -1.4018 -0.8624
  417SOL    HW2 2151   3.470   2.180   5.203 -1.0796 -0.9418 -1.6927
  418SOL     OW 2152   4.487   0.002   0.869 -0.3223  0.1198  0.5238
  418SOL    HW1 2153   4.577  -0.034   0.842 -0.8181 -1.0053  0.2925
  418SOL    HW2 2154   4.491   0.102   0.874  1.0133  0.0738  0.8037
  419SOL     OW 2155   5.602   1.086   5.970 -0.1936 -0.6095 -0.2644
  419SOL    HW1 2156   5.530   1.082   5.901  0.4816 -3.1483 -0.9274
  419SOL    HW2 2157   5.692   1.079   5.926  0.4410  1.1593  0.6539
  420SOL     OW 2158   3.100   5.504   6.591  0.5403 -0.2170  0.0096
  420SOL    HW1 2159   3.195   5.513   6.561 -0.1330  0.4012 -2.0956
  420SOL    HW2 2160   3.051   5.590   6.574 -0.6914 -0.9084 -0.0731
  421SOL     OW 2161   6.030   5.349   3.688 -0.6557  0.7743 -0.2633
  421SOL    HW1 2162   6.124   5.315   3.690 -1.4547 -1.6031  1.6106
  421SOL    HW2 2163   5.971   5.284   3.640 -1.4754  1.9139 -0.8444
  422SOL     OW 2164   3.660   1.499   2.861  0.1810 -0.2139 -0.2332
  422SOL    HW1 2165   3.590   1.549   2.912 -0.0500  0.0573 -0.8142
  422SOL    HW2 2166   3.740   1.484   2.920  0.0321  0.3563  0.1148
  423SOL     OW 2167   3.761   0.940   0.196  0.6528  0.3661 -0.3796
  423SOL    HW1 2168   3.797   0.868   0.255  1.1823  0.8045 -0.1696
  423SOL    HW2 2169   3.672   0.970   0.231  0.4198 -0.1942 -0.4778
  424SOL     OW 2170   1.009   5.142   4.266 -0.0814 -0.2121 -0.0066
  424SOL    HW1 2171   1.089   5.095   4.229 -1.6115 -2.3223 -0.8716
  424SOL    HW2 2172   1.005   5.235   4.229  1.7451 -0.1860 -0.2291
  425SOL     OW 2173   1.965   1.045   5.656 -0.3836  0.2994  0.2598
  425SOL    HW1 2174   2.045   1.089   5.698  0.1536 -0.6533  0.2477
  425SOL    HW2 2175   1.891   1.041   5.722  0.1649 -0.3866  0.8501
  426SOL     OW 2176   3.886   2.124   3.253 -0.3892 -0.3962  0.4199
  426SOL    HW1 2177   3.798   2.105   3.210 -0.2444  0.7927 -0.4437
  426SOL    HW2 2178   3.872   2.150   3.348 -1.2469  2.1382 -0.3305
  427SOL     OW 2179   5.326   1.828   3.958 -0.2582  0.5121 -0.0029
  427SOL    HW1 2180   5.309   1.822   4.057 -2.4698  2.3458 -0.1985
  427SOL    HW2 2181   5.391   1.902   3.940  1.3477 -0.8034  0.1181
  428SOL     OW 2182   1.782   0.920   5.468  0.0556 -0.3242  0.5745
  428SOL    HW1 2183   1.816   0.833   5.433  0.5925 -0.5407  1.5779
  428SOL    HW2 2184   1.859   0.973   5.505 -0.3448  0.3360  0.4638
  429SOL     OW 2185   0.365   0.796   3.788 -0.5217  0.1399 -0.1458
  429SOL    HW1 2186   0.431   0.810   3.862 -1.5736  1.2636  0.6256
  429SOL    HW2 2187   0.299   0.727   3.816 -1.2713  0.9924  0.2379
  430SOL     OW 2188   0.921   0.131   4.312 -0.1410  0.0611  0.2383
  430SOL    HW1 2189   0.930   0.069   4.234 -0.2653  0.2877  0.0438
  430SOL    HW2 2190   0.832   0.177   4.308 -0.7619 -0.9942  1.2909
  431SOL     OW 2191   3.247   2.016   1.774 -0.2628  0.4990  0.3116
  431SOL    HW1 2192   3.305   2.025   1.855 -0.8241  0.5923  0.7138
  431SOL    HW2 2193   3.217   2.106   1.744 -0.6690  0.4135  0.4577
  432SOL     OW 2194   5.330   1.389   4.209  0.2176 -0.4755  0.0502
  432SOL    HW1 2195   5.246   1.384   4.155  0.7837  2.1199 -1.2094
  432SOL    HW2 2196   5.312   1.435   4.296  0.3478  0.2596 -0.3048
  433SOL     OW 2197   1.778   4.215   5.360  0.3273 -0.0103 -0.0888
  433SOL    HW1 2198   1.707   4.148   5.338 -0.3948  0.7126  0.0231
  433SOL    HW2 2199   1.774   4.290   5.294  0.9307  0.0844 -0.0197
  434SOL     OW 2200   3.465   4.953   3.789 -0.6166  0.2505  0.1778
  434SOL    HW1 2201   3.387   4.902   3.753 -1.7472 -0.1050  2.8568
  434SOL    HW2 2202   3.545   4.937   3.732 -1.7691 -1.8038 -0.9673
  435SOL     OW 2203   2.051   1.978   0.142 -0.1215  0.0345 -0.0257
  435SOL    HW1 2204   2.091   2.018   0.059  0.4831  0.3131  0.3852
  435SOL    HW2 2205   2.076   2.035   0.221  0.5817 -1.0366  0.5453
  436SOL     OW 2206   0.811   5.473   2.781 -0.0207  0.6193  0.5306
  436SOL    HW1 2207   0.846   5.555   2.825  1.3823 -0.8714  2.3928
  436SOL    HW2 2208   0.725   5.445   2.825  0.0392  0.5360  0.5959
  437SOL     OW 2209   4.764   2.241   6.600 -0.0228 -0.1423 -0.4559
  437SOL    HW1 2210   4.717   2.263   6.515 -0.2905 -1.2469 -0.6084
  437SOL    HW2 2211   4.826   2.164   6.586  0.4790  0.1312  0.1778
  438SOL     OW 2212   0.545   1.867   0.559 -0.6889 -0.0571 -0.4251
  438SOL    HW1 2213   0.449   1.879   0.533 -0.4458 -0.5946 -1.6518
  438SOL    HW2 2214   0.565   1.922   0.640 -1.8215  0.6913 -0.6318
  439SOL     OW 2215   1.195   1.089   5.108 -0.0625  0.1160  0.3580
  439SOL    HW1 2216   1.277   1.137   5.139  0.7303 -0.5780 -0.6000
  439SOL    HW2 2217   1.200   1.074   5.009 -1.4087  0.1583  0.2577
  440SOL     OW 2218   4.157   2.320   2.693  0.7812 -0.0231 -0.4643
  440SOL    HW1 2219   4.108   2.326   2.780  1.9243 -0.9562  0.2692
  440SOL    HW2 2220   4.105   2.262   2.630 -0.7070  1.6805 -0.9188
  441SOL     OW 2221   2.105   1.739   3.396  0.5838  0.0387 -0.5786
  441SOL    HW1 2222   2.091   1.690   3.310 -0.2032 -1.7655  0.5161
  441SOL    HW2 2223   2.199   1.728   3.427  0.3449 -1.0173 -0.2148
  442SOL     OW 2224   4.259   3.615   5.642 -0.0505 -0.7506  0.1605
  442SOL    HW1 2225   4.270   3.610   5.542  0.6124 -0.3554  0.2080
  442SOL    HW2 2226   4.163   3.602   5.665  0.1381 -3.5700 -0.3210
  443SOL     OW 2227   5.193   3.691   3.401 -0.3448  0.3665  0.2843
  443SOL    HW1 2228   5.222   3.698   3.497  0.4879  3.2833 -0.0982
  443SOL    HW2 2229   5.097   3.719   3.394 -1.0944 -1.9371  0.4883
  444SOL     OW 2230   4.279   3.354   1.559 -0.4944 -0.0016  0.4903
  444SOL    HW1 2231   4.336   3.330   1.637 -0.4396  1.4789  0.9398
  444SOL    HW2 2232   4.186   3.374   1.590 -1.6206 -3.2894 -0.3379
  445SOL     OW 2233   3.469   5.899   5.827  0.2068  0.0615 -0.1674
  445SOL    HW1 2234   3.477   5.861   5.735  0.2820 -0.5488  0.0901
  445SOL    HW2 2235   3.484   5.827   5.895 -0.2433  0.4267  0.3255
  446SOL     OW 2236   6.292   0.467   0.274  0.1615 -0.3641 -0.7826
  446SOL    HW1 2237   6.302   0.560   0.239  1.1617 -0.8181 -1.7845
  446SOL    HW2 2238   6.257   0.408   0.201  2.4630 -1.3772 -1.1519
  447SOL     OW 2239   6.440   5.280   0.857 -0.6960 -0.6467 -0.6125
  447SOL    HW1 2240   6.481   5.347   0.794 -0.2302  0.3147  0.6787
  447SOL    HW2 2241   6.343   5.299   0.868 -0.7379 -0.6991 -0.8718
  448SOL     OW 2242   4.120   0.512   4.430  0.2300  0.6090 -0.1053
  448SOL    HW1 2243   4.057   0.554   4.496  0.4736  1.0491 -0.1503
  448SOL    HW2 2244   4.137   0.575   4.355 -0.0439  0.1066 -0.5980
  449SOL     OW 2245   5.661   6.151   5.396 -0.7508 -0.1546 -0.5921
  449SOL    HW1 2246   5.598   6.103   5.335 -1.4097  0.4288 -0.3781
  449SOL    HW2 2247   5.728   6.086   5.432 -2.5774 -1.2773  0.9277
  450SOL     OW 2248   6.690   3.400   4.486 -0.4871  0.6470 -0.1727
  450SOL    HW1 2249   6.761   3.397   4.556  0.8235  1.3817 -1.4162
  450SOL    HW2 2250   6.615   3.339   4.511 -0.4216  1.4428  2.2321
  451SOL     OW 2251   1.821   1.505   5.590  0.0102 -0.4259 -0.5053
  451SOL    HW1 2252   1.884   1.469   5.522 -0.4696 -0.6526 -0.8411
  451SOL    HW2 2253   1.745   1.441   5.602 -1.3031  0.8123 -1.7297
  452SOL     OW 2254   3.803   4.712   5.868 -0.4121 -0.4390  0.2076
  452SOL    HW1 2255   3.799   4.806   5.834 -1.0767 -0.6575 -0.3592
  452SOL    HW2 2256   3.762   4.708   5.959  0.5165 -0.0114  0.6528
  453SOL     OW 2257   4.695   1.428   2.482 -0.4418 -0.1729  0.0556
  453SOL    HW1 2258   4.605   1.421   2.525 -0.2031  0.2221  0.6213
  453SOL    HW2 2259   4.766   1.407   2.549 -0.0227  1.2729  0.0869
  454SOL     OW 2260   6.949   3.327   5.691  0.7341  0.1067 -0.7840
  454SOL    HW1 2261   6.928   3.412   5.739  2.3457  0.5414 -0.7906
  454SOL    HW2 2262   6.948   3.251   5.756  1.8656  0.5336 -0.2469
  455SOL     OW 2263   7.010   5.070   0.769  0.7290 -0.4148  0.5323
  455SOL    HW1 2264   7.057   5.013   0.702  0.6152  0.9967 -0.7907
  455SOL    HW2 2265   7.017   5.027   0.859  2.8721 -1.2101  0.0519
  456SOL     OW 2266   2.641   1.458   1.789 -0.0460 -0.1026 -0.6187
  456SOL    HW1 2267   2.682   1.429   1.702  2.4580 -0.8015  0.6916
  456SOL    HW2 2268   2.687   1.540   1.822  0.8618 -1.2628  1.2031
  457SOL     OW 2269   3.713   0.329   0.955  0.8061 -0.3879 -0.3828
  457SOL    HW1 2270   3.676   0.353   1.045 -0.9613 -1.0852 -0.8854
  457SOL    HW2 2271   3.805   0.291   0.966  0.4762 -0.8098  1.1668
  458SOL     OW 2272   2.528   1.932   5.368 -0.9038  0.0008 -0.5565
  458SOL    HW1 2273   2.438   1.956   5.332 -0.5550 -1.6903 -2.7896
  458SOL    HW2 2274   2.517   1.885   5.456 -1.8345  3.4969  1.4188
  459SOL     OW 2275   3.945   1.143   3.580  0.0552 -0.3734 -0.0405
  459SOL    HW1 2276   4.039   1.178   3.577  0.4970 -1.5735 -1.2003
  459SOL    HW2 2277   3.885   1.204   3.528  0.7590 -1.0817 -1.7816
  460SOL     OW 2278   0.521   0.997   5.548  0.0836  0.6360 -0.0875
  460SOL    HW1 2279   0.607   0.991   5.496  0.9244  1.3252  1.1807
  460SOL    HW2 2280   0.486   0.905   5.566  2.0176  0.1874  1.7089
  461SOL     OW 2281   1.308   6.245   4.042  0.3943 -0.7499 -0.7766
  461SOL    HW1 2282   1.405   6.233   4.023  0.6301  0.0173 -0.1457
  461SOL    HW2 2283   1.292   6.339   4.072  0.0852 -1.8007  2.8020
  462SOL     OW 2284   3.704   3.639   3.493  0.5949  0.1180 -0.1944
  462SOL    HW1 2285   3.610   3.606   3.481  1.1810 -1.0444 -1.9321
  462SOL    HW2 2286   3.725   3.706   3.422  0.4935  1.8945  1.3651
  463SOL     OW 2287   3.839   6.119   4.132 -0.0428 -0.9652  0.1833
  463SOL    HW1 2288   3.846   6.138   4.034 -1.9153 -0.4669  0.1096
  463SOL    HW2 2289   3.851   6.204   4.183 -0.4859 -0.9707  0.3002
  464SOL     OW 2290   4.952   6.536   6.898 -0.4033 -0.5758 -0.6655
  464SOL    HW1 2291   5.019   6.578   6.837 -0.6201  0.5016 -0.2049
  464SOL    HW2 2292   4.874   6.598   6.908 -0.8065 -1.1681 -0.0666
  465SOL     OW 2293   0.741   5.236   1.823 -0.3616  0.0248 -0.1911
  465SOL    HW1 2294   0.745   5.234   1.724  2.3281 -0.1366 -0.1555
  465SOL    HW2 2295   0.777   5.323   1.856 -0.6130 -0.1799  0.6526
  466SOL     OW 2296   3.679   5.505   3.725 -0.1302 -0.5553 -0.8692
  466SOL    HW1 2297   3.654   5.429   3.665  2.4947 -1.8457 -0.4892
  466SOL    HW2 2298   3.776   5.499   3.748 -0.0971  2.2553  0.1997
  467SOL     OW 2299   7.007   6.451   0.156  0.6534  0.3128  0.6529
  467SOL    HW1 2300   6.940   6.526   0.161  1.4381  1.0712  0.1380
  467SOL    HW2 2301   6.959   6.364   0.154 -0.2788  0.7753  1.6111
  468SOL     OW 2302   1.496   0.189   5.259 -0.2289  0.3573 -0.7425
  468SOL    HW1 2303   1.491   0.106   5.315  0.5854 -0.5962 -2.0393
  468SOL    HW2 2304   1.404   0.227   5.247 -0.9389 -1.6065 -1.9390
  469SOL     OW 2305   5.438   5.349   3.821 -0.4516  0.2404 -0.5247
  469SOL    HW1 2306   5.388   5.354   3.734  0.5155 -2.7358 -1.3915
  469SOL    HW2 2307   5.533   5.376   3.806 -0.7802  1.8599  0.1628
  470SOL     OW 2308   3.798   5.558   1.658  0.3202 -0.4166 -0.4385
  470SOL    HW1 2309   3.831   5.648   1.629  0.9088  0.1512  1.7809
  470SOL    HW2 2310   3.833   5.488   1.596 -0.5743  0.8949 -2.5268
  471SOL     OW 2311   2.579   1.731   4.081 -0.0378 -0.0463  0.1453
  471SOL    HW1 2312   2.638   1.783   4.143 -1.2442  0.8403  0.5888
  471SOL    HW2 2313   2.527   1.794   4.023 -0.5843 -0.7961 -0.1958
  472SOL     OW 2314   4.797   2.199   5.465  0.3013 -0.0934 -0.0933
  472SOL    HW1 2315   4.892   2.195   5.493 -0.2472  0.3681  1.9896
  472SOL    HW2 2316   4.787   2.265   5.390  1.6082 -0.2857 -0.4668
  473SOL     OW 2317   5.286   4.607   0.441  0.0004 -0.6564  0.2035
  473SOL    HW1 2318   5.283   4.693   0.491  0.8680 -0.7448  0.4315
  473SOL    HW2 2319   5.227   4.613   0.360 -0.5678 -0.1367  0.6455
  474SOL     OW 2320   3.934   5.168   4.735 -0.3375 -0.1686 -0.2607
  474SOL    HW1 2321   3.914   5.098   4.666  0.7081 -2.3569  1.4919
  474SOL    HW2 2322   4.027   5.202   4.722 -1.2004  1.7948 -1.7583
  475SOL     OW 2323   5.238   2.837   2.962  0.4372  0.3420 -0.4798
  475SOL    HW1 2324   5.276   2.760   3.013 -0.3099  0.2749 -0.0155
  475SOL    HW2 2325   5.212   2.807   2.870  1.1164  0.2928 -0.6595
  476SOL     OW 2326   0.671   3.980   0.251  0.1883 -0.2190  0.2196
  476SOL    HW1 2327   0.649   3.888   0.219  1.6361 -1.0177  1.3902
  476SOL    HW2 2328   0.698   3.976   0.347  0.7046  1.3659  0.1718
  477SOL     OW 2329   5.253   5.377   5.215  0.3496  0.4841  0.3597
  477SOL    HW1 2330   5.305   5.343   5.293 -1.3062 -1.2922  0.7790
  477SOL    HW2 2331   5.303   5.451   5.171  2.9714 -0.7718  1.0070
  478SOL     OW 2332   4.803   5.904   0.926 -0.0511  0.4197  0.2042
  478SOL    HW1 2333   4.825   6.001   0.938  1.5954  0.2239 -0.9176
  478SOL    HW2 2334   4.826   5.855   1.010 -2.0669  1.1330  1.2431
  479SOL     OW 2335   3.465   3.794   3.377  0.2553 -0.0700  0.4274
  479SOL    HW1 2336   3.515   3.732   3.316  0.2812 -0.9514  1.3375
  479SOL    HW2 2337   3.367   3.773   3.373  0.3861 -1.0340  1.6765
  480SOL     OW 2338   5.861   2.899   1.813  0.2791  0.1044  0.5714
  480SOL    HW1 2339   5.776   2.848   1.797  0.3518 -0.3083  1.4638
  480SOL    HW2 2340   5.846   2.995   1.790 -0.6380  0.1709  1.3736
  481SOL     OW 2341   5.210   0.356   2.131 -0.7088 -0.0888 -0.5453
  481SOL    HW1 2342   5.159   0.333   2.048 -3.1423  0.6776  0.6379
  481SOL    HW2 2343   5.177   0.443   2.167  1.2056  0.2401  0.5441
  482SOL     OW 2344   4.305   5.703   2.703  0.0887 -0.0037 -0.2626
  482SOL    HW1 2345   4.340   5.758   2.627 -0.2923  2.1253  1.0019
  482SOL    HW2 2346   4.362   5.718   2.784 -0.5312 -0.8405  0.3539
  483SOL     OW 2347   6.613   1.693   6.934 -0.2001  0.7122 -0.8176
  483SOL    HW1 2348   6.636   1.598   6.910  2.4926  0.8626  0.7832
  483SOL    HW2 2349   6.541   1.693   7.003  0.0006 -0.1807 -0.5982
  484SOL     OW 2350   2.203   5.545   4.133  0.1058 -0.1485  0.1087
  484SOL    HW1 2351   2.240   5.453   4.146  2.6987  1.0009  1.6335
  484SOL    HW2 2352   2.163   5.578   4.219  3.5585  1.8206  1.1632
  485SOL     OW 2353   5.822   2.568   1.183 -0.1482 -0.4291 -0.2888
  485SOL    HW1 2354   5.887   2.608   1.119 -0.1012 -0.7889 -0.4686
  485SOL    HW2 2355   5.848   2.592   1.276 -0.7049  0.8237 -0.4354
  486SOL     OW 2356   4.237   5.628   4.971  0.7548 -0.1764  0.2882
  486SOL    HW1 2357   4.185   5.553   4.930 -1.3699 -0.3050  2.9286
  486SOL    HW2 2358   4.286   5.595   5.052  1.9631  0.7702 -0.0210
  487SOL     OW 2359   6.324   6.964   6.157 -0.4676  0.6237 -0.4994
  487SOL    HW1 2360   6.331   6.872   6.119 -2.4855  0.1968  0.0494
  487SOL    HW2 2361   6.267   7.021   6.097 -0.3794  1.0974 -0.1409
  488SOL     OW 2362   0.578   6.260   3.359 -0.5663 -0.2789 -0.3194
  488SOL    HW1 2363   0.618   6.334   3.305 -0.2818 -0.4374 -0.3255
  488SOL    HW2 2364   0.642   6.233   3.431 -1.1513  0.2888  0.4381
  489SOL     OW 2365   1.792   3.348   4.490 -0.0528 -0.1557  0.3708
  489SOL    HW1 2366   1.874   3.346   4.548  1.0129  0.0982 -1.0589
  489SOL    HW2 2367   1.761   3.254   4.474  1.8301 -0.5327 -1.5433
  490SOL     OW 2368   1.605   3.925   3.684  0.3351  0.1360 -0.0814
  490SOL    HW1 2369   1.622   3.830   3.712 -1.0237 -0.0842  0.0559
  490SOL    HW2 2370   1.689   3.977   3.693  0.8945 -0.8501  0.6941
  491SOL     OW 2371   6.856   4.367   1.215  0.2911 -0.1642  0.5775
  491SOL    HW1 2372   6.821   4.275   1.234  0.9456 -0.0598  2.5320
  491SOL    HW2 2373   6.840   4.425   1.295  1.5243  0.9188  0.0647
  492SOL     OW 2374   6.913   0.231   6.354 -0.5349 -0.5872 -0.0936
  492SOL    HW1 2375   6.916   0.144   6.403 -1.4089  0.2724  1.6041
  492SOL    HW2 2376   6.834   0.232   6.292 -0.5286 -1.0011 -0.1073
  493SOL     OW 2377   1.421   4.416   2.728  0.0922 -0.4975 -0.1547
  493SOL    HW1 2378   1.428   4.431   2.630 -2.2380  1.3361 -0.1337
  493SOL    HW2 2379   1.470   4.487   2.777  0.7677 -1.0817  0.0361
  494SOL     OW 2380   4.456   0.810   2.247 -0.0154  0.4036  0.1102
  494SOL    HW1 2381   4.427   0.729   2.195  1.5702 -1.3898  1.8612
  494SOL    HW2 2382   4.389   0.883   2.234 -0.2139 -0.2358 -3.5937
  495SOL     OW 2383   2.648   6.797   5.741 -0.4659 -0.6811 -0.1718
  495SOL    HW1 2384   2.646   6.821   5.644 -0.4292  0.2443  0.0413
  495SOL    HW2 2385   2.565   6.747   5.765 -1.0587  0.1585 -0.4265
  496SOL     OW 2386   4.144   6.478   3.161  0.2007 -0.2166  0.3033
  496SOL    HW1 2387   4.063   6.486   3.218  0.2455 -0.1478  0.3575
  496SOL    HW2 2388   4.138   6.542   3.084  0.3283 -0.0178  0.4581
  497SOL     OW 2389   3.257   6.629   1.815  0.1473 -0.4349  0.3662
  497SOL    HW1 2390   3.221   6.624   1.909  1.0959 -0.8084  0.7215
  497SOL    HW2 2391   3.249   6.539   1.772 -0.4843 -0.2113  0.0055
  498SOL     OW 2392   2.150   5.991   0.653 -0.0284  0.6857  0.3423
  498SOL    HW1 2393   2.183   5.924   0.719  2.2905  2.3310  0.9801
  498SOL    HW2 2394   2.149   5.950   0.561 -1.4567 -1.0342  1.0620
  499SOL     OW 2395   3.552   6.772   4.781 -0.2401  0.0163  0.3068
  499SOL    HW1 2396   3.555   6.702   4.710  2.1184  0.9228 -0.6133
  499SOL    HW2 2397   3.544   6.729   4.871  0.2913 -1.3864 -0.2866
  500SOL     OW 2398   5.616   1.762   6.276 -0.1868  0.1797  0.1936
  500SOL    HW1 2399   5.551   1.717   6.337  0.2203 -1.5183 -0.5615
  500SOL    HW2 2400   5.587   1.748   6.181 -0.0564  1.5755 -0.0790
  501SOL     OW 2401   1.429   6.024   4.976  0.2123 -0.0463  0.5536
  501SOL    HW1 2402   1.472   6.101   4.930  2.9683 -0.4496  2.2048
  501SOL    HW2 2403   1.396   6.052   5.065  0.2267 -0.5161  0.7104
  502SOL     OW 2404   2.648   1.666   6.060 -0.1165 -0.0816  0.0439
  502SOL    HW1 2405   2.574   1.727   6.031 -0.1887 -0.4566 -0.5698
  502SOL    HW2 2406   2.730   1.685   6.006  0.0829 -0.0245  0.3639
  503SOL     OW 2407   3.742   5.260   3.102 -0.1592  0.0608  0.1358
  503SOL    HW1 2408   3.755   5.200   3.022 -1.3480  1.2263 -0.9925
  503SOL    HW2 2409   3.828   5.270   3.151  1.1875  0.9800 -2.2412
  504SOL     OW 2410   5.138   4.625   5.709  0.5368 -0.2629  0.0987
  504SOL    HW1 2411   5.056   4.570   5.722  1.7672 -2.1537  0.2581
  504SOL    HW2 2412   5.132   4.708   5.765 -1.2671 -0.3095  0.0233
  505SOL     OW 2413   0.767   4.195   6.070 -0.6481  0.0048  0.3256
  505SOL    HW1 2414   0.778   4.096   6.079 -0.8427  0.0394  1.0476
  505SOL    HW2 2415   0.844   4.242   6.114  0.6644  0.1760 -2.0188
  506SOL     OW 2416   5.065   6.238   3.028  0.2465  0.0776  0.4873
  506SOL    HW1 2417   5.031   6.144   3.022 -0.6687  0.3818  0.6990
  506SOL    HW2 2418   5.161   6.238   3.056  1.1236 -0.9016 -2.2821
  507SOL     OW 2419   2.049   6.580   2.267 -0.7910  0.4651  0.6237
  507SOL    HW1 2420   2.051   6.482   2.248  0.3426  0.2285  1.7765
  507SOL    HW2 2421   2.015   6.596   2.360  1.0545  0.9761  1.2550
  508SOL     OW 2422   1.902   5.139   2.321  0.3312 -0.6117 -0.1081
  508SOL    HW1 2423   1.829   5.119   2.256 -0.3818  0.3332  0.3796
  508SOL    HW2 2424   1.874   5.112   2.413 -0.1089  1.2489  0.3481
  509SOL     OW 2425   5.131   0.663   6.422  0.1156 -0.4798  0.2912
  509SOL    HW1 2426   5.062   0.695   6.487 -0.8657 -0.3034 -0.7985
  509SOL    HW2 2427   5.223   0.677   6.460 -0.4197  0.0183  1.4347
  510SOL     OW 2428   6.017   4.423   0.433  0.4748  0.1055 -0.1699
  510SOL    HW1 2429   6.023   4.365   0.351  1.6398  1.1760 -0.8787
  510SOL    HW2 2430   6.093   4.401   0.494 -1.0994 -1.5886  1.2902
  511SOL     OW 2431   6.522   3.526   2.217 -0.5899 -0.0141 -0.7489
  511SOL    HW1 2432   6.596   3.590   2.197 -1.3417 -0.1166 -4.5969
  511SOL    HW2 2433   6.556   3.432   2.207 -0.9328 -0.0744 -1.4212
  512SOL     OW 2434   2.666   6.778   3.671 -0.1998  0.0432  0.1877
  512SOL    HW1 2435   2.642   6.716   3.595  0.4922 -0.1147  0.0950
  512SOL    HW2 2436   2.729   6.848   3.637  0.2212 -0.1111  0.6506
  513SOL     OW 2437   5.871   5.538   3.829  0.0961  0.1043 -0.6181
  513SOL    HW1 2438   5.945   5.492   3.780  0.3792  0.0209 -0.1090
  513SOL    HW2 2439   5.882   5.637   3.821 -1.4792  0.1884 -3.2341
  514SOL     OW 2440   2.890   0.766   5.243  0.4466 -0.1811  0.2152
  514SOL    HW1 2441   2.909   0.857   5.279 -2.7440  1.2796 -1.3729
  514SOL    HW2 2442   2.823   0.721   5.303 -2.0322  0.7769 -1.6485
  515SOL     OW 2443   2.948   6.833   5.833  0.0942 -0.1070 -0.3932
  515SOL    HW1 2444   2.945   6.760   5.902 -1.4542  0.1902 -0.1047
  515SOL    HW2 2445   2.858   6.842   5.791  0.1208  1.9828 -0.0672
  516SOL     OW 2446   0.445   0.242   2.830 -0.2079  0.5494 -0.0942
  516SOL    HW1 2447   0.533   0.253   2.783  0.6253  1.8682  1.6962
  516SOL    HW2 2448   0.459   0.248   2.928 -2.3663  1.0420  0.2157
  517SOL     OW 2449   3.184   5.374   5.474 -0.0113 -0.5641 -0.2426
  517SOL    HW1 2450   3.253   5.357   5.404  0.7695 -0.6510  0.5305
  517SOL    HW2 2451   3.131   5.291   5.490 -0.7844 -0.3146 -1.3217
  518SOL     OW 2452   0.630   0.270   4.458 -0.1402 -0.6046 -0.1065
  518SOL    HW1 2453   0.704   0.279   4.526  1.0530 -2.6266 -1.0217
  518SOL    HW2 2454   0.577   0.354   4.455  2.6885  1.3097 -0.0506
  519SOL     OW 2455   1.368   0.254   5.530 -0.3538  0.2116  0.0782
  519SOL    HW1 2456   1.464   0.229   5.520 -0.5541 -1.5909  1.9808
  519SOL    HW2 2457   1.321   0.242   5.442  0.9689  0.4234 -0.6901
  520SOL     OW 2458   2.735   6.174   5.635  0.1166  0.0858  0.5772
  520SOL    HW1 2459   2.666   6.130   5.577  0.7108 -0.5013  0.2940
  520SOL    HW2 2460   2.705   6.173   5.730 -1.0003  1.3098  0.2663
  521SOL     OW 2461   0.262   6.762   5.198  0.1179 -0.2260  0.2227
  521SOL    HW1 2462   0.207   6.784   5.279 -3.0920 -0.0439 -1.8524
  521SOL    HW2 2463   0.265   6.840   5.137  1.3058 -0.8148 -0.5198
  522SOL     OW 2464   2.220   4.947   5.022 -0.6527  0.2462 -0.5533
  522SOL    HW1 2465   2.259   5.031   5.058 -0.2529  0.1824 -0.8382
  522SOL    HW2 2466   2.140   4.921   5.076  1.0239 -0.8909  1.5306
  523SOL     OW 2467   1.546   5.766   4.919  0.4375  0.6559  0.0755
  523SOL    HW1 2468   1.596   5.779   4.833  0.0751  1.5226 -0.0104
  523SOL    HW2 2469   1.517   5.854   4.954 -0.8581  0.1876  0.2374
  524SOL     OW 2470   5.249   2.756   2.689  0.8866 -0.3656  0.7954
  524SOL    HW1 2471   5.158   2.716   2.700  0.3632  0.6114  0.1371
  524SOL    HW2 2472   5.245   2.831   2.623  2.2082 -0.4164  0.6262
  525SOL     OW 2473   0.806   4.030   3.981 -0.0636 -0.6357 -0.0974
  525SOL    HW1 2474   0.894   4.050   3.938 -0.0672 -0.7728 -0.1687
  525SOL    HW2 2475   0.811   4.052   4.079 -0.2247  0.1978 -0.2653
  526SOL     OW 2476   4.961   6.895   5.920 -0.2361 -0.6560 -0.3223
  526SOL    HW1 2477   4.929   6.973   5.868  1.2689 -0.2092 -0.6298
  526SOL    HW2 2478   5.029   6.844   5.867  2.3061  0.5169  1.5521
  527SOL     OW 2479   0.233   2.325   0.100 -0.0799  1.0075  0.4316
  527SOL    HW1 2480   0.327   2.292   0.106 -0.8486 -1.3704  0.7720
  527SOL    HW2 2481   0.224   2.388   0.023  1.6338  0.7062 -0.0621
  528SOL     OW 2482   6.062   2.338   4.260 -0.0250  0.6564 -0.4042
  528SOL    HW1 2483   6.086   2.286   4.342 -1.3153 -1.5842 -1.3539
  528SOL    HW2 2484   6.144   2.350   4.204  0.5596  0.8724  0.4644
  529SOL     OW 2485   2.996   0.579   4.052 -0.1376 -0.4222 -0.1344
  529SOL    HW1 2486   3.089   0.589   4.085 -0.7815  1.9713  1.1706
  529SOL    HW2 2487   2.965   0.485   4.067  0.7656 -0.3023  3.0992
  530SOL     OW 2488   3.360   5.190   0.071  0.3422 -0.2262 -0.5658
  530SOL    HW1 2489   3.359   5.243   0.156  0.4563 -1.3609  0.1583
  530SOL    HW2 2490   3.269   5.192   0.030 -0.3078 -1.4765  0.7466
  531SOL     OW 2491   0.307   1.086   3.352  0.7192  0.0982  0.7508
  531SOL    HW1 2492   0.260   1.173   3.367  0.1219 -0.3940  1.8226
  531SOL    HW2 2493   0.306   1.064   3.254  0.2121  0.9122  0.5598
  532SOL     OW 2494   2.479   6.513   6.586 -0.3820  0.5483 -0.1680
  532SOL    HW1 2495   2.559   6.510   6.645 -1.0096 -0.1802  0.6794
  532SOL    HW2 2496   2.506   6.539   6.493  1.3480 -2.6587 -0.7030
  533SOL     OW 2497   1.617   5.521   4.311  0.1045 -0.1498 -0.0890
  533SOL    HW1 2498   1.587   5.464   4.235  1.2484 -0.1643 -0.5502
  533SOL    HW2 2499   1.563   5.499   4.393  0.7185 -2.1171 -0.1693
  534SOL     OW 2500   0.737   3.483   0.121 -0.0139  0.2325  0.1224
  534SOL    HW1 2501   0.732   3.530   0.034 -1.6604  0.9895  0.5850
  534SOL    HW2 2502   0.829   3.491   0.159  0.3485  1.0591 -0.9093
  535SOL     OW 2503   5.561   4.130   3.648 -0.1225  0.1222  0.0377
  535SOL    HW1 2504   5.557   4.039   3.609  1.1878 -0.0833  0.3300
  535SOL    HW2 2505   5.470   4.157   3.679 -1.2159  0.2615 -2.9795
  536SOL     OW 2506   5.803   1.267   1.792  0.8442 -0.7264 -0.1510
  536SOL    HW1 2507   5.891   1.306   1.819  0.2143  0.6841 -0.0093
  536SOL    HW2 2508   5.783   1.290   1.697 -0.2074  0.6997  0.3598
  537SOL     OW 2509   4.113   2.216   4.939  0.6719 -0.1505  0.0957
  537SOL    HW1 2510   4.014   2.223   4.926  0.4164  0.2815  1.9052
  537SOL    HW2 2511   4.133   2.208   5.037  2.5390  2.4362  0.0391
  538SOL     OW 2512   6.203   6.696   6.589  0.5970 -0.3011 -0.4980
  538SOL    HW1 2513   6.275   6.710   6.657 -0.1162  3.0299 -0.2770
  538SOL    HW2 2514   6.138   6.628   6.624 -0.5780  2.3115  3.0045
  539SOL     OW 2515   2.924   5.727   0.592  0.1625 -0.0823 -0.3969
  539SOL    HW1 2516   2.886   5.768   0.509 -0.9124 -0.9519 -0.3699
  539SOL    HW2 2517   2.849   5.706   0.656  0.8997 -0.0886  0.4889
  540SOL     OW 2518   2.899   0.993   5.666  0.1193  0.1573  0.7769
  540SOL    HW1 2519   2.810   0.947   5.671 -0.2352  0.5283 -1.2598
  540SOL    HW2 2520   2.968   0.935   5.709 -0.5826 -1.5994 -0.3345
  541SOL     OW 2521   6.422   5.032   2.346 -0.5334  0.0226 -0.2891
  541SOL    HW1 2522   6.334   4.985   2.344 -0.2546 -0.5166 -0.1658
  541SOL    HW2 2523   6.473   5.010   2.263  0.3222 -1.3330  0.5465
  542SOL     OW 2524   4.787   6.344   4.880 -0.1611 -0.3279  0.0640
  542SOL    HW1 2525   4.774   6.340   4.781  1.1965 -0.0290 -0.1493
  542SOL    HW2 2526   4.836   6.262   4.911 -0.0773 -0.1538  0.4050
  543SOL     OW 2527   1.085   1.512   3.658  0.4176 -0.2578  0.1315
  543SOL    HW1 2528   1.101   1.455   3.577  0.9750 -0.0864  0.1200
  543SOL    HW2 2529   1.089   1.456   3.740  1.5370 -0.1551  0.1658
  544SOL     OW 2530   6.935   0.422   1.451  0.0729  0.2597 -0.8630
  544SOL    HW1 2531   6.880   0.352   1.405  0.3184 -0.2484 -0.3944
  544SOL    HW2 2532   6.940   0.402   1.549 -0.1376  1.1261 -0.6635
  545SOL     OW 2533   0.075   3.582   6.731 -0.4033  0.3577  0.3650
  545SOL    HW1 2534   0.125   3.529   6.799 -0.5643  1.1322  1.1084
  545SOL    HW2 2535   0.140   3.628   6.671 -0.2611 -0.4047 -0.0780
  546SOL     OW 2536   0.914   6.497   2.028  0.5084  0.8618  0.0074
  546SOL    HW1 2537   0.835   6.447   2.061  1.5396 -1.1827 -0.4543
  546SOL    HW2 2538   0.985   6.499   2.099  1.1079  0.1712 -0.5532
  547SOL     OW 2539   4.815   0.508   1.453  0.2848  0.4449 -0.8477
  547SOL    HW1 2540   4.779   0.599   1.474  0.8440  0.0335  2.6036
  547SOL    HW2 2541   4.750   0.439   1.485  1.3773 -0.3033 -0.1773
  548SOL     OW 2542   3.903   5.228   5.573 -0.0566  0.4371 -0.4808
  548SOL    HW1 2543   3.821   5.274   5.606  0.1710  0.3765  0.1807
  548SOL    HW2 2544   3.880   5.173   5.492 -0.7960 -0.0598  0.0559
  549SOL     OW 2545   5.569   3.114   2.865 -0.2877 -0.2071 -0.0336
  549SOL    HW1 2546   5.607   3.110   2.957  1.5284  0.6658 -0.7105
  549SOL    HW2 2547   5.469   3.116   2.871 -0.2083  0.0522  1.9163
  550SOL     OW 2548   6.977   5.041   6.373  0.2428  0.3741 -0.0803
  550SOL    HW1 2549   6.968   5.123   6.428  0.4844  0.3455  0.0029
  550SOL    HW2 2550   7.074   5.019   6.361  0.2206 -1.4969  2.2951
  551SOL     OW 2551   0.395   3.482   5.892  0.1349 -0.6549  0.1666
  551SOL    HW1 2552   0.467   3.447   5.951  0.1959  1.6052  1.5334
  551SOL    HW2 2553   0.435   3.520   5.809  0.1847 -2.3936 -0.6410
  552SOL     OW 2554   0.399   6.204   6.259  0.0349  0.0422  0.0814
  552SOL    HW1 2555   0.466   6.186   6.186 -0.8121  0.1203 -0.7312
  552SOL    HW2 2556   0.385   6.120   6.312  0.8184  0.0426  0.3012
  553SOL     OW 2557   4.570   3.996   5.390 -0.4333 -0.3892 -0.4434
  553SOL    HW1 2558   4.493   4.015   5.451  0.1023 -0.8809  0.4094
  553SOL    HW2 2559   4.582   3.897   5.381  0.1792 -0.3187 -0.4643
  554SOL     OW 2560   6.686   4.764   6.788 -0.2560  0.1708  0.1178
  554SOL    HW1 2561   6.668   4.666   6.798  1.0939 -0.0751  0.3861
  554SOL    HW2 2562   6.662   4.810   6.874  0.4922 -0.1631  0.5165
  555SOL     OW 2563   3.999   3.820   5.855 -0.1028 -0.3617 -0.0241
  555SOL    HW1 2564   4.022   3.828   5.952 -0.0031  0.5768 -0.1183
  555SOL    HW2 2565   4.063   3.874   5.801  0.6641 -1.9121 -0.7435
  556SOL     OW 2566   5.005   5.897   2.507 -0.3841 -0.2182 -0.1654
  556SOL    HW1 2567   5.054   5.981   2.524 -0.4148 -0.0424 -0.9111
  556SOL    HW2 2568   5.066   5.819   2.519 -0.7477 -0.2326  2.1675
  557SOL     OW 2569   0.530   4.741   5.354 -0.1700 -0.0309 -0.3229
  557SOL    HW1 2570   0.520   4.840   5.362  1.1419  0.2843 -1.8463
  557SOL    HW2 2571   0.620   4.714   5.390  0.7168 -0.1991 -2.4820
  558SOL     OW 2572   3.057   3.984   1.216  0.3110 -0.2387 -0.0238
  558SOL    HW1 2573   3.071   4.022   1.308 -0.6936 -0.9062  0.4326
  558SOL    HW2 2574   3.120   4.027   1.152 -0.0897  1.4358  0.6495
  559SOL     OW 2575   5.410   1.829   4.792 -0.1018 -0.4660  0.2105
  559SOL    HW1 2576   5.324   1.872   4.765 -0.3838 -1.5029 -0.6104
  559SOL    HW2 2577   5.482   1.898   4.795 -1.0605  0.5376  1.5092
  560SOL     OW 2578   2.298   2.032   2.342  0.0307  0.0888  0.4365
  560SOL    HW1 2579   2.367   1.987   2.400 -0.5450 -1.1277  0.2047
  560SOL    HW2 2580   2.344   2.089   2.274  0.7485  0.6229  1.3431
  561SOL     OW 2581   6.523   4.032   5.899  0.9796  0.5574  0.1511
  561SOL    HW1 2582   6.541   3.988   5.988 -0.5572  2.6006  1.5742
  561SOL    HW2 2583   6.606   4.078   5.868  1.7102 -0.6810  0.1750
  562SOL     OW 2584   4.255   0.752   1.426  0.2298 -0.0360  0.6197
  562SOL    HW1 2585   4.259   0.658   1.460 -0.0152 -0.5780 -0.7876
  562SOL    HW2 2586   4.313   0.761   1.345 -0.7876  0.6619 -0.0588
  563SOL     OW 2587   0.415   1.158   2.998 -0.3085 -0.1463 -0.2361
  563SOL    HW1 2588   0.391   1.241   3.049 -0.8823 -0.9695  0.8778
  563SOL    HW2 2589   0.480   1.181   2.925 -0.9727  1.3868 -0.3886
  564SOL     OW 2590   6.915   0.634   0.350 -0.1643  0.0421  0.0858
  564SOL    HW1 2591   6.925   0.627   0.449 -1.1749  0.6225  0.2414
  564SOL    HW2 2592   6.988   0.584   0.305  0.4670  0.0153  1.1287
  565SOL     OW 2593   3.702   3.173   4.563  0.1217 -0.7148  0.3615
  565SOL    HW1 2594   3.789   3.172   4.613  0.0818 -2.4990  0.4563
  565SOL    HW2 2595   3.627   3.156   4.626 -0.2402  0.2016  0.1804
  566SOL     OW 2596   2.684   1.348   3.640 -0.0949  0.1032 -0.3075
  566SOL    HW1 2597   2.696   1.254   3.671  1.5322 -0.1999 -1.6910
  566SOL    HW2 2598   2.752   1.407   3.683 -1.5746  0.8263  1.1155
  567SOL     OW 2599   0.637   1.712   4.177  0.1834  0.4152  0.3438
  567SOL    HW1 2600   0.554   1.713   4.120 -0.0348  1.7429  0.6332
  567SOL    HW2 2601   0.681   1.623   4.171 -1.9426 -0.7477  1.1542
  568SOL     OW 2602   0.947   5.529   0.922 -0.4870  0.2779 -0.6407
  568SOL    HW1 2603   0.859   5.491   0.893 -0.2647  0.0974 -1.1007
  568SOL    HW2 2604   1.012   5.454   0.938 -0.2588  0.4283 -0.8455
  569SOL     OW 2605   5.267   4.013   4.929  0.1781 -0.6138  0.0583
  569SOL    HW1 2606   5.244   3.968   4.843  0.2817 -1.6134  0.5418
  569SOL    HW2 2607   5.351   3.973   4.967 -0.7809 -1.3985  1.4669
  570SOL     OW 2608   4.825   1.627   4.349 -0.0186  0.3917  0.0483
  570SOL    HW1 2609   4.799   1.546   4.401 -2.1546  0.6829 -0.4819
  570SOL    HW2 2610   4.760   1.642   4.275  2.2055  0.7411 -1.9532
  571SOL     OW 2611   3.037   4.074   1.474 -0.4878  0.2003 -0.2027
  571SOL    HW1 2612   2.979   4.088   1.555  0.6253 -0.4774  0.7367
  571SOL    HW2 2613   3.090   4.157   1.457 -1.5422  0.7442 -0.9318
  572SOL     OW 2614   3.030   0.251   4.133 -0.1068 -0.0052 -0.1712
  572SOL    HW1 2615   2.975   0.189   4.077 -0.3347  0.1292 -0.1015
  572SOL    HW2 2616   2.969   0.302   4.194  0.2339 -1.0137  1.0656
  573SOL     OW 2617   0.795   6.193   6.605  1.2515 -0.6086 -0.0403
  573SOL    HW1 2618   0.767   6.278   6.559  0.3310 -0.6135  0.4919
  573SOL    HW2 2619   0.879   6.159   6.563  0.1447 -0.9228 -2.1411
  574SOL     OW 2620   2.244   1.484   4.854  0.6434 -0.3255  0.2700
  574SOL    HW1 2621   2.339   1.485   4.822  0.3875  0.0464 -0.4777
  574SOL    HW2 2622   2.226   1.396   4.899  0.8300 -1.1121 -1.1493
  575SOL     OW 2623   5.179   3.401   6.391 -0.6239 -0.5107  0.0363
  575SOL    HW1 2624   5.215   3.386   6.483 -1.2336 -0.1893  0.3380
  575SOL    HW2 2625   5.251   3.386   6.324 -0.5320 -2.1494  0.4655
  576SOL     OW 2626   0.751   1.106   4.028  0.0580 -0.5130  0.1629
  576SOL    HW1 2627   0.797   1.130   4.113  3.1594  0.9436 -1.7371
  576SOL    HW2 2628   0.812   1.050   3.971 -0.9263  0.5380 -2.0655
  577SOL     OW 2629   5.878   6.857   1.279  0.1812 -0.6774  0.9466
  577SOL    HW1 2630   5.828   6.821   1.358 -1.9522 -0.3085 -0.1695
  577SOL    HW2 2631   5.873   6.791   1.204 -2.2728  1.0400 -0.5463
  578SOL     OW 2632   4.739   1.459   0.028  0.3827  0.3191 -0.4957
  578SOL    HW1 2633   4.800   1.503   0.094 -0.4283 -0.7789  1.0326
  578SOL    HW2 2634   4.647   1.454   0.065 -0.9575  2.7880 -3.1513
  579SOL     OW 2635   1.096   5.612   2.315  0.5401  1.0266 -0.0097
  579SOL    HW1 2636   1.004   5.604   2.353  1.4330 -2.2399  1.9198
  579SOL    HW2 2637   1.091   5.623   2.216 -1.8945  2.0502  0.1779
  580SOL     OW 2638   4.202   5.437   5.707 -0.0782  0.1174  0.6649
  580SOL    HW1 2639   4.184   5.454   5.804  1.4038  2.0764  0.6773
  580SOL    HW2 2640   4.226   5.341   5.694  0.3763 -0.0484  2.3839
  581SOL     OW 2641   4.508   1.964   3.704  0.5275  0.2089  0.3508
  581SOL    HW1 2642   4.578   1.915   3.652 -1.1771 -0.7686 -1.1139
  581SOL    HW2 2643   4.496   1.919   3.793  2.0908  0.7145  0.8516
  582SOL     OW 2644   5.709   5.159   5.533  0.2261 -0.3527  0.3277
  582SOL    HW1 2645   5.799   5.119   5.549  0.0984 -0.4786  0.7609
  582SOL    HW2 2646   5.638   5.094   5.564  0.0354  0.6482  2.1038
  583SOL     OW 2647   2.026   5.009   5.251 -0.1417 -0.2332  0.4947
  583SOL    HW1 2648   1.979   5.097   5.246 -0.7108 -0.4331  1.8611
  583SOL    HW2 2649   1.959   4.937   5.272  0.7160 -0.5424  2.3493
  584SOL     OW 2650   6.140   0.373   6.664  0.2256  0.4350 -0.5975
  584SOL    HW1 2651   6.178   0.430   6.737 -0.6154 -0.1903  0.3588
  584SOL    HW2 2652   6.063   0.421   6.621  0.6008  0.7232 -0.9576
  585SOL     OW 2653   2.783   6.716   0.474 -0.4964 -0.7985  0.3442
  585SOL    HW1 2654   2.818   6.645   0.413  0.8935  0.2364 -0.1123
  585SOL    HW2 2655   2.692   6.745   0.442  0.9293  1.0149 -2.4275
  586SOL     OW 2656   1.862   5.131   6.554  0.5763  0.3024  0.0011
  586SOL    HW1 2657   1.860   5.110   6.652 -1.5896  0.4352  0.0304
  586SOL    HW2 2658   1.914   5.215   6.539  0.8511  0.3348  1.0418
  587SOL     OW 2659   4.815   6.838   3.491  0.2088 -0.4095  0.3595
  587SOL    HW1 2660   4.883   6.843   3.417  1.4459  0.6616  1.5208
  587SOL    HW2 2661   4.826   6.752   3.540  2.5538  0.7593  2.1263
  588SOL     OW 2662   2.725   3.675   1.550 -0.5627  0.4371  0.3361
  588SOL    HW1 2663   2.736   3.627   1.462  0.2842  1.1943  0.0142
  588SOL    HW2 2664   2.813   3.678   1.597 -0.8429  0.7518  0.8475
  589SOL     OW 2665   3.184   5.836   6.134  0.2861  0.7205  0.1658
  589SOL    HW1 2666   3.181   5.754   6.191  0.3664  0.2957 -0.4177
  589SOL    HW2 2667   3.146   5.814   6.044 -3.2542  2.2979  1.1067
  590SOL     OW 2668   1.978   6.526   6.135 -0.1643  0.3515 -0.1738
  590SOL    HW1 2669   1.950   6.492   6.225 -0.0223 -1.3420 -0.7358
  590SOL    HW2 2670   2.077   6.511   6.124 -0.4729 -1.0792 -1.2562
  591SOL     OW 2671   2.796   0.558   4.691 -0.1025  0.0824  0.4033
  591SOL    HW1 2672   2.861   0.578   4.766 -0.5941 -0.0777  0.8743
  591SOL    HW2 2673   2.823   0.611   4.610 -0.2257  1.1489  1.0372
  592SOL     OW 2674   5.257   0.871   4.356 -0.5015 -0.3705 -0.8714
  592SOL    HW1 2675   5.254   0.776   4.326 -0.2528 -0.7314  0.2032
  592SOL    HW2 2676   5.212   0.879   4.445  0.2849  0.3508 -0.5293
  593SOL     OW 2677   1.578   1.080   6.424 -0.4072  0.0495  0.0159
  593SOL    HW1 2678   1.557   0.996   6.474  0.0641  0.8518  1.6198
  593SOL    HW2 2679   1.656   1.063   6.363  0.5377 -0.3604  1.2870
  594SOL     OW 2680   1.578   2.026   6.310 -0.4752  0.1394  0.6974
  594SOL    HW1 2681   1.566   2.029   6.409  2.1075 -2.5230  1.2403
  594SOL    HW2 2682   1.599   1.932   6.282 -1.6815  0.6992 -2.5055
  595SOL     OW 2683   5.645   3.347   1.601  0.4219  0.1567 -0.5003
  595SOL    HW1 2684   5.723   3.403   1.572  1.7305 -1.0028  0.6295
  595SOL    HW2 2685   5.613   3.293   1.524 -0.3028  1.7689 -1.3789
  596SOL     OW 2686   6.284   4.678   4.304  0.6867  0.1183  0.1935
  596SOL    HW1 2687   6.266   4.590   4.259  1.4256  0.1317 -0.1357
  596SOL    HW2 2688   6.217   4.692   4.377 -1.1455  0.5272 -1.4773
  597SOL     OW 2689   3.859   1.290   5.677 -0.1769  0.1732 -0.0752
  597SOL    HW1 2690   3.884   1.283   5.773  0.7638  0.5641 -0.2779
  597SOL    HW2 2691   3.759   1.291   5.668 -0.2829  1.2237  0.9844
  598SOL     OW 2692   5.255   4.110   1.131  0.4236  0.6208 -0.6720
  598SOL    HW1 2693   5.174   4.165   1.107  0.0346  0.8109  0.9281
  598SOL    HW2 2694   5.307   4.158   1.201  0.4477 -0.7253  0.2697
  599SOL     OW 2695   1.599   6.072   1.988 -0.0217  0.3855 -0.4613
  599SOL    HW1 2696   1.685   6.024   1.970  0.3144  0.8111 -0.0361
  599SOL    HW2 2697   1.617   6.169   2.004 -0.0933 -0.0109  2.9525
  600SOL     OW 2698   0.838   3.943   5.762 -0.0250 -0.3653 -0.1163
  600SOL    HW1 2699   0.875   3.856   5.730  2.9162  1.0850 -1.0265
  600SOL    HW2 2700   0.836   3.944   5.862 -1.4418 -1.9470 -0.1039
  601SOL     OW 2701   5.859   1.054   5.874  0.6407  0.7487 -0.1150
  601SOL    HW1 2702   5.901   1.075   5.962 -1.0423  0.1568  0.8556
  601SOL    HW2 2703   5.903   0.973   5.834 -0.7726 -1.0424  1.7932
  602SOL     OW 2704   6.996   1.535   4.140 -0.2287  0.3913  0.3630
  602SOL    HW1 2705   7.042   1.484   4.213 -0.7931 -0.5641  0.0686
  602SOL    HW2 2706   7.060   1.549   4.065  0.6753  2.2824  1.4253
  603SOL     OW 2707   1.717   0.679   2.390 -0.4099  0.4192 -0.2888
  603SOL    HW1 2708   1.673   0.599   2.352  0.8306 -0.5540  0.2499
  603SOL    HW2 2709   1.809   0.688   2.351  0.5221 -0.0519  1.7147
  604SOL     OW 2710   6.381   1.683   0.464  0.1311  0.3126 -0.0793
  604SOL    HW1 2711   6.444   1.619   0.420  0.4393  1.4075 -1.2917
  604SOL    HW2 2712   6.433   1.760   0.503 -0.3289  0.4045  0.3633
  605SOL     OW 2713   0.528   5.947   1.700 -0.0265  1.2155  0.1096
  605SOL    HW1 2714   0.568   6.032   1.734 -0.7437  1.3678  0.5894
  605SOL    HW2 2715   0.598   5.895   1.649  0.4904  1.9466  0.0608
  606SOL     OW 2716   3.077   5.470   5.149  0.3507  0.1853 -0.0708
  606SOL    HW1 2717   3.027   5.431   5.226  0.7077  0.4627  0.3019
  606SOL    HW2 2718   3.040   5.560   5.127  0.2582  0.1119 -0.2150
  607SOL     OW 2719   6.977   2.403   6.002 -0.2681 -0.1357  0.5416
  607SOL    HW1 2720   7.041   2.470   5.965  0.9013 -0.6769  1.5024
  607SOL    HW2 2721   7.018   2.312   5.997  0.5267 -0.1506  4.1296
  608SOL     OW 2722   2.644   1.190   6.638  0.0158 -0.6128 -0.1546
  608SOL    HW1 2723   2.723   1.197   6.698  1.1228 -0.5091 -1.5795
  608SOL    HW2 2724   2.584   1.270   6.652 -2.0630 -2.5557  3.8291
  609SOL     OW 2725   2.887   3.476   3.556 -0.3580  0.0965 -0.1724
  609SOL    HW1 2726   2.950   3.410   3.596  0.3948 -0.3836 -2.0265
  609SOL    HW2 2727   2.874   3.553   3.619  2.0729  0.2193  0.2887
  610SOL     OW 2728   6.186   2.221   1.661  0.4733 -0.0958 -0.2435
  610SOL    HW1 2729   6.181   2.180   1.752  0.6009 -0.2569 -0.3083
  610SOL    HW2 2730   6.107   2.280   1.647  0.3460 -0.2317 -0.1062
  611SOL     OW 2731   4.011   1.222   2.181 -0.8050  0.1389  0.0454
  611SOL    HW1 2732   3.923   1.180   2.203 -0.4758  0.5940  2.5556
  611SOL    HW2 2733   4.041   1.278   2.258  0.7452  1.6309 -1.5600
  612SOL     OW 2734   2.789   6.491   4.335  0.0364 -0.4995  0.2875
  612SOL    HW1 2735   2.763   6.587   4.327 -0.9749 -0.8781 -1.5902
  612SOL    HW2 2736   2.879   6.477   4.291  0.6842 -0.2459  1.5015
  613SOL     OW 2737   2.578   6.485   5.136 -0.2994  0.1209 -0.1207
  613SOL    HW1 2738   2.670   6.522   5.149  0.1484 -0.4891 -1.3660
  613SOL    HW2 2739   2.583   6.404   5.077 -1.8135  1.0303 -1.5842
  614SOL     OW 2740   2.451   6.667   5.585  0.3921  0.0472 -0.2223
  614SOL    HW1 2741   2.384   6.670   5.660 -1.6305  1.6759 -1.9615
  614SOL    HW2 2742   2.438   6.583   5.533 -0.3523  0.3545 -0.5513
  615SOL     OW 2743   0.170   6.061   5.698  0.6410  0.2743  0.5865
  615SOL    HW1 2744   0.110   6.089   5.624  1.5615  0.3226 -0.1627
  615SOL    HW2 2745   0.184   6.138   5.761 -1.0842 -0.1050  1.4982
  616SOL     OW 2746   6.075   1.649   6.508  0.2641  0.0201 -0.2727
  616SOL    HW1 2747   6.133   1.617   6.433  1.6797 -1.3464  1.3087
  616SOL    HW2 2748   6.120   1.629   6.596 -1.2466  1.6983  0.9604
  617SOL     OW 2749   2.453   5.756   6.245  0.5320  0.0726  0.0114
  617SOL    HW1 2750   2.412   5.774   6.334  1.2559 -1.2313  0.6386
  617SOL    HW2 2751   2.451   5.839   6.190  1.4783  1.3587  1.8177
  618SOL     OW 2752   2.986   1.931   1.787 -0.1061 -0.5137  0.1898
  618SOL    HW1 2753   3.085   1.951   1.789  0.1369 -1.6818  0.6553
  618SOL    HW2 2754   2.971   1.844   1.740 -0.7136 -1.3101  1.7998
  619SOL     OW 2755   6.373   4.636   6.031 -0.0348  0.0471  0.4072
  619SOL    HW1 2756   6.419   4.716   6.070 -2.5983  2.0857 -0.5175
  619SOL    HW2 2757   6.293   4.613   6.087 -0.8924 -0.1305 -0.8589
  620SOL     OW 2758   6.364   2.814   0.981 -0.0998 -0.4394  0.0637
  620SOL    HW1 2759   6.352   2.752   1.059 -0.2866 -0.3865  0.0789
  620SOL    HW2 2760   6.460   2.818   0.956 -0.2377 -1.6310 -0.6883
  621SOL     OW 2761   5.490   5.674   1.674  0.2620  0.4073 -0.4354
  621SOL    HW1 2762   5.491   5.763   1.719  2.8656 -0.9325  2.5986
  621SOL    HW2 2763   5.565   5.669   1.608 -1.1257  1.0404 -2.1353
  622SOL     OW 2764   1.756   2.499   0.089 -0.0993 -0.6673  0.0355
  622SOL    HW1 2765   1.748   2.593   0.055  0.4030  0.1816  2.0969
  622SOL    HW2 2766   1.753   2.435   0.012 -0.9053  0.9933 -1.3864
  623SOL     OW 2767   4.902   6.076   5.341 -0.2717  0.5080 -0.1056
  623SOL    HW1 2768   4.910   6.001   5.276 -0.0575 -0.3406  0.8670
  623SOL    HW2 2769   4.862   6.042   5.426 -0.8506  1.6621  0.0988
  624SOL     OW 2770   1.275   1.075   1.522 -0.3714  0.0814 -0.3212
  624SOL    HW1 2771   1.292   1.116   1.611  1.1273  0.8479 -0.9194
  624SOL    HW2 2772   1.219   0.992   1.533  0.5105 -0.3328  1.4057
  625SOL     OW 2773   3.351   0.776   3.921  0.3604 -0.2290  0.3498
  625SOL    HW1 2774   3.360   0.874   3.903  0.3865 -0.4138 -0.7382
  625SOL    HW2 2775   3.439   0.731   3.904 -0.1385 -0.7050 -1.1031
  626SOL     OW 2776   3.287   5.039   5.425 -0.4358 -0.2231  0.2178
  626SOL    HW1 2777   3.199   4.997   5.446 -0.5435  0.1715  0.5898
  626SOL    HW2 2778   3.360   4.987   5.468 -0.5738  0.0022  0.7428
  627SOL     OW 2779   5.085   4.713   0.992 -0.0111  0.3110 -0.7721
  627SOL    HW1 2780   5.040   4.631   0.958  0.6812 -0.3324 -0.1541
  627SOL    HW2 2781   5.019   4.789   0.995 -0.5785 -0.1347 -1.6157
  628SOL     OW 2782   4.515   5.269   3.846  0.0200  0.3074  0.6514
  628SOL    HW1 2783   4.574   5.338   3.803  0.0966 -1.0203 -1.5300
  628SOL    HW2 2784   4.429   5.312   3.872  0.6900  1.5794  0.8729
  629SOL     OW 2785   1.562   1.237   2.194 -0.1411 -0.9180  0.1913
  629SOL    HW1 2786   1.506   1.164   2.153  0.1125 -1.5438  0.9314
  629SOL    HW2 2787   1.648   1.244   2.144 -0.2684 -0.9525 -0.0378
  630SOL     OW 2788   2.743   2.224   2.976 -0.1276 -0.3304  0.4488
  630SOL    HW1 2789   2.688   2.306   2.962  2.0700  0.8753 -2.0056
  630SOL    HW2 2790   2.828   2.230   2.922  2.0641 -2.4496  3.3117
  631SOL     OW 2791   1.834   0.864   4.791  0.1341 -0.3883  0.0314
  631SOL    HW1 2792   1.741   0.861   4.754 -0.2262  2.0211  0.5612
  631SOL    HW2 2793   1.900   0.877   4.717  0.0206 -1.5152 -0.2855
  632SOL     OW 2794   3.893   2.060   6.765 -0.9892  0.1428  0.6396
  632SOL    HW1 2795   3.964   2.003   6.806 -0.8599 -1.0417 -1.1553
  632SOL    HW2 2796   3.849   2.113   6.837 -1.3390 -2.4287  2.4628
  633SOL     OW 2797   0.929   0.682   4.076  0.4309  0.3411  0.1048
  633SOL    HW1 2798   1.027   0.699   4.069  1.2056 -3.4997 -0.6615
  633SOL    HW2 2799   0.903   0.673   4.172  1.6152 -1.7936  0.2915
  634SOL     OW 2800   3.882   5.718   1.980 -0.5149 -0.3638 -0.0520
  634SOL    HW1 2801   3.898   5.774   2.061 -1.4612  1.0266 -0.7920
  634SOL    HW2 2802   3.924   5.628   1.993  0.8141  0.4041  1.2751
  635SOL     OW 2803   2.897   0.863   1.628 -0.1208  0.0358 -0.2581
  635SOL    HW1 2804   2.987   0.892   1.596 -0.2886  0.7366 -0.1085
  635SOL    HW2 2805   2.880   0.769   1.598  2.0911 -1.4369  2.5535
  636SOL     OW 2806   5.993   0.569   5.800 -0.3490  0.2211  0.3031
  636SOL    HW1 2807   5.975   0.471   5.806 -2.5506  0.5098 -0.5919
  636SOL    HW2 2808   6.057   0.587   5.726 -0.9937 -0.4464 -0.4353
  637SOL     OW 2809   6.862   3.120   4.732  0.7635 -0.4658 -0.2782
  637SOL    HW1 2810   6.915   3.156   4.808  1.9610 -0.8021 -0.9395
  637SOL    HW2 2811   6.882   3.172   4.649 -0.5937 -0.0450 -0.3816
  638SOL     OW 2812   5.934   0.949   3.178 -0.4212 -0.0816  0.5153
  638SOL    HW1 2813   6.013   1.005   3.151 -0.8865  0.5705  0.4786
  638SOL    HW2 2814   5.924   0.952   3.278  0.3655 -1.2235  0.6486
  639SOL     OW 2815   4.242   1.796   6.463  0.2506  0.0038  0.0877
  639SOL    HW1 2816   4.211   1.744   6.542 -1.4826  0.3438 -0.3234
  639SOL    HW2 2817   4.332   1.762   6.434 -0.2919 -1.9594  0.5541
  640SOL     OW 2818   3.817   3.717   3.739 -0.5227 -0.0306  0.6504
  640SOL    HW1 2819   3.784   3.669   3.658  0.0067  0.0155  0.4040
  640SOL    HW2 2820   3.885   3.661   3.786 -0.4575  0.1540  0.7808
  641SOL     OW 2821   1.208   6.498   4.702  1.2272  0.1818 -0.0600
  641SOL    HW1 2822   1.136   6.429   4.687  0.2100  1.4317 -1.1418
  641SOL    HW2 2823   1.191   6.544   4.789  0.0150  1.2413 -0.8219
  642SOL     OW 2824   1.155   4.627   0.893 -0.1647  0.1266  0.2538
  642SOL    HW1 2825   1.234   4.642   0.952  0.5200 -1.8212 -0.0762
  642SOL    HW2 2826   1.097   4.555   0.932  1.2041 -2.4496 -2.1619
  643SOL     OW 2827   0.256   6.324   4.074 -0.1137  0.1029 -0.6557
  643SOL    HW1 2828   0.314   6.392   4.120  0.4134 -0.7894  0.0311
  643SOL    HW2 2829   0.160   6.345   4.091  0.0577 -0.6397  1.5898
  644SOL     OW 2830   3.322   4.855   1.934  0.0282 -0.2177  0.1607
  644SOL    HW1 2831   3.418   4.858   1.962  0.0126 -1.1002  0.3593
  644SOL    HW2 2832   3.312   4.793   1.856 -0.3027  0.2983 -0.2166
  645SOL     OW 2833   1.886   2.748   4.510 -0.0010  0.1366  0.4206
  645SOL    HW1 2834   1.940   2.824   4.545  0.7533 -1.0033  1.8151
  645SOL    HW2 2835   1.922   2.662   4.545 -2.2146 -0.7369  0.7056
  646SOL     OW 2836   2.689   3.032   5.308  0.0670  0.4941 -0.2561
  646SOL    HW1 2837   2.674   2.974   5.389  2.2436  2.0186  1.3534
  646SOL    HW2 2838   2.601   3.053   5.266 -1.0139 -1.5792  0.8008
  647SOL     OW 2839   6.089   6.666   1.415 -0.1559 -0.3256  0.0060
  647SOL    HW1 2840   6.085   6.602   1.492  0.6279  0.2516  0.5300
  647SOL    HW2 2841   6.041   6.750   1.439 -1.5831 -0.8516 -0.8480
  648SOL     OW 2842   5.045   3.220   3.923 -0.1707  0.8343  0.1465
  648SOL    HW1 2843   4.990   3.167   3.988  1.1862 -0.8070  0.0231
  648SOL    HW2 2844   5.070   3.162   3.846  1.8366  1.4860  0.2694
  649SOL     OW 2845   2.440   4.291   6.636  0.1612  0.6443 -0.1223
  649SOL    HW1 2846   2.348   4.270   6.668  0.1201  0.6480 -0.2414
  649SOL    HW2 2847   2.460   4.239   6.554  0.3017  0.5699 -0.0412
  650SOL     OW 2848   4.981   4.806   1.481 -0.1157  0.4670  0.3018
  650SOL    HW1 2849   4.943   4.744   1.549  0.4815  1.0786  1.2214
  650SOL    HW2 2850   5.076   4.827   1.504  0.9084 -1.1556 -2.0198
  651SOL     OW 2851   2.001   5.376   6.524 -0.1092 -0.0558  0.4207
  651SOL    HW1 2852   2.080   5.332   6.569  0.6212  1.3179  0.5309
  651SOL    HW2 2853   2.033   5.448   6.464 -1.1470 -1.2238 -1.6476
  652SOL     OW 2854   4.010   2.737   1.449  0.6719 -0.4372  0.7788
  652SOL    HW1 2855   3.929   2.728   1.391  1.0596 -1.3881  0.3646
  652SOL    HW2 2856   4.061   2.819   1.424  1.5851 -1.5552 -1.1939
  653SOL     OW 2857   5.262   5.514   2.011  0.3006  0.4034  0.3262
  653SOL    HW1 2858   5.333   5.462   1.963  0.3399 -0.1404  0.9669
  653SOL    HW2 2859   5.294   5.538   2.102 -0.1229  0.6540  0.4122
  654SOL     OW 2860   5.770   4.596   5.913  0.3005 -0.3628 -0.0101
  654SOL    HW1 2861   5.753   4.618   5.817 -0.2349 -0.6377  0.0153
  654SOL    HW2 2862   5.737   4.671   5.971 -0.4625 -0.7093  0.0163
  655SOL     OW 2863   0.911   1.526   1.170 -0.0504  0.2575  0.3846
  655SOL    HW1 2864   1.003   1.500   1.201 -0.3887 -0.9132  0.4586
  655SOL    HW2 2865   0.877   1.601   1.228 -0.7006 -1.9243  3.0561
  656SOL     OW 2866   2.343   6.282   5.596  0.6723 -0.5112  0.1813
  656SOL    HW1 2867   2.287   6.295   5.678  1.2371  1.5716  0.2843
  656SOL    HW2 2868   2.283   6.268   5.518 -0.0427  1.1034  0.3858
  657SOL     OW 2869   3.438   6.945   6.485  0.6862  0.2474  0.4509
  657SOL    HW1 2870   3.526   6.898   6.475  0.6605  0.5245 -1.3372
  657SOL    HW2 2871   3.406   6.976   6.396 -1.2834  0.0786  1.0429
  658SOL     OW 2872   3.991   5.504   0.021 -0.0494  0.0362  0.5500
  658SOL    HW1 2873   4.039   5.459   0.097  0.8183 -0.1011 -0.0611
  658SOL    HW2 2874   3.904   5.540   0.054  0.0950 -0.4314  1.5005
  659SOL     OW 2875   3.874   0.934   5.985  0.6048  0.0311  0.2020
  659SOL    HW1 2876   3.826   0.915   6.070 -0.4931  2.4403  0.2138
  659SOL    HW2 2877   3.887   0.850   5.933  0.7327 -1.3870  2.4337
  660SOL     OW 2878   3.572   4.947   3.499  0.1710 -0.3541  0.2626
  660SOL    HW1 2879   3.476   4.927   3.519  0.1302  0.4750  0.9463
  660SOL    HW2 2880   3.584   4.959   3.401 -0.1992 -1.5708  0.0467
  661SOL     OW 2881   6.867   5.902   3.918  0.3664  0.3443  0.2542
  661SOL    HW1 2882   6.782   5.858   3.890  0.7818 -0.1487 -0.2628
  661SOL    HW2 2883   6.860   6.001   3.903 -0.6642  0.5114  1.6549
  662SOL     OW 2884   5.057   1.450   5.483  0.3433 -0.3124 -0.3194
  662SOL    HW1 2885   4.961   1.458   5.509  0.2565 -0.7300 -0.5047
  662SOL    HW2 2886   5.113   1.449   5.566  0.0547 -1.7956 -0.1124
  663SOL     OW 2887   1.773   3.744   4.840 -0.1772  0.0473  0.2149
  663SOL    HW1 2888   1.845   3.696   4.790 -0.3875 -0.5894  0.5145
  663SOL    HW2 2889   1.796   3.841   4.846  0.0148  0.0827 -0.8246
  664SOL     OW 2890   6.266   6.388   6.449 -0.2288 -0.0259  0.3727
  664SOL    HW1 2891   6.230   6.300   6.479 -1.7669  0.3430 -0.2955
  664SOL    HW2 2892   6.256   6.396   6.349 -0.2094  0.9404  0.4387
  665SOL     OW 2893   3.386   4.772   1.661  0.2351  0.3104  0.3358
  665SOL    HW1 2894   3.374   4.738   1.567 -1.5518  1.2133  0.1806
  665SOL    HW2 2895   3.463   4.726   1.704 -0.0725 -1.5118 -0.9410
  666SOL     OW 2896   5.834   1.176   3.490  0.5419  1.1666 -0.2898
  666SOL    HW1 2897   5.806   1.118   3.566 -0.2461  0.9105 -0.7566
  666SOL    HW2 2898   5.933   1.183   3.488  0.6954 -0.6255 -0.5412
  667SOL     OW 2899   5.729   3.232   6.808  0.1718 -0.1202  0.1546
  667SOL    HW1 2900   5.819   3.206   6.773 -0.0976 -1.0883  0.1428
  667SOL    HW2 2901   5.703   3.169   6.881  0.5174  1.5739  1.8000
  668SOL     OW 2902   0.766   4.216   6.488  0.2828 -0.0546  0.2836
  668SOL    HW1 2903   0.693   4.173   6.435 -0.8194  4.2534 -2.1672
  668SOL    HW2 2904   0.743   4.210   6.586 -2.5724 -0.2770 -0.3033
  669SOL     OW 2905   6.656   6.982   3.970  0.2275  0.7841  0.2113
  669SOL    HW1 2906   6.722   6.995   3.895 -0.2446  1.0234 -0.1744
  669SOL    HW2 2907   6.704   6.949   4.051  0.6436 -0.2102 -0.4163
  670SOL     OW 2908   4.164   2.194   1.519 -0.0961  0.0710  0.5726
  670SOL    HW1 2909   4.150   2.290   1.493  0.4035 -0.2376 -0.8951
  670SOL    HW2 2910   4.262   2.175   1.525 -0.0953 -0.9966 -1.8161
  671SOL     OW 2911   0.230   5.482   6.798 -0.1028 -0.1667  0.8337
  671SOL    HW1 2912   0.141   5.458   6.836 -0.1505  0.4933  1.1472
  671SOL    HW2 2913   0.297   5.413   6.824 -0.2961 -0.1075  1.4961
  672SOL     OW 2914   6.065   6.611   2.799 -0.8614  0.2121 -0.1563
  672SOL    HW1 2915   5.967   6.630   2.794 -1.0089 -0.6807 -0.9202
  672SOL    HW2 2916   6.115   6.696   2.814 -1.7581  0.6608  0.3402
  673SOL     OW 2917   5.750   5.469   0.081 -0.2792  0.1895  0.0813
  673SOL    HW1 2918   5.732   5.388   0.026 -0.4673 -0.1090  0.5707
  673SOL    HW2 2919   5.831   5.454   0.138 -0.7106  0.0724  0.6765
  674SOL     OW 2920   3.994   6.248   3.919  0.1722 -0.8592 -0.7106
  674SOL    HW1 2921   4.001   6.336   3.967 -3.0251 -0.6322 -0.4542
  674SOL    HW2 2922   4.006   6.263   3.820 -0.9567  0.0245 -0.7387
  675SOL     OW 2923   0.517   4.436   1.939  0.1297 -0.1894 -0.0446
  675SOL    HW1 2924   0.423   4.439   1.903  0.5504 -0.7759 -1.2228
  675SOL    HW2 2925   0.566   4.359   1.898  0.9999 -0.1577  0.9030
  676SOL     OW 2926   1.044   1.381   5.102 -0.0449 -0.3570 -0.1525
  676SOL    HW1 2927   1.046   1.292   5.149  1.0194  1.0421  2.7003
  676SOL    HW2 2928   1.060   1.367   5.004 -0.3916 -3.3242  0.1112
  677SOL     OW 2929   4.252   0.469   1.437 -0.2609 -0.3641  0.8106
  677SOL    HW1 2930   4.281   0.453   1.343  0.2177  0.1042  0.8728
  677SOL    HW2 2931   4.159   0.434   1.450 -0.5256  0.0341  0.0269
  678SOL     OW 2932   0.261   5.815   4.861 -0.0502  1.0964  0.4153
  678SOL    HW1 2933   0.277   5.822   4.763  0.0216  1.7357  0.4681
  678SOL    HW2 2934   0.272   5.905   4.903 -3.2502  1.5696  0.5414
  679SOL     OW 2935   4.620   0.991   6.176 -0.5907 -0.8554 -0.2150
  679SOL    HW1 2936   4.544   1.020   6.234  0.3526 -0.2337  0.7541
  679SOL    HW2 2937   4.626   0.891   6.177 -0.3971 -0.8557  1.0579
  680SOL     OW 2938   4.747   1.512   4.873 -0.0683 -0.0112 -0.2457
  680SOL    HW1 2939   4.816   1.544   4.808  1.0716  0.8033  1.2997
  680SOL    HW2 2940   4.659   1.554   4.852  0.8133  2.1400  0.1161
  681SOL     OW 2941   4.940   3.657   4.081 -0.7017 -0.3660 -0.1166
  681SOL    HW1 2942   4.916   3.570   4.124  0.6780 -0.2760  0.8910
  681SOL    HW2 2943   4.927   3.650   3.982 -0.5060 -1.7510 -0.0641
  682SOL     OW 2944   5.860   0.601   4.269  0.0521  0.0104 -0.0993
  682SOL    HW1 2945   5.766   0.601   4.302 -0.4681  0.1403 -1.5093
  682SOL    HW2 2946   5.869   0.667   4.195  0.8422 -1.1787 -1.0956
  683SOL     OW 2947   3.640   0.543   6.400 -0.3722  0.2284  0.1694
  683SOL    HW1 2948   3.615   0.635   6.429 -1.0461 -0.3160  1.4028
  683SOL    HW2 2949   3.612   0.477   6.470  0.4138 -0.8843 -0.5239
  684SOL     OW 2950   0.764   2.021   7.018  0.0042 -0.2886  0.1512
  684SOL    HW1 2951   0.670   1.995   7.038 -0.8242  1.6428 -0.9383
  684SOL    HW2 2952   0.765   2.108   6.967  2.3717 -0.2697  0.0987
  685SOL     OW 2953   3.278   0.013   2.996 -0.4723  0.4075  0.0553
  685SOL    HW1 2954   3.257  -0.033   3.082  3.0126  0.9029  1.3313
  685SOL    HW2 2955   3.269  -0.051   2.920 -0.4575 -0.9527  1.1713
  686SOL     OW 2956   1.905   7.006   6.306  1.1729  0.2213  0.2226
  686SOL    HW1 2957   1.821   7.037   6.261 -0.2883 -3.5938 -0.0103
  686SOL    HW2 2958   1.882   6.966   6.395  2.4100 -2.4177 -0.5527
  687SOL     OW 2959   0.095   0.232   5.042 -0.0361  0.0899 -0.0870
  687SOL    HW1 2960   0.135   0.150   5.083  2.3578  0.7069 -1.0321
  687SOL    HW2 2961  -0.005   0.229   5.053 -0.0286 -2.8473  0.0574
  688SOL     OW 2962   5.063   3.952   0.919  0.1002 -0.3129 -0.4660
  688SOL    HW1 2963   5.040   3.996   1.005 -1.7642  0.6132 -1.3723
  688SOL    HW2 2964   5.162   3.953   0.906  0.3354  0.3670  1.2138
  689SOL     OW 2965   1.158   0.338   6.027  0.3421 -0.1696 -0.4980
  689SOL    HW1 2966   1.255   0.344   6.048  0.2554  0.8535 -0.3525
  689SOL    HW2 2967   1.146   0.305   5.933  0.7817 -1.7203 -0.0345
  690SOL     OW 2968   4.755   4.348   4.841 -0.1011  0.0372  0.1181
  690SOL    HW1 2969   4.748   4.277   4.771  1.1973  0.9825 -1.0321
  690SOL    HW2 2970   4.825   4.321   4.908  1.1502  0.6379 -0.8950
  691SOL     OW 2971   4.692   0.757   2.921 -0.9687 -0.4870  0.2904
  691SOL    HW1 2972   4.755   0.736   2.846  0.4615 -0.1778  1.3558
  691SOL    HW2 2973   4.626   0.826   2.891  0.4946  0.7116 -0.2593
  692SOL     OW 2974   0.011   6.783   3.372  0.2447  0.0930  0.0604
  692SOL    HW1 2975   0.072   6.707   3.349  0.8087  0.5207  0.1031
  692SOL    HW2 2976   0.060   6.869   3.360 -0.7343  0.5138 -1.0575
  693SOL     OW 2977   6.161   3.988   1.204 -0.4426  0.0519  0.0432
  693SOL    HW1 2978   6.141   3.939   1.119  1.4298  0.5670 -0.7350
  693SOL    HW2 2979   6.256   4.018   1.204 -1.2300  2.8551  0.9022
  694SOL     OW 2980   3.848   4.907   4.815 -0.5094 -0.6372  0.8303
  694SOL    HW1 2981   3.806   4.899   4.905 -1.2427  3.1022  0.9708
  694SOL    HW2 2982   3.901   4.991   4.810  0.6792 -1.4347 -1.8349
  695SOL     OW 2983   4.423   0.145   4.290  0.0532 -0.3479  0.0411
  695SOL    HW1 2984   4.423   0.104   4.199 -1.0145 -1.9824  0.7519
  695SOL    HW2 2985   4.458   0.079   4.356  0.7051  0.7841  0.8605
  696SOL     OW 2986   0.254   4.935   3.205  0.3032  0.2377  0.1637
  696SOL    HW1 2987   0.189   5.004   3.175  0.9688  0.7679 -0.0765
  696SOL    HW2 2988   0.224   4.896   3.292  1.0069  2.3435  1.4013
  697SOL     OW 2989   0.840   0.082   5.482 -0.3892 -0.3931  0.0528
  697SOL    HW1 2990   0.743   0.106   5.485 -0.4006  0.0908 -2.2086
  697SOL    HW2 2991   0.880   0.092   5.573 -1.6396  2.9159  0.3593
  698SOL     OW 2992   6.376   5.901   6.764  0.0327 -0.0370 -0.0502
  698SOL    HW1 2993   6.390   5.993   6.801 -0.9695 -0.7767  2.3894
  698SOL    HW2 2994   6.291   5.863   6.800  1.5148 -2.7523  0.8765
  699SOL     OW 2995   3.742   3.421   6.608  0.0264 -0.4741  0.2976
  699SOL    HW1 2996   3.805   3.366   6.553  0.7151  0.0512  0.5455
  699SOL    HW2 2997   3.677   3.468   6.548  0.6706 -0.0305 -0.0598
  700SOL     OW 2998   0.525   6.899   3.393 -0.2577 -0.2158 -0.5320
  700SOL    HW1 2999   0.463   6.859   3.325 -0.1705  0.6993 -1.1762
  700SOL    HW2 3000   0.495   6.992   3.414  0.4679 -0.0319 -0.2816
  701SOL     OW 3001   4.993   5.342   1.808  0.9822  0.4481 -0.1900
  701SOL    HW1 3002   5.083   5.299   1.812  0.9278  0.2605 -0.8016
  701SOL    HW2 3003   4.943   5.307   1.729  1.1468  2.0841 -1.0529
  702SOL     OW 3004   3.364   1.067   3.883  0.9226  0.1838  0.4760
  702SOL    HW1 3005   3.381   1.093   3.788  0.7019 -1.2897  0.0016
  702SOL    HW2 3006   3.276   1.103   3.913 -0.0762 -1.2263 -0.6491
  703SOL     OW 3007   6.287   2.628   0.026  0.0179 -0.6894 -0.1633
  703SOL    HW1 3008   6.281   2.529   0.012  1.1506 -0.5234 -2.3171
  703SOL    HW2 3009   6.239   2.674  -0.049 -0.1698  0.3909  0.6119
  704SOL     OW 3010   1.200   1.019   6.475 -0.3310 -0.5567  0.0457
  704SOL    HW1 3011   1.175   1.085   6.403  0.1244 -1.1119 -0.6399
  704SOL    HW2 3012   1.254   0.946   6.435 -1.2244 -1.6108  0.6996
  705SOL     OW 3013   6.914   5.180   0.045 -0.6473 -0.6436 -0.3640
  705SOL    HW1 3014   6.921   5.120  -0.035 -2.4145 -0.1468 -0.9503
  705SOL    HW2 3015   6.987   5.249   0.041 -0.1747 -1.1717 -1.0670
  706SOL     OW 3016   4.075   6.083   3.348  0.2170 -0.8471 -0.1070
  706SOL    HW1 3017   3.988   6.126   3.373  0.1346 -0.1741 -1.4648
  706SOL    HW2 3018   4.063   6.032   3.263  1.2091 -0.5344 -0.4437
  707SOL     OW 3019   3.811   6.993   5.633 -0.2033 -0.0782  0.5734
  707SOL    HW1 3020   3.781   7.069   5.576  1.8309  0.3756  0.0443
  707SOL    HW2 3021   3.740   6.972   5.700 -2.0325  0.3579 -1.1186
  708SOL     OW 3022   2.164   5.300   4.636  0.0531 -0.4040  0.1410
  708SOL    HW1 3023   2.248   5.314   4.584 -0.3131  0.9696 -0.1250
  708SOL    HW2 3024   2.090   5.272   4.574 -0.0661 -0.0471  0.1198
  709SOL     OW 3025   2.326   6.792   6.887 -0.1104 -0.6465  0.6285
  709SOL    HW1 3026   2.299   6.826   6.977  0.9920 -1.4758  1.3099
  709SOL    HW2 3027   2.425   6.802   6.876 -0.5566  2.2845 -1.7693
  710SOL     OW 3028   4.818   2.833   3.411  0.0287  0.0403 -0.1787
  710SOL    HW1 3029   4.879   2.775   3.464 -1.7459 -0.2249  1.7187
  710SOL    HW2 3030   4.754   2.776   3.360  0.4734  0.3213 -1.0654
  711SOL     OW 3031   0.452   5.300   0.462 -0.0852 -0.0981 -0.3054
  711SOL    HW1 3032   0.356   5.279   0.485 -0.0079 -0.0293  0.0946
  711SOL    HW2 3033   0.461   5.312   0.364 -0.7992  1.4419 -0.2084
  712SOL     OW 3034   4.977   5.654   5.658 -0.1717  0.2577  0.4558
  712SOL    HW1 3035   4.949   5.664   5.754 -2.5328 -0.9496 -0.0337
  712SOL    HW2 3036   4.993   5.744   5.618 -2.4944  1.0267  1.1078
  713SOL     OW 3037   2.931   2.900   5.332 -0.2837 -0.2217 -0.0122
  713SOL    HW1 3038   2.841   2.931   5.304 -0.5890 -0.9159  0.1740
  713SOL    HW2 3039   2.922   2.817   5.388  0.3638  0.5396  1.2645
  714SOL     OW 3040   6.595   5.418   1.672  0.2324 -0.4243 -0.0564
  714SOL    HW1 3041   6.535   5.344   1.640  0.6065 -0.3573 -0.9304
  714SOL    HW2 3042   6.666   5.435   1.604 -0.0672  0.9888 -0.0305
  715SOL     OW 3043   6.211   3.215   0.008 -0.4138  0.1156  0.3776
  715SOL    HW1 3044   6.302   3.181  -0.015 -0.2399  1.2857 -0.7598
  715SOL    HW2 3045   6.211   3.315   0.005 -1.5834  0.1530  0.9927
  716SOL     OW 3046   1.576   0.686   6.067  0.1547 -0.1565  0.0369
  716SOL    HW1 3047   1.658   0.653   6.019 -0.4859 -1.2998 -0.3322
  716SOL    HW2 3048   1.535   0.760   6.014 -0.4933 -1.3423 -1.1905
  717SOL     OW 3049   5.219   5.479   3.953 -0.5282 -0.4437 -0.1013
  717SOL    HW1 3050   5.290   5.423   3.912 -0.4734 -0.3656 -0.1124
  717SOL    HW2 3051   5.178   5.429   4.030  2.0588  0.9364  2.3214
  718SOL     OW 3052   5.362   3.443   3.695  0.2009  0.2230  0.1592
  718SOL    HW1 3053   5.456   3.478   3.691 -0.3258  1.6221 -0.7980
  718SOL    HW2 3054   5.363   3.344   3.703  1.7543  0.2122  0.0387
  719SOL     OW 3055   3.879   4.862   3.160  0.7084  0.3689 -0.2402
  719SOL    HW1 3056   3.916   4.870   3.252  1.0737  0.3281 -0.3797
  719SOL    HW2 3057   3.950   4.825   3.099  0.6772  0.9949 -0.6664
  720SOL     OW 3058   2.486   2.316   2.344 -0.4113  0.0903 -0.2370
  720SOL    HW1 3059   2.565   2.365   2.305  0.0225  0.4105  1.0110
  720SOL    HW2 3060   2.446   2.370   2.418 -0.0548 -1.3185  1.0294
  721SOL     OW 3061   0.263   2.413   3.584 -0.0402  0.1690  0.4082
  721SOL    HW1 3062   0.360   2.431   3.567 -0.3703  1.2726 -0.4836
  721SOL    HW2 3063   0.248   2.315   3.586  1.3740 -0.0607  2.3715
  722SOL     OW 3064   6.061   4.819   2.729  0.2204 -0.2011 -0.5942
  722SOL    HW1 3065   6.062   4.855   2.636  0.2021 -0.7826 -0.8202
  722SOL    HW2 3066   5.966   4.811   2.761  0.2114 -0.3437 -0.6568
  723SOL     OW 3067   3.278   0.340   5.442 -0.1259  0.5108  0.1546
  723SOL    HW1 3068   3.239   0.282   5.371  0.9370 -1.1560  0.8480
  723SOL    HW2 3069   3.219   0.419   5.458 -0.8156  0.4705 -1.9410
  724SOL     OW 3070   2.379   2.306   4.499 -0.2009  0.3434  0.4308
  724SOL    HW1 3071   2.286   2.290   4.532 -0.8842  0.9689 -1.0775
  724SOL    HW2 3072   2.427   2.219   4.490 -1.1437 -0.1430 -0.1122
  725SOL     OW 3073   2.870   2.349   4.315 -0.0828  0.5986 -0.5775
  725SOL    HW1 3074   2.810   2.415   4.359 -0.7269 -0.8466  0.8063
  725SOL    HW2 3075   2.843   2.337   4.220 -2.2811 -0.2755  0.0912
  726SOL     OW 3076   1.381   4.213   6.520 -0.1095 -0.0646  0.2569
  726SOL    HW1 3077   1.437   4.244   6.597 -0.6363 -0.4020  0.7898
  726SOL    HW2 3078   1.317   4.143   6.552 -0.4859 -0.0517 -0.4464
  727SOL     OW 3079   2.054   6.054   5.080 -0.0077 -0.2910  0.2318
  727SOL    HW1 3080   1.959   6.034   5.103 -0.4667  0.0479 -1.2497
  727SOL    HW2 3081   2.108   6.059   5.164 -1.3749 -0.0213  1.1340
  728SOL     OW 3082   0.477   3.039   3.951  0.7949 -0.0024  0.2207
  728SOL    HW1 3083   0.477   3.075   4.045 -0.2491  0.0434  0.2070
  728SOL    HW2 3084   0.505   2.943   3.953  1.4321  0.1838  0.5026
  729SOL     OW 3085   5.978   3.762   2.027  0.6851  0.5541 -0.4445
  729SOL    HW1 3086   6.071   3.753   1.990  0.6284 -0.4576 -0.3850
  729SOL    HW2 3087   5.930   3.675   2.015 -0.2684  1.0816 -0.4940
  730SOL     OW 3088   2.980   2.239   4.637 -0.3457 -0.2621 -0.3716
  730SOL    HW1 3089   2.946   2.277   4.551 -2.3983 -1.3306 -0.0849
  730SOL    HW2 3090   2.904   2.223   4.699  0.8937 -1.2705  0.9603
  731SOL     OW 3091   4.905   4.332   5.099  0.1377 -0.1587 -0.6652
  731SOL    HW1 3092   4.954   4.415   5.124  1.4459 -0.7156 -1.2505
  731SOL    HW2 3093   4.971   4.257   5.089 -1.1210 -1.5249  0.8803
  732SOL     OW 3094   4.696   5.616   3.484  1.0932 -0.3718  0.3328
  732SOL    HW1 3095   4.755   5.661   3.551  0.5897  2.1705 -0.8350
  732SOL    HW2 3096   4.618   5.576   3.531  0.3536  2.0138  1.2777
  733SOL     OW 3097   5.778   5.038   5.018 -0.1228  0.2718 -0.0907
  733SOL    HW1 3098   5.834   5.092   5.081  0.2442 -0.9246  0.6602
  733SOL    HW2 3099   5.766   4.946   5.056 -0.4119 -0.2917 -1.4847
  734SOL     OW 3100   6.294   6.247   3.516  0.2749  0.1683  0.0166
  734SOL    HW1 3101   6.242   6.242   3.430  1.1373 -0.9347 -0.4660
  734SOL    HW2 3102   6.377   6.300   3.501  1.6820 -2.0672 -0.5565
  735SOL     OW 3103   5.745   0.607   1.901  0.5437 -0.2073  0.0867
  735SOL    HW1 3104   5.701   0.527   1.859  0.9697 -0.0277 -0.7222
  735SOL    HW2 3105   5.685   0.645   1.970  0.3617 -1.2788  0.5446
  736SOL     OW 3106   1.588   0.106   1.396 -0.4145  0.5107 -0.4487
  736SOL    HW1 3107   1.596   0.170   1.472 -1.7276 -0.5081  0.6053
  736SOL    HW2 3108   1.580   0.013   1.431  0.0680 -0.1054 -1.8925
  737SOL     OW 3109   2.455   2.645   6.422  0.2360  0.3040 -0.1182
  737SOL    HW1 3110   2.502   2.663   6.336 -0.9320  1.3977 -0.5531
  737SOL    HW2 3111   2.426   2.731   6.464 -1.1654 -0.3106  0.2446
  738SOL     OW 3112   1.296   4.776   2.657 -0.9884 -0.3112 -0.1989
  738SOL    HW1 3113   1.246   4.705   2.707 -1.5134 -0.4679 -0.9423
  738SOL    HW2 3114   1.272   4.772   2.560 -0.7464  0.6491 -0.3050
  739SOL     OW 3115   1.900   6.776   3.659  0.6225 -0.6131 -0.2052
  739SOL    HW1 3116   1.805   6.797   3.682  1.3637  1.6565  1.1358
  739SOL    HW2 3117   1.909   6.767   3.559 -0.9799 -0.8771 -0.3503
  740SOL     OW 3118   4.947   2.865   1.676 -0.2728  0.2905  0.7098
  740SOL    HW1 3119   4.950   2.897   1.771  0.2359  0.4264  0.6524
  740SOL    HW2 3120   4.852   2.858   1.646 -0.4049  1.6282  0.7676
  741SOL     OW 3121   3.659   0.885   3.418  0.3851 -1.0837 -0.9851
  741SOL    HW1 3122   3.709   0.892   3.504  0.1340  0.6085 -0.9401
  741SOL    HW2 3123   3.724   0.892   3.342  0.4391 -1.0094 -0.9323
  742SOL     OW 3124   1.862   6.230   1.144 -0.3162 -0.3952 -0.1383
  742SOL    HW1 3125   1.891   6.320   1.177 -1.0975 -0.8637  1.9645
  742SOL    HW2 3126   1.935   6.190   1.090  0.2155  1.3056 -0.7670
  743SOL     OW 3127   6.598   6.485   2.307 -0.1928 -0.0615 -0.4612
  743SOL    HW1 3128   6.580   6.449   2.399 -0.7885  0.4096 -0.3841
  743SOL    HW2 3129   6.656   6.566   2.313 -1.9837  1.2647 -0.2928
  744SOL     OW 3130   4.657   0.736   1.392 -0.3673  0.1327  0.1413
  744SOL    HW1 3131   4.613   0.772   1.474 -0.8228  1.8738 -0.8087
  744SOL    HW2 3132   4.643   0.800   1.316 -0.6345 -1.8063 -1.5101
  745SOL     OW 3133   6.513   7.021   5.651  0.1238  0.4395  0.1609
  745SOL    HW1 3134   6.459   6.940   5.673  1.5798 -0.8169 -0.7381
  745SOL    HW2 3135   6.539   7.018   5.555  0.5099  1.8057  0.2077
  746SOL     OW 3136   6.185   4.065   0.517  0.5006  0.4622  0.1015
  746SOL    HW1 3137   6.251   3.992   0.533 -0.8792 -0.7523  0.4839
  746SOL    HW2 3138   6.093   4.027   0.517 -0.4016  2.4437  1.8987
  747SOL     OW 3139   2.625   5.201   1.057 -0.2358 -0.2880 -0.4189
  747SOL    HW1 3140   2.559   5.187   0.983  0.4417  0.1859 -1.1231
  747SOL    HW2 3141   2.709   5.241   1.020  0.1142 -0.0442  0.6088
  748SOL     OW 3142   0.258   4.472   1.820 -0.1749 -0.1768  0.0071
  748SOL    HW1 3143   0.244   4.421   1.736 -1.7460  1.2276 -0.6410
  748SOL    HW2 3144   0.184   4.452   1.884  0.0424  0.1214  0.3571
  749SOL     OW 3145   4.978   4.543   3.902  0.8548 -0.2439  0.4246
  749SOL    HW1 3146   4.901   4.500   3.949  0.1953 -0.5293 -0.8562
  749SOL    HW2 3147   5.031   4.473   3.854 -0.7489  0.3405 -2.4273
  750SOL     OW 3148   2.459   2.406   1.017  0.2686  0.1777  0.2816
  750SOL    HW1 3149   2.509   2.326   0.984 -0.6624  0.3965 -1.7881
  750SOL    HW2 3150   2.515   2.488   1.004  0.8910 -0.0123  1.6297
  751SOL     OW 3151   4.713   1.785   0.318  0.1868 -0.5277  0.2818
  751SOL    HW1 3152   4.615   1.803   0.315  0.3832  0.5380 -2.1287
  751SOL    HW2 3153   4.760   1.866   0.355  0.2788 -0.2941 -0.3367
  752SOL     OW 3154   3.294   3.787   3.008  0.2224  0.7586 -0.7639
  752SOL    HW1 3155   3.370   3.839   2.968 -0.9147  1.6852 -1.8188
  752SOL    HW2 3156   3.286   3.700   2.961  2.3085 -0.6096  1.1904
  753SOL     OW 3157   3.502   4.013   4.098 -0.0962 -0.2552 -0.2162
  753SOL    HW1 3158   3.520   4.079   4.172  0.1093  0.0083 -0.5002
  753SOL    HW2 3159   3.403   4.004   4.086 -0.1322 -0.3139  0.1047
  754SOL     OW 3160   4.053   0.504   4.775  0.1325 -0.4364 -0.3108
  754SOL    HW1 3161   4.135   0.561   4.769  0.9477 -1.6918 -1.9952
  754SOL    HW2 3162   4.079   0.408   4.773 -1.3272 -0.8713  0.4805
  755SOL     OW 3163   4.714   4.848   5.455 -0.2255  0.0560  0.2652
  755SOL    HW1 3164   4.751   4.787   5.386  0.5178  0.3813  0.3637
  755SOL    HW2 3165   4.789   4.894   5.502 -0.7489  0.4210  0.7534
  756SOL     OW 3166   1.369   5.059   4.887  0.2386 -0.3792 -0.2855
  756SOL    HW1 3167   1.380   4.961   4.904 -2.6761 -0.4310  2.0985
  756SOL    HW2 3168   1.389   5.110   4.971  0.8873  1.0340 -1.2568
  757SOL     OW 3169   7.022   6.700   2.440  0.2382  0.1520 -0.2483
  757SOL    HW1 3170   6.924   6.699   2.422 -0.1400  3.0095  1.1185
  757SOL    HW2 3171   7.040   6.663   2.531  0.5745 -1.3185 -0.8943
  758SOL     OW 3172   3.100   2.279   6.135 -0.4478  0.2603  0.0368
  758SOL    HW1 3173   3.009   2.296   6.171  0.3515 -1.5739  3.2915
  758SOL    HW2 3174   3.101   2.193   6.084 -0.4562  0.0570  0.3789
  759SOL     OW 3175   6.222   1.830   3.320  0.2009 -0.2635 -0.2760
  759SOL    HW1 3176   6.152   1.866   3.382 -1.8393 -2.6031 -1.0463
  759SOL    HW2 3177   6.309   1.823   3.368 -0.2329  1.9908  0.9735
  760SOL     OW 3178   5.352   6.072   3.429 -1.0167 -0.0421 -0.0491
  760SOL    HW1 3179   5.294   6.154   3.421  1.1805  1.5062 -0.9004
  760SOL    HW2 3180   5.440   6.097   3.469 -0.1369 -1.9431 -0.7091
  761SOL     OW 3181   4.839   5.937   6.382 -0.0331  0.5689  0.0323
  761SOL    HW1 3182   4.758   5.983   6.418  0.3826  0.1050  1.6198
  761SOL    HW2 3183   4.817   5.841   6.362  0.4261  0.0870  1.7116
  762SOL     OW 3184   4.481   0.198   5.405  0.5248  0.0164 -0.4789
  762SOL    HW1 3185   4.553   0.142   5.444 -0.6348 -0.9384  0.3770
  762SOL    HW2 3186   4.394   0.178   5.451  0.1646  3.0976  0.4422
  763SOL     OW 3187   6.966   0.971   0.702  0.1559  0.2487 -0.0498
  763SOL    HW1 3188   6.899   1.042   0.720 -0.0254 -0.2104  1.1535
  763SOL    HW2 3189   6.993   0.974   0.605 -0.5129  1.3547 -0.2109
  764SOL     OW 3190   4.114   6.134   4.527 -0.1905  0.1166 -0.3635
  764SOL    HW1 3191   4.199   6.137   4.580  0.8225 -1.7047 -1.7741
  764SOL    HW2 3192   4.133   6.155   4.431 -0.6055 -3.5706 -1.4103
  765SOL     OW 3193   6.453   0.604   0.961  0.2164 -0.1237  0.6640
  765SOL    HW1 3194   6.521   0.533   0.978  0.0587 -1.0763 -2.0665
  765SOL    HW2 3195   6.369   0.583   1.010  0.2643 -1.7107  0.1106
  766SOL     OW 3196   2.924   1.478   4.252  0.5667  0.3863  0.0939
  766SOL    HW1 3197   3.001   1.467   4.189 -0.6512 -2.5178 -1.1059
  766SOL    HW2 3198   2.927   1.406   4.321 -0.6200  0.7405  0.5452
  767SOL     OW 3199   5.624   1.180   3.007 -0.5141 -0.4580 -0.4660
  767SOL    HW1 3200   5.717   1.200   3.037 -0.1821  1.3705 -2.4861
  767SOL    HW2 3201   5.620   1.087   2.970  0.5321 -0.5120 -0.4734
  768SOL     OW 3202   3.230   5.536   1.672  0.3065  0.3858 -0.5216
  768SOL    HW1 3203   3.262   5.629   1.688 -1.0265  0.8614 -0.5130
  768SOL    HW2 3204   3.177   5.532   1.587 -1.4683  0.1371  0.5410
  769SOL     OW 3205   4.019   2.005   3.683 -0.3257 -0.2312 -0.3102
  769SOL    HW1 3206   3.941   2.057   3.649 -1.8742 -2.5948 -0.5752
  769SOL    HW2 3207   4.037   2.032   3.778 -0.5995  1.2335 -0.6396
  770SOL     OW 3208   0.553   3.819   6.362 -0.0313  0.2141  0.5783
  770SOL    HW1 3209   0.598   3.730   6.351  0.9694  0.6878  0.7454
  770SOL    HW2 3210   0.508   3.822   6.451 -1.3714 -0.6775 -0.0394
  771SOL     OW 3211   1.620   3.598   2.020 -0.6918 -0.0242  0.0041
  771SOL    HW1 3212   1.677   3.577   2.100 -0.7397  0.2235  0.1054
  771SOL    HW2 3213   1.624   3.522   1.955 -0.1936  0.0169 -0.0176
  772SOL     OW 3214   0.906   3.706   6.700 -0.4286  0.0940 -0.1534
  772SOL    HW1 3215   0.997   3.668   6.714 -0.1821 -0.3258 -2.4878
  772SOL    HW2 3216   0.899   3.743   6.607 -2.0583  1.8531  0.5881
  773SOL     OW 3217   2.529   4.617   3.836 -0.1565 -0.1775 -0.0827
  773SOL    HW1 3218   2.570   4.554   3.769  1.8018 -0.5729  1.4165
  773SOL    HW2 3219   2.472   4.565   3.900  1.0372 -0.3879  0.8353
  774SOL     OW 3220   1.395   0.808   3.883  0.4762  0.4200 -0.3809
  774SOL    HW1 3221   1.322   0.851   3.831 -1.1752 -1.4504  0.2498
  774SOL    HW2 3222   1.450   0.750   3.822 -0.4542 -0.4974 -0.3806
  775SOL     OW 3223   1.852   6.513   1.970 -0.6562  0.3938  0.1703
  775SOL    HW1 3224   1.844   6.613   1.971 -0.4494  0.4112  0.9722
  775SOL    HW2 3225   1.948   6.487   1.975 -0.6978  0.1494 -0.2274
  776SOL     OW 3226   3.341   4.281   1.602  0.0295  0.6770  0.4281
  776SOL    HW1 3227   3.403   4.245   1.532 -2.2699  0.0618 -1.4525
  776SOL    HW2 3228   3.344   4.222   1.682  1.5527  0.4385  0.2130
  777SOL     OW 3229   3.097   4.602   6.404  0.0402 -0.4519  0.7750
  777SOL    HW1 3230   3.054   4.519   6.439  0.7497 -0.5859  1.3639
  777SOL    HW2 3231   3.193   4.584   6.384  0.3981  0.3938  1.6022
  778SOL     OW 3232   4.233   6.838   1.163 -0.0072  0.3456 -0.0007
  778SOL    HW1 3233   4.200   6.856   1.256  1.1289  1.9239  0.1345
  778SOL    HW2 3234   4.177   6.888   1.098 -0.0806  0.1648 -0.0782
  779SOL     OW 3235   4.711   2.747   2.402 -0.2988  0.2790 -0.4102
  779SOL    HW1 3236   4.733   2.672   2.340  0.5782 -0.9458  1.3112
  779SOL    HW2 3237   4.644   2.717   2.470 -3.9242  2.5754 -2.6531
  780SOL     OW 3238   5.326   1.181   3.968 -0.3408  0.2460 -0.4720
  780SOL    HW1 3239   5.291   1.104   4.022 -2.6118  0.6602 -1.2598
  780SOL    HW2 3240   5.262   1.258   3.974  0.7096  1.2577 -1.5944
  781SOL     OW 3241   0.915   3.816   6.428  0.3059 -0.3191  0.2353
  781SOL    HW1 3242   0.921   3.915   6.440  0.1611 -0.3540  0.6432
  781SOL    HW2 3243   1.004   3.781   6.397  0.4179 -0.0853  0.2840
  782SOL     OW 3244   6.887   6.635   5.944 -0.3572 -0.5205 -0.4746
  782SOL    HW1 3245   6.941   6.587   5.875  0.7077 -0.2616  0.1419
  782SOL    HW2 3246   6.794   6.600   5.945  0.0310 -1.6006 -0.9734
  783SOL     OW 3247   6.486   4.743   4.883 -0.2094 -0.2524 -0.0178
  783SOL    HW1 3248   6.491   4.833   4.839 -0.6068 -0.1355  0.1748
  783SOL    HW2 3249   6.546   4.679   4.835  0.8068  0.3534  0.4067
  784SOL     OW 3250   1.735   5.426   0.047 -0.2702  0.1590 -0.1620
  784SOL    HW1 3251   1.726   5.359  -0.026 -2.1998 -0.1741  0.3113
  784SOL    HW2 3252   1.755   5.516   0.008  1.8372 -0.5341 -0.8358
  785SOL     OW 3253   0.816   0.459   2.332  0.4265 -0.3359 -0.4135
  785SOL    HW1 3254   0.777   0.397   2.400 -0.0484 -0.2440 -0.5968
  785SOL    HW2 3255   0.890   0.511   2.373 -1.5056  1.6277  0.8563
  786SOL     OW 3256   0.553   3.515   4.909  0.3967  0.1002 -0.3977
  786SOL    HW1 3257   0.631   3.483   4.856  1.3803 -0.5765  1.3775
  786SOL    HW2 3258   0.549   3.615   4.907  0.8105  0.1071 -1.1686
  787SOL     OW 3259   1.937   6.503   1.183 -0.3203 -0.5331  0.1686
  787SOL    HW1 3260   1.967   6.590   1.221 -0.8287 -0.6068  0.7504
  787SOL    HW2 3261   1.844   6.513   1.147  0.2473 -0.3808 -1.3438
  788SOL     OW 3262   2.461   0.626   3.861  0.6295  0.4537 -0.2317
  788SOL    HW1 3263   2.408   0.668   3.935 -0.0322  0.2218 -0.5661
  788SOL    HW2 3264   2.409   0.551   3.821  1.1597  0.3088 -0.6581
  789SOL     OW 3265   3.534   4.119   0.056  0.0086  0.7153  0.1515
  789SOL    HW1 3266   3.510   4.123  -0.041  1.3922  0.9443 -0.2013
  789SOL    HW2 3267   3.574   4.206   0.084  0.5489  0.3077  0.6673
  790SOL     OW 3268   0.115   3.118   3.786 -0.0604  0.0280 -0.0887
  790SOL    HW1 3269   0.162   3.067   3.858  0.2344 -0.0806 -0.3599
  790SOL    HW2 3270   0.070   3.198   3.827  4.1200  2.8223 -0.3678
  791SOL     OW 3271   4.834   2.234   6.182 -0.2098  0.2398 -0.0989
  791SOL    HW1 3272   4.856   2.278   6.095 -1.5971 -2.4312 -1.9433
  791SOL    HW2 3273   4.823   2.135   6.167  1.4716 -0.6477  3.5347
  792SOL     OW 3274   1.509   2.416   0.982 -0.1018  0.4399  0.2303
  792SOL    HW1 3275   1.604   2.432   0.957 -0.0722  0.9609  0.6589
  792SOL    HW2 3276   1.503   2.391   1.078 -0.3720  0.1083  0.1305
  793SOL     OW 3277   2.364   5.024   3.509  0.1074  0.7683 -0.2851
  793SOL    HW1 3278   2.313   5.105   3.537 -0.6524  0.4439 -0.6979
  793SOL    HW2 3279   2.392   4.972   3.590  0.1026  1.1412 -0.0435
  794SOL     OW 3280   3.292   3.726   1.172  0.0819 -0.1025  0.4252
  794SOL    HW1 3281   3.340   3.644   1.204 -1.8443 -0.4992  2.5416
  794SOL    HW2 3282   3.205   3.735   1.220 -0.2116  2.6917 -0.4265
  795SOL     OW 3283   3.771   0.215   5.480 -0.8145  0.5743 -0.3967
  795SOL    HW1 3284   3.816   0.295   5.441 -2.2371  0.9242 -1.3593
  795SOL    HW2 3285   3.758   0.229   5.578  1.4515  0.3010  0.0131
  796SOL     OW 3286   2.555   1.999   6.214 -0.8050 -0.2347  0.2067
  796SOL    HW1 3287   2.530   1.943   6.135  0.9495 -3.2558  1.6378
  796SOL    HW2 3288   2.654   2.015   6.214 -0.7765 -0.2326  1.7280
  797SOL     OW 3289   4.740   6.677   6.963 -1.0010 -0.0059  0.2508
  797SOL    HW1 3290   4.699   6.614   7.028 -0.6283  0.2298  0.7236
  797SOL    HW2 3291   4.734   6.771   6.999  2.1344 -0.1760  1.5535
  798SOL     OW 3292   6.613   4.222   1.812 -0.0287 -0.0839  0.3974
  798SOL    HW1 3293   6.553   4.182   1.882  0.5622 -0.3091  0.7819
  798SOL    HW2 3294   6.641   4.313   1.841  0.9477 -0.5291  0.8990
  799SOL     OW 3295   3.473   3.740   4.134 -0.1335 -0.0975  0.0433
  799SOL    HW1 3296   3.547   3.694   4.185 -0.5262 -1.1248 -0.2864
  799SOL    HW2 3297   3.475   3.837   4.155  0.9333 -0.1965  0.5189
  800SOL     OW 3298   4.937   4.031   4.856  0.2783 -0.1335 -0.7916
  800SOL    HW1 3299   4.985   4.041   4.943 -0.6113  1.1889 -0.4170
  800SOL    HW2 3300   4.838   4.037   4.871  0.0529 -1.0078 -1.7658
  801SOL     OW 3301   1.453   4.021   1.895 -0.0897  0.2262  0.1282
  801SOL    HW1 3302   1.415   3.952   1.834  1.5065  0.7344 -1.5290
  801SOL    HW2 3303   1.508   3.976   1.965 -0.4197 -0.2633  0.0814
  802SOL     OW 3304   3.688   2.122   6.085 -0.3441  0.1929 -0.7427
  802SOL    HW1 3305   3.670   2.148   5.990 -0.8274  0.3615 -0.6021
  802SOL    HW2 3306   3.755   2.185   6.124 -0.6690  0.5469 -0.7519
  803SOL     OW 3307   3.434   1.743   4.830  0.0826 -0.0821 -0.1980
  803SOL    HW1 3308   3.408   1.780   4.741  1.0452 -1.0749 -0.9241
  803SOL    HW2 3309   3.386   1.657   4.847 -0.7831  0.5478  0.6712
  804SOL     OW 3310   3.731   6.302   2.859  0.1786  0.1274 -0.1573
  804SOL    HW1 3311   3.666   6.353   2.802 -1.0733 -0.7680  0.4400
  804SOL    HW2 3312   3.710   6.205   2.855  0.8171 -0.0671  0.9071
  805SOL     OW 3313   2.021   1.259   4.887  0.0697  0.0131  0.2861
  805SOL    HW1 3314   2.038   1.264   4.789 -1.4499  0.9241  0.0272
  805SOL    HW2 3315   1.944   1.319   4.910  0.7816  0.2812  2.1335
  806SOL     OW 3316   4.205   6.816   5.508 -0.0006  0.0172  1.0421
  806SOL    HW1 3317   4.206   6.879   5.586 -1.7386 -0.4693  1.4991
  806SOL    HW2 3318   4.119   6.826   5.458  1.1891  0.5129 -1.0195
  807SOL     OW 3319   1.555   6.408   5.992 -0.0955  0.3832  0.6920
  807SOL    HW1 3320   1.524   6.398   6.087  0.9527  1.8321  1.2090
  807SOL    HW2 3321   1.653   6.387   5.986 -0.0868  0.5965 -0.0149
  808SOL     OW 3322   4.931   0.704   5.146 -0.0645 -0.4297  0.0973
  808SOL    HW1 3323   4.852   0.725   5.203 -0.6209 -0.9458 -0.4654
  808SOL    HW2 3324   4.956   0.784   5.092 -1.2190 -0.7238 -0.9115
  809SOL     OW 3325   3.382   6.646   2.273 -0.6373 -0.1195 -0.1208
  809SOL    HW1 3326   3.328   6.690   2.345 -0.9540 -0.0991 -0.3668
  809SOL    HW2 3327   3.459   6.704   2.248 -0.5208 -0.1331  0.2132
  810SOL     OW 3328   3.756   3.212   6.082  1.2550  0.3014  0.1638
  810SOL    HW1 3329   3.823   3.286   6.083  1.1485  0.3952  0.2662
  810SOL    HW2 3330   3.687   3.231   6.012  0.5916  0.8579  0.9530
  811SOL     OW 3331   4.462   0.368   6.828 -0.6040 -0.2182 -0.4046
  811SOL    HW1 3332   4.389   0.304   6.852 -0.3541 -0.5835 -0.6022
  811SOL    HW2 3333   4.550   0.320   6.833 -0.3516  0.2810  0.0866
  812SOL     OW 3334   1.887   2.804   5.747 -0.4182 -0.5691 -0.8583
  812SOL    HW1 3335   1.846   2.892   5.770 -1.0224 -1.0964  0.1640
  812SOL    HW2 3336   1.937   2.769   5.827 -0.5773 -1.3689 -1.1082
  813SOL     OW 3337   0.639   1.386   5.434  0.2553 -0.0342 -0.1290
  813SOL    HW1 3338   0.605   1.303   5.388  1.3460 -1.6094  1.7535
  813SOL    HW2 3339   0.711   1.427   5.378 -3.3718  2.6177 -3.5326
  814SOL     OW 3340   1.037   5.364   2.636 -0.5530 -0.1331  0.1171
  814SOL    HW1 3341   1.017   5.375   2.538  1.0051 -0.1229 -0.2210
  814SOL    HW2 3342   0.973   5.419   2.690 -3.0990 -2.0470 -0.7271
  815SOL     OW 3343   4.453   6.208   4.136 -0.3851 -0.6442  0.6273
  815SOL    HW1 3344   4.433   6.234   4.230 -1.5892  0.0157  0.2088
  815SOL    HW2 3345   4.383   6.146   4.103  1.1420 -2.5700  0.8043
  816SOL     OW 3346   6.583   2.706   6.978 -0.0381 -0.0497 -0.0793
  816SOL    HW1 3347   6.632   2.620   6.992  0.5842  0.1738 -0.8070
  816SOL    HW2 3348   6.489   2.686   6.949  0.3234 -0.5020 -0.9833
  817SOL     OW 3349   5.361   4.130   6.742 -0.0406  0.1009  0.2690
  817SOL    HW1 3350   5.311   4.151   6.658 -2.6678 -0.0278  1.7015
  817SOL    HW2 3351   5.407   4.213   6.774  0.8876  0.1850 -1.1676
  818SOL     OW 3352   6.485   1.976   5.899  0.3790  0.3714 -0.4175
  818SOL    HW1 3353   6.569   1.949   5.946 -0.9594 -1.5408  1.0882
  818SOL    HW2 3354   6.487   2.074   5.880  1.8491  0.8799  1.9341
  819SOL     OW 3355   5.101   3.012   0.207 -0.0337 -0.4462 -0.2216
  819SOL    HW1 3356   5.100   2.984   0.111  0.9445  0.4211 -0.5017
  819SOL    HW2 3357   5.016   3.059   0.230  0.5952  1.2795 -1.2792
  820SOL     OW 3358   1.113   2.623   6.781  0.0110 -0.3925  0.1249
  820SOL    HW1 3359   1.060   2.577   6.710  2.0532 -1.5960 -0.7104
  820SOL    HW2 3360   1.053   2.644   6.859 -1.8536 -0.7964 -1.1327
  821SOL     OW 3361   6.270   4.606   0.287 -0.5999 -0.4989  0.0929
  821SOL    HW1 3362   6.277   4.508   0.268 -1.0181 -0.4144 -0.4881
  821SOL    HW2 3363   6.180   4.640   0.261 -1.7987 -0.6587  3.5014
  822SOL     OW 3364   5.731   5.236   4.126 -0.2540 -0.2842  0.4745
  822SOL    HW1 3365   5.645   5.283   4.111  0.6824  1.6262  0.7650
  822SOL    HW2 3366   5.770   5.208   4.038 -0.5681 -0.0377  0.2542
  823SOL     OW 3367   2.663   2.378   3.435  0.0057  0.4357  0.1206
  823SOL    HW1 3368   2.747   2.383   3.488  0.1229  0.4334 -0.0645
  823SOL    HW2 3369   2.670   2.304   3.367  0.3144  1.1843 -0.6843
  824SOL     OW 3370   4.123   2.185   5.216  0.3058 -0.7323  0.4882
  824SOL    HW1 3371   4.073   2.261   5.258 -1.2281 -2.0222  1.0827
  824SOL    HW2 3372   4.086   2.098   5.248  1.3780 -1.7638 -0.9208
  825SOL     OW 3373   0.041   6.185   1.256  0.5236 -0.1113 -0.2962
  825SOL    HW1 3374  -0.035   6.249   1.240 -0.1568 -0.4426  1.3407
  825SOL    HW2 3375   0.095   6.175   1.173 -0.1924  1.4951 -0.9974
  826SOL     OW 3376   0.428   1.911   1.249  0.4747  0.7076  0.5539
  826SOL    HW1 3377   0.348   1.969   1.264 -0.7743 -0.4861 -1.1007
  826SOL    HW2 3378   0.505   1.946   1.303 -0.4941  3.2441  0.4450
  827SOL     OW 3379   3.236   3.631   4.947 -0.6498 -0.1301  0.4483
  827SOL    HW1 3380   3.181   3.640   4.864  0.2608 -0.3312 -0.1863
  827SOL    HW2 3381   3.311   3.567   4.931 -0.6524 -0.4298  1.5358
  828SOL     OW 3382   1.349   6.208   0.002 -0.5827 -0.4336  0.4970
  828SOL    HW1 3383   1.423   6.260  -0.039 -0.7695  0.5429  1.3624
  828SOL    HW2 3384   1.313   6.142  -0.064  0.0889  0.0831 -0.3949
  829SOL     OW 3385   3.975   3.649   2.016 -0.3462 -0.1830  1.1485
  829SOL    HW1 3386   3.918   3.568   2.001 -0.9177  0.5519 -1.0931
  829SOL    HW2 3387   4.037   3.633   2.092 -0.4610 -2.7207  0.7872
  830SOL     OW 3388   1.514   5.964   0.924 -0.4563  0.1786  0.3120
  830SOL    HW1 3389   1.506   6.026   1.002 -0.5830  1.3365 -0.5938
  830SOL    HW2 3390   1.510   6.017   0.839  0.8542 -0.9096 -0.4738
  831SOL     OW 3391   3.547   1.935   4.523  0.1056  0.5826 -0.0731
  831SOL    HW1 3392   3.642   1.959   4.542 -0.2867  2.0023  0.2770
  831SOL    HW2 3393   3.509   1.999   4.456 -0.4634 -0.2837 -0.6007
  832SOL     OW 3394   4.142   1.392   4.913  0.5004 -0.6553 -0.8738
  832SOL    HW1 3395   4.217   1.408   4.978  0.7246  1.7602 -1.6368
  832SOL    HW2 3396   4.072   1.336   4.957 -0.1207  2.1229  2.1142
  833SOL     OW 3397   3.774   3.671   6.076  0.1903  0.2806  0.0649
  833SOL    HW1 3398   3.821   3.758   6.088  1.2621 -0.3327  0.4634
  833SOL    HW2 3399   3.677   3.682   6.096  0.5165  1.1241  1.2914
  834SOL     OW 3400   6.724   4.689   0.348 -0.2437  0.7385 -0.0604
  834SOL    HW1 3401   6.628   4.682   0.372  0.1256  0.1484  1.3905
  834SOL    HW2 3402   6.744   4.781   0.313 -0.9954  1.4740  1.3461
  835SOL     OW 3403   0.195   0.109   0.372  0.3946 -0.3601  0.3878
  835SOL    HW1 3404   0.209   0.161   0.288  1.7003 -0.7571  0.3313
  835SOL    HW2 3405   0.211   0.012   0.353 -2.2687 -0.8777  0.4236
  836SOL     OW 3406   5.821   6.214   3.438 -0.4728 -0.2949 -0.4964
  836SOL    HW1 3407   5.765   6.264   3.504  0.3183  1.1631 -0.8862
  836SOL    HW2 3408   5.845   6.124   3.476  1.2426  1.0515  1.9408
  837SOL     OW 3409   1.573   6.343   6.903 -0.1669  0.7331 -0.2640
  837SOL    HW1 3410   1.553   6.400   6.824  0.3301  0.0145 -0.9301
  837SOL    HW2 3411   1.593   6.401   6.982  0.5676  1.4944 -0.9803
  838SOL     OW 3412   0.210   0.169   3.562  0.3364 -0.2444  0.1551
  838SOL    HW1 3413   0.180   0.263   3.551 -2.5541 -1.1761 -0.8256
  838SOL    HW2 3414   0.169   0.130   3.645 -0.4198 -1.2824 -0.6763
  839SOL     OW 3415   3.536   5.535   1.034  0.2570  0.5204  0.2288
  839SOL    HW1 3416   3.449   5.583   1.024  1.0463  1.8522 -0.5885
  839SOL    HW2 3417   3.522   5.451   1.085 -1.6057  0.4108 -0.3933
  840SOL     OW 3418   2.750   3.562   1.289  0.5907 -0.6346  0.0457
  840SOL    HW1 3419   2.682   3.599   1.225  0.0529  0.5671  1.2667
  840SOL    HW2 3420   2.713   3.481   1.335 -0.1016  0.0882  0.7991
  841SOL     OW 3421   0.293   5.405   5.939  0.0098  0.0383 -0.0350
  841SOL    HW1 3422   0.347   5.360   6.010 -1.0347 -0.3344  0.5571
  841SOL    HW2 3423   0.244   5.335   5.886 -0.1675  0.3793 -0.3244
  842SOL     OW 3424   4.291   5.690   0.997 -0.3806 -0.1920  0.3193
  842SOL    HW1 3425   4.353   5.633   0.943 -0.7005  0.3699 -0.6698
  842SOL    HW2 3426   4.215   5.720   0.939 -1.3846 -0.5557  1.4150
  843SOL     OW 3427   1.141   5.079   3.390 -0.6535 -0.1980  0.6515
  843SOL    HW1 3428   1.078   5.141   3.343 -0.1856  0.8891  1.4121
  843SOL    HW2 3429   1.235   5.107   3.369 -0.4319 -0.9579  0.6224
  844SOL     OW 3430   5.794   0.504   2.424  0.3511 -0.0164  0.3059
  844SOL    HW1 3431   5.745   0.541   2.503  0.7820 -0.6921  0.9116
  844SOL    HW2 3432   5.837   0.578   2.373 -0.1269  0.4524  0.5740
  845SOL     OW 3433   4.432   2.970   1.671 -0.4561 -0.8426  0.1611
  845SOL    HW1 3434   4.474   2.881   1.655 -0.3788 -0.6218 -0.9531
  845SOL    HW2 3435   4.488   3.023   1.735  0.2677 -1.0430 -0.3002
  846SOL     OW 3436   0.204   6.326   0.462 -0.2566  0.1056 -0.8569
  846SOL    HW1 3437   0.166   6.253   0.517 -1.6283  1.6648  0.3600
  846SOL    HW2 3438   0.293   6.298   0.425  0.5710 -1.1331  1.8580
  847SOL     OW 3439   2.864   3.435   2.077 -0.0359  0.0715 -0.1087
  847SOL    HW1 3440   2.775   3.398   2.105  0.0544 -0.0222  0.0568
  847SOL    HW2 3441   2.878   3.417   1.979 -0.5772  0.8549 -0.3383
  848SOL     OW 3442   6.549   0.849   1.200  0.3492 -0.0576 -0.7973
  848SOL    HW1 3443   6.576   0.760   1.237  0.6798  0.2431 -0.3025
  848SOL    HW2 3444   6.451   0.861   1.211  0.4482  0.0377  0.0142
  849SOL     OW 3445   5.694   4.255   0.691  0.6170 -1.0530 -0.3559
  849SOL    HW1 3446   5.657   4.279   0.601  1.7605  0.3412 -0.4978
  849SOL    HW2 3447   5.622   4.262   0.760 -0.0086 -1.0486 -0.9994
  850SOL     OW 3448   3.714   2.134   5.380 -0.2495 -0.1352 -0.2376
  850SOL    HW1 3449   3.777   2.211   5.387 -0.9658  0.5755 -1.2724
  850SOL    HW2 3450   3.663   2.140   5.294 -0.2136 -1.8615 -0.4171
  851SOL     OW 3451   6.041   2.282   6.861  0.4522  0.0263  0.2400
  851SOL    HW1 3452   5.976   2.357   6.877 -0.0411 -0.7722  2.3047
  851SOL    HW2 3453   6.008   2.225   6.786 -0.6150  0.3253  0.4656
  852SOL     OW 3454   1.519   4.245   1.283  0.2869 -0.4304 -0.5485
  852SOL    HW1 3455   1.492   4.191   1.203 -0.5128  1.9006 -1.9545
  852SOL    HW2 3456   1.618   4.253   1.287  0.3309 -0.5454 -1.3372
  853SOL     OW 3457   3.462   3.251   6.832 -0.2835  0.4928 -0.4433
  853SOL    HW1 3458   3.538   3.316   6.835 -0.8806  1.2409 -1.0929
  853SOL    HW2 3459   3.376   3.301   6.824 -0.8473 -0.3454  0.2375
  854SOL     OW 3460   1.116   5.910   0.489 -0.1795  0.6687 -0.1408
  854SOL    HW1 3461   1.190   5.868   0.543 -0.2001  1.9553  0.9673
  854SOL    HW2 3462   1.028   5.876   0.522 -0.1253 -1.8335 -2.3018
  855SOL     OW 3463   4.202   4.346   0.332  0.0999 -0.2614 -0.2840
  855SOL    HW1 3464   4.159   4.328   0.420 -0.7806  2.5159 -0.0465
  855SOL    HW2 3465   4.132   4.376   0.267  1.1161  0.4073 -1.0991
  856SOL     OW 3466   2.102   5.264   1.694 -0.1770 -0.2715  0.2499
  856SOL    HW1 3467   2.107   5.321   1.776 -1.8721  0.7728 -0.3156
  856SOL    HW2 3468   2.185   5.210   1.686  1.3460  1.8315  1.0363
  857SOL     OW 3469   6.770   6.178   5.658  0.0708 -0.3770  0.2803
  857SOL    HW1 3470   6.765   6.209   5.753 -3.1070  1.0802 -0.2196
  857SOL    HW2 3471   6.840   6.230   5.609  1.0601 -0.4543  1.5759
  858SOL     OW 3472   3.989   4.319   0.649 -0.2322 -0.1956  0.3270
  858SOL    HW1 3473   4.048   4.318   0.730  2.6413  2.9519 -1.4526
  858SOL    HW2 3474   3.922   4.393   0.657 -1.0537 -0.9424  0.4836
  859SOL     OW 3475   4.604   0.939   0.178  0.0145  0.1679 -0.1097
  859SOL    HW1 3476   4.634   0.896   0.093 -0.4070  1.1911 -0.7972
  859SOL    HW2 3477   4.590   1.036   0.163  3.8093  1.2808  2.1099
  860SOL     OW 3478   3.769   2.822   0.495  0.2191 -0.0053 -0.6834
  860SOL    HW1 3479   3.758   2.862   0.586  1.6045  0.8556 -0.8524
  860SOL    HW2 3480   3.681   2.792   0.461 -0.6141  1.2722  0.2253
  861SOL     OW 3481   2.695   6.443   1.600  0.7021  0.9700  0.2235
  861SOL    HW1 3482   2.699   6.474   1.695  0.4803 -0.2773  0.6690
  861SOL    HW2 3483   2.621   6.490   1.552 -0.4581  0.2323  1.2307
  862SOL     OW 3484   6.752   4.721   4.431 -0.2281 -0.5556 -0.1910
  862SOL    HW1 3485   6.663   4.754   4.463 -0.3398 -1.4685  0.4854
  862SOL    HW2 3486   6.758   4.731   4.332 -0.4135  1.0766 -0.0757
  863SOL     OW 3487   4.987   0.085   2.198 -0.3194  0.0693  0.1153
  863SOL    HW1 3488   5.050   0.128   2.262 -1.7408  1.3374  0.7340
  863SOL    HW2 3489   4.903   0.059   2.247 -0.1400 -2.0417 -0.5686
  864SOL     OW 3490   6.083   3.767   3.660 -0.0285  0.1116  0.0539
  864SOL    HW1 3491   6.031   3.692   3.699 -1.0801  0.7948  0.0184
  864SOL    HW2 3492   6.027   3.814   3.591  0.5230  1.0396  0.2198
  865SOL     OW 3493   1.592   4.134   4.924 -0.0091 -0.4375  0.7965
  865SOL    HW1 3494   1.540   4.219   4.923  0.2026 -0.3095 -0.2590
  865SOL    HW2 3495   1.537   4.061   4.884  0.3280 -0.4703  0.3811
  866SOL     OW 3496   4.771   6.325   1.858  0.8002 -0.8324 -0.2191
  866SOL    HW1 3497   4.775   6.258   1.932  1.7307 -0.5428  0.0028
  866SOL    HW2 3498   4.793   6.280   1.771  1.0911 -0.8747 -0.1215
  867SOL     OW 3499   4.823   3.973   5.637 -0.9011 -0.0239 -0.0804
  867SOL    HW1 3500   4.882   3.917   5.580  0.4053  1.2964 -0.0871
  867SOL    HW2 3501   4.766   3.914   5.694  1.2354 -1.3950  0.7581
  868SOL     OW 3502   5.824   1.042   0.262 -0.2435  0.4149 -0.1121
  868SOL    HW1 3503   5.805   1.125   0.315 -1.3138  0.2554 -0.2136
  868SOL    HW2 3504   5.921   1.038   0.240 -0.2791  2.0484 -0.7647
  869SOL     OW 3505   0.818   2.475   1.874  0.2020 -0.0772  0.5491
  869SOL    HW1 3506   0.747   2.410   1.848 -0.5202  0.1935  1.7354
  869SOL    HW2 3507   0.836   2.466   1.972  0.8000  0.8354  0.5312
  870SOL     OW 3508   4.158   3.246   1.907 -0.0231 -0.2821 -0.2871
  870SOL    HW1 3509   4.129   3.239   2.002  1.8167 -0.2890  0.3227
  870SOL    HW2 3510   4.157   3.156   1.865  0.4472 -0.4993  0.1530
  871SOL     OW 3511   5.146   0.697   4.002  0.1926  0.2165 -0.1141
  871SOL    HW1 3512   5.074   0.641   4.045  1.5646 -1.9944 -0.5632
  871SOL    HW2 3513   5.193   0.643   3.933  0.1525  2.6917 -2.2130
  872SOL     OW 3514   1.202   2.390   5.450  1.2269 -0.3092  0.2390
  872SOL    HW1 3515   1.196   2.351   5.358  2.3483 -1.5412  0.6525
  872SOL    HW2 3516   1.263   2.469   5.449  0.0596  0.6196 -0.3338
  873SOL     OW 3517   3.988   0.963   5.183  0.0385  0.9977 -0.2414
  873SOL    HW1 3518   3.993   0.877   5.132  2.8468  0.1808  1.1907
  873SOL    HW2 3519   3.915   0.957   5.251  0.2571 -0.3487 -0.0836
  874SOL     OW 3520   5.606   3.764   3.088  0.1963  0.7263 -0.4437
  874SOL    HW1 3521   5.664   3.819   3.028  2.4744 -2.1781 -1.0924
  874SOL    HW2 3522   5.648   3.759   3.179 -1.3154  2.0414  0.3758
  875SOL     OW 3523   6.405   5.070   4.204 -0.4601 -0.3686  0.1531
  875SOL    HW1 3524   6.447   5.125   4.132 -2.1112 -0.4730 -0.9439
  875SOL    HW2 3525   6.437   4.976   4.198 -0.4840 -0.3456 -0.3655
  876SOL     OW 3526   5.897   3.800   5.396 -0.0314  0.1751 -0.2748
  876SOL    HW1 3527   5.920   3.704   5.379  1.0289  0.2371  0.6887
  876SOL    HW2 3528   5.799   3.815   5.381  0.0564 -0.7007 -1.9628
  877SOL     OW 3529   1.421   4.346   5.031 -0.0391 -0.0148 -0.4893
  877SOL    HW1 3530   1.350   4.357   4.962 -0.9064 -0.1280  0.3512
  877SOL    HW2 3531   1.434   4.433   5.080  0.9284  0.2060 -1.1166
  878SOL     OW 3532   4.481   0.702   6.509  0.2597  0.2394  0.0885
  878SOL    HW1 3533   4.498   0.604   6.518 -2.6732 -0.2571  1.3920
  878SOL    HW2 3534   4.393   0.716   6.463  0.2084  2.2177  0.7130
  879SOL     OW 3535   0.005   6.954   4.251 -0.6360  0.4008  0.7895
  879SOL    HW1 3536  -0.017   6.873   4.305  2.6957 -0.0004  1.7354
  879SOL    HW2 3537   0.089   6.995   4.285 -1.1674  3.1684 -0.9246
  880SOL     OW 3538   2.875   3.663   3.117  0.0979  0.5641  0.2343
  880SOL    HW1 3539   2.864   3.747   3.065 -1.7262  0.6681  0.7016
  880SOL    HW2 3540   2.930   3.598   3.065 -0.6130  1.1114 -1.2631
  881SOL     OW 3541   5.429   2.029   1.144 -0.5161  0.9612  0.8040
  881SOL    HW1 3542   5.500   2.082   1.189  0.2103  1.2820 -0.6637
  881SOL    HW2 3543   5.414   1.944   1.195  1.9294  0.2117  0.4011
  882SOL     OW 3544   0.343   1.380   3.437  0.2085 -0.2746 -0.4920
  882SOL    HW1 3545   0.341   1.384   3.337  0.7795  1.0763 -0.4594
  882SOL    HW2 3546   0.415   1.439   3.472  0.8425 -1.6641  0.6948
  883SOL     OW 3547   1.650   6.331   2.064  0.4074 -0.3153 -0.0134
  883SOL    HW1 3548   1.738   6.366   2.032  0.1759  0.7811  0.5184
  883SOL    HW2 3549   1.644   6.342   2.163 -0.6724  0.4084 -0.1488
  884SOL     OW 3550   1.131   3.796   5.260  0.0958  0.3034 -0.0918
  884SOL    HW1 3551   1.081   3.865   5.311  1.1127  0.4185  0.7946
  884SOL    HW2 3552   1.182   3.738   5.324  3.0734  1.7213 -0.9716
  885SOL     OW 3553   4.678   4.761   6.387 -0.7274 -0.3165  0.0307
  885SOL    HW1 3554   4.706   4.700   6.313  1.5192  1.6614 -0.9075
  885SOL    HW2 3555   4.623   4.836   6.349  1.3623  1.3199  0.0689
  886SOL     OW 3556   5.320   2.369   6.308  0.3172  0.2129  0.4263
  886SOL    HW1 3557   5.383   2.358   6.384  0.2714  1.1271  0.6114
  886SOL    HW2 3558   5.361   2.428   6.239 -0.1575  0.4696  0.3561
  887SOL     OW 3559   3.636   0.743   5.854 -0.1154 -0.1798 -0.4121
  887SOL    HW1 3560   3.717   0.705   5.899 -1.0508 -2.8858 -0.8340
  887SOL    HW2 3561   3.640   0.723   5.756  0.8859  3.8376 -1.3524
  888SOL     OW 3562   6.922   6.753   1.968 -0.2557 -0.6220 -0.1421
  888SOL    HW1 3563   6.990   6.680   1.977  1.3472  0.7945 -0.0624
  888SOL    HW2 3564   6.910   6.776   1.871  0.6947  0.2559 -0.0703
  889SOL     OW 3565   0.344   3.714   1.710  0.4393  0.5789 -0.3877
  889SOL    HW1 3566   0.398   3.795   1.687  2.0161 -0.0210  0.9806
  889SOL    HW2 3567   0.325   3.714   1.808 -2.2442  0.8417 -0.8472
  890SOL     OW 3568   0.752   6.233   3.558  0.5764 -0.7456  0.3114
  890SOL    HW1 3569   0.848   6.258   3.574 -0.0804  0.4472  2.7895
  890SOL    HW2 3570   0.734   6.144   3.598  0.5954 -0.9192 -0.0572
  891SOL     OW 3571   3.323   6.109   2.502  0.0712  0.2680  0.0234
  891SOL    HW1 3572   3.343   6.039   2.433  0.6708 -0.4251  0.8760
  891SOL    HW2 3573   3.406   6.162   2.520  0.0913  0.0117  0.6914
  892SOL     OW 3574   2.186   3.903   1.099 -0.1914  0.0569  0.0199
  892SOL    HW1 3575   2.281   3.880   1.118  0.0234 -1.0945 -2.1810
  892SOL    HW2 3576   2.144   3.940   1.182  2.1372  0.5838  1.0513
  893SOL     OW 3577   2.645   4.948   2.650  0.0920 -0.2513 -0.4178
  893SOL    HW1 3578   2.590   4.969   2.731 -0.5893  0.3816 -1.0370
  893SOL    HW2 3579   2.695   5.030   2.622  1.2765 -0.7793  0.0582
  894SOL     OW 3580   0.841   4.697   0.991  0.0427 -0.5943  0.0472
  894SOL    HW1 3581   0.905   4.638   1.041 -0.5317 -0.2190  1.2748
  894SOL    HW2 3582   0.848   4.791   1.026  0.5736 -0.0180 -1.5191
  895SOL     OW 3583   0.415   5.236   5.554  0.0637  0.4307 -0.5482
  895SOL    HW1 3584   0.503   5.260   5.594 -0.0359  0.0015 -0.0532
  895SOL    HW2 3585   0.410   5.137   5.542  0.2658  0.5742 -2.0662
  896SOL     OW 3586   0.583   1.543   6.896 -0.5314 -0.0761 -0.6133
  896SOL    HW1 3587   0.567   1.524   6.799  0.0700 -1.8846 -0.4081
  896SOL    HW2 3588   0.646   1.474   6.933 -0.8302  0.5216  1.0901
  897SOL     OW 3589   6.376   2.057   1.071  0.2784  0.2008 -0.0329
  897SOL    HW1 3590   6.372   1.957   1.071 -1.0691  0.2004 -2.0055
  897SOL    HW2 3591   6.451   2.088   1.014  1.6567  0.3582  1.7920
  898SOL     OW 3592   2.348   2.297   3.161  1.0209  0.5935  0.2698
  898SOL    HW1 3593   2.284   2.316   3.087  0.8555  1.9926  0.7554
  898SOL    HW2 3594   2.303   2.240   3.230  0.1496  1.8476  0.7714
  899SOL     OW 3595   2.000   0.657   6.723 -0.6626 -0.2232 -0.1319
  899SOL    HW1 3596   1.936   0.644   6.647 -0.6018 -1.5904  0.0188
  899SOL    HW2 3597   2.001   0.753   6.750  0.1291  0.5541 -2.5877
  900SOL     OW 3598   5.830   4.492   6.444  0.2477  0.5900 -0.1126
  900SOL    HW1 3599   5.872   4.507   6.354  0.7707  0.4686  0.1041
  900SOL    HW2 3600   5.855   4.401   6.477 -0.8576  0.1977 -0.3308
  901SOL     OW 3601   1.159   6.224   2.397 -0.0459 -0.7268 -0.1109
  901SOL    HW1 3602   1.078   6.184   2.440 -0.5861 -1.2179 -1.5428
  901SOL    HW2 3603   1.231   6.155   2.393 -0.0614 -0.7396 -0.1670
  902SOL     OW 3604   6.276   1.675   4.318  0.2537 -0.0378  0.3569
  902SOL    HW1 3605   6.235   1.662   4.408 -1.1645  2.2281  0.1360
  902SOL    HW2 3606   6.328   1.593   4.292 -2.0306 -2.0847  1.7858
  903SOL     OW 3607   5.960   4.171   1.287  0.0396 -0.0754  0.3582
  903SOL    HW1 3608   5.874   4.161   1.237  0.2709  2.1843 -0.6227
  903SOL    HW2 3609   6.031   4.117   1.242 -0.2776  0.1291 -0.4029
  904SOL     OW 3610   3.605   6.986   4.334 -0.2746  0.1883  0.3273
  904SOL    HW1 3611   3.517   6.974   4.380 -1.0233  0.8957 -0.8554
  904SOL    HW2 3612   3.613   6.918   4.260 -1.0121  1.7255 -1.2353
  905SOL     OW 3613   5.637   3.116   5.360  0.1175  0.5043  0.2307
  905SOL    HW1 3614   5.624   3.203   5.408 -2.0022 -0.7586  2.1747
  905SOL    HW2 3615   5.625   3.130   5.262 -1.7024  2.1737  0.6323
  906SOL     OW 3616   6.125   3.146   1.990  0.2406  0.4796  0.4730
  906SOL    HW1 3617   6.037   3.172   1.950 -0.0541 -0.6832  0.3371
  906SOL    HW2 3618   6.110   3.091   2.073  0.8372  0.3106  0.4776
  907SOL     OW 3619   5.644   5.447   2.114  0.7467 -0.5013 -0.1327
  907SOL    HW1 3620   5.711   5.414   2.180 -0.8191 -2.5679  0.5309
  907SOL    HW2 3621   5.586   5.517   2.156  0.3274 -1.1675  0.4114
  908SOL     OW 3622   1.912   4.111   3.012  0.1156  0.2068 -0.0993
  908SOL    HW1 3623   1.841   4.165   2.967  1.1170  1.1354 -0.6120
  908SOL    HW2 3624   1.997   4.117   2.960  1.8230  2.6638  2.6257
  909SOL     OW 3625   5.011   3.139   6.008  0.0566  0.1894  0.5571
  909SOL    HW1 3626   5.024   3.179   5.917 -0.5569 -0.5364  0.1487
  909SOL    HW2 3627   4.964   3.052   6.001 -1.0324  0.6575  1.6699
  910SOL     OW 3628   1.672   4.218   6.082  0.1979  0.1945  0.2721
  910SOL    HW1 3629   1.611   4.256   6.013 -1.4178 -3.8175 -0.7871
  910SOL    HW2 3630   1.732   4.150   6.041  1.2240 -0.2645  2.3658
  911SOL     OW 3631   6.427   3.265   4.982  0.1286 -0.2616  0.4693
  911SOL    HW1 3632   6.424   3.167   4.961  1.4288 -0.3230  0.4739
  911SOL    HW2 3633   6.362   3.286   5.055 -0.8172 -0.9560 -0.1658
  912SOL     OW 3634   4.289   0.933   4.257  0.0477  0.2627  0.7366
  912SOL    HW1 3635   4.387   0.928   4.238 -0.2585  2.2293 -1.9375
  912SOL    HW2 3636   4.241   0.960   4.174 -2.7349 -0.1119  2.1259
  913SOL     OW 3637   6.026   1.779   2.453 -0.2237  0.0664  0.1165
  913SOL    HW1 3638   6.030   1.718   2.374 -0.7386 -1.8861  1.5272
  913SOL    HW2 3639   5.936   1.824   2.456 -0.6915 -0.8525  0.2750
  914SOL     OW 3640   2.253   6.195   3.971  0.3234 -0.5251  0.2946
  914SOL    HW1 3641   2.254   6.290   3.940 -0.0169 -0.9937 -1.2235
  914SOL    HW2 3642   2.327   6.180   4.036  1.1144  0.4932 -0.3471
  915SOL     OW 3643   5.638   5.023   2.537  0.6184 -0.5195  0.2706
  915SOL    HW1 3644   5.633   5.068   2.626 -1.9148  3.1311 -1.4596
  915SOL    HW2 3645   5.674   5.087   2.469 -0.8837 -1.8944 -1.9596
  916SOL     OW 3646   2.324   4.261   2.808  0.2831  0.3575  0.4825
  916SOL    HW1 3647   2.345   4.176   2.857  0.4065 -0.2398 -0.5940
  916SOL    HW2 3648   2.295   4.330   2.874 -0.3281 -0.6693  1.3262
  917SOL     OW 3649   2.321   0.053   5.847  0.3139 -0.1166 -0.1442
  917SOL    HW1 3650   2.347  -0.044   5.848 -1.8333 -0.7371 -0.0808
  917SOL    HW2 3651   2.225   0.062   5.874  0.7423  2.1372  0.8635
  918SOL     OW 3652   4.827   0.206   6.098 -0.1459 -0.0785 -0.3237
  918SOL    HW1 3653   4.906   0.263   6.078 -0.3441 -0.0115 -0.9177
  918SOL    HW2 3654   4.773   0.192   6.015 -1.4560  0.9357  0.3195
  919SOL     OW 3655   2.827   7.009   0.520  0.2810  0.5650  0.4420
  919SOL    HW1 3656   2.859   6.915   0.525  0.0625  0.5023  0.6428
  919SOL    HW2 3657   2.902   7.068   0.489 -0.1491  0.0469 -1.6669
  920SOL     OW 3658   3.078   4.025   6.818 -0.4128 -0.5065 -0.0053
  920SOL    HW1 3659   2.989   3.982   6.834 -2.2897  2.6081 -1.1729
  920SOL    HW2 3660   3.093   4.097   6.886  1.1522 -0.8211  0.0276
  921SOL     OW 3661   4.772   5.130   7.006 -0.7898  0.2079  0.2125
  921SOL    HW1 3662   4.781   5.099   7.100  0.7859  0.7997  0.3059
  921SOL    HW2 3663   4.724   5.062   6.951 -2.2148  0.1020  1.5409
  922SOL     OW 3664   3.458   3.814   3.661  0.2534  0.2936  0.0244
  922SOL    HW1 3665   3.493   3.806   3.568  0.3626 -0.8580  0.1408
  922SOL    HW2 3666   3.522   3.769   3.724  1.5859  3.3669  1.0606
  923SOL     OW 3667   1.265   3.564   5.129  0.0145  0.6387 -0.0308
  923SOL    HW1 3668   1.362   3.585   5.118  0.0571 -0.2140 -1.5762
  923SOL    HW2 3669   1.213   3.607   5.056 -0.6693  0.4071  0.3076
  924SOL     OW 3670   1.226   2.311   0.882  0.5499  0.1914  0.1492
  924SOL    HW1 3671   1.296   2.351   0.943  0.7906  0.5900 -0.3783
  924SOL    HW2 3672   1.220   2.213   0.899  2.4973 -0.1856 -0.9841
  925SOL     OW 3673   0.918   1.882   0.189 -0.0619  0.1233 -0.5470
  925SOL    HW1 3674   0.882   1.931   0.110 -1.3095 -0.1504 -0.1725
  925SOL    HW2 3675   0.844   1.864   0.254  1.0559  0.9720  1.0337
  926SOL     OW 3676   1.405   2.339   6.059  0.2773 -0.1330  0.7404
  926SOL    HW1 3677   1.378   2.435   6.062  0.7310  0.0897 -1.1040
  926SOL    HW2 3678   1.329   2.283   6.026  0.5838 -0.1330  0.0073
  927SOL     OW 3679   0.310   5.160   5.248  0.6726 -0.4295 -0.1852
  927SOL    HW1 3680   0.285   5.211   5.330 -0.5809 -0.3928 -0.5721
  927SOL    HW2 3681   0.408   5.171   5.231  0.5700  1.2837  0.1336
  928SOL     OW 3682   1.584   6.119   4.606  0.1422  0.5751  0.0980
  928SOL    HW1 3683   1.659   6.138   4.543  0.0153 -0.0248 -0.2450
  928SOL    HW2 3684   1.543   6.205   4.636  1.5437  0.9458  1.0066
  929SOL     OW 3685   2.299   1.850   4.597  0.7147  0.3544  0.2304
  929SOL    HW1 3686   2.371   1.831   4.530  0.4395  0.2916 -0.0502
  929SOL    HW2 3687   2.242   1.768   4.608  1.4381 -0.0258  1.3950
  930SOL     OW 3688   5.756   0.068   5.463  0.2920  0.1994  0.4722
  930SOL    HW1 3689   5.671   0.067   5.515 -0.1780  0.2868 -0.2757
  930SOL    HW2 3690   5.831   0.095   5.523 -0.3064  0.7493  0.9954
  931SOL     OW 3691   6.567   2.279   4.000  0.4919 -0.1047  0.4831
  931SOL    HW1 3692   6.506   2.358   4.013 -0.7998 -1.2368  1.7184
  931SOL    HW2 3693   6.512   2.195   4.002  1.9702 -1.1007  0.3299
  932SOL     OW 3694   1.419   0.349   2.783  0.3795 -0.6045 -0.1577
  932SOL    HW1 3695   1.503   0.312   2.824  1.2814  1.1006 -0.4033
  932SOL    HW2 3696   1.416   0.448   2.796 -1.1999 -0.5314 -0.8937
  933SOL     OW 3697   0.801   6.642   1.159  0.5808  0.8530  0.2367
  933SOL    HW1 3698   0.809   6.558   1.105  0.7990  0.4004  0.9558
  933SOL    HW2 3699   0.705   6.671   1.162  0.0983 -0.7116  1.9224
  934SOL     OW 3700   1.019   3.470   1.919  0.2080  0.4363  0.1439
  934SOL    HW1 3701   1.014   3.558   1.965 -0.4620 -0.1573  1.2492
  934SOL    HW2 3702   0.926   3.434   1.907  0.5372 -0.7634  1.0234
  935SOL     OW 3703   5.997   3.994   5.225 -0.8741 -0.4919 -0.0073
  935SOL    HW1 3704   5.965   3.904   5.256 -2.0841 -1.1179 -2.7135
  935SOL    HW2 3705   6.075   3.982   5.164 -1.6607  0.1663 -1.1812
  936SOL     OW 3706   0.637   0.593   6.798 -0.2291  0.2988  0.0858
  936SOL    HW1 3707   0.717   0.616   6.742 -0.3662  0.7283  0.0646
  936SOL    HW2 3708   0.569   0.547   6.740 -0.1114  0.1748  0.0437
  937SOL     OW 3709   3.704   2.817   6.324 -0.1281 -0.1861  0.2493
  937SOL    HW1 3710   3.734   2.725   6.347 -0.6204  0.0207  1.8386
  937SOL    HW2 3711   3.738   2.882   6.393 -1.0413  0.6015 -0.0193
  938SOL     OW 3712   4.502   6.373   4.856  0.1037 -0.1161  0.2729
  938SOL    HW1 3713   4.599   6.357   4.873  0.0143 -0.8149  0.1402
  938SOL    HW2 3714   4.449   6.294   4.887 -0.2794 -0.4002 -1.0490
  939SOL     OW 3715   1.952   5.113   3.396 -0.3534 -0.0565  0.3585
  939SOL    HW1 3716   1.996   5.072   3.316 -1.5260 -1.1870  0.2568
  939SOL    HW2 3717   1.882   5.050   3.431 -1.2094  1.2604  1.0902
  940SOL     OW 3718   0.376   6.631   1.836  0.0199  0.1497  0.2657
  940SOL    HW1 3719   0.324   6.708   1.801 -1.2651  0.1160  1.9837
  940SOL    HW2 3720   0.441   6.664   1.905 -0.6549 -0.2842  1.1321
  941SOL     OW 3721   4.267   6.281   2.178  0.3021  0.7597  0.3608
  941SOL    HW1 3722   4.358   6.277   2.136 -0.7198 -2.2543 -1.9819
  941SOL    HW2 3723   4.203   6.325   2.115 -0.9719 -2.5595 -0.9233
  942SOL     OW 3724   6.624   5.187   0.611 -0.0025 -0.8512 -0.1958
  942SOL    HW1 3725   6.580   5.102   0.581 -0.5165 -0.3179 -0.9816
  942SOL    HW2 3726   6.568   5.265   0.584  1.0906 -0.1914 -0.6177
  943SOL     OW 3727   3.670   0.072   0.904  0.2249  0.6642 -0.0539
  943SOL    HW1 3728   3.652   0.168   0.921 -1.6247  0.2318  0.6537
  943SOL    HW2 3729   3.591   0.017   0.933  1.1695 -1.0528 -0.5725
  944SOL     OW 3730   5.441   6.535   3.304 -0.3973 -0.1464 -0.2638
  944SOL    HW1 3731   5.367   6.519   3.239  0.4404 -1.1683 -0.9959
  944SOL    HW2 3732   5.504   6.458   3.302 -0.4318 -0.3056  1.9040
  945SOL     OW 3733   2.875   4.542   0.760 -0.2628 -0.0866 -0.2764
  945SOL    HW1 3734   2.951   4.536   0.695 -0.7463 -1.3145 -0.7473
  945SOL    HW2 3735   2.900   4.494   0.844 -0.6806 -0.9023 -0.6088
  946SOL     OW 3736   6.517   3.817   2.976 -0.2290  0.0385  0.8311
  946SOL    HW1 3737   6.559   3.856   2.894 -0.7641  1.1028  1.0450
  946SOL    HW2 3738   6.571   3.739   3.007  0.1190 -0.2198 -0.3855
  947SOL     OW 3739   3.243   3.702   2.441 -0.9536  0.2449  0.4256
  947SOL    HW1 3740   3.342   3.687   2.437 -1.1179 -0.6119 -1.0182
  947SOL    HW2 3741   3.220   3.782   2.386 -1.1697 -0.1601 -0.0750
  948SOL     OW 3742   4.727   0.536   3.631 -0.2832  0.1473 -0.0471
  948SOL    HW1 3743   4.801   0.471   3.614 -0.0007  0.4563 -0.0132
  948SOL    HW2 3744   4.639   0.488   3.630 -0.2012 -0.0123 -1.3940
  949SOL     OW 3745   0.881   0.431   6.014  0.1569  0.2210  0.0465
  949SOL    HW1 3746   0.837   0.475   6.092  2.4420  2.8266  0.0543
  949SOL    HW2 3747   0.974   0.405   6.039  0.0865 -1.2512 -1.1172
  950SOL     OW 3748   4.163   1.311   1.455  0.4426 -0.6846  0.7135
  950SOL    HW1 3749   4.077   1.284   1.412  0.7536  0.1325 -0.4790
  950SOL    HW2 3750   4.146   1.378   1.527  0.2069  1.3193 -1.1002
  951SOL     OW 3751   1.471   5.827   2.759 -0.1579 -0.3071 -0.4906
  951SOL    HW1 3752   1.434   5.785   2.676  0.1155 -0.6642 -0.4318
  951SOL    HW2 3753   1.405   5.815   2.834  0.3045 -1.4195 -0.2508
  952SOL     OW 3754   3.935   1.556   2.610  0.5564  0.0371  0.4866
  952SOL    HW1 3755   3.947   1.571   2.708  1.8859  0.8397  0.2226
  952SOL    HW2 3756   3.841   1.582   2.584  0.3344  0.2458  1.4562
  953SOL     OW 3757   5.789   0.726   5.261 -0.2207 -0.0347 -0.1785
  953SOL    HW1 3758   5.871   0.781   5.278 -0.4316  0.2885 -0.1856
  953SOL    HW2 3759   5.803   0.633   5.294 -0.0188  0.1422  0.2406
  954SOL     OW 3760   5.208   5.586   0.910 -0.6440 -0.8558  0.1360
  954SOL    HW1 3761   5.290   5.638   0.886 -0.6450 -0.0238  1.8064
  954SOL    HW2 3762   5.191   5.516   0.840  0.2116  0.3976 -1.3867
  955SOL     OW 3763   3.880   3.903   2.111  0.0222  0.1846  0.0940
  955SOL    HW1 3764   3.925   3.828   2.061  0.4912  0.2681  0.3870
  955SOL    HW2 3765   3.931   3.922   2.194 -1.2388 -0.5307  1.0671
  956SOL     OW 3766   4.089   6.812   6.824  0.5201 -0.5423 -0.5588
  956SOL    HW1 3767   4.060   6.828   6.730  1.8574 -1.1528 -1.1101
  956SOL    HW2 3768   4.020   6.847   6.888  0.4507  1.6081 -1.7330
  957SOL     OW 3769   1.022   0.661   2.417  0.7238  0.2879 -0.0667
  957SOL    HW1 3770   1.075   0.578   2.396  0.9520  1.0068 -2.6467
  957SOL    HW2 3771   1.084   0.735   2.442  0.8383  0.5789 -1.1374
  958SOL     OW 3772   5.483   5.004   1.473 -0.3086  0.5498  0.2462
  958SOL    HW1 3773   5.530   4.947   1.540  0.3351  0.3009 -0.4082
  958SOL    HW2 3774   5.501   4.969   1.381 -1.5724  0.5873 -0.0399
  959SOL     OW 3775   4.092   4.698   1.460 -0.1403 -0.2289  0.1120
  959SOL    HW1 3776   4.001   4.663   1.440 -0.2577  0.8070 -1.3460
  959SOL    HW2 3777   4.087   4.762   1.537 -0.9373  0.9191 -0.8458
  960SOL     OW 3778   0.583   5.919   6.111  0.0027 -0.2106 -0.3272
  960SOL    HW1 3779   0.608   5.964   6.025 -0.6353 -2.4126 -1.7482
  960SOL    HW2 3780   0.630   5.963   6.187  1.6143  0.9950 -1.9453
  961SOL     OW 3781   5.685   2.238   3.215  0.1266 -0.1019 -0.7065
  961SOL    HW1 3782   5.712   2.334   3.225 -1.7492  0.3732  0.2021
  961SOL    HW2 3783   5.665   2.200   3.305 -0.9656 -0.7685 -1.2108
  962SOL     OW 3784   6.725   6.769   4.148 -0.5021  0.4468 -0.0716
  962SOL    HW1 3785   6.709   6.676   4.114  1.4874  0.2374 -0.5696
  962SOL    HW2 3786   6.757   6.765   4.243 -0.7785  0.6419  0.0296
  963SOL     OW 3787   0.362   0.789   0.803 -0.1012  0.0683  0.1648
  963SOL    HW1 3788   0.422   0.862   0.836  0.4210  0.5098 -1.6706
  963SOL    HW2 3789   0.400   0.700   0.830 -0.3119  0.4182  1.7062
  964SOL     OW 3790   3.364   6.906   4.531 -0.4537 -0.2136 -0.4263
  964SOL    HW1 3791   3.272   6.870   4.545 -1.1551  1.5229 -0.3511
  964SOL    HW2 3792   3.390   6.965   4.607 -0.7529  2.1711 -2.0656
  965SOL     OW 3793   5.144   2.013   3.560 -0.0087 -0.1157 -0.4825
  965SOL    HW1 3794   5.220   2.078   3.563 -0.3470  0.2951 -0.6201
  965SOL    HW2 3795   5.058   2.064   3.554 -0.5139 -0.4364  2.3739
  966SOL     OW 3796   4.395   1.180   2.032  0.6312  0.5267  0.5224
  966SOL    HW1 3797   4.482   1.139   2.005  1.3322  2.9453 -1.3197
  966SOL    HW2 3798   4.412   1.270   2.074 -0.9567  1.4009 -0.5789
  967SOL     OW 3799   3.259   5.433   5.721  0.5566  0.0670  0.1270
  967SOL    HW1 3800   3.239   5.406   5.627 -0.3045 -0.6636  0.5026
  967SOL    HW2 3801   3.283   5.530   5.724  2.4023 -0.2993 -1.0870
  968SOL     OW 3802   3.276   5.275   1.799  0.9716  0.3181  0.3747
  968SOL    HW1 3803   3.239   5.364   1.774 -1.7583 -0.9128 -0.3118
  968SOL    HW2 3804   3.276   5.215   1.719  1.2514 -0.7846  1.1752
  969SOL     OW 3805   3.890   3.238   6.429 -0.9780  0.2537 -0.1106
  969SOL    HW1 3806   3.860   3.289   6.349 -0.7516  0.9795  0.2530
  969SOL    HW2 3807   3.990   3.243   6.435 -1.0533  0.9649  0.7038
  970SOL     OW 3808   4.585   5.143   5.239 -0.9443 -0.2007  0.7188
  970SOL    HW1 3809   4.531   5.215   5.194  0.9835  0.3240 -0.9438
  970SOL    HW2 3810   4.566   5.055   5.195 -2.5607 -0.5755  2.0900
  971SOL     OW 3811   5.481   4.691   3.148 -0.0473  0.5897 -0.3936
  971SOL    HW1 3812   5.473   4.649   3.239  0.7629  2.3339  0.5178
  971SOL    HW2 3813   5.571   4.669   3.109  0.5618  1.7909  0.2820
  972SOL     OW 3814   0.983   3.208   6.028  0.1994 -0.1621 -0.3249
  972SOL    HW1 3815   1.067   3.176   5.985  0.1113 -0.0072 -0.6155
  972SOL    HW2 3816   0.944   3.135   6.084  0.8363 -0.0478  0.2830
  973SOL     OW 3817   0.456   3.460   2.632  0.3347 -0.3718 -0.6687
  973SOL    HW1 3818   0.463   3.387   2.565 -0.9568 -0.3067 -0.9076
  973SOL    HW2 3819   0.482   3.425   2.722  0.2773 -0.9648 -0.8796
  974SOL     OW 3820   0.725   4.078   1.788 -0.0254  0.3115  0.2341
  974SOL    HW1 3821   0.680   4.088   1.876  0.8711  2.2697  0.5334
  974SOL    HW2 3822   0.718   4.164   1.737  1.6831  0.0632 -0.4928
  975SOL     OW 3823   4.804   0.852   2.560  0.0007  0.1968  0.0261
  975SOL    HW1 3824   4.805   0.807   2.471  0.2824 -0.6334  0.4350
  975SOL    HW2 3825   4.861   0.935   2.557  1.8620 -1.0246  0.0136
  976SOL     OW 3826   0.126   2.721   4.265 -0.7577 -0.2137  0.1147
  976SOL    HW1 3827   0.086   2.674   4.186 -3.5253  0.5191  0.9600
  976SOL    HW2 3828   0.119   2.662   4.346 -0.9657  0.2758  0.4589
  977SOL     OW 3829   0.917   1.073   1.778  0.0706  0.1114  0.1217
  977SOL    HW1 3830   0.951   1.166   1.792  0.3998  0.0358 -0.1983
  977SOL    HW2 3831   0.913   1.052   1.680  0.8327 -0.5244  0.2181
  978SOL     OW 3832   6.801   2.651   6.448 -0.2044 -0.3908  0.3233
  978SOL    HW1 3833   6.847   2.669   6.535 -0.9172 -0.6612  0.7668
  978SOL    HW2 3834   6.868   2.647   6.375  0.2980  0.9940  0.6752
  979SOL     OW 3835   6.802   5.596   0.607  0.8053  0.0764 -0.7224
  979SOL    HW1 3836   6.855   5.655   0.669 -1.5295  1.2694  0.2566
  979SOL    HW2 3837   6.806   5.634   0.514  0.6201  0.8974 -0.4057
  980SOL     OW 3838   2.939   1.143   2.934  0.0910  0.1918 -0.2910
  980SOL    HW1 3839   2.868   1.189   2.881 -0.8442 -0.1176  0.6427
  980SOL    HW2 3840   2.902   1.057   2.970  1.3903 -0.6636 -0.9221
  981SOL     OW 3841   1.095   6.425   0.554  0.4347  0.3089 -0.0399
  981SOL    HW1 3842   1.140   6.402   0.468 -1.7985  0.4992 -1.3181
  981SOL    HW2 3843   1.090   6.525   0.563 -0.0969  0.2903 -0.1186
  982SOL     OW 3844   4.421   3.013   5.489 -0.1333 -0.1553  0.5315
  982SOL    HW1 3845   4.342   2.989   5.432 -0.8476  0.2669  1.3233
  982SOL    HW2 3846   4.415   3.109   5.517  0.6539 -0.1239  0.6170
  983SOL     OW 3847   0.163   2.625   1.873 -0.4282 -0.0002  0.1497
  983SOL    HW1 3848   0.182   2.709   1.924 -2.0535  1.3030 -1.2460
  983SOL    HW2 3849   0.171   2.546   1.933 -1.4874  1.3817  2.2287
  984SOL     OW 3850   1.237   3.509   4.262 -0.0077  0.0087 -0.0545
  984SOL    HW1 3851   1.201   3.431   4.212 -0.2821  0.0219  0.1186
  984SOL    HW2 3852   1.248   3.485   4.359 -0.2840  0.2420  0.0380
  985SOL     OW 3853   6.282   5.763   6.324 -0.6245  0.1558  0.0190
  985SOL    HW1 3854   6.325   5.720   6.404  0.0202 -0.4962 -0.6534
  985SOL    HW2 3855   6.217   5.832   6.354 -0.3198 -0.0074  1.1066
  986SOL     OW 3856   3.955   5.286   1.193 -0.6484 -0.0368  0.2947
  986SOL    HW1 3857   4.027   5.317   1.255 -1.1944  1.1222  0.3845
  986SOL    HW2 3858   3.920   5.197   1.224  0.9013 -0.7361  0.0948
  987SOL     OW 3859   4.848   3.930   4.511  0.0156 -0.3297  0.2301
  987SOL    HW1 3860   4.941   3.966   4.520  0.2113 -0.9749  0.8646
  987SOL    HW2 3861   4.849   3.831   4.520 -0.5360 -0.5211 -1.4334
  988SOL     OW 3862   2.401   4.538   0.875  0.0420 -0.2105 -0.3783
  988SOL    HW1 3863   2.348   4.623   0.870  1.1490  0.6386  1.4610
  988SOL    HW2 3864   2.442   4.529   0.965  1.9829 -1.5015 -1.3255
  989SOL     OW 3865   2.765   2.659   6.929 -0.0583 -0.0095 -1.1746
  989SOL    HW1 3866   2.676   2.691   6.963  0.0140 -0.8639 -0.0929
  989SOL    HW2 3867   2.785   2.570   6.970  0.9019 -0.2332 -2.0996
  990SOL     OW 3868   4.446   0.536   4.918 -0.3847 -0.0720 -0.0395
  990SOL    HW1 3869   4.355   0.495   4.920  0.2089 -1.4336  0.3778
  990SOL    HW2 3870   4.479   0.549   5.012  1.0036 -2.3321 -0.1635
  991SOL     OW 3871   0.592   6.305   4.612 -0.2358  0.2615 -0.5646
  991SOL    HW1 3872   0.662   6.377   4.606 -1.7582  1.7012 -2.3617
  991SOL    HW2 3873   0.617   6.229   4.552 -0.0655  0.6437 -0.9829
  992SOL     OW 3874   0.939   3.196   1.401 -0.5351 -0.4333  0.3547
  992SOL    HW1 3875   0.994   3.178   1.320  0.4208  0.1684  0.8520
  992SOL    HW2 3876   0.848   3.227   1.373  0.3552  1.5898 -0.5498
  993SOL     OW 3877   2.089   4.173   5.664  0.0574 -0.1352  0.2133
  993SOL    HW1 3878   1.996   4.181   5.701  0.3592 -0.2591  1.0293
  993SOL    HW2 3879   2.085   4.143   5.569 -0.8265  1.9875 -0.4928
  994SOL     OW 3880   2.925   0.438   1.975  0.2569  0.0767  0.1205
  994SOL    HW1 3881   2.963   0.515   2.026 -0.3336  1.1785 -1.0505
  994SOL    HW2 3882   2.993   0.404   1.910 -0.4408  1.5593 -1.4433
  995SOL     OW 3883   4.635   4.953   6.827  0.3187 -0.4838 -0.9132
  995SOL    HW1 3884   4.664   4.884   6.761 -0.3704 -1.4501 -0.2424
  995SOL    HW2 3885   4.587   4.908   6.902 -0.2596  0.7488 -0.5257
  996SOL     OW 3886   4.367   6.587   4.257 -0.3846  0.1682 -0.0603
  996SOL    HW1 3887   4.353   6.631   4.168  0.1661 -0.4217 -0.4470
  996SOL    HW2 3888   4.326   6.496   4.256  1.4780 -0.7253 -0.4815
  997SOL     OW 3889   1.838   6.285   3.799 -1.0339 -0.1141 -0.9157
  997SOL    HW1 3890   1.929   6.320   3.821 -0.7763 -1.2442 -0.0493
  997SOL    HW2 3891   1.829   6.276   3.700  0.1749 -0.9239 -0.9764
  998SOL     OW 3892   4.014   0.694   0.192  0.0920  0.4886 -0.1312
  998SOL    HW1 3893   3.993   0.729   0.101  0.7289 -1.3873 -1.0489
  998SOL    HW2 3894   4.059   0.765   0.246  0.5678  1.3316 -1.5973
  999SOL     OW 3895   5.020   1.359   1.952  0.2142 -0.4036  0.6003
  999SOL    HW1 3896   5.026   1.448   1.998  0.6045  0.6035 -1.3024
  999SOL    HW2 3897   5.112   1.331   1.923 -0.1196 -0.5336 -0.3769
 1000SOL     OW 3898   6.123   1.391   3.439  0.1162  0.5059  0.0116
 1000SOL    HW1 3899   6.211   1.422   3.474  0.3979  0.8475 -0.9809
 1000SOL    HW2 3900   6.128   1.293   3.419 -1.0902 -0.6290  4.1659
 1001SOL     OW 3901   2.457   5.968   1.711  0.5390  0.2939  0.3152
 1001SOL    HW1 3902   2.400   6.050   1.713  1.2320  0.8773 -1.8025
 1001SOL    HW2 3903   2.548   5.991   1.746 -0.6186 -0.8820  4.7489
 1002SOL     OW 3904   3.457   3.892   6.583  0.1191  0.2995  0.1868
 1002SOL    HW1 3905   3.431   3.912   6.677  1.1916  3.8736 -0.0999
 1002SOL    HW2 3906   3.556   3.877   6.577  0.1235  0.5058 -0.4074
 1003SOL     OW 3907   1.485   1.451   5.101  0.5528  0.6906 -0.0540
 1003SOL    HW1 3908   1.437   1.436   5.015  0.6430  1.0549 -0.1676
 1003SOL    HW2 3909   1.475   1.546   5.129  1.2827  0.7988 -0.1271
 1004SOL     OW 3910   5.310   2.046   5.918 -0.0151  0.2283  0.6225
 1004SOL    HW1 3911   5.276   2.115   5.982  0.1919  0.2548  0.7028
 1004SOL    HW2 3912   5.239   1.977   5.903 -0.1979  0.4205  0.5934
 1005SOL     OW 3913   1.178   3.599   2.950  0.6719 -0.3552  0.1046
 1005SOL    HW1 3914   1.127   3.515   2.937 -0.3956  0.2338  0.3811
 1005SOL    HW2 3915   1.166   3.658   2.870 -0.4336  0.4658  0.8512
 1006SOL     OW 3916   2.244   4.114   3.108 -0.0810 -0.6715 -0.4573
 1006SOL    HW1 3917   2.244   4.026   3.156  0.6129 -1.8914 -2.5748
 1006SOL    HW2 3918   2.211   4.102   3.015 -2.3580  1.8038 -0.1100
 1007SOL     OW 3919   5.668   0.102   6.030 -0.3519 -0.2954 -0.5063
 1007SOL    HW1 3920   5.645   0.188   5.985 -1.9633  1.6990  3.5566
 1007SOL    HW2 3921   5.766   0.102   6.053 -0.6278  1.2918  0.8399
 1008SOL     OW 3922   6.381   6.374   4.656 -0.1536  0.3550 -0.2975
 1008SOL    HW1 3923   6.476   6.368   4.684 -0.1167 -0.5161 -0.5938
 1008SOL    HW2 3924   6.328   6.301   4.699 -0.3490 -0.1874 -1.4156
 1009SOL     OW 3925   5.921   5.260   6.986 -0.2451 -0.3635  0.6736
 1009SOL    HW1 3926   5.890   5.203   7.062 -2.2362  0.9250  0.9122
 1009SOL    HW2 3927   5.847   5.271   6.920  0.9257 -0.1240 -0.6320
 1010SOL     OW 3928   4.715   3.685   6.989 -0.6555  0.2360 -0.1350
 1010SOL    HW1 3929   4.622   3.681   6.953 -0.0201  2.7335 -2.4083
 1010SOL    HW2 3930   4.723   3.762   7.052 -0.2581 -0.4157  0.6367
 1011SOL     OW 3931   0.039   5.879   3.747  0.1109  0.3675 -0.1046
 1011SOL    HW1 3932  -0.035   5.877   3.814 -0.5934  2.3168 -0.7542
 1011SOL    HW2 3933   0.017   5.946   3.675  2.4081  0.8426 -0.4427
 1012SOL     OW 3934   5.741   6.554   1.270  0.3214  0.0032 -0.1419
 1012SOL    HW1 3935   5.660   6.570   1.215 -0.3180 -0.9277  0.4895
 1012SOL    HW2 3936   5.755   6.455   1.281  1.7724  0.1297 -0.5688
 1013SOL     OW 3937   0.676   6.798   0.299 -0.4771  0.0723  0.1602
 1013SOL    HW1 3938   0.674   6.715   0.243  0.1705  0.6285 -0.7061
 1013SOL    HW2 3939   0.605   6.861   0.268 -1.3876 -0.3924  1.2251
 1014SOL     OW 3940   0.127   3.378   3.206 -0.1412 -0.2716  0.0752
 1014SOL    HW1 3941   0.101   3.298   3.154 -2.1640 -1.1569  2.2695
 1014SOL    HW2 3942   0.206   3.356   3.264 -0.1740 -0.4254  0.0612
 1015SOL     OW 3943   2.362   4.169   6.073  0.4107 -0.1653 -0.4309
 1015SOL    HW1 3944   2.268   4.190   6.045 -0.0894  2.7695  2.8007
 1015SOL    HW2 3945   2.361   4.090   6.135  0.0367 -0.0453 -0.2773
 1016SOL     OW 3946   0.879   3.387   6.453  0.0748  0.0137  0.5409
 1016SOL    HW1 3947   0.812   3.440   6.505 -0.3865  0.0887 -0.1173
 1016SOL    HW2 3948   0.906   3.306   6.505 -1.2150 -0.5056  0.4406
 1017SOL     OW 3949   2.087   4.765   2.468 -0.1736 -0.7237 -0.1368
 1017SOL    HW1 3950   2.061   4.847   2.416  0.0875  0.5455  1.6152
 1017SOL    HW2 3951   2.183   4.746   2.454  0.2424  0.4454  0.8537
 1018SOL     OW 3952   0.593   5.842   6.865  0.6644  0.5624  0.3271
 1018SOL    HW1 3953   0.636   5.932   6.858 -0.0052  1.0123  1.5923
 1018SOL    HW2 3954   0.664   5.772   6.872  1.1991  0.9045 -1.3356
 1019SOL     OW 3955   5.953   3.785   2.627  0.5265 -0.4237 -0.1933
 1019SOL    HW1 3956   6.042   3.785   2.671  0.8649 -0.0623 -0.8547
 1019SOL    HW2 3957   5.959   3.737   2.539  0.1185 -0.2290 -0.3313
 1020SOL     OW 3958   5.211   1.008   0.853  0.1625 -0.1864  0.4768
 1020SOL    HW1 3959   5.224   0.919   0.809 -0.8725  1.2795 -3.2024
 1020SOL    HW2 3960   5.156   1.067   0.793  1.1262  3.1055  2.5520
 1021SOL     OW 3961   0.355   1.084   0.508  0.4750 -0.5281 -0.2587
 1021SOL    HW1 3962   0.290   1.140   0.559  1.9978 -1.0196  2.3568
 1021SOL    HW2 3963   0.323   1.075   0.413 -1.1206  2.5828 -0.1373
 1022SOL     OW 3964   0.751   5.420   6.258 -0.7451  0.3045  0.1765
 1022SOL    HW1 3965   0.770   5.352   6.186  2.3108  1.4408 -0.2833
 1022SOL    HW2 3966   0.756   5.511   6.218 -1.4852  0.8892  1.3954
 1023SOL     OW 3967   6.776   2.480   3.751  0.1027  0.0239 -0.4035
 1023SOL    HW1 3968   6.818   2.567   3.726  0.0025  0.1337 -0.1852
 1023SOL    HW2 3969   6.800   2.411   3.682  0.8261  0.0271 -0.1710
 1024SOL     OW 3970   1.594   1.342   3.902  0.1891 -0.0617  0.0586
 1024SOL    HW1 3971   1.560   1.428   3.865  0.0396 -0.0266  0.2761
 1024SOL    HW2 3972   1.685   1.356   3.941  0.0959  0.0334  0.2401
 1025SOL     OW 3973   2.729   5.989   6.493 -0.2939 -0.1461 -0.0074
 1025SOL    HW1 3974   2.745   5.891   6.502  0.3535 -0.2515 -1.8567
 1025SOL    HW2 3975   2.752   6.034   6.580 -2.4237 -1.7906  1.5102
 1026SOL     OW 3976   3.534   3.680   1.522 -0.0353 -0.4960  0.1921
 1026SOL    HW1 3977   3.580   3.763   1.551 -0.2088 -0.2777 -0.1495
 1026SOL    HW2 3978   3.547   3.608   1.591 -0.1803 -0.0835  0.6531
 1027SOL     OW 3979   5.318   6.767   5.480 -0.3195  0.4383 -0.3547
 1027SOL    HW1 3980   5.388   6.830   5.513  0.4074  0.9086 -2.5855
 1027SOL    HW2 3981   5.351   6.673   5.488  0.4328  0.6341 -1.0311
 1028SOL     OW 3982   6.711   5.064   4.101  0.5758  0.7588  0.5651
 1028SOL    HW1 3983   6.682   5.104   4.188 -0.1903 -0.2559  0.7856
 1028SOL    HW2 3984   6.643   5.085   4.030 -0.6883 -1.4762  1.0446
 1029SOL     OW 3985   5.881   0.798   4.054  0.1437  0.1816  0.4668
 1029SOL    HW1 3986   5.906   0.725   3.990  1.2721  0.0564  1.0051
 1029SOL    HW2 3987   5.910   0.886   4.018  0.1579  0.1876  0.4925
 1030SOL     OW 3988   5.631   2.952   0.540 -0.1549 -0.1688 -0.6297
 1030SOL    HW1 3989   5.692   2.881   0.576 -0.4524 -0.4361 -0.6424
 1030SOL    HW2 3990   5.653   2.969   0.444 -1.1050 -1.3899 -1.0944
 1031SOL     OW 3991   4.078   2.225   1.896  0.5445  0.0498 -0.2599
 1031SOL    HW1 3992   4.141   2.300   1.917  0.8228 -0.3422  0.3196
 1031SOL    HW2 3993   4.015   2.212   1.973 -0.3874  0.5650 -0.9024
 1032SOL     OW 3994   1.415   1.693   1.529  0.0050  0.1610 -0.2219
 1032SOL    HW1 3995   1.455   1.739   1.608 -0.4188 -0.9353  0.6569
 1032SOL    HW2 3996   1.360   1.615   1.560 -2.6608  1.4660 -1.3594
 1033SOL     OW 3997   6.122   0.816   2.193  0.1492 -0.3717  0.1663
 1033SOL    HW1 3998   6.116   0.838   2.096 -1.7998  1.2853  0.5970
 1033SOL    HW2 3999   6.198   0.864   2.235  0.6595 -0.6629 -0.4204
 1034SOL     OW 4000   1.109   6.245   3.150  0.4188 -0.2153  0.2399
 1034SOL    HW1 4001   1.134   6.342   3.159 -0.4722  0.0719 -0.3371
 1034SOL    HW2 4002   1.027   6.227   3.204  0.5210 -0.6286  0.2579
 1035SOL     OW 4003   2.810   0.561   5.536 -0.4716 -0.0619 -0.2311
 1035SOL    HW1 4004   2.835   0.583   5.630  1.8557  0.4195 -0.8911
 1035SOL    HW2 4005   2.736   0.621   5.506 -0.5065  0.5136  0.9390
 1036SOL     OW 4006   5.441   0.742   2.418 -0.3473 -0.2621  0.7403
 1036SOL    HW1 4007   5.507   0.682   2.462  0.8766  2.5452  3.0882
 1036SOL    HW2 4008   5.350   0.726   2.456 -0.2922 -1.4013  0.4303
 1037SOL     OW 4009   6.853   2.730   3.660 -0.0495 -0.1335  0.3041
 1037SOL    HW1 4010   6.907   2.725   3.576 -1.0542  1.8901 -0.5270
 1037SOL    HW2 4011   6.870   2.818   3.705 -0.6814 -0.5668  1.4298
 1038SOL     OW 4012   0.769   5.880   0.279  0.1654 -0.5246  0.6153
 1038SOL    HW1 4013   0.795   5.784   0.283  2.5685  0.1085  2.5008
 1038SOL    HW2 4014   0.807   5.928   0.358 -0.4614  2.1172 -0.5859
 1039SOL     OW 4015   3.601   2.912   2.848 -0.1196 -0.7633  0.3464
 1039SOL    HW1 4016   3.597   2.870   2.757  0.4597  2.4017 -1.3125
 1039SOL    HW2 4017   3.509   2.923   2.885 -0.8593  1.6762 -1.8979
 1040SOL     OW 4018   2.603   0.148   1.671 -0.6154 -0.0591  0.2742
 1040SOL    HW1 4019   2.686   0.134   1.616 -2.0451 -1.2773 -1.6820
 1040SOL    HW2 4020   2.624   0.212   1.745  1.5475  1.2951 -1.3627
 1041SOL     OW 4021   0.644   6.592   0.132  0.9490 -0.2439  0.0318
 1041SOL    HW1 4022   0.582   6.569   0.057  0.0847 -2.0581  1.2393
 1041SOL    HW2 4023   0.730   6.628   0.095 -0.4339  1.4681 -1.7082
 1042SOL     OW 4024   5.627   4.705   5.673 -0.0151  0.6686 -0.5287
 1042SOL    HW1 4025   5.592   4.612   5.677 -2.4901  1.5493  0.1850
 1042SOL    HW2 4026   5.631   4.736   5.578 -0.0667  0.1544 -0.6992
 1043SOL     OW 4027   1.094   2.891   3.332  0.1386  0.4453 -0.2727
 1043SOL    HW1 4028   1.058   2.806   3.293  1.4455  0.0505 -0.6624
 1043SOL    HW2 4029   1.193   2.887   3.335  0.1677  0.4958  3.0414
 1044SOL     OW 4030   5.379   4.358   1.741 -0.7552  0.7845  0.0320
 1044SOL    HW1 4031   5.284   4.382   1.760 -1.3235 -1.1499 -0.1865
 1044SOL    HW2 4032   5.418   4.424   1.677 -2.5783  0.5298 -1.4234
 1045SOL     OW 4033   3.048   0.695   2.489 -0.5320  0.6568 -0.2037
 1045SOL    HW1 4034   3.067   0.598   2.500 -0.6356  0.7636  1.0916
 1045SOL    HW2 4035   2.949   0.709   2.481 -0.7792  0.8258  2.2583
 1046SOL     OW 4036   3.775   2.218   6.965  0.2639  0.4478 -0.7869
 1046SOL    HW1 4037   3.850   2.259   7.018 -0.3869  1.7703 -0.8363
 1046SOL    HW2 4038   3.690   2.225   7.018  0.1574 -1.0219 -0.7380
 1047SOL     OW 4039   5.656   7.012   2.449  0.3827 -0.1805  0.2013
 1047SOL    HW1 4040   5.718   7.087   2.427  1.7872 -1.1026  0.8768
 1047SOL    HW2 4041   5.645   6.953   2.369  0.2694  0.0484  0.0464
 1048SOL     OW 4042   6.392   6.282   1.894  0.3475 -0.2474 -0.1348
 1048SOL    HW1 4043   6.447   6.208   1.933  0.6776 -0.8449 -1.6578
 1048SOL    HW2 4044   6.437   6.317   1.812  0.3087  1.8212  0.6539
 1049SOL     OW 4045   3.649   5.868   0.618  0.2360  0.0440 -0.4194
 1049SOL    HW1 4046   3.573   5.813   0.583  0.6330 -1.1037  0.4372
 1049SOL    HW2 4047   3.714   5.808   0.665  3.3719  0.3928 -3.8052
 1050SOL     OW 4048   2.861   0.793   3.918  0.0738  0.4489 -0.1739
 1050SOL    HW1 4049   2.912   0.784   3.832  1.6702  0.0156  0.7578
 1050SOL    HW2 4050   2.873   0.709   3.972 -1.2405  0.5519  0.3005
 1051SOL     OW 4051   2.367   2.762   5.217  0.1158  0.0330  0.4395
 1051SOL    HW1 4052   2.390   2.859   5.209  0.7122 -0.1272  0.1274
 1051SOL    HW2 4053   2.451   2.708   5.223 -0.0950 -0.6703 -1.8307
 1052SOL     OW 4054   5.502   3.343   6.744 -0.3295  0.4929 -0.0551
 1052SOL    HW1 4055   5.469   3.314   6.654  0.0814  0.3561 -0.1641
 1052SOL    HW2 4056   5.593   3.304   6.760 -0.1404  1.0242  0.1619
 1053SOL     OW 4057   4.693   2.607   3.849 -0.5843  0.2327  0.1204
 1053SOL    HW1 4058   4.752   2.579   3.925 -0.4477 -0.3807 -0.2031
 1053SOL    HW2 4059   4.696   2.707   3.839 -2.3203  0.5585  2.2961
 1054SOL     OW 4060   6.482   6.724   0.507 -0.5660 -0.5385 -0.4154
 1054SOL    HW1 4061   6.493   6.669   0.424  2.3405 -0.6731 -0.0339
 1054SOL    HW2 4062   6.525   6.813   0.495 -0.2440 -0.4995  0.8687
 1055SOL     OW 4063   4.638   6.312   0.052 -0.1909  0.2233  0.1454
 1055SOL    HW1 4064   4.610   6.235   0.109  1.8205 -1.0770 -0.4761
 1055SOL    HW2 4065   4.566   6.381   0.050 -2.1486 -1.6896  0.6304
 1056SOL     OW 4066   3.535   3.689   6.811  0.3378  0.2528  0.0956
 1056SOL    HW1 4067   3.598   3.756   6.771 -0.5095  1.9214  1.4261
 1056SOL    HW2 4068   3.586   3.607   6.835  1.2468  0.0122 -2.3950
 1057SOL     OW 4069   3.330   3.295   6.498 -0.1011  0.0673 -0.1175
 1057SOL    HW1 4070   3.333   3.383   6.546  1.2321  0.2964 -0.5903
 1057SOL    HW2 4071   3.406   3.238   6.529 -0.0692 -0.3339 -0.9148
 1058SOL     OW 4072   3.125   2.943   0.796 -0.0753 -0.1294 -0.7296
 1058SOL    HW1 4073   3.210   2.963   0.845 -1.5801  1.4130  1.4183
 1058SOL    HW2 4074   3.122   2.999   0.713  1.0466 -0.3257 -0.9240
 1059SOL     OW 4075   2.176   5.245   0.987 -0.3062 -0.6997  0.0899
 1059SOL    HW1 4076   2.241   5.209   1.054  0.1912 -0.9180 -0.4993
 1059SOL    HW2 4077   2.170   5.345   0.996  0.1323 -0.6749  0.1365
 1060SOL     OW 4078   5.690   0.453   4.512  0.6350  0.0587 -0.3495
 1060SOL    HW1 4079   5.649   0.529   4.461 -4.0037 -1.3096  0.7849
 1060SOL    HW2 4080   5.712   0.378   4.449 -0.2530  0.2648 -0.9272
 1061SOL     OW 4081   1.939   3.661   5.795 -0.5028  0.4012  0.5789
 1061SOL    HW1 4082   1.940   3.726   5.719  0.7228  0.8940  0.9830
 1061SOL    HW2 4083   2.028   3.663   5.841 -0.8720 -0.6586  1.3759
 1062SOL     OW 4084   5.155   3.250   5.711 -0.1834  0.0896  0.3035
 1062SOL    HW1 4085   5.237   3.221   5.761 -1.3150  1.4081  3.1514
 1062SOL    HW2 4086   5.180   3.315   5.640  1.1706  1.3555  1.8773
 1063SOL     OW 4087   3.032   5.216   4.272  0.6429 -0.6193  0.2230
 1063SOL    HW1 4088   3.122   5.261   4.271  0.5289 -0.3746 -0.8267
 1063SOL    HW2 4089   3.044   5.117   4.273  0.9010 -0.6394  2.9865
 1064SOL     OW 4090   1.470   3.093   6.762 -0.0425 -0.0063  0.1533
 1064SOL    HW1 4091   1.522   3.115   6.680 -1.0296  0.4684 -0.3604
 1064SOL    HW2 4092   1.531   3.091   6.841  0.8975 -0.3674 -0.5741
 1065SOL     OW 4093   5.063   0.625   5.644 -0.3700  0.1951  0.0175
 1065SOL    HW1 4094   5.010   0.641   5.728 -0.8654  2.6879 -0.6691
 1065SOL    HW2 4095   5.151   0.672   5.651  0.8113 -1.9124  0.1811
 1066SOL     OW 4096   4.215   6.783   0.131 -0.0810 -0.1753  0.9288
 1066SOL    HW1 4097   4.127   6.742   0.105  0.3531 -0.7901  0.4151
 1066SOL    HW2 4098   4.208   6.883   0.125 -0.2310 -0.2659 -0.8056
 1067SOL     OW 4099   3.899   0.478   6.444  0.5606  0.5001 -0.1373
 1067SOL    HW1 4100   3.803   0.498   6.425  0.9753  0.4758 -2.5876
 1067SOL    HW2 4101   3.948   0.564   6.460  0.7588  0.8349 -2.3444
 1068SOL     OW 4102   6.477   2.914   3.758 -0.1237  0.2761 -0.0468
 1068SOL    HW1 4103   6.466   2.835   3.818 -0.6783  0.1732 -0.2766
 1068SOL    HW2 4104   6.412   2.986   3.784  1.0745  1.0743  0.8133
 1069SOL     OW 4105   6.358   2.908   2.192 -0.3710 -0.7115 -0.2966
 1069SOL    HW1 4106   6.301   2.892   2.272  1.4662  0.9370  1.4394
 1069SOL    HW2 4107   6.404   2.823   2.167 -1.2025 -1.3194  0.1637
 1070SOL     OW 4108   1.294   1.012   1.252 -0.3499 -0.0916 -0.1014
 1070SOL    HW1 4109   1.211   1.033   1.200  0.1863  2.7536  0.0360
 1070SOL    HW2 4110   1.277   1.029   1.349  0.2319 -0.1155  0.0042
 1071SOL     OW 4111   1.736   2.016   5.427  0.1513 -0.4393  0.4821
 1071SOL    HW1 4112   1.752   1.948   5.356 -0.6171  0.2423 -0.3694
 1071SOL    HW2 4113   1.661   2.077   5.399 -0.3641 -0.3366  2.0144
 1072SOL     OW 4114   2.985   2.901   0.367 -0.2871 -0.3685 -0.0127
 1072SOL    HW1 4115   3.054   2.858   0.310  0.6667 -0.0933  0.8994
 1072SOL    HW2 4116   2.899   2.849   0.361  0.4794 -1.6910  0.1304
 1073SOL     OW 4117   5.728   2.758   2.809 -0.7223 -0.2134  0.0761
 1073SOL    HW1 4118   5.744   2.823   2.735  1.1745 -1.6013 -0.8139
 1073SOL    HW2 4119   5.815   2.731   2.850 -1.6495 -0.3444  2.0853
 1074SOL     OW 4120   1.766   0.346   1.250  0.7468 -0.1196  0.4478
 1074SOL    HW1 4121   1.784   0.386   1.160  0.8090 -0.1540  0.4445
 1074SOL    HW2 4122   1.805   0.254   1.254 -1.2081 -1.0313 -0.2778
 1075SOL     OW 4123   6.103   5.657   5.874  0.1202  0.4176 -0.4725
 1075SOL    HW1 4124   6.064   5.601   5.801  0.6133 -1.3371  0.5450
 1075SOL    HW2 4125   6.041   5.732   5.896 -0.8785 -0.0910 -1.4662
 1076SOL     OW 4126   2.788   4.911   5.144 -0.5327  0.2309  0.3664
 1076SOL    HW1 4127   2.707   4.925   5.087  0.4085 -0.2369 -1.1403
 1076SOL    HW2 4128   2.830   4.824   5.121  2.3742  1.9483 -1.5047
 1077SOL     OW 4129   4.951   0.324   0.420  0.0840  0.2070  0.7776
 1077SOL    HW1 4130   4.912   0.317   0.328 -1.9715  0.2966  1.5929
 1077SOL    HW2 4131   4.984   0.418   0.435  1.6400 -0.1311 -0.2774
 1078SOL     OW 4132   4.018   5.578   3.195 -0.0692 -0.1053 -0.6478
 1078SOL    HW1 4133   4.039   5.648   3.263 -1.7302  2.4202 -2.5276
 1078SOL    HW2 4134   4.075   5.591   3.115 -1.4104  0.0832 -1.6004
 1079SOL     OW 4135   1.507   0.661   0.985 -0.2400 -0.5566  0.1411
 1079SOL    HW1 4136   1.465   0.572   1.004  2.7333 -2.1386  0.0400
 1079SOL    HW2 4137   1.559   0.691   1.065  2.2700 -1.1147 -1.1886
 1080SOL     OW 4138   5.093   6.557   5.078 -0.7993 -0.3052 -0.2976
 1080SOL    HW1 4139   5.162   6.490   5.050 -0.4457 -0.0046 -0.1415
 1080SOL    HW2 4140   5.090   6.562   5.178  0.6284  1.4087 -0.3097
 1081SOL     OW 4141   0.508   1.800   4.593  0.0490  0.0316 -0.1902
 1081SOL    HW1 4142   0.421   1.766   4.558  0.3081  1.3546 -2.2925
 1081SOL    HW2 4143   0.495   1.838   4.685 -1.7391  0.8502 -0.7416
 1082SOL     OW 4144   5.724   0.499   0.153 -0.1705  0.5052  0.3705
 1082SOL    HW1 4145   5.679   0.446   0.225  0.0753  0.8111  0.7514
 1082SOL    HW2 4146   5.666   0.501   0.072  1.2063 -3.2616 -0.9378
 1083SOL     OW 4147   0.293   4.939   1.937 -0.7119  0.7066 -0.4041
 1083SOL    HW1 4148   0.331   4.981   2.020  0.0677 -0.5653 -0.0952
 1083SOL    HW2 4149   0.256   5.011   1.878 -1.0741  1.6547  0.9289
 1084SOL     OW 4150   4.724   1.046   6.800 -0.0482  0.0758 -0.3314
 1084SOL    HW1 4151   4.624   1.042   6.806 -0.1549 -2.1623 -2.2292
 1084SOL    HW2 4152   4.754   1.000   6.717  2.6344 -0.1856  0.6874
 1085SOL     OW 4153   2.598   1.503   5.650  0.4359  0.0948 -0.0923
 1085SOL    HW1 4154   2.672   1.461   5.597  1.3970  1.4919  0.0784
 1085SOL    HW2 4155   2.583   1.452   5.734  1.3203 -0.1280 -0.0641
 1086SOL     OW 4156   5.857   3.465   6.882 -0.1788 -0.3435 -0.3073
 1086SOL    HW1 4157   5.795   3.391   6.856  0.9117 -1.5939  0.5271
 1086SOL    HW2 4158   5.852   3.480   6.981 -0.1881  0.5192 -0.4322
 1087SOL     OW 4159   4.940   1.627   4.666  0.0076  0.1770 -0.6266
 1087SOL    HW1 4160   5.035   1.628   4.637  0.3948 -1.0222  0.5584
 1087SOL    HW2 4161   4.901   1.719   4.656  1.2782  0.6762 -1.0957
 1088SOL     OW 4162   5.078   6.649   5.600 -0.6133  0.0246 -0.0760
 1088SOL    HW1 4163   5.165   6.690   5.573 -0.9348  0.9661  0.2742
 1088SOL    HW2 4164   5.004   6.688   5.546 -0.9386  0.0019  0.3436
 1089SOL     OW 4165   4.896   5.067   5.210  0.1908  0.1199 -0.0684
 1089SOL    HW1 4166   4.837   5.042   5.134 -2.0077 -0.1416  1.6345
 1089SOL    HW2 4167   4.887   4.999   5.283  0.6184  1.4515  1.2764
 1090SOL     OW 4168   0.788   1.174   0.209  0.5434  0.0915 -0.0447
 1090SOL    HW1 4169   0.722   1.249   0.202 -0.3937 -0.3588  2.8563
 1090SOL    HW2 4170   0.743   1.088   0.185  1.5777  0.2830 -3.2149
 1091SOL     OW 4171   2.187   3.077   4.001  0.3046 -0.2439 -0.0322
 1091SOL    HW1 4172   2.204   3.166   4.043  0.2048 -0.6536  0.8879
 1091SOL    HW2 4173   2.104   3.037   4.040  0.0042 -0.4788 -0.8842
 1092SOL     OW 4174   1.581   4.252   0.503  0.1335 -0.3963  0.1405
 1092SOL    HW1 4175   1.518   4.328   0.519 -0.4244 -0.8257  0.0172
 1092SOL    HW2 4176   1.666   4.268   0.554  0.7134  1.1478 -1.1963
 1093SOL     OW 4177   1.163   5.755   3.436 -0.3996  0.2064 -0.0692
 1093SOL    HW1 4178   1.168   5.788   3.530  0.4940  1.6080 -0.5797
 1093SOL    HW2 4179   1.256   5.735   3.403 -0.6441  0.4017 -0.8839
 1094SOL     OW 4180   0.201   0.928   3.631  0.4776  0.2221  0.3627
 1094SOL    HW1 4181   0.278   0.897   3.686  2.6678  1.7766 -1.6122
 1094SOL    HW2 4182   0.190   1.027   3.641  0.3319  0.3960 -1.2449
 1095SOL     OW 4183   6.602   3.343   1.850 -0.2888 -0.0042  0.0948
 1095SOL    HW1 4184   6.646   3.395   1.777 -0.7366  0.6965  0.3070
 1095SOL    HW2 4185   6.512   3.384   1.870 -0.6558 -0.8697  0.2635
 1096SOL     OW 4186   2.709   5.355   1.923 -0.4343 -0.5315  0.1995
 1096SOL    HW1 4187   2.676   5.420   1.992  0.2115  0.7251 -0.6196
 1096SOL    HW2 4188   2.809   5.361   1.918 -0.3100 -2.0220  0.4908
 1097SOL     OW 4189   3.293   5.836   3.396 -0.3830 -0.1178  0.2141
 1097SOL    HW1 4190   3.338   5.763   3.447 -1.5786 -0.4266  0.8694
 1097SOL    HW2 4191   3.351   5.865   3.320 -0.0919 -2.1276 -0.3863
 1098SOL     OW 4192   6.348   4.618   6.629  0.2760  0.1166  0.8860
 1098SOL    HW1 4193   6.262   4.666   6.608  0.7181  0.2571 -0.7648
 1098SOL    HW2 4194   6.366   4.624   6.727 -1.3900  0.4258  1.2138
 1099SOL     OW 4195   6.407   6.683   4.423 -0.2433 -0.6632  0.0067
 1099SOL    HW1 4196   6.409   6.730   4.334  1.4529 -1.8983 -0.6689
 1099SOL    HW2 4197   6.449   6.741   4.492  0.9338 -0.7404 -0.6077
 1100SOL     OW 4198   3.740   0.886   3.164 -0.5135 -0.4224  0.1586
 1100SOL    HW1 4199   3.799   0.901   3.085 -1.1769 -0.2014 -0.3053
 1100SOL    HW2 4200   3.647   0.915   3.142 -0.6430 -0.0527  1.1325
 1101SOL     OW 4201   5.713   4.511   0.081  0.6190  0.2882 -0.5897
 1101SOL    HW1 4202   5.655   4.438   0.044 -0.0898  2.5665 -4.6583
 1101SOL    HW2 4203   5.657   4.572   0.138  0.5426 -0.7683  0.4957
 1102SOL     OW 4204   4.550   2.320   5.898 -0.0380  0.2840  0.1646
 1102SOL    HW1 4205   4.471   2.350   5.843 -0.1738 -0.6062 -0.1432
 1102SOL    HW2 4206   4.526   2.323   5.995 -0.7836 -0.8619  0.0339
 1103SOL     OW 4207   3.149   7.000   0.416  0.2009  0.9038 -0.0537
 1103SOL    HW1 4208   3.202   6.939   0.475 -3.1245 -0.4946  1.7537
 1103SOL    HW2 4209   3.120   7.080   0.468  1.2540  2.1104 -1.2755
 1104SOL     OW 4210   5.868   2.391   4.927 -0.8087  0.3792  0.1408
 1104SOL    HW1 4211   5.878   2.324   5.001  1.3119  0.2678 -0.1924
 1104SOL    HW2 4212   5.850   2.343   4.841 -2.8670  0.4889  0.4524
 1105SOL     OW 4213   6.852   7.007   6.478  0.2850  1.0325 -0.0762
 1105SOL    HW1 4214   6.767   7.049   6.510 -0.2404 -0.6415  0.8657
 1105SOL    HW2 4215   6.836   6.966   6.388  0.3839  1.5624 -0.3382
 1106SOL     OW 4216   5.070   0.981   1.476  0.6773  0.6034 -0.2756
 1106SOL    HW1 4217   4.992   1.004   1.418  1.2918  0.3195 -1.2373
 1106SOL    HW2 4218   5.083   1.054   1.544  0.7313  1.6168 -1.3266
 1107SOL     OW 4219   0.835   2.697   1.273 -0.4187  0.1017  0.5414
 1107SOL    HW1 4220   0.796   2.786   1.300 -0.6861  0.1610 -0.0252
 1107SOL    HW2 4221   0.882   2.707   1.185  0.5808 -0.0524  1.0496
 1108SOL     OW 4222   3.013   1.475   1.921  0.2218  0.1793 -0.3352
 1108SOL    HW1 4223   3.008   1.471   2.021  0.7676 -1.1185 -0.3338
 1108SOL    HW2 4224   3.086   1.415   1.889 -1.6079 -1.4958 -1.6427
 1109SOL     OW 4225   6.415   0.085   4.843 -0.1559 -0.2191 -0.0191
 1109SOL    HW1 4226   6.339   0.148   4.854  0.2807  0.4107 -0.5361
 1109SOL    HW2 4227   6.382  -0.002   4.808 -0.7122 -0.1516  0.3314
 1110SOL     OW 4228   1.369   0.436   0.126 -0.4247  0.1987  0.3732
 1110SOL    HW1 4229   1.410   0.527   0.119 -2.4335  1.1646  0.6003
 1110SOL    HW2 4230   1.391   0.397   0.216  0.7693  0.2541  0.1312
 1111SOL     OW 4231   3.962   3.750   6.802  0.0502 -0.9945 -0.1699
 1111SOL    HW1 4232   4.061   3.736   6.793  0.7108  1.7729  1.5276
 1111SOL    HW2 4233   3.935   3.733   6.897 -0.9990 -1.0493 -0.4660
 1112SOL     OW 4234   0.105   0.714   2.311 -0.2924  0.3073  0.2424
 1112SOL    HW1 4235   0.115   0.738   2.408  0.5142  1.1788 -0.0388
 1112SOL    HW2 4236   0.176   0.649   2.286 -0.0095  0.6862  0.0531
 1113SOL     OW 4237   0.139   1.827   3.440  0.1107 -0.1261  1.0678
 1113SOL    HW1 4238   0.182   1.917   3.429  1.7926 -0.9948 -0.0644
 1113SOL    HW2 4239   0.109   1.815   3.534 -1.7418  2.2534  0.8775
 1114SOL     OW 4240   3.806   4.026   4.144 -0.0998  0.3180 -0.1228
 1114SOL    HW1 4241   3.717   4.025   4.097  0.3080  2.2748 -1.0090
 1114SOL    HW2 4242   3.797   4.074   4.231  0.0436  0.3709 -0.1370
 1115SOL     OW 4243   0.691   5.668   6.120 -0.3993  0.0125  0.2577
 1115SOL    HW1 4244   0.632   5.602   6.072 -0.7163  0.3161  0.2246
 1115SOL    HW2 4245   0.647   5.758   6.120  0.2426  0.3304 -0.0913
 1116SOL     OW 4246   5.910   0.121   6.591 -0.7057 -0.5563 -0.1370
 1116SOL    HW1 4247   5.946   0.135   6.683 -2.7619 -0.7448  0.7529
 1116SOL    HW2 4248   5.815   0.151   6.588 -0.7727 -0.8419 -2.1377
 1117SOL     OW 4249   2.415   1.493   0.827 -0.9973  0.2149  0.1608
 1117SOL    HW1 4250   2.472   1.458   0.753  2.3885 -0.2864  2.7493
 1117SOL    HW2 4251   2.350   1.422   0.856 -0.7979 -0.3817 -0.7917
 1118SOL     OW 4252   4.157   0.461   6.820 -0.1956  0.2338  0.4014
 1118SOL    HW1 4253   4.232   0.469   6.887 -1.2135  1.6409  1.4304
 1118SOL    HW2 4254   4.114   0.371   6.830 -0.3716  0.4383  1.7167
 1119SOL     OW 4255   2.362   5.934   3.838  0.2930 -0.3734 -0.2411
 1119SOL    HW1 4256   2.433   5.941   3.908  1.4155 -0.6455 -1.3407
 1119SOL    HW2 4257   2.348   5.838   3.814  3.0689 -0.1389 -3.4926
 1120SOL     OW 4258   0.580   2.841   3.065 -0.7463  0.0762 -0.1757
 1120SOL    HW1 4259   0.671   2.861   3.099 -0.7539  1.2047 -0.8067
 1120SOL    HW2 4260   0.522   2.810   3.141 -0.4818  1.5913  0.6699
 1121SOL     OW 4261   4.959   3.248   6.964  0.4660  0.3136  0.0723
 1121SOL    HW1 4262   4.916   3.160   6.983  2.4879 -0.7776 -0.0978
 1121SOL    HW2 4263   4.937   3.312   7.037  1.3586 -1.2831  1.8570
 1122SOL     OW 4264   4.935   1.365   1.697 -0.0816  0.1665 -0.1527
 1122SOL    HW1 4265   4.926   1.266   1.682 -0.4870  0.2714 -0.6133
 1122SOL    HW2 4266   4.965   1.381   1.791  2.6716 -0.5092 -0.8070
 1123SOL     OW 4267   3.847   1.552   6.484 -0.2021  0.7238  0.5020
 1123SOL    HW1 4268   3.890   1.587   6.567 -0.3806 -0.6015  1.1792
 1123SOL    HW2 4269   3.761   1.507   6.507 -0.3892  0.5708 -0.4424
 1124SOL     OW 4270   2.214   2.264   1.005  0.3622  0.0988  0.0741
 1124SOL    HW1 4271   2.232   2.176   1.049 -0.9754 -0.1707  0.1333
 1124SOL    HW2 4272   2.290   2.326   1.022  0.1859 -0.2065  2.2632
 1125SOL     OW 4273   1.731   2.208   4.338 -0.2538  0.2973  0.3819
 1125SOL    HW1 4274   1.731   2.254   4.249  0.0632 -2.7818 -1.3519
 1125SOL    HW2 4275   1.812   2.237   4.390 -0.4049  2.0944 -0.3241
 1126SOL     OW 4276   5.777   4.294   3.747  0.1299 -0.3447  0.0147
 1126SOL    HW1 4277   5.694   4.241   3.731  0.2440 -0.4815 -0.1320
 1126SOL    HW2 4278   5.852   4.254   3.694 -0.2489  1.2107 -1.7981
 1127SOL     OW 4279   4.263   1.783   6.135  0.0867  0.0583  0.0414
 1127SOL    HW1 4280   4.276   1.768   6.233  1.2710  0.4664 -0.0295
 1127SOL    HW2 4281   4.196   1.718   6.100 -0.6571  0.1680  1.1890
 1128SOL     OW 4282   2.292   2.850   6.112  0.3406 -0.0487 -0.4222
 1128SOL    HW1 4283   2.367   2.839   6.046  0.1509  0.6731 -0.7747
 1128SOL    HW2 4284   2.310   2.931   6.168 -0.7335  0.8032 -1.2796
 1129SOL     OW 4285   1.898   6.765   6.010  0.3430 -0.1071  0.2970
 1129SOL    HW1 4286   1.853   6.815   6.084 -1.6613 -0.4034 -0.6631
 1129SOL    HW2 4287   1.947   6.687   6.048  0.2947  0.3836  1.4111
 1130SOL     OW 4288   3.798   5.259   6.685  0.2676 -0.5491 -0.0169
 1130SOL    HW1 4289   3.795   5.329   6.756  0.7242 -2.5803  2.1093
 1130SOL    HW2 4290   3.866   5.284   6.616  0.6168  0.9408  0.8268
 1131SOL     OW 4291   1.674   4.539   2.518 -0.0375 -0.0812 -0.6439
 1131SOL    HW1 4292   1.659   4.637   2.522  2.0592  0.3505 -1.7737
 1131SOL    HW2 4293   1.591   4.493   2.487 -1.8723  0.9885  2.2542
 1132SOL     OW 4294   0.769   3.608   2.702  0.1638 -0.2032  0.1988
 1132SOL    HW1 4295   0.864   3.611   2.672  0.0119  0.3817 -0.2484
 1132SOL    HW2 4296   0.709   3.603   2.622 -0.1711 -0.9665  0.4873
 1133SOL     OW 4297   3.160   5.674   0.319 -0.3656 -0.0862 -0.3385
 1133SOL    HW1 4298   3.220   5.716   0.251  1.6921 -2.7600 -0.3592
 1133SOL    HW2 4299   3.099   5.743   0.358  0.7975  2.2114 -2.3482
 1134SOL     OW 4300   5.355   6.106   0.187  0.3945  0.2590 -0.1718
 1134SOL    HW1 4301   5.399   6.172   0.125 -0.0468  0.2311 -0.5221
 1134SOL    HW2 4302   5.266   6.141   0.214 -1.9671 -2.0532 -3.9506
 1135SOL     OW 4303   3.333   0.177   3.309  0.4105  0.0897 -0.1811
 1135SOL    HW1 4304   3.242   0.194   3.272  0.3343  0.4505  0.1590
 1135SOL    HW2 4305   3.374   0.264   3.337  0.9168 -0.0530 -0.4625
 1136SOL     OW 4306   2.593   5.358   2.691  0.5341  0.9708  0.0460
 1136SOL    HW1 4307   2.650   5.278   2.711 -1.5388 -0.2540  1.3909
 1136SOL    HW2 4308   2.531   5.336   2.615 -0.8110  0.8602  1.1462
 1137SOL     OW 4309   1.871   5.428   4.228  0.1777 -0.1630  0.0292
 1137SOL    HW1 4310   1.929   5.426   4.310  0.3170  1.8035  0.0396
 1137SOL    HW2 4311   1.787   5.479   4.248 -1.0354 -1.9047 -0.3459
 1138SOL     OW 4312   2.113   4.384   3.857 -0.0724 -0.4901 -0.0098
 1138SOL    HW1 4313   2.178   4.333   3.801  0.3304 -0.1120  0.1099
 1138SOL    HW2 4314   2.161   4.426   3.934 -0.5315 -0.5586  0.3160
 1139SOL     OW 4315   1.856   6.393   5.715 -0.6926 -0.1881 -0.1147
 1139SOL    HW1 4316   1.821   6.409   5.808  0.9196  0.0911  0.4789
 1139SOL    HW2 4317   1.813   6.312   5.677  0.1421 -1.5644  1.7301
 1140SOL     OW 4318   1.420   4.596   1.438 -0.4557 -0.2760  0.3298
 1140SOL    HW1 4319   1.425   4.687   1.480 -0.5393 -0.1302  0.0324
 1140SOL    HW2 4320   1.454   4.602   1.344 -0.9073 -0.4516  0.1539
 1141SOL     OW 4321   0.362   4.100   5.654 -0.3292 -0.1436  0.7092
 1141SOL    HW1 4322   0.415   4.089   5.737  0.4177 -0.5150  0.1936
 1141SOL    HW2 4323   0.324   4.012   5.626  0.6267 -0.3108 -0.1211
 1142SOL     OW 4324   1.312   0.809   2.389  0.3609  0.3039  0.3942
 1142SOL    HW1 4325   1.400   0.851   2.406 -0.4714  1.8565  1.0604
 1142SOL    HW2 4326   1.299   0.795   2.291  1.2050  0.3504  0.2730
 1143SOL     OW 4327   0.158   3.691   1.008 -0.4199 -0.1392 -0.0570
 1143SOL    HW1 4328   0.145   3.789   1.022  1.8045 -0.0865  2.5277
 1143SOL    HW2 4329   0.226   3.676   0.936 -1.0938  0.1572 -0.7725
 1144SOL     OW 4330   5.018   5.253   0.647 -0.2567 -0.0212  0.2266
 1144SOL    HW1 4331   5.008   5.168   0.595  0.9676  0.6172 -1.1318
 1144SOL    HW2 4332   5.021   5.330   0.583  0.1909  0.8977  1.3376
 1145SOL     OW 4333   5.738   0.243   2.372  0.0072 -0.0309 -0.1788
 1145SOL    HW1 4334   5.739   0.340   2.397  1.3301  0.8078 -3.0241
 1145SOL    HW2 4335   5.832   0.211   2.360 -0.4429 -1.4865  0.0121
 1146SOL     OW 4336   6.698   0.604   1.416  0.2019 -1.0116  0.3758
 1146SOL    HW1 4337   6.784   0.637   1.375  0.4098  0.3791  1.8515
 1146SOL    HW2 4338   6.712   0.584   1.513 -1.1192 -0.8680  0.6193
 1147SOL     OW 4339   1.197   6.624   0.993  0.1078  0.6882 -0.2769
 1147SOL    HW1 4340   1.148   6.711   0.986  0.8041  0.9734 -2.3130
 1147SOL    HW2 4341   1.179   6.569   0.911 -1.8194 -1.9769  1.7452
 1148SOL     OW 4342   5.291   5.212   1.487 -0.1490  0.6294 -0.5536
 1148SOL    HW1 4343   5.267   5.197   1.583  0.2070 -0.2680 -0.6021
 1148SOL    HW2 4344   5.361   5.146   1.459 -0.7655  0.4203 -1.6341
 1149SOL     OW 4345   5.237   3.931   1.851  0.8420  0.2435 -0.0203
 1149SOL    HW1 4346   5.206   4.026   1.858  0.3748  0.2944 -2.0633
 1149SOL    HW2 4347   5.158   3.871   1.839  1.1740 -0.3505  0.7136
 1150SOL     OW 4348   0.702   1.872   1.042  0.5010 -0.6120 -0.1259
 1150SOL    HW1 4349   0.784   1.841   1.092  1.3790 -0.2106 -1.2746
 1150SOL    HW2 4350   0.631   1.897   1.108  1.3669 -0.7785  0.9059
 1151SOL     OW 4351   5.254   5.688   6.290 -0.0544  0.0370 -0.1766
 1151SOL    HW1 4352   5.283   5.592   6.286 -3.1720 -1.3335  3.4108
 1151SOL    HW2 4353   5.236   5.721   6.197  1.5545 -2.6783 -1.5750
 1152SOL     OW 4354   2.791   6.066   6.822  0.0429  0.0868 -0.1674
 1152SOL    HW1 4355   2.806   6.020   6.909 -2.4180  0.7535  0.7092
 1152SOL    HW2 4356   2.874   6.115   6.795  1.9159 -2.7627  0.0863
 1153SOL     OW 4357   3.417   6.940   1.588  0.1661 -0.4493 -0.3801
 1153SOL    HW1 4358   3.346   7.005   1.560  0.0330 -0.3050  0.2831
 1153SOL    HW2 4359   3.494   6.945   1.524  0.6080  1.1113  0.2207
 1154SOL     OW 4360   1.226   2.287   3.291 -0.0598 -0.1409 -0.3577
 1154SOL    HW1 4361   1.242   2.192   3.266  1.0155 -0.0218 -0.1803
 1154SOL    HW2 4362   1.168   2.291   3.373  2.6380 -0.7975  1.7153
 1155SOL     OW 4363   4.029   6.030   4.829  0.5688 -0.2944 -0.6996
 1155SOL    HW1 4364   4.118   5.985   4.832  0.7023  0.0046  0.4648
 1155SOL    HW2 4365   3.967   5.985   4.894 -0.2369 -0.6917 -1.7108
 1156SOL     OW 4366   3.080   0.632   6.905 -0.3836  0.7584  0.5613
 1156SOL    HW1 4367   3.025   0.710   6.934  1.9828  2.6788  0.2391
 1156SOL    HW2 4368   3.096   0.638   6.806  2.5974  1.9314  0.9969
 1157SOL     OW 4369   1.519   2.431   0.547 -0.4395 -0.2392  0.6222
 1157SOL    HW1 4370   1.431   2.385   0.563 -0.4517  0.1228  1.6336
 1157SOL    HW2 4371   1.591   2.383   0.597 -0.5041  0.9890  1.9706
 1158SOL     OW 4372   6.858   6.342   4.117  0.3765 -0.0709 -0.1096
 1158SOL    HW1 4373   6.921   6.293   4.177 -1.8001 -0.8227  1.7151
 1158SOL    HW2 4374   6.903   6.362   4.030  2.5673 -1.9782  0.4860
 1159SOL     OW 4375   6.228   4.075   6.761  0.0006  0.2587  0.5024
 1159SOL    HW1 4376   6.265   4.111   6.675  0.3292 -0.4534  0.3306
 1159SOL    HW2 4377   6.129   4.079   6.759 -0.1038 -1.6003 -0.7809
 1160SOL     OW 4378   6.920   1.489   0.833  0.2270  0.3199  0.0221
 1160SOL    HW1 4379   6.855   1.540   0.889  0.9348  0.4862  0.7086
 1160SOL    HW2 4380   6.870   1.430   0.770 -0.5988  0.0035  0.9431
 1161SOL     OW 4381   1.010   3.631   0.171  0.3896 -0.0706  0.0545
 1161SOL    HW1 4382   1.001   3.718   0.220 -0.2835  0.9060 -1.7099
 1161SOL    HW2 4383   1.065   3.645   0.089  2.3775 -1.9044  0.9759
 1162SOL     OW 4384   0.584   1.444   4.824 -0.0477  0.3879 -0.0815
 1162SOL    HW1 4385   0.532   1.513   4.875 -1.6738 -0.4128 -0.5778
 1162SOL    HW2 4386   0.566   1.353   4.863  1.1692  0.1024 -0.1481
 1163SOL     OW 4387   4.306   1.011   2.508  0.5704  0.1942  0.1652
 1163SOL    HW1 4388   4.400   1.013   2.544  1.3690  3.6511 -1.6089
 1163SOL    HW2 4389   4.309   1.011   2.408 -1.3786 -0.3892  0.0807
 1164SOL     OW 4390   4.474   1.771   0.083 -0.9495 -0.3215 -0.1748
 1164SOL    HW1 4391   4.479   1.673   0.063 -1.8168 -0.3449 -0.3028
 1164SOL    HW2 4392   4.561   1.814   0.059 -0.7899 -0.9469 -0.7425
 1165SOL     OW 4393   4.712   6.784   1.517 -0.4531 -0.0476 -0.0348
 1165SOL    HW1 4394   4.669   6.701   1.481  0.1649 -0.3626 -0.0488
 1165SOL    HW2 4395   4.699   6.787   1.616 -0.0136 -0.4333  0.0360
 1166SOL     OW 4396   4.567   5.067   0.779  0.3880  0.5590 -0.3359
 1166SOL    HW1 4397   4.573   4.969   0.802 -1.9784  0.6875  1.2119
 1166SOL    HW2 4398   4.606   5.121   0.853  0.8278  0.8417 -0.7639
 1167SOL     OW 4399   5.970   2.928   4.413  0.4973 -0.6558 -0.0001
 1167SOL    HW1 4400   5.969   3.005   4.348 -1.9560  0.5012  1.2916
 1167SOL    HW2 4401   6.059   2.923   4.457  0.7718  1.3581 -0.2483
 1168SOL     OW 4402   6.261   1.010   2.337  0.1490  0.8048 -0.0314
 1168SOL    HW1 4403   6.234   1.047   2.426 -2.6790 -1.5171  0.1995
 1168SOL    HW2 4404   6.325   0.934   2.350  0.7847  1.3172 -0.1030
 1169SOL     OW 4405   6.272   2.373   6.968 -0.5439 -0.7075 -0.2364
 1169SOL    HW1 4406   6.344   2.329   6.914  0.3887  0.1667  0.2632
 1169SOL    HW2 4407   6.182   2.342   6.936 -0.0694  0.4168 -2.8493
 1170SOL     OW 4408   4.948   3.266   2.005 -0.3408 -0.5273  0.4600
 1170SOL    HW1 4409   4.932   3.185   1.949  0.9575 -0.1545 -0.4749
 1170SOL    HW2 4410   4.937   3.241   2.102 -0.3055 -1.7372  0.1739
 1171SOL     OW 4411   6.676   5.470   1.107  0.3162 -0.1190 -0.6404
 1171SOL    HW1 4412   6.709   5.558   1.143 -0.2074  0.5181 -1.6705
 1171SOL    HW2 4413   6.594   5.443   1.158  0.4061  0.0551 -0.3983
 1172SOL     OW 4414   0.681   2.704   6.085  0.3380 -0.2333  0.0004
 1172SOL    HW1 4415   0.764   2.759   6.081  0.4686 -0.3066  1.1809
 1172SOL    HW2 4416   0.700   2.619   6.136 -0.5404 -0.0776  0.6193
 1173SOL     OW 4417   5.609   2.505   1.371 -0.3500 -0.4556  0.3502
 1173SOL    HW1 4418   5.685   2.506   1.306  1.9917 -1.4642  2.8529
 1173SOL    HW2 4419   5.552   2.586   1.358  1.2419  0.4461 -1.5349
 1174SOL     OW 4420   4.443   6.703   0.337 -0.2600  0.0415 -0.5049
 1174SOL    HW1 4421   4.413   6.643   0.411  1.1676 -1.8662 -1.4171
 1174SOL    HW2 4422   4.362   6.739   0.289 -1.1769  0.5260  1.2992
 1175SOL     OW 4423   3.240   4.095   3.421 -0.5383 -0.3246  0.0296
 1175SOL    HW1 4424   3.233   4.189   3.387  0.6227 -0.1269  0.2810
 1175SOL    HW2 4425   3.285   4.038   3.352 -0.2412 -0.4373  0.3127
 1176SOL     OW 4426   4.317   4.461   6.685  0.3270 -0.5753  0.7205
 1176SOL    HW1 4427   4.338   4.425   6.776  1.0655  1.6433  1.4787
 1176SOL    HW2 4428   4.401   4.473   6.633 -0.1405 -2.5689 -0.6232
 1177SOL     OW 4429   1.550   6.854   4.851 -0.0861 -0.2120 -0.5083
 1177SOL    HW1 4430   1.547   6.890   4.944  1.2700  4.0950 -1.9155
 1177SOL    HW2 4431   1.458   6.855   4.811 -0.3447 -0.0603  0.0863
 1178SOL     OW 4432   3.756   6.154   5.648 -0.2865  0.0661 -0.3173
 1178SOL    HW1 4433   3.730   6.188   5.738  0.5160 -0.3068  0.0659
 1178SOL    HW2 4434   3.828   6.212   5.610  0.7587 -0.8922  0.1389
 1179SOL     OW 4435   6.933   6.579   1.685 -0.0228  0.4262 -0.2743
 1179SOL    HW1 4436   6.989   6.505   1.723 -1.7174 -0.6572  0.2197
 1179SOL    HW2 4437   6.837   6.552   1.686 -0.4792  1.7948 -2.1187
 1180SOL     OW 4438   4.586   6.548   1.449  0.5962 -0.5058 -0.3151
 1180SOL    HW1 4439   4.518   6.556   1.376 -1.3574  0.3206  1.4914
 1180SOL    HW2 4440   4.547   6.497   1.525  1.7068  0.7045  1.1174
 1181SOL     OW 4441   5.372   6.297   5.622  0.5550 -0.2410  0.3781
 1181SOL    HW1 4442   5.278   6.293   5.590  0.5747  1.1099  0.0940
 1181SOL    HW2 4443   5.410   6.204   5.624 -0.1288 -0.6248 -1.4836
 1182SOL     OW 4444   5.151   1.422   3.271 -0.4147  0.0495  0.4591
 1182SOL    HW1 4445   5.081   1.403   3.340 -0.6856 -0.3583  0.0785
 1182SOL    HW2 4446   5.120   1.498   3.213  1.3455  2.8598  2.9505
 1183SOL     OW 4447   2.449   4.483   0.141  0.6424  0.7619 -0.4144
 1183SOL    HW1 4448   2.495   4.441   0.219  2.9986  2.3510 -0.8350
 1183SOL    HW2 4449   2.477   4.437   0.057 -2.3225 -1.3136 -0.3928
 1184SOL     OW 4450   1.196   1.057   5.611  0.3376 -0.2751 -0.7306
 1184SOL    HW1 4451   1.218   1.154   5.595  0.4226 -0.1470  0.1354
 1184SOL    HW2 4452   1.098   1.048   5.626  0.3023 -0.3542 -1.0010
 1185SOL     OW 4453   0.340   0.629   0.332 -0.4286 -0.4974  0.0848
 1185SOL    HW1 4454   0.376   0.553   0.386  1.2122 -0.3143 -0.6899
 1185SOL    HW2 4455   0.326   0.708   0.390  1.9050 -0.1066  0.2174
 1186SOL     OW 4456   5.752   6.390   3.973 -1.1325 -0.0395 -0.2048
 1186SOL    HW1 4457   5.725   6.301   3.935  0.6168 -1.1849  1.0513
 1186SOL    HW2 4458   5.828   6.377   4.036 -0.4624  2.4475 -0.3910
 1187SOL     OW 4459   6.869   2.725   4.766 -0.3104  0.3813 -0.1397
 1187SOL    HW1 4460   6.871   2.775   4.853  0.6795 -0.0323  0.0929
 1187SOL    HW2 4461   6.951   2.667   4.760 -0.7870 -0.2106 -0.9844
 1188SOL     OW 4462   4.567   2.200   6.371  0.0109 -0.1497  0.3000
 1188SOL    HW1 4463   4.475   2.188   6.407 -0.3279  1.0552 -0.1340
 1188SOL    HW2 4464   4.593   2.118   6.318 -1.4927  0.1790 -1.0258
 1189SOL     OW 4465   6.944   2.995   3.625 -0.1947  0.6755 -0.1443
 1189SOL    HW1 4466   7.006   3.039   3.690 -0.1090  0.6971 -0.2395
 1189SOL    HW2 4467   6.953   3.039   3.535 -1.2533  1.4999  0.1400
 1190SOL     OW 4468   2.484   0.351   4.372 -0.3669 -0.1955  0.2796
 1190SOL    HW1 4469   2.524   0.322   4.285 -0.6711  0.5479 -0.1232
 1190SOL    HW2 4470   2.550   0.338   4.446  0.1588 -0.1660 -0.1805
 1191SOL     OW 4471   1.282   0.548   5.162  0.1216 -0.1394 -0.2424
 1191SOL    HW1 4472   1.234   0.577   5.079 -0.5037  1.6287  0.6968
 1191SOL    HW2 4473   1.381   0.549   5.144  0.0189  0.7502 -0.8057
 1192SOL     OW 4474   5.751   5.885   3.336 -0.0999 -0.0407 -0.1858
 1192SOL    HW1 4475   5.699   5.971   3.330  0.4376  0.3410  0.5531
 1192SOL    HW2 4476   5.802   5.883   3.422 -0.7450 -1.4759  0.1781
 1193SOL     OW 4477   6.315   5.994   3.443  0.2233 -0.1388  0.0449
 1193SOL    HW1 4478   6.304   6.046   3.359 -0.0364 -0.1043  0.1003
 1193SOL    HW2 4479   6.298   6.054   3.522  1.1109 -0.0023  0.1413
 1194SOL     OW 4480   3.999   1.699   2.386  0.0611  0.1393 -0.3212
 1194SOL    HW1 4481   3.983   1.625   2.452 -1.2148  0.5151 -0.1744
 1194SOL    HW2 4482   4.046   1.775   2.432 -1.1457  0.5490  0.2927
 1195SOL     OW 4483   6.010   2.811   3.453 -0.0513  0.7282  0.0082
 1195SOL    HW1 4484   6.081   2.781   3.389  0.1741  2.3916 -0.5632
 1195SOL    HW2 4485   6.050   2.873   3.520 -0.7971  1.0276  0.1793
 1196SOL     OW 4486   6.435   5.887   6.133 -0.2697  0.0530 -0.7083
 1196SOL    HW1 4487   6.383   5.868   6.216 -0.5970  2.2062 -0.3454
 1196SOL    HW2 4488   6.531   5.865   6.147  0.2189  2.9471  1.3297
 1197SOL     OW 4489   4.028   6.177   0.026  0.5146 -0.0880 -0.0253
 1197SOL    HW1 4490   4.014   6.220   0.115 -1.4444 -0.2236 -0.2158
 1197SOL    HW2 4491   4.069   6.087   0.037  0.8099  0.1346  0.6930
 1198SOL     OW 4492   1.730   3.500   6.477  0.0200  0.0820 -0.9040
 1198SOL    HW1 4493   1.656   3.563   6.502 -0.0615 -1.0467  2.0800
 1198SOL    HW2 4494   1.734   3.491   6.378 -2.0563  2.2594 -1.2730
 1199SOL     OW 4495   4.318   5.734   5.797 -0.5447 -0.4410  0.4199
 1199SOL    HW1 4496   4.301   5.828   5.826  0.5946  0.7676 -2.4380
 1199SOL    HW2 4497   4.241   5.676   5.824 -1.5128  1.4068  1.8013
 1200SOL     OW 4498   3.017   3.581   1.243 -0.2290  0.2711  0.3531
 1200SOL    HW1 4499   3.072   3.517   1.297  1.3993 -0.0043 -1.5630
 1200SOL    HW2 4500   2.922   3.550   1.243 -0.1552 -0.1416  2.3652
 1201SOL     OW 4501   2.135   1.338   3.238  0.2155 -0.0323  0.0416
 1201SOL    HW1 4502   2.094   1.395   3.310 -0.8796 -0.6160 -0.0944
 1201SOL    HW2 4503   2.062   1.301   3.180  0.9560 -1.0272 -0.2797
 1202SOL     OW 4504   1.241   6.628   4.243 -0.0922 -0.3824  0.1398
 1202SOL    HW1 4505   1.340   6.634   4.252  0.0500 -0.1465 -1.2978
 1202SOL    HW2 4506   1.217   6.553   4.181 -0.7117  0.4708 -0.7053
 1203SOL     OW 4507   5.457   5.979   4.570  0.3601  0.0487  0.3433
 1203SOL    HW1 4508   5.414   5.906   4.517 -0.4559 -0.1874  1.2884
 1203SOL    HW2 4509   5.441   6.067   4.525 -0.4828 -0.1268  0.2711
 1204SOL     OW 4510   2.365   0.252   3.211 -0.1355 -0.8777 -0.0037
 1204SOL    HW1 4511   2.374   0.153   3.222 -0.1016 -0.7845  0.9604
 1204SOL    HW2 4512   2.383   0.297   3.299  0.0701  0.0014 -0.4825
 1205SOL     OW 4513   5.625   2.019   1.882 -0.9893  0.6521 -0.0797
 1205SOL    HW1 4514   5.627   1.970   1.795  1.0925  2.4286 -1.1425
 1205SOL    HW2 4515   5.566   2.099   1.874 -0.4796  1.0393  0.0066
 1206SOL     OW 4516   4.129   3.263   4.108 -0.1738 -0.1701  0.3016
 1206SOL    HW1 4517   4.104   3.352   4.146  0.6468  0.1337  0.1704
 1206SOL    HW2 4518   4.104   3.191   4.172  0.2972  0.2597  0.9830
 1207SOL     OW 4519   6.910   5.634   4.813  0.0385 -0.2142 -0.5965
 1207SOL    HW1 4520   6.845   5.565   4.780  0.0108  0.2423 -1.5192
 1207SOL    HW2 4521   6.928   5.701   4.740  0.3005  0.5827  0.1892
 1208SOL     OW 4522   3.429   2.897   6.244  0.1164  0.0568 -0.3395
 1208SOL    HW1 4523   3.470   2.806   6.256  0.3337  0.1151 -0.6420
 1208SOL    HW2 4524   3.487   2.952   6.184 -0.2255  0.2581 -0.4865
 1209SOL     OW 4525   5.370   6.915   0.094 -0.0692 -0.3658 -0.1912
 1209SOL    HW1 4526   5.365   6.954   0.003  0.2920 -0.3144 -0.1929
 1209SOL    HW2 4527   5.289   6.860   0.112 -0.6063  0.4356 -0.1620
 1210SOL     OW 4528   0.959   0.212   2.452  0.0299  0.5917 -0.2701
 1210SOL    HW1 4529   1.043   0.161   2.470  0.4772  0.4475 -2.4994
 1210SOL    HW2 4530   0.945   0.220   2.354 -1.9503  1.6744  0.0412
 1211SOL     OW 4531   0.802   5.267   6.714 -0.0133  0.5438  0.3438
 1211SOL    HW1 4532   0.768   5.281   6.621 -1.1497  0.0386  0.6576
 1211SOL    HW2 4533   0.788   5.171   6.740 -0.8862  0.9599  1.4739
 1212SOL     OW 4534   0.676   5.448   0.525  0.2195 -0.0064  0.2128
 1212SOL    HW1 4535   0.655   5.519   0.591 -0.0568 -1.4520  1.7379
 1212SOL    HW2 4536   0.592   5.405   0.494  0.5011 -1.7756  1.7533
 1213SOL     OW 4537   5.103   4.398   1.788 -0.1436  0.7564  0.4201
 1213SOL    HW1 4538   5.111   4.326   1.719  1.4467 -1.3582  2.6600
 1213SOL    HW2 4539   5.038   4.371   1.858  0.2953  1.5951  1.1829
 1214SOL     OW 4540   1.366   2.587   2.258 -0.5629 -0.0678  0.1143
 1214SOL    HW1 4541   1.349   2.489   2.274  0.4200 -0.2608  0.0575
 1214SOL    HW2 4542   1.401   2.628   2.342 -0.5826  0.1486  0.0174
 1215SOL     OW 4543   3.958   4.919   3.407 -0.0430  0.3231 -0.5224
 1215SOL    HW1 4544   3.900   4.890   3.483  1.4866 -0.2867  0.4659
 1215SOL    HW2 4545   3.988   5.013   3.422 -1.8083  1.1352 -1.7268
 1216SOL     OW 4546   4.916   0.251   2.522  0.9123 -0.0858  0.2210
 1216SOL    HW1 4547   5.001   0.208   2.492  1.7927  1.3723  0.5083
 1216SOL    HW2 4548   4.849   0.180   2.545  1.9800 -1.2636 -0.1663
 1217SOL     OW 4549   2.255   5.315   6.672 -0.2604  0.2401  0.0022
 1217SOL    HW1 4550   2.188   5.266   6.729 -0.7242  1.6772  0.7462
 1217SOL    HW2 4551   2.325   5.251   6.640 -1.0724 -0.9772  0.5719
 1218SOL     OW 4552   1.726   5.234   4.113 -0.1347 -0.3141  0.2083
 1218SOL    HW1 4553   1.667   5.297   4.062  0.2181 -0.0240  0.1571
 1218SOL    HW2 4554   1.802   5.285   4.154 -0.3530 -0.5594  0.9407
 1219SOL     OW 4555   2.794   4.191   0.073 -0.0527 -0.3071 -0.3054
 1219SOL    HW1 4556   2.832   4.108   0.114  0.2584 -0.4520 -0.8784
 1219SOL    HW2 4557   2.696   4.196   0.094  0.5913  1.2076  3.0997
 1220SOL     OW 4558   1.650   4.647   1.686 -0.3438 -0.2456 -0.4232
 1220SOL    HW1 4559   1.592   4.715   1.641 -0.0620 -0.9118 -1.8480
 1220SOL    HW2 4560   1.631   4.557   1.648 -0.7848 -1.0301  1.5127
 1221SOL     OW 4561   2.728   6.055   4.763  0.5403 -0.0241  0.1653
 1221SOL    HW1 4562   2.646   6.111   4.775  0.7829  0.1917  0.9029
 1221SOL    HW2 4563   2.707   5.977   4.705 -0.1629  0.0824  0.2622
 1222SOL     OW 4564   0.246   0.414   6.836 -0.1646  0.0392 -0.2014
 1222SOL    HW1 4565   0.323   0.384   6.892  1.9262  2.9085 -1.3153
 1222SOL    HW2 4566   0.175   0.452   6.895  1.2758  1.4779  0.6770
 1223SOL     OW 4567   5.377   6.281   0.727 -0.0533  0.0145  0.4252
 1223SOL    HW1 4568   5.446   6.239   0.668  1.2362 -0.2177  2.0066
 1223SOL    HW2 4569   5.287   6.245   0.705  0.7497 -2.1448  0.4121
 1224SOL     OW 4570   2.070   2.097   0.678  0.2855  0.1211 -0.3898
 1224SOL    HW1 4571   2.014   2.119   0.598 -0.0014  0.6030 -0.0598
 1224SOL    HW2 4572   2.075   2.176   0.738 -0.4440 -0.5799  0.6243
 1225SOL     OW 4573   3.135   2.463   0.515 -0.2196  0.0386  0.1565
 1225SOL    HW1 4574   3.165   2.551   0.552 -0.3943  0.7486 -1.3423
 1225SOL    HW2 4575   3.211   2.418   0.470  0.3854 -1.5202  2.5376
 1226SOL     OW 4576   3.699   6.150   0.612  0.0884  0.7160  0.1848
 1226SOL    HW1 4577   3.701   6.057   0.575 -1.1743  1.1301 -1.0251
 1226SOL    HW2 4578   3.607   6.188   0.599  0.3262  1.8050  1.5137
 1227SOL     OW 4579   0.210   4.894   4.771 -0.1868 -0.7622  0.5692
 1227SOL    HW1 4580   0.306   4.901   4.798 -0.1886 -1.2191  0.6977
 1227SOL    HW2 4581   0.195   4.807   4.724  0.1514  0.6256 -2.2908
 1228SOL     OW 4582   2.327   2.797   5.477 -0.7852 -0.1080 -0.0429
 1228SOL    HW1 4583   2.303   2.894   5.484  0.4147  0.2448 -0.5332
 1228SOL    HW2 4584   2.351   2.776   5.383 -1.0454 -0.8986  0.0604
 1229SOL     OW 4585   2.082   5.582   5.010 -0.3776  0.2505 -0.2593
 1229SOL    HW1 4586   2.069   5.664   4.953 -1.0711  0.0176 -0.4442
 1229SOL    HW2 4587   2.039   5.504   4.966  0.0275 -0.1573  0.0636
 1230SOL     OW 4588   3.023   6.321   3.513 -0.5652 -0.5116 -0.3477
 1230SOL    HW1 4589   3.023   6.242   3.452  0.9364  0.1769 -1.3135
 1230SOL    HW2 4590   2.942   6.318   3.572 -0.5335 -2.7652 -0.3242
 1231SOL     OW 4591   0.602   4.156   2.025 -0.3724  0.6805 -0.4551
 1231SOL    HW1 4592   0.669   4.224   2.055 -0.2879 -0.3498  1.9139
 1231SOL    HW2 4593   0.516   4.170   2.074 -0.5125 -0.5847 -0.3058
 1232SOL     OW 4594   1.912   2.136   2.169 -0.9251 -0.6726 -0.2546
 1232SOL    HW1 4595   1.968   2.184   2.102 -0.9715 -1.1947 -0.6795
 1232SOL    HW2 4596   1.823   2.115   2.129 -0.7596 -1.4697 -0.2203
 1233SOL     OW 4597   1.746   4.249   1.579 -0.3847  0.5403  0.5141
 1233SOL    HW1 4598   1.754   4.188   1.658  0.5250 -0.4091 -0.2787
 1233SOL    HW2 4599   1.686   4.325   1.602 -2.1692 -1.0153  1.3122
 1234SOL     OW 4600   5.378   4.220   5.117  0.0156 -0.4189 -0.3477
 1234SOL    HW1 4601   5.453   4.165   5.156  0.1156  0.5316  0.8809
 1234SOL    HW2 4602   5.360   4.190   5.024  3.4412  0.7481 -1.5466
 1235SOL     OW 4603   0.932   3.866   1.582 -0.7655 -0.0210  0.2454
 1235SOL    HW1 4604   0.868   3.793   1.605 -1.1270  0.4089  0.6374
 1235SOL    HW2 4605   0.906   3.906   1.493 -0.4924 -0.4499 -0.0266
 1236SOL     OW 4606   0.681   1.615   6.510  0.7395 -0.0914  0.1646
 1236SOL    HW1 4607   0.780   1.606   6.498  0.6855 -1.5450  0.6762
 1236SOL    HW2 4608   0.637   1.528   6.491 -0.6136  0.8770 -1.4669
 1237SOL     OW 4609   2.252   5.216   6.131 -0.7283  0.2444 -1.0482
 1237SOL    HW1 4610   2.339   5.172   6.109 -0.7976  0.1355 -1.1028
 1237SOL    HW2 4611   2.269   5.310   6.160 -0.6578  0.5051 -1.8933
 1238SOL     OW 4612   2.048   1.586   2.017 -0.5387 -0.5282 -0.0351
 1238SOL    HW1 4613   2.002   1.652   1.958 -1.4135  0.1353  1.3363
 1238SOL    HW2 4614   2.138   1.621   2.042 -1.0315  0.2041  0.7541
 1239SOL     OW 4615   1.302   1.640   4.589  0.2592 -0.5908 -0.3013
 1239SOL    HW1 4616   1.314   1.572   4.661  0.1582 -0.9717 -0.6393
 1239SOL    HW2 4617   1.379   1.636   4.526  0.0718 -0.6531 -0.5310
 1240SOL     OW 4618   5.347   3.946   0.925 -0.4504  0.4301 -0.3293
 1240SOL    HW1 4619   5.438   3.910   0.946 -1.3188 -0.9156  1.3866
 1240SOL    HW2 4620   5.329   4.025   0.984 -0.3688  0.7909 -0.7760
 1241SOL     OW 4621   0.126   2.189   3.570 -0.1417  0.0711 -0.7220
 1241SOL    HW1 4622   0.090   2.135   3.493  0.5534 -1.9209  0.3056
 1241SOL    HW2 4623   0.049   2.229   3.621 -0.7410 -1.0610 -0.7182
 1242SOL     OW 4624   0.422   2.210   5.446  0.1185  0.0849 -0.6367
 1242SOL    HW1 4625   0.350   2.258   5.495  0.8697 -0.3323  0.9291
 1242SOL    HW2 4626   0.470   2.274   5.386  0.3985  1.0551  0.5926
 1243SOL     OW 4627   3.133   4.011   4.360  0.5261 -0.2752 -0.5562
 1243SOL    HW1 4628   3.201   4.050   4.422 -1.0370  3.7144 -1.0936
 1243SOL    HW2 4629   3.067   3.957   4.413 -0.5812  2.7613  1.4107
 1244SOL     OW 4630   1.960   1.135   1.681  0.3948 -0.1492 -0.7721
 1244SOL    HW1 4631   1.980   1.100   1.772  2.1467  0.9368 -0.6911
 1244SOL    HW2 4632   1.871   1.101   1.650 -0.0095 -0.9111  1.1332
 1245SOL     OW 4633   4.007   3.583   5.706 -0.6287 -0.1731  0.5180
 1245SOL    HW1 4634   3.994   3.663   5.764  0.9011 -0.3096  1.1072
 1245SOL    HW2 4635   3.927   3.524   5.711 -1.7643  1.2861  0.1041
 1246SOL     OW 4636   1.266   0.471   1.968 -0.0738 -0.0610  0.1358
 1246SOL    HW1 4637   1.199   0.410   1.925  1.0285  0.0711 -1.8701
 1246SOL    HW2 4638   1.307   0.530   1.899  1.0712  0.8734  1.5598
 1247SOL     OW 4639   6.398   4.666   6.912  0.4213 -0.4642  0.0826
 1247SOL    HW1 4640   6.462   4.677   6.989  0.9122 -0.9942 -0.2365
 1247SOL    HW2 4641   6.343   4.749   6.902  0.3551 -0.3858  0.9984
 1248SOL     OW 4642   2.236   6.573   5.744  0.2705 -0.3750 -0.2938
 1248SOL    HW1 4643   2.221   6.485   5.788 -2.1573  0.1227  0.0151
 1248SOL    HW2 4644   2.165   6.589   5.676  0.8492  1.2110 -0.5812
 1249SOL     OW 4645   5.935   3.556   3.047  0.0716 -0.1725 -0.4633
 1249SOL    HW1 4646   5.866   3.588   3.112  0.5150  0.0538 -0.0959
 1249SOL    HW2 4647   5.942   3.620   2.971  0.9760  0.6551  0.2838
 1250SOL     OW 4648   6.950   1.837   6.196 -0.1477 -0.3845 -0.0061
 1250SOL    HW1 4649   6.975   1.759   6.254  0.4721  0.0927  0.3767
 1250SOL    HW2 4650   7.013   1.912   6.213 -1.6046  0.7308  0.7257
 1251SOL     OW 4651   2.117   1.151   6.077  0.1031 -0.1895  0.0209
 1251SOL    HW1 4652   2.024   1.161   6.113 -0.5711 -1.8069 -1.1589
 1251SOL    HW2 4653   2.147   1.057   6.091  1.4183  0.2212  0.0182
 1252SOL     OW 4654   3.585   3.048   6.972 -0.4463 -0.0302  0.4449
 1252SOL    HW1 4655   3.543   3.133   6.941  0.7880  0.5196  0.2164
 1252SOL    HW2 4656   3.530   2.970   6.940 -0.3755  0.5962 -1.3235
 1253SOL     OW 4657   5.037   2.061   2.643 -0.3426 -0.2866  0.0137
 1253SOL    HW1 4658   4.958   2.003   2.621 -0.8004  0.3209  0.0288
 1253SOL    HW2 4659   5.082   2.088   2.558 -0.7236  0.1423 -0.0597
 1254SOL     OW 4660   4.144   6.790   3.825  0.2317 -0.4534 -0.0095
 1254SOL    HW1 4661   4.070   6.857   3.829  1.2930  0.9745 -2.1692
 1254SOL    HW2 4662   4.117   6.715   3.764 -0.0750 -0.8295  0.5805
 1255SOL     OW 4663   3.822   0.690   1.973  0.0447  0.0504 -0.1976
 1255SOL    HW1 4664   3.848   0.787   1.978 -3.1846  1.0164  0.3886
 1255SOL    HW2 4665   3.799   0.656   2.064 -0.3908 -0.7578 -0.5925
 1256SOL     OW 4666   5.624   4.151   2.863  0.1213  0.2438  0.0364
 1256SOL    HW1 4667   5.712   4.139   2.817 -0.6664  1.2515 -1.8455
 1256SOL    HW2 4668   5.611   4.246   2.889  0.1452 -0.1433  1.5867
 1257SOL     OW 4669   1.224   2.829   4.121  0.0733  0.1536 -0.1103
 1257SOL    HW1 4670   1.245   2.926   4.113  0.7111  0.0571  0.2736
 1257SOL    HW2 4671   1.277   2.777   4.054 -1.1710  0.1700 -1.1442
 1258SOL     OW 4672   0.512   2.724   4.363  0.4434  0.2825  0.0446
 1258SOL    HW1 4673   0.605   2.718   4.401  0.5587 -1.4322 -0.4287
 1258SOL    HW2 4674   0.446   2.709   4.437  0.5643  0.6493  0.2293
 1259SOL     OW 4675   6.049   2.622   4.909  0.1726  0.2837 -0.5250
 1259SOL    HW1 4676   5.961   2.574   4.914  0.3519 -0.2173 -1.7926
 1259SOL    HW2 4677   6.061   2.659   4.817  1.5841 -0.2417 -0.5804
 1260SOL     OW 4678   2.276   0.480   3.751 -0.0956  0.8491 -0.6601
 1260SOL    HW1 4679   2.262   0.531   3.667 -1.2403  0.0902 -0.9569
 1260SOL    HW2 4680   2.200   0.416   3.764  0.9184 -0.2485  0.0704
 1261SOL     OW 4681   6.772   2.433   0.801  0.1588  0.0203  0.2320
 1261SOL    HW1 4682   6.673   2.441   0.792  0.2026 -0.2842 -0.6504
 1261SOL    HW2 4683   6.799   2.338   0.789  0.7784  0.4384 -2.1303
 1262SOL     OW 4684   5.283   4.602   1.536 -0.1636 -0.1224 -0.0398
 1262SOL    HW1 4685   5.378   4.572   1.552 -0.1781 -0.5428 -0.6804
 1262SOL    HW2 4686   5.232   4.596   1.622  0.9918  2.4990  0.9377
 1263SOL     OW 4687   0.860   3.515   3.770 -0.2572 -0.0733 -0.1249
 1263SOL    HW1 4688   0.831   3.565   3.851  2.2792 -0.2402  1.0003
 1263SOL    HW2 4689   0.871   3.579   3.694 -0.9695  0.3837  0.1493
 1264SOL     OW 4690   2.856   2.633   5.420  0.0462 -0.1243  0.1476
 1264SOL    HW1 4691   2.862   2.665   5.515  0.9664  1.8687 -0.5214
 1264SOL    HW2 4692   2.916   2.555   5.407 -0.1735 -0.4878  1.2290
 1265SOL     OW 4693   5.433   3.726   5.681  0.4835 -0.0233 -0.2654
 1265SOL    HW1 4694   5.334   3.737   5.679  0.3306 -0.7959  1.4323
 1265SOL    HW2 4695   5.463   3.706   5.775  2.1273 -0.8784 -0.9303
 1266SOL     OW 4696   5.460   2.368   5.924  0.0156 -0.5014  0.1255
 1266SOL    HW1 4697   5.416   2.434   5.985  2.8908  0.7079  1.1124
 1266SOL    HW2 4698   5.508   2.417   5.851  0.0238 -1.6895 -0.6917
 1267SOL     OW 4699   4.329   1.138   3.728  0.0372  0.3380 -0.9018
 1267SOL    HW1 4700   4.428   1.153   3.725  0.3900 -1.2921  0.7422
 1267SOL    HW2 4701   4.311   1.040   3.722 -1.4816  0.6142 -1.0300
 1268SOL     OW 4702   4.287   2.399   5.897  0.5109  0.3314  0.2251
 1268SOL    HW1 4703   4.221   2.470   5.873 -0.0064  0.0279  0.7370
 1268SOL    HW2 4704   4.252   2.346   5.974  1.6164  0.5481  0.9010
 1269SOL     OW 4705   4.785   0.785   3.717  0.3172 -0.0933  0.2562
 1269SOL    HW1 4706   4.744   0.815   3.803  0.3859 -0.4322  0.4068
 1269SOL    HW2 4707   4.766   0.688   3.702  1.5598 -0.4152  0.6224
 1270SOL     OW 4708   0.092   5.546   2.771 -0.3851  0.0699  0.2400
 1270SOL    HW1 4709   0.116   5.483   2.697 -3.3430 -0.9610 -0.0021
 1270SOL    HW2 4710   0.034   5.619   2.735  0.5128  1.2178  1.0731
 1271SOL     OW 4711   1.079   0.789   0.488 -0.1208 -0.4305  0.3053
 1271SOL    HW1 4712   1.151   0.857   0.473 -1.6929  1.2601  0.0341
 1271SOL    HW2 4713   1.009   0.827   0.548 -0.3318 -2.4048  1.4032
 1272SOL     OW 4714   3.840   2.123   1.079 -0.2793  0.0247 -0.0481
 1272SOL    HW1 4715   3.878   2.153   1.166 -0.3512 -0.4122  0.1375
 1272SOL    HW2 4716   3.844   2.023   1.074  0.2194  0.0768 -0.7716
 1273SOL     OW 4717   6.845   6.224   5.921 -0.2995 -0.3977 -0.1854
 1273SOL    HW1 4718   6.944   6.228   5.909 -0.0777  1.3972  1.7241
 1273SOL    HW2 4719   6.824   6.186   6.011 -1.4854 -3.0093 -1.4606
 1274SOL     OW 4720   5.627   4.753   4.535 -0.3764 -0.8232 -0.2499
 1274SOL    HW1 4721   5.546   4.788   4.489  0.2300 -0.9826 -1.4910
 1274SOL    HW2 4722   5.605   4.732   4.630 -1.4471  0.3261 -0.2181
 1275SOL     OW 4723   4.114   2.245   3.018  0.1462 -0.6039 -0.0144
 1275SOL    HW1 4724   4.084   2.150   3.018  1.5841 -1.0968 -1.3810
 1275SOL    HW2 4725   4.147   2.269   3.109  0.6793 -1.7220  0.1022
 1276SOL     OW 4726   6.244   4.229   2.577  0.1377 -0.4714  0.0853
 1276SOL    HW1 4727   6.199   4.145   2.608 -1.5675  0.6633  0.8200
 1276SOL    HW2 4728   6.175   4.294   2.546  1.3813  0.8890  0.0856
 1277SOL     OW 4729   2.645   6.990   0.314  0.0625  0.1759 -0.2216
 1277SOL    HW1 4730   2.701   7.000   0.396  0.4820  1.3527 -0.6322
 1277SOL    HW2 4731   2.703   6.997   0.233 -0.7363  2.0633 -0.6749
 1278SOL     OW 4732   0.846   0.092   1.986  0.3675  0.2460  0.1936
 1278SOL    HW1 4733   0.919   0.067   1.923 -0.1476 -1.8121  0.3597
 1278SOL    HW2 4734   0.765   0.121   1.934  0.1582 -0.8299 -0.0964
 1279SOL     OW 4735   3.306   1.404   1.028 -0.0054 -0.0223  0.2623
 1279SOL    HW1 4736   3.212   1.372   1.029 -0.0561 -0.1269 -2.3558
 1279SOL    HW2 4737   3.311   1.492   0.980  1.0266  0.8811  1.8994
 1280SOL     OW 4738   2.586   1.177   3.138 -0.1570  0.2239  0.0852
 1280SOL    HW1 4739   2.598   1.135   3.228 -1.3516  1.1286  0.6935
 1280SOL    HW2 4740   2.634   1.265   3.136  0.3624 -0.0667 -0.3726
 1281SOL     OW 4741   5.577   5.096   6.504  0.4148 -0.7006  0.0775
 1281SOL    HW1 4742   5.530   5.043   6.434  0.4376 -1.9727  0.9907
 1281SOL    HW2 4743   5.599   5.037   6.581 -0.1723  0.7964  1.4440
 1282SOL     OW 4744   0.767   2.325   3.645 -0.1706 -0.0575 -0.3080
 1282SOL    HW1 4745   0.800   2.235   3.618 -0.1635 -0.0264 -0.4045
 1282SOL    HW2 4746   0.841   2.391   3.637 -0.0385 -0.1380  0.2505
 1283SOL     OW 4747   0.673   5.254   5.342  0.3851 -0.1294 -0.0472
 1283SOL    HW1 4748   0.722   5.181   5.391 -1.0862 -0.6195  0.7624
 1283SOL    HW2 4749   0.625   5.215   5.263  0.1581  0.0848 -0.0160
 1284SOL     OW 4750   4.564   2.168   0.893 -0.3952  0.0903  0.3085
 1284SOL    HW1 4751   4.579   2.211   0.981 -3.4556 -0.3048  1.1416
 1284SOL    HW2 4752   4.590   2.072   0.898 -1.3987 -0.1627  1.1324
 1285SOL     OW 4753   5.630   1.994   3.680  0.1083  0.2087  0.4899
 1285SOL    HW1 4754   5.558   2.022   3.742 -0.5685 -2.5957  1.1021
 1285SOL    HW2 4755   5.670   1.907   3.711  3.4841  1.3788 -0.0688
 1286SOL     OW 4756   5.510   1.003   2.683 -0.3682  0.3785 -0.0644
 1286SOL    HW1 4757   5.515   1.098   2.716  0.6545  0.6468 -0.9095
 1286SOL    HW2 4758   5.569   0.993   2.603 -1.1325 -0.7760 -0.5089
 1287SOL     OW 4759   5.245   6.244   6.404  0.3512  0.1002  0.6022
 1287SOL    HW1 4760   5.165   6.198   6.443  0.3806 -1.6548 -1.2210
 1287SOL    HW2 4761   5.215   6.313   6.337  0.3462 -0.1999  0.2929
 1288SOL     OW 4762   6.032   4.965   6.502 -0.3273  0.0931  0.1149
 1288SOL    HW1 4763   6.120   4.971   6.455 -0.4128 -1.1904 -0.2184
 1288SOL    HW2 4764   5.978   5.047   6.481  0.6678  0.7660  0.1060
 1289SOL     OW 4765   2.291   6.229   0.496  0.2286  0.1643 -0.3629
 1289SOL    HW1 4766   2.250   6.164   0.560 -1.7113  0.9214 -0.7552
 1289SOL    HW2 4767   2.381   6.258   0.530  0.0386 -0.8360  1.0665
 1290SOL     OW 4768   0.990   5.737   5.611 -0.3798 -0.7814  0.6833
 1290SOL    HW1 4769   1.077   5.730   5.563 -0.6640 -1.6427  0.2724
 1290SOL    HW2 4770   0.988   5.670   5.686 -0.2238  0.0569  1.4594
 1291SOL     OW 4771   3.684   6.766   4.177  0.0855  0.1126 -0.2676
 1291SOL    HW1 4772   3.771   6.771   4.129  0.7631 -2.8412  0.4679
 1291SOL    HW2 4773   3.629   6.691   4.139 -1.1074  0.3556  0.8973
 1292SOL     OW 4774   0.795   5.514   3.617 -0.0796 -0.1707 -0.3103
 1292SOL    HW1 4775   0.814   5.534   3.713 -0.2859  1.2359 -0.5437
 1292SOL    HW2 4776   0.725   5.442   3.612  0.5861 -0.8992  0.5721
 1293SOL     OW 4777   3.876   5.333   1.520 -0.6295 -0.3751 -0.3390
 1293SOL    HW1 4778   3.803   5.297   1.462 -0.1072 -0.1328 -1.1689
 1293SOL    HW2 4779   3.930   5.256   1.556 -0.4733 -0.4947 -0.8225
 1294SOL     OW 4780   1.924   5.756   6.589  0.4451  0.9315  0.0422
 1294SOL    HW1 4781   1.828   5.744   6.564  0.1203  2.1679  0.6379
 1294SOL    HW2 4782   1.930   5.804   6.676  1.6121  1.5331 -0.3505
 1295SOL     OW 4783   5.621   5.590   6.239  0.2109  0.2582 -0.4569
 1295SOL    HW1 4784   5.573   5.508   6.209  2.4754 -0.9482 -1.0297
 1295SOL    HW2 4785   5.670   5.630   6.162 -1.8176  2.9406 -0.4766
 1296SOL     OW 4786   4.664   1.307   6.273  1.0740 -0.1843 -0.1687
 1296SOL    HW1 4787   4.601   1.268   6.205  0.8356  0.4682 -0.3301
 1296SOL    HW2 4788   4.710   1.233   6.321  0.6327 -0.6686 -0.4708
 1297SOL     OW 4789   6.243   6.485   0.049 -0.6180 -0.0880 -0.1689
 1297SOL    HW1 4790   6.216   6.580   0.061  0.1702  0.1019  0.1774
 1297SOL    HW2 4791   6.323   6.481  -0.011  1.1433 -0.2532  2.0473
 1298SOL     OW 4792   5.430   5.975   3.149 -0.1397 -0.0539  0.7395
 1298SOL    HW1 4793   5.358   5.934   3.094 -0.9741  0.0027  1.7506
 1298SOL    HW2 4794   5.390   6.017   3.231  0.8728  1.2660  0.6042
 1299SOL     OW 4795   0.219   4.310   4.074 -0.1929  0.1985 -0.1318
 1299SOL    HW1 4796   0.153   4.369   4.119 -0.0580  0.5082 -0.3357
 1299SOL    HW2 4797   0.179   4.220   4.059 -1.1842  0.8846 -1.8174
 1300SOL     OW 4798   0.532   4.961   1.316  0.1862  0.0208 -0.1907
 1300SOL    HW1 4799   0.511   4.888   1.380 -0.5012  0.2851 -0.1089
 1300SOL    HW2 4800   0.516   4.929   1.222  1.1758 -0.3607 -0.2442
 1301SOL     OW 4801   6.906   0.960   1.438 -0.8546  0.5587  0.0306
 1301SOL    HW1 4802   6.946   0.883   1.487 -3.1757  0.2031  1.4922
 1301SOL    HW2 4803   6.943   1.045   1.474 -1.0180  0.2319  0.9927
 1302SOL     OW 4804   5.093   0.302   6.910  0.1172  0.1407  0.4421
 1302SOL    HW1 4805   5.154   0.324   6.833  0.7377 -2.0404  0.2418
 1302SOL    HW2 4806   5.125   0.350   6.992  1.7087 -0.4073  0.1754
 1303SOL     OW 4807   2.257   0.351   1.877 -0.1137  0.6703  0.2914
 1303SOL    HW1 4808   2.317   0.340   1.956  0.7481 -0.5792 -0.5187
 1303SOL    HW2 4809   2.168   0.310   1.897  0.3911 -0.4504  0.3139
 1304SOL     OW 4810   6.505   1.590   6.455  0.1409  0.4829 -0.2373
 1304SOL    HW1 4811   6.494   1.611   6.552  0.6234  1.3426 -0.3576
 1304SOL    HW2 4812   6.561   1.508   6.444  0.8780  0.9220  0.1955
 1305SOL     OW 4813   3.339   5.563   6.092  0.1382  0.3810 -0.2524
 1305SOL    HW1 4814   3.335   5.527   6.185  0.4291  1.2872  0.1223
 1305SOL    HW2 4815   3.266   5.522   6.037 -0.0745 -0.1097  0.3875
 1306SOL     OW 4816   1.755   6.240   3.531 -0.3644 -0.5137 -0.4211
 1306SOL    HW1 4817   1.694   6.161   3.530  1.0475 -1.6501 -0.9751
 1306SOL    HW2 4818   1.846   6.212   3.501  0.7804  0.8489  1.5529
 1307SOL     OW 4819   2.586   0.416   3.606 -0.4085 -0.7538  0.1238
 1307SOL    HW1 4820   2.586   0.515   3.621  0.5926 -0.8748  1.0126
 1307SOL    HW2 4821   2.665   0.375   3.651 -1.3911 -2.0990  0.7023
 1308SOL     OW 4822   1.159   4.141   0.162  0.1239  0.4461  0.3677
 1308SOL    HW1 4823   1.214   4.129   0.245 -1.2826  1.3778  1.4810
 1308SOL    HW2 4824   1.063   4.153   0.187 -0.2508  1.3757 -1.3693
 1309SOL     OW 4825   4.924   4.975   1.017 -0.1365  0.4096 -0.3685
 1309SOL    HW1 4826   4.835   4.992   1.059 -1.2148 -0.6043 -2.1306
 1309SOL    HW2 4827   4.995   4.976   1.088 -1.6362  0.4213  1.1989
 1310SOL     OW 4828   2.375   0.935   2.248 -0.1256 -0.0031  0.1644
 1310SOL    HW1 4829   2.305   0.929   2.319 -0.7304  1.8384 -0.2153
 1310SOL    HW2 4830   2.444   1.002   2.275  1.2968 -1.4637  0.3228
 1311SOL     OW 4831   4.437   5.510   0.856  0.1471 -0.1977  0.1130
 1311SOL    HW1 4832   4.417   5.473   0.765 -0.5128 -0.8278  0.5031
 1311SOL    HW2 4833   4.535   5.525   0.865  0.0704  1.4011 -1.2738
 1312SOL     OW 4834   2.492   2.811   5.944 -0.5987 -0.2250 -0.1196
 1312SOL    HW1 4835   2.442   2.739   5.896  1.7149 -3.0626  1.3657
 1312SOL    HW2 4836   2.589   2.807   5.919 -0.0168  0.8723  1.6969
 1313SOL     OW 4837   5.640   5.558   4.207 -0.3366 -0.2210 -0.0347
 1313SOL    HW1 4838   5.735   5.532   4.188 -0.5200 -0.7876 -0.1898
 1313SOL    HW2 4839   5.578   5.488   4.171 -0.7900 -0.1411  0.5642
 1314SOL     OW 4840   2.507   2.263   4.867  0.5191 -1.1978 -0.5112
 1314SOL    HW1 4841   2.503   2.363   4.857  1.7556 -0.9433  1.1042
 1314SOL    HW2 4842   2.464   2.236   4.953  0.1256 -2.0705 -0.9756
 1315SOL     OW 4843   5.675   0.529   3.765 -0.2132 -0.3904 -0.1150
 1315SOL    HW1 4844   5.676   0.627   3.744  1.8428 -0.6600 -1.5574
 1315SOL    HW2 4845   5.593   0.487   3.726 -0.1678  0.4451 -1.1606
 1316SOL     OW 4846   6.101   1.195   6.627 -0.0241  0.1677 -0.1941
 1316SOL    HW1 4847   6.169   1.228   6.692 -1.3433  3.0869 -0.1371
 1316SOL    HW2 4848   6.115   1.239   6.539 -1.2684  0.1062 -0.4471
 1317SOL     OW 4849   3.367   4.755   5.200 -0.5012  0.2709 -0.5401
 1317SOL    HW1 4850   3.317   4.835   5.166 -1.6882 -0.1889  0.0482
 1317SOL    HW2 4851   3.302   4.689   5.238  0.5964 -0.1851  0.6174
 1318SOL     OW 4852   3.013   1.354   1.051  0.3301  0.0634 -0.3938
 1318SOL    HW1 4853   2.946   1.280   1.045  0.2848  0.1893 -1.7947
 1318SOL    HW2 4854   2.964   1.442   1.054  0.3837  0.0611  1.2349
 1319SOL     OW 4855   0.808   1.135   5.989 -0.5649  0.4901  0.3155
 1319SOL    HW1 4856   0.730   1.082   5.956  0.1864 -1.5976  1.6425
 1319SOL    HW2 4857   0.775   1.209   6.047 -1.6414 -1.6204  2.6167
 1320SOL     OW 4858   3.769   4.396   5.303  0.3834 -0.4942  0.3590
 1320SOL    HW1 4859   3.775   4.333   5.226 -0.9706 -0.4831  0.2136
 1320SOL    HW2 4860   3.861   4.423   5.332  0.9382  0.5853 -2.1483
 1321SOL     OW 4861   5.377   1.625   1.541  0.1226  0.1699 -0.1484
 1321SOL    HW1 4862   5.322   1.541   1.539  1.1597 -0.5240 -0.1458
 1321SOL    HW2 4863   5.397   1.650   1.636 -3.7064  2.8494  0.2193
 1322SOL     OW 4864   3.222   2.079   5.543  0.8310  0.6794  0.5973
 1322SOL    HW1 4865   3.193   2.093   5.448  2.4027 -0.4201 -0.0809
 1322SOL    HW2 4866   3.304   2.023   5.545 -1.9640 -3.9843  2.7426
 1323SOL     OW 4867   3.766   0.372   2.215 -0.2550 -0.5963  0.0533
 1323SOL    HW1 4868   3.792   0.312   2.291 -2.7800 -0.1831  1.3346
 1323SOL    HW2 4869   3.829   0.357   2.138  1.1852 -2.4579  1.4916
 1324SOL     OW 4870   2.815   2.931   6.098  0.0597 -0.3464  0.0041
 1324SOL    HW1 4871   2.867   2.998   6.151  1.0069 -1.9691  1.2090
 1324SOL    HW2 4872   2.870   2.900   6.021  0.5867 -1.4282  0.7887
 1325SOL     OW 4873   2.129   6.638   5.184 -0.2320 -0.5844 -0.5216
 1325SOL    HW1 4874   2.058   6.620   5.252 -0.0174 -1.8058 -0.6126
 1325SOL    HW2 4875   2.167   6.730   5.199 -1.8378  0.1137 -0.5006
 1326SOL     OW 4876   3.468   1.604   6.222  0.4737  0.0726  0.1762
 1326SOL    HW1 4877   3.477   1.623   6.124  0.0558  0.0669  0.1346
 1326SOL    HW2 4878   3.516   1.674   6.275  2.1561 -0.8439 -0.0688
 1327SOL     OW 4879   6.022   4.364   2.492 -0.1948  0.8366  0.6725
 1327SOL    HW1 4880   6.042   4.378   2.395 -1.1142  3.0449  0.7423
 1327SOL    HW2 4881   5.923   4.365   2.506 -0.1127 -0.7696  1.4830
 1328SOL     OW 4882   3.614   2.123   5.109 -0.7026  0.1955 -0.6098
 1328SOL    HW1 4883   3.693   2.144   5.052 -0.0668 -0.6609 -0.0759
 1328SOL    HW2 4884   3.586   2.028   5.095  0.1332 -0.3663  1.2429
 1329SOL     OW 4885   2.570   2.486   3.109  0.0056  0.2140 -0.0177
 1329SOL    HW1 4886   2.515   2.403   3.110  0.6312 -0.2096 -0.4729
 1329SOL    HW2 4887   2.596   2.510   3.203  1.0202 -0.9182  0.0141
 1330SOL     OW 4888   5.463   1.830   2.327 -0.5564  0.0143  0.7246
 1330SOL    HW1 4889   5.416   1.906   2.281 -1.3403 -2.2317 -2.5458
 1330SOL    HW2 4890   5.401   1.752   2.332  0.3349 -0.5908  3.7238
 1331SOL     OW 4891   3.672   0.841   1.557 -0.6956 -0.2862  0.6600
 1331SOL    HW1 4892   3.761   0.795   1.557 -0.9588 -0.8036  0.5020
 1331SOL    HW2 4893   3.650   0.871   1.650 -0.1823  0.1947  0.6350
 1332SOL     OW 4894   2.125   7.020   6.140 -0.1869 -0.0242  0.7399
 1332SOL    HW1 4895   2.179   6.942   6.172  0.2938  0.6102  1.5262
 1332SOL    HW2 4896   2.047   7.033   6.201  0.9086  1.3874  1.9293
 1333SOL     OW 4897   3.624   3.466   1.729 -0.0778  0.3318  0.6519
 1333SOL    HW1 4898   3.577   3.424   1.806 -0.1524  1.1423  1.0574
 1333SOL    HW2 4899   3.699   3.407   1.699 -0.7343 -0.5027  0.6346
 1334SOL     OW 4900   6.832   5.760   1.169 -0.0057 -0.1251  0.5024
 1334SOL    HW1 4901   6.834   5.833   1.101 -1.0842 -1.0496 -0.5531
 1334SOL    HW2 4902   6.911   5.769   1.230 -0.0232  1.8041  0.2972
 1335SOL     OW 4903   6.379   3.424   1.975  0.2999  0.5627 -0.0112
 1335SOL    HW1 4904   6.425   3.475   2.047  0.6798  0.5066 -0.2090
 1335SOL    HW2 4905   6.309   3.481   1.933  0.3988  0.7575  0.0884
 1336SOL     OW 4906   1.067   6.336   5.153 -0.2637 -0.1679  0.4517
 1336SOL    HW1 4907   1.005   6.338   5.231  0.6641  2.5186  1.2314
 1336SOL    HW2 4908   1.139   6.404   5.167  0.7066 -0.5755 -2.1447
 1337SOL     OW 4909   6.330   0.425   1.476  0.3735  0.1986  0.0066
 1337SOL    HW1 4910   6.321   0.338   1.525 -2.0404  0.8926  0.9397
 1337SOL    HW2 4911   6.250   0.439   1.417  0.5785  1.8673  0.0609
 1338SOL     OW 4912   0.188   2.454   6.313 -0.4242  0.7421 -0.0711
 1338SOL    HW1 4913   0.162   2.547   6.285  1.3905  0.3702 -3.5460
 1338SOL    HW2 4914   0.209   2.400   6.232  1.1884 -1.9384  1.9835
 1339SOL     OW 4915   4.402   1.851   1.414  0.2563 -0.5088 -0.8500
 1339SOL    HW1 4916   4.364   1.769   1.370 -0.0394 -0.6368 -0.3712
 1339SOL    HW2 4917   4.336   1.885   1.482  0.4702  0.0018 -0.8956
 1340SOL     OW 4918   2.874   2.160   2.268  0.0955  0.1125 -0.5321
 1340SOL    HW1 4919   2.787   2.155   2.317  0.7228 -2.4377  0.4707
 1340SOL    HW2 4920   2.864   2.219   2.188 -2.5649 -0.1692 -0.4864
 1341SOL     OW 4921   1.421   5.405   0.571 -0.1653 -0.1611  0.0229
 1341SOL    HW1 4922   1.420   5.460   0.654 -0.7530  0.7335 -0.5675
 1341SOL    HW2 4923   1.373   5.453   0.498  0.7102 -0.7396 -0.9667
 1342SOL     OW 4924   2.205   4.220   1.984  0.1798  0.2541  0.0933
 1342SOL    HW1 4925   2.237   4.283   2.055 -0.3829 -0.4828  1.0215
 1342SOL    HW2 4926   2.105   4.222   1.980  0.2099  2.8901 -3.1017
 1343SOL     OW 4927   6.064   6.920   2.505 -0.3561 -0.1657 -0.5241
 1343SOL    HW1 4928   6.021   6.993   2.559 -1.3379 -0.6382 -0.6497
 1343SOL    HW2 4929   6.139   6.959   2.451 -0.7893  0.7361 -0.4987
 1344SOL     OW 4930   1.598   0.282   1.634 -0.0505 -0.0607  0.3072
 1344SOL    HW1 4931   1.688   0.237   1.638 -0.3574 -0.7477 -0.1791
 1344SOL    HW2 4932   1.546   0.258   1.716 -0.4066 -1.0508 -0.1855
 1345SOL     OW 4933   1.961   6.483   5.051  0.1139  0.8452  0.3163
 1345SOL    HW1 4934   2.005   6.406   5.005 -0.4038 -0.7587  2.3456
 1345SOL    HW2 4935   2.031   6.537   5.099  0.2760  0.3953  0.5988
 1346SOL     OW 4936   4.830   6.593   4.968 -0.0389 -0.1366 -0.1280
 1346SOL    HW1 4937   4.920   6.572   5.008 -1.0873 -0.8017  2.0640
 1346SOL    HW2 4938   4.795   6.512   4.921 -0.5799 -0.7678  1.3002
 1347SOL     OW 4939   0.453   0.444   0.492 -0.1643  0.2252  0.0732
 1347SOL    HW1 4940   0.407   0.453   0.581 -0.0214  1.1365  0.0712
 1347SOL    HW2 4941   0.515   0.366   0.494 -0.3923  0.0534  0.6690
 1348SOL     OW 4942   0.841   5.874   4.382  0.5251  0.1027  0.3497
 1348SOL    HW1 4943   0.900   5.930   4.325 -0.7456  0.3472 -0.7501
 1348SOL    HW2 4944   0.898   5.818   4.444  1.8522  1.0541  0.0247
 1349SOL     OW 4945   5.011   5.305   3.391 -0.4793  0.4668  0.2059
 1349SOL    HW1 4946   5.018   5.402   3.413  0.8330  0.6375 -0.8712
 1349SOL    HW2 4947   5.012   5.252   3.475  0.3417  1.3067  0.7412
 1350SOL     OW 4948   4.692   5.014   2.018 -0.5472  0.0365  0.0856
 1350SOL    HW1 4949   4.666   4.980   1.928 -1.0256 -0.0969  0.2743
 1350SOL    HW2 4950   4.755   5.091   2.008  0.8158 -1.0925 -0.3516
 1351SOL     OW 4951   5.756   3.035   0.290  0.2119 -0.2053 -0.4192
 1351SOL    HW1 4952   5.845   3.076   0.271 -0.4060  1.5054  0.2000
 1351SOL    HW2 4953   5.686   3.107   0.294 -1.0302 -1.3998  0.1048
 1352SOL     OW 4954   6.916   1.173   4.239  0.0948 -0.1429  0.0421
 1352SOL    HW1 4955   6.844   1.207   4.179  0.2588 -1.1001 -0.7201
 1352SOL    HW2 4956   6.917   1.227   4.323 -0.1457  1.2239 -0.7957
 1353SOL     OW 4957   0.060   3.392   6.268  0.0532 -0.3899  0.1518
 1353SOL    HW1 4958   0.001   3.387   6.349 -1.3434  0.5076 -0.7581
 1353SOL    HW2 4959   0.089   3.487   6.254 -0.0409 -0.4635 -0.6060
 1354SOL     OW 4960   4.503   4.520   4.124 -0.3173  0.2408 -0.6732
 1354SOL    HW1 4961   4.471   4.572   4.203 -0.9618 -0.9907 -0.1120
 1354SOL    HW2 4962   4.459   4.555   4.041 -0.9997  0.3807 -0.2574
 1355SOL     OW 4963   4.064   4.419   5.365 -0.0602 -0.5492  0.1481
 1355SOL    HW1 4964   4.081   4.497   5.425  0.1482 -0.0544 -0.5409
 1355SOL    HW2 4965   4.130   4.419   5.290 -0.6030 -0.8805 -0.3435
 1356SOL     OW 4966   2.954   3.669   4.755 -0.6409  0.1525 -0.6834
 1356SOL    HW1 4967   2.908   3.583   4.733  0.2171 -0.5593  0.2164
 1356SOL    HW2 4968   2.920   3.703   4.842  0.6744 -0.5093  0.1118
 1357SOL     OW 4969   0.495   3.507   4.122  0.3658 -0.5516  0.2658
 1357SOL    HW1 4970   0.529   3.462   4.039  2.1791  0.1865  0.5524
 1357SOL    HW2 4971   0.403   3.474   4.142  0.2783 -1.5043 -1.4597
 1358SOL     OW 4972   1.657   6.695   0.069  0.0034  0.2195  0.2651
 1358SOL    HW1 4973   1.586   6.738   0.013 -0.9508  0.1567  1.3978
 1358SOL    HW2 4974   1.623   6.608   0.105  1.1161 -0.4202 -0.1821
 1359SOL     OW 4975   4.940   5.764   1.332  0.5613 -0.4278  0.5606
 1359SOL    HW1 4976   4.855   5.793   1.376 -0.1773 -0.9663 -0.4867
 1359SOL    HW2 4977   5.015   5.824   1.362 -0.8151  2.4399 -1.2525
 1360SOL     OW 4978   3.664   0.932   0.723 -0.7603  0.1187 -1.3071
 1360SOL    HW1 4979   3.670   0.838   0.758  1.3812 -0.0426 -1.9579
 1360SOL    HW2 4980   3.593   0.937   0.653  0.0560 -1.4102 -2.3055
 1361SOL     OW 4981   5.870   6.057   5.539 -0.0635  0.0643  0.0976
 1361SOL    HW1 4982   5.915   5.977   5.499 -0.8164 -0.9623  1.2144
 1361SOL    HW2 4983   5.925   6.091   5.615  0.5381  0.9808 -0.7296
 1362SOL     OW 4984   3.263   2.920   3.785  0.0002 -0.5145  0.0650
 1362SOL    HW1 4985   3.220   2.937   3.697  0.6347  0.5169 -0.0627
 1362SOL    HW2 4986   3.221   2.978   3.855  0.7808  0.0921  0.0455
 1363SOL     OW 4987   6.380   0.238   3.102 -0.0069 -0.6940 -0.3505
 1363SOL    HW1 4988   6.314   0.313   3.110  0.2582 -0.3983 -0.9058
 1363SOL    HW2 4989   6.468   0.275   3.073 -0.1438 -1.3550 -1.6509
 1364SOL     OW 4990   2.574   3.087   5.963 -0.6884 -0.0230 -0.3574
 1364SOL    HW1 4991   2.530   2.998   5.975 -1.2851  0.2633 -0.3531
 1364SOL    HW2 4992   2.656   3.092   6.020 -0.1248 -0.9073 -1.0583
 1365SOL     OW 4993   5.822   1.525   6.464  0.5151  0.0326  0.1628
 1365SOL    HW1 4994   5.814   1.438   6.513  0.2846  0.2447  0.5010
 1365SOL    HW2 4995   5.897   1.578   6.502 -0.6724  0.9009  1.3855
 1366SOL     OW 4996   1.744   6.792   5.440  0.3658 -0.6265 -0.1220
 1366SOL    HW1 4997   1.831   6.747   5.417 -0.8228 -2.1188 -1.9341
 1366SOL    HW2 4998   1.750   6.889   5.418  1.9714 -0.4264  1.0055
 1367SOL     OW 4999   2.740   2.476   0.742 -0.5186 -0.2047 -0.1609
 1367SOL    HW1 5000   2.677   2.407   0.706 -0.4921 -0.7290  0.7560
 1367SOL    HW2 5001   2.694   2.530   0.812  0.1516 -0.8546  0.8044
 1368SOL     OW 5002   6.235   2.516   3.577 -0.4791  0.1998  0.0819
 1368SOL    HW1 5003   6.221   2.462   3.494  2.6588 -2.2252  0.9166
 1368SOL    HW2 5004   6.282   2.601   3.554 -0.9075  0.2082 -0.7711
 1369SOL     OW 5005   6.574   1.130   4.119 -0.2248 -0.1818 -0.1690
 1369SOL    HW1 5006   6.545   1.060   4.054 -2.3318 -0.2281  0.7367
 1369SOL    HW2 5007   6.636   1.194   4.074 -1.2133 -0.5029 -2.1020
 1370SOL     OW 5008   2.701   1.820   3.229 -0.5003 -0.1541  0.2016
 1370SOL    HW1 5009   2.681   1.831   3.132 -1.2743 -1.8982  0.1308
 1370SOL    HW2 5010   2.797   1.845   3.246 -0.0063 -0.9589 -1.2297
 1371SOL     OW 5011   1.713   0.048   5.492  0.4378  0.3089  0.4004
 1371SOL    HW1 5012   1.796   0.037   5.547  1.4572  0.2560 -1.0880
 1371SOL    HW2 5013   1.686   0.144   5.493  1.2416  0.5530 -0.0797
 1372SOL     OW 5014   3.991   3.029   1.468 -0.5192 -0.1188 -0.1613
 1372SOL    HW1 5015   3.893   3.009   1.475 -0.3555 -1.8085 -1.9194
 1372SOL    HW2 5016   4.011   3.065   1.376  0.6119 -0.5572 -0.1015
 1373SOL     OW 5017   2.379   6.680   1.787 -0.2679  0.1395  0.2757
 1373SOL    HW1 5018   2.453   6.743   1.810 -0.0426  0.3455 -0.9510
 1373SOL    HW2 5019   2.292   6.728   1.793 -0.2240  0.1677  0.7436
 1374SOL     OW 5020   5.460   3.498   4.448  0.0593 -0.3062 -0.4666
 1374SOL    HW1 5021   5.479   3.408   4.488 -0.6138 -0.3135 -0.1400
 1374SOL    HW2 5022   5.400   3.487   4.369  0.4679 -0.1944 -0.7933
 1375SOL     OW 5023   1.104   2.203   1.844 -0.0043 -0.3090  0.3226
 1375SOL    HW1 5024   1.037   2.135   1.873 -0.4879 -0.2691 -0.6739
 1375SOL    HW2 5025   1.163   2.228   1.922 -1.5079  0.0827  1.3709
 1376SOL     OW 5026   5.984   1.456   1.889  0.1713 -0.6161 -0.7910
 1376SOL    HW1 5027   6.027   1.526   1.832  0.1559 -1.0084 -1.2971
 1376SOL    HW2 5028   5.887   1.479   1.902  0.2765 -0.2983 -0.5563
 1377SOL     OW 5029   7.013   2.328   4.982 -0.2407 -0.4944 -0.0696
 1377SOL    HW1 5030   6.946   2.394   5.016  1.9197  2.8543 -1.7438
 1377SOL    HW2 5031   7.073   2.299   5.056 -0.1204  0.8897  0.3999
 1378SOL     OW 5032   3.260   1.836   1.181  0.3851 -0.4140 -0.0758
 1378SOL    HW1 5033   3.219   1.745   1.193 -1.3195  0.0447 -1.8079
 1378SOL    HW2 5034   3.243   1.867   1.088  1.8578  1.2633  0.1759
 1379SOL     OW 5035   5.510   4.828   4.056  0.0794 -0.6187 -0.1365
 1379SOL    HW1 5036   5.607   4.829   4.080 -0.1378 -0.8123  0.7955
 1379SOL    HW2 5037   5.456   4.800   4.135 -0.7040 -1.0109 -0.7899
 1380SOL     OW 5038   0.130   5.819   3.380 -0.3639 -0.2345 -0.1972
 1380SOL    HW1 5039   0.207   5.880   3.398  1.3061 -2.0218 -0.8587
 1380SOL    HW2 5040   0.060   5.831   3.450  1.1229  0.5360  1.2211
 1381SOL     OW 5041   3.923   5.041   1.305 -0.0642 -0.0163 -0.0816
 1381SOL    HW1 5042   4.017   5.023   1.276 -0.1110 -0.6821  0.1549
 1381SOL    HW2 5043   3.913   5.019   1.402 -0.4731  0.0157 -0.1138
 1382SOL     OW 5044   0.585   4.544   1.144 -0.3474 -0.2463 -0.8695
 1382SOL    HW1 5045   0.640   4.626   1.155 -0.3706 -0.1601 -1.3910
 1382SOL    HW2 5046   0.488   4.568   1.145 -0.3603 -0.3013 -0.7471
 1383SOL     OW 5047   4.353   0.352   1.174  0.4634 -0.0025  0.1796
 1383SOL    HW1 5048   4.429   0.321   1.117  1.7334 -0.0536  1.8394
 1383SOL    HW2 5049   4.276   0.379   1.116 -0.0971 -4.4416 -1.5109
 1384SOL     OW 5050   1.867   1.383   0.874 -0.2411 -0.4083 -0.3014
 1384SOL    HW1 5051   1.941   1.447   0.895 -0.2125 -0.4184 -0.3735
 1384SOL    HW2 5052   1.841   1.392   0.778 -0.6229 -0.1021 -0.1721
 1385SOL     OW 5053   6.119   1.771   5.391  0.5313  0.2906 -0.3998
 1385SOL    HW1 5054   6.061   1.827   5.450 -0.3227  0.5957 -1.4751
 1385SOL    HW2 5055   6.150   1.690   5.440 -3.2403 -1.4457 -0.5826
 1386SOL     OW 5056   1.621   0.104   3.715 -0.6423  0.2341  0.2142
 1386SOL    HW1 5057   1.625   0.204   3.715  1.1706  0.1846  0.9748
 1386SOL    HW2 5058   1.664   0.069   3.632 -0.4836  0.0642  0.3677
 1387SOL     OW 5059   3.294   1.058   5.608  0.1439  0.2018 -0.3065
 1387SOL    HW1 5060   3.324   1.041   5.703  0.9383  1.0827 -0.3842
 1387SOL    HW2 5061   3.269   1.154   5.598  0.6329  0.2457 -1.1425
 1388SOL     OW 5062   3.129   0.681   3.400 -0.2952  0.4155 -0.1956
 1388SOL    HW1 5063   3.147   0.777   3.377 -2.4417  1.0643  0.6438
 1388SOL    HW2 5064   3.150   0.666   3.497 -0.1164  0.0775 -0.2873
 1389SOL     OW 5065   6.722   0.653   4.044  0.8410  0.5731 -0.7326
 1389SOL    HW1 5066   6.789   0.714   4.086 -0.7392  1.4713  0.5698
 1389SOL    HW2 5067   6.744   0.558   4.069  0.6356  0.9913  1.1770
 1390SOL     OW 5068   4.904   3.588   3.529 -0.5077 -0.5812  0.4621
 1390SOL    HW1 5069   4.860   3.531   3.460  0.0495  0.1059 -0.4912
 1390SOL    HW2 5070   4.902   3.684   3.499  0.5720 -0.3906  0.9519
 1391SOL     OW 5071   5.405   0.882   5.557 -0.2397 -0.2037 -0.3744
 1391SOL    HW1 5072   5.502   0.876   5.534  0.0126  0.0301  0.5865
 1391SOL    HW2 5073   5.351   0.883   5.473  0.6419  0.6567 -0.9560
 1392SOL     OW 5074   1.358   6.090   3.770 -0.8995 -0.2785 -0.1086
 1392SOL    HW1 5075   1.386   6.122   3.861 -1.3795 -1.2364  0.3904
 1392SOL    HW2 5076   1.430   6.108   3.704  0.1684 -1.1085  0.7978
 1393SOL     OW 5077   3.483   0.578   1.070 -0.2266  0.3743 -0.2070
 1393SOL    HW1 5078   3.495   0.494   1.125 -1.5749 -0.3618 -1.0099
 1393SOL    HW2 5079   3.435   0.646   1.125 -0.2585  0.1736  0.0211
 1394SOL     OW 5080   4.357   6.217   4.612  1.0127  0.5365 -0.1627
 1394SOL    HW1 5081   4.364   6.317   4.609  2.3190  0.4662  0.1784
 1394SOL    HW2 5082   4.422   6.181   4.679 -0.4731 -0.4582  0.8097
 1395SOL     OW 5083   1.543   4.546   0.847  0.2398 -0.4387 -0.3442
 1395SOL    HW1 5084   1.494   4.582   0.926  1.6741  0.4090  0.1944
 1395SOL    HW2 5085   1.588   4.460   0.871  0.0122 -0.5948 -0.4762
 1396SOL     OW 5086   2.304   1.179   3.049 -0.1771  0.3443  0.6906
 1396SOL    HW1 5087   2.397   1.180   3.085 -0.7893 -1.0349  2.4741
 1396SOL    HW2 5088   2.250   1.250   3.093  0.0709  1.3290 -0.5484
 1397SOL     OW 5089   2.019   6.167   4.644 -0.2950 -0.1286 -0.4005
 1397SOL    HW1 5090   2.036   6.069   4.637  1.7578  0.2278 -1.0331
 1397SOL    HW2 5091   2.087   6.217   4.590 -0.4274  1.7038  1.0169
 1398SOL     OW 5092   3.120   1.158   6.028 -1.0624 -0.3892 -0.1692
 1398SOL    HW1 5093   3.046   1.191   6.086 -2.0853 -1.7576 -0.6445
 1398SOL    HW2 5094   3.153   1.233   5.971 -2.2205  0.2084 -0.0849
 1399SOL     OW 5095   3.185   1.175   1.442 -0.0424 -0.2231  0.0637
 1399SOL    HW1 5096   3.260   1.158   1.377 -0.9235 -1.8220 -0.5847
 1399SOL    HW2 5097   3.131   1.253   1.411  1.2188  0.8285  0.4387
 1400SOL     OW 5098   0.248   3.226   6.093 -0.6311  0.4862  0.1597
 1400SOL    HW1 5099   0.258   3.288   6.016 -2.0241 -1.4483 -1.6763
 1400SOL    HW2 5100   0.183   3.264   6.159 -0.8459  1.3183 -0.5278
 1401SOL     OW 5101   3.777   5.819   4.316  0.4247 -0.3993  0.1687
 1401SOL    HW1 5102   3.736   5.729   4.327 -0.2504 -0.1186 -0.0039
 1401SOL    HW2 5103   3.841   5.818   4.240 -0.3703 -0.4679 -0.5097
 1402SOL     OW 5104   5.605   4.488   4.104  0.3047  0.4211 -0.0938
 1402SOL    HW1 5105   5.514   4.492   4.064  1.1649  1.3160 -2.0875
 1402SOL    HW2 5106   5.658   4.416   4.060  1.2161  1.3070 -0.4980
 1403SOL     OW 5107   3.006   4.859   6.240  0.5508  0.2632 -0.0150
 1403SOL    HW1 5108   2.944   4.927   6.202  0.3712 -0.3649 -0.8892
 1403SOL    HW2 5109   3.045   4.804   6.165 -0.6458 -1.7248  0.7595
 1404SOL     OW 5110   5.076   5.866   6.614 -0.3352  0.2934  0.4412
 1404SOL    HW1 5111   5.037   5.946   6.660  0.5167  0.1869  1.3883
 1404SOL    HW2 5112   5.139   5.896   6.543  1.1754  0.5175  1.8173
 1405SOL     OW 5113   2.686   5.306   6.622 -0.1964 -0.0355  0.0768
 1405SOL    HW1 5114   2.662   5.400   6.647 -1.0509 -0.3702  0.5698
 1405SOL    HW2 5115   2.634   5.243   6.679 -0.4721 -0.8130 -1.0168
 1406SOL     OW 5116   2.264   2.756   5.768 -0.2724  0.2178 -0.0105
 1406SOL    HW1 5117   2.172   2.786   5.792  0.5812  1.4136  2.0630
 1406SOL    HW2 5118   2.292   2.800   5.682 -2.2699 -1.6744 -1.7364
 1407SOL     OW 5119   5.610   3.863   0.982 -0.1997 -0.0370  0.0223
 1407SOL    HW1 5120   5.667   3.807   0.923  0.1702  0.5851 -0.2197
 1407SOL    HW2 5121   5.590   3.814   1.066 -0.4751 -0.8126 -0.4845
 1408SOL     OW 5122   6.512   4.946   0.588  0.4858  0.4349  0.4960
 1408SOL    HW1 5123   6.508   4.853   0.550  1.6527  0.2490  0.7718
 1408SOL    HW2 5124   6.484   4.944   0.684  3.6219 -0.2896  1.5207
 1409SOL     OW 5125   0.391   0.732   5.646  0.2283 -0.5838 -0.3963
 1409SOL    HW1 5126   0.444   0.647   5.656 -0.8626 -1.1935  0.5033
 1409SOL    HW2 5127   0.316   0.732   5.712  0.5022  1.3376 -0.0221
 1410SOL     OW 5128   4.649   6.494   5.939 -0.4438 -0.1011 -0.7059
 1410SOL    HW1 5129   4.651   6.592   5.960 -1.4878 -0.3668  0.7614
 1410SOL    HW2 5130   4.569   6.474   5.882 -0.5646 -0.1875 -0.5062
 1411SOL     OW 5131   1.766   6.292   5.253  0.1733 -0.9593 -0.2369
 1411SOL    HW1 5132   1.794   6.196   5.257  2.0652 -0.5404 -1.7692
 1411SOL    HW2 5133   1.727   6.311   5.163 -1.2441 -0.5189  0.4421
 1412SOL     OW 5134   1.375   0.370   6.879  0.2169 -0.0795  0.2300
 1412SOL    HW1 5135   1.412   0.361   6.971  1.1506 -1.8616 -0.2691
 1412SOL    HW2 5136   1.404   0.292   6.824 -1.2411  0.3797 -1.2702
 1413SOL     OW 5137   0.985   0.637   3.781 -0.1555  0.2208  0.0187
 1413SOL    HW1 5138   0.923   0.563   3.755  0.4206 -0.3676  0.3103
 1413SOL    HW2 5139   0.987   0.645   3.881 -0.9081  1.2312 -0.0319
 1414SOL     OW 5140   5.339   5.568   2.271  0.0679 -0.9791 -0.4160
 1414SOL    HW1 5141   5.382   5.490   2.318 -0.2583 -1.7066 -1.2872
 1414SOL    HW2 5142   5.263   5.602   2.326  0.2840 -1.2017  0.0277
 1415SOL     OW 5143   2.694   1.100   5.286 -0.4992  0.5438  0.3153
 1415SOL    HW1 5144   2.669   1.135   5.196  1.3194 -1.1215 -0.9012
 1415SOL    HW2 5145   2.633   1.024   5.310  0.3031 -0.4120 -0.5307
 1416SOL     OW 5146   5.270   0.075   6.071  0.5652 -0.0508  0.4848
 1416SOL    HW1 5147   5.207   0.031   6.135 -2.2457  2.4313 -0.3606
 1416SOL    HW2 5148   5.314   0.153   6.116 -0.9027  1.2813 -0.2765
 1417SOL     OW 5149   3.148   3.504   4.490 -0.5244  0.4830  0.2253
 1417SOL    HW1 5150   3.103   3.562   4.422 -0.9746  1.5890  1.4270
 1417SOL    HW2 5151   3.104   3.415   4.494 -2.2854  1.3542  0.9935
 1418SOL     OW 5152   2.719   4.379   6.570 -0.0778  0.8304  0.5527
 1418SOL    HW1 5153   2.732   4.343   6.662 -2.0890 -1.6333 -0.0166
 1418SOL    HW2 5154   2.631   4.348   6.533  0.2918  2.3827 -1.9343
 1419SOL     OW 5155   0.839   5.627   2.476  0.2973 -0.8279  0.3470
 1419SOL    HW1 5156   0.803   5.538   2.506 -0.8213  0.3115  2.5838
 1419SOL    HW2 5157   0.858   5.684   2.555  1.4254  0.8224 -1.0358
 1420SOL     OW 5158   2.773   6.333   2.189 -0.2635 -0.1645 -0.7416
 1420SOL    HW1 5159   2.855   6.284   2.217 -1.1625 -1.0765  0.3979
 1420SOL    HW2 5160   2.791   6.431   2.188  0.0878 -0.0916  2.3690
 1421SOL     OW 5161   4.454   6.072   0.907 -0.0326  0.9303 -0.2183
 1421SOL    HW1 5162   4.496   6.109   0.824  1.2335  1.3646  0.5883
 1421SOL    HW2 5163   4.391   6.140   0.946 -1.2405  0.4288 -1.2141
 1422SOL     OW 5164   2.319   2.355   5.912  0.3099  0.7413 -0.2907
 1422SOL    HW1 5165   2.337   2.259   5.893  0.3298  0.5090  0.7912
 1422SOL    HW2 5166   2.259   2.393   5.842  0.5120  0.0075 -0.8637
 1423SOL     OW 5167   5.258   0.204   3.514 -0.6801 -0.1731 -1.2169
 1423SOL    HW1 5168   5.303   0.128   3.466  0.7545  0.0817 -0.3402
 1423SOL    HW2 5169   5.328   0.264   3.553 -1.7725 -0.3328  1.1377
 1424SOL     OW 5170   0.755   3.594   4.009 -0.0463 -0.6545  0.0172
 1424SOL    HW1 5171   0.806   3.559   4.088  1.3947  0.7556 -0.2423
 1424SOL    HW2 5172   0.708   3.678   4.035 -0.0228 -0.4861 -0.4866
 1425SOL     OW 5173   6.264   0.052   2.407 -0.6493  0.2156  0.4336
 1425SOL    HW1 5174   6.315   0.024   2.488 -1.2050  0.8236  1.0088
 1425SOL    HW2 5175   6.316   0.030   2.325 -0.0675 -0.3833  0.9596
 1426SOL     OW 5176   4.166   2.369   0.963  1.0307 -0.4379  0.0102
 1426SOL    HW1 5177   4.207   2.315   1.037 -0.9798 -1.5134  0.3883
 1426SOL    HW2 5178   4.117   2.447   1.003 -0.0428 -1.0101 -0.1626
 1427SOL     OW 5179   0.261   1.587   4.143  0.3023 -0.0372 -0.1454
 1427SOL    HW1 5180   0.268   1.489   4.129 -3.1174 -0.3964 -0.1243
 1427SOL    HW2 5181   0.239   1.632   4.057 -3.6919 -0.1222  0.6415
 1428SOL     OW 5182   2.230   4.627   5.095 -0.3908  0.2200  0.0611
 1428SOL    HW1 5183   2.320   4.662   5.070 -0.2930  0.2189  0.4190
 1428SOL    HW2 5184   2.226   4.529   5.077 -0.4814  0.3040 -0.4094
 1429SOL     OW 5185   5.549   1.799   2.038 -0.2244 -0.0153  0.6329
 1429SOL    HW1 5186   5.594   1.873   1.989  1.7870 -0.9392  0.9440
 1429SOL    HW2 5187   5.522   1.830   2.129 -0.4802  0.6466  0.3355
 1430SOL     OW 5188   0.692   2.966   3.621 -0.3509  0.4104  0.0784
 1430SOL    HW1 5189   0.621   3.037   3.623  0.8945  1.7267 -0.2143
 1430SOL    HW2 5190   0.769   2.995   3.678 -0.1589 -1.1216  0.6314
 1431SOL     OW 5191   3.716   1.669   0.345  0.0408  0.3371 -0.1285
 1431SOL    HW1 5192   3.713   1.572   0.322 -0.1257 -0.2606  2.1709
 1431SOL    HW2 5193   3.645   1.718   0.293  1.1887 -0.4208 -2.5323
 1432SOL     OW 5194   2.326   7.004   3.238  0.3096 -0.0628 -0.3765
 1432SOL    HW1 5195   2.311   6.990   3.336  3.0488 -0.8063  0.0227
 1432SOL    HW2 5196   2.379   6.928   3.201  1.8406  1.5705 -1.7429
 1433SOL     OW 5197   3.067   1.598   5.008 -0.0286 -0.5260 -0.3451
 1433SOL    HW1 5198   2.989   1.548   5.045 -1.3828  0.5918 -1.5369
 1433SOL    HW2 5199   3.059   1.695   5.034  1.2192 -0.4801 -0.1074
 1434SOL     OW 5200   0.562   3.911   1.577  0.0961 -0.4679 -1.0108
 1434SOL    HW1 5201   0.512   3.997   1.579 -0.4371 -0.7643  1.3052
 1434SOL    HW2 5202   0.648   3.921   1.627  0.1507 -1.1956 -0.9486
 1435SOL     OW 5203   6.287   6.451   5.916 -0.4191 -0.0320  0.2516
 1435SOL    HW1 5204   6.331   6.535   5.948  1.3644 -1.3030  1.2740
 1435SOL    HW2 5205   6.258   6.397   5.995 -1.2172 -0.5808 -0.3993
 1436SOL     OW 5206   5.558   3.145   6.495  0.0167 -0.2613 -0.0151
 1436SOL    HW1 5207   5.581   3.058   6.452 -1.1201  0.0487 -1.3300
 1436SOL    HW2 5208   5.469   3.138   6.539  0.7633 -0.2977  1.5491
 1437SOL     OW 5209   4.417   0.917   1.029  0.3087 -0.2110  0.6668
 1437SOL    HW1 5210   4.371   0.988   0.976 -0.4947 -0.4405  1.0358
 1437SOL    HW2 5211   4.483   0.869   0.971 -1.1014 -0.9697 -0.3709
 1438SOL     OW 5212   3.604   5.938   3.676  0.3929  0.5057 -0.2287
 1438SOL    HW1 5213   3.609   6.009   3.746  1.0916 -0.6230  0.9080
 1438SOL    HW2 5214   3.554   5.859   3.711  3.8146 -1.5828  0.4980
 1439SOL     OW 5215   4.611   5.901   3.827  0.6642 -0.3522 -0.4806
 1439SOL    HW1 5216   4.599   5.819   3.884  1.1998  0.0149  0.1702
 1439SOL    HW2 5217   4.681   5.959   3.867  0.9898 -0.0437 -1.4821
 1440SOL     OW 5218   4.903   3.398   1.408 -0.1161  0.4316 -0.0095
 1440SOL    HW1 5219   4.894   3.421   1.505  0.6337  0.5684  0.0322
 1440SOL    HW2 5220   4.906   3.298   1.398  0.3560  0.4248  0.1645
 1441SOL     OW 5221   0.175   1.311   6.571 -0.0971  0.7500 -0.2823
 1441SOL    HW1 5222   0.076   1.302   6.565 -0.0519  0.8728 -1.6125
 1441SOL    HW2 5223   0.201   1.342   6.662 -1.0937 -1.6777  0.9248
 1442SOL     OW 5224   4.645   6.632   0.185 -0.1953 -0.4530 -0.5135
 1442SOL    HW1 5225   4.715   6.575   0.228  0.4397  0.8925  0.2995
 1442SOL    HW2 5226   4.573   6.651   0.252 -0.4106 -0.3078 -0.7874
 1443SOL     OW 5227   1.989   1.994   4.938  0.2128 -0.0004 -0.0193
 1443SOL    HW1 5228   1.966   1.937   4.859  2.3394  1.0045 -1.4666
 1443SOL    HW2 5229   1.983   2.091   4.911  2.8493  0.3428  0.4082
 1444SOL     OW 5230   0.055   0.400   4.374  0.2876 -0.0621 -0.6768
 1444SOL    HW1 5231   0.119   0.324   4.385  0.0483 -0.0256  1.2468
 1444SOL    HW2 5232  -0.036   0.364   4.353  0.2690 -0.2968 -0.2084
 1445SOL     OW 5233   6.660   2.771   0.384  0.2318  0.2437  0.0154
 1445SOL    HW1 5234   6.750   2.812   0.372 -0.5324  2.1102  0.3153
 1445SOL    HW2 5235   6.604   2.788   0.303 -0.3766  0.5443  0.4886
 1446SOL     OW 5236   2.642   4.947   1.668  0.4973 -0.7763 -0.4108
 1446SOL    HW1 5237   2.570   4.893   1.625  2.0779 -1.3770 -2.5015
 1446SOL    HW2 5238   2.675   4.899   1.749 -0.5130 -1.1698 -0.2193
 1447SOL     OW 5239   0.253   2.134   6.681 -0.2016 -0.1295  0.4548
 1447SOL    HW1 5240   0.285   2.225   6.707 -1.6115  0.8595 -1.0908
 1447SOL    HW2 5241   0.221   2.085   6.763  1.1630  0.4820  1.3899
 1448SOL     OW 5242   5.650   1.172   1.043 -0.0758 -0.1037  0.0508
 1448SOL    HW1 5243   5.567   1.118   1.055  0.4377 -0.9805 -0.2709
 1448SOL    HW2 5244   5.716   1.121   0.987 -0.1012  1.4015 -1.4437
 1449SOL     OW 5245   6.329   5.668   2.091  0.6083  0.6265  0.0614
 1449SOL    HW1 5246   6.407   5.611   2.115  0.8385  0.5003 -0.9393
 1449SOL    HW2 5247   6.362   5.753   2.049  0.3137  1.9003  2.2318
 1450SOL     OW 5248   5.901   0.091   3.524  0.4578 -0.6716  0.2825
 1450SOL    HW1 5249   5.996   0.114   3.546  0.5160 -0.4327 -0.1950
 1450SOL    HW2 5250   5.864   0.029   3.594  0.7549 -0.2462  0.8261
 1451SOL     OW 5251   0.428   4.916   4.082 -0.4903 -0.0481 -0.0236
 1451SOL    HW1 5252   0.334   4.884   4.090 -0.8641  0.6892 -1.2004
 1451SOL    HW2 5253   0.429   5.015   4.070  0.3622 -0.1415 -0.9226
 1452SOL     OW 5254   0.738   6.488   4.974 -0.1412  0.2092  0.6919
 1452SOL    HW1 5255   0.768   6.510   5.067 -1.4722  1.1306  0.9311
 1452SOL    HW2 5256   0.672   6.413   4.978 -0.5080  0.5214  0.5438
 1453SOL     OW 5257   5.896   6.624   4.412 -0.1545 -0.6964  0.6224
 1453SOL    HW1 5258   5.890   6.691   4.486 -0.0367 -0.1428  0.1363
 1453SOL    HW2 5259   5.926   6.536   4.449 -0.3375 -0.4928  1.2684
 1454SOL     OW 5260   6.547   5.673   3.050 -0.0194  0.0958 -0.2926
 1454SOL    HW1 5261   6.462   5.663   2.998 -1.2498 -0.3987  1.7051
 1454SOL    HW2 5262   6.527   5.665   3.148  1.8359  3.0977  0.4540
 1455SOL     OW 5263   3.672   2.111   2.577  0.3562  0.3019  0.4810
 1455SOL    HW1 5264   3.707   2.017   2.571 -1.2066 -0.2857 -0.0391
 1455SOL    HW2 5265   3.646   2.143   2.486 -1.3850  0.3000  0.9290
 1456SOL     OW 5266   4.662   5.377   6.417  0.1868  0.7874 -0.1793
 1456SOL    HW1 5267   4.681   5.400   6.322 -0.4945  0.8413 -0.3050
 1456SOL    HW2 5268   4.563   5.370   6.431  0.2520  1.4068  0.6726
 1457SOL     OW 5269   1.990   0.139   5.125 -0.0355 -0.0130 -0.2746
 1457SOL    HW1 5270   2.000   0.161   5.222  0.0285  0.5212 -0.4007
 1457SOL    HW2 5271   2.020   0.217   5.070 -0.9907  0.0694 -0.7096
 1458SOL     OW 5272   4.423   4.872   0.482  0.2086 -0.3573  0.3583
 1458SOL    HW1 5273   4.372   4.804   0.534  0.4947 -0.6453  0.2662
 1458SOL    HW2 5274   4.485   4.922   0.543  1.8316 -1.8764  0.0483
 1459SOL     OW 5275   4.144   6.689   1.694  0.2522 -0.1442 -0.0168
 1459SOL    HW1 5276   4.045   6.702   1.701  0.2040  0.0303 -0.9179
 1459SOL    HW2 5277   4.188   6.778   1.684  0.6699 -0.0723  2.0639
 1460SOL     OW 5278   2.304   1.962   0.640 -0.1374  0.1386 -0.8672
 1460SOL    HW1 5279   2.222   2.006   0.604 -0.0800  0.0387 -1.1165
 1460SOL    HW2 5280   2.285   1.928   0.732  0.0675  1.4510 -0.3167
 1461SOL     OW 5281   6.464   3.140   2.325  0.0360  0.3021 -0.0731
 1461SOL    HW1 5282   6.407   3.078   2.271 -0.2446  0.7321 -0.2782
 1461SOL    HW2 5283   6.533   3.182   2.265  1.4897 -1.2575  0.4307
 1462SOL     OW 5284   6.324   6.569   3.308 -0.3473 -0.7912  0.0271
 1462SOL    HW1 5285   6.226   6.572   3.328 -0.5484 -0.1195 -0.9666
 1462SOL    HW2 5286   6.339   6.595   3.213  0.7748 -1.2285  0.0728
 1463SOL     OW 5287   1.118   1.669   5.075  0.1746 -0.0930  0.9044
 1463SOL    HW1 5288   1.036   1.708   5.034  0.9772  1.3368  0.6027
 1463SOL    HW2 5289   1.098   1.576   5.107 -1.0316 -0.4813 -0.8391
 1464SOL     OW 5290   0.448   0.147   1.030 -1.2168  0.5810 -0.3696
 1464SOL    HW1 5291   0.373   0.191   0.981 -2.4502 -0.2462  0.7339
 1464SOL    HW2 5292   0.434   0.155   1.128  0.0014  0.1681 -0.1451
 1465SOL     OW 5293   0.712   1.186   4.541 -0.8661  0.4514  0.2195
 1465SOL    HW1 5294   0.678   1.093   4.555 -1.2203  0.5505  0.0408
 1465SOL    HW2 5295   0.635   1.250   4.538 -0.6604  0.6916 -0.1195
 1466SOL     OW 5296   4.831   5.845   2.306 -0.1074 -0.3606 -0.2191
 1466SOL    HW1 5297   4.899   5.860   2.377  1.6806 -1.8074 -1.5283
 1466SOL    HW2 5298   4.763   5.918   2.308  1.2085  0.8725  1.4508
 1467SOL     OW 5299   6.109   5.219   4.931 -0.1058  0.4671 -0.5030
 1467SOL    HW1 5300   6.120   5.138   4.989 -0.4494  1.3187  0.8105
 1467SOL    HW2 5301   6.154   5.297   4.974 -1.7808  1.5033 -0.5204
 1468SOL     OW 5302   6.629   0.052   2.395  0.0700  0.1029  0.5730
 1468SOL    HW1 5303   6.596  -0.040   2.411 -1.1356  0.5933  1.0263
 1468SOL    HW2 5304   6.611   0.109   2.475 -0.0095  0.9552 -0.0295
 1469SOL     OW 5305   6.239   6.223   2.367  0.0739 -0.1269 -0.0115
 1469SOL    HW1 5306   6.145   6.246   2.341 -0.0292  1.3680  1.4834
 1469SOL    HW2 5307   6.243   6.128   2.399 -0.6733 -0.5599 -1.1507
 1470SOL     OW 5308   5.231   1.544   1.814 -0.0532 -0.6449  0.4678
 1470SOL    HW1 5309   5.214   1.446   1.826  1.0631 -1.0043 -0.7500
 1470SOL    HW2 5310   5.146   1.589   1.786 -0.2823 -1.4701 -0.1915
 1471SOL     OW 5311   6.230   2.597   0.445  0.5517  0.1930  0.1589
 1471SOL    HW1 5312   6.274   2.533   0.508 -2.6115 -0.5685  1.7908
 1471SOL    HW2 5313   6.220   2.554   0.355 -1.0882 -1.5134  1.1003
 1472SOL     OW 5314   4.169   4.981   5.312  0.2590  0.1108 -0.3021
 1472SOL    HW1 5315   4.147   5.007   5.218 -0.6420  0.3246 -0.0406
 1472SOL    HW2 5316   4.250   4.923   5.312  1.2077  1.3871 -1.0645
 1473SOL     OW 5317   1.363   1.534   3.779  0.2076  0.0198 -0.1949
 1473SOL    HW1 5318   1.436   1.565   3.718 -0.8425 -1.2657 -2.1914
 1473SOL    HW2 5319   1.276   1.571   3.748 -0.2807 -0.0951  0.9697
 1474SOL     OW 5320   6.452   0.556   2.528 -0.1201 -0.1010  0.1229
 1474SOL    HW1 5321   6.452   0.636   2.468  1.1052 -1.0298 -1.1750
 1474SOL    HW2 5322   6.382   0.567   2.598 -1.2465  1.2676 -1.1485
 1475SOL     OW 5323   0.327   6.360   1.947 -0.0892 -0.1806  0.2941
 1475SOL    HW1 5324   0.390   6.409   1.888 -0.9947  1.0688  0.3090
 1475SOL    HW2 5325   0.323   6.405   2.036  0.1701 -1.1854  0.8343
 1476SOL     OW 5326   1.438   2.454   3.237  0.7981 -0.7148 -0.7573
 1476SOL    HW1 5327   1.351   2.406   3.250  0.7596 -0.2138  1.2391
 1476SOL    HW2 5328   1.508   2.389   3.209  0.1010 -1.3950 -0.9677
 1477SOL     OW 5329   2.737   5.646   3.358  0.4949 -0.4010 -0.4256
 1477SOL    HW1 5330   2.710   5.602   3.272  0.1843 -0.5550 -0.2526
 1477SOL    HW2 5331   2.824   5.693   3.346  0.5841 -0.6465 -0.7522
 1478SOL     OW 5332   1.250   3.070   0.821 -0.3805  0.3715  0.3473
 1478SOL    HW1 5333   1.287   3.079   0.728  1.8713  1.3739  1.2713
 1478SOL    HW2 5334   1.240   2.973   0.843  1.0472  0.0591 -0.2343
 1479SOL     OW 5335   2.856   5.928   5.444  0.1372  0.1837 -0.0355
 1479SOL    HW1 5336   2.805   5.999   5.492  1.0550 -0.2030  1.6019
 1479SOL    HW2 5337   2.792   5.870   5.393 -0.8281  0.9138  0.3124
 1480SOL     OW 5338   2.460   2.715   6.959  0.2362 -0.2892 -0.1562
 1480SOL    HW1 5339   2.437   2.761   6.874  0.2555  1.4245  0.7231
 1480SOL    HW2 5340   2.402   2.750   7.033  1.4376 -0.4117  0.8856
 1481SOL     OW 5341   2.032   1.866   1.546  0.3273  0.7251 -0.0634
 1481SOL    HW1 5342   2.006   1.846   1.640 -0.6899  0.6807 -0.3363
 1481SOL    HW2 5343   1.968   1.821   1.483  3.1018 -2.4457 -0.9277
 1482SOL     OW 5344   5.231   2.018   5.362 -0.4912  0.3083 -0.4053
 1482SOL    HW1 5345   5.302   2.004   5.293 -0.9372  0.4158 -0.8951
 1482SOL    HW2 5346   5.272   2.020   5.453  0.2239  1.1675 -0.7421
 1483SOL     OW 5347   0.220   1.438   6.866 -0.1507 -0.1825  0.4065
 1483SOL    HW1 5348   0.146   1.381   6.901 -0.1242  0.0903  0.9092
 1483SOL    HW2 5349   0.247   1.505   6.935  0.0732  0.1964 -0.0419
 1484SOL     OW 5350   6.346   0.848   3.721 -0.5424 -0.1101  0.1090
 1484SOL    HW1 5351   6.247   0.857   3.723 -0.6012 -0.7286  0.1521
 1484SOL    HW2 5352   6.375   0.787   3.795 -0.1415 -0.0244  0.0252
 1485SOL     OW 5353   4.844   3.141   4.867 -0.5935 -0.6256 -0.1724
 1485SOL    HW1 5354   4.935   3.141   4.907 -0.6131 -3.5812  0.0910
 1485SOL    HW2 5355   4.776   3.133   4.940 -0.9372 -0.5658 -0.4835
 1486SOL     OW 5356   5.408   2.885   1.977 -0.0145 -0.4010 -0.9846
 1486SOL    HW1 5357   5.373   2.792   1.992 -0.0464 -0.0731  1.3859
 1486SOL    HW2 5358   5.340   2.951   2.008  2.0824  0.2631  2.9162
 1487SOL     OW 5359   1.581   5.630   6.136  0.0886  0.4263  0.3266
 1487SOL    HW1 5360   1.608   5.534   6.127 -0.6613  0.2205  0.2287
 1487SOL    HW2 5361   1.621   5.682   6.061  0.8155  0.2682  0.5931
 1488SOL     OW 5362   4.224   1.025   3.987 -0.0017  0.5881 -0.4451
 1488SOL    HW1 5363   4.149   1.082   4.019  0.2425  0.9584 -0.5248
 1488SOL    HW2 5364   4.215   1.011   3.888 -0.7332 -0.5206 -0.2408
 1489SOL     OW 5365   2.142   5.865   4.909  0.0395  0.3386 -0.1785
 1489SOL    HW1 5366   2.113   5.947   4.958  0.5082  0.6240 -0.3805
 1489SOL    HW2 5367   2.235   5.840   4.936  0.1996  0.3395 -0.7143
 1490SOL     OW 5368   0.253   3.633   6.515  0.1211  0.4285  0.0784
 1490SOL    HW1 5369   0.218   3.654   6.423 -1.6187  0.5663  0.7443
 1490SOL    HW2 5370   0.278   3.536   6.519 -0.6268  0.2121 -0.3005
 1491SOL     OW 5371   2.723   0.392   3.285 -0.4274  0.2644  0.1173
 1491SOL    HW1 5372   2.747   0.315   3.344  1.3629  1.2908  0.7992
 1491SOL    HW2 5373   2.626   0.415   3.298 -0.7976 -1.3888  0.4367
 1492SOL     OW 5374   6.095   2.528   2.734  0.0065 -0.0884  0.7018
 1492SOL    HW1 5375   6.052   2.465   2.800  1.0262  0.5594  2.0302
 1492SOL    HW2 5376   6.179   2.487   2.699 -0.4023 -0.3209 -0.0372
 1493SOL     OW 5377   1.457   3.239   4.421  0.7311 -0.4254  0.1904
 1493SOL    HW1 5378   1.381   3.183   4.388 -0.4671  0.0980  1.8987
 1493SOL    HW2 5379   1.509   3.189   4.490  0.2165  0.1918  1.0515
 1494SOL     OW 5380   5.834   2.720   3.629 -0.1857 -0.6141 -0.2401
 1494SOL    HW1 5381   5.751   2.679   3.592 -0.2823  0.2486 -1.0225
 1494SOL    HW2 5382   5.891   2.753   3.553  0.3467 -0.2226  0.3233
 1495SOL     OW 5383   0.443   2.295   0.836 -0.0644 -0.2582  0.3205
 1495SOL    HW1 5384   0.484   2.228   0.899  1.6868  1.0307  0.6222
 1495SOL    HW2 5385   0.404   2.370   0.889 -0.9060 -0.4110 -0.0671
 1496SOL     OW 5386   7.000   5.780   1.496  0.1657  0.3102  0.3138
 1496SOL    HW1 5387   7.099   5.779   1.511  0.0760 -0.7849  0.9943
 1496SOL    HW2 5388   6.969   5.873   1.479  1.0259  0.9580  2.0759
 1497SOL     OW 5389   5.419   3.370   5.062 -0.1094 -0.0955 -0.3370
 1497SOL    HW1 5390   5.510   3.328   5.070 -0.2925 -0.6790 -1.1815
 1497SOL    HW2 5391   5.373   3.367   5.151 -0.1090 -1.7001 -0.3527
 1498SOL     OW 5392   4.289   5.286   6.403 -0.7001  0.1241  0.6929
 1498SOL    HW1 5393   4.336   5.198   6.415  0.4200  0.6776  0.5233
 1498SOL    HW2 5394   4.313   5.324   6.313 -2.1078  0.0682  0.2646
 1499SOL     OW 5395   1.966   3.400   4.266  0.0279  0.1797 -0.0116
 1499SOL    HW1 5396   1.921   3.482   4.230 -0.0288 -0.7328 -2.1805
 1499SOL    HW2 5397   1.915   3.366   4.345  0.4283  2.5578  1.3432
 1500SOL     OW 5398   6.412   6.412   3.080 -0.2369  0.4981  0.3477
 1500SOL    HW1 5399   6.423   6.510   3.065  1.3034  0.1895 -0.7833
 1500SOL    HW2 5400   6.333   6.379   3.028 -0.6897  1.1001  0.6344
 1501SOL     OW 5401   3.484   2.140   0.507 -0.1657  0.0402 -0.0732
 1501SOL    HW1 5402   3.573   2.168   0.545  1.2277 -2.4055 -1.3140
 1501SOL    HW2 5403   3.444   2.217   0.458  2.3142  0.6716 -1.2870
 1502SOL     OW 5404   1.234   0.515   5.473  0.3135 -0.4015  0.1013
 1502SOL    HW1 5405   1.243   0.506   5.373 -1.5089 -1.2076 -0.0182
 1502SOL    HW2 5406   1.301   0.455   5.518  0.6922 -0.5436 -0.6308
 1503SOL     OW 5407   4.025   3.288   5.902  0.2127 -0.7876  0.4198
 1503SOL    HW1 5408   3.961   3.365   5.896  0.6027 -0.2947  1.9453
 1503SOL    HW2 5409   4.113   3.321   5.937  0.1726 -2.0146  1.7893
 1504SOL     OW 5410   3.483   0.704   3.526 -0.0233  0.6931 -0.4862
 1504SOL    HW1 5411   3.404   0.764   3.539 -0.0644  1.0098 -2.0500
 1504SOL    HW2 5412   3.553   0.750   3.471  0.4742 -0.2334 -0.6675
 1505SOL     OW 5413   5.863   5.973   3.582 -0.0254  0.3005  0.0701
 1505SOL    HW1 5414   5.938   6.005   3.639  0.3071  0.2870 -0.3503
 1505SOL    HW2 5415   5.776   5.992   3.627  0.2713 -1.9006  1.7282
 1506SOL     OW 5416   6.433   0.024   2.190 -0.3146 -0.1675 -0.5192
 1506SOL    HW1 5417   6.390   0.096   2.135 -1.4064  1.3100  2.1215
 1506SOL    HW2 5418   6.503   0.065   2.249 -0.2510 -1.4232  0.3016
 1507SOL     OW 5419   3.130   0.970   6.216  0.2222  0.1077 -0.6468
 1507SOL    HW1 5420   3.052   0.985   6.277  0.5221  0.3163 -0.3031
 1507SOL    HW2 5421   3.147   1.053   6.162  0.4823  0.2251 -0.3905
 1508SOL     OW 5422   3.368   6.117   1.996 -0.2226 -0.3007  0.4835
 1508SOL    HW1 5423   3.450   6.119   1.937 -0.3298  0.4235  0.3572
 1508SOL    HW2 5424   3.293   6.075   1.945  0.2596 -1.7003  0.8647
 1509SOL     OW 5425   4.467   2.471   6.643  0.1711  0.0344  0.5427
 1509SOL    HW1 5426   4.451   2.515   6.731  0.4630 -0.9999  1.1362
 1509SOL    HW2 5427   4.559   2.493   6.610  0.4837 -0.4641  1.0553
 1510SOL     OW 5428   6.756   1.322   2.823 -0.2145  0.7070  0.2342
 1510SOL    HW1 5429   6.774   1.378   2.903 -0.1669  0.8678  0.1110
 1510SOL    HW2 5430   6.816   1.350   2.748  0.5868 -0.2338  0.5079
 1511SOL     OW 5431   0.658   3.489   6.008  0.0735  0.0972 -0.1654
 1511SOL    HW1 5432   0.730   3.474   6.076 -0.6226  1.3553  0.8938
 1511SOL    HW2 5433   0.695   3.471   5.917  1.2516 -0.8749  0.4672
 1512SOL     OW 5434   0.794   6.372   2.462  0.9443 -0.3855 -0.4447
 1512SOL    HW1 5435   0.800   6.299   2.394  0.0310  0.0022 -0.9603
 1512SOL    HW2 5436   0.701   6.410   2.461  1.5723  1.1977 -0.6075
 1513SOL     OW 5437   2.965   1.517   2.682  0.3099 -0.1859  0.1408
 1513SOL    HW1 5438   3.013   1.481   2.762 -0.1342  0.5006  0.7232
 1513SOL    HW2 5439   3.032   1.540   2.611  1.0339  2.0228  1.4305
 1514SOL     OW 5440   4.984   6.937   5.090 -0.1055  0.1014  0.3026
 1514SOL    HW1 5441   4.893   6.900   5.108 -0.7168  1.2627 -0.2381
 1514SOL    HW2 5442   5.033   6.948   5.177 -0.1512 -1.2950  0.5260
 1515SOL     OW 5443   6.029   1.192   4.602 -0.0137 -0.2317 -0.3667
 1515SOL    HW1 5444   5.930   1.193   4.618  0.3150  1.7449  2.1806
 1515SOL    HW2 5445   6.054   1.265   4.539  0.0962  2.0246  2.0905
 1516SOL     OW 5446   6.520   2.213   2.552  0.1505  0.2502  0.8214
 1516SOL    HW1 5447   6.496   2.148   2.480 -1.8476  1.6430  0.1473
 1516SOL    HW2 5448   6.611   2.191   2.588  1.1286 -0.6145 -1.9468
 1517SOL     OW 5449   3.612   4.208   1.897  0.0370  0.4209 -0.2302
 1517SOL    HW1 5450   3.635   4.140   1.966 -1.3569  0.5631  0.3970
 1517SOL    HW2 5451   3.514   4.204   1.876 -0.3168  2.8820  0.5907
 1518SOL     OW 5452   6.197   4.386   1.819 -0.9024  0.5691  0.0046
 1518SOL    HW1 5453   6.253   4.434   1.752 -0.7306 -0.8379 -0.9207
 1518SOL    HW2 5454   6.200   4.434   1.907  2.1747  0.3185  0.1593
 1519SOL     OW 5455   6.613   3.295   0.973 -0.3435  0.0031  0.9542
 1519SOL    HW1 5456   6.535   3.239   0.945 -1.2127  0.9430  1.4213
 1519SOL    HW2 5457   6.676   3.240   1.026  1.7800 -2.1272 -3.2420
 1520SOL     OW 5458   1.183   3.454   3.498  0.2046 -0.5967 -0.1053
 1520SOL    HW1 5459   1.169   3.549   3.469  0.3134 -0.1235  1.3034
 1520SOL    HW2 5460   1.116   3.395   3.452 -1.2091  0.4616  0.5106
 1521SOL     OW 5461   1.515   4.143   5.849  0.3753  0.3012  0.3538
 1521SOL    HW1 5462   1.425   4.133   5.892 -0.5336  0.3646 -1.4401
 1521SOL    HW2 5463   1.542   4.056   5.807  1.2912  0.2155  1.0813
 1522SOL     OW 5464   1.003   1.187   5.826 -0.1702 -0.3808  0.0456
 1522SOL    HW1 5465   0.999   1.284   5.800 -1.9557 -0.6761 -0.9734
 1522SOL    HW2 5466   0.945   1.172   5.906  0.7362 -0.4856  0.6922
 1523SOL     OW 5467   6.098   2.822   1.696 -0.3644  0.1437  0.3165
 1523SOL    HW1 5468   6.174   2.847   1.755  0.0316 -2.3439  0.9887
 1523SOL    HW2 5469   6.016   2.874   1.723  0.5209  1.1857  1.0766
 1524SOL     OW 5470   0.358   1.960   1.695 -0.3017  0.0668 -0.6383
 1524SOL    HW1 5471   0.416   1.906   1.755  0.3054  1.2659 -0.1152
 1524SOL    HW2 5472   0.330   1.905   1.617  0.1474 -1.0416 -0.0342
 1525SOL     OW 5473   4.991   3.916   4.136  0.0773 -0.2855 -0.1250
 1525SOL    HW1 5474   4.913   3.967   4.173  0.6054  0.2496  0.2766
 1525SOL    HW2 5475   4.968   3.819   4.131  0.2857 -0.5659  2.5501
 1526SOL     OW 5476   6.775   3.253   1.205  0.0658  0.1662  0.4188
 1526SOL    HW1 5477   6.787   3.167   1.255  1.4092 -0.0302 -0.2037
 1526SOL    HW2 5478   6.745   3.324   1.269  1.3008 -0.1885  1.4380
 1527SOL     OW 5479   4.440   1.448   5.652 -0.3313 -0.0884  0.4136
 1527SOL    HW1 5480   4.528   1.487   5.679 -0.7078  1.4884 -0.5449
 1527SOL    HW2 5481   4.454   1.357   5.613  0.8347  0.0230  0.5428
 1528SOL     OW 5482   2.704   6.714   4.553 -0.2904 -0.2825  0.3246
 1528SOL    HW1 5483   2.795   6.687   4.520  0.5744 -0.0111  2.3450
 1528SOL    HW2 5484   2.654   6.632   4.583 -0.3325 -0.3294  0.1288
 1529SOL     OW 5485   1.124   5.031   0.196  0.1440  0.5083  0.2027
 1529SOL    HW1 5486   1.108   4.955   0.259 -0.2835  0.3433 -0.1020
 1529SOL    HW2 5487   1.087   5.008   0.106  1.6432  0.3106 -0.4028
 1530SOL     OW 5488   5.157   5.874   1.442 -0.5598 -0.4974  0.1925
 1530SOL    HW1 5489   5.180   5.778   1.459  0.2147  0.1818  3.5787
 1530SOL    HW2 5490   5.236   5.920   1.400 -0.2196 -0.9283  0.3541
 1531SOL     OW 5491   5.955   2.670   0.978 -0.0341 -0.1802  0.0709
 1531SOL    HW1 5492   5.873   2.664   0.922 -0.4708 -1.8597  0.8329
 1531SOL    HW2 5493   6.036   2.649   0.923 -0.4096 -1.3735 -0.0335
 1532SOL     OW 5494   1.710   1.169   5.075  0.7437 -0.1378  0.2341
 1532SOL    HW1 5495   1.739   1.263   5.090  1.3674 -0.0185 -1.4710
 1532SOL    HW2 5496   1.790   1.112   5.056  0.2401 -0.6924 -0.2861
 1533SOL     OW 5497   4.980   2.960   1.925 -0.1155 -0.6845 -0.0014
 1533SOL    HW1 5498   4.889   2.961   1.966  0.2651 -0.8546  0.8725
 1533SOL    HW2 5499   5.043   2.908   1.983  0.4692 -0.8586 -0.7611
 1534SOL     OW 5500   5.182   0.066   6.526  0.6144  0.1919  0.6654
 1534SOL    HW1 5501   5.170   0.116   6.440 -0.0069 -0.6944  0.2311
 1534SOL    HW2 5502   5.095   0.062   6.574  0.4316 -1.2854  0.2418
 1535SOL     OW 5503   3.847   5.318   4.941 -0.2882 -0.6554 -0.0494
 1535SOL    HW1 5504   3.752   5.304   4.966  0.3492  0.2646  3.3452
 1535SOL    HW2 5505   3.874   5.249   4.873 -3.1220 -1.3407 -0.6165
 1536SOL     OW 5506   2.551   4.971   2.915 -0.4156  0.3661  0.0498
 1536SOL    HW1 5507   2.642   4.981   2.954 -0.0008  0.5296 -0.9271
 1536SOL    HW2 5508   2.490   4.930   2.983  0.2927  0.5696  0.8296
 1537SOL     OW 5509   0.666   5.311   4.767  0.5409  0.1139  0.5960
 1537SOL    HW1 5510   0.751   5.262   4.748 -0.7425 -1.0616 -2.8911
 1537SOL    HW2 5511   0.604   5.252   4.819  0.6399 -0.3179  0.2300
 1538SOL     OW 5512   3.671   0.627   3.014  0.5700  0.4833 -0.2534
 1538SOL    HW1 5513   3.590   0.649   3.069  1.2710 -0.2628  1.1111
 1538SOL    HW2 5514   3.753   0.665   3.058  0.9900  1.2967 -1.6569
 1539SOL     OW 5515   2.771   6.365   0.743 -0.5121 -0.5836 -0.0259
 1539SOL    HW1 5516   2.853   6.374   0.686 -0.8016 -0.5552 -0.4388
 1539SOL    HW2 5517   2.795   6.387   0.838  0.4673 -2.7533  0.2809
 1540SOL     OW 5518   6.230   0.121   4.573 -0.0515 -0.1394  0.1247
 1540SOL    HW1 5519   6.215   0.199   4.513 -2.1299 -0.9950 -0.5596
 1540SOL    HW2 5520   6.199   0.143   4.665 -1.9403 -0.5379 -0.3702
 1541SOL     OW 5521   4.982   1.588   2.072 -0.5513  0.2734 -0.7883
 1541SOL    HW1 5522   4.984   1.617   2.168 -0.4779  1.5590 -1.1570
 1541SOL    HW2 5523   4.944   1.661   2.016  2.4466  0.9616 -2.1726
 1542SOL     OW 5524   0.642   4.207   6.845 -0.5004 -0.2268 -0.4050
 1542SOL    HW1 5525   0.557   4.230   6.798 -1.6443 -1.7795  0.7837
 1542SOL    HW2 5526   0.628   4.124   6.900  1.6597 -0.2525  0.1901
 1543SOL     OW 5527   3.782   3.339   2.472 -0.1048  0.5783  0.1625
 1543SOL    HW1 5528   3.832   3.271   2.418 -1.4922  0.3726 -0.9131
 1543SOL    HW2 5529   3.684   3.324   2.463 -0.4370  2.3340  0.4381
 1544SOL     OW 5530   3.582   4.151   1.004 -0.6101  0.2370 -0.0247
 1544SOL    HW1 5531   3.544   4.122   0.916 -1.0120  0.9075 -0.0785
 1544SOL    HW2 5532   3.682   4.148   1.001 -0.6002  1.0390 -0.7850
 1545SOL     OW 5533   1.367   0.406   1.054 -0.0932  0.3700 -0.2537
 1545SOL    HW1 5534   1.409   0.331   1.103 -0.8265 -0.6336 -1.1137
 1545SOL    HW2 5535   1.334   0.475   1.119  0.4941 -0.0908  0.5460
 1546SOL     OW 5536   0.722   0.310   2.547 -0.1867 -0.6446  0.0163
 1546SOL    HW1 5537   0.817   0.281   2.541  0.4693  1.2199  0.7386
 1546SOL    HW2 5538   0.663   0.231   2.563  1.3217 -1.7231  0.3420
 1547SOL     OW 5539   2.442   1.041   0.299 -0.0265 -0.1077  0.0779
 1547SOL    HW1 5540   2.426   1.034   0.201  0.9715  1.5607 -0.2313
 1547SOL    HW2 5541   2.354   1.041   0.347 -0.5135 -1.4285 -0.7378
 1548SOL     OW 5542   0.357   5.082   4.372  0.0505  0.4975 -0.2323
 1548SOL    HW1 5543   0.313   5.045   4.289 -0.4026 -0.7940  0.5564
 1548SOL    HW2 5544   0.286   5.118   4.433  0.3175  0.7226 -0.0560
 1549SOL     OW 5545   6.510   3.420   0.075 -0.6253  0.3024 -0.6738
 1549SOL    HW1 5546   6.509   3.424   0.175 -0.8496  1.5586 -0.7045
 1549SOL    HW2 5547   6.489   3.327   0.045 -0.1315 -0.1854  0.4471
 1550SOL     OW 5548   3.474   5.298   1.113  0.3727  0.1254 -0.4254
 1550SOL    HW1 5549   3.398   5.260   1.060  0.3706  0.4948 -0.6977
 1550SOL    HW2 5550   3.556   5.242   1.098 -0.0803 -0.8683  0.6684
 1551SOL     OW 5551   2.097   0.544   2.162  0.4064  0.5688  0.2848
 1551SOL    HW1 5552   2.094   0.448   2.190  0.4250  0.2574 -0.7758
 1551SOL    HW2 5553   2.184   0.584   2.190  0.1417  0.4764  1.3144
 1552SOL     OW 5554   1.296   5.954   1.628  0.2817 -0.5705 -0.4122
 1552SOL    HW1 5555   1.200   5.924   1.624 -0.1031  0.4895  0.3599
 1552SOL    HW2 5556   1.349   5.888   1.681 -0.8830  0.8023  2.7302
 1553SOL     OW 5557   5.047   2.795   5.741  0.2666  0.5410 -0.4449
 1553SOL    HW1 5558   5.072   2.775   5.646 -1.9278  0.0516 -0.9626
 1553SOL    HW2 5559   4.975   2.733   5.770  1.6912 -0.1153  1.9912
 1554SOL     OW 5560   2.073   2.451   1.468  0.3232  0.2279 -0.1856
 1554SOL    HW1 5561   2.079   2.513   1.389  0.1646  0.5671  0.0653
 1554SOL    HW2 5562   2.093   2.358   1.439 -0.8885  0.1620 -0.8571
 1555SOL     OW 5563   5.342   2.857   1.527 -0.3999 -0.9070 -0.1928
 1555SOL    HW1 5564   5.434   2.876   1.493 -0.5118 -1.4282 -0.8007
 1555SOL    HW2 5565   5.305   2.938   1.572  0.1206 -0.5089 -0.4779
 1556SOL     OW 5566   3.550   2.708   0.370  0.1624 -0.3373  0.5445
 1556SOL    HW1 5567   3.498   2.787   0.336 -1.1602 -1.2007  0.4693
 1556SOL    HW2 5568   3.556   2.640   0.297  0.7682 -0.5646  0.8064
 1557SOL     OW 5569   2.041   3.334   1.434  0.5984 -0.3844  0.1131
 1557SOL    HW1 5570   1.967   3.267   1.425  1.2109 -1.0242 -0.3139
 1557SOL    HW2 5571   2.088   3.320   1.521  0.6357 -0.4194  0.0875
 1558SOL     OW 5572   4.088   1.056   6.887  0.5032  0.6863 -0.1299
 1558SOL    HW1 5573   4.130   1.080   6.974  1.3857 -1.0960 -0.0362
 1558SOL    HW2 5574   4.139   0.982   6.844 -1.9194 -0.8724 -0.5175
 1559SOL     OW 5575   3.759   5.708   2.796 -0.7200 -0.0367 -0.1051
 1559SOL    HW1 5576   3.834   5.664   2.844  0.0916  1.1847 -0.2245
 1559SOL    HW2 5577   3.672   5.682   2.840 -0.5101 -3.2182 -1.2758
 1560SOL     OW 5578   5.959   3.434   0.713  0.1279  0.1372  0.5817
 1560SOL    HW1 5579   6.007   3.476   0.790 -1.8081  0.5890  1.5864
 1560SOL    HW2 5580   5.946   3.336   0.731 -1.3612  0.4595  1.4339
 1561SOL     OW 5581   5.653   5.990   1.283  0.1932 -0.4850 -0.5213
 1561SOL    HW1 5582   5.675   5.944   1.369 -0.0692 -1.2643 -0.8634
 1561SOL    HW2 5583   5.697   6.080   1.282  1.6469 -1.1574 -0.3082
 1562SOL     OW 5584   2.495   1.007   3.516  0.3622  0.3282 -0.4270
 1562SOL    HW1 5585   2.431   1.043   3.449 -0.4354 -0.5321 -0.1457
 1562SOL    HW2 5586   2.526   0.916   3.488  0.0884 -0.0050  0.3014
 1563SOL     OW 5587   3.124   4.964   4.227 -0.4016  0.3720 -0.2828
 1563SOL    HW1 5588   3.213   4.959   4.182 -0.9577  0.6704 -1.4672
 1563SOL    HW2 5589   3.056   4.916   4.170 -1.0703  0.5051  0.3953
 1564SOL     OW 5590   2.003   0.623   1.430  0.0219  0.1033 -0.1287
 1564SOL    HW1 5591   1.915   0.650   1.470 -1.1599 -0.0151 -2.4493
 1564SOL    HW2 5592   2.077   0.668   1.479 -1.2968  0.0759  2.0226
 1565SOL     OW 5593   5.898   3.915   6.175  0.0322  0.0866 -0.8419
 1565SOL    HW1 5594   5.839   3.835   6.163  0.2385  0.1350 -2.3360
 1565SOL    HW2 5595   5.896   3.944   6.271 -0.8280 -1.0941 -0.4847
 1566SOL     OW 5596   1.804   2.297   2.794  0.5222  0.8724 -0.1722
 1566SOL    HW1 5597   1.720   2.278   2.846  1.4477 -3.3870  0.2017
 1566SOL    HW2 5598   1.789   2.276   2.697  0.7357  1.6543 -0.3779
 1567SOL     OW 5599   5.630   0.892   3.446 -0.0321  0.4659 -0.1510
 1567SOL    HW1 5600   5.719   0.937   3.443 -0.2729  0.9323 -0.2813
 1567SOL    HW2 5601   5.574   0.922   3.369  0.3811 -1.2875 -1.2072
 1568SOL     OW 5602   4.092   5.826   0.856  0.7214  0.2700  0.4367
 1568SOL    HW1 5603   4.118   5.906   0.802 -1.2620 -0.1834 -1.3622
 1568SOL    HW2 5604   4.009   5.846   0.907 -1.1971 -1.2029 -1.8698
 1569SOL     OW 5605   0.685   1.010   6.473 -0.1672  0.3996  0.3043
 1569SOL    HW1 5606   0.735   1.090   6.440 -0.2428 -0.0652 -0.9916
 1569SOL    HW2 5607   0.745   0.931   6.472 -0.6398  0.0345 -0.3603
 1570SOL     OW 5608   2.168   5.828   4.059  0.1595 -0.8803  0.4633
 1570SOL    HW1 5609   2.186   5.733   4.035 -0.4514 -1.4220  2.0116
 1570SOL    HW2 5610   2.246   5.866   4.108  1.1053 -0.0032 -1.5713
 1571SOL     OW 5611   2.011   0.673   4.318  0.4847  0.1248 -0.8381
 1571SOL    HW1 5612   1.919   0.713   4.319 -0.0515 -1.0794 -0.3282
 1571SOL    HW2 5613   2.077   0.743   4.345 -0.3468  0.8571 -0.6374
 1572SOL     OW 5614   2.926   6.675   2.911 -0.4068 -0.0274  0.0035
 1572SOL    HW1 5615   2.868   6.614   2.857 -0.6196  0.3470 -0.1953
 1572SOL    HW2 5616   3.006   6.625   2.944  0.4613  0.0575 -1.8271
 1573SOL     OW 5617   5.594   6.061   5.694  0.2832 -0.6561  0.2904
 1573SOL    HW1 5618   5.549   5.994   5.635  0.0538  0.4560 -0.8365
 1573SOL    HW2 5619   5.681   6.088   5.654  0.1291  0.1107  0.4540
 1574SOL     OW 5620   1.792   3.060   3.027 -0.2894 -0.1222 -0.8575
 1574SOL    HW1 5621   1.756   2.973   3.062  0.7685  0.8627  3.1613
 1574SOL    HW2 5622   1.868   3.041   2.964 -1.6831 -2.0456 -2.0797
 1575SOL     OW 5623   0.942   1.826   5.876 -0.6516 -0.2799 -0.2435
 1575SOL    HW1 5624   0.852   1.791   5.847 -0.8511 -0.3661  0.4482
 1575SOL    HW2 5625   0.945   1.828   5.976  0.1015 -0.2233 -0.2670
 1576SOL     OW 5626   1.663   5.225   3.792 -0.1135 -0.3485  0.4180
 1576SOL    HW1 5627   1.632   5.320   3.801 -0.5825 -0.6862  3.4689
 1576SOL    HW2 5628   1.621   5.170   3.864  1.7859 -2.4486  0.0164
 1577SOL     OW 5629   4.081   6.663   4.859 -0.2063  0.3867 -0.7072
 1577SOL    HW1 5630   4.126   6.736   4.912  3.7861 -2.6270  0.6403
 1577SOL    HW2 5631   4.018   6.614   4.919 -0.2950  0.6760 -0.5596
 1578SOL     OW 5632   4.630   1.958   1.554  0.1866 -0.0445 -0.2985
 1578SOL    HW1 5633   4.683   2.006   1.483  0.0104  1.5634  0.6095
 1578SOL    HW2 5634   4.557   1.906   1.511  1.5828 -1.1256 -1.4714
 1579SOL     OW 5635   2.792   1.741   2.609  0.8776  0.1009  0.0841
 1579SOL    HW1 5636   2.788   1.727   2.510  3.3686  1.1223 -0.2170
 1579SOL    HW2 5637   2.835   1.662   2.652 -0.4112 -0.4457  0.4291
 1580SOL     OW 5638   3.342   3.650   4.620 -0.0428  0.5256  0.1559
 1580SOL    HW1 5639   3.273   3.598   4.569  0.7376 -0.4509  0.0794
 1580SOL    HW2 5640   3.306   3.741   4.640 -0.4469  0.8859 -1.9813
 1581SOL     OW 5641   6.076   3.684   5.703 -0.2914  0.2762 -0.0238
 1581SOL    HW1 5642   6.158   3.637   5.736 -0.9297  0.4938  2.0543
 1581SOL    HW2 5643   6.089   3.783   5.710 -0.2232  0.3417 -1.0353
 1582SOL     OW 5644   3.407   5.268   5.294 -0.3286 -0.4366  0.2048
 1582SOL    HW1 5645   3.391   5.186   5.349 -1.5119  0.0082  0.5596
 1582SOL    HW2 5646   3.485   5.253   5.233  0.0143 -1.5041  0.8814
 1583SOL     OW 5647   1.813   4.261   2.240  0.7799  0.4772  0.1966
 1583SOL    HW1 5648   1.747   4.205   2.290  1.4640  0.2266  0.8422
 1583SOL    HW2 5649   1.776   4.354   2.229 -0.6441 -0.2179 -1.4536
 1584SOL     OW 5650   6.350   4.960   1.103 -0.0078 -0.6622  0.0594
 1584SOL    HW1 5651   6.418   4.986   1.172  0.1125  1.6060 -0.8376
 1584SOL    HW2 5652   6.297   4.883   1.137  0.2746  0.1482  2.5509
 1585SOL     OW 5653   3.650   6.152   3.865 -0.2162 -0.3846 -0.1661
 1585SOL    HW1 5654   3.725   6.217   3.858 -0.3518 -0.0640  1.0818
 1585SOL    HW2 5655   3.573   6.195   3.913 -1.2590 -0.6670 -1.5085
 1586SOL     OW 5656   4.699   5.232   2.262  0.4443 -0.3683 -0.3543
 1586SOL    HW1 5657   4.764   5.261   2.193 -0.9947  1.9866 -0.8026
 1586SOL    HW2 5658   4.617   5.194   2.218 -1.8345  3.9480 -0.3058
 1587SOL     OW 5659   4.059   1.856   6.867 -0.2910  0.2793  0.0061
 1587SOL    HW1 5660   4.153   1.879   6.891 -0.1035 -0.7501  0.3052
 1587SOL    HW2 5661   4.000   1.868   6.947  0.0050 -1.2949  0.5058
 1588SOL     OW 5662   5.694   1.420   3.865  0.3428  0.1209 -0.5097
 1588SOL    HW1 5663   5.620   1.485   3.881  1.6851  1.7980 -0.8227
 1588SOL    HW2 5664   5.677   1.337   3.919 -0.9645  1.0689  0.6292
 1589SOL     OW 5665   5.823   2.186   2.801  0.0506 -0.8159  0.2362
 1589SOL    HW1 5666   5.896   2.181   2.732  0.2424  1.9122  0.1201
 1589SOL    HW2 5667   5.852   2.247   2.876 -2.2796  0.9200 -0.1356
 1590SOL     OW 5668   4.952   4.414   3.199 -0.0894  0.0078  0.2826
 1590SOL    HW1 5669   5.024   4.350   3.228 -0.4012 -0.1792  0.6577
 1590SOL    HW2 5670   4.866   4.364   3.190 -0.6311  0.5898  1.8372
 1591SOL     OW 5671   6.802   4.190   1.609 -0.5171  0.5299 -0.0066
 1591SOL    HW1 5672   6.731   4.159   1.671 -0.7663  0.4054 -0.3493
 1591SOL    HW2 5673   6.778   4.164   1.515  1.1345 -1.7009  0.1091
 1592SOL     OW 5674   0.108   2.610   5.877  0.5605  0.2192  0.2885
 1592SOL    HW1 5675   0.025   2.666   5.883  0.5728  0.2649  0.0148
 1592SOL    HW2 5676   0.174   2.641   5.946  1.6588  2.3472 -1.5893
 1593SOL     OW 5677   2.617   4.504   0.690  0.5136  0.1225 -0.2432
 1593SOL    HW1 5678   2.543   4.506   0.757 -1.3661  3.9003 -2.1472
 1593SOL    HW2 5679   2.704   4.487   0.737 -0.9741 -0.0065  2.7083
 1594SOL     OW 5680   4.178   6.843   2.728 -0.0946  0.3598 -0.6759
 1594SOL    HW1 5681   4.194   6.802   2.638 -0.6837 -0.5001 -0.4002
 1594SOL    HW2 5682   4.102   6.907   2.722 -1.0027 -0.6804 -0.5211
 1595SOL     OW 5683   2.627   3.721   5.633  0.1665 -0.0219 -0.0409
 1595SOL    HW1 5684   2.674   3.731   5.545 -0.5086  0.7868 -0.3137
 1595SOL    HW2 5685   2.589   3.808   5.661  0.9016 -0.1205  1.3737
 1596SOL     OW 5686   5.394   5.660   5.118  0.5000 -0.4682  0.4183
 1596SOL    HW1 5687   5.411   5.670   5.216  1.5690 -1.4072  0.3452
 1596SOL    HW2 5688   5.474   5.618   5.074  0.8686  1.7506 -1.2079
 1597SOL     OW 5689   3.721   6.601   0.121 -0.1914 -0.7418 -0.1113
 1597SOL    HW1 5690   3.651   6.672   0.115  1.7743  1.5669  1.9667
 1597SOL    HW2 5691   3.763   6.588   0.032 -1.0370  0.2469 -0.6810
 1598SOL     OW 5692   1.462   3.478   6.125  0.1238  0.6627 -0.1044
 1598SOL    HW1 5693   1.451   3.388   6.166  0.6331 -0.0192 -1.4010
 1598SOL    HW2 5694   1.488   3.544   6.196  1.0799 -0.4830  0.6525
 1599SOL     OW 5695   6.629   4.656   3.154  0.5007 -0.4053  0.6970
 1599SOL    HW1 5696   6.707   4.630   3.098 -0.5009 -1.9901 -0.0557
 1599SOL    HW2 5697   6.570   4.717   3.103  0.9609  0.3591  1.0664
 1600SOL     OW 5698   4.225   6.678   2.931  0.2324  0.0133  0.5098
 1600SOL    HW1 5699   4.293   6.604   2.932  1.1317  0.8165 -0.1778
 1600SOL    HW2 5700   4.227   6.724   2.842 -1.5338 -0.2319  0.3243
 1601SOL     OW 5701   6.863   0.079   4.402 -0.3714 -0.3137 -0.1383
 1601SOL    HW1 5702   6.896   0.060   4.495  0.3979  0.6921 -0.1822
 1601SOL    HW2 5703   6.926   0.037   4.336 -0.0484  0.2689 -0.2079
 1602SOL     OW 5704   3.655   6.498   3.500 -0.1409 -0.1667  0.0004
 1602SOL    HW1 5705   3.571   6.465   3.456 -0.0427  0.7804 -0.9224
 1602SOL    HW2 5706   3.733   6.486   3.439  0.0979  0.6164  0.1344
 1603SOL     OW 5707   2.458   4.821   6.826 -0.2764 -0.1153  0.0569
 1603SOL    HW1 5708   2.511   4.836   6.909 -0.2812 -0.5363  0.1383
 1603SOL    HW2 5709   2.495   4.742   6.777 -1.0753 -0.6583  0.3167
 1604SOL     OW 5710   3.688   5.224   1.366 -0.7605  0.0751 -0.4704
 1604SOL    HW1 5711   3.595   5.251   1.391 -0.2041 -0.3475  2.4085
 1604SOL    HW2 5712   3.700   5.234   1.267 -4.0375 -0.4829 -1.0527
 1605SOL     OW 5713   3.487   4.870   5.511  0.1685 -0.2596  0.1152
 1605SOL    HW1 5714   3.518   4.815   5.433  1.5917  1.2510 -0.4598
 1605SOL    HW2 5715   3.548   4.949   5.522  0.1986 -0.5866  2.9816
 1606SOL     OW 5716   4.586   6.125   0.235  0.0375 -0.2375 -0.6194
 1606SOL    HW1 5717   4.686   6.120   0.241  0.0009  0.3097  1.4695
 1606SOL    HW2 5718   4.547   6.036   0.259  0.0226  0.2948  1.5648
 1607SOL     OW 5719   4.747   5.364   5.333 -0.1907 -0.1243 -0.1445
 1607SOL    HW1 5720   4.733   5.296   5.261 -1.7890 -1.2929  1.2061
 1607SOL    HW2 5721   4.662   5.416   5.347  0.2276  0.3775  0.6077
 1608SOL     OW 5722   5.734   3.881   2.088  0.1229  0.1397 -0.1013
 1608SOL    HW1 5723   5.814   3.832   2.055 -0.1471 -1.0798  0.9614
 1608SOL    HW2 5724   5.684   3.824   2.154 -0.7491  1.4760  0.4550
 1609SOL     OW 5725   1.366   5.555   0.232  0.3733 -0.1234  0.6326
 1609SOL    HW1 5726   1.463   5.559   0.253  0.4303  0.2562  0.3173
 1609SOL    HW2 5727   1.344   5.468   0.189  1.0988  0.8251 -1.7970
 1610SOL     OW 5728   6.102   5.040   0.230 -0.0352  0.3222 -0.6731
 1610SOL    HW1 5729   6.137   4.947   0.238  0.6255  0.5354 -0.9253
 1610SOL    HW2 5730   6.020   5.041   0.173  0.4813  0.0025 -1.4396
 1611SOL     OW 5731   3.023   5.029   6.604  0.1088  0.3326  0.0016
 1611SOL    HW1 5732   2.973   5.112   6.580  2.1166  0.9471 -2.4462
 1611SOL    HW2 5733   3.070   5.042   6.692 -0.4198  1.3773  0.1420
 1612SOL     OW 5734   5.082   0.476   1.474 -0.4488 -0.0840  0.0832
 1612SOL    HW1 5735   4.986   0.490   1.452 -0.2552  0.6188 -0.3667
 1612SOL    HW2 5736   5.129   0.565   1.475  0.2526 -0.4459  0.0031
 1613SOL     OW 5737   6.725   5.318   3.844  0.4601  0.4317 -0.0024
 1613SOL    HW1 5738   6.639   5.284   3.881  0.8381 -0.3279  0.2057
 1613SOL    HW2 5739   6.801   5.287   3.901  0.8580  1.3093 -0.0367
 1614SOL     OW 5740   5.498   2.293   5.270  0.1003  0.4913 -0.4708
 1614SOL    HW1 5741   5.511   2.215   5.331  0.5355 -0.6662 -1.9907
 1614SOL    HW2 5742   5.554   2.281   5.189 -2.3314  0.6892 -2.2895
 1615SOL     OW 5743   6.980   2.617   6.737  0.4163  0.7676 -0.4040
 1615SOL    HW1 5744   7.001   2.607   6.834 -0.1068 -0.5751 -0.4037
 1615SOL    HW2 5745   6.929   2.537   6.705 -3.0793  2.9661 -0.8524
 1616SOL     OW 5746   2.118   1.587   4.638 -0.4654 -0.2037  0.3039
 1616SOL    HW1 5747   2.164   1.534   4.568 -0.0316  1.0181 -0.3657
 1616SOL    HW2 5748   2.162   1.570   4.727 -0.7208 -1.3982  0.2093
 1617SOL     OW 5749   6.295   5.870   5.378  0.2087 -0.2587  0.0426
 1617SOL    HW1 5750   6.345   5.788   5.404 -0.0592 -0.8000 -1.0963
 1617SOL    HW2 5751   6.335   5.909   5.295 -0.6845 -0.1744 -0.3576
 1618SOL     OW 5752   3.584   5.997   2.485  0.1395  0.3482  0.2627
 1618SOL    HW1 5753   3.545   6.010   2.394 -0.8069 -0.7123  0.5035
 1618SOL    HW2 5754   3.678   6.033   2.485 -0.3976  1.8849 -0.6432
 1619SOL     OW 5755   3.743   5.739   6.800  0.2714  0.2970  0.1246
 1619SOL    HW1 5756   3.643   5.748   6.798  0.2185 -0.3038 -0.0325
 1619SOL    HW2 5757   3.779   5.751   6.707  0.5640  2.7379  0.4748
 1620SOL     OW 5758   3.160   1.511   4.559  0.0071  0.3435  0.3629
 1620SOL    HW1 5759   3.098   1.581   4.594 -2.3605 -1.7718  0.6858
 1620SOL    HW2 5760   3.217   1.477   4.634  0.3124  1.0639  0.4650
 1621SOL     OW 5761   5.519   4.515   1.154 -0.6367 -0.0138  0.0052
 1621SOL    HW1 5762   5.615   4.535   1.175 -0.5258 -0.3202 -0.2116
 1621SOL    HW2 5763   5.461   4.579   1.204 -0.3494 -0.3142  0.7343
 1622SOL     OW 5764   4.285   3.975   6.878  0.2606  0.2222 -0.0739
 1622SOL    HW1 5765   4.330   3.951   6.964 -0.5603 -2.5845 -0.3236
 1622SOL    HW2 5766   4.224   4.053   6.893  0.2533 -0.1051  1.8462
 1623SOL     OW 5767   0.850   1.183   4.287 -0.4281 -0.0950  0.0727
 1623SOL    HW1 5768   0.875   1.280   4.282  0.4380 -0.3247 -0.1230
 1623SOL    HW2 5769   0.817   1.161   4.378  0.9621  0.0120  0.6171
 1624SOL     OW 5770   4.395   3.426   1.311 -0.3198 -0.4662  0.5009
 1624SOL    HW1 5771   4.417   3.522   1.295  0.0074 -0.5034  0.7230
 1624SOL    HW2 5772   4.366   3.414   1.406  0.0542 -0.6598  0.5930
 1625SOL     OW 5773   6.743   6.097   1.161 -0.3648  0.8820 -0.1905
 1625SOL    HW1 5774   6.798   6.083   1.079  0.7365 -0.8079  0.7606
 1625SOL    HW2 5775   6.655   6.050   1.151 -1.0717  2.3696 -1.1541
 1626SOL     OW 5776   4.064   6.847   0.814 -0.8628 -0.3396  0.1370
 1626SOL    HW1 5777   4.162   6.845   0.792 -1.0918  0.5211 -1.0532
 1626SOL    HW2 5778   4.011   6.846   0.730 -1.9640 -2.5597  0.7883
 1627SOL     OW 5779   6.221   1.678   5.737  0.1303 -0.2089 -0.0453
 1627SOL    HW1 5780   6.197   1.774   5.722 -2.7755 -0.7030  0.7899
 1627SOL    HW2 5781   6.164   1.620   5.678  0.7145 -1.4771  0.5958
 1628SOL     OW 5782   5.150   3.164   0.774 -0.2886  0.2204  0.5182
 1628SOL    HW1 5783   5.073   3.219   0.805 -2.5579 -2.1757 -0.4736
 1628SOL    HW2 5784   5.208   3.140   0.852 -1.3916  0.8209  1.5548
 1629SOL     OW 5785   0.789   0.720   1.514 -0.2524  0.2230  0.1971
 1629SOL    HW1 5786   0.849   0.643   1.531  0.7187  0.8452 -0.3047
 1629SOL    HW2 5787   0.732   0.738   1.595 -2.4084 -2.6190 -0.5290
 1630SOL     OW 5788   6.932   4.520   5.306 -0.1323 -0.2857  0.5146
 1630SOL    HW1 5789   7.030   4.540   5.314  0.1150 -1.7254  1.4158
 1630SOL    HW2 5790   6.920   4.443   5.244 -0.7293  0.0603  0.1996
 1631SOL     OW 5791   4.099   4.931   6.510  0.0195  0.3423  0.3122
 1631SOL    HW1 5792   4.086   5.029   6.525  0.5032  0.9857 -2.7157
 1631SOL    HW2 5793   4.197   4.909   6.516 -0.2101 -0.2916  2.3718
 1632SOL     OW 5794   6.546   3.982   2.485  0.2973 -0.2894 -0.1261
 1632SOL    HW1 5795   6.472   3.917   2.467  0.5796 -0.3722 -1.0270
 1632SOL    HW2 5796   6.511   4.075   2.472  0.1636 -0.2974  0.1630
 1633SOL     OW 5797   6.709   6.662   5.539 -0.0399  1.0906 -0.4008
 1633SOL    HW1 5798   6.650   6.604   5.595 -0.5170  2.0789  0.1355
 1633SOL    HW2 5799   6.742   6.609   5.460 -0.4855  0.1054  0.0541
 1634SOL     OW 5800   2.248   4.646   0.070  0.1069  0.3429  0.2373
 1634SOL    HW1 5801   2.322   4.586   0.098 -0.4062 -1.2145 -1.5221
 1634SOL    HW2 5802   2.160   4.606   0.098 -0.3811 -0.9344 -2.7236
 1635SOL     OW 5803   3.998   1.724   6.034 -0.3566  0.2016  0.1580
 1635SOL    HW1 5804   3.907   1.760   6.057 -1.4095 -2.4271  0.3933
 1635SOL    HW2 5805   4.021   1.751   5.941 -0.8249  1.8652  0.4826
 1636SOL     OW 5806   6.774   3.538   2.407  0.2142  0.7967 -0.0983
 1636SOL    HW1 5807   6.863   3.551   2.366 -0.4978  3.1524 -1.0878
 1636SOL    HW2 5808   6.758   3.441   2.424  2.0915  0.1251 -1.8229
 1637SOL     OW 5809   0.177   1.872   3.089 -0.2616  0.3939 -0.4496
 1637SOL    HW1 5810   0.269   1.870   3.127 -0.3535 -0.0359 -0.2524
 1637SOL    HW2 5811   0.153   1.783   3.052  0.1250  0.9977 -2.2667
 1638SOL     OW 5812   0.154   1.975   2.655 -0.4335 -0.1970  0.4075
 1638SOL    HW1 5813   0.138   1.883   2.618 -2.1124  0.1478  0.1968
 1638SOL    HW2 5814   0.156   2.041   2.581 -0.5357  0.1017  0.6680
 1639SOL     OW 5815   5.661   2.460   2.037 -0.0721 -0.2751 -0.0645
 1639SOL    HW1 5816   5.698   2.369   2.054  1.5061  0.3839  0.2050
 1639SOL    HW2 5817   5.633   2.501   2.124 -0.0964 -0.2256 -0.0958
 1640SOL     OW 5818   6.836   0.340   4.292  0.3562  0.3754  0.4956
 1640SOL    HW1 5819   6.782   0.409   4.340  0.7901 -0.1354  1.7451
 1640SOL    HW2 5820   6.819   0.250   4.331 -1.5083 -0.5841 -2.1865
 1641SOL     OW 5821   6.666   1.297   0.925 -0.3797 -0.7106  0.2715
 1641SOL    HW1 5822   6.731   1.282   1.000  0.1757 -2.3511 -0.5058
 1641SOL    HW2 5823   6.604   1.219   0.918 -3.1448  1.2057  1.5951
 1642SOL     OW 5824   6.698   3.047   5.750 -0.0050  0.0385  0.4468
 1642SOL    HW1 5825   6.700   3.052   5.650  1.0518  0.0525  0.4543
 1642SOL    HW2 5826   6.780   3.090   5.787 -0.7659  0.7321  1.3670
 1643SOL     OW 5827   0.498   0.559   4.794 -0.1828  0.4280 -0.8931
 1643SOL    HW1 5828   0.581   0.545   4.740 -0.0310 -0.8127 -0.3628
 1643SOL    HW2 5829   0.420   0.522   4.744 -0.1419 -0.0731 -0.5978
 1644SOL     OW 5830   0.727   1.358   2.014 -0.3526  0.0361  0.4878
 1644SOL    HW1 5831   0.661   1.415   2.062  0.4351  1.5313 -0.1443
 1644SOL    HW2 5832   0.702   1.352   1.917  0.5469  0.7900  0.2030
 1645SOL     OW 5833   2.069   0.440   4.468 -0.4483 -0.9084  0.0443
 1645SOL    HW1 5834   2.161   0.466   4.498  0.3387 -3.2011 -0.1543
 1645SOL    HW2 5835   2.027   0.516   4.419  1.5047  0.0629 -0.2080
 1646SOL     OW 5836   6.644   4.502   1.926  0.2934 -0.2137  0.1220
 1646SOL    HW1 5837   6.724   4.555   1.954  0.5255 -0.5204  0.0426
 1646SOL    HW2 5838   6.623   4.521   1.830 -0.0819  0.3068  0.3018
 1647SOL     OW 5839   6.634   2.670   5.870  0.0695  0.1053 -0.0361
 1647SOL    HW1 5840   6.543   2.696   5.838  1.2900  3.3081 -1.3171
 1647SOL    HW2 5841   6.695   2.662   5.791  1.1367 -1.0781  0.8749
 1648SOL     OW 5842   5.169   5.293   2.295 -0.9345 -0.0307  0.0017
 1648SOL    HW1 5843   5.122   5.356   2.233 -1.5463 -2.1952 -1.8637
 1648SOL    HW2 5844   5.147   5.199   2.270  3.1397 -1.1835  0.0085
 1649SOL     OW 5845   4.127   2.267   3.303 -0.3284 -0.0282  0.6765
 1649SOL    HW1 5846   4.035   2.253   3.266 -0.2075 -0.6161  0.5825
 1649SOL    HW2 5847   4.122   2.279   3.402 -0.5571  0.4934  0.6034
 1650SOL     OW 5848   1.549   1.932   4.910 -0.0141  0.0695  0.7934
 1650SOL    HW1 5849   1.607   2.009   4.884  0.1292  0.8264  3.1352
 1650SOL    HW2 5850   1.478   1.919   4.841  1.7531  0.3194 -1.1750
 1651SOL     OW 5851   1.404   2.685   5.045 -0.6790 -0.3727 -0.0540
 1651SOL    HW1 5852   1.440   2.613   5.103 -1.8953 -1.4397 -0.5782
 1651SOL    HW2 5853   1.364   2.645   4.962  1.9508  1.1379 -2.2464
 1652SOL     OW 5854   6.468   4.172   2.033  0.1708 -0.1897 -0.5482
 1652SOL    HW1 5855   6.521   4.251   2.062 -0.6515  1.0909 -2.3525
 1652SOL    HW2 5856   6.416   4.136   2.110  0.9044  0.7329  0.4011
 1653SOL     OW 5857   5.245   3.771   2.511 -0.4195 -0.4038  0.5460
 1653SOL    HW1 5858   5.290   3.785   2.599 -0.5071  0.7469  0.4229
 1653SOL    HW2 5859   5.312   3.778   2.437 -0.1872 -2.2004  0.5315
 1654SOL     OW 5860   0.905   1.623   2.472  0.1261 -0.0796  0.2868
 1654SOL    HW1 5861   0.969   1.670   2.411 -0.8481  1.5945  0.5114
 1654SOL    HW2 5862   0.813   1.630   2.436 -0.2639 -0.3993  1.1919
 1655SOL     OW 5863   7.019   0.201   0.067  0.1888 -0.2499  0.0270
 1655SOL    HW1 5864   6.974   0.227   0.152  0.4347 -0.1072  0.1143
 1655SOL    HW2 5865   6.959   0.222  -0.010 -0.0992 -0.5266  0.1746
 1656SOL     OW 5866   2.312   4.660   2.684  0.2183  0.5946  0.3412
 1656SOL    HW1 5867   2.322   4.641   2.782 -2.3868 -0.1720  0.5402
 1656SOL    HW2 5868   2.402   4.680   2.645  1.6762 -1.3074  2.4218
 1657SOL     OW 5869   0.300   1.523   6.366  0.0575 -0.2288  0.1333
 1657SOL    HW1 5870   0.271   1.614   6.337 -0.3359  0.1310  1.5597
 1657SOL    HW2 5871   0.230   1.484   6.427  0.0844 -1.6170 -0.6913
 1658SOL     OW 5872   3.257   0.620   5.745  0.1084  0.1755 -0.2178
 1658SOL    HW1 5873   3.248   0.521   5.758  1.8606 -0.1099 -0.8256
 1658SOL    HW2 5874   3.354   0.643   5.735 -0.2100  2.0724  0.6639
 1659SOL     OW 5875   1.552   0.654   6.328  0.0556  0.2638 -0.4126
 1659SOL    HW1 5876   1.621   0.590   6.361 -0.6368  0.2613  1.0937
 1659SOL    HW2 5877   1.559   0.662   6.228  2.2843  0.3578 -0.2979
 1660SOL     OW 5878   4.558   0.041   1.535 -0.1962  0.0162 -0.2096
 1660SOL    HW1 5879   4.585  -0.024   1.606  2.5000 -0.1093 -1.2341
 1660SOL    HW2 5880   4.535  -0.009   1.452  0.1228  0.2933 -0.4650
 1661SOL     OW 5881   4.841   6.131   3.454 -0.1342  0.4413  0.1259
 1661SOL    HW1 5882   4.772   6.059   3.459 -0.0555  0.2890 -0.7555
 1661SOL    HW2 5883   4.899   6.128   3.535  0.2335 -0.8772 -0.1597
 1662SOL     OW 5884   2.006   1.584   2.766  0.0041 -0.3855 -0.5365
 1662SOL    HW1 5885   2.094   1.623   2.792 -0.5910 -0.3557  1.6787
 1662SOL    HW2 5886   2.011   1.547   2.674  2.8916 -2.0199  0.1633
 1663SOL     OW 5887   6.252   3.545   1.472 -0.5753 -0.1806  0.1169
 1663SOL    HW1 5888   6.283   3.639   1.458  0.8875 -0.4204  1.4928
 1663SOL    HW2 5889   6.232   3.531   1.569  0.0315 -1.5125  0.0631
 1664SOL     OW 5890   6.853   5.957   0.938  0.2367  0.3141 -0.2586
 1664SOL    HW1 5891   6.774   5.995   0.891  0.0011  0.6804  0.4158
 1664SOL    HW2 5892   6.937   5.985   0.892 -0.0561 -1.1658 -1.7696
 1665SOL     OW 5893   0.677   3.231   1.358  0.4514 -0.0479 -0.2098
 1665SOL    HW1 5894   0.649   3.309   1.302 -0.4119 -0.7996 -0.8566
 1665SOL    HW2 5895   0.627   3.232   1.444  1.5407  0.9264  0.4500
 1666SOL     OW 5896   5.898   4.722   6.847 -0.9520 -0.2743  0.5566
 1666SOL    HW1 5897   5.925   4.662   6.922 -1.0769  0.0571  0.8714
 1666SOL    HW2 5898   5.825   4.678   6.794 -2.8324  0.6024  2.2808
 1667SOL     OW 5899   5.660   3.620   0.519  0.2866  0.0100  0.3694
 1667SOL    HW1 5900   5.568   3.605   0.483 -0.0050  1.1813  0.5891
 1667SOL    HW2 5901   5.665   3.711   0.561  0.4888 -1.3505  3.6128
 1668SOL     OW 5902   6.381   3.344   6.231  0.6185  0.3093  0.2082
 1668SOL    HW1 5903   6.370   3.368   6.135  1.3327 -0.6385 -0.1253
 1668SOL    HW2 5904   6.364   3.424   6.288 -1.6761  0.4552 -0.5851
 1669SOL     OW 5905   0.005   2.252   0.266  0.7333 -0.2833 -0.6051
 1669SOL    HW1 5906   0.095   2.258   0.223  1.7115 -1.8895  1.0493
 1669SOL    HW2 5907   0.006   2.303   0.352  1.1184 -2.6760  0.9229
 1670SOL     OW 5908   1.716   5.657   4.649 -0.0286  0.0781 -0.0457
 1670SOL    HW1 5909   1.627   5.651   4.603 -0.6101 -1.1997  1.1850
 1670SOL    HW2 5910   1.747   5.752   4.649  0.0186  0.1749 -3.0580
 1671SOL     OW 5911   6.652   3.123   0.294 -0.3054  0.0107 -0.3327
 1671SOL    HW1 5912   6.589   3.098   0.367 -1.7764  1.3605 -1.0642
 1671SOL    HW2 5913   6.660   3.048   0.228  1.2164 -1.3081  1.2612
 1672SOL     OW 5914   6.772   2.324   1.878 -0.1287 -0.3760  0.1496
 1672SOL    HW1 5915   6.679   2.309   1.912 -0.4633  0.5205 -0.3300
 1672SOL    HW2 5916   6.777   2.413   1.833  0.8509 -0.6167 -0.2479
 1673SOL     OW 5917   0.514   1.045   0.728 -0.0745 -0.5663  0.0387
 1673SOL    HW1 5918   0.472   1.052   0.638 -0.7000 -0.9712  0.2902
 1673SOL    HW2 5919   0.573   1.125   0.744  1.6957 -1.4898 -1.5378
 1674SOL     OW 5920   4.726   1.973   1.862 -0.2478 -0.0924 -0.0997
 1674SOL    HW1 5921   4.702   2.069   1.877  3.0607  1.2742 -2.4286
 1674SOL    HW2 5922   4.719   1.952   1.764 -0.4307 -2.1070  0.3072
 1675SOL     OW 5923   4.787   6.228   1.607 -0.8455 -0.7510  0.4231
 1675SOL    HW1 5924   4.852   6.153   1.614 -1.2860 -1.1249  0.5155
 1675SOL    HW2 5925   4.718   6.207   1.538  0.1269  0.4025 -0.9481
 1676SOL     OW 5926   2.769   0.143   3.448 -0.3920 -0.2680  0.3117
 1676SOL    HW1 5927   2.698   0.159   3.516 -2.5455  1.0141 -2.0933
 1676SOL    HW2 5928   2.746   0.061   3.395  0.8967 -0.8453  0.5968
 1677SOL     OW 5929   3.792   4.145   1.694  0.5631 -0.0834 -0.2971
 1677SOL    HW1 5930   3.731   4.177   1.767 -1.1422 -0.8727 -1.3154
 1677SOL    HW2 5931   3.860   4.216   1.674  0.2530  0.6619  1.1469
 1678SOL     OW 5932   6.539   0.439   1.297  0.6192 -0.0578 -0.0756
 1678SOL    HW1 5933   6.610   0.464   1.363 -0.8620  1.1673  1.1386
 1678SOL    HW2 5934   6.454   0.420   1.346 -0.1070 -0.7318 -1.5392
 1679SOL     OW 5935   0.017   2.744   0.204  0.3156 -0.3572  1.0420
 1679SOL    HW1 5936  -0.012   2.825   0.255 -0.7793 -0.7264  1.0200
 1679SOL    HW2 5937  -0.018   2.662   0.248  0.3964 -0.7479  0.3887
 1680SOL     OW 5938   4.887   0.522   3.870  0.6020  0.2331  0.2685
 1680SOL    HW1 5939   4.883   0.581   3.951  0.4365  0.9275 -0.2403
 1680SOL    HW2 5940   4.897   0.578   3.788 -0.2089 -0.4133 -0.2841
 1681SOL     OW 5941   5.269   5.201   4.185  0.1865 -0.0101 -0.2747
 1681SOL    HW1 5942   5.197   5.143   4.222  1.9148 -0.7876  2.1575
 1681SOL    HW2 5943   5.304   5.161   4.100  0.1790 -1.6306  0.4459
 1682SOL     OW 5944   4.437   2.634   5.690 -0.3163  0.1645  0.3122
 1682SOL    HW1 5945   4.415   2.712   5.749 -2.2070  1.7885 -2.3128
 1682SOL    HW2 5946   4.525   2.650   5.645 -0.6871  0.8392 -0.2012
 1683SOL     OW 5947   2.992   5.736   3.101  0.3070 -0.4112 -0.1711
 1683SOL    HW1 5948   3.038   5.811   3.053  2.1321 -0.2087  1.7230
 1683SOL    HW2 5949   3.045   5.712   3.182 -3.1558  0.0907  2.4769
 1684SOL     OW 5950   1.746   5.260   1.214 -0.2425  0.6645 -0.2189
 1684SOL    HW1 5951   1.743   5.191   1.287  1.1420  0.6773 -0.1296
 1684SOL    HW2 5952   1.760   5.351   1.255 -1.4338  0.9353 -0.3796
 1685SOL     OW 5953   6.667   0.340   6.267  0.3722  0.6178  0.6653
 1685SOL    HW1 5954   6.712   0.426   6.244  1.5670 -0.1125  0.1784
 1685SOL    HW2 5955   6.568   0.352   6.263  0.5148  1.4242 -1.4559
 1686SOL     OW 5956   3.489   6.028   2.234  0.1048 -0.6348 -0.2010
 1686SOL    HW1 5957   3.575   6.002   2.191  1.5753  1.6634  1.1472
 1686SOL    HW2 5958   3.435   6.085   2.172  0.7236 -0.0079 -0.1689
 1687SOL     OW 5959   6.904   3.525   5.886 -0.2787 -0.1883 -0.4046
 1687SOL    HW1 5960   6.836   3.594   5.910 -0.1255  0.0735 -0.7153
 1687SOL    HW2 5961   6.909   3.456   5.958 -0.9801 -0.2902 -0.4432
 1688SOL     OW 5962   4.517   0.754   3.827 -0.1320  0.1199 -0.0643
 1688SOL    HW1 5963   4.489   0.675   3.881 -1.4453 -0.2672 -1.2337
 1688SOL    HW2 5964   4.577   0.813   3.881 -0.9979 -0.4838  1.6171
 1689SOL     OW 5965   5.761   0.489   1.295  0.2670  0.5657  0.2211
 1689SOL    HW1 5966   5.745   0.566   1.356 -0.0819 -0.5864  1.6276
 1689SOL    HW2 5967   5.805   0.415   1.345 -0.6228 -0.6638 -0.7355
 1690SOL     OW 5968   6.624   4.144   4.074  0.1975 -0.4502 -0.0083
 1690SOL    HW1 5969   6.609   4.091   4.157 -0.5974 -0.5022 -0.1736
 1690SOL    HW2 5970   6.722   4.157   4.059  0.3740  2.0611  2.5455
 1691SOL     OW 5971   4.954   0.733   4.802  0.2747  0.0366  0.3519
 1691SOL    HW1 5972   4.924   0.639   4.821 -1.6084  0.7647  1.1740
 1691SOL    HW2 5973   4.972   0.780   4.888 -0.4630  0.9369  0.0287
 1692SOL     OW 5974   0.486   4.995   1.734  0.3681 -0.1339  0.0641
 1692SOL    HW1 5975   0.480   5.091   1.705  1.8846 -0.3085 -0.9268
 1692SOL    HW2 5976   0.442   4.985   1.824 -1.9630  0.9844 -0.8722
 1693SOL     OW 5977   5.791   6.066   6.301  0.2940  0.3150  0.3687
 1693SOL    HW1 5978   5.705   6.026   6.333  0.8312 -0.8109  0.4492
 1693SOL    HW2 5979   5.773   6.128   6.224 -0.6416  0.5310  0.7549
 1694SOL     OW 5980   2.382   0.762   5.990 -0.3163 -0.0382  0.6197
 1694SOL    HW1 5981   2.461   0.798   5.940 -0.4155  0.5723  0.8901
 1694SOL    HW2 5982   2.320   0.718   5.926 -1.1954  2.0949 -0.0720
 1695SOL     OW 5983   3.969   0.693   5.012  0.1297  0.2796  0.6795
 1695SOL    HW1 5984   4.008   0.636   4.940 -1.7018 -1.5892  1.0623
 1695SOL    HW2 5985   4.027   0.690   5.094  1.2323  0.8951 -0.0508
 1696SOL     OW 5986   5.390   5.504   0.576 -0.0246  0.1751  0.2463
 1696SOL    HW1 5987   5.447   5.584   0.555  0.2384 -0.8776 -3.7340
 1696SOL    HW2 5988   5.303   5.511   0.527 -0.8657 -1.0641  1.4787
 1697SOL     OW 5989   3.643   3.918   1.625  0.0773 -0.1779 -0.3731
 1697SOL    HW1 5990   3.692   3.861   1.691 -1.3494  0.0513  0.9616
 1697SOL    HW2 5991   3.660   4.014   1.645 -0.2159 -0.1093 -0.4410
 1698SOL     OW 5992   4.591   3.931   1.101  0.4646 -0.4446  0.7730
 1698SOL    HW1 5993   4.519   4.000   1.113 -1.5249 -2.0310 -1.2399
 1698SOL    HW2 5994   4.676   3.976   1.072 -0.8351  1.1582 -0.7338
 1699SOL     OW 5995   1.060   0.063   0.519  0.0859 -1.3439  0.0694
 1699SOL    HW1 5996   1.032   0.012   0.601  0.6675 -0.7770  0.6300
 1699SOL    HW2 5997   1.081  -0.001   0.445 -3.0274 -1.8460 -0.5473
 1700SOL     OW 5998   5.555   5.074   4.693  0.0364  0.1332 -0.3256
 1700SOL    HW1 5999   5.492   5.035   4.760 -2.7033  2.0675 -1.5387
 1700SOL    HW2 6000   5.522   5.053   4.601  0.4385  2.2185 -1.0003
 1701SOL     OW 6001   0.251   6.522   5.050  0.0444 -0.1934  0.2989
 1701SOL    HW1 6002   0.304   6.588   5.103 -2.1159  1.0325  1.0386
 1701SOL    HW2 6003   0.269   6.534   4.952  0.4128  0.8277  0.4899
 1702SOL     OW 6004   2.841   2.827   1.085 -0.4817  0.9257 -0.0789
 1702SOL    HW1 6005   2.938   2.807   1.078 -1.0669 -1.6978 -2.4742
 1702SOL    HW2 6006   2.820   2.909   1.031  0.0844  0.1113 -1.5839
 1703SOL     OW 6007   1.400   1.011   2.185  0.2326  0.4213 -0.1293
 1703SOL    HW1 6008   1.466   0.978   2.253  1.2227  1.6086 -0.4766
 1703SOL    HW2 6009   1.319   1.047   2.231  0.6351  0.6738  0.3872
 1704SOL     OW 6010   3.048   3.160   6.559  0.8002  0.0834 -0.1281
 1704SOL    HW1 6011   3.118   3.194   6.497  0.8427 -0.4779 -0.3997
 1704SOL    HW2 6012   3.059   3.061   6.570  0.4318  0.0883  0.3141
 1705SOL     OW 6013   6.004   2.763   0.331  0.5573  0.0814  0.4923
 1705SOL    HW1 6014   6.063   2.687   0.357  0.3528 -1.0168 -1.9760
 1705SOL    HW2 6015   6.002   2.831   0.405  2.6735 -1.1369  1.7601
 1706SOL     OW 6016   5.924   0.393   7.013 -0.2501  0.3970 -0.5304
 1706SOL    HW1 6017   5.944   0.475   6.960 -2.6721  1.7416  0.4832
 1706SOL    HW2 6018   5.848   0.411   7.075  1.3912 -1.5552  2.3134
 1707SOL     OW 6019   3.249   1.648   4.088 -0.7033  0.1783  0.2223
 1707SOL    HW1 6020   3.254   1.593   4.171 -1.6765 -0.5003 -0.1422
 1707SOL    HW2 6021   3.326   1.711   4.085  0.2296 -0.8839  0.8626
 1708SOL     OW 6022   3.004   4.901   1.125  0.4501 -0.8718  0.0373
 1708SOL    HW1 6023   2.933   4.956   1.171 -0.0606 -0.9000 -0.6932
 1708SOL    HW2 6024   3.067   4.865   1.193  0.7992  0.6198  0.5515
 1709SOL     OW 6025   6.088   4.871   1.638  0.3126 -0.6481  0.0031
 1709SOL    HW1 6026   6.004   4.903   1.681  1.9433 -0.3612  3.2686
 1709SOL    HW2 6027   6.094   4.909   1.545 -2.3293  0.6595  0.2697
 1710SOL     OW 6028   5.948   2.854   0.599  0.6859 -0.3518 -0.3834
 1710SOL    HW1 6029   5.961   2.936   0.654  1.0838 -0.0045 -0.9760
 1710SOL    HW2 6030   5.894   2.787   0.649 -2.5810  1.5425 -1.1023
 1711SOL     OW 6031   5.309   5.057   0.401  0.1284 -0.8147  0.0834
 1711SOL    HW1 6032   5.393   5.006   0.383  0.3685  0.0392 -1.3621
 1711SOL    HW2 6033   5.330   5.154   0.412 -0.7439 -0.4552 -1.1730
 1712SOL     OW 6034   1.266   2.463   1.995 -0.0639  0.3709 -0.2112
 1712SOL    HW1 6035   1.184   2.510   1.963 -0.0843  1.6068  1.5357
 1712SOL    HW2 6036   1.326   2.528   2.042  1.2394 -0.8045 -0.1732
 1713SOL     OW 6037   2.767   6.847   2.688  0.1861  0.1700 -0.0670
 1713SOL    HW1 6038   2.860   6.877   2.711  0.8344 -2.9409  2.0158
 1713SOL    HW2 6039   2.772   6.760   2.639 -1.6258 -0.5307  0.9130
 1714SOL     OW 6040   4.102   4.984   0.307  0.3280  0.0508  0.1456
 1714SOL    HW1 6041   4.112   4.975   0.208  1.9514  0.4240  0.2587
 1714SOL    HW2 6042   4.132   4.900   0.352  0.5293  0.2421  0.3735
 1715SOL     OW 6043   1.211   5.018   6.855  0.2777  0.0181  0.2617
 1715SOL    HW1 6044   1.265   5.057   6.781  2.7628 -1.5920  1.1109
 1715SOL    HW2 6045   1.270   4.998   6.933 -1.9555  0.0730  2.0603
 1716SOL     OW 6046   0.175   3.513   1.228  0.3781  0.4404  0.2163
 1716SOL    HW1 6047   0.164   3.561   1.142  0.2970  0.3939  0.2001
 1716SOL    HW2 6048   0.240   3.562   1.286  0.2333  0.6138  0.2331
 1717SOL     OW 6049   2.453   5.471   4.745 -0.4314 -0.0800 -0.1553
 1717SOL    HW1 6050   2.396   5.527   4.685 -0.7888  0.3530  0.5736
 1717SOL    HW2 6051   2.457   5.378   4.710  1.1525  0.6366 -2.0546
 1718SOL     OW 6052   0.135   4.272   2.194  0.7268 -0.0646  0.3557
 1718SOL    HW1 6053   0.073   4.275   2.272  2.7567 -0.5248  2.0670
 1718SOL    HW2 6054   0.126   4.357   2.141 -1.8950 -0.4524  0.0155
 1719SOL     OW 6055   1.318   5.532   2.793  0.2551  0.3103 -0.2899
 1719SOL    HW1 6056   1.418   5.524   2.804  0.2571  0.9522  0.2464
 1719SOL    HW2 6057   1.278   5.441   2.788  0.6248 -0.0182  1.8269
 1720SOL     OW 6058   1.920   2.007   3.826  0.1848 -0.3214  0.1849
 1720SOL    HW1 6059   1.826   2.039   3.838  0.0924 -0.1228 -0.9820
 1720SOL    HW2 6060   1.930   1.919   3.871 -1.0646 -1.1837 -1.1164
 1721SOL     OW 6061   2.629   3.435   5.956  0.2809 -0.4942 -0.0970
 1721SOL    HW1 6062   2.645   3.339   5.934  0.3925 -0.6137  0.4825
 1721SOL    HW2 6063   2.690   3.492   5.902  0.6916 -0.7912  0.0444
 1722SOL     OW 6064   3.459   1.790   4.086 -0.2993 -0.3062 -0.0371
 1722SOL    HW1 6065   3.437   1.887   4.078 -0.8756 -0.0926  3.0038
 1722SOL    HW2 6066   3.552   1.780   4.121 -0.0454 -0.9094 -0.8362
 1723SOL     OW 6067   5.962   6.776   1.785 -0.2088 -0.0846  0.0514
 1723SOL    HW1 6068   6.021   6.726   1.849 -0.2128  1.1055  1.0122
 1723SOL    HW2 6069   5.866   6.751   1.802 -0.1357 -0.5420 -0.1920
 1724SOL     OW 6070   5.360   2.651   0.721  0.5962  0.1811 -0.3492
 1724SOL    HW1 6071   5.283   2.587   0.717  2.1391 -1.7544 -0.6061
 1724SOL    HW2 6072   5.378   2.675   0.817  1.5069 -1.7732  0.0219
 1725SOL     OW 6073   0.783   6.654   5.220 -0.3725  0.6545  0.0993
 1725SOL    HW1 6074   0.846   6.700   5.157 -0.2112 -1.1166 -1.1314
 1725SOL    HW2 6075   0.698   6.706   5.227 -1.1061  0.0803 -3.0476
 1726SOL     OW 6076   0.046   6.134   4.959 -0.0355 -0.1280 -0.1876
 1726SOL    HW1 6077   0.052   6.148   4.860 -0.1354 -0.1621 -0.1988
 1726SOL    HW2 6078   0.129   6.088   4.991  1.0013  1.8183  0.0886
 1727SOL     OW 6079   3.921   3.228   3.294  0.3339 -0.6097  0.1122
 1727SOL    HW1 6080   3.931   3.132   3.323 -0.8748 -1.3195 -1.6425
 1727SOL    HW2 6081   3.872   3.279   3.364  0.3684 -1.4455  0.7625
 1728SOL     OW 6082   5.298   0.863   5.290 -0.0021 -0.1015  0.2159
 1728SOL    HW1 6083   5.246   0.931   5.238  0.2522  1.5803  2.0567
 1728SOL    HW2 6084   5.395   0.870   5.266 -0.3201 -2.3771 -2.2675
 1729SOL     OW 6085   2.040   4.434   3.083  0.2031 -0.0224 -0.3182
 1729SOL    HW1 6086   1.964   4.497   3.100  0.1715 -0.0637 -0.3070
 1729SOL    HW2 6087   2.029   4.353   3.140  1.3325  0.8566  1.2407
 1730SOL     OW 6088   4.606   1.344   3.621  0.1711  0.3647  0.3412
 1730SOL    HW1 6089   4.610   1.444   3.612 -0.6677  0.5081  1.4095
 1730SOL    HW2 6090   4.615   1.319   3.718 -3.4159 -0.3407  0.6178
 1731SOL     OW 6091   0.057   3.507   1.697 -0.0867 -0.2024 -0.1127
 1731SOL    HW1 6092   0.123   3.582   1.686 -1.9713  1.7190  0.9009
 1731SOL    HW2 6093   0.055   3.452   1.614  1.1346  1.0875 -1.0397
 1732SOL     OW 6094   4.946   3.545   5.294  0.0535 -0.3676 -0.3264
 1732SOL    HW1 6095   4.853   3.550   5.258 -0.5489 -0.4863  1.1250
 1732SOL    HW2 6096   5.011   3.577   5.225 -1.0096 -0.7802 -1.5470
 1733SOL     OW 6097   1.976   2.721   1.016  0.0600 -0.1015 -0.3645
 1733SOL    HW1 6098   2.069   2.696   0.988  0.7403 -0.8111  2.2914
 1733SOL    HW2 6099   1.955   2.813   0.983  1.9105  0.2957 -0.5555
 1734SOL     OW 6100   1.772   4.530   2.267 -0.0267  0.0211 -0.0591
 1734SOL    HW1 6101   1.756   4.509   2.363  0.8308  1.5210  0.4420
 1734SOL    HW2 6102   1.738   4.622   2.246  0.2585 -0.0860 -1.0682
 1735SOL     OW 6103   4.791   0.552   6.197 -0.1221  0.2787 -0.3948
 1735SOL    HW1 6104   4.881   0.595   6.201  0.1883 -0.2449 -1.3173
 1735SOL    HW2 6105   4.784   0.496   6.113  0.1812 -2.9023  1.5334
 1736SOL     OW 6106   4.960   0.818   4.549  0.1217 -0.0646 -0.0283
 1736SOL    HW1 6107   4.991   0.782   4.637  0.0114  0.4918  0.2486
 1736SOL    HW2 6108   4.956   0.918   4.554  0.4944 -0.0043 -0.7943
 1737SOL     OW 6109   3.253   6.901   6.716 -0.3092 -0.0387 -0.2832
 1737SOL    HW1 6110   3.312   6.892   6.635 -1.6981 -2.5342 -1.1235
 1737SOL    HW2 6111   3.158   6.889   6.689 -1.2533  3.1170  1.1774
 1738SOL     OW 6112   0.767   3.444   2.928  0.3343  0.2545 -0.2068
 1738SOL    HW1 6113   0.745   3.514   2.996  0.4716 -0.0841  0.1863
 1738SOL    HW2 6114   0.749   3.480   2.836 -3.4257 -0.5063  0.0790
 1739SOL     OW 6115   2.192   5.977   2.957  0.1974 -0.3327  0.5227
 1739SOL    HW1 6116   2.261   5.930   2.902  0.2977 -0.7741  1.0242
 1739SOL    HW2 6117   2.128   5.911   2.995 -1.1410  0.1514 -0.7739
 1740SOL     OW 6118   1.823   2.399   3.653  0.2868 -0.3503 -0.0907
 1740SOL    HW1 6119   1.902   2.433   3.603  0.8372  1.8951  2.1035
 1740SOL    HW2 6120   1.776   2.330   3.598  1.8982  0.5595 -2.8051
 1741SOL     OW 6121   0.642   0.834   4.302 -0.0888 -0.4936 -0.2657
 1741SOL    HW1 6122   0.731   0.870   4.328  0.3440 -1.2569 -0.6764
 1741SOL    HW2 6123   0.571   0.880   4.356  0.6859 -1.2539  1.4708
 1742SOL     OW 6124   6.523   6.955   0.879  0.0170  0.1882 -0.5506
 1742SOL    HW1 6125   6.613   6.998   0.872  0.3833 -0.5354 -0.3695
 1742SOL    HW2 6126   6.533   6.856   0.872 -0.4179 -0.1429  2.3438
 1743SOL     OW 6127   1.842   1.834   2.485 -0.5887 -0.2292  0.5173
 1743SOL    HW1 6128   1.807   1.837   2.391 -0.6577 -2.5570  0.4119
 1743SOL    HW2 6129   1.929   1.883   2.489  0.3847 -1.6920 -1.2586
 1744SOL     OW 6130   2.535   1.780   5.593 -0.0055  0.3245  0.1342
 1744SOL    HW1 6131   2.604   1.825   5.649 -2.9132  1.7257  2.9088
 1744SOL    HW2 6132   2.563   1.686   5.574  3.4370  1.3588 -0.5783
 1745SOL     OW 6133   4.445   1.325   0.731 -0.8915  0.0951 -0.1086
 1745SOL    HW1 6134   4.431   1.275   0.646 -1.0204 -0.7219  0.3835
 1745SOL    HW2 6135   4.406   1.416   0.723 -0.8835  0.0317 -0.9274
 1746SOL     OW 6136   3.677   0.294   2.625 -0.7284 -0.5112  0.0129
 1746SOL    HW1 6137   3.667   0.272   2.723  1.8632 -1.2476  0.1773
 1746SOL    HW2 6138   3.707   0.388   2.616  0.9871 -1.0283  0.0779
 1747SOL     OW 6139   2.991   1.195   3.276 -0.3796  0.4690  0.6183
 1747SOL    HW1 6140   2.906   1.246   3.286 -0.4340  0.3192  0.9305
 1747SOL    HW2 6141   2.969   1.100   3.251 -0.2585  0.7733 -0.7261
 1748SOL     OW 6142   6.009   1.393   4.338 -0.6342 -0.5110  0.3476
 1748SOL    HW1 6143   5.953   1.475   4.353 -1.7684 -1.0103 -0.9713
 1748SOL    HW2 6144   6.040   1.391   4.243  1.3177 -0.4688  0.9367
 1749SOL     OW 6145   0.212   5.126   3.626  0.0692  0.3682  0.3598
 1749SOL    HW1 6146   0.177   5.201   3.682 -0.0746  0.6409 -0.0904
 1749SOL    HW2 6147   0.229   5.047   3.685 -1.8043  0.0446  0.5455
 1750SOL     OW 6148   2.232   2.697   6.726 -0.3524  0.2478  0.1538
 1750SOL    HW1 6149   2.247   2.791   6.757 -1.2522  0.4885 -0.1096
 1750SOL    HW2 6150   2.215   2.639   6.806 -2.6251  0.8603  0.1761
 1751SOL     OW 6151   6.552   4.370   3.178  0.1531 -0.4385  0.1372
 1751SOL    HW1 6152   6.564   4.469   3.169  2.6427 -0.6099  0.6861
 1751SOL    HW2 6153   6.640   4.325   3.161 -0.7190 -2.4963  0.8277
 1752SOL     OW 6154   5.470   0.558   3.406  0.0206 -0.1950  1.0267
 1752SOL    HW1 6155   5.559   0.598   3.384  0.9811 -2.9189 -0.5649
 1752SOL    HW2 6156   5.401   0.592   3.342  0.7089 -0.6286  0.0192
 1753SOL     OW 6157   5.380   1.042   1.680 -0.0971 -0.1092  0.9326
 1753SOL    HW1 6158   5.460   1.061   1.624 -0.4736  0.8405  0.6980
 1753SOL    HW2 6159   5.300   1.089   1.641 -0.6154 -0.4369  1.5770
 1754SOL     OW 6160   6.932   5.710   3.523  0.0937 -0.0683 -0.1701
 1754SOL    HW1 6161   6.883   5.778   3.577 -0.3473 -0.0868 -0.5392
 1754SOL    HW2 6162   6.996   5.661   3.581 -1.5243 -1.2061  0.7374
 1755SOL     OW 6163   4.444   1.334   6.651  0.0285 -0.3472 -0.0967
 1755SOL    HW1 6164   4.520   1.335   6.717 -0.9699  3.0172  1.2138
 1755SOL    HW2 6165   4.472   1.382   6.568 -0.3867  0.1493  0.0471
 1756SOL     OW 6166   6.720   4.912   1.546  0.3824  0.3259 -0.1516
 1756SOL    HW1 6167   6.794   4.900   1.612  1.0278 -1.0039 -1.0742
 1756SOL    HW2 6168   6.734   4.850   1.469 -1.2075  0.7106 -0.7848
 1757SOL     OW 6169   2.686   5.795   5.278 -0.6101  0.6530 -0.3504
 1757SOL    HW1 6170   2.589   5.786   5.301 -0.2433 -0.2747  0.9916
 1757SOL    HW2 6171   2.696   5.827   5.184 -2.2203 -0.5016 -0.9619
 1758SOL     OW 6172   6.897   6.747   4.421  0.2891  0.4576  0.2088
 1758SOL    HW1 6173   6.828   6.679   4.446  0.0509  0.8242  0.5642
 1758SOL    HW2 6174   6.943   6.780   4.503  0.1580  0.9827  0.0754
 1759SOL     OW 6175   1.111   6.297   6.634 -0.1448 -0.2733 -0.1045
 1759SOL    HW1 6176   1.076   6.223   6.577  1.4234 -2.4314  1.5516
 1759SOL    HW2 6177   1.050   6.375   6.629 -2.6105 -2.1390 -0.9325
 1760SOL     OW 6178   6.468   1.717   5.181 -0.0006 -0.4388 -0.0726
 1760SOL    HW1 6179   6.466   1.664   5.266  1.8854  0.6478  0.7242
 1760SOL    HW2 6180   6.522   1.800   5.195 -0.8719  0.5033 -1.9529
 1761SOL     OW 6181   6.873   3.433   4.058 -0.1271  0.6200 -0.5936
 1761SOL    HW1 6182   6.779   3.446   4.027  0.0186  1.2374 -0.7763
 1761SOL    HW2 6183   6.873   3.374   4.140 -0.8144  1.8554  0.3287
 1762SOL     OW 6184   1.065   0.753   5.584  0.0195  0.0827  0.1756
 1762SOL    HW1 6185   0.986   0.810   5.608 -2.1646 -2.9625  0.9073
 1762SOL    HW2 6186   1.057   0.725   5.488 -0.6861 -1.3854  0.6259
 1763SOL     OW 6187   1.315   3.531   3.753 -0.0908  0.5809 -1.2869
 1763SOL    HW1 6188   1.249   3.601   3.780  0.1749  0.0990  0.7638
 1763SOL    HW2 6189   1.301   3.507   3.657 -1.4894  1.9898 -1.4691
 1764SOL     OW 6190   1.590   6.212   2.341 -0.6060 -0.4097 -0.0565
 1764SOL    HW1 6191   1.539   6.131   2.313 -1.5091 -0.1750  0.8639
 1764SOL    HW2 6192   1.677   6.185   2.383 -0.9967 -0.9179  0.4318
 1765SOL     OW 6193   6.778   4.803   4.166  0.7843 -0.0117 -0.1920
 1765SOL    HW1 6194   6.795   4.898   4.141  0.2531 -0.0990 -0.9014
 1765SOL    HW2 6195   6.830   4.742   4.106  0.3011 -0.1938 -0.4351
 1766SOL     OW 6196   4.101   5.425   4.875  0.5757  0.1907 -0.8224
 1766SOL    HW1 6197   4.004   5.406   4.890  0.2948  1.0043 -1.4617
 1766SOL    HW2 6198   4.124   5.405   4.779  0.3375  2.5184 -1.4508
 1767SOL     OW 6199   3.650   4.878   0.303 -0.2608  0.4592  0.0377
 1767SOL    HW1 6200   3.569   4.896   0.359  0.3640  1.3080  0.7116
 1767SOL    HW2 6201   3.731   4.914   0.350  0.4115  0.2764 -0.9510
 1768SOL     OW 6202   4.229   5.044   1.954 -0.7541  0.0014 -0.2635
 1768SOL    HW1 6203   4.254   4.948   1.942 -0.7169 -0.2101  1.3198
 1768SOL    HW2 6204   4.152   5.051   2.017 -0.7698  1.0237 -0.3737
 1769SOL     OW 6205   4.456   0.964   6.808  0.0075 -0.2154  0.0409
 1769SOL    HW1 6206   4.385   0.896   6.826 -0.2686  0.0788  0.0657
 1769SOL    HW2 6207   4.424   1.028   6.738  0.0800  0.1709  0.3548
 1770SOL     OW 6208   0.956   4.291   2.311 -0.2151  0.2750 -0.3327
 1770SOL    HW1 6209   0.967   4.271   2.409  0.5368  1.7168 -0.0919
 1770SOL    HW2 6210   0.998   4.218   2.258 -0.2472 -0.3151  0.4320
 1771SOL     OW 6211   0.950   2.786   6.146 -0.1691  0.1189 -0.6842
 1771SOL    HW1 6212   0.953   2.688   6.127 -0.0963  0.2564 -1.4081
 1771SOL    HW2 6213   1.026   2.831   6.101  1.1038  0.2279  1.4523
 1772SOL     OW 6214   2.887   3.964   0.196 -0.2101  0.1607  0.2480
 1772SOL    HW1 6215   2.944   3.887   0.169  1.2654  1.0632  0.6356
 1772SOL    HW2 6216   2.795   3.932   0.220  0.0167 -1.2913 -0.7511
 1773SOL     OW 6217   2.900   4.773   4.343 -0.0878  0.4033 -0.6168
 1773SOL    HW1 6218   2.970   4.784   4.413  1.4154 -2.7809 -1.4387
 1773SOL    HW2 6219   2.924   4.829   4.263  1.0195  0.0647 -0.5381
 1774SOL     OW 6220   0.836   2.884   2.034  0.5049  0.4518 -0.1472
 1774SOL    HW1 6221   0.930   2.916   2.028  0.3567  1.0263  0.5267
 1774SOL    HW2 6222   0.794   2.917   2.118 -0.7443  1.3829 -1.1001
 1775SOL     OW 6223   1.637   1.691   6.239  0.1308 -0.1399  0.0556
 1775SOL    HW1 6224   1.647   1.595   6.216  1.1952 -0.0495  0.1060
 1775SOL    HW2 6225   1.622   1.700   6.338  0.4995 -0.2336  0.1226
 1776SOL     OW 6226   5.071   2.762   5.098 -0.8017 -0.3636  0.6882
 1776SOL    HW1 6227   5.053   2.860   5.106  1.4811  0.0102  2.4189
 1776SOL    HW2 6228   5.127   2.745   5.017 -1.9069 -0.3930 -0.0902
 1777SOL     OW 6229   4.365   5.619   6.633  0.0034 -0.3839  0.3358
 1777SOL    HW1 6230   4.414   5.535   6.653  2.3096  1.1839  1.8086
 1777SOL    HW2 6231   4.306   5.643   6.710 -2.5918 -1.7953 -1.0676
 1778SOL     OW 6232   6.658   1.473   5.116 -0.3814  0.3748  0.3451
 1778SOL    HW1 6233   6.651   1.387   5.166 -2.1707  0.6262  0.5842
 1778SOL    HW2 6234   6.575   1.487   5.062  0.0441  1.7833  0.0153
 1779SOL     OW 6235   5.829   6.755   4.662 -0.4368  0.0335  0.4236
 1779SOL    HW1 6236   5.897   6.717   4.724  1.3739 -0.0985 -1.5187
 1779SOL    HW2 6237   5.821   6.854   4.677 -0.6533 -0.1217  1.3908
 1780SOL     OW 6238   2.575   0.919   5.070 -0.6299 -0.0979  0.2363
 1780SOL    HW1 6239   2.609   0.832   5.104 -2.0556 -0.4657  0.8041
 1780SOL    HW2 6240   2.638   0.955   5.002  0.1473 -1.4079  0.2257
 1781SOL     OW 6241   5.534   1.709   4.291 -0.1385  0.2532  0.1518
 1781SOL    HW1 6242   5.440   1.721   4.260 -0.5962 -1.1586  0.8930
 1781SOL    HW2 6243   5.590   1.676   4.215 -0.8461 -1.4213  0.3194
 1782SOL     OW 6244   0.135   1.635   2.942 -0.0175  0.3625 -0.5725
 1782SOL    HW1 6245   0.210   1.668   2.885  0.4900  0.3748  0.1002
 1782SOL    HW2 6246   0.086   1.562   2.894  1.4736 -0.8375 -0.3176
 1783SOL     OW 6247   1.816   2.787   1.282  0.4870 -0.9033  0.0730
 1783SOL    HW1 6248   1.877   2.763   1.206  1.9623 -1.1801  1.3065
 1783SOL    HW2 6249   1.822   2.716   1.353  0.4311  0.2025  1.2086
 1784SOL     OW 6250   0.634   0.715   2.208  0.3547 -0.1609  0.2164
 1784SOL    HW1 6251   0.689   0.650   2.260  0.9362 -0.2140 -0.4544
 1784SOL    HW2 6252   0.566   0.756   2.268 -1.8550 -3.3279  0.1583
 1785SOL     OW 6253   1.483   5.114   0.339  0.4578  0.0398 -0.5698
 1785SOL    HW1 6254   1.546   5.177   0.385 -0.0393 -0.3552  0.7141
 1785SOL    HW2 6255   1.391   5.154   0.337 -0.2581 -1.2718  1.8304
 1786SOL     OW 6256   1.132   4.764   4.055 -0.1898 -0.1903  0.2873
 1786SOL    HW1 6257   1.231   4.752   4.051 -0.1974 -1.3546  2.2114
 1786SOL    HW2 6258   1.087   4.680   4.025 -0.5375 -0.1724  0.7369
 1787SOL     OW 6259   3.054   1.470   6.423  0.2486  0.2424  0.1028
 1787SOL    HW1 6260   3.018   1.451   6.332 -0.6952  0.0285  0.5041
 1787SOL    HW2 6261   3.082   1.385   6.467 -0.7481  0.1381  0.5832
 1788SOL     OW 6262   4.914   3.704   6.789  0.1492 -0.3133  0.3112
 1788SOL    HW1 6263   4.963   3.787   6.811 -1.5436  0.7369  0.3203
 1788SOL    HW2 6264   4.827   3.702   6.838 -0.7777 -1.0639 -1.2725
 1789SOL     OW 6265   1.114   4.106   2.204  0.1065  0.0072 -0.2419
 1789SOL    HW1 6266   1.098   4.058   2.118 -0.3110 -1.0055  0.3844
 1789SOL    HW2 6267   1.180   4.179   2.189  0.6456 -0.6590 -1.2651
 1790SOL     OW 6268   2.499   2.322   5.457 -0.1178  0.5966  0.3229
 1790SOL    HW1 6269   2.563   2.313   5.534  0.7041  2.5108 -0.0941
 1790SOL    HW2 6270   2.447   2.237   5.448  2.1523 -0.9584  0.8527
 1791SOL     OW 6271   5.891   1.649   2.789  0.4373  0.7995  0.6801
 1791SOL    HW1 6272   5.850   1.639   2.699  1.6371  0.3180  0.1586
 1791SOL    HW2 6273   5.830   1.703   2.848  0.1439  2.1450 -0.7690
 1792SOL     OW 6274   0.612   1.288   0.736  0.0063 -0.5092  0.2501
 1792SOL    HW1 6275   0.604   1.379   0.697 -0.6139 -0.6939 -0.0848
 1792SOL    HW2 6276   0.577   1.288   0.830  2.1172  0.0832  1.0872
 1793SOL     OW 6277   2.615   2.480   4.459 -0.1164 -0.4467 -0.4904
 1793SOL    HW1 6278   2.539   2.417   4.446 -1.4253  1.1926 -1.1635
 1793SOL    HW2 6279   2.595   2.541   4.536  0.0386  0.6259 -1.2697
 1794SOL     OW 6280   0.555   1.641   1.347  0.0133  0.0255  0.2969
 1794SOL    HW1 6281   0.500   1.565   1.311 -0.5243 -0.6630  2.4299
 1794SOL    HW2 6282   0.512   1.727   1.321  0.2596 -0.3665 -1.5860
 1795SOL     OW 6283   5.632   2.700   0.265 -0.5106  0.4977 -0.5244
 1795SOL    HW1 6284   5.640   2.781   0.323 -2.9446  0.1424  0.4196
 1795SOL    HW2 6285   5.626   2.728   0.169 -0.2903  1.3602 -0.2976
 1796SOL     OW 6286   5.850   5.500   0.863  0.1990  0.1000  0.2165
 1796SOL    HW1 6287   5.815   5.586   0.826  1.8431  0.7504  0.0890
 1796SOL    HW2 6288   5.782   5.427   0.849 -1.2539  1.3727  0.4046
 1797SOL     OW 6289   2.125   6.148   3.687 -0.7119  0.0436 -0.0471
 1797SOL    HW1 6290   2.212   6.197   3.679  0.1746 -1.7077 -1.8442
 1797SOL    HW2 6291   2.090   6.127   3.596 -2.8631  0.3750  0.6456
 1798SOL     OW 6292   4.464   5.382   6.736 -0.3953  0.1814 -0.3841
 1798SOL    HW1 6293   4.530   5.319   6.694  1.3422  1.1541  0.7942
 1798SOL    HW2 6294   4.387   5.329   6.772 -0.5617 -0.9360 -2.2463
 1799SOL     OW 6295   0.816   0.566   2.686 -0.1481  0.2364  0.9456
 1799SOL    HW1 6296   0.771   0.487   2.645  0.1101  0.4153  0.3059
 1799SOL    HW2 6297   0.900   0.587   2.635 -0.4849  1.2403  0.7736
 1800SOL     OW 6298   5.789   3.444   5.884 -0.5826  0.1260  0.6349
 1800SOL    HW1 6299   5.770   3.532   5.841  1.8475 -0.0275 -0.9329
 1800SOL    HW2 6300   5.730   3.432   5.964 -1.9637  2.5098  0.0567
 1801SOL     OW 6301   2.960   1.042   2.669  0.1851 -0.4428 -0.2516
 1801SOL    HW1 6302   2.972   1.049   2.768 -0.8609 -1.3625 -0.0415
 1801SOL    HW2 6303   2.954   1.133   2.629  1.1523 -0.0584  0.4560
 1802SOL     OW 6304   4.308   4.658   5.329  0.2088 -0.2972 -0.2756
 1802SOL    HW1 6305   4.236   4.668   5.397 -1.9318 -2.2086 -2.1027
 1802SOL    HW2 6306   4.279   4.701   5.243  1.2259 -1.1535 -1.0800
 1803SOL     OW 6307   6.073   0.372   3.914  0.3486 -0.0343 -0.4213
 1803SOL    HW1 6308   5.992   0.344   3.862 -0.6310  0.1157  0.9669
 1803SOL    HW2 6309   6.049   0.380   4.011  2.5976 -2.3765  0.4394
 1804SOL     OW 6310   1.812   3.923   5.763  0.0030 -0.4700  0.5331
 1804SOL    HW1 6311   1.842   3.891   5.673 -0.4793  0.1538  0.1374
 1804SOL    HW2 6312   1.758   3.851   5.808  0.1769 -0.7535  0.2869
 1805SOL     OW 6313   5.907   5.822   6.811 -0.8604 -0.4168 -0.2725
 1805SOL    HW1 6314   5.840   5.767   6.861  0.1492 -0.0949  1.5031
 1805SOL    HW2 6315   5.861   5.868   6.735 -2.4174 -1.0677  0.2229
 1806SOL     OW 6316   2.352   0.370   3.467  1.1173 -0.1090 -0.4807
 1806SOL    HW1 6317   2.303   0.457   3.460  0.3906 -0.4223  0.4104
 1806SOL    HW2 6318   2.434   0.382   3.524  0.4932 -0.1950  0.4689
 1807SOL     OW 6319   5.820   0.943   2.601  0.3186 -0.0122 -0.0808
 1807SOL    HW1 6320   5.854   1.031   2.635  0.4345 -0.4813  1.0599
 1807SOL    HW2 6321   5.804   0.949   2.503  1.1263  1.0284 -0.1583
 1808SOL     OW 6322   5.745   1.856   6.661  0.6261  0.3476 -0.0633
 1808SOL    HW1 6323   5.748   1.933   6.597  1.5064 -0.6227 -1.2212
 1808SOL    HW2 6324   5.655   1.813   6.656  1.4627 -1.3758 -2.7509
 1809SOL     OW 6325   5.840   0.300   3.801 -0.1192  0.7011  0.2143
 1809SOL    HW1 6326   5.786   0.229   3.756 -0.2193  0.9178 -0.0096
 1809SOL    HW2 6327   5.797   0.389   3.786  0.4861  0.9236 -0.2668
 1810SOL     OW 6328   0.557   1.296   3.936  0.5142 -0.4631 -0.4876
 1810SOL    HW1 6329   0.635   1.243   3.968  1.2162  0.5047 -0.5704
 1810SOL    HW2 6330   0.528   1.262   3.846  1.7106  0.0366 -1.0855
 1811SOL     OW 6331   3.206   4.022   0.793 -0.5924  0.3342  0.1400
 1811SOL    HW1 6332   3.225   3.990   0.885  0.1518  1.3875  0.3709
 1811SOL    HW2 6333   3.220   3.947   0.728 -1.4374 -0.5033  0.8885
 1812SOL     OW 6334   2.460   1.856   5.972 -0.1645 -0.1991 -0.2831
 1812SOL    HW1 6335   2.390   1.785   5.976  0.1097 -0.5775 -1.7082
 1812SOL    HW2 6336   2.444   1.914   5.892 -0.3155  1.2898  0.7833
 1813SOL     OW 6337   6.398   5.309   0.543  0.4760  0.7082 -0.3814
 1813SOL    HW1 6338   6.367   5.403   0.532 -0.4224  0.5843  0.8807
 1813SOL    HW2 6339   6.322   5.246   0.527  0.5567  0.3027  0.7563
 1814SOL     OW 6340   6.486   5.045   1.845 -0.2019 -0.1249  0.0026
 1814SOL    HW1 6341   6.577   5.086   1.846 -0.2457  0.0093 -0.8981
 1814SOL    HW2 6342   6.439   5.067   1.930 -0.0518  1.3086 -0.2595
 1815SOL     OW 6343   5.180   4.940   1.804  0.1354 -0.3567 -0.7615
 1815SOL    HW1 6344   5.111   4.971   1.739 -1.6110 -0.5390  0.9279
 1815SOL    HW2 6345   5.136   4.917   1.891  2.3991  0.0079  0.5520
 1816SOL     OW 6346   5.149   4.838   5.871 -0.1202  0.3929 -0.0909
 1816SOL    HW1 6347   5.217   4.911   5.878  0.9942 -0.7046  1.7174
 1816SOL    HW2 6348   5.148   4.786   5.957 -1.8700 -0.8536 -0.8049
 1817SOL     OW 6349   5.745   3.138   5.805  0.0938  0.2435 -0.3316
 1817SOL    HW1 6350   5.758   3.114   5.901  1.3991  0.6638 -0.3704
 1817SOL    HW2 6351   5.790   3.226   5.787 -1.4600  0.9399 -0.9903
 1818SOL     OW 6352   2.604   2.194   0.934  0.1232  0.5518 -0.5564
 1818SOL    HW1 6353   2.677   2.184   1.001 -1.5954  1.2561  1.5596
 1818SOL    HW2 6354   2.555   2.108   0.925  0.3111  0.4762 -0.8581
 1819SOL     OW 6355   1.711   5.006   6.377  0.0379 -0.2375  0.1513
 1819SOL    HW1 6356   1.776   4.949   6.327  1.9419  0.7444  1.3861
 1819SOL    HW2 6357   1.760   5.060   6.446 -1.9239  1.5191  0.2741
 1820SOL     OW 6358   3.165   6.661   5.446  0.2983 -0.0322 -0.6857
 1820SOL    HW1 6359   3.125   6.595   5.509  1.8270  1.2631  1.7861
 1820SOL    HW2 6360   3.254   6.691   5.480 -0.6882  3.9954 -1.0861
 1821SOL     OW 6361   4.934   3.188   2.249 -0.2222 -0.0670 -0.1966
 1821SOL    HW1 6362   4.991   3.206   2.329  2.1438  0.3231 -1.8616
 1821SOL    HW2 6363   4.886   3.101   2.262 -2.6233  1.5473  3.0026
 1822SOL     OW 6364   1.935   5.096   3.978  0.0743 -0.0870 -0.3836
 1822SOL    HW1 6365   1.844   5.118   4.013  0.1968 -0.4078  0.1484
 1822SOL    HW2 6366   1.949   5.142   3.890 -0.7870 -0.4264 -0.7089
 1823SOL     OW 6367   4.753   0.740   4.404 -0.3589  0.4848 -0.2983
 1823SOL    HW1 6368   4.715   0.653   4.437 -0.8372  0.5009 -0.7874
 1823SOL    HW2 6369   4.819   0.775   4.471 -0.2976 -0.1598 -0.0079
 1824SOL     OW 6370   4.224   0.984   1.826  0.0960  0.1687  0.7678
 1824SOL    HW1 6371   4.264   1.065   1.868  0.6425  0.1882  0.2109
 1824SOL    HW2 6372   4.124   0.995   1.822  0.2072  1.0796  0.1435
 1825SOL     OW 6373   2.241   3.905   6.397 -0.1218 -0.0643  0.3564
 1825SOL    HW1 6374   2.315   3.909   6.330 -0.4433 -0.7481 -0.0463
 1825SOL    HW2 6375   2.280   3.893   6.489  0.3922  2.2731  0.4956
 1826SOL     OW 6376   4.382   2.194   6.590 -0.4215 -0.6293  0.6279
 1826SOL    HW1 6377   4.404   2.291   6.575  0.7811 -0.9536  0.2181
 1826SOL    HW2 6378   4.426   2.162   6.673 -1.0523 -0.7606  0.9183
 1827SOL     OW 6379   5.895   5.000   1.042  0.7689 -0.3098  0.6300
 1827SOL    HW1 6380   5.850   5.049   1.116  0.2972 -1.2512  0.9841
 1827SOL    HW2 6381   5.840   4.920   1.016  1.7234 -0.8988  0.3715
 1828SOL     OW 6382   1.608   5.757   3.727 -0.3438 -0.0338  0.2435
 1828SOL    HW1 6383   1.676   5.819   3.767  1.6668 -1.2909 -1.0092
 1828SOL    HW2 6384   1.620   5.755   3.627 -1.3991 -1.2597  0.1218
 1829SOL     OW 6385   1.612   4.807   2.591  0.0150 -0.8087 -0.1999
 1829SOL    HW1 6386   1.618   4.878   2.520  0.0053 -1.4857 -0.8931
 1829SOL    HW2 6387   1.517   4.797   2.620 -0.2767 -1.7429 -1.3826
 1830SOL     OW 6388   5.576   2.527   6.926  0.0759  0.5946 -0.1068
 1830SOL    HW1 6389   5.544   2.465   6.855  2.9775  0.1942 -1.1785
 1830SOL    HW2 6390   5.565   2.622   6.895  1.0912  0.4267 -1.0261
 1831SOL     OW 6391   3.986   4.908   5.950  0.2489 -0.2862 -0.1483
 1831SOL    HW1 6392   4.000   4.817   5.911 -2.3985 -1.1895  0.8178
 1831SOL    HW2 6393   4.010   4.907   6.047  1.7847  0.5319 -0.4948
 1832SOL     OW 6394   2.857   2.432   5.737  0.4175 -0.0059  0.4731
 1832SOL    HW1 6395   2.949   2.406   5.710  0.5259  0.2303  0.6076
 1832SOL    HW2 6396   2.858   2.463   5.832  0.3759  0.9030  0.1847
 1833SOL     OW 6397   6.971   2.500   0.610  0.1754 -0.3385  1.0003
 1833SOL    HW1 6398   7.009   2.592   0.620 -1.5044  0.3376  1.4269
 1833SOL    HW2 6399   6.898   2.487   0.677 -0.0552 -1.7578  0.4952
 1834SOL     OW 6400   0.541   4.817   6.422 -0.1169 -0.4862 -0.1171
 1834SOL    HW1 6401   0.536   4.722   6.390 -1.5635 -1.0971  1.7624
 1834SOL    HW2 6402   0.637   4.844   6.429  0.3418 -2.0106 -0.1543
 1835SOL     OW 6403   0.813   0.058   0.055  0.3650 -0.2222  0.0259
 1835SOL    HW1 6404   0.883  -0.005   0.023  0.5808 -0.6828  1.3349
 1835SOL    HW2 6405   0.729   0.008   0.073  0.4935 -0.1308  0.9365
 1836SOL     OW 6406   5.536   1.198   4.315  0.6826 -0.1366  0.8026
 1836SOL    HW1 6407   5.473   1.244   4.252  2.3516  1.3799  0.1360
 1836SOL    HW2 6408   5.569   1.114   4.273 -1.5304 -1.4250  1.5431
 1837SOL     OW 6409   7.018   2.210   1.156  0.0517 -0.8950  0.6500
 1837SOL    HW1 6410   6.952   2.282   1.179  0.2828  0.5042 -2.4688
 1837SOL    HW2 6411   7.110   2.242   1.177  0.0242 -1.1337  1.1442
 1838SOL     OW 6412   6.748   0.279   0.550  0.1766 -0.0522  0.0068
 1838SOL    HW1 6413   6.680   0.207   0.538  1.6143 -1.3541 -0.5995
 1838SOL    HW2 6414   6.767   0.290   0.647  0.6986 -1.2390  0.0566
 1839SOL     OW 6415   0.711   2.475   6.200  0.8595 -0.1815  0.1771
 1839SOL    HW1 6416   0.782   2.426   6.251 -0.4532 -0.0128  2.2643
 1839SOL    HW2 6417   0.622   2.437   6.222  0.2766 -1.4341 -3.5956
 1840SOL     OW 6418   2.341   5.182   2.878 -0.4642  0.1142 -0.5703
 1840SOL    HW1 6419   2.290   5.113   2.826  0.6001 -1.5012  0.4170
 1840SOL    HW2 6420   2.435   5.150   2.893 -0.4169  0.9837  1.3842
 1841SOL     OW 6421   2.689   0.536   0.558 -0.2515 -0.0746 -0.6695
 1841SOL    HW1 6422   2.788   0.547   0.553 -0.2686  0.1162 -0.5952
 1841SOL    HW2 6423   2.649   0.613   0.608 -0.6432  0.9679 -2.4906
 1842SOL     OW 6424   0.764   4.355   2.116  0.1243 -0.2240 -0.1665
 1842SOL    HW1 6425   0.723   4.443   2.141 -0.9319 -1.5058  3.2803
 1842SOL    HW2 6426   0.816   4.320   2.194 -0.9451 -3.4034 -0.7431
 1843SOL     OW 6427   0.846   1.801   5.290 -0.1706 -0.3652 -0.3872
 1843SOL    HW1 6428   0.932   1.825   5.335 -0.7431  0.1152  0.4826
 1843SOL    HW2 6429   0.785   1.758   5.357 -0.1505 -1.8970 -1.2972
 1844SOL     OW 6430   5.577   3.114   1.951 -0.3096 -0.5718 -0.1226
 1844SOL    HW1 6431   5.517   3.039   1.978 -0.5252  0.0722  1.3158
 1844SOL    HW2 6432   5.538   3.201   1.982  1.0411 -0.0769  0.2993
 1845SOL     OW 6433   1.376   1.714   5.209 -0.1199  0.2991  0.0382
 1845SOL    HW1 6434   1.290   1.697   5.161 -0.1483  0.2412  0.1099
 1845SOL    HW2 6435   1.408   1.807   5.188 -0.5540  0.5710  0.5626
 1846SOL     OW 6436   2.858   1.023   0.352  0.3177  0.0886 -0.1525
 1846SOL    HW1 6437   2.933   0.963   0.324  1.1571  1.8154 -1.8901
 1846SOL    HW2 6438   2.774   0.970   0.361  1.2308 -1.4992 -0.5815
 1847SOL     OW 6439   3.365   5.259   0.388  0.0242 -0.1757 -0.6819
 1847SOL    HW1 6440   3.397   5.319   0.462  1.1029  1.1274 -2.1099
 1847SOL    HW2 6441   3.409   5.170   0.395  0.0524 -0.0878  0.2881
 1848SOL     OW 6442   1.655   0.390   5.082 -0.4757 -0.1800  0.1716
 1848SOL    HW1 6443   1.600   0.332   5.143 -0.9181  1.2641  1.2071
 1848SOL    HW2 6444   1.612   0.479   5.074  1.5462  0.9143  0.7890
 1849SOL     OW 6445   5.005   2.690   2.756  0.5009 -0.5164 -0.3581
 1849SOL    HW1 6446   4.961   2.657   2.839  1.0135  1.4478  0.7434
 1849SOL    HW2 6447   4.999   2.619   2.685 -4.4503 -0.3810 -0.3834
 1850SOL     OW 6448   4.265   2.194   1.152 -0.0672  0.0063 -0.1206
 1850SOL    HW1 6449   4.205   2.135   1.206 -0.3695  1.3403  1.0400
 1850SOL    HW2 6450   4.359   2.160   1.157 -0.2140 -0.2967  0.6421
 1851SOL     OW 6451   1.821   4.652   4.109  0.4079 -0.0011 -0.3077
 1851SOL    HW1 6452   1.744   4.606   4.063  1.2391 -1.0247 -0.7165
 1851SOL    HW2 6453   1.800   4.663   4.206 -0.4463  0.1620 -0.5027
 1852SOL     OW 6454   2.254   0.433   5.923  0.0432 -0.5153  0.2635
 1852SOL    HW1 6455   2.353   0.427   5.907  0.2732 -0.9660  1.6992
 1852SOL    HW2 6456   2.223   0.526   5.908  0.6782 -0.3765 -0.2278
 1853SOL     OW 6457   0.487   1.771   3.946 -0.0559 -0.1173  0.4064
 1853SOL    HW1 6458   0.435   1.806   3.869  0.6733 -0.3278 -0.1878
 1853SOL    HW2 6459   0.530   1.684   3.921 -0.1570 -0.4005  1.1855
 1854SOL     OW 6460   2.161   5.888   2.476  0.8313  0.2342  0.0326
 1854SOL    HW1 6461   2.240   5.918   2.423 -0.7470  1.6312 -1.6735
 1854SOL    HW2 6462   2.093   5.846   2.415 -1.0718  1.9142  0.8854
 1855SOL     OW 6463   0.070   1.237   5.409  0.0782  0.4753 -0.6448
 1855SOL    HW1 6464   0.084   1.163   5.476  1.3534  0.4316 -0.9381
 1855SOL    HW2 6465   0.073   1.199   5.317  3.2856  1.1472 -0.9419
 1856SOL     OW 6466   3.404   4.224   5.226 -0.8387 -0.1194 -0.3819
 1856SOL    HW1 6467   3.365   4.137   5.256  0.7649 -1.5029 -2.0690
 1856SOL    HW2 6468   3.458   4.210   5.143  0.7119  2.2338  0.1179
 1857SOL     OW 6469   3.204   1.307   0.027 -0.0449  1.1838 -0.0327
 1857SOL    HW1 6470   3.160   1.218   0.040 -0.4302  1.4454  0.4780
 1857SOL    HW2 6471   3.195   1.361   0.110  1.6834  1.0555  0.2785
 1858SOL     OW 6472   4.393   1.943   4.578 -0.1828 -0.4328  0.5928
 1858SOL    HW1 6473   4.479   1.927   4.530  0.0222 -0.2641  0.9061
 1858SOL    HW2 6474   4.411   1.986   4.666 -0.5718 -0.6083  0.7583
 1859SOL     OW 6475   6.815   5.560   4.003  0.3131 -0.5352 -0.3552
 1859SOL    HW1 6476   6.865   5.509   3.933 -1.0740 -1.8566 -0.4302
 1859SOL    HW2 6477   6.757   5.628   3.958 -0.0740 -0.9303 -0.4628
 1860SOL     OW 6478   2.177   3.869   0.724  0.5985  0.0488 -0.0991
 1860SOL    HW1 6479   2.241   3.933   0.767 -0.3407  0.8630  0.1022
 1860SOL    HW2 6480   2.228   3.807   0.664  1.4529  1.3464 -0.7531
 1861SOL     OW 6481   5.947   0.091   6.101  0.3186  0.1416  0.2621
 1861SOL    HW1 6482   6.025   0.079   6.040 -0.3891 -0.9725 -0.4648
 1861SOL    HW2 6483   5.973   0.062   6.194  1.0079  0.5965  0.2213
 1862SOL     OW 6484   4.533   5.009   6.309  0.0505 -0.2650  0.3998
 1862SOL    HW1 6485   4.497   5.039   6.398  1.0867 -0.3763  0.8621
 1862SOL    HW2 6486   4.536   5.088   6.247 -3.9945 -0.7696 -0.7623
 1863SOL     OW 6487   6.796   0.316   0.820 -0.6062 -0.3781 -0.0426
 1863SOL    HW1 6488   6.798   0.219   0.845  0.7979 -0.3797 -0.0744
 1863SOL    HW2 6489   6.753   0.369   0.892 -1.1271 -0.9915  0.1022
 1864SOL     OW 6490   3.749   5.271   3.956  0.5075 -0.5388 -0.3753
 1864SOL    HW1 6491   3.771   5.210   4.032  1.8960  1.7646  1.1873
 1864SOL    HW2 6492   3.730   5.216   3.874 -2.7744 -3.2632  1.8983
 1865SOL     OW 6493   0.228   2.951   6.163  0.1218  0.2753 -0.8922
 1865SOL    HW1 6494   0.292   2.875   6.173 -1.3403 -0.9126 -0.2012
 1865SOL    HW2 6495   0.279   3.037   6.160  1.7165 -0.5954 -0.0645
 1866SOL     OW 6496   6.898   3.467   4.671 -0.2472 -0.2563  0.3447
 1866SOL    HW1 6497   6.865   3.506   4.757 -1.3877 -0.2066 -0.0989
 1866SOL    HW2 6498   6.978   3.518   4.640  0.4572 -0.5692  1.6012
 1867SOL     OW 6499   3.024   0.212   0.594 -0.0354  0.3901 -0.7825
 1867SOL    HW1 6500   3.118   0.240   0.611 -0.3365  0.5980  0.6390
 1867SOL    HW2 6501   2.964   0.292   0.591 -0.3103  0.1893 -0.7408
 1868SOL     OW 6502   6.529   3.129   5.957  0.1397  0.2731 -0.5674
 1868SOL    HW1 6503   6.568   3.220   5.972  0.7712 -0.0073 -0.4686
 1868SOL    HW2 6504   6.584   3.081   5.889 -0.8430  0.3720 -1.4610
 1869SOL     OW 6505   5.022   1.784   4.309  0.0511 -0.6830 -0.0938
 1869SOL    HW1 6506   4.943   1.732   4.339  0.2568 -0.1889  1.3887
 1869SOL    HW2 6507   4.993   1.857   4.247 -0.6532 -0.5783  0.3547
 1870SOL     OW 6508   5.906   1.791   5.620  0.8345  0.3097 -0.3989
 1870SOL    HW1 6509   5.821   1.790   5.566  0.4360 -2.6634  0.1160
 1870SOL    HW2 6510   5.890   1.842   5.704 -0.0536  0.8582 -0.8767
 1871SOL     OW 6511   2.891   0.060   6.754  0.1337 -0.1022 -0.1936
 1871SOL    HW1 6512   2.851   0.101   6.835  2.7438 -1.2931  1.8635
 1871SOL    HW2 6513   2.818   0.034   6.690 -1.9664  1.5410  1.3791
 1872SOL     OW 6514   1.347   3.442   6.434 -0.0511 -0.7709 -0.1027
 1872SOL    HW1 6515   1.362   3.352   6.392  0.9285 -0.8898  0.4942
 1872SOL    HW2 6516   1.366   3.437   6.532  1.3529  0.4063 -0.2901
 1873SOL     OW 6517   5.515   0.387   0.329 -0.2649  0.1640  0.2770
 1873SOL    HW1 6518   5.422   0.399   0.296 -0.6313  0.3200  1.3311
 1873SOL    HW2 6519   5.514   0.334   0.414  0.6677 -0.4223 -0.0549
 1874SOL     OW 6520   4.667   6.558   0.542  0.3908 -0.2265 -0.1905
 1874SOL    HW1 6521   4.568   6.551   0.529  0.4188  0.1897 -0.6532
 1874SOL    HW2 6522   4.687   6.631   0.606  0.5144  1.8144 -2.4095
 1875SOL     OW 6523   1.440   6.483   2.716  0.1228 -0.4104  0.1685
 1875SOL    HW1 6524   1.522   6.428   2.699 -0.2536 -1.0140  0.2984
 1875SOL    HW2 6525   1.366   6.452   2.657  0.0296  0.2539 -0.0789
 1876SOL     OW 6526   1.650   4.998   3.109  0.1430 -0.2581 -0.4075
 1876SOL    HW1 6527   1.695   4.910   3.121 -0.6522 -0.8589 -1.6214
 1876SOL    HW2 6528   1.552   4.984   3.097 -0.0753  0.8449 -0.0046
 1877SOL     OW 6529   0.847   0.542   2.948 -0.0367 -0.3800  0.0280
 1877SOL    HW1 6530   0.859   0.542   2.848 -0.0228 -0.8252  0.0290
 1877SOL    HW2 6531   0.849   0.448   2.982 -0.0263 -0.2280  0.4521
 1878SOL     OW 6532   5.251   5.928   4.756  1.1502  0.4910 -0.2125
 1878SOL    HW1 6533   5.223   6.016   4.794  3.8206  1.3367 -0.0132
 1878SOL    HW2 6534   5.345   5.934   4.723  0.0555 -1.0357 -4.2986
 1879SOL     OW 6535   4.095   6.785   6.502  0.4058 -0.1773 -0.2408
 1879SOL    HW1 6536   4.069   6.748   6.412  2.1736  0.6612 -1.1579
 1879SOL    HW2 6537   4.159   6.722   6.546  1.8062  0.7135 -0.8994
 1880SOL     OW 6538   0.495   3.599   3.662  0.6438 -0.4107  0.2321
 1880SOL    HW1 6539   0.568   3.623   3.599  0.4981 -2.0580 -0.5992
 1880SOL    HW2 6540   0.421   3.554   3.612  0.3155 -1.3222  1.4904
 1881SOL     OW 6541   3.858   1.748   3.468  0.1065 -0.5018 -0.2388
 1881SOL    HW1 6542   3.901   1.742   3.378  0.4740 -0.7458 -0.0504
 1881SOL    HW2 6543   3.916   1.803   3.528  0.0758 -0.7019 -0.0267
 1882SOL     OW 6544   2.956   0.153   4.888  0.3696 -0.0274  0.7393
 1882SOL    HW1 6545   2.925   0.191   4.976 -0.6271  0.5139  0.1655
 1882SOL    HW2 6546   3.033   0.207   4.854 -1.1317  1.6506 -0.1469
 1883SOL     OW 6547   2.179   2.970   2.581 -0.2722 -0.2494 -0.5273
 1883SOL    HW1 6548   2.143   2.888   2.538 -1.4902  0.3523 -0.7049
 1883SOL    HW2 6549   2.170   3.048   2.519  0.2636  0.1493 -0.1218
 1884SOL     OW 6550   4.223   0.431   0.127 -0.5077  0.0856  0.3978
 1884SOL    HW1 6551   4.213   0.517   0.178  1.3821  0.0377  0.9313
 1884SOL    HW2 6552   4.213   0.354   0.189 -2.4094 -0.1227 -0.1187
 1885SOL     OW 6553   6.961   3.411   0.466 -0.3712 -0.0938  0.1280
 1885SOL    HW1 6554   6.911   3.344   0.522  1.5304 -1.8253 -0.1312
 1885SOL    HW2 6555   7.042   3.442   0.516 -0.8867  1.5929 -0.0232
 1886SOL     OW 6556   3.571   3.824   5.220 -0.0032  0.2540 -0.5069
 1886SOL    HW1 6557   3.561   3.822   5.121 -0.5578  0.3856 -0.4576
 1886SOL    HW2 6558   3.666   3.802   5.245 -0.5898 -3.4342 -0.9150
 1887SOL     OW 6559   0.180   3.364   6.896  0.0751  0.4993 -0.2462
 1887SOL    HW1 6560   0.170   3.324   6.805 -1.0097  1.7254 -0.6855
 1887SOL    HW2 6561   0.245   3.309   6.949  0.1334 -0.6787 -1.4831
 1888SOL     OW 6562   0.610   0.964   4.673 -0.3849  0.1607  0.1951
 1888SOL    HW1 6563   0.554   0.922   4.744 -0.8317  0.8137  0.2420
 1888SOL    HW2 6564   0.555   0.976   4.590  0.6495 -2.3552 -0.9509
 1889SOL     OW 6565   2.723   2.700   6.543  0.9976 -0.0748  0.0307
 1889SOL    HW1 6566   2.738   2.761   6.465  0.9726  1.6388  1.3159
 1889SOL    HW2 6567   2.653   2.632   6.519 -0.4381  1.6389 -0.8124
 1890SOL     OW 6568   6.128   0.013   6.926  0.1870  0.0095  0.3776
 1890SOL    HW1 6569   6.185   0.043   6.850  0.3862  1.2724  0.9980
 1890SOL    HW2 6570   6.051   0.076   6.936 -1.2030 -1.5049 -0.2694
 1891SOL     OW 6571   5.465   4.285   0.149 -0.6349 -0.4172 -0.8339
 1891SOL    HW1 6572   5.554   4.238   0.149 -0.4806 -0.1569  0.5863
 1891SOL    HW2 6573   5.403   4.239   0.212 -1.1546  0.0762 -0.9750
 1892SOL     OW 6574   2.345   1.201   5.396 -0.1372  0.1165  0.2656
 1892SOL    HW1 6575   2.351   1.298   5.374  1.5882  0.1727  0.8740
 1892SOL    HW2 6576   2.339   1.189   5.495 -2.0417 -0.3612  0.1303
 1893SOL     OW 6577   2.004   1.822   5.288 -0.5516  0.0798  0.2118
 1893SOL    HW1 6578   1.935   1.852   5.222 -0.8358  0.5967  0.7379
 1893SOL    HW2 6579   2.056   1.745   5.249 -1.7979 -0.6929  0.0376
 1894SOL     OW 6580   4.166   3.025   1.738 -0.6401  0.4588 -0.0510
 1894SOL    HW1 6581   4.108   3.043   1.658  0.7117  2.3919 -0.6622
 1894SOL    HW2 6582   4.257   2.996   1.708 -0.3266  0.5270  0.8035
 1895SOL     OW 6583   2.661   6.986   4.647 -0.5801  0.5411  0.5420
 1895SOL    HW1 6584   2.742   7.043   4.627 -2.0335  2.7483  0.6290
 1895SOL    HW2 6585   2.683   6.890   4.627  1.4143  1.2987 -1.4010
 1896SOL     OW 6586   6.951   2.922   2.983 -0.2137 -0.5502  0.4438
 1896SOL    HW1 6587   6.915   2.852   3.045 -0.6800 -1.9345 -1.3301
 1896SOL    HW2 6588   6.993   2.879   2.904  0.4341  1.1777 -0.2045
 1897SOL     OW 6589   5.850   4.427   4.267 -0.1389 -0.0479  0.2431
 1897SOL    HW1 6590   5.827   4.363   4.193 -0.4139 -0.8324  0.9870
 1897SOL    HW2 6591   5.948   4.443   4.269  0.2318 -2.1057  1.3281
 1898SOL     OW 6592   5.531   5.391   1.703  0.3824  0.5166  0.6950
 1898SOL    HW1 6593   5.501   5.486   1.717  0.5567  0.3669  2.1908
 1898SOL    HW2 6594   5.451   5.334   1.683  0.3747  1.1066 -1.1567
 1899SOL     OW 6595   1.278   2.030   3.192 -0.3281  0.3614  0.7200
 1899SOL    HW1 6596   1.187   1.987   3.197 -1.0291  1.3336 -2.0148
 1899SOL    HW2 6597   1.316   2.016   3.101  1.3531  1.8028  1.1566
 1900SOL     OW 6598   5.276   6.350   1.921  0.4225  0.2878  0.0360
 1900SOL    HW1 6599   5.221   6.357   2.004  2.2591 -1.6830  1.5492
 1900SOL    HW2 6600   5.224   6.302   1.850 -1.4653  2.6937 -0.3292
 1901SOL     OW 6601   6.716   6.635   1.290 -0.5090  0.2905  0.0672
 1901SOL    HW1 6602   6.755   6.620   1.200 -1.5962 -3.1088  0.0023
 1901SOL    HW2 6603   6.647   6.707   1.286  1.0542  1.7917 -1.2202
 1902SOL     OW 6604   1.070   2.155   3.853  0.4084 -0.7177 -0.6877
 1902SOL    HW1 6605   0.972   2.137   3.862  0.4821 -2.0300 -2.1263
 1902SOL    HW2 6606   1.084   2.230   3.788  0.3679 -0.3405 -0.2698
 1903SOL     OW 6607   6.049   5.432   5.286  0.2735 -0.5149  0.0856
 1903SOL    HW1 6608   6.035   5.333   5.295  1.1771 -0.7702 -1.0322
 1903SOL    HW2 6609   6.112   5.450   5.210 -0.7086  0.9684 -0.4346
 1904SOL     OW 6610   1.404   2.518   3.651 -0.1222 -0.2439  0.2326
 1904SOL    HW1 6611   1.492   2.529   3.604  0.0679 -3.1956 -0.3211
 1904SOL    HW2 6612   1.330   2.550   3.592  0.4870  1.7499  0.4793
 1905SOL     OW 6613   6.408   4.281   5.725 -0.1110 -0.0824  0.2459
 1905SOL    HW1 6614   6.436   4.198   5.771 -0.3162 -0.7801 -0.8466
 1905SOL    HW2 6615   6.309   4.292   5.732 -0.5275 -1.5949 -2.1710
 1906SOL     OW 6616   0.724   6.111   4.984 -0.6175  0.5015  0.5636
 1906SOL    HW1 6617   0.645   6.171   4.999 -0.9176  0.1946  0.2550
 1906SOL    HW2 6618   0.803   6.165   4.958 -1.3141  0.6560 -1.4320
 1907SOL     OW 6619   2.631   0.315   2.778  0.1289  0.7713 -0.3818
 1907SOL    HW1 6620   2.724   0.302   2.814 -0.2684 -0.1700  0.3556
 1907SOL    HW2 6621   2.629   0.396   2.719  2.3509 -1.3644 -3.6927
 1908SOL     OW 6622   6.170   3.695   0.047  0.8693 -0.6551 -0.3117
 1908SOL    HW1 6623   6.198   3.618  -0.010  0.3515 -0.6416 -0.5927
 1908SOL    HW2 6624   6.224   3.776   0.022 -0.5411 -0.1863 -2.0426
 1909SOL     OW 6625   6.144   5.534   3.996 -0.2572 -0.3964  0.0392
 1909SOL    HW1 6626   6.154   5.625   3.956 -2.3940  0.2819  0.8841
 1909SOL    HW2 6627   6.160   5.539   4.095  0.9925 -1.2405 -0.1025
 1910SOL     OW 6628   4.624   4.270   4.147  0.0189  0.1085  0.4923
 1910SOL    HW1 6629   4.643   4.276   4.049 -1.1262 -2.9076 -0.0335
 1910SOL    HW2 6630   4.566   4.346   4.174 -0.8693  0.2337 -1.5348
 1911SOL     OW 6631   2.064   3.236   4.628 -0.2141  0.1970  0.2945
 1911SOL    HW1 6632   2.113   3.204   4.709  2.1959 -1.9286 -1.8046
 1911SOL    HW2 6633   2.106   3.321   4.596  1.6872 -1.1008 -0.9282
 1912SOL     OW 6634   3.234   0.661   2.747 -0.1349  0.2600 -0.1258
 1912SOL    HW1 6635   3.188   0.715   2.677  1.4738  1.1090 -0.5682
 1912SOL    HW2 6636   3.242   0.566   2.717 -1.1220  0.2046 -0.2457
 1913SOL     OW 6637   2.940   3.585   0.053 -0.1879  0.5935 -0.3946
 1913SOL    HW1 6638   2.970   3.664   0.106 -2.2588  1.2183 -0.0472
 1913SOL    HW2 6639   2.928   3.507   0.114 -0.0717  0.5796 -0.3897
 1914SOL     OW 6640   3.833   2.021   4.885 -0.1589  0.0089 -0.5317
 1914SOL    HW1 6641   3.798   1.950   4.945 -1.1907  1.1734  0.2850
 1914SOL    HW2 6642   3.927   1.999   4.859  0.5538 -0.2454  2.0120
 1915SOL     OW 6643   6.858   0.077   3.283 -0.5967  0.1476  0.3350
 1915SOL    HW1 6644   6.951   0.055   3.312  0.6005 -0.4530 -3.4097
 1915SOL    HW2 6645   6.794   0.010   3.322  0.7537 -0.4946  1.5408
 1916SOL     OW 6646   3.288   0.241   4.014  0.3426  0.3760  0.2298
 1916SOL    HW1 6647   3.296   0.150   3.973  3.1659  0.8849 -0.5763
 1916SOL    HW2 6648   3.219   0.239   4.087  0.1717 -2.3248  0.0918
 1917SOL     OW 6649   3.613   4.612   5.310  0.2081  0.2732  0.4448
 1917SOL    HW1 6650   3.655   4.521   5.316 -1.1436 -0.3637  0.6251
 1917SOL    HW2 6651   3.514   4.603   5.300 -0.0168  1.7399  1.0103
 1918SOL     OW 6652   6.128   0.024   5.693  0.0943  0.7134  0.2279
 1918SOL    HW1 6653   6.031   0.004   5.710 -0.3225  1.9735 -0.5847
 1918SOL    HW2 6654   6.141   0.046   5.596  0.8177  2.5140  0.6927
 1919SOL     OW 6655   4.894   1.638   0.168  0.4021 -0.6886  0.2959
 1919SOL    HW1 6656   4.833   1.693   0.225 -1.5043 -2.2659 -0.1013
 1919SOL    HW2 6657   4.915   1.688   0.083  1.6729  0.8525  1.4525
 1920SOL     OW 6658   6.197   6.289   6.206 -0.2196 -0.3928  0.3306
 1920SOL    HW1 6659   6.154   6.203   6.232 -2.6506  0.7621  0.3972
 1920SOL    HW2 6660   6.275   6.271   6.147 -2.2581 -2.5690 -1.8979
 1921SOL     OW 6661   3.987   6.833   5.262  0.4794  0.2159  0.2018
 1921SOL    HW1 6662   3.932   6.806   5.182 -0.0231  0.1398  0.5656
 1921SOL    HW2 6663   3.937   6.810   5.345  1.7503 -1.3221  0.5795
 1922SOL     OW 6664   4.086   4.192   6.859  0.2188 -0.0909 -0.0369
 1922SOL    HW1 6665   4.101   4.284   6.894 -0.1329  0.0338 -0.2130
 1922SOL    HW2 6666   4.119   4.186   6.765 -0.3643  0.0401 -0.2504
 1923SOL     OW 6667   1.322   3.120   2.606 -0.4193  0.1599 -0.0878
 1923SOL    HW1 6668   1.369   3.129   2.694  0.3426  0.7035 -0.5372
 1923SOL    HW2 6669   1.388   3.128   2.532 -1.3225  1.9771 -0.7707
 1924SOL     OW 6670   0.722   4.868   1.664 -0.3800 -0.2377  0.0877
 1924SOL    HW1 6671   0.629   4.889   1.694 -0.9492 -0.6796 -1.2636
 1924SOL    HW2 6672   0.747   4.931   1.591 -0.0466 -0.8285 -0.3105
 1925SOL     OW 6673   3.389   4.572   6.347 -0.0847 -0.0862 -0.3341
 1925SOL    HW1 6674   3.441   4.594   6.264 -2.3286  3.6365 -0.9638
 1925SOL    HW2 6675   3.450   4.532   6.415  2.8081  0.8536 -2.2002
 1926SOL     OW 6676   1.242   6.922   1.672 -0.4344 -0.3993 -0.1559
 1926SOL    HW1 6677   1.281   6.952   1.585 -0.0811  1.7599  0.6703
 1926SOL    HW2 6678   1.308   6.865   1.720  0.0768 -0.1460 -0.5432
 1927SOL     OW 6679   6.067   3.148   0.217  0.1078 -0.4003 -0.4556
 1927SOL    HW1 6680   6.124   3.190   0.146 -2.8262  1.1225 -2.1068
 1927SOL    HW2 6681   6.029   3.220   0.276 -1.8529 -1.0852 -0.8213
 1928SOL     OW 6682   0.204   4.260   2.714 -0.2798 -0.2179  0.0589
 1928SOL    HW1 6683   0.183   4.179   2.659 -0.3227  0.0389 -0.3069
 1928SOL    HW2 6684   0.181   4.242   2.809  0.0631 -0.7695  0.0431
 1929SOL     OW 6685   2.798   4.974   3.044 -0.5276  0.3216  0.5378
 1929SOL    HW1 6686   2.866   4.906   3.070 -1.9953 -1.6552 -0.5473
 1929SOL    HW2 6687   2.844   5.052   3.002  1.0408 -1.2833 -0.8817
 1930SOL     OW 6688   4.750   0.296   1.019 -0.3852  0.1816 -0.3006
 1930SOL    HW1 6689   4.795   0.358   1.084  0.4145 -0.3445 -0.3376
 1930SOL    HW2 6690   4.720   0.213   1.067 -0.6436  0.2049 -0.4210
 1931SOL     OW 6691   4.315   2.368   3.932  0.2586  0.5098 -0.4137
 1931SOL    HW1 6692   4.216   2.353   3.926  0.4593 -0.6205 -1.3968
 1931SOL    HW2 6693   4.360   2.284   3.960  0.9121  1.1807  0.6087
 1932SOL     OW 6694   4.686   1.356   3.110  0.0270 -0.0388 -0.0343
 1932SOL    HW1 6695   4.614   1.291   3.086  0.1655 -0.5608  0.9427
 1932SOL    HW2 6696   4.745   1.317   3.180 -0.2527  1.3518  1.0406
 1933SOL     OW 6697   2.981   4.733   1.677  0.2943  0.4557  0.4925
 1933SOL    HW1 6698   2.947   4.688   1.760 -1.1417 -0.2545 -0.4313
 1933SOL    HW2 6699   3.047   4.673   1.632 -1.6453 -0.8214 -0.7552
 1934SOL     OW 6700   0.266   6.689   2.763  0.1971 -0.4399  0.1988
 1934SOL    HW1 6701   0.267   6.626   2.840  0.0189 -0.7309 -0.0384
 1934SOL    HW2 6702   0.340   6.756   2.774 -1.0109  0.7249  1.6213
 1935SOL     OW 6703   0.429   1.685   2.450  0.7370  0.1988  0.4336
 1935SOL    HW1 6704   0.515   1.640   2.424  0.7185  0.9078 -0.9836
 1935SOL    HW2 6705   0.431   1.780   2.418 -0.0191  0.6340  1.6253
 1936SOL     OW 6706   6.158   0.064   5.434 -0.4448  0.2217 -0.0556
 1936SOL    HW1 6707   6.246   0.095   5.398 -0.1548 -1.2869 -0.7582
 1936SOL    HW2 6708   6.085   0.123   5.400  0.2109  0.9541 -0.2114
 1937SOL     OW 6709   5.058   2.775   3.736 -0.1165  0.0983 -0.0913
 1937SOL    HW1 6710   4.972   2.803   3.779  0.5152  1.8265  0.1036
 1937SOL    HW2 6711   5.040   2.744   3.643 -1.0153 -0.1582  0.1548
 1938SOL     OW 6712   4.362   0.091   4.739  0.0459 -0.2131  0.3693
 1938SOL    HW1 6713   4.371  -0.008   4.729  0.9996 -0.4275  2.6977
 1938SOL    HW2 6714   4.453   0.134   4.738 -0.2642  0.4781  0.6978
 1939SOL     OW 6715   1.826   0.688   5.016  0.1457  0.9366  0.2534
 1939SOL    HW1 6716   1.921   0.686   5.048  0.6603  0.6608 -1.2202
 1939SOL    HW2 6717   1.814   0.764   4.953 -0.3682  0.4112 -0.2965
 1940SOL     OW 6718   1.234   0.045   6.320  0.5628  0.0677  0.2566
 1940SOL    HW1 6719   1.224   0.143   6.304  0.8634  0.1257  0.4133
 1940SOL    HW2 6720   1.151  -0.002   6.291  0.6234  0.3076 -0.3425
 1941SOL     OW 6721   5.825   5.303   2.843 -0.0806 -0.0340 -0.3944
 1941SOL    HW1 6722   5.889   5.304   2.767 -1.9749 -2.5776 -2.2167
 1941SOL    HW2 6723   5.857   5.239   2.914 -0.4182 -1.1177 -1.1888
 1942SOL     OW 6724   1.643   0.576   1.967 -0.2545 -0.0704 -0.3568
 1942SOL    HW1 6725   1.584   0.561   2.046 -0.2495  1.8109  0.0392
 1942SOL    HW2 6726   1.678   0.669   1.968  2.9094 -1.1490 -0.4893
 1943SOL     OW 6727   3.163   5.656   4.291 -0.2566  0.1602  0.4026
 1943SOL    HW1 6728   3.178   5.590   4.365 -1.9981  1.5097  2.0806
 1943SOL    HW2 6729   3.141   5.608   4.207  1.4621 -1.4316  0.7949
 1944SOL     OW 6730   4.073   6.866   1.428 -0.3595 -0.3540 -0.5598
 1944SOL    HW1 6731   4.087   6.954   1.382 -0.4305 -0.0650 -0.0322
 1944SOL    HW2 6732   3.976   6.842   1.424 -0.2691 -0.6367 -1.1114
 1945SOL     OW 6733   4.264   5.320   3.426  0.2569  0.0370  0.3336
 1945SOL    HW1 6734   4.187   5.371   3.464 -0.0214  0.9078 -1.2935
 1945SOL    HW2 6735   4.231   5.233   3.390  0.4519 -0.6058  1.6548
 1946SOL     OW 6736   2.696   6.528   6.763 -0.0363 -0.2258 -1.0382
 1946SOL    HW1 6737   2.664   6.436   6.786 -0.6078  0.2971  0.3326
 1946SOL    HW2 6738   2.791   6.523   6.730  0.4931 -1.1612  0.5147
 1947SOL     OW 6739   3.866   6.216   3.426 -0.5779 -0.3142  0.4483
 1947SOL    HW1 6740   3.871   6.281   3.350 -0.5983 -2.1039 -1.1641
 1947SOL    HW2 6741   3.771   6.189   3.441 -0.5397 -0.1893  0.9063
 1948SOL     OW 6742   6.944   2.386   4.505  0.2549  0.3778 -0.6268
 1948SOL    HW1 6743   6.933   2.345   4.595 -1.4827  0.9681 -0.5353
 1948SOL    HW2 6744   6.865   2.445   4.485  1.4435  1.6420 -1.8071
 1949SOL     OW 6745   5.325   3.274   0.553  0.1337 -0.1589  0.4640
 1949SOL    HW1 6746   5.273   3.226   0.624 -1.0172  1.5173  0.7981
 1949SOL    HW2 6747   5.418   3.292   0.587 -0.1230 -0.1811  1.1917
 1950SOL     OW 6748   2.764   4.301   6.832  0.6609 -0.3021 -0.5656
 1950SOL    HW1 6749   2.790   4.239   6.905  0.7071  0.2249 -0.1259
 1950SOL    HW2 6750   2.815   4.387   6.842 -1.5926  0.9734  0.6351
 1951SOL     OW 6751   6.450   2.292   0.448  0.1935 -0.3535 -0.2525
 1951SOL    HW1 6752   6.417   2.265   0.357  1.2362 -0.5995 -0.5726
 1951SOL    HW2 6753   6.537   2.247   0.466 -0.8784 -1.8115  1.6670
 1952SOL     OW 6754   3.211   3.344   3.368 -0.4245  0.4310 -0.2104
 1952SOL    HW1 6755   3.239   3.248   3.363 -1.4305  0.1565 -0.7599
 1952SOL    HW2 6756   3.249   3.394   3.290 -0.3235  0.3655 -0.2035
 1953SOL     OW 6757   2.093   2.404   6.290 -0.1549 -0.5005  0.1753
 1953SOL    HW1 6758   2.020   2.403   6.358 -0.5528  0.3822 -0.2217
 1953SOL    HW2 6759   2.124   2.498   6.274  1.1396 -0.8670  0.4001
 1954SOL     OW 6760   0.984   6.990   6.210 -0.4846 -0.2760 -0.0285
 1954SOL    HW1 6761   0.948   6.935   6.286 -0.6378 -0.4900 -0.2539
 1954SOL    HW2 6762   0.929   7.073   6.200  0.5300  0.5767  1.1450
 1955SOL     OW 6763   5.620   5.829   3.826  0.2239  0.2815 -0.7863
 1955SOL    HW1 6764   5.707   5.785   3.848  0.5496  0.4190 -1.7444
 1955SOL    HW2 6765   5.546   5.779   3.869  0.6579 -0.7142 -1.1473
 1956SOL     OW 6766   3.212   0.362   4.709  0.4922  0.2132  0.0286
 1956SOL    HW1 6767   3.197   0.454   4.674  1.8676  1.0701  1.5633
 1956SOL    HW2 6768   3.279   0.315   4.652  0.7412  0.6246 -0.0203
 1957SOL     OW 6769   0.777   0.143   0.360 -0.2488 -0.3530  0.3784
 1957SOL    HW1 6770   0.729   0.205   0.298 -0.0285  0.1229  0.6759
 1957SOL    HW2 6771   0.831   0.078   0.307 -0.7220 -0.4907  0.0570
 1958SOL     OW 6772   4.783   3.547   5.952  0.8256 -0.2298 -0.4611
 1958SOL    HW1 6773   4.705   3.484   5.946  2.4730 -2.3340 -0.9476
 1958SOL    HW2 6774   4.852   3.520   5.885  1.4534  2.4112 -0.9906
 1959SOL     OW 6775   2.406   5.920   2.222 -0.2691  0.5683  0.4725
 1959SOL    HW1 6776   2.318   5.908   2.177  0.1794  1.2007 -0.6091
 1959SOL    HW2 6777   2.462   5.984   2.170  1.1911 -0.5253  0.6312
 1960SOL     OW 6778   3.029   5.379   4.852 -0.2559 -0.4958  0.1690
 1960SOL    HW1 6779   3.023   5.404   4.949 -1.8721 -1.6317  0.4020
 1960SOL    HW2 6780   3.117   5.335   4.835  0.2920  0.2447  0.9744
 1961SOL     OW 6781   5.731   5.714   7.000  0.2552 -0.0572 -0.1962
 1961SOL    HW1 6782   5.732   5.617   7.028 -0.5844 -0.6196 -2.0124
 1961SOL    HW2 6783   5.642   5.737   6.962  0.8569  1.0850 -0.9693
 1962SOL     OW 6784   0.902   6.269   5.376  0.1384 -0.3733 -0.0680
 1962SOL    HW1 6785   0.855   6.188   5.341  0.3390 -1.5890  2.2856
 1962SOL    HW2 6786   0.839   6.322   5.432  1.4648 -2.1845  3.3923
 1963SOL     OW 6787   4.612   0.664   2.442 -0.4906 -0.5480 -0.5470
 1963SOL    HW1 6788   4.549   0.642   2.516 -0.8427 -1.4780 -1.1147
 1963SOL    HW2 6789   4.567   0.723   2.375  0.3068  1.6633  0.7301
 1964SOL     OW 6790   6.272   2.138   1.924 -0.3811  0.0311 -0.4723
 1964SOL    HW1 6791   6.250   2.042   1.941  1.1193 -0.6232 -1.9101
 1964SOL    HW2 6792   6.369   2.154   1.941 -0.5284  1.1980 -0.6270
 1965SOL     OW 6793   1.622   6.416   3.968  0.6454  0.3570  0.1453
 1965SOL    HW1 6794   1.670   6.375   3.891  0.0606 -1.0643  0.4909
 1965SOL    HW2 6795   1.681   6.416   4.049  1.7389  3.0672 -0.5637
 1966SOL     OW 6796   0.921   4.677   6.285  0.2522 -0.1636 -0.8173
 1966SOL    HW1 6797   0.906   4.641   6.193 -3.1288  0.4535 -0.6175
 1966SOL    HW2 6798   0.906   4.605   6.352  0.4446 -0.0551 -0.6554
 1967SOL     OW 6799   6.024   2.147   4.769 -0.0915 -0.4918 -0.4946
 1967SOL    HW1 6800   5.996   2.052   4.754  1.3555 -1.1629  0.7847
 1967SOL    HW2 6801   6.008   2.171   4.865 -0.5605  0.6193 -0.8382
 1968SOL     OW 6802   3.231   0.144   4.382  0.3003 -0.2583  0.2116
 1968SOL    HW1 6803   3.215   0.227   4.328 -0.5367 -0.9762 -0.6920
 1968SOL    HW2 6804   3.318   0.152   4.431  2.5461 -0.5970 -3.3587
 1969SOL     OW 6805   3.255   1.917   0.935  0.1702 -0.6974  0.0650
 1969SOL    HW1 6806   3.248   1.822   0.904 -0.0718 -0.0160 -2.1700
 1969SOL    HW2 6807   3.267   1.977   0.856 -0.2587  1.2067  1.3707
 1970SOL     OW 6808   0.735   6.422   3.182  0.1736  0.3755  0.0713
 1970SOL    HW1 6809   0.749   6.499   3.119  1.6650  0.2555  0.2212
 1970SOL    HW2 6810   0.804   6.426   3.254  0.7630 -1.5413 -0.3487
 1971SOL     OW 6811   1.539   1.671   4.443  0.2576  0.3493 -0.0019
 1971SOL    HW1 6812   1.503   1.747   4.390  2.2352  1.2393 -0.1649
 1971SOL    HW2 6813   1.614   1.627   4.393 -0.6937 -1.5983  0.1779
 1972SOL     OW 6814   1.420   6.775   6.971  0.1290 -0.2495 -0.0384
 1972SOL    HW1 6815   1.348   6.740   6.912  0.2407 -1.4353  0.4890
 1972SOL    HW2 6816   1.380   6.814   7.054  0.0720 -2.7132  1.2121
 1973SOL     OW 6817   3.378   1.813   0.571 -0.1463  0.2859 -0.5716
 1973SOL    HW1 6818   3.294   1.850   0.532 -0.7079 -0.6752 -0.3100
 1973SOL    HW2 6819   3.453   1.877   0.555 -0.6405  0.5474 -2.0040
 1974SOL     OW 6820   5.769   6.348   4.415  0.3087  0.7231  0.3607
 1974SOL    HW1 6821   5.717   6.348   4.501 -1.4452  0.2400 -0.6341
 1974SOL    HW2 6822   5.866   6.357   4.435  0.0707 -0.5287  2.4771
 1975SOL     OW 6823   2.268   1.721   4.299 -0.0743  0.3100 -0.4807
 1975SOL    HW1 6824   2.350   1.740   4.354 -0.1079  0.1458 -0.3713
 1975SOL    HW2 6825   2.275   1.629   4.261 -0.6531 -0.0896  0.3370
 1976SOL     OW 6826   0.625   4.451   5.962 -0.1811 -0.5532  0.3549
 1976SOL    HW1 6827   0.601   4.365   6.005 -2.2992  0.9602  2.4123
 1976SOL    HW2 6828   0.582   4.457   5.872 -0.2770 -1.4666  0.3306
 1977SOL     OW 6829   2.533   1.059   4.538 -0.5623  0.3659  0.3743
 1977SOL    HW1 6830   2.517   1.066   4.439 -3.8172 -0.6453  0.6999
 1977SOL    HW2 6831   2.577   1.143   4.570 -1.0757  1.5055 -1.6730
 1978SOL     OW 6832   6.044   1.662   4.614  0.1904  0.5673  0.1128
 1978SOL    HW1 6833   6.115   1.596   4.592 -0.6860 -0.9232  1.4828
 1978SOL    HW2 6834   5.990   1.682   4.532  0.7739 -0.0538 -0.4373
 1979SOL     OW 6835   0.426   3.005   2.414  0.0018  0.4360  0.1255
 1979SOL    HW1 6836   0.519   2.970   2.413  0.9685  2.6855 -2.1034
 1979SOL    HW2 6837   0.386   2.996   2.322 -2.3244 -1.1472  1.1904
 1980SOL     OW 6838   4.373   1.708   4.000  0.2442  0.6315  0.0146
 1980SOL    HW1 6839   4.441   1.781   4.000 -0.3299  1.2013  1.2525
 1980SOL    HW2 6840   4.361   1.673   3.907  3.2424 -0.4841 -0.0551
 1981SOL     OW 6841   5.765   3.305   2.965 -0.4008  0.0856 -0.4247
 1981SOL    HW1 6842   5.691   3.369   2.943 -0.3974 -0.3844 -1.9309
 1981SOL    HW2 6843   5.733   3.239   3.034 -0.9917  0.5900 -0.2049
 1982SOL     OW 6844   6.077   6.112   5.323 -0.5821  0.5566  0.1604
 1982SOL    HW1 6845   6.156   6.073   5.370  0.2466  1.0649 -0.7813
 1982SOL    HW2 6846   6.011   6.040   5.303 -1.3754  0.4253  2.8045
 1983SOL     OW 6847   1.357   4.571   0.585 -0.6456  0.5416  0.1605
 1983SOL    HW1 6848   1.418   4.575   0.664  1.0560  0.3622 -1.1002
 1983SOL    HW2 6849   1.371   4.485   0.536  0.3004  1.7538 -1.8261
 1984SOL     OW 6850   3.865   1.117   0.017  0.0736  0.4148  0.2745
 1984SOL    HW1 6851   3.825   1.049   0.079  2.0344  0.2743  1.4598
 1984SOL    HW2 6852   3.928   1.072  -0.045 -0.8240  0.7711 -0.9384
 1985SOL     OW 6853   3.416   5.149   2.002 -0.1365 -0.0186  0.7036
 1985SOL    HW1 6854   3.367   5.189   1.924  0.1059 -0.9072  0.0825
 1985SOL    HW2 6855   3.351   5.098   2.059 -0.2494  0.3171  0.8756
 1986SOL     OW 6856   5.960   0.908   3.453  0.0834  0.1644 -0.0473
 1986SOL    HW1 6857   6.028   0.975   3.483  0.6191  0.6693 -2.2551
 1986SOL    HW2 6858   6.004   0.821   3.434  0.5579  1.0160 -3.3338
 1987SOL     OW 6859   0.989   2.958   0.048  0.5014  0.1214  0.3530
 1987SOL    HW1 6860   1.020   2.922   0.136  0.3499  0.4571  0.5475
 1987SOL    HW2 6861   1.056   3.023   0.013  0.2516  0.4877  0.5438
 1988SOL     OW 6862   4.869   1.997   1.145 -0.2835 -0.3876  0.5376
 1988SOL    HW1 6863   4.814   1.946   1.079 -0.6027 -1.6514  1.7353
 1988SOL    HW2 6864   4.810   2.031   1.219 -0.5782  3.9440 -1.3461
 1989SOL     OW 6865   2.439   1.607   1.528 -0.1616  0.8775 -0.0653
 1989SOL    HW1 6866   2.503   1.539   1.490 -1.2972 -1.1939  1.5213
 1989SOL    HW2 6867   2.492   1.680   1.571  1.1647 -0.0523 -0.0140
 1990SOL     OW 6868   1.236   4.807   2.383  0.4176  0.3544 -0.2625
 1990SOL    HW1 6869   1.218   4.761   2.295 -1.4886  0.1782  0.1738
 1990SOL    HW2 6870   1.238   4.906   2.369  1.3144  0.2880 -0.6798
 1991SOL     OW 6871   6.655   0.330   1.849  0.0808 -0.1744 -0.4475
 1991SOL    HW1 6872   6.744   0.284   1.856  0.5984  0.8976  0.4266
 1991SOL    HW2 6873   6.583   0.262   1.840  0.6851 -1.2915  2.1887
 1992SOL     OW 6874   2.122   4.835   3.756 -0.3531 -0.3525 -0.0010
 1992SOL    HW1 6875   2.050   4.866   3.694 -0.4596  0.1776  0.3730
 1992SOL    HW2 6876   2.095   4.856   3.850  0.8661  1.0766  0.0629
 1993SOL     OW 6877   3.415   3.264   2.875 -1.0947  0.4849  0.0931
 1993SOL    HW1 6878   3.403   3.360   2.849 -0.3207  0.9936  1.5069
 1993SOL    HW2 6879   3.500   3.229   2.836 -2.3073 -0.2743 -2.0671
 1994SOL     OW 6880   6.394   1.053   2.075  0.2910 -0.0717 -0.0617
 1994SOL    HW1 6881   6.355   1.083   1.988  1.4342  0.8071 -0.3025
 1994SOL    HW2 6882   6.330   1.073   2.149  0.6573  2.2923 -0.3177
 1995SOL     OW 6883   4.158   2.694   1.726 -0.2892  0.2945  0.1824
 1995SOL    HW1 6884   4.177   2.792   1.740  0.5055  0.4056 -1.3534
 1995SOL    HW2 6885   4.082   2.685   1.662 -1.4249 -0.1270  1.5610
 1996SOL     OW 6886   1.457   4.551   4.770 -0.0116  0.0837  0.4645
 1996SOL    HW1 6887   1.466   4.475   4.706 -0.5041 -1.0240  1.6762
 1996SOL    HW2 6888   1.546   4.572   4.810  0.2554  0.6275 -0.3835
 1997SOL     OW 6889   4.979   6.838   3.808  0.2289 -0.3456 -0.3411
 1997SOL    HW1 6890   4.895   6.891   3.796 -0.4040 -1.1864  0.2203
 1997SOL    HW2 6891   4.971   6.752   3.756  0.8305 -0.3430 -0.4450
 1998SOL     OW 6892   2.769   5.299   5.584 -0.0600  0.7779 -0.0914
 1998SOL    HW1 6893   2.841   5.236   5.556 -1.4874 -0.5178 -0.9645
 1998SOL    HW2 6894   2.739   5.354   5.506 -1.9695 -0.7327 -0.4995
 1999SOL     OW 6895   5.049   6.215   1.277 -0.2960  0.2529  0.6362
 1999SOL    HW1 6896   5.012   6.297   1.321 -1.3680  0.9115 -1.3922
 1999SOL    HW2 6897   4.992   6.136   1.300 -2.0083  0.9447 -1.0508
 2000SOL     OW 6898   3.951   2.006   1.659 -0.5720 -0.7774  0.1087
 2000SOL    HW1 6899   3.949   2.105   1.667  0.6482 -0.9060  4.3540
 2000SOL    HW2 6900   3.958   1.980   1.563  0.6676  3.2555 -1.0699
 2001SOL     OW 6901   1.938   3.863   6.798  0.4039 -0.1312  0.1774
 2001SOL    HW1 6902   1.865   3.846   6.732 -0.6666  0.2548  1.2405
 2001SOL    HW2 6903   1.908   3.930   6.865  2.1551  0.9206 -0.0195
 2002SOL     OW 6904   0.786   4.948   4.636 -0.3211 -0.0908 -0.0323
 2002SOL    HW1 6905   0.713   4.949   4.568  0.3926 -0.2364 -0.8136
 2002SOL    HW2 6906   0.863   5.002   4.603  0.3144 -0.7552  0.3434
 2003SOL     OW 6907   6.874   2.016   5.751  0.0370  0.4758  0.8880
 2003SOL    HW1 6908   6.867   2.100   5.696  2.0827 -0.7950 -1.5148
 2003SOL    HW2 6909   6.827   1.942   5.702  0.8445 -0.4346  1.4800
 2004SOL     OW 6910   3.515   0.466   6.688 -0.1606  0.7460  0.6359
 2004SOL    HW1 6911   3.484   0.418   6.770  0.2991 -0.2189  0.2609
 2004SOL    HW2 6912   3.466   0.431   6.609  1.7362 -0.7204  0.0532
 2005SOL     OW 6913   1.732   0.055   5.836 -0.2148 -0.0140 -0.2843
 2005SOL    HW1 6914   1.678  -0.026   5.813 -0.2648 -0.5158  1.4577
 2005SOL    HW2 6915   1.827   0.029   5.852 -0.0844  0.3923 -0.3693
 2006SOL     OW 6916   3.915   6.315   1.548 -0.1197 -0.2435  0.0499
 2006SOL    HW1 6917   3.880   6.409   1.552  0.1289 -0.1118 -0.7737
 2006SOL    HW2 6918   3.894   6.269   1.635  0.0784  0.6772  0.6082
 2007SOL     OW 6919   2.014   4.874   0.356 -0.1070 -0.0808  0.5323
 2007SOL    HW1 6920   1.987   4.780   0.332  1.4437 -0.3926 -0.1521
 2007SOL    HW2 6921   1.948   4.938   0.319 -1.1108 -0.8911  0.8692
 2008SOL     OW 6922   5.943   0.664   4.512  0.4950 -0.1912 -0.3282
 2008SOL    HW1 6923   5.888   0.655   4.429 -3.3139  0.6582  1.8686
 2008SOL    HW2 6924   5.961   0.574   4.550  0.9399 -0.5045 -1.2604
 2009SOL     OW 6925   1.531   0.143   0.106 -0.0335 -0.0675  0.0237
 2009SOL    HW1 6926   1.604   0.078   0.125  1.5933  1.3713 -1.0011
 2009SOL    HW2 6927   1.515   0.200   0.187  1.2869  0.7986 -0.2957
 2010SOL     OW 6928   2.945   1.176   6.771  0.0969  0.4279 -0.0412
 2010SOL    HW1 6929   3.036   1.193   6.733 -0.1998  1.9259 -0.1445
 2010SOL    HW2 6930   2.925   1.078   6.765  1.1737  0.2381 -1.2160
 2011SOL     OW 6931   6.117   0.436   4.633  0.0195  0.3791 -0.2829
 2011SOL    HW1 6932   6.204   0.394   4.659  0.3076  0.6449 -0.7883
 2011SOL    HW2 6933   6.041   0.380   4.667  0.3962 -0.2961 -0.5344
 2012SOL     OW 6934   6.582   2.837   1.672 -0.1052  0.3308 -0.0668
 2012SOL    HW1 6935   6.681   2.828   1.670  0.1245  2.4204  0.3276
 2012SOL    HW2 6936   6.543   2.768   1.733  1.2450  0.5310  1.0454
 2013SOL     OW 6937   3.385   1.474   3.201 -0.2162  0.4098 -0.1235
 2013SOL    HW1 6938   3.380   1.574   3.204 -1.2564  0.3494  0.4618
 2013SOL    HW2 6939   3.413   1.445   3.109  4.0805  1.3374  0.6485
 2014SOL     OW 6940   4.576   5.696   3.991 -0.0110 -0.5582  0.9090
 2014SOL    HW1 6941   4.568   5.754   4.072  1.4609 -0.3741  0.9444
 2014SOL    HW2 6942   4.601   5.603   4.019  0.9316 -0.3876  0.6425
 2015SOL     OW 6943   5.045   5.234   6.653 -0.2279  0.4704  0.2148
 2015SOL    HW1 6944   5.062   5.327   6.687 -0.0795 -0.2011  2.1292
 2015SOL    HW2 6945   5.132   5.187   6.639 -0.2964  0.6773 -0.9821
 2016SOL     OW 6946   0.367   0.563   6.073 -0.0083 -0.0620  0.1511
 2016SOL    HW1 6947   0.357   0.479   6.127  0.2973 -0.5106 -0.4773
 2016SOL    HW2 6948   0.460   0.597   6.080 -0.0980  0.1591  0.2988
 2017SOL     OW 6949   4.325   5.632   0.137  0.4717 -0.3751  0.4435
 2017SOL    HW1 6950   4.327   5.532   0.146  0.2987 -0.2362  2.6348
 2017SOL    HW2 6951   4.290   5.672   0.222  0.7380  1.5636 -0.3185
 2018SOL     OW 6952   1.640   3.170   4.868  0.6391 -0.3306  0.6216
 2018SOL    HW1 6953   1.717   3.209   4.919  0.6425 -0.6131  0.8339
 2018SOL    HW2 6954   1.675   3.114   4.794  0.6429  1.0926 -0.4933
 2019SOL     OW 6955   5.137   0.619   1.912  0.4587 -0.3052 -0.2494
 2019SOL    HW1 6956   5.176   0.630   2.003 -0.8650 -0.6620  0.3970
 2019SOL    HW2 6957   5.205   0.580   1.851  1.0195 -1.1895  0.9006
 2020SOL     OW 6958   2.035   5.757   2.993 -0.0924 -0.1244  0.3988
 2020SOL    HW1 6959   1.980   5.674   2.997 -1.2502  0.6320  0.6426
 2020SOL    HW2 6960   2.039   5.791   2.899  2.6241 -1.8649 -0.2390
 2021SOL     OW 6961   1.610   5.291   2.385 -0.4213  0.1763 -0.2923
 2021SOL    HW1 6962   1.644   5.346   2.462 -0.2579  0.1104 -0.3154
 2021SOL    HW2 6963   1.682   5.282   2.317 -0.6245  0.3763 -0.5323
 2022SOL     OW 6964   5.351   5.935   0.667 -0.3474 -0.3869 -0.4648
 2022SOL    HW1 6965   5.326   5.871   0.595  0.7115  0.2075 -1.3922
 2022SOL    HW2 6966   5.399   6.013   0.627 -0.2875  0.2576  0.8155
 2023SOL     OW 6967   0.672   0.229   6.303 -0.3266 -0.2352 -0.3976
 2023SOL    HW1 6968   0.734   0.220   6.381 -1.4200  1.2243  0.7262
 2023SOL    HW2 6969   0.577   0.228   6.336 -0.9717 -2.4895 -2.0656
 2024SOL     OW 6970   5.618   5.481   2.915 -0.0192  0.4500 -0.1507
 2024SOL    HW1 6971   5.689   5.420   2.879  0.5806  0.9363  0.1825
 2024SOL    HW2 6972   5.586   5.447   3.003 -0.2529  0.1940 -0.3319
 2025SOL     OW 6973   4.918   1.857   1.997 -0.6082 -0.3061  0.2941
 2025SOL    HW1 6974   4.834   1.875   1.946 -1.2008 -2.3357  0.4851
 2025SOL    HW2 6975   4.907   1.887   2.092 -0.7122  0.3978  0.0682
 2026SOL     OW 6976   3.034   0.755   6.108  0.2298  0.0158 -0.3080
 2026SOL    HW1 6977   3.073   0.835   6.154  0.6837 -0.6318  0.4504
 2026SOL    HW2 6978   2.934   0.760   6.110  0.2531  0.3432  0.1047
 2027SOL     OW 6979   5.919   6.881   2.202  0.2467 -0.0490 -0.5935
 2027SOL    HW1 6980   5.976   6.851   2.126 -0.1660 -3.8229  0.3539
 2027SOL    HW2 6981   5.970   6.871   2.288 -0.9583 -0.9727  0.0407
 2028SOL     OW 6982   4.433   4.265   5.311  0.2583  0.4155 -0.6023
 2028SOL    HW1 6983   4.478   4.175   5.301  0.9420  0.8688 -1.7537
 2028SOL    HW2 6984   4.339   4.259   5.279  0.8414  0.5278 -2.4602
 2029SOL     OW 6985   3.171   6.092   6.524  1.2215  0.5598  0.4956
 2029SOL    HW1 6986   3.166   6.187   6.493 -0.1959 -0.0144 -1.1906
 2029SOL    HW2 6987   3.167   6.031   6.445 -2.6521 -1.0137  1.6718
 2030SOL     OW 6988   3.585   1.855   5.057 -0.2430  0.8766 -0.0017
 2030SOL    HW1 6989   3.508   1.828   4.998  0.9976  1.4131 -1.9638
 2030SOL    HW2 6990   3.669   1.811   5.025  0.3541  0.5503  1.9140
 2031SOL     OW 6991   5.959   6.468   3.651 -0.3661  0.5540 -0.8754
 2031SOL    HW1 6992   5.976   6.510   3.562  0.0234  0.7365 -0.7194
 2031SOL    HW2 6993   5.914   6.535   3.711  1.3462  1.2083 -0.2271
 2032SOL     OW 6994   5.972   6.268   1.113  0.1733  0.0589 -0.3868
 2032SOL    HW1 6995   6.034   6.339   1.147  0.8601 -0.4238 -0.6033
 2032SOL    HW2 6996   5.984   6.258   1.014  0.3942 -0.6485 -0.2918
 2033SOL     OW 6997   0.836   4.192   1.391  0.2646 -0.0772 -0.2850
 2033SOL    HW1 6998   0.799   4.210   1.482 -0.9768  0.4577 -0.8673
 2033SOL    HW2 6999   0.837   4.094   1.375 -1.0537 -0.1140 -0.2792
 2034SOL     OW 7000   0.956   4.427   2.793  0.1852 -0.4465  0.3345
 2034SOL    HW1 7001   0.884   4.391   2.852 -0.8350 -0.7935 -1.0658
 2034SOL    HW2 7002   0.972   4.364   2.718 -0.1079  0.9608 -0.9617
 2035SOL     OW 7003   6.730   2.117   2.742  0.2348 -0.1621  0.3132
 2035SOL    HW1 7004   6.682   2.123   2.829  0.1311 -0.9152  0.3104
 2035SOL    HW2 7005   6.794   2.040   2.743  0.4915  0.0355 -0.1509
 2036SOL     OW 7006   1.139   4.094   3.437 -0.3248  0.6907  0.2317
 2036SOL    HW1 7007   1.196   4.093   3.356  0.0994 -0.7458  0.5220
 2036SOL    HW2 7008   1.054   4.143   3.418 -0.2417  0.3493 -1.0699
 2037SOL     OW 7009   1.172   4.644   5.963 -0.1894  0.8290  0.0195
 2037SOL    HW1 7010   1.101   4.603   6.020 -1.9788  0.5081 -2.2652
 2037SOL    HW2 7011   1.153   4.622   5.867  0.7513  4.0890 -1.0192
 2038SOL     OW 7012   0.248   5.034   6.381  0.2837 -0.3038 -0.0680
 2038SOL    HW1 7013   0.244   4.934   6.379  0.6306 -0.4318  2.3463
 2038SOL    HW2 7014   0.312   5.063   6.452 -0.6645  1.6353  0.0475
 2039SOL     OW 7015   2.515   1.182   2.255  0.1431  0.4313  0.1875
 2039SOL    HW1 7016   2.491   1.251   2.324 -0.3758  2.0306 -1.4906
 2039SOL    HW2 7017   2.523   1.227   2.166 -0.8813 -1.8086 -1.1109
 2040SOL     OW 7018   3.419   4.196   4.284  0.0993  0.0565  0.0507
 2040SOL    HW1 7019   3.388   4.135   4.357 -0.9319  0.5668  0.0589
 2040SOL    HW2 7020   3.348   4.202   4.214  1.1849 -0.6556 -1.1672
 2041SOL     OW 7021   3.697   3.527   0.324  0.8223 -0.1400 -0.8876
 2041SOL    HW1 7022   3.627   3.575   0.271 -0.2244 -0.5342  0.0769
 2041SOL    HW2 7023   3.728   3.586   0.398  0.9306 -0.2547 -0.8423
 2042SOL     OW 7024   3.675   0.166   1.514 -0.0043 -0.0851 -0.3304
 2042SOL    HW1 7025   3.765   0.200   1.540  1.3220 -3.7640  0.5905
 2042SOL    HW2 7026   3.612   0.176   1.592  0.5555 -0.3256  0.1674
 2043SOL     OW 7027   5.692   4.043   3.160 -0.2966  0.5557  0.1144
 2043SOL    HW1 7028   5.763   3.980   3.130 -0.2804  0.5726  0.1175
 2043SOL    HW2 7029   5.702   4.130   3.112 -0.5291  0.4406 -0.1442
 2044SOL     OW 7030   4.438   0.494   2.741 -0.3282 -0.2652  0.4840
 2044SOL    HW1 7031   4.529   0.534   2.753  0.0741 -1.2616  0.7957
 2044SOL    HW2 7032   4.374   0.537   2.805  0.0324  0.0701  0.6239
 2045SOL     OW 7033   3.289   0.620   4.976 -0.1432 -0.3155  0.1356
 2045SOL    HW1 7034   3.372   0.656   5.017  0.1656 -0.1978 -0.5918
 2045SOL    HW2 7035   3.245   0.690   4.919  0.0090 -0.8057 -0.5999
 2046SOL     OW 7036   6.274   0.962   4.016  0.1627 -0.1270 -0.4283
 2046SOL    HW1 7037   6.252   0.870   4.048  0.3448 -0.8149 -2.1793
 2046SOL    HW2 7038   6.365   0.988   4.049  0.1555 -0.6267 -0.0113
 2047SOL     OW 7039   5.421   2.958   0.716  0.5839 -0.2309 -0.0267
 2047SOL    HW1 7040   5.364   2.875   0.712  0.2316 -0.0438  0.8652
 2047SOL    HW2 7041   5.485   2.958   0.638 -1.0946 -0.0986 -1.4763
 2048SOL     OW 7042   5.571   6.408   5.316  0.1843 -0.1646 -0.5402
 2048SOL    HW1 7043   5.589   6.344   5.390  0.9691  0.1451 -0.4546
 2048SOL    HW2 7044   5.565   6.359   5.229  0.6259 -0.3687 -0.4556
 2049SOL     OW 7045   0.589   5.303   0.168  0.0135  0.0818  0.0882
 2049SOL    HW1 7046   0.593   5.400   0.143 -2.0539  0.0960 -0.4217
 2049SOL    HW2 7047   0.579   5.248   0.085 -0.9039 -0.3718  0.4825
 2050SOL     OW 7048   4.180   0.994   3.264 -0.9907  0.0915  0.2314
 2050SOL    HW1 7049   4.174   0.963   3.169 -0.2387 -1.4419  0.6423
 2050SOL    HW2 7050   4.273   0.978   3.298 -1.1139  1.0839  1.0846
 2051SOL     OW 7051   3.650   5.354   0.063 -0.6179 -0.5252 -0.1218
 2051SOL    HW1 7052   3.565   5.321   0.022 -0.9507 -1.1480  1.0389
 2051SOL    HW2 7053   3.701   5.408  -0.005 -1.6579 -0.6198 -1.0027
 2052SOL     OW 7054   1.886   2.330   1.188  0.5322 -0.6074  0.5151
 2052SOL    HW1 7055   1.816   2.334   1.260  0.2378  0.9676  0.1824
 2052SOL    HW2 7056   1.933   2.242   1.191 -1.4959 -1.7281  0.7211
 2053SOL     OW 7057   3.173   1.502   6.865  0.1390 -0.2025 -0.3350
 2053SOL    HW1 7058   3.165   1.427   6.931  0.3252 -1.2163 -1.4421
 2053SOL    HW2 7059   3.269   1.527   6.855  0.2972 -1.1948 -1.4523
 2054SOL     OW 7060   1.379   1.956   0.150  0.4633 -0.4017  0.0301
 2054SOL    HW1 7061   1.317   2.014   0.097  1.3382  0.1227 -0.4432
 2054SOL    HW2 7062   1.446   2.013   0.197  0.6737 -0.9677  0.4245
 2055SOL     OW 7063   0.514   7.021   3.841 -0.1317  0.1062 -0.1031
 2055SOL    HW1 7064   0.456   7.102   3.832 -1.1003 -0.3964  1.1345
 2055SOL    HW2 7065   0.485   6.952   3.775 -0.8185 -0.0444  0.3349
 2056SOL     OW 7066   5.994   0.457   3.580  0.5204 -0.0267 -0.4295
 2056SOL    HW1 7067   6.037   0.367   3.584  0.3309 -0.0732  2.2767
 2056SOL    HW2 7068   5.897   0.446   3.559  0.6256 -0.3920 -0.7395
 2057SOL     OW 7069   4.503   2.166   4.051  0.8955  0.0425  0.5759
 2057SOL    HW1 7070   4.570   2.237   4.073  1.5383 -0.7530  1.2678
 2057SOL    HW2 7071   4.436   2.159   4.124  0.3134  0.5339  0.0923
 2058SOL     OW 7072   2.064   2.270   1.965 -0.0124  0.5254 -0.7743
 2058SOL    HW1 7073   2.063   2.344   1.898  2.3125 -0.0855 -1.5874
 2058SOL    HW2 7074   2.085   2.184   1.919 -0.1599 -0.2219  0.5058
 2059SOL     OW 7075   0.289   6.807   2.192  0.0520  0.2927 -0.0218
 2059SOL    HW1 7076   0.196   6.776   2.174  0.3774 -0.7258 -0.0596
 2059SOL    HW2 7077   0.345   6.794   2.110  0.3200  0.4911  0.1288
 2060SOL     OW 7078   1.530   4.234   3.919  0.0330 -0.4427 -0.0715
 2060SOL    HW1 7079   1.447   4.197   3.877 -0.6162 -1.2254  1.7883
 2060SOL    HW2 7080   1.609   4.179   3.892 -0.4406 -1.2151  0.0995
 2061SOL     OW 7081   0.227   1.748   6.771 -0.0491 -0.1954  0.2792
 2061SOL    HW1 7082   0.257   1.746   6.867  1.9611  0.8232 -0.2816
 2061SOL    HW2 7083   0.303   1.720   6.712 -1.1988 -0.6168 -1.0521
 2062SOL     OW 7084   4.325   0.121   3.645 -0.2048  0.4849 -0.1339
 2062SOL    HW1 7085   4.260   0.056   3.606 -1.0460  1.6954 -0.8276
 2062SOL    HW2 7086   4.399   0.071   3.691 -0.7968 -0.9395 -0.6669
 2063SOL     OW 7087   2.699   3.342   1.440 -0.5000  0.4046 -0.5209
 2063SOL    HW1 7088   2.743   3.252   1.436 -1.3601 -0.0283 -0.6160
 2063SOL    HW2 7089   2.677   3.365   1.534  1.8331  1.6017 -0.2054
 2064SOL     OW 7090   6.589   0.979   3.120 -0.7748 -0.5381 -0.0564
 2064SOL    HW1 7091   6.619   0.930   3.202  0.2212 -1.1533 -0.7800
 2064SOL    HW2 7092   6.505   0.938   3.085 -0.9730 -0.5346  0.4065
 2065SOL     OW 7093   6.420   3.009   4.109 -0.2468  0.0411  0.0325
 2065SOL    HW1 7094   6.345   3.052   4.059 -0.0590  1.3156  0.8096
 2065SOL    HW2 7095   6.384   2.940   4.172 -0.7412  0.4499  0.1984
 2066SOL     OW 7096   0.582   5.302   3.569 -0.6853 -0.1114  0.4383
 2066SOL    HW1 7097   0.661   5.259   3.526 -0.2160  1.0024  0.1511
 2066SOL    HW2 7098   0.535   5.235   3.627  1.7033 -0.2930  2.3504
 2067SOL     OW 7099   5.958   0.969   0.638 -0.4547 -0.0757 -0.3163
 2067SOL    HW1 7100   5.880   0.952   0.578 -0.6886 -2.4357  0.5410
 2067SOL    HW2 7101   6.005   0.883   0.658 -0.5418  0.5018  3.0578
 2068SOL     OW 7102   2.560   1.738   4.742 -0.2037 -0.6323  0.2790
 2068SOL    HW1 7103   2.541   1.815   4.802  0.7299 -1.5852  1.8878
 2068SOL    HW2 7104   2.634   1.762   4.679  0.5029 -0.3797  1.1778
 2069SOL     OW 7105   2.976   2.095   0.970  0.3349 -0.0372 -0.1210
 2069SOL    HW1 7106   2.934   2.183   0.988  1.5271  0.7460 -0.9493
 2069SOL    HW2 7107   3.019   2.097   0.879  0.8003 -1.3003  0.0491
 2070SOL     OW 7108   3.144   2.167   4.071 -0.0951  0.5050  0.0014
 2070SOL    HW1 7109   3.129   2.243   4.133 -1.1286  0.6320 -0.3879
 2070SOL    HW2 7110   3.139   2.081   4.122 -0.3380  0.6383  0.2053
 2071SOL     OW 7111   2.455   6.403   4.093  0.3876 -0.4100 -0.1351
 2071SOL    HW1 7112   2.440   6.313   4.134 -0.7914 -0.6884 -1.1136
 2071SOL    HW2 7113   2.475   6.393   3.996 -2.1303  0.4316 -0.8326
 2072SOL     OW 7114   5.345   4.921   3.038  0.7329  0.1514  0.4146
 2072SOL    HW1 7115   5.293   4.921   2.952  0.5522  0.1583  0.5247
 2072SOL    HW2 7116   5.378   4.829   3.057  0.5546  0.0989  0.4703
 2073SOL     OW 7117   4.841   5.978   3.972  0.2127  0.0651 -0.6251
 2073SOL    HW1 7118   4.917   5.994   3.910  1.0131  0.8891  0.5181
 2073SOL    HW2 7119   4.850   5.888   4.015  0.1490 -0.1269 -1.0121
 2074SOL     OW 7120   5.349   1.119   3.477  0.1973 -0.1103 -0.3126
 2074SOL    HW1 7121   5.300   1.049   3.528  1.1241  0.4107  1.3664
 2074SOL    HW2 7122   5.405   1.076   3.406  1.1654 -1.1685  1.0228
 2075SOL     OW 7123   3.262   2.653   6.280 -0.2931  0.7262  0.2820
 2075SOL    HW1 7124   3.279   2.682   6.374  0.5067  3.6818 -0.6699
 2075SOL    HW2 7125   3.329   2.583   6.255  1.7238  2.3339  0.9175
 2076SOL     OW 7126   6.726   0.044   2.011  0.4082 -0.6231  0.0112
 2076SOL    HW1 7127   6.796   0.059   2.080  0.0617 -0.3678  0.3083
 2076SOL    HW2 7128   6.642   0.013   2.054  0.1563 -0.3538 -0.2833
 2077SOL     OW 7129   3.752   1.868   5.334  0.1446  0.4581  0.1318
 2077SOL    HW1 7130   3.701   1.836   5.254 -0.2833  0.9197  0.2168
 2077SOL    HW2 7131   3.723   1.961   5.357 -0.3650  0.0240  1.3538
 2078SOL     OW 7132   4.342   5.846   6.157 -0.2278  0.3139  0.1915
 2078SOL    HW1 7133   4.293   5.865   6.242  2.6442 -0.6668  2.2549
 2078SOL    HW2 7134   4.403   5.923   6.136  1.5393 -0.7799  1.0185
 2079SOL     OW 7135   4.017   5.828   3.857  0.1265 -0.1247 -1.2953
 2079SOL    HW1 7136   4.039   5.885   3.777  0.1888  1.0231 -0.4883
 2079SOL    HW2 7137   4.091   5.763   3.873  1.0648  0.9832 -1.0078
 2080SOL     OW 7138   2.382   1.215   5.088  0.5382 -0.1770 -0.1469
 2080SOL    HW1 7139   2.324   1.222   5.169  0.4373 -1.1820 -0.1099
 2080SOL    HW2 7140   2.347   1.142   5.029  1.9523 -1.0389  0.0400
 2081SOL     OW 7141   2.029   4.226   4.139  0.1965 -0.5239  0.1024
 2081SOL    HW1 7142   2.021   4.325   4.145 -0.9090 -0.6086  0.2861
 2081SOL    HW2 7143   2.110   4.202   4.085  1.0133  0.4514  0.8610
 2082SOL     OW 7144   3.223   6.222   3.922  0.0474 -0.1408 -0.7775
 2082SOL    HW1 7145   3.260   6.215   3.829  1.6827 -1.8886 -0.0643
 2082SOL    HW2 7146   3.184   6.135   3.950 -0.6931  0.4469  0.0985
 2083SOL     OW 7147   4.552   3.353   5.826 -0.4573 -0.1275  0.1901
 2083SOL    HW1 7148   4.611   3.285   5.870 -0.6831 -0.7313 -0.4301
 2083SOL    HW2 7149   4.485   3.306   5.768 -1.4762  0.5554  0.7972
 2084SOL     OW 7150   1.274   4.064   3.206  0.4907  0.4507  0.0455
 2084SOL    HW1 7151   1.365   4.024   3.200 -0.5387 -1.8885 -1.4642
 2084SOL    HW2 7152   1.250   4.107   3.119 -0.1677  0.2619  0.1257
 2085SOL     OW 7153   0.543   5.077   6.275  0.1559  0.1613  0.0811
 2085SOL    HW1 7154   0.595   5.124   6.347 -0.8519  0.7336  0.4586
 2085SOL    HW2 7155   0.509   4.990   6.310 -0.8266  0.6996  0.5221
 2086SOL     OW 7156   3.681   0.076   0.146  0.5576 -0.6553  0.2346
 2086SOL    HW1 7157   3.686   0.160   0.201 -0.5726 -1.2982  1.3784
 2086SOL    HW2 7158   3.733   0.003   0.192 -0.8961 -1.3685  0.8241
 2087SOL     OW 7159   6.491   5.359   3.258 -0.3610  0.1545  0.4146
 2087SOL    HW1 7160   6.490   5.410   3.344  1.4790  0.4266  0.3107
 2087SOL    HW2 7161   6.413   5.387   3.202 -1.0024  0.7301  1.5438
 2088SOL     OW 7162   3.563   6.014   0.864  0.6308 -0.9382  0.0642
 2088SOL    HW1 7163   3.570   6.010   0.764  1.1890  0.2320  0.0358
 2088SOL    HW2 7164   3.554   6.109   0.892  1.8584 -1.1355  1.2129
 2089SOL     OW 7165   2.101   0.174   5.397  0.0314  0.5862  0.6983
 2089SOL    HW1 7166   2.071   0.269   5.411  0.8968  1.0345 -0.3835
 2089SOL    HW2 7167   2.189   0.160   5.441  0.3649  0.5675  0.0325
 2090SOL     OW 7168   3.529   3.679   2.472  0.0552 -0.0035 -0.1511
 2090SOL    HW1 7169   3.520   3.719   2.563  0.2253 -1.1618  0.3996
 2090SOL    HW2 7170   3.625   3.684   2.444  0.4389 -1.5893  0.7099
 2091SOL     OW 7171   6.838   3.816   1.727  0.5106  0.0039 -0.3091
 2091SOL    HW1 7172   6.776   3.886   1.693 -0.2471 -0.2245  0.5692
 2091SOL    HW2 7173   6.794   3.766   1.802  0.9593 -1.5164 -1.0222
 2092SOL     OW 7174   4.778   1.531   6.162 -0.1308 -0.1096 -0.3309
 2092SOL    HW1 7175   4.729   1.447   6.185  2.1474 -1.5160 -0.3143
 2092SOL    HW2 7176   4.735   1.609   6.209 -1.8681 -1.3580  0.2273
 2093SOL     OW 7177   6.534   2.406   1.462  0.1525  0.3520 -0.2875
 2093SOL    HW1 7178   6.532   2.329   1.527 -0.8188  0.8873  0.3395
 2093SOL    HW2 7179   6.561   2.373   1.372  1.8947 -0.3525  0.4504
 2094SOL     OW 7180   0.156   1.126   2.766 -0.3147 -0.2109 -0.1220
 2094SOL    HW1 7181   0.082   1.058   2.774 -1.2120  0.4258 -2.3912
 2094SOL    HW2 7182   0.210   1.107   2.685 -0.9877  2.1120 -1.1816
 2095SOL     OW 7183   0.230   2.147   4.555 -0.3920 -0.4599 -0.0302
 2095SOL    HW1 7184   0.303   2.119   4.492 -0.3171 -0.7698  0.1901
 2095SOL    HW2 7185   0.199   2.239   4.532 -0.4474 -0.6186 -0.5948
 2096SOL     OW 7186   4.165   5.278   4.612  0.4298  0.0155  0.3679
 2096SOL    HW1 7187   4.133   5.334   4.536  1.0066 -0.2815 -0.0988
 2096SOL    HW2 7188   4.199   5.190   4.578 -0.0814 -0.4600  1.0522
 2097SOL     OW 7189   0.787   4.542   4.856 -0.2009  0.1532 -0.6835
 2097SOL    HW1 7190   0.747   4.620   4.903 -0.2222  0.1777 -0.7416
 2097SOL    HW2 7191   0.721   4.466   4.855  0.0937 -0.1127  0.0119
 2098SOL     OW 7192   1.246   0.274   5.262 -0.1269 -0.7376 -0.1509
 2098SOL    HW1 7193   1.249   0.347   5.194 -1.4366  0.0511  0.5944
 2098SOL    HW2 7194   1.151   0.249   5.279  0.2370 -1.5716  0.7050
 2099SOL     OW 7195   3.564   0.644   5.076  0.7874 -0.3237 -0.1111
 2099SOL    HW1 7196   3.578   0.561   5.130 -0.8407  0.3694  1.4759
 2099SOL    HW2 7197   3.640   0.707   5.091  1.8658 -1.3480 -1.0713
 2100SOL     OW 7198   4.050   2.593   5.853  0.3308 -0.0930  0.6532
 2100SOL    HW1 7199   4.044   2.655   5.931  0.3969 -0.3719  0.8815
 2100SOL    HW2 7200   3.974   2.528   5.856  0.0084  0.2568  0.1682
 2101SOL     OW 7201   5.427   6.854   1.127 -0.3759  0.3328  0.4901
 2101SOL    HW1 7202   5.487   6.890   1.198 -1.4269 -0.4272  1.7983
 2101SOL    HW2 7203   5.352   6.802   1.169 -1.4094  0.4349 -1.1420
 2102SOL     OW 7204   0.874   4.345   1.795 -0.1985  0.3353 -0.3261
 2102SOL    HW1 7205   0.852   4.442   1.783 -1.3286 -0.0313 -1.2798
 2102SOL    HW2 7206   0.939   4.336   1.871 -0.0807  1.8300 -0.2120
 2103SOL     OW 7207   4.155   5.181   5.505 -0.7982  0.4231  0.5826
 2103SOL    HW1 7208   4.161   5.108   5.437  0.3447 -2.3058  3.4303
 2103SOL    HW2 7209   4.060   5.208   5.516 -1.2280 -0.5115 -0.5980
 2104SOL     OW 7210   1.485   4.663   6.773  0.0814  0.2115  0.0392
 2104SOL    HW1 7211   1.403   4.607   6.786  0.2858  0.2474  1.8297
 2104SOL    HW2 7212   1.472   4.724   6.695 -1.0849 -0.6673 -0.4866
 2105SOL     OW 7213   5.253   6.236   2.552 -0.2688 -0.3801 -0.7541
 2105SOL    HW1 7214   5.155   6.247   2.537 -0.5904  0.2889  1.4602
 2105SOL    HW2 7215   5.303   6.304   2.498 -1.0888 -0.0803 -1.1456
 2106SOL     OW 7216   5.850   4.243   6.559  0.3776  0.4322 -0.1871
 2106SOL    HW1 7217   5.940   4.235   6.516  0.1602 -1.8432 -0.3223
 2106SOL    HW2 7218   5.842   4.174   6.631 -0.9405  1.2332  0.4628
 2107SOL     OW 7219   3.006   6.110   0.579  0.0121 -0.7533  0.0461
 2107SOL    HW1 7220   2.929   6.083   0.637  0.4874 -0.6102  0.7488
 2107SOL    HW2 7221   3.022   6.038   0.511  0.3990 -1.6424  1.0455
 2108SOL     OW 7222   5.381   6.610   2.015  0.6538  0.3350 -0.1915
 2108SOL    HW1 7223   5.369   6.671   1.937 -1.0013 -0.1045 -0.3298
 2108SOL    HW2 7224   5.322   6.529   2.003  3.7386 -2.0341 -0.6965
 2109SOL     OW 7225   5.072   6.105   3.624  0.0241 -0.5888 -0.0063
 2109SOL    HW1 7226   5.128   6.157   3.560 -1.9725  2.4052  0.4728
 2109SOL    HW2 7227   5.132   6.058   3.690  1.9740 -0.2085 -1.4069
 2110SOL     OW 7228   1.694   3.615   3.519  0.3833 -0.5280 -0.3058
 2110SOL    HW1 7229   1.663   3.572   3.604  2.5270 -1.7106 -0.0701
 2110SOL    HW2 7230   1.741   3.548   3.462 -1.2072  0.1797 -2.6044
 2111SOL     OW 7231   1.272   2.590   1.702 -0.3479  0.8104  0.2911
 2111SOL    HW1 7232   1.210   2.512   1.689  0.0023  0.3730  1.1928
 2111SOL    HW2 7233   1.244   2.642   1.782  0.7534  0.2953  1.0342
 2112SOL     OW 7234   4.056   3.897   1.631 -0.0647  0.7019  0.0134
 2112SOL    HW1 7235   4.056   3.993   1.660  2.3301  1.0842 -0.9973
 2112SOL    HW2 7236   4.102   3.841   1.699 -0.0971  0.5287 -0.1045
 2113SOL     OW 7237   6.871   2.014   3.533 -0.1682 -0.5908 -0.1846
 2113SOL    HW1 7238   6.876   1.956   3.614 -2.3116 -0.2427  0.2617
 2113SOL    HW2 7239   6.838   1.961   3.455  1.2810 -0.7732 -0.6989
 2114SOL     OW 7240   3.548   3.912   6.277  0.2574 -0.2688 -0.5974
 2114SOL    HW1 7241   3.573   4.001   6.238 -1.5302  0.1873 -0.8001
 2114SOL    HW2 7242   3.453   3.891   6.254 -0.4291 -0.6680  2.2569
 2115SOL     OW 7243   2.975   5.561   1.270  0.5756 -0.1867 -0.7043
 2115SOL    HW1 7244   2.886   5.517   1.260  1.1923 -1.7180  0.1349
 2115SOL    HW2 7245   2.978   5.610   1.357  0.4339  0.1497 -0.8901
 2116SOL     OW 7246   1.834   3.857   3.403 -0.1253 -0.2831 -0.3138
 2116SOL    HW1 7247   1.916   3.800   3.407 -0.3664 -0.6170 -0.0320
 2116SOL    HW2 7248   1.754   3.801   3.423 -0.3236  0.2498  0.4472
 2117SOL     OW 7249   5.681   6.373   6.772 -1.3106  0.0972 -0.2131
 2117SOL    HW1 7250   5.752   6.434   6.809  0.4997 -1.0723 -1.5508
 2117SOL    HW2 7251   5.655   6.405   6.681 -2.2077  0.2623  0.0946
 2118SOL     OW 7252   6.312   2.152   1.319  0.7102 -0.3956  1.0804
 2118SOL    HW1 7253   6.329   2.140   1.221 -4.5040 -0.4849 -0.0812
 2118SOL    HW2 7254   6.220   2.189   1.333  1.0936 -0.6406  6.0360
 2119SOL     OW 7255   2.645   0.387   6.214 -0.6541 -0.0780 -0.1366
 2119SOL    HW1 7256   2.584   0.466   6.206 -0.1476  0.1388 -2.5943
 2119SOL    HW2 7257   2.731   0.415   6.258 -0.3125  0.8622 -1.3647
 2120SOL     OW 7258   6.564   3.600   2.674 -0.2658 -0.0211 -0.6896
 2120SOL    HW1 7259   6.550   3.692   2.710  1.9741  1.0767 -2.3362
 2120SOL    HW2 7260   6.531   3.596   2.580  0.0398 -0.7544 -0.7737
 2121SOL     OW 7261   6.705   5.312   5.407 -0.4093 -0.3066  0.2728
 2121SOL    HW1 7262   6.743   5.403   5.426 -1.0979 -0.0152  0.3046
 2121SOL    HW2 7263   6.770   5.258   5.354  0.0345  0.1872  0.3135
 2122SOL     OW 7264   4.327   4.746   6.544 -0.3062 -0.1781 -0.7005
 2122SOL    HW1 7265   4.340   4.786   6.634 -3.4520 -1.4026  0.4054
 2122SOL    HW2 7266   4.407   4.690   6.521  2.2200  2.9996 -0.4302
 2123SOL     OW 7267   3.058   5.045   2.626  0.2679  0.2561  0.2069
 2123SOL    HW1 7268   3.074   5.045   2.528  0.6904  0.7872  0.2696
 2123SOL    HW2 7269   3.112   4.973   2.669  1.5617  1.2301  0.2646
 2124SOL     OW 7270   3.144   2.904   1.799  0.2364 -0.0468 -0.0126
 2124SOL    HW1 7271   3.107   2.812   1.786 -0.3580  0.1950 -0.0756
 2124SOL    HW2 7272   3.232   2.912   1.753  0.8979 -0.9690  1.0324
 2125SOL     OW 7273   4.743   5.565   6.683  0.3599  0.2308 -0.7604
 2125SOL    HW1 7274   4.718   5.655   6.647 -2.2261 -0.2986 -0.4559
 2125SOL    HW2 7275   4.722   5.494   6.616  0.2904 -0.3465 -0.1425
 2126SOL     OW 7276   4.095   3.081   6.879  0.1536  0.3085  0.2001
 2126SOL    HW1 7277   4.069   2.984   6.875  1.4528 -0.0176 -1.4571
 2126SOL    HW2 7278   4.047   3.125   6.955 -1.0959 -1.4341  0.4897
 2127SOL     OW 7279   4.900   4.219   4.056 -0.2086  0.2790  0.1278
 2127SOL    HW1 7280   4.857   4.152   4.117 -1.3312  0.6518 -0.2412
 2127SOL    HW2 7281   4.837   4.294   4.038  1.2592  1.8219  1.0854
 2128SOL     OW 7282   1.525   3.954   3.184 -0.3088  0.1312  0.0387
 2128SOL    HW1 7283   1.517   3.912   3.274  2.4056 -1.1349 -0.2195
 2128SOL    HW2 7284   1.552   3.885   3.117  0.3688  1.5541 -1.2235
 2129SOL     OW 7285   5.231   2.036   4.748 -0.1430  0.5294 -0.6445
 2129SOL    HW1 7286   5.245   2.135   4.753 -0.7443  0.5904  0.1944
 2129SOL    HW2 7287   5.162   2.016   4.678 -1.1731  0.8601  0.2375
 2130SOL     OW 7288   2.836   6.458   2.777 -0.2875  0.3815 -0.5995
 2130SOL    HW1 7289   2.833   6.513   2.693 -0.5845  2.6414  0.8094
 2130SOL    HW2 7290   2.792   6.370   2.760 -1.6464  1.3337 -2.4258
 2131SOL     OW 7291   5.954   0.996   6.911 -0.1657 -0.3515  0.5421
 2131SOL    HW1 7292   5.896   0.921   6.880  0.4834 -0.8827  0.6002
 2131SOL    HW2 7293   6.050   0.970   6.903  0.1009  0.7470 -0.1465
 2132SOL     OW 7294   6.268   2.491   1.374  0.0422 -0.1401 -0.2063
 2132SOL    HW1 7295   6.361   2.464   1.397 -0.3882 -3.4646 -1.6388
 2132SOL    HW2 7296   6.221   2.413   1.331 -2.5810  2.1992 -1.9391
 2133SOL     OW 7297   1.145   6.193   4.560  0.2132  0.0318 -0.3383
 2133SOL    HW1 7298   1.166   6.125   4.630 -1.7199 -0.4991 -0.2036
 2133SOL    HW2 7299   1.225   6.249   4.542  1.3469 -1.1683  0.7978
 2134SOL     OW 7300   6.023   6.113   0.125  0.6773 -0.2964  0.1770
 2134SOL    HW1 7301   5.957   6.041   0.104  0.5939 -0.5784  1.3435
 2134SOL    HW2 7302   6.115   6.082   0.102  0.4584 -0.0186 -1.1655
 2135SOL     OW 7303   5.676   5.826   0.312 -1.3313  0.0307 -0.1816
 2135SOL    HW1 7304   5.752   5.770   0.344 -0.6548  1.1689  0.2837
 2135SOL    HW2 7305   5.696   5.860   0.220 -0.8126  1.1031  0.3058
 2136SOL     OW 7306   2.390   6.583   1.186  0.0346 -0.3297 -0.2434
 2136SOL    HW1 7307   2.396   6.681   1.206 -2.5397 -0.2050  0.3575
 2136SOL    HW2 7308   2.318   6.567   1.119 -0.8143 -1.9065  0.9560
 2137SOL     OW 7309   1.041   5.856   3.176  0.0569  0.1733  0.2657
 2137SOL    HW1 7310   1.090   5.811   3.250  0.7963  1.1136  0.3767
 2137SOL    HW2 7311   0.988   5.933   3.212  0.2234  0.4837 -0.1409
 2138SOL     OW 7312   4.248   1.301   2.861 -0.1425 -0.3311  0.2229
 2138SOL    HW1 7313   4.198   1.312   2.775  0.7948 -0.1804 -0.3231
 2138SOL    HW2 7314   4.275   1.205   2.871 -2.6035 -0.9446  1.7226
 2139SOL     OW 7315   2.353   5.763   5.327 -0.3343 -0.4745  0.0400
 2139SOL    HW1 7316   2.342   5.711   5.412 -0.2132 -0.4284  0.0841
 2139SOL    HW2 7317   2.345   5.700   5.249  0.3303 -0.6483  0.1107
 2140SOL     OW 7318   3.695   1.206   3.797  0.1624  0.1146  0.2472
 2140SOL    HW1 7319   3.750   1.126   3.775  0.5866  0.7345 -1.1245
 2140SOL    HW2 7320   3.616   1.211   3.734  0.2693  0.8768  0.1537
 2141SOL     OW 7321   6.877   2.689   3.111  0.3192  0.5530 -0.3085
 2141SOL    HW1 7322   6.793   2.698   3.166  2.4460  0.3091  3.2645
 2141SOL    HW2 7323   6.873   2.604   3.059 -2.3431  1.4111 -1.7424
 2142SOL     OW 7324   2.315   1.768   0.877  0.3006  0.2310  0.5049
 2142SOL    HW1 7325   2.362   1.704   0.816  0.7207  0.7413  0.2827
 2142SOL    HW2 7326   2.235   1.723   0.917  2.0141 -1.3505  2.4271
 2143SOL     OW 7327   5.827   6.413   6.429 -0.2951  0.5445 -0.1852
 2143SOL    HW1 7328   5.878   6.460   6.357  0.1687  2.0009  1.0288
 2143SOL    HW2 7329   5.884   6.341   6.468 -0.9564 -1.0204 -1.9646
 2144SOL     OW 7330   5.299   4.670   3.847  0.4788  0.6946 -0.6825
 2144SOL    HW1 7331   5.225   4.724   3.888  0.9974  0.7069  0.2537
 2144SOL    HW2 7332   5.385   4.722   3.852  0.7616  0.2401 -0.7966
 2145SOL     OW 7333   1.503   6.817   2.074  0.3600  0.6065 -0.3939
 2145SOL    HW1 7334   1.437   6.757   2.119 -0.3879  1.5927 -0.1327
 2145SOL    HW2 7335   1.578   6.837   2.137  0.5006  0.1180 -0.4072
 2146SOL     OW 7336   2.992   0.931   0.007  0.5633  0.3096 -0.2714
 2146SOL    HW1 7337   3.073   0.970  -0.039  0.3789  1.3885  0.2748
 2146SOL    HW2 7338   2.912   0.942  -0.052  0.5134  0.7770 -0.1236
 2147SOL     OW 7339   5.819   5.011   4.754  0.4964  0.1348 -0.0135
 2147SOL    HW1 7340   5.727   5.017   4.713  0.9937  1.7265 -0.9964
 2147SOL    HW2 7341   5.814   5.040   4.849 -0.0216  0.1877 -0.0496
 2148SOL     OW 7342   2.773   2.011   3.579  0.0498 -0.3283 -0.0933
 2148SOL    HW1 7343   2.751   2.033   3.674  1.5462  0.9126  0.0087
 2148SOL    HW2 7344   2.695   1.966   3.536 -1.5281  1.1693  1.0458
 2149SOL     OW 7345   4.682   6.400   3.777  0.0002  0.6122 -0.0045
 2149SOL    HW1 7346   4.688   6.458   3.696  0.2750 -0.3641 -0.6989
 2149SOL    HW2 7347   4.750   6.327   3.772 -2.1528 -1.5054 -0.5835
 2150SOL     OW 7348   2.598   3.680   6.598 -0.1351  0.3998 -0.1982
 2150SOL    HW1 7349   2.632   3.620   6.526 -0.6640  1.1481 -1.0947
 2150SOL    HW2 7350   2.674   3.730   6.639  0.0642  0.6772 -0.8972
 2151SOL     OW 7351   0.187   4.888   6.712  0.1335  0.6235  0.1758
 2151SOL    HW1 7352   0.088   4.875   6.711 -0.0846  1.9441  1.6116
 2151SOL    HW2 7353   0.208   4.985   6.706  1.4310  0.2919 -1.6310
 2152SOL     OW 7354   4.911   6.470   5.832 -0.5638 -0.7993  0.4815
 2152SOL    HW1 7355   4.820   6.492   5.866  0.7918  1.2988  3.2720
 2152SOL    HW2 7356   4.931   6.526   5.751 -1.4864 -0.7809  0.2567
 2153SOL     OW 7357   5.447   6.282   1.319 -0.8818 -0.0107  0.3358
 2153SOL    HW1 7358   5.399   6.203   1.282 -0.6097 -0.4572  0.9298
 2153SOL    HW2 7359   5.544   6.277   1.295 -1.4325  2.1376 -3.0326
 2154SOL     OW 7360   0.959   0.218   1.370 -0.3423 -0.1750  0.5160
 2154SOL    HW1 7361   0.885   0.284   1.377  1.1584  1.4112  3.7250
 2154SOL    HW2 7362   0.927   0.129   1.402 -1.2245  0.1334  0.5198
 2155SOL     OW 7363   6.884   1.080   0.991 -0.4170  0.3721 -0.1893
 2155SOL    HW1 7364   6.954   1.149   1.009 -0.0463 -0.0905  0.1653
 2155SOL    HW2 7365   6.818   1.079   1.066 -0.3370  0.2387 -0.1203
 2156SOL     OW 7366   0.475   1.242   4.397  0.3251  0.0505 -0.2682
 2156SOL    HW1 7367   0.430   1.316   4.447 -0.7380 -0.7489 -0.0198
 2156SOL    HW2 7368   0.453   1.249   4.300 -0.2605 -0.2817 -0.1602
 2157SOL     OW 7369   4.682   5.655   2.730  0.0510 -0.4386  0.1283
 2157SOL    HW1 7370   4.663   5.742   2.775 -1.0802 -0.5333 -0.1426
 2157SOL    HW2 7371   4.760   5.612   2.774 -0.5275 -0.1495  1.4851
 2158SOL     OW 7372   2.172   0.890   6.147 -0.1064  0.0261 -0.1496
 2158SOL    HW1 7373   2.224   0.865   6.066  0.3982  0.5508  0.0038
 2158SOL    HW2 7374   2.103   0.821   6.165 -1.9207  1.1231 -2.4675
 2159SOL     OW 7375   0.359   2.483   6.057  0.2720  0.7199 -0.1072
 2159SOL    HW1 7376   0.336   2.397   6.101 -0.8790 -0.5308 -2.9449
 2159SOL    HW2 7377   0.438   2.471   5.997 -1.0123  1.0582 -1.9702
 2160SOL     OW 7378   5.045   0.857   0.016 -0.0951 -0.1168 -0.5330
 2160SOL    HW1 7379   5.123   0.885  -0.040  0.6138 -0.8285  0.0763
 2160SOL    HW2 7380   5.011   0.768  -0.015 -0.8807  0.3300 -0.9966
 2161SOL     OW 7381   2.079   2.500   0.193  0.6875  0.2468 -0.0013
 2161SOL    HW1 7382   2.166   2.508   0.242  0.8877 -0.3084 -0.2592
 2161SOL    HW2 7383   2.008   2.546   0.245  0.1468 -3.2007  2.6382
 2162SOL     OW 7384   1.928   5.930   6.808 -0.6213  0.0667 -0.3964
 2162SOL    HW1 7385   1.903   5.910   6.903  1.4846  1.8953  0.6220
 2162SOL    HW2 7386   1.882   6.013   6.778  0.4834  0.7880 -0.1434
 2163SOL     OW 7387   1.843   3.118   2.374 -0.4399  0.3979 -0.0341
 2163SOL    HW1 7388   1.817   3.133   2.278 -0.1392  2.3315  0.1439
 2163SOL    HW2 7389   1.938   3.148   2.388 -0.0041 -1.1707  0.5904
 2164SOL     OW 7390   2.169   5.021   0.783  0.5667  0.8078 -0.2838
 2164SOL    HW1 7391   2.197   5.089   0.851  0.5395  0.3307  0.2134
 2164SOL    HW2 7392   2.197   5.051   0.692  0.6278  1.4435 -0.0584
 2165SOL     OW 7393   6.729   1.128   0.207 -0.0002 -0.6306 -0.0066
 2165SOL    HW1 7394   6.806   1.104   0.149 -0.7185 -1.7990 -0.5189
 2165SOL    HW2 7395   6.643   1.112   0.158 -0.5865  0.5813  0.5718
 2166SOL     OW 7396   6.154   1.119   3.169  0.5904 -0.1183  0.3635
 2166SOL    HW1 7397   6.205   1.065   3.237  2.2090 -0.7555 -1.2838
 2166SOL    HW2 7398   6.217   1.179   3.120 -0.8801  1.8690  0.7757
 2167SOL     OW 7399   0.391   2.091   2.122 -0.0149  0.3076 -0.3476
 2167SOL    HW1 7400   0.393   2.174   2.066 -1.9097  0.5953 -0.0617
 2167SOL    HW2 7401   0.314   2.033   2.093  1.0626 -1.1924 -0.3036
 2168SOL     OW 7402   1.100   2.606   4.197  0.1932  0.3625  0.5188
 2168SOL    HW1 7403   1.137   2.690   4.158  0.3677 -0.1928 -0.5769
 2168SOL    HW2 7404   1.112   2.531   4.131 -0.6843 -0.3465  1.1362
 2169SOL     OW 7405   6.053   0.758   5.977  0.3600  0.4348  0.0057
 2169SOL    HW1 7406   6.016   0.738   6.068 -0.4608 -1.5446 -0.7137
 2169SOL    HW2 7407   6.029   0.684   5.914  0.8919  1.7669 -1.8481
 2170SOL     OW 7408   2.175   2.497   5.743 -0.1426 -0.0821  0.3302
 2170SOL    HW1 7409   2.230   2.578   5.763 -0.1913  0.1374 -0.3894
 2170SOL    HW2 7410   2.098   2.523   5.684 -0.9591 -0.4035  1.2246
 2171SOL     OW 7411   5.934   0.804   1.329  0.0185 -0.3302  0.1805
 2171SOL    HW1 7412   5.998   0.880   1.343  0.0962 -0.4326  0.3794
 2171SOL    HW2 7413   5.868   0.829   1.258  0.3881 -0.2943 -0.1566
 2172SOL     OW 7414   2.888   2.930   5.764 -0.0301 -0.1993  0.7492
 2172SOL    HW1 7415   2.792   2.904   5.776 -0.2806 -0.4650 -1.3153
 2172SOL    HW2 7416   2.895   3.029   5.757 -0.3673 -0.2379 -0.3634
 2173SOL     OW 7417   3.813   0.722   5.606 -0.1584 -0.1335 -0.2038
 2173SOL    HW1 7418   3.718   0.722   5.575  0.0286  0.0565 -0.7888
 2173SOL    HW2 7419   3.857   0.808   5.579  0.1659 -0.2024  0.0978
 2174SOL     OW 7420   3.096   6.645   5.086 -0.4625  0.0927  0.1065
 2174SOL    HW1 7421   3.063   6.738   5.069 -1.5374 -0.3751 -0.4881
 2174SOL    HW2 7422   3.042   6.603   5.159 -1.3699 -0.7581 -1.0190
 2175SOL     OW 7423   3.711   3.078   5.326 -0.1857 -0.3403 -0.1080
 2175SOL    HW1 7424   3.622   3.038   5.304 -0.2964  0.5226 -1.2975
 2175SOL    HW2 7425   3.737   3.143   5.255  2.3240 -2.0338 -0.8852
 2176SOL     OW 7426   0.900   1.702   2.756 -0.2695 -0.7341 -0.0214
 2176SOL    HW1 7427   0.902   1.690   2.657  0.5590  1.3432 -0.2914
 2176SOL    HW2 7428   0.848   1.784   2.779  0.4340 -0.5973  1.1929
 2177SOL     OW 7429   1.604   2.519   4.256  0.4225  0.4198  0.2569
 2177SOL    HW1 7430   1.632   2.498   4.349 -0.7327 -0.6009  0.4011
 2177SOL    HW2 7431   1.677   2.568   4.208  1.4401 -0.0133  1.3462
 2178SOL     OW 7432   1.834   2.584   1.465  0.6733  0.0145 -0.2035
 2178SOL    HW1 7433   1.923   2.539   1.475  1.2598  1.4114  1.3064
 2178SOL    HW2 7434   1.769   2.520   1.424  2.3606 -1.0309 -1.3708
 2179SOL     OW 7435   1.127   5.357   6.068 -0.0720 -0.2239  0.2701
 2179SOL    HW1 7436   1.033   5.332   6.046  0.3545 -0.1206 -1.9938
 2179SOL    HW2 7437   1.187   5.279   6.049  0.7412  0.9455 -2.5884
 2180SOL     OW 7438   0.810   4.546   3.138 -0.4160 -0.0514 -0.2913
 2180SOL    HW1 7439   0.713   4.560   3.120 -0.9327 -1.8446  0.8305
 2180SOL    HW2 7440   0.846   4.476   3.075 -0.4752 -1.1231  0.8189
 2181SOL     OW 7441   5.131   4.452   4.544  0.2097  0.0140 -0.0826
 2181SOL    HW1 7442   5.117   4.375   4.607  0.9249  0.1216  0.2234
 2181SOL    HW2 7443   5.060   4.520   4.557  1.0721  0.6537  1.5712
 2182SOL     OW 7444   1.034   6.709   0.578 -0.4469 -0.6666 -0.2772
 2182SOL    HW1 7445   1.122   6.753   0.594 -0.4539 -0.5373 -0.5755
 2182SOL    HW2 7446   0.963   6.755   0.630 -0.4592 -0.2958 -0.6161
 2183SOL     OW 7447   3.835   2.525   6.133  0.3133 -0.5104  0.1534
 2183SOL    HW1 7448   3.814   2.608   6.081  3.4014 -0.3332 -0.9874
 2183SOL    HW2 7449   3.823   2.544   6.231  0.0699  0.9802 -0.1372
 2184SOL     OW 7450   5.364   1.504   6.120  0.5147  0.3792  0.6917
 2184SOL    HW1 7451   5.368   1.593   6.074 -0.5367  0.0366 -0.0975
 2184SOL    HW2 7452   5.458   1.472   6.138  0.8999  2.0474  1.8446
 2185SOL     OW 7453   0.099   0.074   5.813  0.1923 -0.7008  0.0317
 2185SOL    HW1 7454   0.057  -0.011   5.843  1.2476 -0.6757  1.7012
 2185SOL    HW2 7455   0.188   0.086   5.858  0.9449  0.3594 -1.6262
 2186SOL     OW 7456   5.956   6.205   5.753  0.2926  0.2803 -0.3577
 2186SOL    HW1 7457   6.054   6.220   5.746  0.0695  2.1283 -0.1172
 2186SOL    HW2 7458   5.923   6.241   5.840 -0.5459 -0.6983 -0.2517
 2187SOL     OW 7459   5.493   2.654   2.345  0.0587 -0.1397  0.0883
 2187SOL    HW1 7460   5.437   2.733   2.368  1.2310  0.3032  1.6564
 2187SOL    HW2 7461   5.569   2.683   2.286  0.1381 -0.2116  0.1546
 2188SOL     OW 7462   2.920   1.362   1.388  0.4264 -0.3049 -0.5167
 2188SOL    HW1 7463   2.872   1.281   1.354 -1.0507 -0.0350  0.7882
 2188SOL    HW2 7464   2.937   1.352   1.486  1.0729  0.5626 -0.5288
 2189SOL     OW 7465   2.467   0.975   6.549 -0.6341 -0.5302 -0.1370
 2189SOL    HW1 7466   2.442   0.981   6.452  1.6987 -1.1907 -0.8779
 2189SOL    HW2 7467   2.542   1.039   6.568  0.8277 -2.3208  0.4714
 2190SOL     OW 7468   0.276   4.348   3.314  0.0521  0.0119  0.0157
 2190SOL    HW1 7469   0.348   4.283   3.290  0.7294  0.3496  1.0312
 2190SOL    HW2 7470   0.313   4.441   3.307  0.0797  0.1490  1.6063
 2191SOL     OW 7471   3.905   5.778   1.178  0.3748 -0.3034  0.4910
 2191SOL    HW1 7472   3.864   5.819   1.096  2.1227  0.3821 -0.0877
 2191SOL    HW2 7473   3.883   5.680   1.181 -1.9259  0.1676  0.6596
 2192SOL     OW 7474   4.109   1.967   3.044 -0.4808 -0.3238 -0.2266
 2192SOL    HW1 7475   4.066   1.882   3.013  0.6615 -0.9277 -0.2165
 2192SOL    HW2 7476   4.134   1.958   3.141  0.8188 -0.5033 -0.5526
 2193SOL     OW 7477   1.078   6.545   5.937 -0.1692 -0.0785 -0.2310
 2193SOL    HW1 7478   1.030   6.629   5.960  1.3442  1.2013 -1.4776
 2193SOL    HW2 7479   1.018   6.486   5.883 -0.5943  1.1600 -1.1549
 2194SOL     OW 7480   2.315   3.080   5.391 -0.1558 -0.7240 -0.3812
 2194SOL    HW1 7481   2.288   3.176   5.397  1.2423 -0.4009  2.4723
 2194SOL    HW2 7482   2.382   3.068   5.318 -1.1495  0.1934 -1.4917
 2195SOL     OW 7483   0.075   1.803   0.082  0.8168  0.0318  0.0727
 2195SOL    HW1 7484  -0.023   1.824   0.085  1.3702  2.9892 -0.0527
 2195SOL    HW2 7485   0.087   1.704   0.084 -2.2570 -0.5543 -2.1776
 2196SOL     OW 7486   4.259   2.816   1.237 -0.2021  0.3697  0.1732
 2196SOL    HW1 7487   4.181   2.865   1.199  0.9303  1.9387 -0.1882
 2196SOL    HW2 7488   4.322   2.880   1.280 -0.0526 -1.0534  2.2721
 2197SOL     OW 7489   4.498   3.234   6.166  0.2863  0.3860  0.0827
 2197SOL    HW1 7490   4.591   3.226   6.129 -0.1003 -0.3015 -0.7483
 2197SOL    HW2 7491   4.504   3.243   6.266  1.2326  0.0665  0.0707
 2198SOL     OW 7492   1.969   0.676   3.747 -0.0336 -0.1652  0.3221
 2198SOL    HW1 7493   2.043   0.667   3.680 -0.6493 -3.6363 -0.0710
 2198SOL    HW2 7494   2.007   0.677   3.839  0.5876 -2.0338  0.1311
 2199SOL     OW 7495   4.453   5.391   2.799  0.1630  0.0673 -0.3079
 2199SOL    HW1 7496   4.371   5.440   2.829 -0.7381  0.0394 -2.5688
 2199SOL    HW2 7497   4.525   5.457   2.777  0.8499  0.0901  1.7259
 2200SOL     OW 7498   2.292   0.545   4.602  0.3271  0.0098  0.4410
 2200SOL    HW1 7499   2.356   0.469   4.589  1.3630  0.7562  1.0259
 2200SOL    HW2 7500   2.344   0.630   4.613 -0.8256  1.0481 -1.5969
 2201SOL     OW 7501   4.863   3.485   3.232 -0.1776 -0.1105  0.4201
 2201SOL    HW1 7502   4.957   3.487   3.196 -0.1083  3.5139  0.4482
 2201SOL    HW2 7503   4.805   3.545   3.177 -2.4098 -1.8587  0.7436
 2202SOL     OW 7504   5.645   6.311   3.261  0.5740 -0.2600  0.2634
 2202SOL    HW1 7505   5.716   6.275   3.321  1.6533  0.7290 -0.3846
 2202SOL    HW2 7506   5.682   6.326   3.170 -0.4401  0.3940 -0.0604
 2203SOL     OW 7507   0.436   6.030   1.291  0.1282 -0.5576  0.4867
 2203SOL    HW1 7508   0.477   6.091   1.359 -1.7032 -0.0690  1.1945
 2203SOL    HW2 7509   0.463   5.936   1.311  0.8633 -0.2656  0.9381
 2204SOL     OW 7510   3.523   4.379   6.504 -0.1156 -0.4081  0.3104
 2204SOL    HW1 7511   3.621   4.374   6.525  0.4900 -1.6105 -2.4122
 2204SOL    HW2 7512   3.490   4.289   6.477 -1.5168  0.3535 -0.6363
 2205SOL     OW 7513   3.395   5.597   1.979 -0.0317  0.1149  0.0157
 2205SOL    HW1 7514   3.430   5.519   2.031 -1.1896 -0.9215 -0.7135
 2205SOL    HW2 7515   3.432   5.595   1.886 -1.0379 -0.3132 -0.3932
 2206SOL     OW 7516   2.754   4.083   5.352 -0.0878  0.0320 -0.0794
 2206SOL    HW1 7517   2.727   4.163   5.405  0.5215 -0.6951  1.3785
 2206SOL    HW2 7518   2.684   4.012   5.360  0.6809 -0.6286  0.9990
 2207SOL     OW 7519   5.587   4.800   0.934  0.3708  0.0469  0.2250
 2207SOL    HW1 7520   5.607   4.891   0.897 -0.9255  1.3249  2.4115
 2207SOL    HW2 7521   5.492   4.777   0.917  0.5370 -0.6555  0.2035
 2208SOL     OW 7522   6.799   5.868   3.071  0.5232  0.1320 -0.6069
 2208SOL    HW1 7523   6.726   5.843   3.134  0.3099  0.5943 -0.6676
 2208SOL    HW2 7524   6.759   5.910   2.989  0.8711  0.5513 -0.5613
 2209SOL     OW 7525   3.019   5.155   5.525 -0.6656 -0.2388 -0.9219
 2209SOL    HW1 7526   3.004   5.163   5.426 -0.1466  0.0969 -0.9786
 2209SOL    HW2 7527   3.062   5.068   5.545 -0.3629 -0.1171 -1.0433
 2210SOL     OW 7528   5.504   0.716   3.121 -0.2215 -0.0557 -0.1696
 2210SOL    HW1 7529   5.516   0.630   3.070 -0.9450  0.2666 -0.9028
 2210SOL    HW2 7530   5.407   0.742   3.119  0.0221  0.8669 -0.1039
 2211SOL     OW 7531   1.641   1.374   6.899  0.1354 -0.9591 -0.1250
 2211SOL    HW1 7532   1.716   1.323   6.942  1.7558 -0.0921 -1.7977
 2211SOL    HW2 7533   1.604   1.320   6.823  1.9361  0.2853 -1.9785
 2212SOL     OW 7534   1.853   4.591   6.409  0.1314 -0.4105  0.0692
 2212SOL    HW1 7535   1.890   4.586   6.501 -1.9225 -0.2728  0.9428
 2212SOL    HW2 7536   1.869   4.505   6.361  3.2108  0.2603 -0.3145
 2213SOL     OW 7537   3.096   1.860   4.151 -0.6521  0.3370 -0.3764
 2213SOL    HW1 7538   3.137   1.774   4.120  0.2939  1.1510 -1.4803
 2213SOL    HW2 7539   3.104   1.866   4.250  2.1601  0.5274 -0.5302
 2214SOL     OW 7540   3.762   6.263   6.986  0.0116 -0.3378 -0.1831
 2214SOL    HW1 7541   3.854   6.224   6.993  0.2860  0.5147  1.8123
 2214SOL    HW2 7542   3.696   6.190   6.967  0.8023 -1.4052  0.9858
 2215SOL     OW 7543   1.159   4.212   0.759 -0.2055 -0.4404  0.4411
 2215SOL    HW1 7544   1.250   4.175   0.775  0.0967  0.1411  0.0838
 2215SOL    HW2 7545   1.116   4.234   0.847  0.3192  0.0506  0.5755
 2216SOL     OW 7546   6.423   0.854   6.423  0.0782 -0.1612  0.6205
 2216SOL    HW1 7547   6.508   0.803   6.412 -0.6576 -1.3564  0.2660
 2216SOL    HW2 7548   6.397   0.894   6.335 -0.9798 -1.8890  0.0969
 2217SOL     OW 7549   4.809   0.035   3.855  0.2384  0.1460  0.0852
 2217SOL    HW1 7550   4.891   0.051   3.799  1.0014 -0.1703  1.0782
 2217SOL    HW2 7551   4.749   0.115   3.850 -0.0171 -0.1216 -1.6609
 2218SOL     OW 7552   5.119   5.200   6.091 -0.5388  0.4854  0.1777
 2218SOL    HW1 7553   5.139   5.169   5.999 -0.2043 -1.0414  0.7289
 2218SOL    HW2 7554   5.056   5.136   6.135  0.7045  0.1741  1.5971
 2219SOL     OW 7555   5.416   2.700   1.299 -0.1234 -0.2473  0.2285
 2219SOL    HW1 7556   5.450   2.791   1.274 -0.8872  0.2906  1.0931
 2219SOL    HW2 7557   5.359   2.707   1.381 -1.6831 -1.2296 -0.7284
 2220SOL     OW 7558   6.522   6.786   3.831 -0.3590  0.9764  0.2862
 2220SOL    HW1 7559   6.579   6.859   3.868 -1.7219  2.2306 -0.0371
 2220SOL    HW2 7560   6.426   6.810   3.841 -0.8074  0.0224 -1.4339
 2221SOL     OW 7561   3.660   6.319   5.085  0.3781  0.4651  0.1527
 2221SOL    HW1 7562   3.562   6.314   5.104  0.0929  4.1487  0.5074
 2221SOL    HW2 7563   3.676   6.309   4.987 -0.6742  1.9525 -0.2107
 2222SOL     OW 7564   3.202   6.487   3.388  0.3321  0.6020 -0.0429
 2222SOL    HW1 7565   3.281   6.437   3.353  0.3526  0.4543  0.2169
 2222SOL    HW2 7566   3.137   6.423   3.429  1.1105  0.9268  1.7912
 2223SOL     OW 7567   6.348   1.329   5.168 -0.7822  0.0219 -0.0845
 2223SOL    HW1 7568   6.394   1.299   5.085  0.6160  1.2903  0.1977
 2223SOL    HW2 7569   6.284   1.403   5.147 -0.5032  0.2734 -0.0583
 2224SOL     OW 7570   5.311   4.681   1.222  0.0946  0.3486  0.3136
 2224SOL    HW1 7571   5.243   4.686   1.150  1.3629 -0.1530 -0.9726
 2224SOL    HW2 7572   5.266   4.670   1.310 -1.4979  1.1512 -0.3682
 2225SOL     OW 7573   5.787   1.072   2.019 -0.1422 -0.3161  0.3467
 2225SOL    HW1 7574   5.805   1.116   1.932 -0.5621  0.6570  0.7342
 2225SOL    HW2 7575   5.728   0.992   2.005 -2.3080  1.2547 -0.0335
 2226SOL     OW 7576   1.772   5.002   5.651 -0.0834 -0.0621  0.6784
 2226SOL    HW1 7577   1.697   4.972   5.710  0.0715  0.2973  1.0693
 2226SOL    HW2 7578   1.746   5.088   5.606 -1.0072 -1.3400 -1.3754
 2227SOL     OW 7579   4.307   1.582   0.714  0.2855  0.0358  0.0996
 2227SOL    HW1 7580   4.279   1.636   0.635 -0.3180  0.4873  0.6111
 2227SOL    HW2 7581   4.226   1.552   0.765  0.6575 -0.4056  0.4451
 2228SOL     OW 7582   3.178   6.902   0.969  0.0088  0.0136 -0.2273
 2228SOL    HW1 7583   3.163   6.980   1.030 -1.2152  0.3430 -0.9083
 2228SOL    HW2 7584   3.147   6.926   0.877  0.6675 -0.9045 -0.6970
 2229SOL     OW 7585   3.394   2.969   4.530 -0.5638  0.2393 -0.0537
 2229SOL    HW1 7586   3.480   2.938   4.570  0.0531 -0.7156 -1.9619
 2229SOL    HW2 7587   3.380   3.066   4.549  0.4087  0.1534  1.1569
 2230SOL     OW 7588   0.998   2.053   5.762 -0.9093  0.8268 -0.2916
 2230SOL    HW1 7589   1.077   2.057   5.701 -0.0795  1.6049  0.8161
 2230SOL    HW2 7590   0.984   1.958   5.791  0.7871  0.9215  0.9844
 2231SOL     OW 7591   1.619   5.552   0.306 -0.1246 -0.0750 -0.2881
 2231SOL    HW1 7592   1.670   5.633   0.336 -1.3718  1.1272 -1.2977
 2231SOL    HW2 7593   1.650   5.526   0.214  1.1186 -1.5234  0.4971
 2232SOL     OW 7594   1.841   1.113   6.677 -0.1359 -0.2189 -0.0802
 2232SOL    HW1 7595   1.747   1.084   6.658 -0.8797  2.3143 -0.5858
 2232SOL    HW2 7596   1.867   1.187   6.615  2.2066 -0.8149  0.0898
 2233SOL     OW 7597   3.192   5.104   0.687 -0.6102  0.1137  0.2730
 2233SOL    HW1 7598   3.158   5.027   0.742 -0.2217  0.7494  1.4429
 2233SOL    HW2 7599   3.142   5.108   0.601 -1.0309 -1.1008  0.4355
 2234SOL     OW 7600   4.225   1.899   1.612  0.0533  0.3743 -0.0760
 2234SOL    HW1 7601   4.145   1.957   1.608 -1.2024 -1.2682  0.0392
 2234SOL    HW2 7602   4.261   1.898   1.705  0.3619  1.3041 -0.1820
 2235SOL     OW 7603   1.801   0.476   3.648 -0.0815 -0.0662 -0.0776
 2235SOL    HW1 7604   1.856   0.554   3.677 -2.2121  0.5245  2.8857
 2235SOL    HW2 7605   1.774   0.423   3.729 -2.4813 -1.2163 -1.5281
 2236SOL     OW 7606   2.717   5.360   5.316 -0.0009  0.2302  0.3182
 2236SOL    HW1 7607   2.737   5.457   5.303 -0.4713  0.1583 -1.1879
 2236SOL    HW2 7608   2.765   5.307   5.246 -0.2036 -0.5644  0.7737
 2237SOL     OW 7609   6.576   4.659   6.401  0.2068  0.5184  0.0992
 2237SOL    HW1 7610   6.541   4.729   6.339  0.3408  0.2456 -0.2846
 2237SOL    HW2 7611   6.499   4.612   6.444  0.1117  0.4929 -0.0998
 2238SOL     OW 7612   5.224   3.398   2.323  0.6871 -0.9475 -0.0200
 2238SOL    HW1 7613   5.227   3.306   2.285  0.0735 -0.4891 -1.2258
 2238SOL    HW2 7614   5.134   3.438   2.306  1.5837  0.6222 -1.3437
 2239SOL     OW 7615   3.794   0.076   4.115  0.1209 -0.3035 -0.0276
 2239SOL    HW1 7616   3.743   0.022   4.183 -1.0784  2.2206  1.1907
 2239SOL    HW2 7617   3.891   0.053   4.122 -0.4144 -2.9712 -0.2661
 2240SOL     OW 7618   5.302   3.855   1.236 -0.3386  0.4394 -0.2553
 2240SOL    HW1 7619   5.296   3.941   1.186  0.8280  0.3114 -0.6621
 2240SOL    HW2 7620   5.219   3.801   1.220 -1.2349  1.6245  0.2963
 2241SOL     OW 7621   2.022   2.983   2.850 -0.6120  0.2765  0.5669
 2241SOL    HW1 7622   2.065   3.011   2.764  0.4642 -2.6228  0.0476
 2241SOL    HW2 7623   2.091   2.976   2.921 -0.5945 -1.7950  0.4199
 2242SOL     OW 7624   4.893   3.675   2.545  0.2024  0.2713  0.2907
 2242SOL    HW1 7625   4.923   3.648   2.636  1.2755 -1.5709 -0.5570
 2242SOL    HW2 7626   4.900   3.774   2.535  1.4996  0.3490  1.7149
 2243SOL     OW 7627   3.320   0.299   0.702 -0.0571  0.5338 -0.4196
 2243SOL    HW1 7628   3.334   0.330   0.607 -1.4657  0.6033 -0.6317
 2243SOL    HW2 7629   3.319   0.378   0.762 -0.4820  0.6118 -0.5284
 2244SOL     OW 7630   1.998   3.584   1.897  0.5686 -0.6254  0.5501
 2244SOL    HW1 7631   2.029   3.618   1.809 -0.5056  0.4668  0.5772
 2244SOL    HW2 7632   2.074   3.538   1.944  1.4323 -0.2482 -0.4590
 2245SOL     OW 7633   0.444   1.005   2.221  0.5259 -1.1979 -0.7897
 2245SOL    HW1 7634   0.440   0.925   2.281 -2.1427 -0.2400  0.4890
 2245SOL    HW2 7635   0.538   1.041   2.218  0.6521 -0.4125  4.1522
 2246SOL     OW 7636   5.596   0.677   4.372  0.2514 -0.3923  0.3790
 2246SOL    HW1 7637   5.562   0.728   4.451  1.0221 -0.4039  0.7257
 2246SOL    HW2 7638   5.523   0.669   4.304  0.3159  1.7687  0.0003
 2247SOL     OW 7639   5.434   1.847   1.422  0.5353 -0.1882  0.1232
 2247SOL    HW1 7640   5.420   1.762   1.474  3.1767 -0.2465  0.8751
 2247SOL    HW2 7641   5.353   1.904   1.430 -0.9848 -2.2413  0.3127
 2248SOL     OW 7642   5.381   2.746   5.873 -0.2508 -0.6121 -0.4362
 2248SOL    HW1 7643   5.416   2.727   5.782  0.5564 -0.4429 -0.1716
 2248SOL    HW2 7644   5.309   2.815   5.868 -0.0449 -0.4296 -0.9207
 2249SOL     OW 7645   1.551   5.377   1.967  0.0159  1.0038 -0.9429
 2249SOL    HW1 7646   1.488   5.304   1.992  0.1511 -0.1076 -3.5730
 2249SOL    HW2 7647   1.549   5.448   2.038 -3.6871  0.7480 -0.5811
 2250SOL     OW 7648   4.040   6.469   6.084 -0.6949  0.1715 -0.3624
 2250SOL    HW1 7649   3.960   6.415   6.111 -0.7173  0.4094  0.0587
 2250SOL    HW2 7650   4.113   6.408   6.054  0.0372 -0.2551  2.0720
 2251SOL     OW 7651   0.936   6.620   6.256  0.0445  0.0533 -0.0142
 2251SOL    HW1 7652   1.030   6.651   6.242  0.4222  0.0174  2.1369
 2251SOL    HW2 7653   0.876   6.699   6.263 -0.3378  0.0726 -2.4954
 2252SOL     OW 7654   4.729   2.878   3.712  0.4753 -0.2088 -0.3560
 2252SOL    HW1 7655   4.765   2.887   3.619 -0.1847  2.1868 -0.4411
 2252SOL    HW2 7656   4.720   2.968   3.753  0.8220 -1.2294  2.1027
 2253SOL     OW 7657   1.677   0.957   0.127 -0.0996  0.5478  0.2258
 2253SOL    HW1 7658   1.622   0.955   0.044 -1.4718 -3.0024  1.0284
 2253SOL    HW2 7659   1.774   0.960   0.103 -0.4961  1.9233 -1.3640
 2254SOL     OW 7660   4.010   3.203   3.867 -0.2372  0.1628 -1.0757
 2254SOL    HW1 7661   4.077   3.230   3.798 -0.0614  0.4573 -0.7926
 2254SOL    HW2 7662   4.043   3.229   3.958 -0.5773 -0.0017 -0.9032
 2255SOL     OW 7663   0.811   2.846   6.858 -0.2594  0.5283  0.2080
 2255SOL    HW1 7664   0.842   2.897   6.938  0.5347 -1.7016  1.4072
 2255SOL    HW2 7665   0.874   2.862   6.782  1.5946 -0.7758  1.4025
 2256SOL     OW 7666   2.819   0.696   6.359 -0.1146 -0.1268  0.5266
 2256SOL    HW1 7667   2.789   0.707   6.264 -0.7276 -0.7221  0.6402
 2256SOL    HW2 7668   2.852   0.602   6.372  0.5674  0.1395  0.7450
 2257SOL     OW 7669   6.187   0.255   6.405  0.2707  0.1870 -0.5489
 2257SOL    HW1 7670   6.203   0.157   6.416  3.0678  0.5487 -0.6363
 2257SOL    HW2 7671   6.171   0.297   6.494 -1.5000 -0.3896 -0.5664
 2258SOL     OW 7672   0.949   0.289   3.325  0.3834 -0.3777  0.0372
 2258SOL    HW1 7673   0.860   0.306   3.368  0.5025  0.5979 -0.0742
 2258SOL    HW2 7674   0.976   0.194   3.340  0.2216 -0.1802  1.7521
 2259SOL     OW 7675   0.247   0.272   4.023 -0.5162  0.2633  0.3212
 2259SOL    HW1 7676   0.312   0.299   3.952 -2.0953  0.9020 -0.9558
 2259SOL    HW2 7677   0.296   0.240   4.104  1.3518  0.7121 -0.5927
 2260SOL     OW 7678   0.542   2.502   0.002  0.7720  0.5564 -0.3025
 2260SOL    HW1 7679   0.560   2.586   0.053  1.5811 -0.5495  1.3334
 2260SOL    HW2 7680   0.587   2.425   0.047 -2.2186 -1.2483 -0.0998
 2261SOL     OW 7681   4.046   4.579   6.154 -0.4586 -0.0762 -0.6573
 2261SOL    HW1 7682   3.965   4.522   6.138 -0.6294  0.4274 -1.6805
 2261SOL    HW2 7683   4.019   4.665   6.197 -0.0466 -1.2550  2.1727
 2262SOL     OW 7684   6.464   1.259   4.314  0.2365 -0.1162  0.2679
 2262SOL    HW1 7685   6.513   1.223   4.235  0.8596  2.1196 -0.4392
 2262SOL    HW2 7686   6.387   1.199   4.336  1.3715 -1.9658 -0.6145
 2263SOL     OW 7687   1.089   5.064   5.778  0.0567  0.1722 -0.5425
 2263SOL    HW1 7688   1.030   5.145   5.780 -1.0921 -0.5773 -1.8051
 2263SOL    HW2 7689   1.077   5.012   5.862  0.3842  1.0228  0.0399
 2264SOL     OW 7690   1.139   0.323   0.205  0.0417 -0.3439  0.4200
 2264SOL    HW1 7691   1.110   0.380   0.281 -1.9907  0.6083 -0.9897
 2264SOL    HW2 7692   1.224   0.359   0.167  0.6416 -0.3609  1.6951
 2265SOL     OW 7693   6.710   5.930   3.374 -0.0382  0.3414  0.3244
 2265SOL    HW1 7694   6.705   5.931   3.473 -0.6171  0.4771  0.2964
 2265SOL    HW2 7695   6.684   6.020   3.338 -1.5869 -0.2046 -0.0196
 2266SOL     OW 7696   2.835   5.215   6.316  0.3416 -0.6048  0.0401
 2266SOL    HW1 7697   2.893   5.244   6.392  0.6278  1.8800 -1.0376
 2266SOL    HW2 7698   2.739   5.225   6.343  0.4394  0.7602 -0.0744
 2267SOL     OW 7699   5.638   2.101   5.435  0.0214 -0.3197  0.3955
 2267SOL    HW1 7700   5.717   2.155   5.463 -0.9908  1.2477  0.3261
 2267SOL    HW2 7701   5.652   2.005   5.461  1.7952 -0.0292  0.6414
 2268SOL     OW 7702   6.614   4.447   4.271  0.1075  0.7265 -0.2402
 2268SOL    HW1 7703   6.539   4.391   4.234  0.8525 -0.4259 -0.0622
 2268SOL    HW2 7704   6.591   4.477   4.364 -0.0169  0.1277 -0.0723
 2269SOL     OW 7705   2.474   0.935   5.312  0.7758  0.2429  0.0493
 2269SOL    HW1 7706   2.455   1.029   5.338  0.9002  0.1449  0.5036
 2269SOL    HW2 7707   2.495   0.931   5.214  1.1886  0.7475  0.1131
 2270SOL     OW 7708   2.826   1.918   6.719  0.0117  0.1121  0.0702
 2270SOL    HW1 7709   2.747   1.857   6.731 -0.4649  0.8785  1.0091
 2270SOL    HW2 7710   2.900   1.888   6.779 -0.7367  1.2470  1.6538
 2271SOL     OW 7711   2.332   6.698   4.748  0.0028 -0.3475 -0.3961
 2271SOL    HW1 7712   2.346   6.691   4.650 -0.0244  1.6637 -0.5882
 2271SOL    HW2 7713   2.243   6.740   4.766  0.9711  1.4926  0.3774
 2272SOL     OW 7714   5.386   1.515   6.831  0.2605  0.2395  0.0997
 2272SOL    HW1 7715   5.406   1.464   6.747 -0.7460  0.3370 -0.2175
 2272SOL    HW2 7716   5.294   1.491   6.863  0.4242  0.6131  0.8815
 2273SOL     OW 7717   2.329   2.687   3.108  0.0224 -0.0960  0.0032
 2273SOL    HW1 7718   2.403   2.624   3.085 -1.3073 -2.0372  0.7016
 2273SOL    HW2 7719   2.277   2.709   3.026  2.5520  3.0856 -0.9384
 2274SOL     OW 7720   0.685   1.426   1.756 -0.4579  0.1436 -0.0368
 2274SOL    HW1 7721   0.703   1.348   1.696 -0.2385  0.4416 -0.3606
 2274SOL    HW2 7722   0.592   1.460   1.739 -0.5845 -0.1008  0.1660
 2275SOL     OW 7723   4.934   3.825   3.398 -0.0984 -0.0134  0.1227
 2275SOL    HW1 7724   4.892   3.894   3.456  1.2046  1.8268 -1.0259
 2275SOL    HW2 7725   4.901   3.836   3.304 -0.8375 -1.8242  0.1146
 2276SOL     OW 7726   1.483   2.909   1.861  0.3515  0.2595 -0.7951
 2276SOL    HW1 7727   1.495   3.008   1.859 -1.0038  0.4432 -0.6172
 2276SOL    HW2 7728   1.472   2.875   1.767 -1.0079  0.5309 -0.7444
 2277SOL     OW 7729   3.816   4.819   5.296  0.3389  0.1309  0.3951
 2277SOL    HW1 7730   3.868   4.783   5.373  2.3927 -0.3663 -1.1614
 2277SOL    HW2 7731   3.739   4.758   5.277 -0.9168  0.8563  2.6912
 2278SOL     OW 7732   0.014   3.236   4.921 -0.0140  0.2336 -0.2472
 2278SOL    HW1 7733  -0.066   3.297   4.910 -0.7196 -0.6977 -0.3891
 2278SOL    HW2 7734   0.076   3.275   4.989 -1.3942  0.1750  1.0919
 2279SOL     OW 7735   6.841   4.762   6.075 -0.2408  0.0774  0.1205
 2279SOL    HW1 7736   6.878   4.855   6.074 -1.9024  0.7639 -0.0732
 2279SOL    HW2 7737   6.743   4.765   6.057  0.1519 -1.9537 -3.4350
 2280SOL     OW 7738   5.536   3.427   5.617 -0.7476 -0.2372 -0.0251
 2280SOL    HW1 7739   5.609   3.406   5.552  0.2773 -1.2047  1.3744
 2280SOL    HW2 7740   5.573   3.480   5.693 -1.7580  0.1957  0.1860
 2281SOL     OW 7741   3.404   6.398   2.783  0.1788  0.2176  0.3810
 2281SOL    HW1 7742   3.474   6.389   2.713 -0.5182  0.7372 -0.4036
 2281SOL    HW2 7743   3.376   6.494   2.791 -0.0323  0.1073  1.1026
 2282SOL     OW 7744   2.907   6.336   5.394  0.0481  0.3685 -0.1796
 2282SOL    HW1 7745   2.811   6.348   5.368  0.1280  0.1711 -0.5818
 2282SOL    HW2 7746   2.916   6.345   5.493 -0.3193  0.8031 -0.1806
 2283SOL     OW 7747   6.449   0.365   5.057  0.1460 -0.1700 -0.6900
 2283SOL    HW1 7748   6.425   0.448   5.107  0.4620 -0.4170 -0.1181
 2283SOL    HW2 7749   6.409   0.286   5.102 -0.3817 -0.3157 -1.3853
 2284SOL     OW 7750   1.152   3.604   6.742  0.3949  0.3100  0.1718
 2284SOL    HW1 7751   1.214   3.528   6.725  2.0183  1.3617  1.1614
 2284SOL    HW2 7752   1.183   3.684   6.692 -2.4257 -0.0670 -2.5449
 2285SOL     OW 7753   1.375   6.597   0.349  0.4507  0.0369 -0.1420
 2285SOL    HW1 7754   1.364   6.669   0.280  1.9646 -1.3999 -1.9990
 2285SOL    HW2 7755   1.310   6.523   0.330 -0.1111  0.2581  0.8806
 2286SOL     OW 7756   5.253   5.209   1.783  0.3903  0.1555  0.3453
 2286SOL    HW1 7757   5.235   5.112   1.766  0.8794  0.1904 -0.4119
 2286SOL    HW2 7758   5.322   5.217   1.856  0.1311 -0.0565  0.6162
 2287SOL     OW 7759   2.254   1.716   2.888 -0.3582  0.2287  0.3027
 2287SOL    HW1 7760   2.300   1.771   2.958  1.0968  0.8601 -1.0723
 2287SOL    HW2 7761   2.323   1.679   2.825 -1.6399 -0.1566 -0.9189
 2288SOL     OW 7762   5.968   4.946   3.639  0.1102  0.4540  0.0723
 2288SOL    HW1 7763   6.064   4.976   3.643  0.2449 -0.0200  0.5339
 2288SOL    HW2 7764   5.916   5.010   3.583  1.0130 -0.1172 -1.4835
 2289SOL     OW 7765   1.641   2.948   1.585 -0.0793  0.1323  0.3280
 2289SOL    HW1 7766   1.567   2.890   1.550 -0.5208  1.0631 -0.3335
 2289SOL    HW2 7767   1.631   3.041   1.548  1.8326  0.1076 -0.3643
 2290SOL     OW 7768   1.385   5.911   6.155  0.2853  0.1063  0.4842
 2290SOL    HW1 7769   1.435   5.881   6.075  0.5108  0.3170  0.5445
 2290SOL    HW2 7770   1.448   5.926   6.231 -0.0087 -0.7863  0.9202
 2291SOL     OW 7771   1.045   6.046   5.964  0.3511  0.3865  0.6355
 2291SOL    HW1 7772   1.127   6.096   5.992  0.3616 -0.2418  1.7999
 2291SOL    HW2 7773   1.071   5.972   5.902  0.5983  0.5763  0.5135
 2292SOL     OW 7774   2.041   5.808   5.400 -0.0147 -0.0030  0.0164
 2292SOL    HW1 7775   2.108   5.736   5.421 -0.2067 -0.1645  0.0780
 2292SOL    HW2 7776   2.086   5.881   5.349  0.3527  0.1826  0.6077
 2293SOL     OW 7777   5.025   4.239   3.810 -0.0075  0.3621  0.4341
 2293SOL    HW1 7778   4.971   4.216   3.729 -0.9967 -0.1165  1.2025
 2293SOL    HW2 7779   4.973   4.215   3.892 -0.2177  3.3176  1.2810
 2294SOL     OW 7780   2.628   6.776   6.807  0.0588 -0.1108  0.2869
 2294SOL    HW1 7781   2.649   6.685   6.771  1.1215 -0.5148  1.8222
 2294SOL    HW2 7782   2.667   6.845   6.746  2.4686 -0.7860  0.9188
 2295SOL     OW 7783   1.066   0.630   1.741 -0.1296 -0.1579 -0.3721
 2295SOL    HW1 7784   1.025   0.636   1.831 -0.4876  2.6573 -0.6147
 2295SOL    HW2 7785   1.004   0.584   1.678 -0.7193 -0.3747  0.3571
 2296SOL     OW 7786   3.393   6.809   0.327 -0.0586 -0.4412 -0.1902
 2296SOL    HW1 7787   3.440   6.740   0.383 -2.0576 -1.4716  0.3263
 2296SOL    HW2 7788   3.405   6.899   0.369  1.3400 -0.6736 -0.0407
 2297SOL     OW 7789   2.728   5.591   6.992  0.2176 -0.0226  0.0322
 2297SOL    HW1 7790   2.648   5.565   7.047  0.5791  2.1487  1.7285
 2297SOL    HW2 7791   2.812   5.570   7.044  0.5512  2.7159  0.7594
 2298SOL     OW 7792   4.677   3.980   6.808 -0.2607 -0.9180  0.4371
 2298SOL    HW1 7793   4.635   3.973   6.717 -0.3821 -0.6405  0.4699
 2298SOL    HW2 7794   4.620   3.932   6.875 -1.2173  0.5357  0.7078
 2299SOL     OW 7795   5.959   6.637   1.123 -0.1979 -0.2205 -0.6101
 2299SOL    HW1 7796   5.927   6.594   1.207 -0.8723  0.2165 -0.6305
 2299SOL    HW2 7797   6.056   6.618   1.110 -0.4586 -1.6377 -0.5747
 2300SOL     OW 7798   0.222   4.340   0.666  0.2073  0.2553  0.4321
 2300SOL    HW1 7799   0.290   4.279   0.626  0.5345  0.0555  1.2627
 2300SOL    HW2 7800   0.268   4.412   0.719 -0.1859  1.0127 -0.2274
 2301SOL     OW 7801   3.556   3.076   0.692 -0.4365 -0.6503 -0.3379
 2301SOL    HW1 7802   3.595   3.158   0.650 -1.6056  0.3827  0.5074
 2301SOL    HW2 7803   3.457   3.075   0.677 -0.7542 -0.7310  1.5356
 2302SOL     OW 7804   4.091   4.775   3.026  0.3299 -0.4861  0.2103
 2302SOL    HW1 7805   4.179   4.744   3.061  0.7229 -0.4442 -0.7157
 2302SOL    HW2 7806   4.101   4.805   2.931 -0.9724 -1.8817 -0.4123
 2303SOL     OW 7807   1.393   3.401   6.690 -0.1331  0.8193  0.5288
 2303SOL    HW1 7808   1.364   3.310   6.719 -1.9840  1.7039  1.6061
 2303SOL    HW2 7809   1.493   3.404   6.683 -0.1059 -1.7634 -1.2517
 2304SOL     OW 7810   1.512   6.842   6.580  0.3825  0.1989 -0.3408
 2304SOL    HW1 7811   1.415   6.841   6.602  0.4956  0.8039  0.1879
 2304SOL    HW2 7812   1.563   6.891   6.650  1.1979 -0.8709 -0.1414
 2305SOL     OW 7813   4.953   4.315   2.030  0.3691 -0.1606 -0.0390
 2305SOL    HW1 7814   4.915   4.363   2.109 -1.2522  0.2412 -1.0111
 2305SOL    HW2 7815   4.879   4.271   1.979  1.7234 -3.4236  0.5736
 2306SOL     OW 7816   0.120   5.917   0.741 -0.0846 -0.3663  0.1033
 2306SOL    HW1 7817   0.213   5.903   0.776  0.0722 -1.1041 -0.5724
 2306SOL    HW2 7818   0.062   5.840   0.769 -0.1238 -0.6286 -0.6744
 2307SOL     OW 7819   6.678   2.967   3.556 -0.0468  0.0312 -0.0815
 2307SOL    HW1 7820   6.770   2.971   3.594 -0.2143 -0.9818  0.4548
 2307SOL    HW2 7821   6.614   2.937   3.626 -0.8938  1.2243 -0.2941
 2308SOL     OW 7822   0.128   6.084   1.647  0.1989  0.3002  0.0463
 2308SOL    HW1 7823   0.212   6.056   1.694  0.0903  1.0184  0.6929
 2308SOL    HW2 7824   0.050   6.041   1.693  0.0798  1.1371  0.6421
 2309SOL     OW 7825   6.985   6.846   0.401  0.1359  0.4278 -0.3075
 2309SOL    HW1 7826   7.085   6.842   0.403  0.0925 -1.0655  0.2148
 2309SOL    HW2 7827   6.953   6.844   0.306  0.5787 -0.0552 -0.4454
 2310SOL     OW 7828   4.333   1.540   2.946  0.0265  0.1640  0.3122
 2310SOL    HW1 7829   4.407   1.576   2.889  0.1423  0.4669  0.6439
 2310SOL    HW2 7830   4.313   1.446   2.920  0.9794 -0.1426  0.6413
 2311SOL     OW 7831   3.198   0.738   3.703  0.4527 -0.3438 -0.0726
 2311SOL    HW1 7832   3.119   0.678   3.708  0.4674 -0.3739 -0.2026
 2311SOL    HW2 7833   3.232   0.756   3.795  0.3091 -0.3493 -0.0187
 2312SOL     OW 7834   1.960   0.825   1.789 -0.2464  0.0778  0.2433
 2312SOL    HW1 7835   1.903   0.778   1.722  0.0798  0.0721 -0.0290
 2312SOL    HW2 7836   2.020   0.759   1.833 -0.5956  0.0481  0.6836
 2313SOL     OW 7837   3.076   4.119   6.571 -0.0737 -0.6319 -0.4619
 2313SOL    HW1 7838   3.084   4.090   6.667  0.6660 -0.7413 -0.5462
 2313SOL    HW2 7839   3.013   4.058   6.523 -0.4168 -0.6042 -0.0561
 2314SOL     OW 7840   6.981   5.807   2.256  0.7170 -0.7681 -0.0843
 2314SOL    HW1 7841   6.964   5.868   2.334  0.1483 -0.3156 -0.5571
 2314SOL    HW2 7842   6.901   5.750   2.240  0.6307 -0.4887 -0.6670
 2315SOL     OW 7843   5.419   0.604   6.398  0.3127  0.1960 -0.1304
 2315SOL    HW1 7844   5.495   0.576   6.456 -0.3394  0.7197  0.9955
 2315SOL    HW2 7845   5.417   0.546   6.316  0.5087 -1.3882  0.9477
 2316SOL     OW 7846   3.496   3.328   0.284  0.6060  0.2641  0.3282
 2316SOL    HW1 7847   3.570   3.394   0.299  1.0172 -0.3949  1.3030
 2316SOL    HW2 7848   3.535   3.240   0.257  0.0741  0.3222 -0.6986
 2317SOL     OW 7849   5.965   4.107   1.944 -0.3863 -0.1831  0.3100
 2317SOL    HW1 7850   6.059   4.101   1.912 -0.5254  0.2189 -0.1987
 2317SOL    HW2 7851   5.961   4.085   2.042  0.6281  2.2622  0.9803
 2318SOL     OW 7852   1.919   4.802   2.726 -0.0780 -0.2069  0.1972
 2318SOL    HW1 7853   1.895   4.717   2.774 -2.1671 -0.2279 -0.7389
 2318SOL    HW2 7854   1.984   4.781   2.653  1.5824 -0.4985  1.7035
 2319SOL     OW 7855   3.887   6.437   2.150 -0.4056  0.1533 -0.3703
 2319SOL    HW1 7856   3.975   6.450   2.103 -0.4114 -0.3798 -0.5402
 2319SOL    HW2 7857   3.889   6.484   2.238 -0.8274  2.2181 -1.4046
 2320SOL     OW 7858   1.917   1.822   4.730  0.0773 -0.2023 -0.3898
 2320SOL    HW1 7859   1.893   1.857   4.640 -1.2269 -0.1928 -0.0534
 2320SOL    HW2 7860   1.996   1.761   4.722 -0.6154 -0.9703 -1.6765
 2321SOL     OW 7861   1.782   4.261   3.625  0.3735  0.8176  0.5616
 2321SOL    HW1 7862   1.818   4.170   3.646 -0.6979  0.3898  0.5932
 2321SOL    HW2 7863   1.844   4.307   3.561  1.4214  0.4569  1.2893
 2322SOL     OW 7864   1.715   2.438   2.082  0.2336 -0.1768 -0.4594
 2322SOL    HW1 7865   1.689   2.344   2.057  0.0354 -0.2499  0.0135
 2322SOL    HW2 7866   1.803   2.437   2.130 -0.4148 -0.2803  0.7672
 2323SOL     OW 7867   3.990   6.287   0.288  0.2168  0.2742  0.0889
 2323SOL    HW1 7868   3.912   6.341   0.319 -0.1860  0.2234 -0.8057
 2323SOL    HW2 7869   4.074   6.341   0.298 -0.1254  0.9101 -0.3778
 2324SOL     OW 7870   0.183   5.373   2.543  0.0661  0.1730  0.1975
 2324SOL    HW1 7871   0.154   5.440   2.476 -0.4041 -1.8453 -1.7094
 2324SOL    HW2 7872   0.283   5.368   2.544  0.0841 -1.5996 -2.3656
 2325SOL     OW 7873   6.919   4.012   2.802 -0.0023 -1.1000  0.3796
 2325SOL    HW1 7874   6.932   4.099   2.755 -0.0889 -1.4222 -0.2442
 2325SOL    HW2 7875   6.999   3.993   2.859  1.2008 -1.8386 -1.4524
 2326SOL     OW 7876   1.420   0.555   1.764 -0.0573 -0.0924  0.2593
 2326SOL    HW1 7877   1.428   0.509   1.676 -0.1157 -1.9963  1.2105
 2326SOL    HW2 7878   1.507   0.553   1.811 -0.1276  0.5769  0.4316
 2327SOL     OW 7879   6.989   6.955   1.454 -0.5922 -0.0148  0.0606
 2327SOL    HW1 7880   6.964   6.896   1.530 -0.4497  0.1270  0.2200
 2327SOL    HW2 7881   6.984   6.904   1.368  1.1641 -0.7457  0.3580
 2328SOL     OW 7882   3.036   4.820   2.060  0.0728 -0.1323  0.3905
 2328SOL    HW1 7883   3.002   4.730   2.031  0.7679 -0.9697  2.0038
 2328SOL    HW2 7884   3.068   4.871   1.980  0.8003 -1.8171 -0.4574
 2329SOL     OW 7885   1.487   3.835   0.443 -0.2342  0.1288 -0.1558
 2329SOL    HW1 7886   1.560   3.803   0.383 -0.7081  0.5372 -0.9707
 2329SOL    HW2 7887   1.399   3.798   0.411 -0.9399  2.7752 -1.6404
 2330SOL     OW 7888   4.878   2.866   2.595  0.1977  0.4286  0.2404
 2330SOL    HW1 7889   4.891   2.807   2.674  0.7098  0.1059 -0.0802
 2330SOL    HW2 7890   4.835   2.815   2.520 -0.3297  0.7446  0.3214
 2331SOL     OW 7891   2.303   6.164   1.137 -0.3343 -0.2942  0.2206
 2331SOL    HW1 7892   2.211   6.177   1.100 -0.3108  1.1133  0.6093
 2331SOL    HW2 7893   2.342   6.252   1.161  1.5933 -0.7700 -1.0083
 2332SOL     OW 7894   0.703   6.122   6.288 -0.9205  0.3733  0.2434
 2332SOL    HW1 7895   0.785   6.144   6.235 -2.3538  1.3098 -1.6995
 2332SOL    HW2 7896   0.682   6.197   6.350 -0.1500 -0.0196  1.0026
 2333SOL     OW 7897   3.391   5.337   2.395 -0.5347  0.2661  0.3359
 2333SOL    HW1 7898   3.411   5.364   2.300 -1.1642  0.7868  0.3427
 2333SOL    HW2 7899   3.422   5.243   2.410  2.6236  1.2329  0.5987
 2334SOL     OW 7900   3.453   3.104   5.552  0.0207  0.3754 -0.4234
 2334SOL    HW1 7901   3.389   3.180   5.560  0.2444  0.5745 -0.4986
 2334SOL    HW2 7902   3.546   3.137   5.570  0.4415  0.6549 -2.7350
 2335SOL     OW 7903   5.556   0.470   4.040 -0.2524 -0.9860  0.3495
 2335SOL    HW1 7904   5.629   0.443   3.976 -0.3293 -1.5499  0.5007
 2335SOL    HW2 7905   5.581   0.442   4.132  0.8494  1.6568  0.9452
 2336SOL     OW 7906   1.647   2.616   2.784  0.1134 -0.2635 -0.3587
 2336SOL    HW1 7907   1.573   2.676   2.814  1.1908  0.9084  0.0964
 2336SOL    HW2 7908   1.657   2.540   2.848 -0.2991 -0.0907 -0.0882
 2337SOL     OW 7909   5.041   6.409   3.243  0.4759  0.0517 -0.1067
 2337SOL    HW1 7910   5.090   6.490   3.212 -2.1900  1.8059 -0.0474
 2337SOL    HW2 7911   5.051   6.336   3.175  2.3477  0.6048 -0.4936
 2338SOL     OW 7912   0.197   4.087   3.770  0.0732 -0.3605 -0.1524
 2338SOL    HW1 7913   0.205   4.017   3.698  0.5072 -0.4439 -0.0245
 2338SOL    HW2 7914   0.217   4.046   3.858  0.9348  0.0609 -0.1432
 2339SOL     OW 7915   3.662   3.679   3.207 -0.5006  0.6195  0.0786
 2339SOL    HW1 7916   3.733   3.725   3.153 -1.4096 -0.2411 -1.9555
 2339SOL    HW2 7917   3.676   3.580   3.204 -0.2992  0.5581  1.8924
 2340SOL     OW 7918   1.195   4.441   5.289 -0.2902  0.0831 -0.4194
 2340SOL    HW1 7919   1.113   4.450   5.234 -0.0952  0.0494 -0.7192
 2340SOL    HW2 7920   1.201   4.348   5.325 -0.9996  0.4156  0.5914
 2341SOL     OW 7921   3.797   5.738   4.014 -0.1103 -0.8815 -0.4591
 2341SOL    HW1 7922   3.722   5.804   4.022 -0.8081 -1.6900 -0.1529
 2341SOL    HW2 7923   3.867   5.775   3.953 -0.8832 -0.2163 -0.9776
 2342SOL     OW 7924   3.479   1.436   4.593  0.1848  0.4296  0.5339
 2342SOL    HW1 7925   3.536   1.366   4.637 -0.5991 -0.1424  0.6582
 2342SOL    HW2 7926   3.501   1.441   4.496  0.9748  0.7462  0.7228
 2343SOL     OW 7927   6.088   0.529   1.297 -0.0794 -0.4335 -0.3616
 2343SOL    HW1 7928   6.016   0.565   1.238  1.4304  2.3960 -0.6337
 2343SOL    HW2 7929   6.062   0.541   1.393  0.0948  0.8527 -0.4555
 2344SOL     OW 7930   6.166   5.357   0.879  0.1610  0.5621  0.1252
 2344SOL    HW1 7931   6.169   5.272   0.931  1.5176 -0.1591 -1.0453
 2344SOL    HW2 7932   6.072   5.375   0.851 -0.2980  0.0011  1.2396
 2345SOL     OW 7933   2.920   6.255   4.583 -0.2852 -0.5238  0.5656
 2345SOL    HW1 7934   2.910   6.247   4.484  0.8770  0.5917  0.3207
 2345SOL    HW2 7935   2.972   6.177   4.618  1.5427  0.3045 -0.1308
 2346SOL     OW 7936   6.791   3.458   6.922  0.2057  0.4082  0.0149
 2346SOL    HW1 7937   6.727   3.441   6.997  0.1351  1.5618  0.2308
 2346SOL    HW2 7938   6.885   3.454   6.956  0.2897 -1.5009 -0.3454
 2347SOL     OW 7939   2.967   6.921   6.970 -0.1327 -0.6787 -0.7211
 2347SOL    HW1 7940   2.873   6.911   7.005 -0.1125 -0.2839 -0.5446
 2347SOL    HW2 7941   2.970   6.995   6.903 -0.3484 -2.0188 -2.2502
 2348SOL     OW 7942   5.870   5.457   4.538 -0.4908 -0.2507 -0.2500
 2348SOL    HW1 7943   5.910   5.387   4.596  0.8380 -0.9436 -1.9481
 2348SOL    HW2 7944   5.924   5.541   4.545  1.7701 -1.3501 -2.9632
 2349SOL     OW 7945   6.961   4.050   3.437  0.3374  0.0968  0.3236
 2349SOL    HW1 7946   6.863   4.049   3.417  0.6040  0.5251 -1.1621
 2349SOL    HW2 7947   6.976   4.040   3.535 -1.2603  2.0430  0.8213
 2350SOL     OW 7948   5.383   3.094   0.943 -0.3763 -0.2868 -0.0956
 2350SOL    HW1 7949   5.432   3.053   0.866  1.5185  1.4979  0.0809
 2350SOL    HW2 7950   5.386   3.194   0.935 -0.5014 -0.0645  2.0592
 2351SOL     OW 7951   2.222   0.642   0.556 -0.1019 -0.0131  0.2227
 2351SOL    HW1 7952   2.270   0.597   0.631 -1.9027  0.1461  1.5394
 2351SOL    HW2 7953   2.243   0.740   0.557  1.4611 -0.2997 -0.7888
 2352SOL     OW 7954   0.091   2.719   3.294 -0.1773 -0.0044  0.3129
 2352SOL    HW1 7955  -0.005   2.732   3.269 -0.4495  0.7328  1.6631
 2352SOL    HW2 7956   0.130   2.806   3.324  0.9029 -0.3111 -0.1762
 2353SOL     OW 7957   4.179   5.460   5.262 -0.5281  0.0397 -0.3733
 2353SOL    HW1 7958   4.157   5.389   5.196 -2.4007  0.5234 -0.3161
 2353SOL    HW2 7959   4.256   5.430   5.319  2.0497  0.1023 -3.5170
 2354SOL     OW 7960   1.239   0.701   5.818  0.4404 -0.3546 -0.2907
 2354SOL    HW1 7961   1.170   0.687   5.889  0.4229 -1.2546 -0.4781
 2354SOL    HW2 7962   1.194   0.731   5.734  0.2307 -1.1838 -0.4873
 2355SOL     OW 7963   1.691   5.773   4.379 -0.2777 -0.2968 -0.0739
 2355SOL    HW1 7964   1.617   5.839   4.369  0.1612  0.2021 -0.0640
 2355SOL    HW2 7965   1.657   5.682   4.356 -1.7016 -0.5795  2.6729
 2356SOL     OW 7966   2.181   2.826   0.332  0.5985  0.8627 -0.0541
 2356SOL    HW1 7967   2.103   2.847   0.273 -0.9105 -2.1603  0.6341
 2356SOL    HW2 7968   2.162   2.859   0.425  0.7476  1.3371 -0.1944
 2357SOL     OW 7969   2.746   6.155   4.180  0.0964 -0.5301  0.1219
 2357SOL    HW1 7970   2.829   6.158   4.236 -0.1119  0.6824  0.3837
 2357SOL    HW2 7971   2.768   6.182   4.087 -0.2819  1.4836  0.5768
 2358SOL     OW 7972   6.558   3.957   6.412  0.0784  0.1138 -0.3770
 2358SOL    HW1 7973   6.639   4.008   6.441 -1.4758  2.4601  0.0452
 2358SOL    HW2 7974   6.504   3.932   6.492  0.7986 -2.3511 -0.5667
 2359SOL     OW 7975   0.204   0.730   5.851  0.5301  0.0960 -0.2482
 2359SOL    HW1 7976   0.244   0.803   5.906  3.1478 -1.9343  0.7080
 2359SOL    HW2 7977   0.222   0.641   5.893 -1.2040 -1.2724 -2.1556
 2360SOL     OW 7978   1.027   3.864   0.950 -0.2571 -0.3615 -0.1835
 2360SOL    HW1 7979   0.936   3.905   0.946  0.2288  0.7615 -0.1897
 2360SOL    HW2 7980   1.025   3.784   1.010 -1.1471 -0.0917  0.1632
 2361SOL     OW 7981   3.073   1.690   1.012 -0.1573 -0.1739  0.3275
 2361SOL    HW1 7982   3.074   1.654   0.919  0.6454 -0.0521  0.2779
 2361SOL    HW2 7983   2.990   1.743   1.027  0.8819  2.0930 -1.2337
 2362SOL     OW 7984   3.647   4.998   2.192 -0.2656  0.3330  0.5286
 2362SOL    HW1 7985   3.712   5.052   2.138  0.9835  0.0747  1.7299
 2362SOL    HW2 7986   3.615   4.920   2.137  0.4286  0.4581 -0.0710
 2363SOL     OW 7987   4.425   6.709   3.366  0.7513 -0.2357  0.2733
 2363SOL    HW1 7988   4.444   6.720   3.269  1.7931  0.0649  0.4962
 2363SOL    HW2 7989   4.328   6.690   3.380  0.8601 -1.7835 -0.9288
 2364SOL     OW 7990   1.458   2.863   0.098  0.4098  0.0424 -0.5116
 2364SOL    HW1 7991   1.459   2.800   0.020  0.1742  0.1423 -0.5967
 2364SOL    HW2 7992   1.513   2.944   0.076  0.2514  0.1223 -0.6188
 2365SOL     OW 7993   5.527   2.482   0.995  0.0735  0.0326  0.2315
 2365SOL    HW1 7994   5.503   2.389   0.967 -1.0518  0.7382 -1.2976
 2365SOL    HW2 7995   5.621   2.484   1.028  0.3354 -1.5155 -0.3360
 2366SOL     OW 7996   4.921   6.674   1.215 -0.6943  0.4854 -0.4783
 2366SOL    HW1 7997   4.835   6.660   1.168 -0.6030 -0.0057 -0.5056
 2366SOL    HW2 7998   4.951   6.588   1.257 -0.8394  0.9294  0.5848
 2367SOL     OW 7999   2.004   4.554   0.154  0.2820 -0.3812 -0.7270
 2367SOL    HW1 8000   1.911   4.588   0.169  0.4687 -0.0884 -0.2128
 2367SOL    HW2 8001   2.046   4.534   0.242  0.7781 -0.3216 -0.9512
 2368SOL     OW 8002   0.546   6.792   2.837 -0.3294  0.3526 -0.3130
 2368SOL    HW1 8003   0.596   6.878   2.828  0.8251  0.0657  2.3838
 2368SOL    HW2 8004   0.597   6.719   2.790  1.3063  0.2788  1.4637
 2369SOL     OW 8005   2.611   1.029   1.993  0.8142  0.5434 -0.3432
 2369SOL    HW1 8006   2.550   1.108   2.002  0.2749  0.1004 -0.0149
 2369SOL    HW2 8007   2.559   0.945   2.010  1.7119  0.2019  0.8643
 2370SOL     OW 8008   4.508   1.771   6.388 -0.4011 -0.2277  0.1055
 2370SOL    HW1 8009   4.514   1.860   6.343  0.6611 -0.4314 -0.1939
 2370SOL    HW2 8010   4.545   1.778   6.480 -0.2583 -0.3756  0.0588
 2371SOL     OW 8011   2.303   5.583   2.317  0.2566  0.1964  0.3648
 2371SOL    HW1 8012   2.216   5.605   2.272  0.0671  0.9224  1.0523
 2371SOL    HW2 8013   2.363   5.536   2.252 -0.5203 -0.0175 -0.2189
 2372SOL     OW 8014   5.071   2.195   4.176  0.1680 -0.7206 -0.2447
 2372SOL    HW1 8015   4.991   2.226   4.227 -1.2691 -1.5405 -1.9017
 2372SOL    HW2 8016   5.136   2.153   4.240  0.0399  1.3336  1.3558
 2373SOL     OW 8017   1.696   5.208   6.906  0.4884 -0.0181 -0.6991
 2373SOL    HW1 8018   1.641   5.161   6.976  0.7824 -0.2842 -0.6453
 2373SOL    HW2 8019   1.635   5.253   6.841  0.1907 -0.5970 -0.8346
 2374SOL     OW 8020   6.404   0.908   5.660  0.3728 -0.4133  0.3289
 2374SOL    HW1 8021   6.322   0.922   5.605 -0.3611 -2.2229  0.9147
 2374SOL    HW2 8022   6.485   0.926   5.603 -0.3548  2.3697  0.0222
 2375SOL     OW 8023   6.650   0.270   4.904 -0.3774  0.9821 -0.0575
 2375SOL    HW1 8024   6.617   0.215   4.827 -1.4933  0.1579  0.9772
 2375SOL    HW2 8025   6.572   0.298   4.961  0.5239  0.3776  1.5466
 2376SOL     OW 8026   0.560   0.532   5.774 -0.0290 -0.2140 -0.6401
 2376SOL    HW1 8027   0.577   0.593   5.851  1.9508  1.0741 -2.0125
 2376SOL    HW2 8028   0.647   0.491   5.745 -0.5057  0.3370 -2.9888
 2377SOL     OW 8029   2.776   4.448   5.657  0.1361 -0.0480 -0.4133
 2377SOL    HW1 8030   2.686   4.474   5.693  1.1994  1.5065  1.2866
 2377SOL    HW2 8031   2.810   4.521   5.598  1.1127  0.3206  0.5711
 2378SOL     OW 8032   4.282   2.593   6.479  0.1575 -0.1954 -0.3365
 2378SOL    HW1 8033   4.365   2.546   6.510 -0.4533 -2.2821 -1.6173
 2378SOL    HW2 8034   4.303   2.650   6.399  0.8383  1.5034  1.0060
 2379SOL     OW 8035   0.101   6.169   0.672  0.1145 -0.0332  0.3880
 2379SOL    HW1 8036   0.020   6.218   0.705 -1.0421 -2.2800  1.0320
 2379SOL    HW2 8037   0.097   6.074   0.701  2.4309 -0.4916 -0.5935
 2380SOL     OW 8038   5.541   2.660   4.332 -0.3744  0.0475 -0.0639
 2380SOL    HW1 8039   5.572   2.664   4.238 -0.0413  1.1595  0.0826
 2380SOL    HW2 8040   5.505   2.749   4.360  0.2350 -0.0378  1.0859
 2381SOL     OW 8041   2.940   5.810   2.527 -0.6287  0.0276  0.5731
 2381SOL    HW1 8042   2.886   5.822   2.444  0.1332  2.4396  0.3453
 2381SOL    HW2 8043   2.950   5.712   2.547 -1.5808 -0.5814 -1.6421
 2382SOL     OW 8044   2.890   0.873   3.481 -0.0362  0.0102  0.5161
 2382SOL    HW1 8045   2.861   0.940   3.412 -0.0142  1.5948  1.9834
 2382SOL    HW2 8046   2.982   0.841   3.459  0.1998  0.9248  0.1123
 2383SOL     OW 8047   5.733   4.103   1.093  0.5352  0.4475  0.6407
 2383SOL    HW1 8048   5.801   4.149   1.037  0.2866 -0.3284 -0.3179
 2383SOL    HW2 8049   5.713   4.013   1.056  0.6456 -0.2608  2.2029
 2384SOL     OW 8050   3.852   1.279   1.681 -0.6545 -0.2349 -0.0777
 2384SOL    HW1 8051   3.879   1.369   1.716 -0.4153 -1.0324  1.9069
 2384SOL    HW2 8052   3.879   1.272   1.585 -2.3135  2.4616 -0.8685
 2385SOL     OW 8053   1.169   1.768   0.251  0.4498  0.3900  0.1525
 2385SOL    HW1 8054   1.075   1.800   0.238  0.2706  0.5506  1.6664
 2385SOL    HW2 8055   1.232   1.831   0.206 -0.1335  0.6260 -0.3414
 2386SOL     OW 8056   5.236   4.498   3.144  0.0340  0.7360  0.2701
 2386SOL    HW1 8057   5.336   4.500   3.136  0.0942  1.5234  1.0673
 2386SOL    HW2 8058   5.211   4.455   3.230 -0.2576  1.9357  0.7988
 2387SOL     OW 8059   1.627   0.218   4.067 -0.6549  0.3388 -0.1299
 2387SOL    HW1 8060   1.649   0.144   4.130 -1.2120  1.1023  0.9973
 2387SOL    HW2 8061   1.528   0.222   4.054 -0.9413  2.6412  2.1119
 2388SOL     OW 8062   5.639   1.141   5.355  0.1673  0.2005  0.4147
 2388SOL    HW1 8063   5.648   1.049   5.391  1.6391 -0.2292 -0.9002
 2388SOL    HW2 8064   5.543   1.168   5.352 -0.3545 -1.6160  0.0694
 2389SOL     OW 8065   2.162   6.080   1.944 -0.4662  0.5439 -0.2876
 2389SOL    HW1 8066   2.218   6.133   2.008 -2.6330  1.7892  0.7089
 2389SOL    HW2 8067   2.174   6.117   1.851  0.8373  0.3352 -0.2188
 2390SOL     OW 8068   3.770   4.824   1.242 -0.1299 -0.1779  0.2112
 2390SOL    HW1 8069   3.747   4.809   1.338  1.3015  0.4172  0.6821
 2390SOL    HW2 8070   3.813   4.914   1.232 -1.9437  0.5819 -1.3217
 2391SOL     OW 8071   4.570   6.330   5.143  0.1103 -0.3250 -0.2962
 2391SOL    HW1 8072   4.586   6.234   5.121  0.9317 -0.1202 -0.6311
 2391SOL    HW2 8073   4.644   6.386   5.106  0.6174  0.2465  1.4431
 2392SOL     OW 8074   4.086   0.792   5.490 -0.1266  0.5588  0.3508
 2392SOL    HW1 8075   4.095   0.714   5.551 -2.8865 -0.3356 -0.2401
 2392SOL    HW2 8076   4.072   0.875   5.544  1.0719  0.3830  0.9543
 2393SOL     OW 8077   3.009   5.906   3.771  0.9215 -0.2987  0.1290
 2393SOL    HW1 8078   3.090   5.902   3.713  0.6237 -1.8447 -0.2308
 2393SOL    HW2 8079   3.035   5.936   3.862  1.7408  0.1325 -0.2336
 2394SOL     OW 8080   2.094   5.507   3.884 -0.2521 -0.1145  0.2361
 2394SOL    HW1 8081   2.102   5.407   3.887 -2.3453 -0.3104  1.2423
 2394SOL    HW2 8082   2.093   5.543   3.977  0.6544  0.8814 -0.1228
 2395SOL     OW 8083   4.838   6.110   0.541  0.3483  0.2499 -0.2313
 2395SOL    HW1 8084   4.849   6.136   0.445 -0.4563  0.0648 -0.3805
 2395SOL    HW2 8085   4.881   6.021   0.557 -2.1732 -1.2460 -1.1836
 2396SOL     OW 8086   4.844   6.039   1.333  0.1305  0.0385 -0.5620
 2396SOL    HW1 8087   4.831   5.972   1.260 -2.4928  0.3328 -0.4569
 2396SOL    HW2 8088   4.764   6.099   1.339  1.7906  2.3420  0.2566
 2397SOL     OW 8089   0.857   3.189   4.994  0.6720 -0.3224 -0.4747
 2397SOL    HW1 8090   0.925   3.146   4.935  1.1949 -0.6094  0.3135
 2397SOL    HW2 8091   0.902   3.257   5.052 -0.2333  1.8349 -2.1584
 2398SOL     OW 8092   5.564   3.664   4.979 -0.1400 -0.2060 -0.1263
 2398SOL    HW1 8093   5.469   3.638   4.960 -1.7047  4.7926 -0.6625
 2398SOL    HW2 8094   5.585   3.644   5.075 -1.8684 -1.1061  0.1111
 2399SOL     OW 8095   4.861   2.924   2.244  0.1375  0.1921 -0.0217
 2399SOL    HW1 8096   4.819   2.867   2.315  1.7722 -2.1638 -0.8200
 2399SOL    HW2 8097   4.797   2.937   2.168 -0.2140 -0.7262  0.1140
 2400SOL     OW 8098   3.844   5.931   0.960 -0.8464  0.2939 -0.1097
 2400SOL    HW1 8099   3.899   6.012   0.937 -1.0276 -0.1590 -2.3553
 2400SOL    HW2 8100   3.748   5.950   0.939 -0.8867 -0.4780 -0.6596
 2401SOL     OW 8101   0.195   5.605   0.162  0.1610  0.1988  0.2591
 2401SOL    HW1 8102   0.280   5.601   0.108 -0.6319 -0.3860 -0.9741
 2401SOL    HW2 8103   0.198   5.685   0.222  0.6751  1.4388 -1.3553
 2402SOL     OW 8104   6.698   6.870   6.260  0.0465  0.2262 -0.3452
 2402SOL    HW1 8105   6.615   6.815   6.263 -1.0676  1.6054 -2.6768
 2402SOL    HW2 8106   6.674   6.964   6.232  2.0666  1.4708  1.7595
 2403SOL     OW 8107   2.359   6.579   3.008  0.1330  0.3795  0.5916
 2403SOL    HW1 8108   2.268   6.619   3.018  0.5703  1.5189  0.2159
 2403SOL    HW2 8109   2.369   6.502   3.070 -2.0114 -1.4893 -1.2053
 2404SOL     OW 8110   4.970   0.612   6.898 -0.1144  0.0558 -0.1982
 2404SOL    HW1 8111   5.040   0.541   6.912 -0.8833 -0.2212  3.2799
 2404SOL    HW2 8112   4.881   0.576   6.926 -1.1750  1.3240 -1.8067
 2405SOL     OW 8113   3.482   4.556   0.650 -0.5960  0.4908  0.2164
 2405SOL    HW1 8114   3.397   4.609   0.654 -0.9736 -0.1162  0.3080
 2405SOL    HW2 8115   3.510   4.546   0.554 -0.7687  0.4734  0.1669
 2406SOL     OW 8116   4.921   0.078   0.269 -0.5550 -0.6014 -0.2100
 2406SOL    HW1 8117   4.918   0.135   0.186 -2.8077 -1.1948 -0.6048
 2406SOL    HW2 8118   5.010   0.086   0.312 -0.3726  2.2107 -0.9580
 2407SOL     OW 8119   4.754   6.107   3.172 -0.8616  0.2460 -0.3693
 2407SOL    HW1 8120   4.801   6.118   3.260 -1.7255 -4.4353  1.0001
 2407SOL    HW2 8121   4.656   6.121   3.184 -0.8197  1.1268 -0.9990
 2408SOL     OW 8122   3.440   6.285   3.357  0.0712 -0.5503  0.6992
 2408SOL    HW1 8123   3.462   6.306   3.262 -0.0945  2.1602  1.1546
 2408SOL    HW2 8124   3.493   6.207   3.388  0.8039 -0.9141 -1.3361
 2409SOL     OW 8125   1.113   3.563   6.357  0.3126  0.4300  0.2048
 2409SOL    HW1 8126   1.202   3.523   6.380  0.1581 -0.5900 -0.8765
 2409SOL    HW2 8127   1.041   3.508   6.399  0.1686  1.2157  1.0202
 2410SOL     OW 8128   3.549   4.074   2.583 -0.4511 -0.5633  0.5556
 2410SOL    HW1 8129   3.498   3.988   2.595  1.0286 -1.5749 -0.1511
 2410SOL    HW2 8130   3.536   4.132   2.664 -1.4674 -1.4341  1.0480
 2411SOL     OW 8131   3.098   6.095   5.494 -0.1165 -0.3259  0.0812
 2411SOL    HW1 8132   3.041   6.149   5.432  0.5798  0.1178 -0.1766
 2411SOL    HW2 8133   3.109   6.003   5.458 -0.4938 -0.3485  0.0227
 2412SOL     OW 8134   3.725   4.912   0.025 -0.0901 -0.0106  0.0955
 2412SOL    HW1 8135   3.647   4.968  -0.001 -0.2008  0.5940  1.6451
 2412SOL    HW2 8136   3.729   4.904   0.125  1.6171 -0.3261  0.0344
 2413SOL     OW 8137   3.407   2.082   4.369  0.0501  0.3632 -0.0150
 2413SOL    HW1 8138   3.309   2.092   4.386  0.3973  0.9603  1.8468
 2413SOL    HW2 8139   3.423   2.077   4.270 -1.6634  2.4535 -0.4722
 2414SOL     OW 8140   4.511   1.985   5.132  0.0300 -0.3852  0.4342
 2414SOL    HW1 8141   4.471   2.077   5.129 -1.3286 -0.8531  2.1538
 2414SOL    HW2 8142   4.556   1.971   5.220  1.4589 -0.9078 -0.3558
 2415SOL     OW 8143   2.104   6.288   2.302 -0.2156 -0.0152 -0.5132
 2415SOL    HW1 8144   2.053   6.225   2.361  0.2523 -1.3963 -1.5448
 2415SOL    HW2 8145   2.172   6.337   2.357 -1.4142  0.5448  0.5355
 2416SOL     OW 8146   4.860   3.212   6.228 -0.2940  0.1652 -0.3905
 2416SOL    HW1 8147   4.939   3.175   6.180  0.0475 -1.1675  1.0911
 2416SOL    HW2 8148   4.842   3.157   6.310 -1.7407  1.4430  0.2106
 2417SOL     OW 8149   3.854   2.885   5.202 -0.6767  0.2216  0.1410
 2417SOL    HW1 8150   3.915   2.820   5.246 -1.4925  0.4241  1.6376
 2417SOL    HW2 8151   3.810   2.942   5.271 -0.9535  1.5138 -1.0460
 2418SOL     OW 8152   2.813   4.161   1.192  0.5355 -0.4196 -0.1275
 2418SOL    HW1 8153   2.904   4.134   1.226 -0.7650 -2.6306  1.9356
 2418SOL    HW2 8154   2.800   4.259   1.205  2.0289 -0.3357  1.0321
 2419SOL     OW 8155   3.538   6.344   4.664 -0.1162 -0.3502  1.0980
 2419SOL    HW1 8156   3.512   6.429   4.711 -1.2407 -0.0833  0.0316
 2419SOL    HW2 8157   3.461   6.311   4.609  0.9728 -0.9527 -0.1192
 2420SOL     OW 8158   2.151   0.253   0.360 -0.5080 -0.6620 -0.1818
 2420SOL    HW1 8159   2.094   0.304   0.424 -1.5396 -0.9893 -0.8148
 2420SOL    HW2 8160   2.241   0.296   0.353 -0.3151 -0.7006  1.5886
 2421SOL     OW 8161   4.838   1.771   3.986  0.2797  0.1373 -0.1704
 2421SOL    HW1 8162   4.930   1.794   3.954  1.3537 -2.4594  0.6989
 2421SOL    HW2 8163   4.826   1.805   4.079  0.2544  0.7431 -0.3952
 2422SOL     OW 8164   4.146   1.211   1.078 -0.2392 -0.0584  0.0279
 2422SOL    HW1 8165   4.216   1.168   1.020  0.7555  1.0512  0.3508
 2422SOL    HW2 8166   4.099   1.281   1.025 -0.2571  0.0324  0.1637
 2423SOL     OW 8167   0.557   4.867   4.443 -0.2643 -0.6051  0.4645
 2423SOL    HW1 8168   0.610   4.879   4.359  1.5178 -2.1861  1.2877
 2423SOL    HW2 8169   0.490   4.941   4.451  1.1323  0.9280 -1.1427
 2424SOL     OW 8170   6.315   6.485   0.633 -0.3172  0.0961  0.5528
 2424SOL    HW1 8171   6.265   6.441   0.559 -0.4067  1.9589 -0.5443
 2424SOL    HW2 8172   6.330   6.581   0.612  1.1998  0.2852  2.1791
 2425SOL     OW 8173   6.683   5.945   3.641  0.2984 -0.1269  0.2346
 2425SOL    HW1 8174   6.643   5.886   3.712  1.4128 -0.3353  0.7101
 2425SOL    HW2 8175   6.660   6.040   3.660 -0.8257 -0.3181 -0.0805
 2426SOL     OW 8176   0.646   3.906   3.514  0.2110  0.0987 -0.2140
 2426SOL    HW1 8177   0.681   3.921   3.606 -0.3858  1.6931 -0.2027
 2426SOL    HW2 8178   0.690   3.970   3.451 -2.4792  2.1574 -0.2096
 2427SOL     OW 8179   0.569   6.889   0.030  0.2389 -0.4355  0.2253
 2427SOL    HW1 8180   0.522   6.812  -0.013 -0.4442 -0.0102  0.1990
 2427SOL    HW2 8181   0.519   6.920   0.110  0.7476 -0.3010  0.4995
 2428SOL     OW 8182   0.308   1.400   0.343  0.0653  0.2516 -0.0795
 2428SOL    HW1 8183   0.394   1.354   0.324 -0.0126  0.0697  0.0082
 2428SOL    HW2 8184   0.272   1.370   0.431 -0.4347 -0.1966 -0.4320
 2429SOL     OW 8185   6.151   6.277   3.771 -0.3580 -0.4131 -0.2272
 2429SOL    HW1 8186   6.076   6.341   3.752  2.2740  3.3113  0.9065
 2429SOL    HW2 8187   6.208   6.267   3.690  0.0591 -0.1543  0.0348
 2430SOL     OW 8188   5.307   0.739   1.237 -0.4512 -0.5067  0.4354
 2430SOL    HW1 8189   5.237   0.680   1.197 -1.5792  0.7931  0.4040
 2430SOL    HW2 8190   5.289   0.750   1.335  0.6803 -1.4476  0.7768
 2431SOL     OW 8191   4.446   6.165   3.019  0.0679 -0.2824  0.1742
 2431SOL    HW1 8192   4.450   6.162   3.118  0.3013  0.0160  0.1756
 2431SOL    HW2 8193   4.351   6.178   2.990  0.2873  2.6234  0.4701
 2432SOL     OW 8194   1.561   4.980   2.360  0.5442  0.4584  0.1096
 2432SOL    HW1 8195   1.489   5.022   2.415  0.5282 -0.4173  0.7852
 2432SOL    HW2 8196   1.589   5.043   2.287 -0.6326  0.9697  0.0730
 2433SOL     OW 8197   5.980   6.505   6.230 -0.5098 -0.2493 -0.2296
 2433SOL    HW1 8198   6.043   6.444   6.277  2.0021  3.4564  1.6721
 2433SOL    HW2 8199   6.024   6.542   6.149 -1.7204 -0.3611 -0.9594
 2434SOL     OW 8200   3.683   3.245   4.092 -0.5582  0.7210  0.5081
 2434SOL    HW1 8201   3.694   3.304   4.011 -0.1533 -0.6541 -0.4801
 2434SOL    HW2 8202   3.596   3.197   4.086 -1.1927  1.6822  1.6501
 2435SOL     OW 8203   5.388   4.854   0.131  0.1734  0.9111  0.3352
 2435SOL    HW1 8204   5.442   4.826   0.052 -0.6479 -0.1101  0.1110
 2435SOL    HW2 8205   5.449   4.876   0.208  0.9056  0.2004 -0.0336
 2436SOL     OW 8206   4.638   5.386   0.182  0.5991 -0.1263  0.2933
 2436SOL    HW1 8207   4.620   5.366   0.086 -2.1719 -0.6843  0.8485
 2436SOL    HW2 8208   4.635   5.485   0.197 -0.1579 -0.0976 -0.0111
 2437SOL     OW 8209   0.562   0.631   6.481 -0.4842  0.2047 -0.3411
 2437SOL    HW1 8210   0.538   0.687   6.402 -0.5670  0.9219  0.1838
 2437SOL    HW2 8211   0.661   0.616   6.483 -0.6451 -1.2783 -1.5288
 2438SOL     OW 8212   2.387   4.462   6.046  0.0873 -0.0480 -0.1014
 2438SOL    HW1 8213   2.326   4.497   5.974 -0.0728 -0.9234 -0.4020
 2438SOL    HW2 8214   2.357   4.370   6.073 -0.4996  0.6753  1.8431
 2439SOL     OW 8215   6.621   3.442   0.668 -0.0361  0.3715 -0.0934
 2439SOL    HW1 8216   6.561   3.369   0.702 -0.2589 -0.8392 -2.8150
 2439SOL    HW2 8217   6.711   3.433   0.710  0.6186 -2.9124 -1.8567
 2440SOL     OW 8218   6.843   3.908   5.367  0.4953  0.4725 -0.1483
 2440SOL    HW1 8219   6.856   3.809   5.358  0.0947  0.2956  1.0472
 2440SOL    HW2 8220   6.848   3.934   5.464 -0.9232  1.3905 -0.2796
 2441SOL     OW 8221   5.028   2.505   1.869  0.4347 -0.3294  0.1507
 2441SOL    HW1 8222   5.048   2.409   1.850  0.9727  0.2905 -2.8621
 2441SOL    HW2 8223   5.111   2.559   1.855 -0.5172  0.8977 -0.9068
 2442SOL     OW 8224   6.497   1.425   3.407  0.3101  0.3117  0.0698
 2442SOL    HW1 8225   6.487   1.430   3.507  3.2599  1.5734  0.4002
 2442SOL    HW2 8226   6.482   1.515   3.368 -1.0990 -0.2349 -0.7090
 2443SOL     OW 8227   5.099   3.498   6.833  0.1235  0.2358 -0.3242
 2443SOL    HW1 8228   5.050   3.413   6.851  1.0118 -0.2153 -0.0109
 2443SOL    HW2 8229   5.033   3.569   6.809 -0.8194  0.0034  1.4060
 2444SOL     OW 8230   4.650   2.039   0.577  0.0996 -0.6865 -0.2693
 2444SOL    HW1 8231   4.595   1.961   0.546 -0.5857  0.2549 -1.5328
 2444SOL    HW2 8232   4.730   2.049   0.518  0.8955 -1.1926  0.6916
 2445SOL     OW 8233   1.358   2.724   6.896  0.3640  0.2490 -0.2990
 2445SOL    HW1 8234   1.281   2.676   6.852  1.2212 -1.3500 -0.1209
 2445SOL    HW2 8235   1.442   2.706   6.845  1.1853 -0.6998  1.3106
 2446SOL     OW 8236   5.227   2.975   5.866 -0.6241 -0.3327  0.6095
 2446SOL    HW1 8237   5.148   2.940   5.816 -0.6882  0.9379 -0.2311
 2446SOL    HW2 8238   5.266   3.052   5.817  0.2225  0.0301  1.7935
 2447SOL     OW 8239   1.513   1.838   6.836 -0.0590  0.1047 -1.0656
 2447SOL    HW1 8240   1.542   1.933   6.843  1.3104 -0.3805  0.1832
 2447SOL    HW2 8241   1.414   1.834   6.825  0.0244  1.7190 -2.9235
 2448SOL     OW 8242   0.017   1.786   4.786  0.2168 -0.7758 -0.0287
 2448SOL    HW1 8243   0.104   1.742   4.764 -0.2160 -1.4857 -0.3874
 2448SOL    HW2 8244  -0.034   1.728   4.851  0.3377  0.0074  0.7826
 2449SOL     OW 8245   7.007   4.161   4.159  0.0265 -0.1585  0.0979
 2449SOL    HW1 8246   6.952   4.210   4.092 -0.6030 -1.2881 -0.2412
 2449SOL    HW2 8247   6.955   4.083   4.194  0.4747  0.1960  1.6353
 2450SOL     OW 8248   2.708   1.710   1.907  0.4401  0.9776  0.6082
 2450SOL    HW1 8249   2.648   1.763   1.848  0.2516  1.3142  1.1028
 2450SOL    HW2 8250   2.686   1.728   2.003  1.4754  1.2883  0.8041
 2451SOL     OW 8251   2.905   5.273   2.951 -0.4502 -0.3474  0.4893
 2451SOL    HW1 8252   2.994   5.281   2.905 -0.4665  1.1542  0.6682
 2451SOL    HW2 8253   2.872   5.364   2.975 -1.2533 -0.9954  1.9513
 2452SOL     OW 8254   3.195   0.895   5.302  0.0814 -0.3568  0.2262
 2452SOL    HW1 8255   3.236   0.857   5.384 -0.7452 -3.1855 -0.5647
 2452SOL    HW2 8256   3.100   0.920   5.321  0.0270 -0.5825  0.2509
 2453SOL     OW 8257   1.333   5.225   0.805 -0.2689  0.4073 -0.9794
 2453SOL    HW1 8258   1.323   5.153   0.736  1.8935 -0.6097 -0.3356
 2453SOL    HW2 8259   1.382   5.303   0.766 -0.2038  0.3768 -0.9594
 2454SOL     OW 8260   6.628   5.359   3.584  0.0212  0.1785  0.1255
 2454SOL    HW1 8261   6.692   5.324   3.516 -0.2426  0.8930 -0.5055
 2454SOL    HW2 8262   6.663   5.341   3.676  0.3608 -0.8394 -0.1845
 2455SOL     OW 8263   5.396   2.459   0.464  0.2593 -0.4610 -0.2503
 2455SOL    HW1 8264   5.356   2.373   0.434  1.5877 -1.7724  1.5745
 2455SOL    HW2 8265   5.441   2.447   0.552 -0.3522  2.3598  0.5470
 2456SOL     OW 8266   3.583   0.353   1.210  0.0597 -0.5081 -0.2439
 2456SOL    HW1 8267   3.587   0.253   1.222 -0.7196 -0.5345 -0.1007
 2456SOL    HW2 8268   3.602   0.398   1.297 -0.1993 -0.5500 -0.1653
 2457SOL     OW 8269   4.352   4.595   1.518  0.1295 -0.5747  0.2720
 2457SOL    HW1 8270   4.355   4.585   1.618 -1.4514 -1.4664  0.2618
 2457SOL    HW2 8271   4.257   4.602   1.489  0.6079  2.0498 -0.9886
 2458SOL     OW 8272   0.477   5.935   3.286  0.2485 -0.5239  0.3540
 2458SOL    HW1 8273   0.450   5.882   3.205  1.3517 -0.7849  0.1432
 2458SOL    HW2 8274   0.533   5.878   3.346 -2.0096 -0.9337  2.2412
 2459SOL     OW 8275   1.163   1.941   0.534  0.4156 -0.7760 -0.4256
 2459SOL    HW1 8276   1.255   1.959   0.500  0.4241  2.4003  0.9383
 2459SOL    HW2 8277   1.096   1.986   0.474  0.1768  1.3762  1.3332
 2460SOL     OW 8278   1.380   4.050   0.755 -0.2075 -0.5389 -0.6194
 2460SOL    HW1 8279   1.341   3.960   0.773 -0.7591 -0.3620 -0.8902
 2460SOL    HW2 8280   1.467   4.040   0.708 -0.2250 -0.9317 -0.5747
 2461SOL     OW 8281   3.967   0.812   3.431 -0.8490 -0.4481 -0.1281
 2461SOL    HW1 8282   4.030   0.881   3.395  0.1659 -0.6870  1.1235
 2461SOL    HW2 8283   3.902   0.856   3.492 -1.6299 -0.2754 -1.0594
 2462SOL     OW 8284   2.852   5.977   6.250 -0.5556  0.1220 -0.1552
 2462SOL    HW1 8285   2.946   6.010   6.260 -0.3198 -0.7176  0.5181
 2462SOL    HW2 8286   2.803   5.989   6.337 -1.2627  1.0987 -0.6707
 2463SOL     OW 8287   0.693   3.702   4.620  0.5662  0.0746 -0.2340
 2463SOL    HW1 8288   0.624   3.772   4.603 -0.7396 -1.3741 -1.1353
 2463SOL    HW2 8289   0.669   3.618   4.571  1.6680 -1.2814  1.4252
 2464SOL     OW 8290   1.065   3.487   0.818 -0.4254 -0.6476 -0.3627
 2464SOL    HW1 8291   1.035   3.395   0.843  1.2981 -1.3419 -0.7523
 2464SOL    HW2 8292   1.164   3.490   0.812 -0.4735  1.0982 -0.9666
 2465SOL     OW 8293   1.177   3.832   2.781 -0.1838 -0.1493 -0.0318
 2465SOL    HW1 8294   1.086   3.849   2.820  0.6548 -1.4404  2.7386
 2465SOL    HW2 8295   1.183   3.876   2.691 -3.5489 -0.1217 -0.3891
 2466SOL     OW 8296   3.887   0.727   2.417  0.0197  0.1755  0.5609
 2466SOL    HW1 8297   3.921   0.806   2.468  0.9648 -0.4324  0.9017
 2466SOL    HW2 8298   3.957   0.656   2.415 -0.5582 -0.3904 -0.3344
 2467SOL     OW 8299   1.624   0.477   5.714  0.5832 -0.1936 -0.7362
 2467SOL    HW1 8300   1.533   0.449   5.743  1.2056 -3.5696 -1.6544
 2467SOL    HW2 8301   1.619   0.569   5.674 -2.1368  0.2224  0.3531
 2468SOL     OW 8302   1.266   5.256   3.952 -0.0938 -0.3834 -0.2764
 2468SOL    HW1 8303   1.262   5.342   4.003  0.7592 -0.0663 -0.7103
 2468SOL    HW2 8304   1.257   5.179   4.015  3.7058 -0.1202  0.8748
 2469SOL     OW 8305   2.402   2.228   6.299  0.2837  0.0806 -0.8472
 2469SOL    HW1 8306   2.406   2.296   6.225 -1.3587  0.6115 -0.4879
 2469SOL    HW2 8307   2.461   2.151   6.276  0.9321  0.8905 -2.0256
 2470SOL     OW 8308   0.096   2.729   0.660 -0.0205  0.2771 -0.7142
 2470SOL    HW1 8309   0.053   2.815   0.632 -1.1273 -0.1754 -0.4666
 2470SOL    HW2 8310   0.095   2.722   0.760  0.3064  0.0966 -0.7225
 2471SOL     OW 8311   1.425   2.054   2.930 -0.3860 -0.6021 -0.0979
 2471SOL    HW1 8312   1.439   2.100   2.842 -0.2888 -1.0420 -0.3153
 2471SOL    HW2 8313   1.512   2.019   2.964 -0.7074 -2.2804 -0.8676
 2472SOL     OW 8314   0.231   5.787   3.125 -0.4486  0.2652 -0.1445
 2472SOL    HW1 8315   0.205   5.840   3.206  1.3031 -1.7653  1.8717
 2472SOL    HW2 8316   0.149   5.758   3.076 -1.5006  2.7338  0.0182
 2473SOL     OW 8317   0.665   6.774   6.119 -0.1557 -0.1604  0.2465
 2473SOL    HW1 8318   0.670   6.873   6.105  0.3652 -0.3618 -1.2848
 2473SOL    HW2 8319   0.635   6.754   6.212 -0.2603  1.4317  0.5800
 2474SOL     OW 8320   6.146   6.886   3.606 -0.0807  0.0388 -0.3192
 2474SOL    HW1 8321   6.191   6.864   3.520  0.2674 -0.2446 -0.0703
 2474SOL    HW2 8322   6.054   6.848   3.607  0.4138 -1.2107 -0.0059
 2475SOL     OW 8323   4.814   0.886   0.865 -0.9531  0.6483  0.5837
 2475SOL    HW1 8324   4.880   0.883   0.941 -1.4406 -1.8950  0.9927
 2475SOL    HW2 8325   4.763   0.800   0.862 -1.5374  1.0019 -2.1444
 2476SOL     OW 8326   1.187   2.397   4.507  0.2337 -0.5530 -0.2808
 2476SOL    HW1 8327   1.100   2.430   4.470  1.0890  0.6694 -1.2964
 2476SOL    HW2 8328   1.225   2.466   4.569  1.5225 -0.0519 -1.5709
 2477SOL     OW 8329   5.418   4.709   2.659  0.0331  0.5560  0.1927
 2477SOL    HW1 8330   5.486   4.724   2.731 -2.0406 -0.1814  2.4534
 2477SOL    HW2 8331   5.391   4.797   2.620 -0.5714  1.2818  2.1202
 2478SOL     OW 8332   5.973   0.080   1.215  0.3143  0.3860 -0.5098
 2478SOL    HW1 8333   5.920   0.156   1.253  2.2418  0.9168  1.2878
 2478SOL    HW2 8334   5.926  -0.006   1.234  0.1223  0.8220  1.1125
 2479SOL     OW 8335   2.630   3.259   0.057  0.2975 -0.3068 -0.0067
 2479SOL    HW1 8336   2.627   3.168   0.015  1.5347 -0.9307  1.1863
 2479SOL    HW2 8337   2.539   3.284   0.091  0.1435 -1.5059  0.4930
 2480SOL     OW 8338   6.262   5.326   6.429 -0.6857 -0.4098 -0.3493
 2480SOL    HW1 8339   6.196   5.331   6.504  0.4828  0.0336  0.6859
 2480SOL    HW2 8340   6.224   5.371   6.349 -1.3857  0.4311  0.4301
 2481SOL     OW 8341   3.854   4.775   1.726  0.4137  0.0252 -0.1724
 2481SOL    HW1 8342   3.779   4.738   1.779 -0.0802  1.6310  0.3166
 2481SOL    HW2 8343   3.935   4.784   1.784  0.0934  1.0693  0.1411
 2482SOL     OW 8344   5.297   1.913   6.282  0.6175  0.0646  0.0078
 2482SOL    HW1 8345   5.376   1.975   6.291 -0.5785  1.9578 -1.6184
 2482SOL    HW2 8346   5.217   1.956   6.323  0.2597 -1.6156  1.1739
 2483SOL     OW 8347   0.556   2.668   1.183 -0.0060  0.5734  0.2246
 2483SOL    HW1 8348   0.553   2.762   1.215 -0.7488  0.2637  1.1000
 2483SOL    HW2 8349   0.562   2.606   1.261  1.7512 -0.0779 -0.3788
 2484SOL     OW 8350   4.088   2.895   6.503 -0.2384 -0.0046  0.2143
 2484SOL    HW1 8351   4.107   2.933   6.413  1.7390 -1.3993 -0.0163
 2484SOL    HW2 8352   4.051   2.803   6.494 -0.6917  0.1080  0.8323
 2485SOL     OW 8353   0.059   4.897   0.982  0.0572 -0.2709 -0.0181
 2485SOL    HW1 8354   0.139   4.920   1.038  0.5383 -1.0115 -0.3863
 2485SOL    HW2 8355   0.041   4.799   0.989 -0.9487 -0.0732  0.2236
 2486SOL     OW 8356   0.635   5.250   4.459  0.0545 -0.1958  0.4322
 2486SOL    HW1 8357   0.658   5.166   4.409 -0.7890  0.0386 -0.3831
 2486SOL    HW2 8358   0.575   5.307   4.402 -0.1083  0.5490  1.3276
 2487SOL     OW 8359   2.658   1.889   1.405 -0.2656  0.5904  0.5393
 2487SOL    HW1 8360   2.690   1.842   1.323 -0.0783  0.6236  0.5923
 2487SOL    HW2 8361   2.672   1.988   1.394 -1.8320  0.7664 -0.0981
 2488SOL     OW 8362   3.309   5.839   0.136 -0.0354  0.7053 -0.3286
 2488SOL    HW1 8363   3.233   5.894   0.103  0.6234  0.8934 -1.5857
 2488SOL    HW2 8364   3.358   5.890   0.208 -1.0832  0.5701  0.4946
 2489SOL     OW 8365   4.283   6.468   3.669 -0.0256 -0.1591 -0.0397
 2489SOL    HW1 8366   4.288   6.410   3.588 -1.9861  0.3403 -0.5712
 2489SOL    HW2 8367   4.330   6.423   3.745 -1.6087 -2.5787 -0.3880
 2490SOL     OW 8368   5.655   1.614   2.569 -0.5541 -0.0561  0.1018
 2490SOL    HW1 8369   5.621   1.550   2.499  2.7925 -0.5107 -1.3088
 2490SOL    HW2 8370   5.599   1.697   2.568 -1.1888 -0.4283 -2.4897
 2491SOL     OW 8371   6.825   3.219   2.485 -0.2874  0.2313  0.3096
 2491SOL    HW1 8372   6.902   3.228   2.549 -1.3705  0.2974  1.6648
 2491SOL    HW2 8373   6.740   3.240   2.533 -1.2714 -0.9156 -0.8557
 2492SOL     OW 8374   4.924   2.540   1.550  0.0342  0.3514  0.3665
 2492SOL    HW1 8375   4.974   2.524   1.465  1.0374  0.1658  0.9623
 2492SOL    HW2 8376   4.990   2.561   1.623 -0.9201  2.7013  0.6292
 2493SOL     OW 8377   6.753   6.969   6.919 -0.5721  0.1618  0.4067
 2493SOL    HW1 8378   6.657   6.954   6.894 -0.4213 -2.9801  1.3313
 2493SOL    HW2 8379   6.812   6.930   6.848 -0.0644 -1.3223  1.6043
 2494SOL     OW 8380   0.010   4.778   1.311  0.6241  0.0626 -0.5513
 2494SOL    HW1 8381  -0.073   4.787   1.256 -1.0155  0.7281  1.8667
 2494SOL    HW2 8382   0.010   4.689   1.356  0.4707  0.5935  0.5314
 2495SOL     OW 8383   0.839   0.362   3.728 -0.0475 -0.2536  1.1503
 2495SOL    HW1 8384   0.816   0.285   3.668  2.9270 -0.1709 -0.2873
 2495SOL    HW2 8385   0.856   0.328   3.820  1.4953 -1.4663  0.4805
 2496SOL     OW 8386   6.211   5.613   1.704  0.0562 -0.4928 -0.1565
 2496SOL    HW1 8387   6.179   5.533   1.654  1.2635 -0.2121 -1.4509
 2496SOL    HW2 8388   6.205   5.597   1.802  1.4313 -2.6610 -0.3773
 2497SOL     OW 8389   1.525   2.833   4.169 -0.1798 -0.3734  0.4994
 2497SOL    HW1 8390   1.462   2.819   4.246 -1.1342  3.2476  0.5509
 2497SOL    HW2 8391   1.615   2.861   4.204 -0.1449 -0.2617  0.3225
 2498SOL     OW 8392   1.483   2.257   3.672  0.0454 -0.8441  0.4898
 2498SOL    HW1 8393   1.454   2.352   3.684 -0.3052 -1.0676  1.4874
 2498SOL    HW2 8394   1.403   2.200   3.654  0.4315 -0.6856 -2.1739
 2499SOL     OW 8395   5.632   6.737   6.525 -0.0789  0.2910 -0.2141
 2499SOL    HW1 8396   5.535   6.760   6.538 -0.3074 -0.4081 -0.6454
 2499SOL    HW2 8397   5.688   6.802   6.576 -0.8013  0.2964  0.6075
 2500SOL     OW 8398   5.809   2.437   6.993 -0.6171 -0.3067 -0.1287
 2500SOL    HW1 8399   5.721   2.475   6.968 -0.4889  1.0077  1.2706
 2500SOL    HW2 8400   5.880   2.507   6.983  0.3475 -1.4055 -1.4679
 2501SOL     OW 8401   6.880   5.495   0.926  0.2638  0.2367  0.1303
 2501SOL    HW1 8402   6.815   5.535   0.992  2.0824  1.2420  1.3926
 2501SOL    HW2 8403   6.840   5.411   0.888 -1.9408  1.0362  0.5084
 2502SOL     OW 8404   0.585   0.071   2.595  0.1245  0.0287  0.2309
 2502SOL    HW1 8405   0.562  -0.006   2.537 -0.3069 -0.0620  0.5124
 2502SOL    HW2 8406   0.639   0.040   2.673  2.4297  0.4321 -1.1171
 2503SOL     OW 8407   0.193   6.574   1.395 -0.5261  0.1417  0.3228
 2503SOL    HW1 8408   0.100   6.611   1.396 -0.8846 -0.7166 -0.3127
 2503SOL    HW2 8409   0.190   6.476   1.415  0.0649 -0.2357 -1.3010
 2504SOL     OW 8410   4.049   4.769   3.778  0.2221 -0.2760  0.0937
 2504SOL    HW1 8411   3.958   4.789   3.742  0.2338  0.4934  0.4672
 2504SOL    HW2 8412   4.050   4.786   3.876  0.3076 -1.9304  0.4108
 2505SOL     OW 8413   4.848   3.108   4.090 -0.4248  0.9638  0.1663
 2505SOL    HW1 8414   4.829   3.091   4.186  2.1907 -0.2184  0.5849
 2505SOL    HW2 8415   4.850   3.021   4.041 -3.3466  1.6551 -1.4111
 2506SOL     OW 8416   0.187   2.826   2.067 -0.6237  0.3792  0.3164
 2506SOL    HW1 8417   0.259   2.892   2.085 -0.8034  0.9518 -0.9194
 2506SOL    HW2 8418   0.153   2.788   2.153 -1.4705  2.9252  1.1722
 2507SOL     OW 8419   5.964   4.391   1.453 -0.6330  1.0152 -0.6927
 2507SOL    HW1 8420   5.952   4.353   1.545  0.5631  0.2649 -0.8196
 2507SOL    HW2 8421   5.977   4.316   1.388  4.2517  1.4620 -0.6215
 2508SOL     OW 8422   0.642   0.724   0.009  0.2199 -0.3351 -0.1182
 2508SOL    HW1 8423   0.742   0.728   0.003  0.2245  1.0097  0.4412
 2508SOL    HW2 8424   0.604   0.706  -0.081  0.9657 -0.8374 -0.3401
 2509SOL     OW 8425   0.410   6.750   3.750  0.8229 -0.6419 -0.2022
 2509SOL    HW1 8426   0.376   6.657   3.758 -0.2841 -0.1358  1.4164
 2509SOL    HW2 8427   0.354   6.801   3.685 -0.2994 -0.3924  0.9135
 2510SOL     OW 8428   3.151   5.592   2.286 -0.0802  0.0026  0.1701
 2510SOL    HW1 8429   3.220   5.664   2.273  3.0828 -3.0742 -1.9843
 2510SOL    HW2 8430   3.176   5.537   2.366 -1.3631  0.0796  0.6501
 2511SOL     OW 8431   1.025   6.904   4.532  0.4717 -0.4816 -0.1910
 2511SOL    HW1 8432   1.002   6.955   4.450 -2.4240 -0.9102  0.2419
 2511SOL    HW2 8433   1.075   6.821   4.507  0.5376 -0.0867 -1.4237
 2512SOL     OW 8434   6.853   1.533   5.647  0.3308 -0.7194 -0.1662
 2512SOL    HW1 8435   6.903   1.512   5.731 -0.1970 -2.3381 -0.2254
 2512SOL    HW2 8436   6.914   1.523   5.569  0.9937  1.3980  0.0225
 2513SOL     OW 8437   2.115   4.235   1.120 -0.1978 -0.1905 -0.4648
 2513SOL    HW1 8438   2.172   4.250   1.201 -0.5922 -0.9915 -0.0259
 2513SOL    HW2 8439   2.029   4.287   1.130  0.2406  0.6306 -0.9047
 2514SOL     OW 8440   0.447   1.909   4.837  0.4800  0.2019  0.0642
 2514SOL    HW1 8441   0.525   1.971   4.841 -0.2392  1.2324 -1.2944
 2514SOL    HW2 8442   0.362   1.961   4.830 -0.1297 -0.9102 -1.3238
 2515SOL     OW 8443   2.506   4.920   0.498 -0.4821  0.2412 -0.1844
 2515SOL    HW1 8444   2.570   4.875   0.560 -0.7049 -1.8750 -1.3985
 2515SOL    HW2 8445   2.468   4.853   0.434 -1.4070  2.0541 -1.6462
 2516SOL     OW 8446   0.023   0.139   4.039  0.3714 -0.6475 -0.5328
 2516SOL    HW1 8447   0.007   0.063   4.102  0.2371 -2.0090 -2.1441
 2516SOL    HW2 8448   0.110   0.183   4.062  0.4886 -1.3176  0.3868
 2517SOL     OW 8449   3.182   6.727   0.648  0.2140  0.1359 -0.2334
 2517SOL    HW1 8450   3.194   6.632   0.678  1.6468  0.3739  0.0287
 2517SOL    HW2 8451   3.095   6.762   0.683 -0.3086 -1.0515 -0.2897
 2518SOL     OW 8452   1.889   2.048   0.981  0.5943  0.2557  0.2913
 2518SOL    HW1 8453   1.900   2.127   0.921  0.9212  0.7177  0.9363
 2518SOL    HW2 8454   1.949   2.059   1.061 -1.3639  0.7028  1.7745
 2519SOL     OW 8455   4.776   6.354   6.141  0.1534 -0.0871  0.1495
 2519SOL    HW1 8456   4.847   6.413   6.179 -1.3879  1.4654  0.7744
 2519SOL    HW2 8457   4.725   6.405   6.071 -1.2321 -0.6446  0.7221
 2520SOL     OW 8458   6.532   5.506   2.184  0.0785  0.4342 -0.1597
 2520SOL    HW1 8459   6.546   5.435   2.115 -0.4667  0.9394 -0.8032
 2520SOL    HW2 8460   6.552   5.468   2.274 -4.1743 -1.9069  0.0555
 2521SOL     OW 8461   0.447   5.097   6.589  0.5997  0.4209 -0.1158
 2521SOL    HW1 8462   0.521   5.152   6.551  0.1356  3.2693  2.7069
 2521SOL    HW2 8463   0.470   5.070   6.683 -1.4662  0.4517  0.4564
 2522SOL     OW 8464   3.251   6.051   4.611 -0.1126  0.5334 -0.0021
 2522SOL    HW1 8465   3.171   5.996   4.634  0.7702 -0.0056  1.9163
 2522SOL    HW2 8466   3.332   6.014   4.656  1.0038  1.8192 -0.8686
 2523SOL     OW 8467   6.854   3.029   1.004 -0.2883  0.1154 -0.2179
 2523SOL    HW1 8468   6.816   2.994   1.089 -0.4701  2.9993  1.0258
 2523SOL    HW2 8469   6.954   3.028   1.009 -0.2992  0.8725  0.3454
 2524SOL     OW 8470   1.478   6.382   4.543  0.1459  0.4389  0.1163
 2524SOL    HW1 8471   1.400   6.371   4.481  0.4739 -0.0908 -0.2123
 2524SOL    HW2 8472   1.514   6.475   4.534 -0.0455  0.4858 -0.2082
 2525SOL     OW 8473   2.791   6.601   2.527 -0.4017 -0.4376 -0.0613
 2525SOL    HW1 8474   2.771   6.668   2.455 -0.5768  0.2192  0.5874
 2525SOL    HW2 8475   2.734   6.520   2.514 -2.2603  0.6927  0.7444
 2526SOL     OW 8476   2.887   0.397   4.291 -0.3734 -0.0690  0.3838
 2526SOL    HW1 8477   2.901   0.495   4.301  1.9923 -0.5285  2.8266
 2526SOL    HW2 8478   2.835   0.362   4.369 -2.5594 -0.6368 -1.2185
 2527SOL     OW 8479   6.420   2.272   5.186 -0.1392 -0.5494 -0.0741
 2527SOL    HW1 8480   6.387   2.336   5.255  1.8096 -0.0289  0.4178
 2527SOL    HW2 8481   6.409   2.178   5.221 -2.4643 -0.5234 -0.5678
 2528SOL     OW 8482   5.270   5.195   3.385  0.5174 -0.2645  0.1148
 2528SOL    HW1 8483   5.275   5.096   3.392  1.1191 -0.3680 -1.4768
 2528SOL    HW2 8484   5.198   5.220   3.319  1.7754  0.2599 -1.1017
 2529SOL     OW 8485   4.357   5.865   4.583  0.0846  0.0547 -0.3244
 2529SOL    HW1 8486   4.272   5.866   4.531  0.1169  2.1009 -0.3943
 2529SOL    HW2 8487   4.390   5.771   4.589 -2.4190 -0.8980  0.1297
 2530SOL     OW 8488   1.595   5.565   2.852  0.2406  0.0714 -0.3156
 2530SOL    HW1 8489   1.572   5.660   2.830  0.2207  0.1208 -0.0823
 2530SOL    HW2 8490   1.668   5.563   2.920 -0.9575 -0.0443  1.0269
 2531SOL     OW 8491   5.624   2.484   5.438 -0.1494  0.0730 -0.6216
 2531SOL    HW1 8492   5.559   2.426   5.389  0.2588 -0.9448  0.0035
 2531SOL    HW2 8493   5.641   2.567   5.386 -1.1302 -0.1376 -1.3032
 2532SOL     OW 8494   6.841   4.681   1.869  0.3581  0.4890 -0.3036
 2532SOL    HW1 8495   6.857   4.777   1.849 -0.1608  0.7072  0.3102
 2532SOL    HW2 8496   6.784   4.641   1.797 -0.3554  0.9265  0.0080
 2533SOL     OW 8497   4.941   6.584   3.638  0.7474 -0.1053 -0.6532
 2533SOL    HW1 8498   4.909   6.507   3.582 -0.8985 -0.3275  0.5016
 2533SOL    HW2 8499   5.002   6.642   3.584  2.4163 -2.4299 -1.4312
 2534SOL     OW 8500   1.788   1.833   1.362 -0.2935  0.4835 -0.0333
 2534SOL    HW1 8501   1.799   1.790   1.272 -0.8709  0.1392  0.0592
 2534SOL    HW2 8502   1.760   1.764   1.429  0.2682  0.7091  0.4466
 2535SOL     OW 8503   2.167   2.387   0.464 -0.1238  0.2224 -0.4087
 2535SOL    HW1 8504   2.174   2.306   0.405  1.9253 -2.2717  2.8767
 2535SOL    HW2 8505   2.224   2.460   0.426  1.2624 -1.3253 -1.4800
 2536SOL     OW 8506   0.245   0.248   2.388  0.7198  0.5869 -0.0672
 2536SOL    HW1 8507   0.292   0.335   2.403  0.2977  0.5955  1.3443
 2536SOL    HW2 8508   0.149   0.266   2.366  1.2336  0.5586 -2.6676
 2537SOL     OW 8509   0.413   6.083   0.407 -0.5668  0.3502 -0.0692
 2537SOL    HW1 8510   0.324   6.038   0.417 -0.0238 -0.4055  1.6892
 2537SOL    HW2 8511   0.440   6.125   0.494  1.6798 -1.1505  0.0531
 2538SOL     OW 8512   0.975   5.064   3.602 -0.1037 -0.9365 -0.4069
 2538SOL    HW1 8513   1.032   5.038   3.524 -0.1818 -1.2049 -0.3765
 2538SOL    HW2 8514   1.023   5.131   3.658 -0.1456 -0.5608 -0.8171
 2539SOL     OW 8515   0.735   0.667   5.470  0.2397 -0.2041  0.1907
 2539SOL    HW1 8516   0.776   0.578   5.490 -1.7546 -0.9885  1.0296
 2539SOL    HW2 8517   0.639   0.655   5.445 -0.5826  1.8004  2.0430
 2540SOL     OW 8518   5.172   3.315   1.596 -0.5275 -0.0982 -0.0680
 2540SOL    HW1 8519   5.250   3.336   1.656  0.2323  0.9757 -1.3743
 2540SOL    HW2 8520   5.088   3.348   1.638  0.0044  0.7249  0.3869
 2541SOL     OW 8521   2.188   6.553   0.233  0.0298  1.1703  0.2427
 2541SOL    HW1 8522   2.226   6.572   0.142  0.1664  0.1518  0.0748
 2541SOL    HW2 8523   2.205   6.631   0.293  0.3465  1.6681 -0.4690
 2542SOL     OW 8524   5.258   1.239   4.684  0.0955 -0.1334  0.1866
 2542SOL    HW1 8525   5.277   1.268   4.777  1.1315 -2.1049  0.6593
 2542SOL    HW2 8526   5.298   1.305   4.620  0.7708  0.4351  1.1579
 2543SOL     OW 8527   6.115   0.116   4.233  0.0837  0.2313  0.1923
 2543SOL    HW1 8528   6.049   0.041   4.240 -0.0427  0.3023 -0.2222
 2543SOL    HW2 8529   6.207   0.082   4.251  0.3224 -0.4958 -2.1322
 2544SOL     OW 8530   4.410   1.501   0.036  0.0333  0.2783 -0.3400
 2544SOL    HW1 8531   4.336   1.489   0.102 -0.8564  0.6966 -1.2449
 2544SOL    HW2 8532   4.386   1.456  -0.050  1.5404 -1.0023 -0.1529
 2545SOL     OW 8533   6.955   2.861   1.932  0.4972 -0.2059  0.0653
 2545SOL    HW1 8534   7.032   2.877   1.871  0.0860  0.5132 -0.2719
 2545SOL    HW2 8535   6.978   2.889   2.025  0.7124 -0.1961  0.0080
 2546SOL     OW 8536   5.962   2.582   2.500  0.4516  0.7840  0.5647
 2546SOL    HW1 8537   6.001   2.586   2.408  0.5083 -0.3334  0.5341
 2546SOL    HW2 8538   6.036   2.573   2.567  0.3278  0.1169  0.6122
 2547SOL     OW 8539   6.686   4.096   3.375  0.0879 -0.5211  0.6057
 2547SOL    HW1 8540   6.610   4.050   3.329  0.0903  0.6438 -0.6381
 2547SOL    HW2 8541   6.650   4.174   3.427  0.1282 -1.6215  2.3405
 2548SOL     OW 8542   4.121   0.187   4.654 -0.2887 -0.3169  0.6275
 2548SOL    HW1 8543   4.210   0.160   4.689 -0.5579 -0.7492  0.9869
 2548SOL    HW2 8544   4.050   0.162   4.720 -0.6433  0.3504  0.5085
 2549SOL     OW 8545   2.311   5.545   5.158 -0.1777 -0.3065 -0.7184
 2549SOL    HW1 8546   2.214   5.538   5.135 -0.8491  0.6877  1.5813
 2549SOL    HW2 8547   2.343   5.457   5.194 -1.1315  0.1828  1.5051
 2550SOL     OW 8548   3.449   6.823   1.832 -0.4114 -0.1908 -0.0761
 2550SOL    HW1 8549   3.375   6.756   1.840 -1.3300  0.7618 -0.2682
 2550SOL    HW2 8550   3.430   6.883   1.754  1.4841 -1.0211 -1.2290
 2551SOL     OW 8551   2.584   5.698   0.479 -0.1626  0.1065 -0.0812
 2551SOL    HW1 8552   2.626   5.610   0.503 -0.6131 -0.4203 -1.1599
 2551SOL    HW2 8553   2.619   5.729   0.391 -0.5260  0.6698 -0.0366
 2552SOL     OW 8554   4.288   3.469   0.208  0.0502  0.6541 -0.2385
 2552SOL    HW1 8555   4.209   3.519   0.243 -1.0125 -2.1559  1.7631
 2552SOL    HW2 8556   4.371   3.497   0.257 -0.5623  0.3337  1.0130
 2553SOL     OW 8557   4.909   2.656   1.082 -0.0355  0.1517  0.4959
 2553SOL    HW1 8558   4.824   2.687   1.126 -0.7614 -0.6269 -0.3105
 2553SOL    HW2 8559   4.947   2.730   1.028 -0.2685  0.4728  0.7656
 2554SOL     OW 8560   1.589   5.355   6.061 -0.0576 -0.0956 -0.3959
 2554SOL    HW1 8561   1.519   5.386   5.997  0.2810  1.3864 -0.1013
 2554SOL    HW2 8562   1.656   5.298   6.013 -0.6866 -0.3506 -0.9848
 2555SOL     OW 8563   6.232   0.309   0.046 -0.1914 -0.4179 -0.4207
 2555SOL    HW1 8564   6.135   0.300   0.069  0.1318  1.0590  1.7596
 2555SOL    HW2 8565   6.242   0.372  -0.031 -0.9073  0.1676 -0.0451
 2556SOL     OW 8566   5.971   0.616   6.852 -0.1669  0.5368  0.4797
 2556SOL    HW1 8567   5.887   0.668   6.867 -0.0746  0.7264  0.3456
 2556SOL    HW2 8568   6.011   0.642   6.764  0.3950  0.9476  0.8558
 2557SOL     OW 8569   3.981   1.121   0.761 -0.2144 -0.1307 -0.3810
 2557SOL    HW1 8570   4.013   1.198   0.706  0.0371 -0.0505 -0.1268
 2557SOL    HW2 8571   3.883   1.130   0.777 -0.8368 -1.4740 -2.9251
 2558SOL     OW 8572   5.361   0.914   3.800 -0.1032  0.2528  0.0365
 2558SOL    HW1 8573   5.447   0.865   3.815 -0.0245 -0.0502 -1.2887
 2558SOL    HW2 8574   5.375   1.012   3.815  0.6109  0.2637 -0.6599
 2559SOL     OW 8575   5.857   6.702   3.010  1.0018  0.0777  0.2548
 2559SOL    HW1 8576   5.830   6.726   3.103 -1.2599  2.5895 -0.9013
 2559SOL    HW2 8577   5.949   6.736   2.992  0.6824  1.3987  0.9804
 2560SOL     OW 8578   5.506   3.674   1.595 -0.1347 -0.3587  0.3618
 2560SOL    HW1 8579   5.596   3.695   1.557 -0.2874  1.1250  0.7712
 2560SOL    HW2 8580   5.459   3.609   1.535 -0.4566  2.0613 -2.2249
 2561SOL     OW 8581   3.743   6.990   4.784  0.6014  0.0552  0.2089
 2561SOL    HW1 8582   3.696   6.903   4.798  2.4757 -0.8404  1.4932
 2561SOL    HW2 8583   3.769   6.999   4.688  0.2569 -0.7410  0.0307
 2562SOL     OW 8584   6.755   7.007   4.788 -0.0994 -0.2706  0.0130
 2562SOL    HW1 8585   6.725   6.949   4.712  2.7362 -1.0773 -0.6316
 2562SOL    HW2 8586   6.777   6.949   4.867  0.5658  0.1331  0.1364
 2563SOL     OW 8587   3.911   1.368   0.121  0.1546 -0.0440 -0.2196
 2563SOL    HW1 8588   3.910   1.270   0.104  0.0523 -0.2131  0.7234
 2563SOL    HW2 8589   3.838   1.392   0.185 -0.6143  0.8363 -1.3781
 2564SOL     OW 8590   2.330   6.212   1.718  0.6986 -0.3508 -0.3671
 2564SOL    HW1 8591   2.383   6.290   1.750  0.3642 -0.7881  1.3779
 2564SOL    HW2 8592   2.249   6.244   1.669 -0.6081  0.5563  2.1822
 2565SOL     OW 8593   6.354   0.717   0.156 -0.5532 -0.4441  0.1547
 2565SOL    HW1 8594   6.422   0.716   0.083  0.1257 -1.9938  0.7535
 2565SOL    HW2 8595   6.354   0.807   0.201 -1.4032  0.7353 -2.0695
 2566SOL     OW 8596   3.667   2.789   1.750 -0.1083  0.4565  0.2331
 2566SOL    HW1 8597   3.684   2.692   1.766  1.0290  0.8445  1.5612
 2566SOL    HW2 8598   3.741   2.843   1.789 -2.3675  2.0655  2.7406
 2567SOL     OW 8599   0.217   2.549   5.195 -0.3661 -0.2588 -0.2357
 2567SOL    HW1 8600   0.201   2.600   5.280  1.0634  0.0518 -0.1292
 2567SOL    HW2 8601   0.253   2.611   5.126 -1.4683 -0.5262 -1.0758
 2568SOL     OW 8602   4.100   4.568   6.449 -0.0069 -0.2471  0.9070
 2568SOL    HW1 8603   4.154   4.611   6.522 -2.1963  0.7875  1.9987
 2568SOL    HW2 8604   4.157   4.499   6.403  2.4630  1.2872  1.4525
 2569SOL     OW 8605   2.828   5.861   0.012  0.3100  0.4561  0.9953
 2569SOL    HW1 8606   2.813   5.773  -0.033  1.5796  0.8535 -0.2618
 2569SOL    HW2 8607   2.751   5.881   0.072 -0.5667 -0.9408  0.3824
 2570SOL     OW 8608   6.329   2.118   4.027  0.0673 -0.3560 -0.0658
 2570SOL    HW1 8609   6.289   2.075   4.108  0.1942  0.9080  0.7025
 2570SOL    HW2 8610   6.259   2.172   3.980  0.8910  2.3967  1.6487
 2571SOL     OW 8611   3.169   2.537   1.071 -0.1729 -0.3099 -0.0692
 2571SOL    HW1 8612   3.186   2.532   1.169  0.5727 -0.9080 -0.2075
 2571SOL    HW2 8613   3.148   2.631   1.045  0.6361  0.0544  0.5210
 2572SOL     OW 8614   2.110   5.648   2.659  0.1227 -0.4484 -0.0802
 2572SOL    HW1 8615   2.181   5.583   2.634 -0.7611 -0.9891 -1.2830
 2572SOL    HW2 8616   2.135   5.740   2.628  1.1834 -0.2514  1.2635
 2573SOL     OW 8617   0.731   1.759   4.449 -0.1102  0.1771 -0.5549
 2573SOL    HW1 8618   0.645   1.755   4.500  1.0093 -1.6956  1.3298
 2573SOL    HW2 8619   0.713   1.745   4.351 -1.9048 -0.7284 -0.1320
 2574SOL     OW 8620   0.035   4.479   2.018  0.0051  0.5380 -0.7972
 2574SOL    HW1 8621  -0.007   4.570   2.019  0.4218  0.7304 -0.5637
 2574SOL    HW2 8622   0.001   4.428   1.940 -2.3822 -0.1098  0.5322
 2575SOL     OW 8623   3.802   2.435   5.860  0.0722  0.0884  0.2983
 2575SOL    HW1 8624   3.731   2.365   5.852  1.8318 -1.7712  0.3123
 2575SOL    HW2 8625   3.767   2.511   5.916 -1.8940 -0.7319  0.2722
 2576SOL     OW 8626   0.814   1.174   3.460  0.3670 -0.3199  0.0651
 2576SOL    HW1 8627   0.718   1.159   3.437  0.4694 -0.1375 -0.4871
 2576SOL    HW2 8628   0.860   1.220   3.384  0.9573 -0.6538  0.2147
 2577SOL     OW 8629   2.495   5.517   0.076  0.5097  0.2593  0.6494
 2577SOL    HW1 8630   2.422   5.488   0.014  0.6126 -2.3521  1.6051
 2577SOL    HW2 8631   2.456   5.535   0.167  0.9248 -0.3532  0.9567
 2578SOL     OW 8632   6.389   0.961   6.675 -0.0357 -0.0580 -0.4465
 2578SOL    HW1 8633   6.479   0.928   6.705 -0.2318 -0.7565 -0.6030
 2578SOL    HW2 8634   6.388   0.967   6.575  0.4697  1.8404 -0.3836
 2579SOL     OW 8635   0.042   0.989   5.574  0.2970  0.3643  0.0493
 2579SOL    HW1 8636   0.041   0.921   5.501 -2.0079 -0.0553  0.3852
 2579SOL    HW2 8637   0.015   0.946   5.660  1.2328  1.2173  0.7900
 2580SOL     OW 8638   2.783   2.352   6.225  0.1851  0.4424 -0.1169
 2580SOL    HW1 8639   2.745   2.371   6.316 -0.8076 -1.5497 -0.0617
 2580SOL    HW2 8640   2.710   2.324   6.163  0.9280  1.2373 -1.4041
 2581SOL     OW 8641   5.709   6.627   4.206 -0.8561  0.5196 -0.1583
 2581SOL    HW1 8642   5.772   6.619   4.284 -0.0472  1.6195 -0.6646
 2581SOL    HW2 8643   5.688   6.537   4.170  0.4254  0.1238  0.0363
 2582SOL     OW 8644   6.898   3.705   2.959 -0.0563  0.0888  0.1256
 2582SOL    HW1 8645   6.980   3.694   3.015 -0.4480 -1.0774  0.5027
 2582SOL    HW2 8646   6.904   3.790   2.907  2.2769 -0.8492 -1.2977
 2583SOL     OW 8647   4.170   0.739   5.239 -0.5750 -0.3767  0.2957
 2583SOL    HW1 8648   4.181   0.642   5.261 -0.1825 -0.2688  0.5778
 2583SOL    HW2 8649   4.147   0.789   5.323  2.0728  0.2261  0.7364
 2584SOL     OW 8650   2.692   0.332   4.545 -0.2295  0.8968 -0.8274
 2584SOL    HW1 8651   2.736   0.247   4.574 -3.0642 -0.7643 -1.0724
 2584SOL    HW2 8652   2.738   0.409   4.590  1.6667 -0.8017  0.3636
 2585SOL     OW 8653   4.537   0.323   3.651  0.8052 -0.2186 -0.0891
 2585SOL    HW1 8654   4.609   0.271   3.697 -0.2592 -0.4153  1.4227
 2585SOL    HW2 8655   4.458   0.265   3.636 -0.2937  0.8128  1.3624
 2586SOL     OW 8656   2.055   2.003   3.460  0.2331  0.2746 -0.8005
 2586SOL    HW1 8657   2.081   1.908   3.443 -0.2945 -0.1353  0.6077
 2586SOL    HW2 8658   1.967   2.006   3.506  1.4904  1.3103  1.7075
 2587SOL     OW 8659   5.484   5.618   4.695 -0.3029 -0.3073 -0.4186
 2587SOL    HW1 8660   5.546   5.686   4.733 -0.0660  0.1048 -1.5082
 2587SOL    HW2 8661   5.535   5.553   4.639 -0.6289 -0.9767  0.0437
 2588SOL     OW 8662   3.171   6.228   1.395  0.3258 -0.2558 -0.0559
 2588SOL    HW1 8663   3.095   6.290   1.414  0.3897 -0.3910  0.6750
 2588SOL    HW2 8664   3.159   6.143   1.446  0.7408 -0.4567 -0.2848
 2589SOL     OW 8665   4.490   0.273   0.927  0.1908 -0.0250 -0.5753
 2589SOL    HW1 8666   4.586   0.295   0.909  0.1781  0.1041 -0.4896
 2589SOL    HW2 8667   4.431   0.331   0.870  0.1183  1.2521  0.7217
 2590SOL     OW 8668   2.757   6.630   3.885 -0.2438 -0.0193 -0.4991
 2590SOL    HW1 8669   2.743   6.671   3.795 -0.1873 -1.1945 -1.0604
 2590SOL    HW2 8670   2.670   6.626   3.935 -0.2023  1.0088 -0.3162
 2591SOL     OW 8671   4.057   1.479   5.935  0.0374 -0.4942 -0.4971
 2591SOL    HW1 8672   3.972   1.426   5.936 -0.5249  0.3746  0.4858
 2591SOL    HW2 8673   4.041   1.568   5.978  1.2893 -0.0514 -0.9040
 2592SOL     OW 8674   4.085   0.575   1.716  0.4685  0.1635  0.5187
 2592SOL    HW1 8675   4.116   0.645   1.781  1.9037 -1.5221  1.7359
 2592SOL    HW2 8676   4.038   0.502   1.766 -2.1947  0.8184 -0.8781
 2593SOL     OW 8677   1.957   5.519   3.650 -0.0226  0.3927 -0.3223
 2593SOL    HW1 8678   1.866   5.488   3.677  0.7463 -0.3154  1.5926
 2593SOL    HW2 8679   2.024   5.491   3.718  1.5518  1.5265 -1.3241
 2594SOL     OW 8680   1.677   3.972   0.881 -0.3991  0.3638  0.8648
 2594SOL    HW1 8681   1.650   3.976   0.785 -2.0247 -0.6088  1.2456
 2594SOL    HW2 8682   1.772   3.940   0.887 -0.3588  0.1844 -0.4015
 2595SOL     OW 8683   5.854   1.458   5.065 -0.4707 -0.6087 -0.4404
 2595SOL    HW1 8684   5.776   1.476   5.125  1.2193  0.3237  1.6022
 2595SOL    HW2 8685   5.846   1.513   4.982 -1.3673  0.4348  0.3092
 2596SOL     OW 8686   5.686   0.551   1.023 -0.4668 -0.1329  0.2371
 2596SOL    HW1 8687   5.672   0.455   0.997  2.1207 -0.6076  0.3208
 2596SOL    HW2 8688   5.704   0.556   1.121 -0.6239  0.4487  0.2344
 2597SOL     OW 8689   2.954   1.776   0.040  0.1237  0.1154 -0.1690
 2597SOL    HW1 8690   2.860   1.740   0.037 -0.4859  1.6883 -0.9521
 2597SOL    HW2 8691   2.959   1.861  -0.012  1.8793  0.3476  0.3171
 2598SOL     OW 8692   1.128   1.298   3.454  0.3783  0.1875 -0.1523
 2598SOL    HW1 8693   1.066   1.293   3.375 -0.2319  0.9549  0.2740
 2598SOL    HW2 8694   1.222   1.286   3.422  0.0465 -0.7659 -0.8341
 2599SOL     OW 8695   4.891   5.620   6.903  0.0392 -0.8443  0.4025
 2599SOL    HW1 8696   4.843   5.565   6.971 -0.8150 -0.9062 -0.2382
 2599SOL    HW2 8697   4.844   5.613   6.815  1.5422 -1.3807 -0.3980
 2600SOL     OW 8698   6.934   2.914   4.950  0.6418  0.0653  0.3513
 2600SOL    HW1 8699   7.008   2.911   5.017 -0.0103  1.6257  1.1764
 2600SOL    HW2 8700   6.944   2.996   4.893  0.3120 -0.4431 -0.4592
 2601SOL     OW 8701   6.387   3.052   6.148 -0.5082 -0.1803 -0.2025
 2601SOL    HW1 8702   6.444   2.990   6.201  1.3757  1.6228  0.0365
 2601SOL    HW2 8703   6.439   3.089   6.071 -1.2542  1.6692  0.1020
 2602SOL     OW 8704   5.885   0.335   0.828  0.3707 -0.4730 -0.3489
 2602SOL    HW1 8705   5.894   0.351   0.730  0.4755  0.1165 -0.2478
 2602SOL    HW2 8706   5.800   0.287   0.846  0.5769 -1.0162 -0.7708
 2603SOL     OW 8707   1.218   2.807   0.846 -0.5311  0.0910 -0.2003
 2603SOL    HW1 8708   1.120   2.799   0.828 -0.3350 -1.8992 -0.6985
 2603SOL    HW2 8709   1.258   2.715   0.852  1.8371  0.7773 -3.1115
 2604SOL     OW 8710   4.825   1.739   5.435  0.4556  0.1203  0.2033
 2604SOL    HW1 8711   4.908   1.683   5.435 -0.7586 -1.9497  2.8153
 2604SOL    HW2 8712   4.759   1.699   5.499 -1.6587  3.0138  0.0115
 2605SOL     OW 8713   5.794   1.998   4.631  0.4893 -0.1222 -0.1918
 2605SOL    HW1 8714   5.816   1.932   4.704  0.9368 -0.9893 -1.0822
 2605SOL    HW2 8715   5.732   1.956   4.566  0.3500  0.5353 -0.4893
 2606SOL     OW 8716   0.129   3.655   6.281 -0.3741  0.0723  0.1947
 2606SOL    HW1 8717   0.214   3.695   6.244 -0.4637  0.0332 -0.0551
 2606SOL    HW2 8718   0.051   3.709   6.250 -0.6476 -1.2078 -1.4951
 2607SOL     OW 8719   0.011   1.160   3.263 -0.0249  0.5624 -0.1081
 2607SOL    HW1 8720  -0.087   1.140   3.257  0.3831 -2.6980  1.9271
 2607SOL    HW2 8721   0.027   1.223   3.339 -0.3504 -0.9452  1.2366
 2608SOL     OW 8722   3.960   0.382   1.359  0.0562  0.4095  0.3427
 2608SOL    HW1 8723   3.940   0.313   1.428  1.2998  0.5714  0.8961
 2608SOL    HW2 8724   3.932   0.472   1.394 -0.4246  0.3449  0.1310
 2609SOL     OW 8725   2.167   3.096   4.841 -0.1450  0.0712  0.3353
 2609SOL    HW1 8726   2.156   3.089   4.940 -0.2445  0.0757  0.3248
 2609SOL    HW2 8727   2.216   3.015   4.807 -0.8774 -0.3571  0.2749
 2610SOL     OW 8728   4.919   4.288   3.518 -0.2535 -0.0480  0.1599
 2610SOL    HW1 8729   4.960   4.379   3.523 -3.0621  1.6300 -3.0456
 2610SOL    HW2 8730   4.965   4.234   3.448 -1.9555  1.0860 -1.9585
 2611SOL     OW 8731   2.850   6.123   0.835  0.2722 -0.1562 -0.3442
 2611SOL    HW1 8732   2.801   6.046   0.876  0.2973 -0.7542 -1.4026
 2611SOL    HW2 8733   2.785   6.193   0.807  0.2740  0.3998  0.9474
 2612SOL     OW 8734   6.807   5.516   4.260  0.0286  0.4810 -0.4723
 2612SOL    HW1 8735   6.722   5.486   4.303  0.4546  0.6638  0.5313
 2612SOL    HW2 8736   6.793   5.527   4.162 -1.1621  0.7333 -0.2856
 2613SOL     OW 8737   3.258   6.723   5.937 -0.0792 -0.1559  0.0478
 2613SOL    HW1 8738   3.233   6.639   5.890 -0.2730 -0.1391  0.1216
 2613SOL    HW2 8739   3.252   6.800   5.874  1.1864 -0.3472 -0.3327
 2614SOL     OW 8740   5.580   1.522   1.345  0.2103  0.0024  0.2269
 2614SOL    HW1 8741   5.511   1.568   1.400  0.4270 -0.1780  0.6495
 2614SOL    HW2 8742   5.547   1.511   1.251 -0.5093 -0.4931  0.5365
 2615SOL     OW 8743   6.853   4.902   1.133  0.2846  0.2675 -0.0435
 2615SOL    HW1 8744   6.834   5.000   1.136 -1.6040 -0.0138 -1.2508
 2615SOL    HW2 8745   6.937   4.886   1.081  1.4369  1.3015  1.4306
 2616SOL     OW 8746   4.309   3.615   1.675 -1.1658 -0.2842 -0.3116
 2616SOL    HW1 8747   4.282   3.689   1.737 -0.2976  0.1787 -0.4671
 2616SOL    HW2 8748   4.261   3.531   1.700 -0.3754 -0.2699  1.3818
 2617SOL     OW 8749   1.838   5.774   6.136  0.0349 -0.4228 -0.4105
 2617SOL    HW1 8750   1.790   5.757   6.050  1.8592  2.1475 -2.0651
 2617SOL    HW2 8751   1.922   5.719   6.138  1.2506  1.3320 -1.4821
 2618SOL     OW 8752   1.883   5.122   1.470 -0.0029  0.1701 -0.1961
 2618SOL    HW1 8753   1.916   5.092   1.559 -0.7778  0.8779  0.3423
 2618SOL    HW2 8754   1.913   5.058   1.400  0.1990 -0.6604  0.6335
 2619SOL     OW 8755   4.966   1.071   2.558 -0.0010  0.1900 -0.2882
 2619SOL    HW1 8756   4.942   1.167   2.571  1.6632  0.6753 -0.6365
 2619SOL    HW2 8757   4.994   1.056   2.463 -0.9339 -0.8213 -0.4286
 2620SOL     OW 8758   1.514   4.808   4.341 -0.0669 -0.1068  0.4347
 2620SOL    HW1 8759   1.532   4.817   4.439 -2.6076  1.4780  0.8635
 2620SOL    HW2 8760   1.515   4.898   4.298  2.2046 -0.8795 -1.3145
 2621SOL     OW 8761   1.222   5.523   4.325 -0.6745  0.0990  0.2653
 2621SOL    HW1 8762   1.155   5.470   4.273 -0.0174  2.3910 -3.3505
 2621SOL    HW2 8763   1.181   5.610   4.352 -0.1121  0.1186  1.0790
 2622SOL     OW 8764   2.408   0.379   2.086 -0.3357  0.0740  0.7203
 2622SOL    HW1 8765   2.445   0.333   2.167  0.9080  0.5795  0.4577
 2622SOL    HW2 8766   2.401   0.477   2.104 -0.0476  0.1896  0.2137
 2623SOL     OW 8767   3.898   1.168   5.006  0.0794 -0.2146  0.1416
 2623SOL    HW1 8768   3.937   1.149   4.916 -0.5421  0.2652 -0.2367
 2623SOL    HW2 8769   3.939   1.106   5.073 -0.3503 -1.4533 -0.6915
 2624SOL     OW 8770   5.180   2.714   4.841  0.3476 -0.1861 -0.4803
 2624SOL    HW1 8771   5.168   2.807   4.807  0.6852  0.1185  0.2147
 2624SOL    HW2 8772   5.094   2.664   4.832 -0.3980  0.7904  0.9333
 2625SOL     OW 8773   1.308   0.115   4.319  0.1036  0.9955 -0.0095
 2625SOL    HW1 8774   1.278   0.207   4.341 -0.6957  0.9297 -0.7441
 2625SOL    HW2 8775   1.314   0.105   4.220  1.0923  0.5333  0.0888
 2626SOL     OW 8776   0.725   0.036   3.083 -0.7299 -0.1656  0.7365
 2626SOL    HW1 8777   0.637   0.001   3.116 -1.5984 -0.7762 -1.9751
 2626SOL    HW2 8778   0.792  -0.039   3.080 -0.1064  0.2472  2.5560
 2627SOL     OW 8779   1.153   5.780   4.438 -0.2969 -0.5050  0.3064
 2627SOL    HW1 8780   1.213   5.846   4.483 -2.6188  1.5759  0.5224
 2627SOL    HW2 8781   1.078   5.756   4.499 -0.9301 -1.3365 -0.7612
 2628SOL     OW 8782   5.412   6.551   1.440  0.0070  0.1716  0.1260
 2628SOL    HW1 8783   5.498   6.559   1.490  0.2345  0.5835 -0.3241
 2628SOL    HW2 8784   5.411   6.464   1.390 -1.8412 -2.1843  3.8347
 2629SOL     OW 8785   4.121   3.409   3.334  0.1056 -0.0905 -0.6798
 2629SOL    HW1 8786   4.153   3.480   3.271  0.6194  0.0476 -0.2780
 2629SOL    HW2 8787   4.066   3.342   3.285 -2.5458  1.9117 -0.6500
 2630SOL     OW 8788   5.294   6.878   4.225  0.4640 -0.4003  0.6763
 2630SOL    HW1 8789   5.368   6.829   4.271  2.8089  1.9571 -0.3377
 2630SOL    HW2 8790   5.285   6.969   4.264 -0.4258  0.1136 -0.6674
 2631SOL     OW 8791   3.885   6.660   2.377 -0.2150  0.1532  0.4480
 2631SOL    HW1 8792   3.819   6.649   2.452  0.1053 -0.2493  0.6708
 2631SOL    HW2 8793   3.862   6.743   2.325 -2.8125 -1.5489 -1.3760
 2632SOL     OW 8794   5.623   1.080   1.504  0.0749 -0.2787 -0.1252
 2632SOL    HW1 8795   5.692   1.010   1.520 -0.7104 -1.0748 -0.1408
 2632SOL    HW2 8796   5.649   1.135   1.425  1.4520  0.4432  0.7946
 2633SOL     OW 8797   6.921   0.658   0.798 -0.1782  0.0529  0.2258
 2633SOL    HW1 8798   6.910   0.564   0.829 -1.7613 -0.3762 -1.4749
 2633SOL    HW2 8799   6.987   0.661   0.723 -0.4605  0.2221 -0.0196
 2634SOL     OW 8800   2.395   5.585   6.754 -0.2622 -0.4787  0.2400
 2634SOL    HW1 8801   2.362   5.650   6.823 -1.5601  2.3910 -2.8556
 2634SOL    HW2 8802   2.333   5.506   6.751 -0.0391 -0.8045  2.4138
 2635SOL     OW 8803   0.747   4.330   2.962  0.4706  0.1450 -0.4870
 2635SOL    HW1 8804   0.765   4.232   2.959 -0.2645 -0.0098 -0.1835
 2635SOL    HW2 8805   0.648   4.345   2.959  0.5935  0.8899 -0.8622
 2636SOL     OW 8806   5.728   4.650   6.638 -0.3740  0.5578  0.3847
 2636SOL    HW1 8807   5.766   4.593   6.565 -1.2130 -0.9611  1.0972
 2636SOL    HW2 8808   5.708   4.741   6.602 -2.2101 -0.5774 -1.7331
 2637SOL     OW 8809   4.772   6.137   2.349 -0.2346  0.3119  0.1119
 2637SOL    HW1 8810   4.721   6.116   2.432  0.1927 -0.0313  0.2923
 2637SOL    HW2 8811   4.712   6.184   2.284 -0.9156 -0.5050  0.1307
 2638SOL     OW 8812   5.002   6.285   6.672 -0.3783 -0.3098 -0.1735
 2638SOL    HW1 8813   4.911   6.318   6.699  0.1295  1.7290 -0.7752
 2638SOL    HW2 8814   4.998   6.250   6.579 -0.2850  1.2954 -0.8282
 2639SOL     OW 8815   6.377   1.657   2.313  0.3389 -0.4767 -0.2561
 2639SOL    HW1 8816   6.440   1.580   2.313 -0.6860 -1.3435  0.5671
 2639SOL    HW2 8817   6.410   1.727   2.249  0.5797 -2.1619 -2.0683
 2640SOL     OW 8818   4.923   4.397   2.303 -0.0277 -0.1720  0.2293
 2640SOL    HW1 8819   4.856   4.338   2.347  0.2499 -0.5393  0.1687
 2640SOL    HW2 8820   5.012   4.351   2.303  0.3882  0.6077  0.9580
 2641SOL     OW 8821   6.306   6.261   0.191  0.2924 -0.4895 -0.7506
 2641SOL    HW1 8822   6.306   6.182   0.129  1.0609  0.5218 -2.0854
 2641SOL    HW2 8823   6.293   6.345   0.138 -4.0882  0.1592  0.9225
 2642SOL     OW 8824   6.527   6.393   3.986 -1.0022  0.0115 -0.1603
 2642SOL    HW1 8825   6.438   6.352   4.010  0.4198 -2.6516  1.0968
 2642SOL    HW2 8826   6.562   6.444   4.065 -0.4799 -0.7991  0.1450
 2643SOL     OW 8827   2.883   6.863   3.098  0.6034 -0.2099 -0.3863
 2643SOL    HW1 8828   2.868   6.790   3.031  1.4233  0.3918 -1.2501
 2643SOL    HW2 8829   2.979   6.863   3.127  0.5538  0.3665 -0.2105
 2644SOL     OW 8830   4.285   5.476   2.991  0.3736 -0.5835 -0.7416
 2644SOL    HW1 8831   4.330   5.479   3.081 -1.2430 -0.7848  0.1034
 2644SOL    HW2 8832   4.218   5.402   2.990 -0.2859  0.0123 -1.7954
 2645SOL     OW 8833   5.527   5.800   6.867 -0.6731 -0.1246  0.0916
 2645SOL    HW1 8834   5.428   5.814   6.865 -0.6634  0.0420  0.6368
 2645SOL    HW2 8835   5.571   5.860   6.800 -0.9132  0.0442  0.0855
 2646SOL     OW 8836   6.639   6.166   4.385  0.0358 -0.0006 -0.2632
 2646SOL    HW1 8837   6.638   6.210   4.295 -1.9496 -0.2157 -0.3797
 2646SOL    HW2 8838   6.587   6.081   4.382 -0.6136  0.3055  1.2273
 2647SOL     OW 8839   2.839   4.595   6.796 -0.4480 -0.0068  0.6927
 2647SOL    HW1 8840   2.846   4.667   6.865 -0.7955  1.2589 -0.5488
 2647SOL    HW2 8841   2.771   4.622   6.727  0.0800 -1.1123 -0.2803
 2648SOL     OW 8842   4.821   6.452   3.009 -0.4490  0.1524 -0.1050
 2648SOL    HW1 8843   4.807   6.453   3.108 -1.9679 -0.8286 -0.2824
 2648SOL    HW2 8844   4.874   6.372   2.984 -0.7183 -0.0141 -0.1499
 2649SOL     OW 8845   2.917   3.395   4.294  0.0357  0.5586 -0.0074
 2649SOL    HW1 8846   2.924   3.384   4.393 -3.0563  1.1722  0.3933
 2649SOL    HW2 8847   2.913   3.492   4.271 -1.7511  0.4201 -0.4188
 2650SOL     OW 8848   4.928   0.055   3.225 -0.1566  0.2121 -0.3093
 2650SOL    HW1 8849   4.830   0.070   3.213 -0.2723  0.0841  0.3977
 2650SOL    HW2 8850   4.973   0.143   3.240 -0.0996  0.3103 -1.0543
 2651SOL     OW 8851   1.679   1.137   1.618 -0.3815 -0.2582  0.5896
 2651SOL    HW1 8852   1.649   1.230   1.639  1.0939  0.8109 -1.7016
 2651SOL    HW2 8853   1.672   1.120   1.520  1.2952 -1.8474  0.6827
 2652SOL     OW 8854   2.403   1.917   1.696 -0.1789 -0.3859  0.4546
 2652SOL    HW1 8855   2.497   1.891   1.672 -0.5178 -0.1448 -1.2924
 2652SOL    HW2 8856   2.347   1.919   1.613 -0.9397  2.8151  0.9145
 2653SOL     OW 8857   6.454   1.377   0.744  0.3967  0.7512  0.2549
 2653SOL    HW1 8858   6.524   1.363   0.814 -0.0865  0.3741  0.6764
 2653SOL    HW2 8859   6.497   1.398   0.656  1.0140  1.3232  0.6815
 2654SOL     OW 8860   0.584   2.979   4.563  0.3061  1.0132 -0.2150
 2654SOL    HW1 8861   0.588   3.047   4.637  1.5584  1.9916 -1.1362
 2654SOL    HW2 8862   0.667   2.924   4.564 -0.7463 -0.6226  0.5838
 2655SOL     OW 8863   5.859   5.211   3.520  0.0810 -0.1741 -0.0718
 2655SOL    HW1 8864   5.888   5.216   3.424 -0.8784  1.9645 -0.3184
 2655SOL    HW2 8865   5.763   5.183   3.524  0.0523 -0.0302  0.2397
 2656SOL     OW 8866   5.078   5.163   3.151 -0.1679 -0.0306 -0.1823
 2656SOL    HW1 8867   5.027   5.224   3.211 -2.1382 -2.3558  0.6838
 2656SOL    HW2 8868   5.139   5.216   3.092 -2.8178  2.8725 -0.5460
 2657SOL     OW 8869   3.743   3.841   5.515  0.2574 -0.3289 -0.3917
 2657SOL    HW1 8870   3.680   3.822   5.590  0.4788  0.6454  0.0542
 2657SOL    HW2 8871   3.742   3.939   5.495 -0.6118 -0.7046 -2.3867
 2658SOL     OW 8872   0.971   4.135   4.203 -0.2637  0.1757 -1.0776
 2658SOL    HW1 8873   0.955   4.082   4.286  0.8230  0.8241 -0.4368
 2658SOL    HW2 8874   0.961   4.233   4.224 -2.1515  0.2924 -2.2162
 2659SOL     OW 8875   6.938   1.906   3.033  0.3077  0.0854 -0.2124
 2659SOL    HW1 8876   6.928   1.926   2.936  2.2866 -2.1337 -0.9674
 2659SOL    HW2 8877   7.034   1.887   3.054 -0.0229  0.7532  2.2605
 2660SOL     OW 8878   2.005   0.630   1.152 -0.2116 -0.1173 -0.0093
 2660SOL    HW1 8879   1.977   0.555   1.092 -1.3474 -0.0632  0.4251
 2660SOL    HW2 8880   2.010   0.597   1.246  1.1762 -0.1065 -0.0644
 2661SOL     OW 8881   2.279   6.845   5.189  0.1285 -0.4937 -0.2905
 2661SOL    HW1 8882   2.344   6.840   5.114  0.5262 -1.8500  0.1185
 2661SOL    HW2 8883   2.327   6.833   5.276 -0.5683 -0.9017  0.0518
 2662SOL     OW 8884   5.201   1.785   4.540  0.4470  0.5875 -0.1470
 2662SOL    HW1 8885   5.276   1.850   4.527  1.1414 -0.4864 -1.7925
 2662SOL    HW2 8886   5.131   1.800   4.470 -0.0461  0.4406  0.3079
 2663SOL     OW 8887   5.965   2.774   4.694  0.9788  0.0580 -0.3495
 2663SOL    HW1 8888   5.874   2.733   4.688  0.8171  0.1787  1.0870
 2663SOL    HW2 8889   5.995   2.801   4.602 -1.0394  1.3319 -0.7014
 2664SOL     OW 8890   4.115   5.007   0.916  0.4703  0.0158 -0.2435
 2664SOL    HW1 8891   4.093   4.932   0.855  0.6113 -0.8545  0.7595
 2664SOL    HW2 8892   4.176   5.071   0.868  2.1235 -1.6081 -0.4322
 2665SOL     OW 8893   3.451   5.299   4.114  0.3732  0.2508  0.2817
 2665SOL    HW1 8894   3.434   5.269   4.020 -1.3284 -1.6577  1.1302
 2665SOL    HW2 8895   3.539   5.345   4.119 -0.1097  1.6581 -2.5062
 2666SOL     OW 8896   4.348   5.334   1.587 -0.5211  0.2280 -0.2767
 2666SOL    HW1 8897   4.359   5.285   1.501 -1.3003 -0.1341 -0.1840
 2666SOL    HW2 8898   4.397   5.421   1.583  2.3314 -1.2456  0.1598
 2667SOL     OW 8899   4.033   0.371   2.791 -0.8851  0.3178  0.2122
 2667SOL    HW1 8900   3.982   0.313   2.854  0.6378 -1.1264  0.1714
 2667SOL    HW2 8901   4.131   0.352   2.799 -0.2617  3.2007  0.5028
 2668SOL     OW 8902   5.133   3.152   4.366 -0.2696 -0.0084 -0.4338
 2668SOL    HW1 8903   5.176   3.208   4.438 -2.9519  1.1304  0.4219
 2668SOL    HW2 8904   5.168   3.179   4.277  0.3966  1.2215  0.1795
 2669SOL     OW 8905   3.286   0.645   6.215 -0.0055  0.2125  0.3639
 2669SOL    HW1 8906   3.206   0.646   6.155  0.1227 -0.6102  0.1741
 2669SOL    HW2 8907   3.334   0.733   6.208 -1.8251  1.3872  1.7604
 2670SOL     OW 8908   1.024   6.079   4.335  0.2577  0.6815  0.3861
 2670SOL    HW1 8909   0.986   6.138   4.406 -0.4830  0.5141  0.1335
 2670SOL    HW2 8910   1.124   6.086   4.337  0.1681  2.5841 -0.1926
 2671SOL     OW 8911   2.083   5.188   0.020 -0.1824 -0.1375 -0.2179
 2671SOL    HW1 8912   2.004   5.168   0.078  0.0184  2.2732  0.9935
 2671SOL    HW2 8913   2.147   5.110   0.023 -2.3023 -2.0286 -1.0253
 2672SOL     OW 8914   3.415   5.386   1.491  0.3479  0.0879  0.1502
 2672SOL    HW1 8915   3.478   5.347   1.557 -0.4392 -0.1334  0.7918
 2672SOL    HW2 8916   3.331   5.331   1.489  0.7208 -0.4998 -1.7473
 2673SOL     OW 8917   4.074   1.961   4.812 -0.3423  0.3225  0.0105
 2673SOL    HW1 8918   4.119   1.914   4.736 -0.9953 -0.2247 -0.0522
 2673SOL    HW2 8919   4.123   2.046   4.833  0.7570 -0.2997  0.0141
 2674SOL     OW 8920   4.202   0.187   5.483  0.4647 -0.5513  0.0549
 2674SOL    HW1 8921   4.130   0.256   5.483  0.5382 -0.4753  0.4231
 2674SOL    HW2 8922   4.180   0.117   5.551  1.2501  0.0039  0.8970
 2675SOL     OW 8923   5.637   5.496   5.498 -0.0269  0.8183 -0.2744
 2675SOL    HW1 8924   5.630   5.407   5.544  0.8595  1.5276  1.3219
 2675SOL    HW2 8925   5.731   5.509   5.466  0.2399  1.8163  0.8844
 2676SOL     OW 8926   5.209   0.060   0.715  0.2939  0.0308 -0.0364
 2676SOL    HW1 8927   5.182   0.156   0.711 -0.4068  0.0481  2.8495
 2676SOL    HW2 8928   5.142   0.009   0.770 -0.3862 -2.5556 -2.9568
 2677SOL     OW 8929   2.338   5.134   1.684 -0.2347 -0.4278  0.5266
 2677SOL    HW1 8930   2.430   5.121   1.721 -0.5819 -2.3671  0.7764
 2677SOL    HW2 8931   2.316   5.060   1.621 -0.4192  1.7213 -2.1615
 2678SOL     OW 8932   0.521   5.660   0.269 -0.1367  0.0271  0.2232
 2678SOL    HW1 8933   0.495   5.710   0.186 -2.8888 -0.5062  0.6579
 2678SOL    HW2 8934   0.619   5.642   0.268  0.2728  1.9746 -1.8181
 2679SOL     OW 8935   3.052   4.138   0.364 -0.1482  0.7314  0.0345
 2679SOL    HW1 8936   3.005   4.067   0.313 -0.2430  0.4841  0.4648
 2679SOL    HW2 8937   3.141   4.156   0.322 -0.8819  1.6867 -1.2012
 2680SOL     OW 8938   6.104   0.941   0.279 -0.0545  0.2409  0.7144
 2680SOL    HW1 8939   6.039   0.878   0.320 -2.0095  1.0139 -0.9984
 2680SOL    HW2 8940   6.195   0.927   0.319 -1.2049 -0.9961  3.0677
 2681SOL     OW 8941   1.673   1.408   1.257  0.0324 -0.1357  0.3909
 2681SOL    HW1 8942   1.713   1.330   1.305  0.3447 -0.0775  0.2234
 2681SOL    HW2 8943   1.699   1.493   1.304 -0.8505 -0.1667  0.9661
 2682SOL     OW 8944   6.475   3.193   4.334  0.2151 -0.1571  0.2068
 2682SOL    HW1 8945   6.489   3.142   4.249  1.3926  0.2691  0.1294
 2682SOL    HW2 8946   6.417   3.139   4.396  3.0267 -2.6071  0.9642
 2683SOL     OW 8947   1.024   6.095   1.485 -0.5164  0.0513  0.2433
 2683SOL    HW1 8948   1.009   6.171   1.422  0.3869 -1.3544 -1.7490
 2683SOL    HW2 8949   1.053   6.014   1.435  0.8507 -0.9987  2.5198
 2684SOL     OW 8950   3.321   5.331   3.371  0.3838  0.2148 -0.4199
 2684SOL    HW1 8951   3.233   5.378   3.359  1.1118  2.3946  1.9450
 2684SOL    HW2 8952   3.313   5.237   3.337 -2.5794  0.5875 -1.0666
 2685SOL     OW 8953   4.157   6.943   4.940 -0.1086 -0.6914 -0.6411
 2685SOL    HW1 8954   4.174   6.981   5.031  0.2374  1.0872 -1.3978
 2685SOL    HW2 8955   4.093   7.002   4.891 -0.7295 -1.9364 -1.3696
 2686SOL     OW 8956   0.813   2.734   4.403  0.6860 -0.7883 -0.1095
 2686SOL    HW1 8957   0.862   2.805   4.353 -1.8706 -0.4102 -2.2926
 2686SOL    HW2 8958   0.865   2.649   4.400  1.6272 -0.2075 -1.5179
 2687SOL     OW 8959   4.304   4.954   3.536 -0.0792  0.1672 -0.4933
 2687SOL    HW1 8960   4.213   4.994   3.525  0.1258  0.3383 -1.6359
 2687SOL    HW2 8961   4.347   4.990   3.619  1.1582  4.4465 -2.7131
 2688SOL     OW 8962   3.757   4.206   5.118 -0.2604 -0.1704  0.2640
 2688SOL    HW1 8963   3.668   4.174   5.088  0.2606  1.0804 -3.0115
 2688SOL    HW2 8964   3.826   4.136   5.101  0.0175  0.4982 -1.5316
 2689SOL     OW 8965   6.255   2.110   3.018 -0.3566  0.8871 -1.0250
 2689SOL    HW1 8966   6.158   2.084   3.018  0.3246 -2.0437  0.6706
 2689SOL    HW2 8967   6.312   2.028   3.014  2.0929  2.3891  0.4988
 2690SOL     OW 8968   3.770   3.343   3.809 -0.5816  0.0474  0.1685
 2690SOL    HW1 8969   3.703   3.296   3.751 -0.5065  0.7583 -0.5244
 2690SOL    HW2 8970   3.855   3.292   3.811 -0.7247 -0.1981 -0.0042
 2691SOL     OW 8971   0.271   6.102   1.079 -0.3102  0.0977  0.4201
 2691SOL    HW1 8972   0.348   6.084   1.139  1.7852  1.3876 -1.6937
 2691SOL    HW2 8973   0.230   6.015   1.050 -0.2850 -0.5748  2.2963
 2692SOL     OW 8974   1.873   3.254   4.992  0.0568  0.2272 -0.0483
 2692SOL    HW1 8975   1.960   3.239   5.038 -0.5177 -0.5272  0.8313
 2692SOL    HW2 8976   1.845   3.350   5.003  1.6186  0.9608 -1.8995
 2693SOL     OW 8977   2.118   2.708   3.914 -0.0128 -0.0414  0.2596
 2693SOL    HW1 8978   2.127   2.725   3.815  2.5988  1.4484  0.6496
 2693SOL    HW2 8979   2.097   2.612   3.929 -1.2114 -0.1552 -1.7610
 2694SOL     OW 8980   3.380   0.526   0.832  0.4297  0.1193 -0.2686
 2694SOL    HW1 8981   3.320   0.606   0.821 -1.0245 -0.8201  0.5414
 2694SOL    HW2 8982   3.426   0.531   0.921 -0.7965 -0.6426  0.4334
 2695SOL     OW 8983   3.102   2.160   2.583  0.5229  0.4649 -0.0843
 2695SOL    HW1 8984   3.191   2.115   2.590  0.5038  0.4405  0.0002
 2695SOL    HW2 8985   3.083   2.181   2.487  1.2970  1.8206  0.0242
 2696SOL     OW 8986   2.853   3.961   6.348 -0.3017 -0.2955  0.0171
 2696SOL    HW1 8987   2.776   3.918   6.302 -0.5077 -1.0155  0.9966
 2696SOL    HW2 8988   2.867   3.918   6.438  0.2333  0.8904  0.5276
 2697SOL     OW 8989   2.495   2.454   6.101 -0.5037  0.3736 -0.8513
 2697SOL    HW1 8990   2.537   2.541   6.074 -0.2055 -0.0289 -1.7197
 2697SOL    HW2 8991   2.433   2.423   6.029 -1.8732  0.6620  0.1626
 2698SOL     OW 8992   3.139   1.708   0.243 -0.3419 -0.3789 -0.0739
 2698SOL    HW1 8993   3.068   1.737   0.179 -1.2313  1.3241  1.5655
 2698SOL    HW2 8994   3.160   1.611   0.229 -1.7376 -0.4792 -1.7396
 2699SOL     OW 8995   0.309   2.992   4.688 -0.2969 -0.1646  0.4132
 2699SOL    HW1 8996   0.380   2.988   4.617 -0.5816  0.9730  0.0387
 2699SOL    HW2 8997   0.344   3.042   4.768 -0.2539 -0.7136  0.7366
 2700SOL     OW 8998   1.450   2.709   2.502  0.5127 -0.4923  0.0859
 2700SOL    HW1 8999   1.371   2.750   2.548  0.8906  0.4643 -0.0933
 2700SOL    HW2 9000   1.528   2.771   2.507  1.0184 -1.0632 -0.4637
 2701SOL     OW 9001   0.209   6.273   3.777  0.4407 -0.3757  0.5764
 2701SOL    HW1 9002   0.144   6.251   3.850  0.3562 -0.4565  0.4768
 2701SOL    HW2 9003   0.162   6.272   3.689  0.5205 -0.1742  0.5309
 2702SOL     OW 9004   5.779   4.787   2.587  0.0225 -0.4967  0.0061
 2702SOL    HW1 9005   5.736   4.869   2.549  2.0677  0.2337 -0.8515
 2702SOL    HW2 9006   5.735   4.763   2.673 -0.4652  1.6425  0.3896
 2703SOL     OW 9007   7.012   3.886   1.271  0.2919  0.6837  0.2460
 2703SOL    HW1 9008   6.998   3.813   1.337  0.5240  1.9231  1.7317
 2703SOL    HW2 9009   6.943   3.880   1.199 -0.3994 -0.2926  0.9696
 2704SOL     OW 9010   6.667   5.966   1.669  0.2408 -0.3860 -0.0675
 2704SOL    HW1 9011   6.629   6.012   1.749  0.3927 -0.4594  0.0467
 2704SOL    HW2 9012   6.593   5.941   1.607  0.1181 -0.3742  0.0738
 2705SOL     OW 9013   6.273   2.028   4.999 -0.8746 -0.7565  0.1465
 2705SOL    HW1 9014   6.330   2.064   4.925  0.2908  1.2337  1.8835
 2705SOL    HW2 9015   6.267   1.929   4.992 -0.2704 -0.6701 -2.2072
 2706SOL     OW 9016   6.916   2.261   4.741  0.3185 -0.0857  0.4571
 2706SOL    HW1 9017   6.959   2.280   4.830  0.9867 -0.6560  0.2700
 2706SOL    HW2 9018   6.941   2.168   4.712 -1.8132 -0.8234  0.7771
 2707SOL     OW 9019   1.990   1.817   0.719 -0.0183 -0.3966  0.8091
 2707SOL    HW1 9020   1.952   1.825   0.627  1.0637 -0.3857  0.3440
 2707SOL    HW2 9021   2.023   1.907   0.749  1.0050 -0.6805  0.5783
 2708SOL     OW 9022   0.875   4.144   0.206  0.1378  0.6415 -0.1785
 2708SOL    HW1 9023   0.852   4.228   0.155 -0.7461  0.5598  0.0711
 2708SOL    HW2 9024   0.792   4.105   0.245  0.1452 -1.7260 -2.3429
 2709SOL     OW 9025   2.338   6.583   2.420 -0.4945 -0.7131 -0.1769
 2709SOL    HW1 9026   2.406   6.656   2.420 -0.3113 -0.8678 -0.9654
 2709SOL    HW2 9027   2.268   6.602   2.489  0.5015 -0.7190  0.8622
 2710SOL     OW 9028   0.245   4.584   3.937  0.2347 -0.0194  0.2144
 2710SOL    HW1 9029   0.326   4.625   3.894 -0.9243  3.0141  0.6703
 2710SOL    HW2 9030   0.274   4.509   3.997  2.4619 -0.2978 -1.0705
 2711SOL     OW 9031   0.092   6.360   1.761 -0.5449  0.0306 -0.9134
 2711SOL    HW1 9032   0.188   6.389   1.766 -1.2500  2.6709 -1.2559
 2711SOL    HW2 9033   0.088   6.261   1.751  2.0832 -0.4414  1.3365
 2712SOL     OW 9034   3.428   5.605   3.149 -0.1680 -0.1300 -0.3088
 2712SOL    HW1 9035   3.338   5.561   3.152 -0.8617  1.2677  0.5075
 2712SOL    HW2 9036   3.479   5.581   3.231 -0.3636  0.1954 -0.0884
 2713SOL     OW 9037   3.250   2.489   5.825 -0.8291  0.5682 -0.3261
 2713SOL    HW1 9038   3.280   2.425   5.896 -0.6012 -1.5286 -2.2012
 2713SOL    HW2 9039   3.269   2.582   5.855 -2.1224 -0.0585  2.9935
 2714SOL     OW 9040   5.502   1.058   5.734  0.6195  0.0525 -0.1485
 2714SOL    HW1 9041   5.522   1.145   5.689 -0.7136  0.0004 -0.8736
 2714SOL    HW2 9042   5.461   0.995   5.669 -0.2874 -0.4221  0.8412
 2715SOL     OW 9043   0.542   5.343   1.470 -0.5878 -0.6161  0.6507
 2715SOL    HW1 9044   0.638   5.317   1.482 -0.2380  0.4118  0.1867
 2715SOL    HW2 9045   0.501   5.287   1.398  0.5768  1.0286 -1.4201
 2716SOL     OW 9046   6.404   0.914   1.727 -0.0093 -0.0554 -0.1922
 2716SOL    HW1 9047   6.304   0.920   1.725 -0.1543 -0.8472  2.1044
 2716SOL    HW2 9048   6.431   0.817   1.725  0.3724 -0.2701  4.4606
 2717SOL     OW 9049   5.957   5.728   3.548 -0.5415 -0.1087 -0.2045
 2717SOL    HW1 9050   5.931   5.824   3.557 -0.7691  0.0669 -2.4284
 2717SOL    HW2 9051   6.057   5.721   3.549 -0.5040 -0.1059  1.8053
 2718SOL     OW 9052   6.087   3.446   3.779  0.4057  0.8458 -0.1397
 2718SOL    HW1 9053   6.040   3.359   3.800 -1.3995  2.2070  1.9232
 2718SOL    HW2 9054   6.022   3.521   3.789  2.7930  2.7933  1.9718
 2719SOL     OW 9055   5.553   3.503   2.958  0.2035  0.1531 -0.3179
 2719SOL    HW1 9056   5.563   3.601   2.974 -1.1206  0.0313  1.7257
 2719SOL    HW2 9057   5.462   3.485   2.921  0.4593 -0.3127 -0.7299
 2720SOL     OW 9058   1.102   6.412   4.169 -0.5330  0.1351  0.4552
 2720SOL    HW1 9059   1.115   6.322   4.128  0.0536  0.1799  0.5372
 2720SOL    HW2 9060   1.041   6.466   4.112 -2.3128 -0.9096  1.2873
 2721SOL     OW 9061   6.086   0.784   2.539 -0.1657 -0.1974  0.2171
 2721SOL    HW1 9062   5.995   0.825   2.550  0.2174  0.6414  0.3526
 2721SOL    HW2 9063   6.113   0.789   2.443  0.2028  0.5757  0.3584
 2722SOL     OW 9064   1.350   6.046   1.881 -0.2526  0.0482 -0.2191
 2722SOL    HW1 9065   1.351   6.025   1.784  0.4003 -0.5063 -0.0984
 2722SOL    HW2 9066   1.442   6.071   1.912 -0.2708 -0.6315  0.4263
 2723SOL     OW 9067   2.812   6.596   5.252 -0.8028  0.0704 -0.0857
 2723SOL    HW1 9068   2.823   6.597   5.352 -2.3250  1.7011  0.1189
 2723SOL    HW2 9069   2.757   6.674   5.224  2.0021  1.3837 -2.5294
 2724SOL     OW 9070   3.151   6.848   4.688 -0.1948 -0.1536 -0.0575
 2724SOL    HW1 9071   3.133   6.804   4.776  1.5210  1.1726  1.0348
 2724SOL    HW2 9072   3.101   6.934   4.682 -0.0952 -0.1070 -0.2424
 2725SOL     OW 9073   2.087   0.121   2.561  0.7061  0.5481 -0.2158
 2725SOL    HW1 9074   2.145   0.040   2.551 -0.0536  0.0202 -0.4343
 2725SOL    HW2 9075   1.995   0.101   2.528  0.5708  1.5876 -0.5316
 2726SOL     OW 9076   5.642   0.096   1.535 -0.0598 -0.7378  0.3162
 2726SOL    HW1 9077   5.545   0.070   1.533  0.3165 -2.2294  0.2443
 2726SOL    HW2 9078   5.680   0.073   1.625 -0.0565  1.0387  0.8092
 2727SOL     OW 9079   1.052   6.133   4.053 -0.7291  0.3364 -0.1573
 2727SOL    HW1 9080   1.041   6.116   4.151  0.4019 -0.4721 -0.1434
 2727SOL    HW2 9081   1.149   6.150   4.033 -0.5292 -1.9454 -1.4510
 2728SOL     OW 9082   1.006   5.102   4.574 -0.5064 -0.3837 -0.7461
 2728SOL    HW1 9083   1.076   5.046   4.619  0.0428 -1.0685 -2.3685
 2728SOL    HW2 9084   1.048   5.151   4.498 -1.6270 -0.1045 -1.1865
 2729SOL     OW 9085   0.005   3.811   2.491  0.4337 -0.6738  0.0201
 2729SOL    HW1 9086   0.068   3.757   2.547 -0.7634 -0.1054  2.0111
 2729SOL    HW2 9087  -0.084   3.816   2.535 -0.5012  0.0772 -1.8248
 2730SOL     OW 9088   3.544   1.736   1.217  0.6084 -0.1076 -0.2451
 2730SOL    HW1 9089   3.536   1.665   1.287  0.9706 -2.2313 -2.2418
 2730SOL    HW2 9090   3.454   1.773   1.195  0.2678 -0.7559  0.0424
 2731SOL     OW 9091   1.576   2.762   4.498  0.6679  0.5591  0.4456
 2731SOL    HW1 9092   1.508   2.738   4.430  0.9190 -0.6891  0.6079
 2731SOL    HW2 9093   1.641   2.687   4.508  0.4344  0.5532  2.3159
 2732SOL     OW 9094   5.910   2.674   4.314 -0.3175 -0.2900 -0.0886
 2732SOL    HW1 9095   5.951   2.656   4.225 -2.6596  1.1582 -1.5692
 2732SOL    HW2 9096   5.943   2.761   4.350 -1.1206  0.2948 -0.7196
 2733SOL     OW 9097   2.980   0.687   4.873  0.4189 -0.0903  0.2525
 2733SOL    HW1 9098   2.958   0.782   4.894 -1.5153 -0.1308 -1.3130
 2733SOL    HW2 9099   2.999   0.638   4.958  0.0319  1.3452  1.2118
 2734SOL     OW 9100   6.894   6.313   3.169 -0.0233 -0.1055  0.1348
 2734SOL    HW1 9101   6.899   6.213   3.169 -1.0005 -0.1639  0.1037
 2734SOL    HW2 9102   6.803   6.341   3.201  0.3051  0.7770  0.3067
 2735SOL     OW 9103   0.873   5.651   1.366  0.0766  0.1531 -0.0674
 2735SOL    HW1 9104   0.889   5.673   1.270  0.5436  0.5049  0.0876
 2735SOL    HW2 9105   0.920   5.566   1.389  0.5051  0.4109  0.0140
 2736SOL     OW 9106   4.321   6.794   0.815 -0.3331  0.5070  0.2083
 2736SOL    HW1 9107   4.364   6.882   0.835  1.3027 -0.1400 -0.2664
 2736SOL    HW2 9108   4.327   6.735   0.895  1.3741 -0.2112 -0.3965
 2737SOL     OW 9109   3.955   3.568   6.536  0.1903 -0.1746  0.7087
 2737SOL    HW1 9110   3.936   3.539   6.442 -0.1311 -0.2792  0.8038
 2737SOL    HW2 9111   3.876   3.547   6.593 -0.3904  1.6628  0.6184
 2738SOL     OW 9112   0.148   3.013   6.562 -0.2655  0.0762  0.0562
 2738SOL    HW1 9113   0.139   2.958   6.645 -0.4955  0.0333  0.0043
 2738SOL    HW2 9114   0.199   2.962   6.493  1.6892  0.8580  0.8388
 2739SOL     OW 9115   3.029   5.382   5.989  0.7171 -0.3460  0.1813
 2739SOL    HW1 9116   2.988   5.413   6.074  1.4639  0.9808  0.0891
 2739SOL    HW2 9117   2.992   5.435   5.913 -0.6519 -2.1516 -0.4889
 2740SOL     OW 9118   6.010   4.349   4.892 -0.2105  0.2639 -0.3204
 2740SOL    HW1 9119   6.076   4.414   4.855 -0.7469  0.7447 -0.4520
 2740SOL    HW2 9120   5.989   4.279   4.824 -1.9785  1.7212 -1.3906
 2741SOL     OW 9121   1.591   2.228   5.297  0.3976 -0.3574  0.5230
 2741SOL    HW1 9122   1.682   2.257   5.265 -0.3085 -0.0672 -1.3364
 2741SOL    HW2 9123   1.567   2.280   5.379  1.7453 -0.1982  0.8526
 2742SOL     OW 9124   3.750   6.455   5.318 -0.5905 -0.2200  0.5193
 2742SOL    HW1 9125   3.708   6.545   5.328  0.4558  0.6095 -1.9149
 2742SOL    HW2 9126   3.719   6.412   5.233 -2.3577 -2.9742  2.3767
 2743SOL     OW 9127   6.151   5.841   6.923  0.0618 -0.1804  0.3723
 2743SOL    HW1 9128   6.135   5.759   6.978  0.5104 -0.6493 -0.1827
 2743SOL    HW2 9129   6.074   5.854   6.860 -0.3140  0.1925  0.9007
 2744SOL     OW 9130   5.113   5.260   0.889  0.5077 -0.0527  0.3880
 2744SOL    HW1 9131   5.033   5.235   0.943  0.4578 -1.8052 -0.4065
 2744SOL    HW2 9132   5.084   5.283   0.796  0.8624  0.1258  0.3200
 2745SOL     OW 9133   2.205   5.833   2.063 -0.2388 -0.3094 -0.0104
 2745SOL    HW1 9134   2.145   5.896   2.014 -2.8432 -0.7073  2.4133
 2745SOL    HW2 9135   2.163   5.742   2.066  0.3146 -0.5481  2.0075
 2746SOL     OW 9136   2.594   3.361   5.485 -0.3628  0.9502  0.0053
 2746SOL    HW1 9137   2.574   3.287   5.549  2.2704 -2.4224 -2.6370
 2746SOL    HW2 9138   2.513   3.382   5.431 -1.5933  1.2796  1.8744
 2747SOL     OW 9139   2.315   1.684   2.080  0.1417  0.2471  0.6349
 2747SOL    HW1 9140   2.362   1.639   2.004 -0.2507  0.2319  0.4016
 2747SOL    HW2 9141   2.351   1.776   2.091  0.3179  0.1903  0.5403
 2748SOL     OW 9142   5.218   2.356   5.736  0.2012  0.4676 -0.0000
 2748SOL    HW1 9143   5.208   2.357   5.836 -0.1259  0.9932 -0.0332
 2748SOL    HW2 9144   5.291   2.294   5.710 -0.8588 -1.0358  0.4723
 2749SOL     OW 9145   0.536   4.598   2.670 -0.2401  0.0573 -0.0618
 2749SOL    HW1 9146   0.594   4.628   2.746 -0.1707  2.4928 -0.9739
 2749SOL    HW2 9147   0.593   4.566   2.594 -0.2381 -0.5696  0.1985
 2750SOL     OW 9148   1.821   6.733   0.322 -0.2564  0.5793  0.9882
 2750SOL    HW1 9149   1.767   6.664   0.371  1.5419 -0.5627  1.4500
 2750SOL    HW2 9150   1.846   6.697   0.232 -0.9010  1.4323  0.4449
 2751SOL     OW 9151   1.590   6.130   6.223 -0.3098 -0.1792 -0.6171
 2751SOL    HW1 9152   1.573   6.225   6.249 -3.3950 -0.3429 -1.5778
 2751SOL    HW2 9153   1.591   6.073   6.305  0.3088  0.5066 -0.1318
 2752SOL     OW 9154   0.292   6.446   6.463 -0.1057  0.5506  0.4783
 2752SOL    HW1 9155   0.257   6.359   6.429  1.5660 -0.9122  2.3004
 2752SOL    HW2 9156   0.299   6.511   6.387  1.0886 -1.7354 -1.4912
 2753SOL     OW 9157   2.633   0.010   5.869  0.0858  0.0880 -0.1557
 2753SOL    HW1 9158   2.636  -0.063   5.800  0.2966 -1.5000  1.4593
 2753SOL    HW2 9159   2.556   0.071   5.850  1.3013  0.8974 -2.9115
 2754SOL     OW 9160   6.708   5.701   2.225 -0.2552 -0.3258 -0.2525
 2754SOL    HW1 9161   6.640   5.629   2.237 -0.4646 -0.8303 -3.3945
 2754SOL    HW2 9162   6.771   5.675   2.152 -0.4446  2.6483 -1.6547
 2755SOL     OW 9163   2.307   6.553   4.466  0.4928  0.0168  0.2410
 2755SOL    HW1 9164   2.350   6.472   4.507  1.8845  0.3637 -0.4670
 2755SOL    HW2 9165   2.266   6.527   4.378 -0.7620 -0.3039  0.8953
 2756SOL     OW 9166   5.681   2.938   3.728  0.2420  0.0268 -0.2501
 2756SOL    HW1 9167   5.743   2.861   3.730  1.2176  0.7550 -1.2945
 2756SOL    HW2 9168   5.662   2.964   3.633 -2.1847 -0.5683 -0.0088
 2757SOL     OW 9169   6.482   1.791   5.624 -0.1933 -0.0528  0.5595
 2757SOL    HW1 9170   6.409   1.750   5.678 -0.4948  0.0876  0.2606
 2757SOL    HW2 9171   6.450   1.877   5.584  0.7938  1.1547  2.1829
 2758SOL     OW 9172   0.725   6.829   1.670 -0.2238  0.3378  0.3717
 2758SOL    HW1 9173   0.819   6.805   1.647  0.3687 -0.6806  3.3524
 2758SOL    HW2 9174   0.662   6.784   1.607  1.2236 -1.3387  0.0660
 2759SOL     OW 9175   2.972   3.668   4.242  0.3985 -0.0459  0.1484
 2759SOL    HW1 9176   3.062   3.700   4.215 -0.2980  0.9356 -1.1340
 2759SOL    HW2 9177   2.919   3.643   4.161  0.1969 -2.6393  0.9782
 2760SOL     OW 9178   6.277   6.640   2.493  0.9199  0.9868  0.2372
 2760SOL    HW1 9179   6.260   6.566   2.558  3.2444 -0.0456 -0.2538
 2760SOL    HW2 9180   6.220   6.626   2.412  0.2541  0.5919  0.7585
 2761SOL     OW 9181   1.677   2.612   5.443 -0.1360 -0.3255 -0.3814
 2761SOL    HW1 9182   1.606   2.546   5.468  0.4354 -0.8960 -0.2336
 2761SOL    HW2 9183   1.634   2.699   5.420 -0.7535  0.1047  2.1033
 2762SOL     OW 9184   4.543   2.466   1.988  0.8946  0.2863 -0.9638
 2762SOL    HW1 9185   4.584   2.553   2.017  0.3397  0.5670 -1.0107
 2762SOL    HW2 9186   4.477   2.482   1.915 -0.2792  0.0200  0.0021
 2763SOL     OW 9187   3.901   6.674   2.825 -0.2250  0.1238 -0.2760
 2763SOL    HW1 9188   3.940   6.758   2.787 -1.7129  1.0961  0.2700
 2763SOL    HW2 9189   3.941   6.595   2.778  2.1948  1.0337  0.1051
 2764SOL     OW 9190   0.048   2.478   4.129  0.1783 -0.3804  0.2447
 2764SOL    HW1 9191   0.105   2.396   4.128  1.7666  0.6458  1.4149
 2764SOL    HW2 9192  -0.048   2.453   4.144  0.8175 -1.9350  1.9913
 2765SOL     OW 9193   0.061   6.547   1.985  0.2703  0.4229  0.4916
 2765SOL    HW1 9194   0.064   6.477   1.913 -1.2251  1.9929 -1.2047
 2765SOL    HW2 9195   0.121   6.520   2.061 -0.1237 -2.5635 -0.1624
 2766SOL     OW 9196   5.374   5.977   1.304 -0.2296 -0.0358 -0.1626
 2766SOL    HW1 9197   5.334   6.031   1.230 -0.7598 -0.0853  0.0840
 2766SOL    HW2 9198   5.472   5.967   1.289 -0.2790  0.2438 -0.6780
 2767SOL     OW 9199   1.645   5.867   6.827  0.1373 -0.0258  0.2736
 2767SOL    HW1 9200   1.631   5.948   6.883 -0.0022  0.0644  0.1095
 2767SOL    HW2 9201   1.558   5.821   6.811 -0.1972  1.1852 -1.7284
 2768SOL     OW 9202   2.522   2.109   0.540  0.4118  0.7055  0.8630
 2768SOL    HW1 9203   2.607   2.097   0.592 -0.9123 -0.0177  3.0126
 2768SOL    HW2 9204   2.454   2.043   0.573 -1.3745  2.0754  0.0711
 2769SOL     OW 9205   6.303   6.838   5.761 -0.1843  0.2529 -0.3493
 2769SOL    HW1 9206   6.300   6.776   5.682 -0.2570  0.8149 -0.7969
 2769SOL    HW2 9207   6.247   6.918   5.742  0.4045  0.7466 -0.0286
 2770SOL     OW 9208   0.537   6.164   6.966 -0.5717  0.6521 -0.2074
 2770SOL    HW1 9209   0.544   6.119   7.056 -2.1292  0.3474 -0.2059
 2770SOL    HW2 9210   0.609   6.129   6.906 -0.5721 -0.4428  0.3951
 2771SOL     OW 9211   3.602   6.850   6.969  0.0052  0.6362  0.1785
 2771SOL    HW1 9212   3.514   6.815   6.938  0.2833  0.8333 -0.8727
 2771SOL    HW2 9213   3.587   6.929   7.030 -0.5473  0.2351  0.5735
 2772SOL     OW 9214   5.966   1.057   2.292 -0.0364  0.1706  0.1762
 2772SOL    HW1 9215   5.956   1.139   2.236 -0.5497  0.8671  1.2659
 2772SOL    HW2 9216   6.051   1.010   2.268  0.3543  1.1189 -0.3275
 2773SOL     OW 9217   3.155   6.380   5.280  0.0444 -0.5904  0.5728
 2773SOL    HW1 9218   3.211   6.414   5.356 -0.6714  1.6670  0.1514
 2773SOL    HW2 9219   3.065   6.354   5.315  0.3595 -1.4599  0.7774
 2774SOL     OW 9220   5.319   6.510   3.556 -0.2211  0.2396 -0.1045
 2774SOL    HW1 9221   5.398   6.531   3.499 -0.1755 -0.7135 -0.4146
 2774SOL    HW2 9222   5.254   6.585   3.553  1.1772  1.5607  1.0780
 2775SOL     OW 9223   5.253   3.248   4.111 -0.0664 -0.4898  0.6324
 2775SOL    HW1 9224   5.173   3.215   4.061  1.0804 -1.5890 -0.5692
 2775SOL    HW2 9225   5.335   3.205   4.074  1.0835  0.5040  1.9194
 2776SOL     OW 9226   0.107   3.728   5.324  0.1547 -0.1048  0.4905
 2776SOL    HW1 9227   0.021   3.677   5.333  0.5536 -0.5157  2.4471
 2776SOL    HW2 9228   0.166   3.684   5.257 -0.2401 -1.1724  0.8257
 2777SOL     OW 9229   3.041   0.848   0.263  0.1735  0.6138  0.0990
 2777SOL    HW1 9230   3.024   0.887   0.173  0.9283  0.6124 -0.0514
 2777SOL    HW2 9231   3.044   0.748   0.257  1.0613  0.6392 -0.0385
 2778SOL     OW 9232   0.700   6.242   4.258  0.0023  0.5240 -0.0082
 2778SOL    HW1 9233   0.699   6.243   4.158 -1.1662 -0.2941 -0.0189
 2778SOL    HW2 9234   0.790   6.271   4.290  0.6012  0.1740 -1.3079
 2779SOL     OW 9235   3.899   1.086   4.730 -0.0053 -0.1076  0.8274
 2779SOL    HW1 9236   3.948   1.153   4.674  1.4140 -1.4066  0.4567
 2779SOL    HW2 9237   3.858   1.017   4.672 -0.8544  0.0278  1.2517
 2780SOL     OW 9238   0.568   4.522   6.365  0.2704  0.6524  0.2719
 2780SOL    HW1 9239   0.664   4.511   6.390  0.3063  0.2182 -0.0336
 2780SOL    HW2 9240   0.512   4.459   6.419  0.0038  1.7545  1.3299
 2781SOL     OW 9241   1.613   2.399   2.473  0.4636  0.4874 -0.6154
 2781SOL    HW1 9242   1.645   2.478   2.525  2.3646  1.5411 -3.1965
 2781SOL    HW2 9243   1.691   2.343   2.444 -0.8307 -2.6875  1.4543
 2782SOL     OW 9244   4.737   6.078   6.092  0.1810  0.0641  0.1001
 2782SOL    HW1 9245   4.764   6.015   6.165 -0.0105 -0.9784 -0.7251
 2782SOL    HW2 9246   4.766   6.171   6.117 -0.4472 -0.1563  1.8049
 2783SOL     OW 9247   0.260   7.007   2.500 -0.4967 -0.6313  0.1388
 2783SOL    HW1 9248   0.267   6.982   2.596 -1.4070  0.8570  0.6153
 2783SOL    HW2 9249   0.305   7.095   2.485 -2.1713  0.1880 -0.3426
 2784SOL     OW 9250   0.797   2.290   2.771 -0.2584  0.0740 -0.2712
 2784SOL    HW1 9251   0.806   2.387   2.752 -0.1477  0.0593 -0.2942
 2784SOL    HW2 9252   0.875   2.258   2.824 -2.2412  0.8898  3.5154
 2785SOL     OW 9253   5.655   5.603   6.708 -0.1379 -0.2533  0.0478
 2785SOL    HW1 9254   5.635   5.634   6.615 -0.6090 -0.1481  0.1812
 2785SOL    HW2 9255   5.603   5.657   6.774  0.2452 -0.2833  0.3812
 2786SOL     OW 9256   0.006   1.105   1.619  0.4920  0.4468  0.1215
 2786SOL    HW1 9257   0.062   1.081   1.698  0.9524  0.0792 -0.3117
 2786SOL    HW2 9258  -0.004   1.205   1.615 -1.3980  0.3996  1.9018
 2787SOL     OW 9259   6.293   6.485   5.610 -0.0920 -1.0863 -0.7362
 2787SOL    HW1 9260   6.208   6.523   5.572  1.2871  2.7215 -0.4149
 2787SOL    HW2 9261   6.274   6.447   5.700 -1.5733 -0.9082 -0.9350
 2788SOL     OW 9262   4.573   7.005   6.149  0.3368  0.2384 -0.0810
 2788SOL    HW1 9263   4.546   7.085   6.202  0.9112 -0.3565  1.1488
 2788SOL    HW2 9264   4.596   7.032   6.056  1.8225  1.7062  0.6750
 2789SOL     OW 9265   3.026   1.130   4.689  0.0730 -0.4053 -0.4516
 2789SOL    HW1 9266   3.024   1.166   4.782 -1.8190  1.9988 -1.2987
 2789SOL    HW2 9267   2.956   1.060   4.678 -2.4300  1.9793 -0.8846
 2790SOL     OW 9268   2.901   4.383   1.656 -0.3357 -0.0666 -0.0207
 2790SOL    HW1 9269   2.853   4.300   1.683  0.9216 -0.4305  1.2605
 2790SOL    HW2 9270   2.911   4.443   1.735  0.5808  0.3600 -0.4415
 2791SOL     OW 9271   0.157   4.410   4.758  0.1963 -0.1825 -1.0730
 2791SOL    HW1 9272   0.140   4.498   4.714 -0.6446  0.5469  0.5952
 2791SOL    HW2 9273   0.242   4.414   4.810 -0.9616  0.4880  0.8815
 2792SOL     OW 9274   1.589   2.918   6.454  0.5510 -0.2900  0.1708
 2792SOL    HW1 9275   1.628   3.003   6.490 -1.2176 -0.4262  2.6715
 2792SOL    HW2 9276   1.634   2.894   6.368  0.8082  3.3820 -0.8661
 2793SOL     OW 9277   2.842   3.457   5.589 -1.0371 -0.4067 -0.2187
 2793SOL    HW1 9278   2.754   3.452   5.542 -0.2395  0.2865 -1.8561
 2793SOL    HW2 9279   2.847   3.542   5.641 -0.5493  0.6189 -1.8642
 2794SOL     OW 9280   2.439   2.804   1.025  0.6534  0.2468 -0.6156
 2794SOL    HW1 9281   2.370   2.823   1.095  1.1812 -0.6541  0.1806
 2794SOL    HW2 9282   2.477   2.890   0.991 -0.7354  0.7571 -0.9641
 2795SOL     OW 9283   0.741   0.139   0.790  0.9931 -0.4839 -0.1233
 2795SOL    HW1 9284   0.709   0.195   0.866  0.2678 -0.2140 -0.6181
 2795SOL    HW2 9285   0.774   0.198   0.716 -2.4268 -0.4840 -1.8510
 2796SOL     OW 9286   2.729   0.551   2.602 -1.1590 -0.2129  0.2661
 2796SOL    HW1 9287   2.798   0.507   2.660 -1.5662 -0.3092  0.6850
 2796SOL    HW2 9288   2.752   0.647   2.590 -2.1467  0.3339  2.3155
 2797SOL     OW 9289   6.562   4.464   5.896  0.3350 -0.2951  0.1644
 2797SOL    HW1 9290   6.509   4.400   5.839  1.7904 -0.0866 -1.5368
 2797SOL    HW2 9291   6.500   4.513   5.957 -1.8391  1.4400 -3.1012
 2798SOL     OW 9292   6.424   3.283   0.455  0.1043  0.1123  0.2423
 2798SOL    HW1 9293   6.352   3.214   0.450 -0.7201  0.9749 -0.2627
 2798SOL    HW2 9294   6.505   3.244   0.497 -0.9889 -0.6077  1.7820
 2799SOL     OW 9295   3.417   1.063   4.697 -0.1993 -0.2499 -0.3500
 2799SOL    HW1 9296   3.418   0.980   4.753 -2.6530 -0.7081 -0.8703
 2799SOL    HW2 9297   3.378   1.042   4.607  0.2577  1.2388 -0.9239
 2800SOL     OW 9298   6.909   1.945   1.908  0.1815  0.1104  0.1849
 2800SOL    HW1 9299   6.897   2.015   1.838  1.9374  0.8558  0.5844
 2800SOL    HW2 9300   6.936   1.859   1.865 -0.6696  0.0153 -0.1892
 2801SOL     OW 9301   0.091   2.790   2.742 -0.2012 -0.0692  0.3258
 2801SOL    HW1 9302   0.117   2.695   2.759 -1.3219 -0.3636  0.4650
 2801SOL    HW2 9303   0.172   2.841   2.714  0.2559 -1.2685 -0.6494
 2802SOL     OW 9304   1.624   5.251   4.603 -0.5421  0.1973  0.3890
 2802SOL    HW1 9305   1.689   5.178   4.580 -1.3517 -1.0081  1.7491
 2802SOL    HW2 9306   1.674   5.329   4.640  0.4318  0.7585 -1.8857
 2803SOL     OW 9307   3.581   2.259   5.844 -0.2746 -0.3049 -0.1475
 2803SOL    HW1 9308   3.506   2.306   5.890  0.0714  1.7922 -1.5609
 2803SOL    HW2 9309   3.564   2.261   5.745  0.8413 -1.2610 -0.3665
 2804SOL     OW 9310   5.180   1.903   3.307 -0.1651 -0.0626  0.4218
 2804SOL    HW1 9311   5.182   1.940   3.400  0.2309  1.4719 -0.1698
 2804SOL    HW2 9312   5.153   1.974   3.243 -0.2471 -1.0485 -0.6729
 2805SOL     OW 9313   3.440   4.973   0.419  0.2686 -0.3516  0.0671
 2805SOL    HW1 9314   3.347   4.943   0.397 -0.2931  0.7627  0.8048
 2805SOL    HW2 9315   3.442   5.006   0.514  1.1701  0.6155 -0.2717
 2806SOL     OW 9316   0.686   3.534   4.307 -0.1212  0.1901 -0.5334
 2806SOL    HW1 9317   0.620   3.506   4.238 -1.0535  0.0125  0.3993
 2806SOL    HW2 9318   0.777   3.503   4.282 -0.8645 -2.3114 -0.3280
 2807SOL     OW 9319   2.985   6.184   4.310 -0.4424  0.1365 -0.3251
 2807SOL    HW1 9320   3.019   6.091   4.302 -0.2556  0.2705 -1.1286
 2807SOL    HW2 9321   3.062   6.249   4.302 -0.6103  0.3730 -0.0645
 2808SOL     OW 9322   0.861   7.021   1.125 -0.1832  0.1185  0.7348
 2808SOL    HW1 9323   0.832   7.110   1.088  0.6454  0.9761  2.0730
 2808SOL    HW2 9324   0.795   6.990   1.193 -0.8807 -0.6964 -0.2828
 2809SOL     OW 9325   0.921   5.984   2.196 -0.4867 -0.2719 -0.3327
 2809SOL    HW1 9326   1.016   5.972   2.224 -1.0159 -0.9014  1.3479
 2809SOL    HW2 9327   0.879   5.894   2.181 -1.1796 -0.0794  0.3426
 2810SOL     OW 9328   0.206   6.876   1.843 -0.2076 -0.3596  0.2833
 2810SOL    HW1 9329   0.193   6.935   1.764 -0.9248 -1.8497 -0.7585
 2810SOL    HW2 9330   0.141   6.901   1.915 -0.5035  0.1022 -0.1462
 2811SOL     OW 9331   1.203   5.079   1.434 -0.6001 -0.5231  0.3432
 2811SOL    HW1 9332   1.277   5.134   1.395 -1.5519 -0.2662 -1.2029
 2811SOL    HW2 9333   1.117   5.103   1.389 -1.6642 -0.7575  2.1468
 2812SOL     OW 9334   1.994   5.828   1.017 -0.1177  0.2542  0.0434
 2812SOL    HW1 9335   2.017   5.757   1.083  0.9517  0.5934  0.0715
 2812SOL    HW2 9336   1.901   5.815   0.983 -0.3709 -0.4295  0.9619
 2813SOL     OW 9337   4.116   1.935   3.349  0.5753  0.3687  0.2299
 2813SOL    HW1 9338   4.043   2.003   3.339 -0.2942 -0.6546 -0.5403
 2813SOL    HW2 9339   4.191   1.975   3.401  0.4097  2.1786 -0.8399
 2814SOL     OW 9340   1.929   4.042   6.028  0.4967 -0.8630  0.2895
 2814SOL    HW1 9341   1.920   3.984   6.109 -0.5408  0.4070  1.1298
 2814SOL    HW2 9342   1.887   3.997   5.949  2.1125 -2.4131  0.2518
 2815SOL     OW 9343   6.831   6.473   4.833 -0.8479  0.1867 -0.0046
 2815SOL    HW1 9344   6.770   6.547   4.861  0.0125  0.5198  1.0145
 2815SOL    HW2 9345   6.851   6.415   4.912 -3.6467 -2.7882 -1.2414
 2816SOL     OW 9346   0.737   4.275   5.749 -0.0267  0.7336  0.0820
 2816SOL    HW1 9347   0.687   4.351   5.707 -0.0271  0.7039  0.0283
 2816SOL    HW2 9348   0.768   4.302   5.840  0.9370  1.1842 -0.3724
 2817SOL     OW 9349   2.245   0.517   6.775  0.3758  0.1914  0.1623
 2817SOL    HW1 9350   2.163   0.532   6.719 -0.2925 -1.1530  0.7376
 2817SOL    HW2 9351   2.253   0.590   6.843  0.6035  1.2487 -0.9522
 2818SOL     OW 9352   2.377   1.402   0.385 -0.3867  0.0776 -0.5217
 2818SOL    HW1 9353   2.449   1.342   0.349  0.7374  1.9509 -1.5879
 2818SOL    HW2 9354   2.407   1.441   0.472 -0.4996  0.1838 -0.5302
 2819SOL     OW 9355   6.516   6.298   1.024 -0.2682  0.2485 -0.1782
 2819SOL    HW1 9356   6.443   6.366   1.013  0.0274  0.5753 -0.1231
 2819SOL    HW2 9357   6.506   6.252   1.112 -0.8539 -0.2436 -0.4932
 2820SOL     OW 9358   2.627   4.178   6.020 -0.5321 -0.8630 -0.4878
 2820SOL    HW1 9359   2.531   4.180   6.049 -0.5355  2.7245 -0.2040
 2820SOL    HW2 9360   2.632   4.186   5.921 -0.6082  0.3587 -0.4172
 2821SOL     OW 9361   5.201   2.190   6.125 -0.1385 -0.0386  0.1428
 2821SOL    HW1 9362   5.277   2.238   6.169 -0.3296  1.2582 -0.8835
 2821SOL    HW2 9363   5.155   2.132   6.192  2.1426 -1.4010  0.6728
 2822SOL     OW 9364   3.996   3.698   0.516  0.2497 -0.0371 -0.0276
 2822SOL    HW1 9365   3.903   3.718   0.548  0.1951  0.0194 -0.2162
 2822SOL    HW2 9366   4.056   3.683   0.594  0.1414  0.2017  0.1018
 2823SOL     OW 9367   5.813   4.442   3.335  0.1889 -0.5818  0.0373
 2823SOL    HW1 9368   5.791   4.379   3.410  0.1098 -0.5700  0.0238
 2823SOL    HW2 9369   5.871   4.516   3.369  0.6889 -0.9250 -0.0451
 2824SOL     OW 9370   6.005   3.706   4.615 -0.1517 -0.4562 -0.4618
 2824SOL    HW1 9371   5.945   3.694   4.694 -1.9503 -0.0886 -1.7020
 2824SOL    HW2 9372   6.099   3.679   4.639 -0.7492 -0.8448  1.6064
 2825SOL     OW 9373   3.171   1.647   6.244  0.1479 -0.2362 -0.5333
 2825SOL    HW1 9374   3.158   1.587   6.323  0.8717 -1.2060 -1.1279
 2825SOL    HW2 9375   3.263   1.686   6.247 -0.1851  0.5621 -0.3580
 2826SOL     OW 9376   2.130   1.200   5.821 -0.0045 -0.3457 -0.3547
 2826SOL    HW1 9377   2.140   1.174   5.917 -1.3234  1.2866  0.2790
 2826SOL    HW2 9378   2.126   1.299   5.813  2.8139 -0.2879 -2.4466
 2827SOL     OW 9379   0.601   1.845   6.358  0.7607  0.0379  0.1056
 2827SOL    HW1 9380   0.517   1.894   6.380  1.1245  0.3476  0.8359
 2827SOL    HW2 9381   0.611   1.766   6.418 -0.9250 -2.2977 -2.4576
 2828SOL     OW 9382   2.909   3.799   1.117  0.2455 -0.1830 -0.5570
 2828SOL    HW1 9383   2.955   3.719   1.158  0.4416 -0.1512 -0.7135
 2828SOL    HW2 9384   2.955   3.882   1.147  0.3931 -0.1595 -0.8429
 2829SOL     OW 9385   4.761   5.236   0.927 -0.1160 -0.4300 -0.4954
 2829SOL    HW1 9386   4.830   5.219   0.857  0.4051  0.7457 -0.2996
 2829SOL    HW2 9387   4.798   5.299   0.995 -0.5515 -1.6426  0.9358
 2830SOL     OW 9388   2.959   5.835   5.681 -0.2493 -0.1000  0.7672
 2830SOL    HW1 9389   2.917   5.881   5.602 -0.0960 -0.9128  0.2049
 2830SOL    HW2 9390   3.056   5.856   5.684 -0.6100  1.6731  1.9919
 2831SOL     OW 9391   4.203   1.259   3.535 -0.0399 -0.2411 -0.2371
 2831SOL    HW1 9392   4.253   1.210   3.605  1.0592  1.3458  0.1405
 2831SOL    HW2 9393   4.262   1.274   3.455  0.2684  1.9088  0.3295
 2832SOL     OW 9394   2.439   3.269   1.372 -0.6100 -0.0479 -0.0706
 2832SOL    HW1 9395   2.529   3.277   1.416 -0.0553 -0.8990 -0.9980
 2832SOL    HW2 9396   2.414   3.172   1.366 -0.3073 -0.0403 -2.2856
 2833SOL     OW 9397   6.642   2.857   2.952  0.4015  0.1615  0.4367
 2833SOL    HW1 9398   6.659   2.938   2.895  0.4078  0.2290  0.5349
 2833SOL    HW2 9399   6.644   2.775   2.894 -0.3094  0.2928  0.2084
 2834SOL     OW 9400   4.739   1.545   1.640 -0.1904 -0.0621 -0.2084
 2834SOL    HW1 9401   4.809   1.478   1.665 -0.7130 -0.6653 -0.3254
 2834SOL    HW2 9402   4.780   1.636   1.633  0.1551 -0.0154  1.8816
 2835SOL     OW 9403   4.879   1.077   0.023 -0.2774  0.4630  0.3713
 2835SOL    HW1 9404   4.928   0.994   0.049 -0.6181  0.6446  1.7159
 2835SOL    HW2 9405   4.839   1.066  -0.067  2.6429  0.4942 -1.0370
 2836SOL     OW 9406   2.200   5.440   0.001  0.0380 -0.2495  0.2563
 2836SOL    HW1 9407   2.139   5.519  -0.013  0.1376 -0.4237 -1.3526
 2836SOL    HW2 9408   2.146   5.362   0.031 -0.2066  0.1732  0.9302
 2837SOL     OW 9409   5.906   6.228   1.758  0.0731 -0.0853 -0.5708
 2837SOL    HW1 9410   5.892   6.296   1.686  0.8437 -1.9295 -2.6059
 2837SOL    HW2 9411   5.860   6.257   1.842  0.0308  2.6734 -1.4555
 2838SOL     OW 9412   6.991   4.664   3.987 -0.0863  0.8887  0.7325
 2838SOL    HW1 9413   6.956   4.659   3.894 -0.9427 -1.7746  1.1104
 2838SOL    HW2 9414   7.088   4.641   3.987  0.0237  1.3300  0.4770
 2839SOL     OW 9415   4.591   2.075   6.758  0.3182  0.6192 -0.1960
 2839SOL    HW1 9416   4.585   1.980   6.728  0.8330 -0.1989  2.0596
 2839SOL    HW2 9417   4.659   2.123   6.704 -0.2696 -0.1463 -1.6715
 2840SOL     OW 9418   5.488   6.973   5.885 -0.2314  0.5541  0.1798
 2840SOL    HW1 9419   5.402   7.003   5.927 -0.4310  1.7638 -1.0237
 2840SOL    HW2 9420   5.565   7.020   5.928 -0.4010  1.4721 -0.4946
 2841SOL     OW 9421   5.221   4.233   2.171 -0.1803  0.3273 -0.0293
 2841SOL    HW1 9422   5.138   4.254   2.119 -0.0743  3.3651  0.8033
 2841SOL    HW2 9423   5.301   4.269   2.122  0.6756 -2.2412 -0.6453
 2842SOL     OW 9424   5.722   5.579   3.581  1.0409 -0.3387 -0.0647
 2842SOL    HW1 9425   5.695   5.577   3.677  1.8918  1.7992  0.2721
 2842SOL    HW2 9426   5.817   5.608   3.574  0.8568 -0.0280 -1.5803
 2843SOL     OW 9427   2.077   3.327   3.284 -0.0142 -0.2008 -0.0898
 2843SOL    HW1 9428   2.122   3.313   3.372 -1.3637 -1.9486  0.3784
 2843SOL    HW2 9429   1.989   3.373   3.299 -0.2149 -0.4340 -0.5350
 2844SOL     OW 9430   0.727   4.313   1.152 -0.4716 -0.2834 -0.0104
 2844SOL    HW1 9431   0.737   4.281   1.247  1.8989  0.8926  0.2160
 2844SOL    HW2 9432   0.684   4.403   1.152  1.6461  0.7804  0.2106
 2845SOL     OW 9433   3.513   1.517   1.554  0.0114 -0.0301  0.5916
 2845SOL    HW1 9434   3.578   1.529   1.628  1.2895 -1.1550 -0.3063
 2845SOL    HW2 9435   3.450   1.442   1.576 -0.1856  0.2233  0.9049
 2846SOL     OW 9436   4.408   2.242   5.397  0.0570 -0.7798 -0.9078
 2846SOL    HW1 9437   4.373   2.257   5.490 -0.6859  1.5629 -1.5001
 2846SOL    HW2 9438   4.495   2.193   5.402  0.1588 -0.4831  1.0446
 2847SOL     OW 9439   6.604   5.424   2.452  0.4382 -0.0100 -0.0939
 2847SOL    HW1 9440   6.604   5.488   2.530  1.4392  0.6238 -0.5921
 2847SOL    HW2 9441   6.636   5.334   2.483 -0.1374 -0.0410  0.4327
 2848SOL     OW 9442   2.087   3.739   4.654 -0.2365  0.0735 -0.4895
 2848SOL    HW1 9443   2.102   3.826   4.701  0.3610 -0.0204 -0.5071
 2848SOL    HW2 9444   2.069   3.668   4.722  1.2106 -0.1856 -0.3401
 2849SOL     OW 9445   5.725   0.956   0.486 -0.0666 -0.5377 -0.3581
 2849SOL    HW1 9446   5.765   0.953   0.394 -0.0705  2.6035 -0.5491
 2849SOL    HW2 9447   5.628   0.976   0.479 -0.0168 -0.0364  0.3386
 2850SOL     OW 9448   5.842   1.711   1.350 -0.4446  0.0750 -0.2138
 2850SOL    HW1 9449   5.818   1.649   1.425 -0.7282  0.0925 -0.2870
 2850SOL    HW2 9450   5.919   1.768   1.378  0.5968 -1.1211 -0.5896
 2851SOL     OW 9451   4.415   2.411   1.513  0.0652  0.2253 -0.7378
 2851SOL    HW1 9452   4.357   2.447   1.440 -1.5128 -0.0294  0.3401
 2851SOL    HW2 9453   4.495   2.470   1.524 -0.7625  1.4743 -1.2451
 2852SOL     OW 9454   0.927   3.359   5.574 -0.1934  0.3340  0.7160
 2852SOL    HW1 9455   1.010   3.307   5.594 -1.4222 -2.9013 -1.7041
 2852SOL    HW2 9456   0.902   3.347   5.478 -4.0141  0.2327  1.5409
 2853SOL     OW 9457   6.529   5.695   4.532 -0.2029  0.5743  0.0179
 2853SOL    HW1 9458   6.622   5.706   4.566  1.4146 -0.5625 -3.5272
 2853SOL    HW2 9459   6.489   5.612   4.571  0.4117  0.8375  1.2512
 2854SOL     OW 9460   3.162   1.453   2.242  0.2682  0.4181  0.1412
 2854SOL    HW1 9461   3.210   1.529   2.286  0.6558 -0.1428  0.6923
 2854SOL    HW2 9462   3.211   1.426   2.159  0.8378 -0.0627  0.6283
 2855SOL     OW 9463   3.127   2.229   4.344  0.1044 -0.1783  0.0897
 2855SOL    HW1 9464   3.167   2.273   4.425  1.6182 -1.3785  0.0456
 2855SOL    HW2 9465   3.031   2.256   4.336 -0.2257 -0.3315  2.5312
 2856SOL     OW 9466   2.296   4.910   3.046 -0.3106  0.3168  0.3133
 2856SOL    HW1 9467   2.287   4.822   3.093 -0.5029  0.1415 -0.0405
 2856SOL    HW2 9468   2.261   4.901   2.953 -1.1742  1.0087  0.5606
 2857SOL     OW 9469   0.787   3.972   0.894  0.0477 -0.3715 -0.5817
 2857SOL    HW1 9470   0.747   4.060   0.872  0.5764 -0.0158 -0.1596
 2857SOL    HW2 9471   0.715   3.904   0.905 -0.4446  0.2631  0.2230
 2858SOL     OW 9472   5.065   4.457   2.934 -0.1515  0.1199 -0.2870
 2858SOL    HW1 9473   4.985   4.413   2.975  0.7494 -0.9089  0.4034
 2858SOL    HW2 9474   5.134   4.474   3.005  1.9838 -2.8357 -1.4447
 2859SOL     OW 9475   1.377   6.273   1.417 -0.2867  0.6899  0.1627
 2859SOL    HW1 9476   1.292   6.220   1.417 -0.6341  1.1937 -1.7158
 2859SOL    HW2 9477   1.447   6.223   1.468 -0.3567 -2.0157 -2.1834
 2860SOL     OW 9478   0.839   0.958   2.015  0.1045 -0.0602 -0.8657
 2860SOL    HW1 9479   0.883   0.993   1.932  2.1120 -2.1056 -0.7525
 2860SOL    HW2 9480   0.882   0.872   2.042 -1.8543 -0.4817  1.1904
 2861SOL     OW 9481   0.233   0.860   5.339 -0.6359 -0.1626  0.1165
 2861SOL    HW1 9482   0.150   0.806   5.347 -0.7504 -0.0809 -0.4780
 2861SOL    HW2 9483   0.211   0.957   5.346 -0.4708 -0.1718  0.8652
 2862SOL     OW 9484   4.246   0.780   6.877  0.6844 -0.5113 -0.6936
 2862SOL    HW1 9485   4.334   0.731   6.874  1.2375  0.3410  0.6671
 2862SOL    HW2 9486   4.187   0.737   6.945  1.4616  1.0839  1.0811
 2863SOL     OW 9487   5.812   2.232   6.379  0.3934  0.3046  0.2096
 2863SOL    HW1 9488   5.771   2.152   6.336 -1.1199  1.1393  0.0104
 2863SOL    HW2 9489   5.912   2.223   6.379  0.2991 -2.9617  2.8838
 2864SOL     OW 9490   4.647   4.524   0.158 -0.0756 -0.4424 -0.0172
 2864SOL    HW1 9491   4.619   4.598   0.097 -1.0322 -1.6311 -1.0568
 2864SOL    HW2 9492   4.729   4.553   0.208  0.4117  0.8003 -1.4229
 2865SOL     OW 9493   5.455   2.217   5.608  0.0137 -0.8136  0.3789
 2865SOL    HW1 9494   5.523   2.175   5.548  0.9266  0.4929  0.4387
 2865SOL    HW2 9495   5.500   2.285   5.666 -1.5119  0.9623 -0.4180
 2866SOL     OW 9496   5.860   0.270   1.840 -0.0754 -0.6946  0.4812
 2866SOL    HW1 9497   5.786   0.324   1.801  0.7783  0.1108 -0.0488
 2866SOL    HW2 9498   5.852   0.175   1.809  0.3913 -0.1456 -1.4176
 2867SOL     OW 9499   0.304   2.761   3.735 -0.3263 -0.1880 -0.5461
 2867SOL    HW1 9500   0.332   2.834   3.796 -1.0779 -0.9393  0.7372
 2867SOL    HW2 9501   0.207   2.742   3.748  0.0164 -1.9270 -0.2803
 2868SOL     OW 9502   6.048   6.022   3.761 -0.2926 -0.2091 -0.6796
 2868SOL    HW1 9503   6.122   5.964   3.794 -0.7352  0.1643  1.0813
 2868SOL    HW2 9504   6.078   6.117   3.760 -0.5176 -0.1363 -0.6275
 2869SOL     OW 9505   4.240   3.717   6.834  0.0220 -0.5662  0.0209
 2869SOL    HW1 9506   4.233   3.817   6.834  0.5710 -0.5218 -0.3314
 2869SOL    HW2 9507   4.336   3.690   6.834 -0.1088 -1.0857 -0.8692
 2870SOL     OW 9508   1.164   0.788   1.556  0.2212  0.3070 -0.7069
 2870SOL    HW1 9509   1.116   0.773   1.470 -0.3349 -2.4026 -0.0294
 2870SOL    HW2 9510   1.126   0.728   1.626  2.9712 -0.2346  0.4759
 2871SOL     OW 9511   4.690   4.250   3.659 -0.8810 -0.1355  0.6338
 2871SOL    HW1 9512   4.763   4.262   3.592 -0.1990 -2.7458  0.7918
 2871SOL    HW2 9513   4.601   4.253   3.612 -0.7596  2.8662  0.4157
 2872SOL     OW 9514   2.340   0.480   1.633  0.3870 -0.0835 -0.1945
 2872SOL    HW1 9515   2.298   0.429   1.708 -0.5519  0.5187 -0.2862
 2872SOL    HW2 9516   2.420   0.530   1.666 -0.9344  1.4675  0.8213
 2873SOL     OW 9517   5.982   2.250   1.342 -0.0109  0.2249 -0.2607
 2873SOL    HW1 9518   5.930   2.260   1.427  1.6789 -0.9751  1.0012
 2873SOL    HW2 9519   5.952   2.168   1.294 -0.7040  0.6918 -0.6370
 2874SOL     OW 9520   1.857   0.437   0.988  0.0837 -0.2406 -0.5056
 2874SOL    HW1 9521   1.784   0.492   0.950  1.4639  0.7025 -1.8925
 2874SOL    HW2 9522   1.900   0.382   0.916  0.4883 -1.0873  0.3502
 2875SOL     OW 9523   3.274   1.479   3.857  0.5059  0.2601 -0.1781
 2875SOL    HW1 9524   3.366   1.449   3.833 -0.3319 -1.7241 -1.1132
 2875SOL    HW2 9525   3.280   1.552   3.925  2.7583  0.5721 -0.6223
 2876SOL     OW 9526   0.625   4.446   0.388  0.4426  0.0768  0.2087
 2876SOL    HW1 9527   0.643   4.475   0.294 -1.3570  1.2116  0.1473
 2876SOL    HW2 9528   0.668   4.510   0.452  1.0986 -0.3065  0.1551
 2877SOL     OW 9529   1.738   4.089   3.302  0.0589  0.2641 -0.2303
 2877SOL    HW1 9530   1.681   4.062   3.225 -1.2731  0.9025  0.5029
 2877SOL    HW2 9531   1.778   4.007   3.344 -0.1862 -0.1801 -0.8474
 2878SOL     OW 9532   3.488   3.850   4.958  0.1086  1.0947 -0.1795
 2878SOL    HW1 9533   3.397   3.810   4.945 -0.3883  1.9113  0.6208
 2878SOL    HW2 9534   3.541   3.840   4.875  0.0696 -1.3431  0.0266
 2879SOL     OW 9535   6.865   1.385   2.563  0.1878 -0.4136 -0.3984
 2879SOL    HW1 9536   6.788   1.324   2.544  0.6252 -1.4573  1.0566
 2879SOL    HW2 9537   6.948   1.346   2.524  0.3937 -0.5593  0.1739
 2880SOL     OW 9538   2.189   0.770   1.566 -0.7932  0.3853  0.6387
 2880SOL    HW1 9539   2.180   0.788   1.664  1.8806  1.3643  0.7842
 2880SOL    HW2 9540   2.187   0.856   1.516  1.6953  0.3043  0.2722
 2881SOL     OW 9541   4.672   5.904   0.674 -0.2691 -0.1537 -0.1411
 2881SOL    HW1 9542   4.698   5.873   0.765 -0.8887  1.6238  0.7016
 2881SOL    HW2 9543   4.655   6.003   0.677  0.8938  0.1734 -2.4753
 2882SOL     OW 9544   5.021   6.889   1.053 -0.3082  0.0085  0.1513
 2882SOL    HW1 9545   5.083   6.837   0.994  0.3765 -0.6322  1.4027
 2882SOL    HW2 9546   4.989   6.831   1.127 -1.4835  0.6863  0.1990
 2883SOL     OW 9547   4.415   5.775   2.947  0.3064  0.5228  0.3169
 2883SOL    HW1 9548   4.350   5.772   3.023 -0.2704 -0.3402 -0.1914
 2883SOL    HW2 9549   4.495   5.829   2.974  1.4990 -2.1724  2.6421
 2884SOL     OW 9550   6.125   5.927   4.085  0.2776  0.4877  0.0942
 2884SOL    HW1 9551   6.135   5.846   4.142  2.3366  0.6259 -0.0025
 2884SOL    HW2 9552   6.155   5.906   3.992  1.9771  1.6312  0.3457
 2885SOL     OW 9553   1.583   3.539   3.239 -0.3853  0.1285  0.0945
 2885SOL    HW1 9554   1.492   3.497   3.228 -0.7724  1.0893 -0.4673
 2885SOL    HW2 9555   1.591   3.617   3.178  0.0874  1.2948  1.5978
 2886SOL     OW 9556   6.670   5.124   4.364 -0.3755  0.5416 -0.2281
 2886SOL    HW1 9557   6.598   5.063   4.398 -1.5157  0.6645 -2.2617
 2886SOL    HW2 9558   6.757   5.100   4.406 -0.9281 -1.9611 -0.3602
 2887SOL     OW 9559   1.916   6.257   1.796 -0.4329  0.4660  0.3455
 2887SOL    HW1 9560   1.949   6.210   1.714  0.1027 -0.4935  1.0842
 2887SOL    HW2 9561   1.940   6.354   1.791  0.4050  0.2424 -0.2315
 2888SOL     OW 9562   4.567   5.874   1.081 -0.1175 -0.3964 -1.1456
 2888SOL    HW1 9563   4.512   5.889   1.163  1.4158 -0.4477 -0.0694
 2888SOL    HW2 9564   4.531   5.930   1.006 -0.7993  0.6130 -0.1037
 2889SOL     OW 9565   5.123   4.576   4.124 -0.3023 -0.4600  0.9394
 2889SOL    HW1 9566   5.162   4.486   4.140  0.9206 -0.3549 -1.1575
 2889SOL    HW2 9567   5.094   4.584   4.029  1.8111  2.1280  0.3975
 2890SOL     OW 9568   2.035   0.924   6.822  0.1229  0.2268 -0.0975
 2890SOL    HW1 9569   1.953   0.973   6.793  0.2869  0.1513 -0.7114
 2890SOL    HW2 9570   2.116   0.970   6.784  0.3510  0.1852  0.3354
 2891SOL     OW 9571   2.004   0.126   6.535  0.6443  0.4172  0.1366
 2891SOL    HW1 9572   1.950   0.134   6.451  1.5449  0.1444 -0.4913
 2891SOL    HW2 9573   2.067   0.203   6.542 -0.0912  0.9560  1.0787
 2892SOL     OW 9574   4.901   5.204   2.016 -0.0928  0.0250 -0.2642
 2892SOL    HW1 9575   4.968   5.133   2.040  1.5564  1.6051 -0.0298
 2892SOL    HW2 9576   4.940   5.265   1.948 -1.7281  0.3857 -0.9182
 2893SOL     OW 9577   6.204   6.574   3.967 -0.5779  0.1359 -0.5690
 2893SOL    HW1 9578   6.219   6.657   3.913  0.4351  0.5444  0.3034
 2893SOL    HW2 9579   6.260   6.500   3.930  2.1380  1.0724  1.3337
 2894SOL     OW 9580   1.911   5.403   2.488 -0.3803 -0.0157  0.3956
 2894SOL    HW1 9581   1.957   5.334   2.431  0.4077  0.5025  0.3803
 2894SOL    HW2 9582   1.952   5.493   2.471 -0.6697  0.2801  1.1975
 2895SOL     OW 9583   5.943   6.612   0.201 -0.0925  0.2375  0.1444
 2895SOL    HW1 9584   5.891   6.527   0.193 -1.5478  1.0441  0.6493
 2895SOL    HW2 9585   6.038   6.591   0.224 -0.5152 -1.2378  0.6420
 2896SOL     OW 9586   5.250   6.991   6.861  0.3033  0.3494 -0.2537
 2896SOL    HW1 9587   5.224   7.065   6.799  0.3974  0.5486 -0.0542
 2896SOL    HW2 9588   5.276   6.911   6.807 -1.3426 -0.0720 -0.4543
 2897SOL     OW 9589   1.194   5.409   1.286 -0.1251 -0.4244 -0.1463
 2897SOL    HW1 9590   1.196   5.399   1.187 -0.8007  0.2352 -0.2365
 2897SOL    HW2 9591   1.275   5.461   1.316  0.2465 -0.9020 -0.3111
 2898SOL     OW 9592   4.800   2.610   1.794 -0.0283  0.3615 -0.6163
 2898SOL    HW1 9593   4.883   2.581   1.842  0.1662  0.2337 -1.0248
 2898SOL    HW2 9594   4.802   2.574   1.701 -0.8691 -0.2337 -0.4194
 2899SOL     OW 9595   6.929   2.635   0.997  0.2537 -0.1780  0.2876
 2899SOL    HW1 9596   6.882   2.588   0.923 -0.2446  2.9152 -1.5204
 2899SOL    HW2 9597   7.027   2.641   0.976 -0.1090  2.0797 -1.0360
 2900SOL     OW 9598   2.951   3.289   4.002  0.0385 -0.5656 -0.6113
 2900SOL    HW1 9599   2.934   3.283   4.101 -0.7621  1.2623 -0.5988
 2900SOL    HW2 9600   3.031   3.346   3.986 -0.7684  0.4663 -1.0559
 2901SOL     OW 9601   0.088   2.747   2.313 -0.0907 -0.4065  0.1908
 2901SOL    HW1 9602   0.055   2.714   2.401  1.0682 -0.9117  0.4553
 2901SOL    HW2 9603   0.062   2.843   2.301 -2.1735 -0.9457  0.0833
 2902SOL     OW 9604   3.664   6.024   2.843 -0.0006  0.2755  0.0224
 2902SOL    HW1 9605   3.581   5.968   2.831 -0.1180  0.3042  0.6366
 2902SOL    HW2 9606   3.736   5.989   2.784 -0.1174 -0.4430  0.2927
 2903SOL     OW 9607   1.859   5.790   1.366 -0.3510 -0.7285  0.2607
 2903SOL    HW1 9608   1.848   5.877   1.318  0.5217 -1.2413 -0.8986
 2903SOL    HW2 9609   1.945   5.791   1.417  0.7616 -1.6663 -1.4908
 2904SOL     OW 9610   2.608   6.113   5.881 -0.6122 -0.5325 -0.0972
 2904SOL    HW1 9611   2.687   6.055   5.899 -0.9175 -1.2615 -1.0008
 2904SOL    HW2 9612   2.527   6.056   5.869 -1.1521  0.1661  0.1611
 2905SOL     OW 9613   2.333   5.100   1.171 -0.5959 -0.2734 -0.3847
 2905SOL    HW1 9614   2.421   5.074   1.131 -1.2677  0.0346 -2.1741
 2905SOL    HW2 9615   2.294   5.021   1.218  0.0030 -0.8371 -0.8081
 2906SOL     OW 9616   5.889   0.323   4.734 -0.2345  0.0414 -0.2502
 2906SOL    HW1 9617   5.809   0.382   4.721 -0.1136  0.0781 -0.8792
 2906SOL    HW2 9618   5.868   0.232   4.697 -0.5786 -0.4551  1.1073
 2907SOL     OW 9619   6.685   1.373   6.429 -0.5639  0.2261  0.0358
 2907SOL    HW1 9620   6.644   1.316   6.500  1.9465 -0.2670  1.2350
 2907SOL    HW2 9621   6.646   1.350   6.340 -2.3578 -0.5795  0.9875
 2908SOL     OW 9622   2.529   5.496   4.249 -0.2134 -0.1206  0.3296
 2908SOL    HW1 9623   2.531   5.506   4.150 -1.5597  2.4863  0.4868
 2908SOL    HW2 9624   2.591   5.563   4.291  0.5790 -1.3953  1.2918
 2909SOL     OW 9625   0.564   6.797   1.157 -0.3384  0.9907 -0.0781
 2909SOL    HW1 9626   0.487   6.816   1.218 -1.8943  0.0233 -1.6403
 2909SOL    HW2 9627   0.552   6.847   1.072 -0.2806 -0.6212 -1.0852
 2910SOL     OW 9628   0.807   6.917   4.734 -0.2361 -0.6418 -0.0093
 2910SOL    HW1 9629   0.871   6.906   4.658  0.9923 -0.2781  0.9554
 2910SOL    HW2 9630   0.827   6.850   4.805 -0.9750 -0.5722  0.2731
 2911SOL     OW 9631   0.213   5.372   3.479 -0.2146  0.1447  0.3158
 2911SOL    HW1 9632   0.146   5.375   3.405 -1.4074 -0.3271  1.3467
 2911SOL    HW2 9633   0.244   5.278   3.492  1.3151  0.4750 -0.7073
 2912SOL     OW 9634   0.704   1.102   2.197  0.1433  0.5548  0.3370
 2912SOL    HW1 9635   0.753   1.035   2.142  0.1443  0.3492  0.5912
 2912SOL    HW2 9636   0.693   1.187   2.144 -1.6054 -0.2920 -0.7733
 2913SOL     OW 9637   6.283   6.847   3.376  0.2620  0.3736 -0.1880
 2913SOL    HW1 9638   6.340   6.913   3.326  1.1597 -0.3518 -0.1461
 2913SOL    HW2 9639   6.330   6.759   3.380 -0.3457  0.0872  0.8986
 2914SOL     OW 9640   3.244   4.568   1.085  0.1179  0.0086  0.1953
 2914SOL    HW1 9641   3.317   4.511   1.047 -1.7891 -2.5780  0.0784
 2914SOL    HW2 9642   3.183   4.511   1.140 -1.7168  2.0794  0.4353
 2915SOL     OW 9643   1.472   7.010   2.733 -0.3893  0.2721 -0.1284
 2915SOL    HW1 9644   1.372   7.013   2.745 -0.3513  0.6143  0.1175
 2915SOL    HW2 9645   1.515   7.074   2.796 -0.1705  1.9780 -1.9096
 2916SOL     OW 9646   6.967   5.733   0.193 -0.4551 -0.0142  0.1538
 2916SOL    HW1 9647   6.922   5.722   0.104  0.2909 -2.7194  0.0243
 2916SOL    HW2 9648   7.058   5.771   0.180  0.3941 -2.1419 -0.5298
 2917SOL     OW 9649   2.321   1.623   3.527 -0.4303 -0.7859 -0.1749
 2917SOL    HW1 9650   2.327   1.686   3.604  0.5772 -0.5406 -0.4328
 2917SOL    HW2 9651   2.343   1.530   3.558  3.5269 -0.1939 -0.7242
 2918SOL     OW 9652   5.525   2.221   0.323  0.1763  0.4471 -0.4127
 2918SOL    HW1 9653   5.589   2.166   0.268  0.5913  1.9790 -1.5188
 2918SOL    HW2 9654   5.504   2.306   0.275 -0.6253  1.1829  1.1613
 2919SOL     OW 9655   0.768   6.670   5.517  0.2564  0.1257 -0.0513
 2919SOL    HW1 9656   0.839   6.686   5.585 -0.1432  0.3505  0.3213
 2919SOL    HW2 9657   0.806   6.681   5.426  0.6849  0.3024  0.1461
 2920SOL     OW 9658   1.506   2.844   2.926 -0.2555  0.2289 -0.0528
 2920SOL    HW1 9659   1.589   2.820   2.977 -0.2739  0.3970  0.0553
 2920SOL    HW2 9660   1.521   2.928   2.875 -0.6202  0.6899  0.5932
 2921SOL     OW 9661   0.185   2.950   3.380 -0.2725  0.2394  0.0495
 2921SOL    HW1 9662   0.218   3.002   3.459 -2.1001  0.0013  1.0112
 2921SOL    HW2 9663   0.090   2.975   3.360 -0.4251 -1.0126 -0.9552
 2922SOL     OW 9664   4.161   6.649   3.436  0.0882  0.1025 -0.1337
 2922SOL    HW1 9665   4.128   6.603   3.518  1.1142 -1.8654 -0.7521
 2922SOL    HW2 9666   4.084   6.667   3.374 -0.3327 -0.9516  0.0735
 2923SOL     OW 9667   1.856   4.823   3.185 -0.5355  0.7746 -0.1105
 2923SOL    HW1 9668   1.866   4.794   3.280 -0.7953  1.0758  0.0064
 2923SOL    HW2 9669   1.946   4.849   3.149 -0.1029 -1.0688 -0.5120
 2924SOL     OW 9670   4.063   1.405   6.448  0.1715 -0.1392 -0.3051
 2924SOL    HW1 9671   3.978   1.455   6.460  0.5147  0.4489 -0.2795
 2924SOL    HW2 9672   4.063   1.359   6.359  1.0314  2.2905 -1.6636
 2925SOL     OW 9673   0.086   6.798   4.618 -0.6962 -0.0695  0.0291
 2925SOL    HW1 9674   0.060   6.702   4.616 -0.7570 -0.1511  2.2727
 2925SOL    HW2 9675   0.147   6.818   4.542  0.1374 -2.1394  0.0964
 2926SOL     OW 9676   6.769   0.761   5.931 -0.7353  0.1942 -0.5914
 2926SOL    HW1 9677   6.726   0.815   5.859  1.9143  0.6382 -1.9730
 2926SOL    HW2 9678   6.851   0.716   5.895  0.6756  0.3744  2.0735
 2927SOL     OW 9679   1.346   1.280   2.635 -0.4138  0.0193  0.4785
 2927SOL    HW1 9680   1.312   1.373   2.635 -0.8658 -0.1415  0.8250
 2927SOL    HW2 9681   1.347   1.245   2.729 -2.9228 -1.2734  0.1081
 2928SOL     OW 9682   6.664   4.831   0.910  0.3427  0.6836 -0.3141
 2928SOL    HW1 9683   6.570   4.863   0.900 -0.0700 -0.4537 -0.1535
 2928SOL    HW2 9684   6.705   4.874   0.991 -0.8559 -0.6501  1.0704
 2929SOL     OW 9685   3.783   1.079   2.188  0.1355  0.0288  0.3981
 2929SOL    HW1 9686   3.757   1.088   2.284  1.6139 -3.3624  1.2654
 2929SOL    HW2 9687   3.701   1.060   2.134 -0.6290  1.3019  1.0501
 2930SOL     OW 9688   1.860   4.330   4.579  0.1102  0.0798  0.1420
 2930SOL    HW1 9689   1.926   4.275   4.529 -0.9300 -1.6592  0.5758
 2930SOL    HW2 9690   1.791   4.365   4.516  0.6812  0.7583 -0.1126
 2931SOL     OW 9691   5.444   4.982   5.035 -0.2901  0.1611  0.0094
 2931SOL    HW1 9692   5.435   4.924   5.116 -0.1172 -0.0853 -0.1497
 2931SOL    HW2 9693   5.504   5.060   5.057 -0.4308  0.2209  0.1865
 2932SOL     OW 9694   0.266   0.717   6.883 -0.4180  0.0801 -0.5388
 2932SOL    HW1 9695   0.187   0.655   6.888 -1.4768  1.4469  0.2601
 2932SOL    HW2 9696   0.292   0.746   6.975 -1.1267  2.2288 -0.9611
 2933SOL     OW 9697   6.269   1.480   0.913 -0.2615  0.1619 -0.3690
 2933SOL    HW1 9698   6.336   1.491   0.987  0.6354  0.8009 -1.2551
 2933SOL    HW2 9699   6.315   1.446   0.831 -0.7124  2.0534 -1.4512
 2934SOL     OW 9700   5.025   5.437   2.127 -0.4927 -0.1703  0.2892
 2934SOL    HW1 9701   4.965   5.391   2.062 -0.9244 -0.8740  1.1548
 2934SOL    HW2 9702   5.111   5.461   2.082 -0.0504 -2.2913 -0.0995
 2935SOL     OW 9703   1.218   4.239   5.720  0.1314  0.2720 -0.0673
 2935SOL    HW1 9704   1.145   4.245   5.652 -1.4271  2.2583  1.6530
 2935SOL    HW2 9705   1.299   4.198   5.678 -1.4406 -0.6002 -2.4734
 2936SOL     OW 9706   6.729   0.451   2.288  0.3803 -0.2290 -0.3988
 2936SOL    HW1 9707   6.732   0.550   2.298 -1.9243 -0.2663  1.8670
 2936SOL    HW2 9708   6.820   0.417   2.266  1.4871  2.2906 -0.0793
 2937SOL     OW 9709   6.967   3.720   5.584 -0.2220 -0.6022 -0.4525
 2937SOL    HW1 9710   7.042   3.683   5.639  0.4115  1.3339  0.0665
 2937SOL    HW2 9711   6.957   3.667   5.500  0.7249 -1.8152  0.1778
 2938SOL     OW 9712   5.352   4.465   0.916  0.3733  0.1346 -0.6262
 2938SOL    HW1 9713   5.324   4.560   0.899 -1.0558 -0.3808 -1.2456
 2938SOL    HW2 9714   5.396   4.460   1.006 -1.6894  0.9865  0.4989
 2939SOL     OW 9715   4.970   0.404   3.035  0.0699  0.5859  0.5281
 2939SOL    HW1 9716   5.054   0.451   3.060 -1.0633  2.5788  0.7665
 2939SOL    HW2 9717   4.916   0.384   3.117 -0.7843  1.5298  0.2239
 2940SOL     OW 9718   5.642   6.495   1.578  0.5934  0.4186  0.8022
 2940SOL    HW1 9719   5.587   6.451   1.649  1.3046 -0.2821  0.9343
 2940SOL    HW2 9720   5.709   6.430   1.544  0.9906  1.1025  0.2690
 2941SOL     OW 9721   3.875   4.198   0.447  0.0500  0.0656  0.0701
 2941SOL    HW1 9722   3.931   4.232   0.522  1.0318 -2.1033  0.3970
 2941SOL    HW2 9723   3.786   4.169   0.481 -0.5063  1.4963 -0.0889
 2942SOL     OW 9724   2.442   2.970   1.412  0.3007  0.6523  0.4333
 2942SOL    HW1 9725   2.423   2.902   1.482  0.2198 -0.1519 -0.3433
 2942SOL    HW2 9726   2.524   2.942   1.360 -0.6858  0.2482 -0.9689
 2943SOL     OW 9727   5.442   4.497   5.070 -0.4855  0.4004  0.4540
 2943SOL    HW1 9728   5.373   4.432   5.101  1.8772 -2.9475 -0.6901
 2943SOL    HW2 9729   5.411   4.541   4.986 -1.1836 -1.2413 -0.1919
 2944SOL     OW 9730   0.077   5.500   3.274  0.7396  0.1990  0.1345
 2944SOL    HW1 9731   0.089   5.600   3.281  0.6723  0.3621 -1.5627
 2944SOL    HW2 9732  -0.015   5.475   3.303 -0.3049  1.0580 -2.1345
 2945SOL     OW 9733   6.864   4.668   6.369 -0.4468 -0.6693  0.2731
 2945SOL    HW1 9734   6.772   4.637   6.396 -0.2515 -0.2058  1.5814
 2945SOL    HW2 9735   6.863   4.699   6.274 -1.9305  0.3747  0.5905
 2946SOL     OW 9736   2.874   3.577   4.002  0.8181  0.5121  0.5182
 2946SOL    HW1 9737   2.900   3.481   3.995 -0.7221  0.1018  0.1745
 2946SOL    HW2 9738   2.860   3.615   3.911 -1.5931  0.1651  0.6733
 2947SOL     OW 9739   6.647   0.922   2.504  0.1024  0.2749 -0.0619
 2947SOL    HW1 9740   6.571   0.951   2.562 -0.6477  3.2792 -2.2611
 2947SOL    HW2 9741   6.721   0.989   2.510  0.9495 -0.5571 -0.8474
 2948SOL     OW 9742   5.199   4.363   6.694 -0.6464  0.2315 -0.2466
 2948SOL    HW1 9743   5.145   4.358   6.611  0.6706 -1.7116 -1.0464
 2948SOL    HW2 9744   5.138   4.370   6.773 -1.9588  0.3929 -1.2393
 2949SOL     OW 9745   0.746   5.823   1.534 -0.3238 -0.8581 -0.4971
 2949SOL    HW1 9746   0.792   5.768   1.463  1.0603 -2.2596  1.3846
 2949SOL    HW2 9747   0.749   5.774   1.621 -0.3146  1.6185  0.9798
 2950SOL     OW 9748   5.516   3.340   4.011  0.4098 -0.4803  0.1059
 2950SOL    HW1 9749   5.477   3.301   3.928 -1.1029 -0.1846  0.6393
 2950SOL    HW2 9750   5.485   3.435   4.021  0.0576 -0.6965  1.2916
 2951SOL     OW 9751   2.393   3.366   1.133 -0.4051 -0.0807 -0.0231
 2951SOL    HW1 9752   2.422   3.363   1.229  0.7194 -0.5561 -0.3504
 2951SOL    HW2 9753   2.418   3.455   1.094 -0.5355 -0.0186  0.0368
 2952SOL     OW 9754   2.662   2.326   3.861  0.2145 -0.2332 -0.2187
 2952SOL    HW1 9755   2.583   2.359   3.912  0.2100 -0.2046 -0.2448
 2952SOL    HW2 9756   2.631   2.269   3.785  0.2603 -1.8635  0.9240
 2953SOL     OW 9757   1.993   7.006   1.842  0.3810  0.0559 -0.2372
 2953SOL    HW1 9758   2.023   6.935   1.778  1.4272  0.7729 -0.5544
 2953SOL    HW2 9759   1.905   6.979   1.882  1.4219 -2.0936  0.7296
 2954SOL     OW 9760   5.337   4.681   6.050 -0.1414 -0.2982  0.3162
 2954SOL    HW1 9761   5.290   4.593   6.049 -0.1034 -0.3178 -0.7168
 2954SOL    HW2 9762   5.435   4.667   6.032 -0.1397 -0.0497  0.1250
 2955SOL     OW 9763   0.934   4.726   4.692  0.7139  0.8190  0.0743
 2955SOL    HW1 9764   0.875   4.680   4.757 -0.5770 -0.0310 -1.6160
 2955SOL    HW2 9765   0.886   4.805   4.653  1.3392  1.1327 -0.0808
 2956SOL     OW 9766   5.852   5.162   6.431 -0.3558 -0.0081 -0.0839
 2956SOL    HW1 9767   5.849   5.194   6.336  1.8861 -1.0323 -0.5845
 2956SOL    HW2 9768   5.760   5.145   6.464 -1.1926  0.4369 -2.0518
 2957SOL     OW 9769   1.700   3.566   0.940  0.1560  0.3981 -0.0647
 2957SOL    HW1 9770   1.656   3.633   0.881 -1.3965 -1.2497 -0.8834
 2957SOL    HW2 9771   1.755   3.503   0.884  1.3077  0.7555  0.6420
 2958SOL     OW 9772   1.336   3.523   0.389 -0.1286 -0.0694  0.3364
 2958SOL    HW1 9773   1.273   3.575   0.447  0.4467  1.5035 -0.4122
 2958SOL    HW2 9774   1.362   3.577   0.310  1.8221 -0.8380  0.3857
 2959SOL     OW 9775   6.875   4.536   4.575 -0.4199 -0.5322  0.2416
 2959SOL    HW1 9776   6.814   4.604   4.536 -1.5761  0.1802  3.0701
 2959SOL    HW2 9777   6.886   4.461   4.510  0.0377  1.7653 -2.5239
 2960SOL     OW 9778   0.376   5.265   6.945  0.1730  0.0703 -0.0144
 2960SOL    HW1 9779   0.339   5.266   7.038 -0.4243  1.9901 -0.2441
 2960SOL    HW2 9780   0.380   5.170   6.913 -1.7443 -0.4538  1.1246
 2961SOL     OW 9781   5.798   1.646   1.074  0.4637 -0.2879 -0.7440
 2961SOL    HW1 9782   5.791   1.552   1.042 -1.5640 -0.5591  0.3122
 2961SOL    HW2 9783   5.802   1.648   1.174 -1.5983  0.7780 -0.6323
 2962SOL     OW 9784   5.900   0.382   5.050  0.2789  0.3434 -0.2109
 2962SOL    HW1 9785   5.845   0.303   5.077 -0.0571  0.1740 -1.3382
 2962SOL    HW2 9786   5.871   0.413   4.959  0.9060  1.3064 -0.0912
 2963SOL     OW 9787   1.875   0.653   5.796 -0.3380  0.3357  0.1896
 2963SOL    HW1 9788   1.790   0.682   5.752 -0.6497 -4.2500 -2.8982
 2963SOL    HW2 9789   1.854   0.610   5.884 -0.9989  0.4546  0.0958
 2964SOL     OW 9790   0.398   0.780   0.100  0.1182 -0.4882  0.5048
 2964SOL    HW1 9791   0.364   0.728   0.178  1.9075 -0.1439  1.5787
 2964SOL    HW2 9792   0.496   0.763   0.088 -0.1408 -0.6989 -1.8422
 2965SOL     OW 9793   6.513   0.383   6.644 -0.4520 -0.3368 -0.3872
 2965SOL    HW1 9794   6.436   0.446   6.657 -0.7524 -0.7923  0.0550
 2965SOL    HW2 9795   6.528   0.332   6.728  0.1076 -0.5085 -0.5911
 2966SOL     OW 9796   3.020   0.269   3.473  0.5917 -0.9494  0.3628
 2966SOL    HW1 9797   2.936   0.217   3.459 -0.0089 -0.3811  1.6596
 2966SOL    HW2 9798   3.051   0.308   3.387 -0.7259 -0.7876 -0.0584
 2967SOL     OW 9799   3.179   6.162   4.894  0.2469 -0.3115 -0.1140
 2967SOL    HW1 9800   3.139   6.154   4.803  0.5819 -1.6229 -0.1616
 2967SOL    HW2 9801   3.115   6.125   4.962  0.9559 -1.5155 -0.0843
 2968SOL     OW 9802   1.415   3.126   2.865 -0.6309  0.5232 -0.1146
 2968SOL    HW1 9803   1.483   3.186   2.907  0.5273 -0.9932  0.2556
 2968SOL    HW2 9804   1.359   3.084   2.936 -0.6137  0.2151 -0.2796
 2969SOL     OW 9805   5.220   1.491   5.264 -0.1740 -0.4763  0.0072
 2969SOL    HW1 9806   5.185   1.536   5.181  0.8434 -0.7128 -0.5694
 2969SOL    HW2 9807   5.148   1.489   5.333 -0.2356  2.1502  0.1245
 2970SOL     OW 9808   1.908   3.828   5.122  0.2087 -0.2317 -0.3619
 2970SOL    HW1 9809   1.928   3.897   5.052  1.5780  1.2056  1.3274
 2970SOL    HW2 9810   1.955   3.743   5.099  1.6924  0.6150 -0.5886
 2971SOL     OW 9811   4.739   2.912   5.717 -0.2079  0.3199  0.3789
 2971SOL    HW1 9812   4.772   2.825   5.682  0.5783  0.7177  0.0835
 2971SOL    HW2 9813   4.815   2.977   5.719 -0.4619  0.6003  1.8851
 2972SOL     OW 9814   0.813   4.601   6.736  0.0678 -0.1191 -0.1402
 2972SOL    HW1 9815   0.731   4.657   6.729  0.7177  0.8772 -0.0525
 2972SOL    HW2 9816   0.884   4.652   6.785 -0.0704 -1.9193  2.1160
 2973SOL     OW 9817   5.088   0.267   3.287 -0.1841  0.6964 -0.0927
 2973SOL    HW1 9818   5.154   0.308   3.224 -0.9503  0.7736 -0.8728
 2973SOL    HW2 9819   5.133   0.242   3.372  1.1611 -0.5465 -1.1185
 2974SOL     OW 9820   5.513   4.954   3.288 -0.4053  0.6247 -0.2583
 2974SOL    HW1 9821   5.608   4.935   3.265 -0.6473 -3.1910  1.1113
 2974SOL    HW2 9822   5.459   4.963   3.204  0.4905 -1.6761 -1.1595
 2975SOL     OW 9823   5.909   3.326   5.658  0.2069  0.3323  0.4539
 2975SOL    HW1 9824   5.906   3.379   5.574 -0.9992  0.5751  0.6350
 2975SOL    HW2 9825   5.881   3.383   5.735  1.0659  0.0473  0.9955
 2976SOL     OW 9826   3.956   0.621   2.888 -0.1033 -0.2232  0.5333
 2976SOL    HW1 9827   3.876   0.679   2.900 -0.7096 -0.8902 -0.2150
 2976SOL    HW2 9828   3.938   0.552   2.818  0.8900 -0.8052  0.8251
 2977SOL     OW 9829   0.925   0.675   6.771 -0.3977 -1.0485 -0.2704
 2977SOL    HW1 9830   0.927   0.677   6.871  0.3489  0.6813 -0.2764
 2977SOL    HW2 9831   0.962   0.761   6.736 -2.0245 -1.0124 -2.0312
 2978SOL     OW 9832   3.738   6.228   6.580  0.4292 -0.1425  0.4889
 2978SOL    HW1 9833   3.675   6.306   6.582  0.3987 -0.0208 -2.1899
 2978SOL    HW2 9834   3.706   6.161   6.513  2.9070 -0.2909 -0.6430
 2979SOL     OW 9835   2.425   2.123   5.824  0.1175 -0.1666  0.0172
 2979SOL    HW1 9836   2.519   2.119   5.789  0.7748  0.2524  1.6040
 2979SOL    HW2 9837   2.367   2.061   5.771  1.1933 -0.1476 -1.2493
 2980SOL     OW 9838   3.650   2.497   1.700  0.3710  0.0435  0.0488
 2980SOL    HW1 9839   3.680   2.430   1.767  2.0384  0.7030  0.0346
 2980SOL    HW2 9840   3.551   2.510   1.706  0.4995  0.2971  2.5763
 2981SOL     OW 9841   4.120   0.914   0.878  0.7285 -0.2266 -0.8817
 2981SOL    HW1 9842   4.066   0.849   0.931 -0.0458  0.3130 -0.9745
 2981SOL    HW2 9843   4.059   0.985   0.841  1.3881 -0.0556 -1.6830
 2982SOL     OW 9844   2.057   1.498   1.324 -0.0565  0.4259 -0.1114
 2982SOL    HW1 9845   2.055   1.579   1.266  1.2554  0.4616 -0.1488
 2982SOL    HW2 9846   1.990   1.431   1.292  0.6438  0.4392 -1.6988
 2983SOL     OW 9847   1.903   3.811   0.577  0.5755 -0.0954 -0.3026
 2983SOL    HW1 9848   1.901   3.907   0.605 -1.6154 -0.7216  2.0335
 2983SOL    HW2 9849   1.958   3.758   0.642 -0.6103 -0.8471  0.1181
 2984SOL     OW 9850   0.642   5.800   2.106 -0.6751 -0.2319 -0.0372
 2984SOL    HW1 9851   0.612   5.891   2.077 -1.3079 -0.1719  0.7933
 2984SOL    HW2 9852   0.562   5.744   2.127 -0.2511 -0.1603  1.9496
 2985SOL     OW 9853   1.976   5.962   6.411  0.2191  0.2309  0.1866
 2985SOL    HW1 9854   1.975   5.871   6.452 -1.2825  1.1193  2.2781
 2985SOL    HW2 9855   1.918   5.962   6.329 -0.0412 -0.6063  0.3634
 2986SOL     OW 9856   3.468   4.096   2.334 -1.0174 -0.4016  0.0966
 2986SOL    HW1 9857   3.527   4.104   2.414 -0.1625 -1.9552 -0.3525
 2986SOL    HW2 9858   3.463   4.185   2.287 -1.3585  0.4660  1.7182
 2987SOL     OW 9859   2.011   6.582   5.599  0.0767  0.1699  0.5000
 2987SOL    HW1 9860   1.959   6.514   5.649 -3.3977  3.3859  1.7415
 2987SOL    HW2 9861   1.975   6.589   5.505  1.1691 -0.4244  0.0264
 2988SOL     OW 9862   6.580   1.224   0.429  0.4472  0.3350  0.7652
 2988SOL    HW1 9863   6.535   1.152   0.482  1.1680 -0.8783 -0.2276
 2988SOL    HW2 9864   6.631   1.184   0.354  0.1470  1.9522 -0.3666
 2989SOL     OW 9865   6.233   4.897   6.839  0.0184 -0.1361 -0.9775
 2989SOL    HW1 9866   6.191   4.833   6.775 -1.7751  2.0566 -2.1725
 2989SOL    HW2 9867   6.177   4.980   6.843  2.1597  1.3264  0.5530
 2990SOL     OW 9868   3.698   6.853   6.439  0.3924  0.0546  0.8379
 2990SOL    HW1 9869   3.720   6.903   6.356 -1.1752 -0.7956 -0.1450
 2990SOL    HW2 9870   3.676   6.758   6.416 -1.6352  0.1941  1.9941
 2991SOL     OW 9871   0.776   1.853   6.147 -0.2552 -0.6413 -0.3284
 2991SOL    HW1 9872   0.864   1.874   6.191 -0.2829  0.0046 -0.5574
 2991SOL    HW2 9873   0.705   1.842   6.217 -0.5128  1.3902 -0.2086
 2992SOL     OW 9874   2.604   4.839   4.371  0.3662  0.6375 -0.1940
 2992SOL    HW1 9875   2.577   4.842   4.467 -0.1487 -0.6932 -0.2724
 2992SOL    HW2 9876   2.701   4.816   4.364 -0.0513 -1.3532  0.0063
 2993SOL     OW 9877   5.219   5.813   0.462 -0.7520  0.1838  0.2371
 2993SOL    HW1 9878   5.300   5.844   0.412 -0.8616  1.5239  0.8623
 2993SOL    HW2 9879   5.151   5.780   0.397 -0.1813  0.1777 -0.3724
 2994SOL     OW 9880   3.320   5.505   5.032 -0.3602 -0.3509  0.1749
 2994SOL    HW1 9881   3.360   5.593   5.059 -0.4105 -0.6363  1.2453
 2994SOL    HW2 9882   3.229   5.496   5.073 -1.0801 -0.1906 -1.3239
 2995SOL     OW 9883   5.744   6.576   2.339 -0.3953 -0.0573  0.1176
 2995SOL    HW1 9884   5.730   6.675   2.338  0.0447  0.0053 -0.7543
 2995SOL    HW2 9885   5.730   6.540   2.246  2.3245 -0.3902 -0.2300
 2996SOL     OW 9886   6.971   0.974   3.699  0.1076 -0.8681  0.5727
 2996SOL    HW1 9887   7.061   0.951   3.661 -0.0537  0.2140 -0.5237
 2996SOL    HW2 9888   6.973   0.962   3.798  0.6510 -3.4530  0.3337
 2997SOL     OW 9889   6.565   6.908   2.807  0.0318 -0.5587 -0.1644
 2997SOL    HW1 9890   6.648   6.862   2.776 -0.1606 -2.0710  1.3498
 2997SOL    HW2 9891   6.568   7.005   2.782  1.4160 -0.9596 -1.6837
 2998SOL     OW 9892   0.782   0.383   1.874  0.2319  0.0582  0.3474
 2998SOL    HW1 9893   0.792   0.481   1.887 -1.0612  0.4271 -1.1092
 2998SOL    HW2 9894   0.763   0.339   1.962 -0.1910  1.2580  0.8725
 2999SOL     OW 9895   3.416   0.798   6.805 -0.0007 -0.2903  0.2873
 2999SOL    HW1 9896   3.404   0.842   6.716 -1.2350  1.6225  1.3409
 2999SOL    HW2 9897   3.395   0.701   6.797  0.7296 -0.3311 -1.6646
 3000SOL     OW 9898   1.208   3.549   5.991 -0.2323 -0.1185 -0.2918
 3000SOL    HW1 9899   1.141   3.587   6.055 -0.2340 -1.1292  0.3282
 3000SOL    HW2 9900   1.298   3.547   6.035  0.5749  2.5026 -1.5674
 3001SOL     OW 9901   2.101   0.935   6.507 -0.2088 -0.1453  0.2055
 3001SOL    HW1 9902   2.174   0.943   6.574 -0.6390 -1.0629  0.8107
 3001SOL    HW2 9903   2.092   1.020   6.456  0.0791  0.5913  1.3616
 3002SOL     OW 9904   3.099   3.747   6.006  0.0186  0.1269  0.1654
 3002SOL    HW1 9905   3.047   3.831   5.994  0.0165  0.4106  1.9428
 3002SOL    HW2 9906   3.135   3.717   5.917  1.0757  2.6537 -0.3560
 3003SOL     OW 9907   6.904   5.999   1.369 -0.3449  0.0534  0.1178
 3003SOL    HW1 9908   6.961   6.060   1.314 -1.5726  0.3334 -0.8646
 3003SOL    HW2 9909   6.815   5.988   1.326 -0.8239 -0.8956  1.3014
 3004SOL     OW 9910   5.450   1.382   4.571 -0.2873 -0.3423 -0.1752
 3004SOL    HW1 9911   5.382   1.438   4.524 -1.0536 -0.9533  0.1813
 3004SOL    HW2 9912   5.540   1.396   4.529 -0.5607  0.7356 -0.4302
 3005SOL     OW 9913   1.705   0.581   0.798  0.3409 -0.1876 -0.0014
 3005SOL    HW1 9914   1.633   0.620   0.855  0.9658 -2.2694  2.3598
 3005SOL    HW2 9915   1.766   0.654   0.767 -1.5639  1.3345 -0.3731
 3006SOL     OW 9916   3.974   1.685   0.290 -0.1739  0.1378  1.0311
 3006SOL    HW1 9917   3.886   1.700   0.336 -0.6864  0.0311  0.1036
 3006SOL    HW2 9918   3.958   1.664   0.194  0.9057  0.7630  0.7022
 3007SOL     OW 9919   6.517   5.339   6.445 -0.1869 -0.2398  0.7824
 3007SOL    HW1 9920   6.418   5.328   6.438 -0.0118 -1.8984  0.3639
 3007SOL    HW2 9921   6.561   5.288   6.371  0.9637  1.0877  0.5238
 3008SOL     OW 9922   4.530   2.578   5.033 -0.2173  0.0129  0.2103
 3008SOL    HW1 9923   4.431   2.568   5.044 -0.5126  1.6196 -0.6850
 3008SOL    HW2 9924   4.561   2.661   5.080  0.8086 -0.7467  0.9223
 3009SOL     OW 9925   4.871   4.009   2.068 -0.6923  0.6540 -0.4750
 3009SOL    HW1 9926   4.937   3.935   2.080  0.2822  1.7534  1.3536
 3009SOL    HW2 9927   4.860   4.028   1.970 -0.6077 -1.5219 -0.9683
 3010SOL     OW 9928   5.096   4.231   0.637 -0.1717 -0.2839  0.2704
 3010SOL    HW1 9929   5.008   4.251   0.679 -0.4357  3.1362 -1.6055
 3010SOL    HW2 9930   5.082   4.185   0.550 -0.0584 -0.3674  0.2959
 3011SOL     OW 9931   5.930   0.569   0.468  0.5861  0.4584 -0.4683
 3011SOL    HW1 9932   5.913   0.474   0.494 -1.2211  1.3768  2.0716
 3011SOL    HW2 9933   5.971   0.617   0.545  0.4421  2.0044 -1.3322
 3012SOL     OW 9934   1.157   1.842   3.804  0.3044  0.5759 -0.0104
 3012SOL    HW1 9935   1.156   1.758   3.750  0.1352  0.6757 -0.1665
 3012SOL    HW2 9936   1.063   1.874   3.817  0.4504  1.7764 -1.5839
 3013SOL     OW 9937   1.547   5.373   6.738  0.0229  0.0768 -0.5023
 3013SOL    HW1 9938   1.471   5.312   6.716 -1.8347  1.8813  0.4706
 3013SOL    HW2 9939   1.515   5.468   6.737  2.5598  1.0217 -1.0719
 3014SOL     OW 9940   3.088   6.862   1.791  0.8737 -0.5532 -0.3991
 3014SOL    HW1 9941   3.094   6.916   1.875  0.3834  0.2266 -0.8622
 3014SOL    HW2 9942   3.106   6.766   1.813 -1.3316 -0.7244  0.9927
 3015SOL     OW 9943   1.366   0.402   5.808 -0.2445  0.2335  0.0280
 3015SOL    HW1 9944   1.323   0.486   5.841 -1.3969 -0.3136 -0.0308
 3015SOL    HW2 9945   1.302   0.352   5.750  0.7895 -0.1835 -0.7912
 3016SOL     OW 9946   4.945   1.756   6.248  0.2375  0.1324  0.0500
 3016SOL    HW1 9947   4.936   1.735   6.346 -0.1514 -2.5915 -0.4794
 3016SOL    HW2 9948   5.001   1.685   6.205  0.4418  1.3222 -1.7265
 3017SOL     OW 9949   2.795   0.146   5.353 -0.3852  0.6063 -0.1624
 3017SOL    HW1 9950   2.821   0.226   5.299  1.4285  0.1915  0.0115
 3017SOL    HW2 9951   2.829   0.156   5.446 -2.6648  0.8830  0.6866
 3018SOL     OW 9952   2.847   2.932   0.820  0.2467  0.3134  0.4820
 3018SOL    HW1 9953   2.818   2.852   0.768 -1.4853  0.6780  0.8525
 3018SOL    HW2 9954   2.947   2.935   0.822  0.3533 -1.5386  0.0205
 3019SOL     OW 9955   2.970   1.295   4.476 -0.2196  1.0020 -0.0976
 3019SOL    HW1 9956   2.982   1.224   4.545 -0.7048  1.1220  0.1126
 3019SOL    HW2 9957   3.031   1.372   4.496  0.6733  0.4512 -0.6034
 3020SOL     OW 9958   3.950   5.463   0.307  0.1662 -0.0425  0.1461
 3020SOL    HW1 9959   3.917   5.370   0.294  0.7092 -0.0769 -1.1201
 3020SOL    HW2 9960   4.005   5.467   0.391  1.0034 -1.1207 -0.3172
 3021SOL     OW 9961   4.838   6.249   4.609  1.0218  0.2589 -0.2287
 3021SOL    HW1 9962   4.784   6.265   4.526  1.2255  0.5580 -0.3079
 3021SOL    HW2 9963   4.927   6.294   4.599  0.5718  1.3928  0.6713
 3022SOL     OW 9964   3.566   1.679   3.024 -0.0261 -0.1124 -0.1702
 3022SOL    HW1 9965   3.581   1.695   3.122  0.5245  0.5033 -0.3423
 3022SOL    HW2 9966   3.471   1.654   3.008 -0.3615  0.7335  0.4200
 3023SOL     OW 9967   0.257   1.637   4.732  0.1782 -0.1399 -0.4504
 3023SOL    HW1 9968   0.293   1.573   4.665  1.7575  0.6332 -0.3840
 3023SOL    HW2 9969   0.313   1.634   4.815  1.1693  2.2503 -0.9444
 3024SOL     OW 9970   0.985   2.878   6.629  0.0161 -0.3821  0.2222
 3024SOL    HW1 9971   0.957   2.955   6.571  0.3876 -1.8114 -2.0090
 3024SOL    HW2 9972   1.062   2.905   6.686  1.4789  0.4075 -1.9753
 3025SOL     OW 9973   4.911   6.870   1.944  0.0158  1.0290  0.0411
 3025SOL    HW1 9974   4.922   6.905   1.851 -0.4948  0.3147 -0.2977
 3025SOL    HW2 9975   4.838   6.921   1.990 -0.6004  0.5595 -0.3896
 3026SOL     OW 9976   1.838   4.756   3.766 -0.4165  0.1471  0.1834
 3026SOL    HW1 9977   1.873   4.789   3.854 -0.2522  3.0483 -0.8539
 3026SOL    HW2 9978   1.894   4.680   3.734 -0.6646 -1.1766  2.6606
 3027SOL     OW 9979   4.714   0.535   6.986 -0.4398  0.1270  0.2762
 3027SOL    HW1 9980   4.681   0.626   6.959 -0.0608 -0.2896 -1.7448
 3027SOL    HW2 9981   4.638   0.483   7.025 -1.5434  0.1697 -1.6848
 3028SOL     OW 9982   3.713   3.707   1.793  0.5131 -0.0702  0.2580
 3028SOL    HW1 9983   3.678   3.618   1.764  0.9258  0.0301 -0.5406
 3028SOL    HW2 9984   3.764   3.696   1.879 -1.8271 -0.1575  1.7468
 3029SOL     OW 9985   1.134   3.377   5.301  0.4155  0.2085  0.6402
 3029SOL    HW1 9986   1.176   3.418   5.220 -0.6531 -1.0569 -0.6309
 3029SOL    HW2 9987   1.130   3.278   5.289 -0.6292  0.0792  1.8322
 3030SOL     OW 9988   6.810   4.901   5.381  0.2687  0.1710  0.0304
 3030SOL    HW1 9989   6.771   4.812   5.356 -0.7675  0.7597 -0.5315
 3030SOL    HW2 9990   6.887   4.887   5.443 -0.7862 -1.0710  1.1413
 3031SOL     OW 9991   5.578   3.382   0.633  0.5183 -0.2982  0.2391
 3031SOL    HW1 9992   5.606   3.477   0.620 -0.8156  0.2379  1.1233
 3031SOL    HW2 9993   5.644   3.321   0.588  0.2103  1.1241 -2.3327
 3032SOL     OW 9994   2.213   7.007   2.022  0.0390  0.5012  0.2712
 3032SOL    HW1 9995   2.121   6.991   1.985  0.8726 -0.7977 -1.3729
 3032SOL    HW2 9996   2.271   7.046   1.951  0.8583  0.9887  1.1957
 3033SOL     OW 9997   2.658   0.657   5.912  0.1747 -0.2218 -0.8201
 3033SOL    HW1 9998   2.728   0.601   5.868  0.5238 -0.5205  0.1108
 3033SOL    HW2 9999   2.589   0.599   5.955  1.1094 -0.0010  1.0827
 3034SOL     OW10000   5.533   3.903   3.526 -0.2660  0.0501  0.2167
 3034SOL    HW110001   5.503   3.813   3.556  0.6745 -0.5230 -0.5189
 3034SOL    HW210002   5.496   3.922   3.435 -0.0684  0.2034  0.1666
 3035SOL     OW10003   5.541   5.721   0.542 -0.3329  0.2106  0.2972
 3035SOL    HW110004   5.568   5.773   0.461  3.3431 -0.9164  0.6074
 3035SOL    HW210005   5.612   5.729   0.612 -1.1594 -2.5663  1.6158
 3036SOL     OW10006   2.300   3.159   6.224  0.3792 -0.3221  0.3001
 3036SOL    HW110007   2.303   3.216   6.142  0.4470 -1.0771 -0.2351
 3036SOL    HW210008   2.393   3.133   6.250  0.3014 -0.7981  0.1054
 3037SOL     OW10009   6.408   6.173   6.083 -0.2613 -0.2213 -0.1513
 3037SOL    HW110010   6.431   6.170   5.986  0.2733  1.2659 -0.1018
 3037SOL    HW210011   6.426   6.084   6.124  0.5749 -0.5576 -1.1916
 3038SOL     OW10012   5.137   7.022   4.649 -0.1600  0.0693 -0.0368
 3038SOL    HW110013   5.066   7.007   4.580  0.9097 -1.0490 -0.9345
 3038SOL    HW210014   5.119   6.964   4.728  1.1420 -2.3332 -1.3720
 3039SOL     OW10015   6.553   4.190   0.504  0.3418 -0.0714  0.0289
 3039SOL    HW110016   6.487   4.116   0.492  0.6812 -0.2185 -0.9681
 3039SOL    HW210017   6.627   4.180   0.438  1.2457  0.2321  0.9751
 3040SOL     OW10018   3.479   0.451   6.179 -0.4734 -0.2110 -0.1703
 3040SOL    HW110019   3.401   0.513   6.191  1.4498  2.6567 -1.4927
 3040SOL    HW210020   3.515   0.426   6.269 -1.5671  0.2187  0.4110
 3041SOL     OW10021   0.359   5.236   4.917  0.4692  0.2361  0.5710
 3041SOL    HW110022   0.307   5.158   4.952  1.1437 -0.0011  1.0513
 3041SOL    HW210023   0.297   5.296   4.865  0.1308 -1.0712 -0.5896
 3042SOL     OW10024   0.589   0.052   5.213  0.3020  0.0484  0.4179
 3042SOL    HW110025   0.582   0.039   5.114  2.8335  1.6980 -0.0654
 3042SOL    HW210026   0.665   0.113   5.233  0.0258 -0.4620  3.4347
 3043SOL     OW10027   2.221   4.244   6.801 -0.5048  0.1102  0.4260
 3043SOL    HW110028   2.145   4.309   6.791 -1.4251 -1.1768 -1.5169
 3043SOL    HW210029   2.193   4.170   6.862 -1.1126 -0.7305 -0.8412
 3044SOL     OW10030   3.189   3.084   4.285  0.3615 -0.6917  0.0211
 3044SOL    HW110031   3.211   3.172   4.244 -0.0330 -1.6282 -2.3626
 3044SOL    HW210032   3.136   3.099   4.369 -1.1439  1.3499 -1.1892
 3045SOL     OW10033   4.942   1.953   2.252  0.1816  0.2885  0.6992
 3045SOL    HW110034   5.009   2.001   2.309  0.5622  1.8308 -0.9615
 3045SOL    HW210035   4.875   2.018   2.218 -0.4414 -0.7211 -0.0575
 3046SOL     OW10036   5.785   3.196   0.574 -0.2184  0.1934  0.0144
 3046SOL    HW110037   5.723   3.121   0.551  0.1333 -0.3690  0.8211
 3046SOL    HW210038   5.870   3.158   0.611  0.4907  0.9631 -0.7943
 3047SOL     OW10039   3.167   6.480   3.973  0.0089  0.2833 -0.0602
 3047SOL    HW110040   3.224   6.529   3.907 -2.0054  0.9417 -1.4222
 3047SOL    HW210041   3.177   6.381   3.959  0.3089  0.4048 -0.7485
 3048SOL     OW10042   3.704   3.550   2.833 -0.0328 -0.4705 -0.2439
 3048SOL    HW110043   3.643   3.509   2.901 -2.1141  1.6909 -0.6631
 3048SOL    HW210044   3.726   3.644   2.859 -2.2560  1.0445 -3.1745
 3049SOL     OW10045   1.194   1.615   1.962 -0.1489 -0.1354  0.1541
 3049SOL    HW110046   1.133   1.569   2.027 -0.5864 -1.8545 -1.4036
 3049SOL    HW210047   1.197   1.712   1.983 -1.8272 -0.3259  1.5225
 3050SOL     OW10048   4.567   5.962   6.931  0.3326 -0.2612  0.5402
 3050SOL    HW110049   4.595   5.874   6.971  1.0462 -0.3193 -0.0770
 3050SOL    HW210050   4.646   6.022   6.925  0.2376 -0.2479 -0.7818
 3051SOL     OW10051   6.928   5.134   4.977 -0.0471  0.5483 -0.4781
 3051SOL    HW110052   6.930   5.234   4.971  2.2176  0.6033  0.4146
 3051SOL    HW210053   7.021   5.099   4.982 -0.7152 -1.7528 -2.3949
 3052SOL     OW10054   5.118   0.108   5.841  0.0191 -0.4140  0.2743
 3052SOL    HW110055   5.085   0.202   5.847 -0.8060 -0.7240  0.6453
 3052SOL    HW210056   5.178   0.089   5.919  0.8306  0.0358 -0.2170
 3053SOL     OW10057   6.475   5.427   6.005 -0.2470  0.3801  0.4605
 3053SOL    HW110058   6.557   5.455   6.055 -0.8126 -2.2453  3.1002
 3053SOL    HW210059   6.401   5.492   6.024  0.4320  1.2091  0.3362
 3054SOL     OW10060   1.800   6.129   2.497  0.2747  0.3625 -0.0340
 3054SOL    HW110061   1.779   6.034   2.475  0.4058 -0.0764  1.5514
 3054SOL    HW210062   1.898   6.138   2.513  0.2174  0.6861  0.1460
 3055SOL     OW10063   6.454   5.003   0.864 -0.0655 -0.4339  0.2799
 3055SOL    HW110064   6.464   5.099   0.836 -1.4594 -0.4153 -0.2212
 3055SOL    HW210065   6.421   5.000   0.958 -1.2274 -0.3921 -0.1191
 3056SOL     OW10066   2.771   1.574   0.548 -0.6155  0.1014  0.4383
 3056SOL    HW110067   2.796   1.585   0.452 -0.5973 -0.4913  0.3751
 3056SOL    HW210068   2.802   1.655   0.599  1.3046 -0.5126  0.3395
 3057SOL     OW10069   6.780   2.448   4.060 -0.8332  0.1622  0.0682
 3057SOL    HW110070   6.773   2.536   4.014 -2.0973  0.6951  1.2269
 3057SOL    HW210071   6.702   2.391   4.034 -0.5781 -0.2169  0.1316
 3058SOL     OW10072   5.215   4.317   5.349 -0.0760  0.2290  0.1673
 3058SOL    HW110073   5.287   4.295   5.284 -0.5486  0.7209 -0.5260
 3058SOL    HW210074   5.149   4.242   5.352 -1.2199  1.0973 -1.5551
 3059SOL     OW10075   1.016   2.844   2.468  0.3425  0.3837  0.4093
 3059SOL    HW110076   0.985   2.935   2.442 -0.5276 -0.2214 -0.8117
 3059SOL    HW210077   1.028   2.788   2.386  0.2699 -0.7812  1.1636
 3060SOL     OW10078   0.125   1.964   4.127  0.2142 -0.2570  0.3271
 3060SOL    HW110079   0.069   2.044   4.107  1.1275  0.7948  1.8668
 3060SOL    HW210080   0.067   1.890   4.160 -0.4910  0.1555  0.0311
 3061SOL     OW10081   4.135   5.975   5.095 -0.5635 -0.1592 -0.0231
 3061SOL    HW110082   4.188   5.919   5.031 -1.8889 -0.1983 -1.1417
 3061SOL    HW210083   4.038   5.968   5.073 -0.9344  1.0076  1.0892
 3062SOL     OW10084   1.580   5.039   6.058 -0.4348 -0.2953  0.0273
 3062SOL    HW110085   1.653   5.093   6.016 -0.0569 -1.9534 -1.5542
 3062SOL    HW210086   1.616   4.988   6.136 -0.9747  2.2328  2.0746
 3063SOL     OW10087   6.716   6.058   6.856  0.0370 -0.2438  0.0754
 3063SOL    HW110088   6.621   6.090   6.862  0.4631  0.8106  2.2811
 3063SOL    HW210089   6.778   6.136   6.850  0.8815 -0.7512  1.4841
 3064SOL     OW10090   5.052   0.330   4.304  0.0780 -0.6001  0.4853
 3064SOL    HW110091   5.057   0.285   4.393 -0.1416 -0.0203  0.7959
 3064SOL    HW210092   4.965   0.379   4.297 -0.4724 -1.6774 -0.5486
 3065SOL     OW10093   3.779   2.919   6.074  0.9815 -0.1716  0.4935
 3065SOL    HW110094   3.791   3.018   6.084  1.7401 -0.3494  1.5279
 3065SOL    HW210095   3.756   2.879   6.163 -3.5908 -0.4367 -0.5408
 3066SOL     OW10096   2.628   0.275   4.931  0.7139  0.4665  0.2338
 3066SOL    HW110097   2.616   0.356   4.873  1.3344  0.7027  0.4247
 3066SOL    HW210098   2.575   0.199   4.893 -1.1635  1.3635  0.9096
 3067SOL     OW10099   0.842   2.052   3.596  0.2794 -0.6954  0.4641
 3067SOL    HW110100   0.874   1.972   3.545  0.2639 -1.7624  2.0599
 3067SOL    HW210101   0.840   2.031   3.693 -0.3042  1.0741  0.8729
 3068SOL     OW10102   1.411   1.298   1.407  0.3917  0.0903 -0.2331
 3068SOL    HW110103   1.375   1.210   1.438  1.2012 -0.8831 -1.9171
 3068SOL    HW210104   1.465   1.339   1.480  1.9953 -1.9753 -0.1531
 3069SOL     OW10105   5.587   0.190   3.666  0.1486 -0.0724 -0.3316
 3069SOL    HW110106   5.614   0.234   3.580  0.1826 -0.4859 -0.5360
 3069SOL    HW210107   5.504   0.234   3.701 -0.9334 -1.0595 -1.5323
 3070SOL     OW10108   2.226   0.087   6.699  0.2494 -0.1020  0.2047
 3070SOL    HW110109   2.191   0.093   6.793  0.0821 -3.7910  0.5244
 3070SOL    HW210110   2.150   0.095   6.635 -0.1868 -1.0809  0.5770
 3071SOL     OW10111   5.328   3.889   4.482  0.2886 -0.0325 -0.7967
 3071SOL    HW110112   5.320   3.904   4.384  0.1063  0.1888 -0.7482
 3071SOL    HW210113   5.408   3.939   4.517 -0.2523  0.7545 -0.6547
 3072SOL     OW10114   0.016   0.414   3.845 -0.1583 -0.3038  0.0592
 3072SOL    HW110115  -0.067   0.364   3.824 -0.5384 -0.1423  1.1116
 3072SOL    HW210116   0.068   0.364   3.914  0.2841 -0.0673 -0.0977
 3073SOL     OW10117   0.042   5.023   4.274  0.2354  0.8566  0.2642
 3073SOL    HW110118   0.043   5.119   4.246 -1.5237  0.8461  0.0964
 3073SOL    HW210119  -0.009   5.013   4.359  0.3685  0.0608  0.2600
 3074SOL     OW10120   2.157   2.778   1.494  0.1899 -0.0415 -0.0852
 3074SOL    HW110121   2.239   2.765   1.551  0.3535 -0.6496 -0.4526
 3074SOL    HW210122   2.165   2.864   1.443  0.5302 -0.0261 -0.0075
 3075SOL     OW10123   4.474   4.512   2.451  0.0201 -0.2597  0.0941
 3075SOL    HW110124   4.517   4.468   2.372 -1.1242 -3.2829  1.0145
 3075SOL    HW210125   4.545   4.540   2.515  0.8321 -0.6992 -0.5766
 3076SOL     OW10126   2.497   6.902   3.942  0.0957  0.5931 -0.4321
 3076SOL    HW110127   2.462   6.872   3.854  0.4583 -2.0864  0.2574
 3076SOL    HW210128   2.509   6.823   4.002  1.6544  2.1082  1.3890
 3077SOL     OW10129   6.730   2.516   1.676 -0.3787 -0.1926 -0.3971
 3077SOL    HW110130   6.764   2.610   1.673 -0.8252 -0.0303 -0.6084
 3077SOL    HW210131   6.642   2.511   1.627 -0.2491 -0.7649 -0.5846
 3078SOL     OW10132   4.859   6.518   0.344  0.0464 -0.0293 -0.0586
 3078SOL    HW110133   4.939   6.578   0.354 -0.2696  0.7814 -1.9898
 3078SOL    HW210134   4.809   6.517   0.431  1.1217  0.9476  0.6224
 3079SOL     OW10135   0.407   5.197   3.955  0.0906  0.1802 -0.1166
 3079SOL    HW110136   0.489   5.218   4.009 -0.4208  1.4680  0.1996
 3079SOL    HW210137   0.341   5.271   3.965 -1.1793 -0.8951 -0.2679
 3080SOL     OW10138   5.532   4.868   1.229  0.3564  0.1063 -0.4804
 3080SOL    HW110139   5.548   4.930   1.153  2.3432 -1.8023 -1.7162
 3080SOL    HW210140   5.449   4.815   1.213  0.9544 -0.5357 -1.5415
 3081SOL     OW10141   3.097   2.354   6.891 -0.7037  0.6656  0.3017
 3081SOL    HW110142   3.130   2.289   6.822  1.6528 -1.7254  3.3700
 3081SOL    HW210143   2.997   2.358   6.888 -1.0148 -3.1498 -0.1836
 3082SOL     OW10144   6.470   0.661   5.508 -0.0946 -0.4145  0.1939
 3082SOL    HW110145   6.489   0.678   5.605 -0.2595 -0.8958  0.3148
 3082SOL    HW210146   6.385   0.609   5.500 -1.3229  1.5655 -0.3253
 3083SOL     OW10147   6.352   4.755   1.451 -0.3424  0.1518  0.4513
 3083SOL    HW110148   6.368   4.839   1.502  1.6698  0.6972 -0.9258
 3083SOL    HW210149   6.270   4.764   1.395 -0.4268  0.9939  0.7089
 3084SOL     OW10150   6.996   5.267   4.714 -0.0626  0.0593 -0.1933
 3084SOL    HW110151   6.978   5.318   4.630  1.8039 -0.0254 -0.6866
 3084SOL    HW210152   7.015   5.332   4.788 -0.6652  0.1124 -0.0786
 3085SOL     OW10153   5.511   6.034   6.300  0.3475  0.2372  0.1966
 3085SOL    HW110154   5.437   6.029   6.233 -0.0515  0.2231  0.6276
 3085SOL    HW210155   5.474   6.069   6.387  1.0284  1.0901  0.1518
 3086SOL     OW10156   4.438   1.084   4.671 -0.2624 -0.1353  0.5250
 3086SOL    HW110157   4.511   1.104   4.736 -1.0585  0.9809  1.1108
 3086SOL    HW210158   4.416   0.986   4.675  1.6866 -0.6404 -0.2228
 3087SOL     OW10159   1.001   6.770   1.653 -0.0361  0.4707  0.0892
 3087SOL    HW110160   0.996   6.688   1.710 -1.8654  2.6324  3.4299
 3087SOL    HW210161   1.095   6.806   1.655  0.1907 -0.1330  0.7813
 3088SOL     OW10162   1.942   2.921   3.417 -0.2820 -0.0831  0.1419
 3088SOL    HW110163   2.040   2.930   3.398  0.2991 -0.9202  2.4419
 3088SOL    HW210164   1.893   2.998   3.377  1.0236 -0.5937 -2.6564
 3089SOL     OW10165   4.601   6.353   2.478 -0.1651 -0.2456  0.1764
 3089SOL    HW110166   4.649   6.413   2.414 -0.0014 -2.7618 -2.2258
 3089SOL    HW210167   4.667   6.315   2.543  0.0643  0.6006  0.4573
 3090SOL     OW10168   1.748   1.449   5.175  0.4191  0.0612  0.1436
 3090SOL    HW110169   1.769   1.516   5.103  2.3376 -1.1071 -0.4812
 3090SOL    HW210170   1.650   1.429   5.175  0.3664 -0.0355 -2.3285
 3091SOL     OW10171   1.350   0.764   5.518  0.4955  0.2180 -0.2755
 3091SOL    HW110172   1.330   0.846   5.572  0.3555 -1.1319  1.8385
 3091SOL    HW210173   1.273   0.701   5.524  0.3025  0.1823 -2.4707
 3092SOL     OW10174   3.681   1.722   3.670 -0.5566  0.1388 -0.1077
 3092SOL    HW110175   3.739   1.728   3.588 -0.5581  0.1474 -0.1080
 3092SOL    HW210176   3.738   1.700   3.749 -0.6810 -0.8643 -0.2781
 3093SOL     OW10177   6.887   6.268   0.735 -0.1270  0.6719  0.5105
 3093SOL    HW110178   6.846   6.328   0.666  0.9848  0.8179 -0.0378
 3093SOL    HW210179   6.830   6.187   0.746 -1.1800  1.3994  0.6214
 3094SOL     OW10180   2.233   0.826   5.349  0.5934  0.1043  0.3711
 3094SOL    HW110181   2.199   0.797   5.259  1.7704 -2.0982  0.5810
 3094SOL    HW210182   2.329   0.854   5.341  0.7015 -0.0970  0.9360
 3095SOL     OW10183   0.749   3.389   4.784  0.0856 -0.2469  0.3935
 3095SOL    HW110184   0.805   3.465   4.816 -0.3598 -0.2843  1.2892
 3095SOL    HW210185   0.765   3.309   4.842 -1.7372  0.0800  1.4387
 3096SOL     OW10186   0.179   1.064   4.245  0.0993 -0.4488  0.3903
 3096SOL    HW110187   0.185   1.021   4.336 -1.7323 -0.2357  0.6363
 3096SOL    HW210188   0.084   1.088   4.225  0.8277  2.1289 -0.3797
 3097SOL     OW10189   5.151   1.951   6.829 -0.2401  0.1770 -0.8863
 3097SOL    HW110190   5.243   1.921   6.853 -0.1728 -0.6964 -2.1652
 3097SOL    HW210191   5.106   1.987   6.911  0.8077 -0.4972  0.0190
 3098SOL     OW10192   3.280   4.933   2.779  1.1300 -0.4522  0.1156
 3098SOL    HW110193   3.364   4.948   2.832  1.2240 -0.3784 -0.0545
 3098SOL    HW210194   3.303   4.903   2.687  1.0183  0.8397 -0.3548
 3099SOL     OW10195   2.081   0.560   6.190 -0.5355  0.7574  0.0363
 3099SOL    HW110196   2.114   0.595   6.278 -0.7746  0.7087  0.1470
 3099SOL    HW210197   2.159   0.534   6.133 -0.3943  0.2241  0.4647
 3100SOL     OW10198   6.038   5.614   2.239 -0.1380 -0.6511 -0.6974
 3100SOL    HW110199   6.060   5.711   2.226 -2.8745  0.1798  0.0284
 3100SOL    HW210200   6.121   5.563   2.261  1.0090  2.3278  3.1653
 3101SOL     OW10201   4.620   0.532   4.508 -0.7828 -0.5165 -0.1650
 3101SOL    HW110202   4.642   0.494   4.598 -2.1215  1.3542  1.0259
 3101SOL    HW210203   4.531   0.497   4.478 -0.1940 -1.3904 -0.9579
 3102SOL     OW10204   5.118   1.409   2.480 -0.1056 -0.0883 -0.6359
 3102SOL    HW110205   5.101   1.383   2.384 -0.8828 -1.6685 -0.1036
 3102SOL    HW210206   5.204   1.368   2.510 -0.5113 -0.6858 -0.2793
 3103SOL     OW10207   0.670   2.294   1.092  0.4535 -0.5382 -0.4120
 3103SOL    HW110208   0.725   2.241   1.028 -0.0999 -1.2669 -0.3031
 3103SOL    HW210209   0.578   2.255   1.096 -0.1847  0.8520 -0.8541
 3104SOL     OW10210   0.071   0.700   6.541 -0.7446 -0.4836 -0.2458
 3104SOL    HW110211   0.031   0.662   6.458 -3.3689 -0.8137  1.0560
 3104SOL    HW210212   0.154   0.649   6.565 -1.0147 -1.6313 -1.6195
 3105SOL     OW10213   5.254   4.507   2.262  0.3759 -0.1991  0.3081
 3105SOL    HW110214   5.274   4.412   2.286  1.5216  0.1677  0.8706
 3105SOL    HW210215   5.214   4.554   2.340  0.6008  0.0081  0.2983
 3106SOL     OW10216   6.210   1.377   5.826  0.1202 -0.5394 -0.5588
 3106SOL    HW110217   6.126   1.425   5.802  0.2126 -0.5424 -0.8868
 3106SOL    HW210218   6.287   1.417   5.776  0.3505 -0.3881 -0.0896
 3107SOL     OW10219   3.048   1.261   5.671 -0.0540  0.6546 -0.6989
 3107SOL    HW110220   2.998   1.181   5.637 -0.9405  1.3885 -1.1832
 3107SOL    HW210221   3.004   1.344   5.637 -0.8135  1.4511  1.9714
 3108SOL     OW10222   3.600   5.871   3.266  0.6786  0.0801 -0.1487
 3108SOL    HW110223   3.531   5.884   3.194  1.3771  0.3921 -0.7719
 3108SOL    HW210224   3.664   5.799   3.238 -0.4569 -1.5822  1.2496
 3109SOL     OW10225   0.390   6.656   4.597 -0.1904 -0.0171 -0.2126
 3109SOL    HW110226   0.312   6.671   4.537  0.2810 -3.1323 -1.8086
 3109SOL    HW210227   0.475   6.674   4.547  0.1741  0.2655  0.4920
 3110SOL     OW10228   4.526   6.089   4.791  0.1005 -0.1109  0.4088
 3110SOL    HW110229   4.471   6.005   4.796 -0.2096  0.0212 -0.5056
 3110SOL    HW210230   4.620   6.069   4.817  0.0227 -0.7455  0.2310
 3111SOL     OW10231   5.133   3.672   5.070  0.1625 -0.3023 -0.6423
 3111SOL    HW110232   5.043   3.696   5.034  0.1610 -0.0532 -0.4768
 3111SOL    HW210233   5.184   3.620   5.002  0.0756 -0.0303 -0.9135
 3112SOL     OW10234   3.514   0.783   6.439  0.3797  0.6432 -0.3734
 3112SOL    HW110235   3.484   0.828   6.354  0.5666  0.4800 -0.5255
 3112SOL    HW210236   3.436   0.774   6.500  0.0082 -0.1931 -0.9550
 3113SOL     OW10237   0.516   5.093   3.720 -0.5948  0.3010 -0.1290
 3113SOL    HW110238   0.462   5.110   3.803 -0.7173 -0.8963  0.0494
 3113SOL    HW210239   0.461   5.043   3.654  0.3114 -1.0150  0.0837
 3114SOL     OW10240   4.537   5.206   4.210  0.3798 -0.5407  0.2960
 3114SOL    HW110241   4.585   5.193   4.296  1.2399  1.0540  0.0891
 3114SOL    HW210242   4.551   5.299   4.177  0.5234 -1.2642 -1.8445
 3115SOL     OW10243   4.185   5.268   5.076  0.1164 -0.5650 -0.5214
 3115SOL    HW110244   4.125   5.188   5.067 -1.1084  0.3123 -0.3836
 3115SOL    HW210245   4.172   5.329   4.998 -0.0306  0.1878  0.0776
 3116SOL     OW10246   0.960   2.489   6.582 -0.1071  0.2018  0.0968
 3116SOL    HW110247   0.916   2.532   6.504  0.0957  2.8418  1.3136
 3116SOL    HW210248   0.908   2.408   6.611 -0.2110 -0.7864 -2.6314
 3117SOL     OW10249   2.095   0.608   1.886  0.5888 -0.2299 -0.4110
 3117SOL    HW110250   2.049   0.569   1.965  1.7663 -1.8080 -0.4619
 3117SOL    HW210251   2.188   0.571   1.880  0.9969  0.9335 -1.7384
 3118SOL     OW10252   0.073   1.961   2.308  0.0944 -0.3059 -0.1113
 3118SOL    HW110253   0.161   1.914   2.298 -0.5425 -1.6830  0.4814
 3118SOL    HW210254   0.044   1.956   2.404  0.3266  1.9431  0.1247
 3119SOL     OW10255   3.921   5.938   3.012 -0.0356 -0.2807 -0.6041
 3119SOL    HW110256   3.847   5.881   3.047 -1.2887  1.8618  0.4130
 3119SOL    HW210257   4.002   5.880   2.995 -0.4878 -2.0453  2.4251
 3120SOL     OW10258   5.895   6.394   0.441  0.0214  0.2252  0.3478
 3120SOL    HW110259   5.809   6.400   0.492  0.0885  0.5360  0.4308
 3120SOL    HW210260   5.878   6.355   0.351 -0.3289  0.9412  0.0955
 3121SOL     OW10261   5.406   0.012   3.399 -0.5273 -0.4157 -0.2894
 3121SOL    HW110262   5.422  -0.074   3.447 -0.3166 -0.0025  0.3905
 3121SOL    HW210263   5.486   0.036   3.345 -0.1961 -0.1332  0.3246
 3122SOL     OW10264   4.430   5.114   1.410  0.3513  0.0198 -0.4479
 3122SOL    HW110265   4.508   5.134   1.350 -0.3190  1.0076 -1.0185
 3122SOL    HW210266   4.350   5.096   1.354 -0.6983  2.5799  0.0964
 3123SOL     OW10267   2.351   1.279   1.764  0.3186 -0.2187  0.6717
 3123SOL    HW110268   2.281   1.249   1.828 -0.3281  0.5617  0.3571
 3123SOL    HW210269   2.307   1.321   1.684  1.1326 -0.2410  0.2011
 3124SOL     OW10270   5.606   5.483   4.471  0.8589  0.1528  0.0742
 3124SOL    HW110271   5.697   5.470   4.512  1.3897 -1.2296 -1.4306
 3124SOL    HW210272   5.616   5.501   4.374 -0.5000 -0.4256 -0.1944
 3125SOL     OW10273   2.750   0.659   3.573  0.3368 -0.2227 -0.4929
 3125SOL    HW110274   2.806   0.599   3.631  0.0775 -1.6686 -1.6697
 3125SOL    HW210275   2.802   0.741   3.550  1.2020 -0.5837  0.1140
 3126SOL     OW10276   6.620   3.590   5.776 -0.1715  0.4817  0.1752
 3126SOL    HW110277   6.584   3.682   5.763  0.9557  0.7870 -1.0753
 3126SOL    HW210278   6.709   3.582   5.731  0.6434 -0.6695  1.8682
 3127SOL     OW10279   0.886   2.319   6.333 -0.1039 -0.4302 -0.3556
 3127SOL    HW110280   0.859   2.295   6.426 -0.3825 -0.0562 -0.3399
 3127SOL    HW210281   0.952   2.251   6.299  0.9406  0.1162  0.5421
 3128SOL     OW10282   5.693   1.248   1.294 -0.2838 -1.0775 -0.5832
 3128SOL    HW110283   5.682   1.191   1.213  1.2314 -0.2243 -1.4532
 3128SOL    HW210284   5.652   1.338   1.277 -0.8028 -1.2097 -0.0336
 3129SOL     OW10285   3.595   4.926   5.934  0.0384 -0.3233  0.3070
 3129SOL    HW110286   3.633   4.876   6.012  0.0335  0.8247  1.0632
 3129SOL    HW210287   3.525   4.869   5.890 -0.2166 -0.8556  1.3586
 3130SOL     OW10288   5.800   0.977   5.042 -0.3711  0.2153 -0.1785
 3130SOL    HW110289   5.826   1.029   4.960  1.7487 -0.3820  0.0355
 3130SOL    HW210290   5.863   1.000   5.116 -1.4635 -0.2253  0.9081
 3131SOL     OW10291   6.775   1.497   3.381  0.2242  0.2009 -0.3103
 3131SOL    HW110292   6.688   1.448   3.384 -0.1169  0.8379  0.2241
 3131SOL    HW210293   6.806   1.503   3.286  0.3161 -1.1181 -0.3853
 3132SOL     OW10294   3.611   5.614   5.271 -0.9262  0.5702  0.9402
 3132SOL    HW110295   3.663   5.547   5.217  0.5901  1.7883  0.8263
 3132SOL    HW210296   3.606   5.582   5.366 -0.3772  0.1938  0.8524
 3133SOL     OW10297   6.898   6.814   5.001  0.0008 -0.6995  0.2533
 3133SOL    HW110298   6.840   6.870   5.060  1.1356  1.0257 -0.1826
 3133SOL    HW210299   6.929   6.733   5.050 -2.1593 -1.3020  0.7213
 3134SOL     OW10300   3.370   5.053   3.266  0.3660 -0.2752 -0.2888
 3134SOL    HW110301   3.321   5.065   3.180  0.9642  2.0244 -0.3684
 3134SOL    HW210302   3.460   5.013   3.248  0.0822 -0.7791 -0.6021
 3135SOL     OW10303   5.258   0.450   4.651 -0.7363  0.6456  0.5120
 3135SOL    HW110304   5.259   0.368   4.708 -0.5452 -1.9765 -2.9710
 3135SOL    HW210305   5.324   0.516   4.688  0.0439 -1.2391  2.7636
 3136SOL     OW10306   5.721   5.940   1.925  0.3531  0.4580 -0.0100
 3136SOL    HW110307   5.777   5.975   2.001 -0.7555  1.0579  0.5574
 3136SOL    HW210308   5.780   5.892   1.860  1.2751 -0.4665  1.4499
 3137SOL     OW10309   5.472   3.990   6.073  0.3482 -0.5778 -0.1688
 3137SOL    HW110310   5.539   4.010   6.145  1.6780 -0.4312 -1.4089
 3137SOL    HW210311   5.469   4.066   6.009  2.1153 -2.2834 -2.4388
 3138SOL     OW10312   2.609   5.100   6.825 -0.0929  0.7504 -0.1307
 3138SOL    HW110313   2.595   5.016   6.772 -0.2414 -0.7424  2.1621
 3138SOL    HW210314   2.525   5.123   6.874  0.5816  0.9777  0.9503
 3139SOL     OW10315   0.882   5.247   0.602 -0.2665  0.5216  0.4090
 3139SOL    HW110316   0.901   5.193   0.521 -0.3796  1.8870 -0.5630
 3139SOL    HW210317   0.787   5.281   0.599 -0.4894  0.0544  1.4429
 3140SOL     OW10318   5.085   0.312   0.701  0.1153 -0.0367 -0.0062
 3140SOL    HW110319   5.002   0.259   0.720 -0.0723  0.8596  1.9668
 3140SOL    HW210320   5.070   0.371   0.622 -0.9786 -0.2160  0.0499
 3141SOL     OW10321   5.650   2.910   6.393 -0.3424 -0.6083 -0.3211
 3141SOL    HW110322   5.645   2.819   6.353  0.6385 -0.2577 -1.3198
 3141SOL    HW210323   5.745   2.942   6.390 -0.8199  0.8402 -0.9486
 3142SOL     OW10324   2.468   5.851   4.106  0.3830  0.7882 -0.3884
 3142SOL    HW110325   2.538   5.858   4.177 -0.2275  0.2962  0.2693
 3142SOL    HW210326   2.443   5.755   4.093 -1.7888  1.1046  1.0066
 3143SOL     OW10327   5.077   2.217   6.904 -0.6006 -0.8235 -0.1988
 3143SOL    HW110328   5.015   2.293   6.885 -0.2898 -0.5902 -0.2743
 3143SOL    HW210329   5.171   2.249   6.904 -0.5224 -1.0118  0.7233
 3144SOL     OW10330   3.600   5.198   5.062 -0.2139  0.0187  0.3232
 3144SOL    HW110331   3.542   5.116   5.054  0.0235 -0.0375 -0.9930
 3144SOL    HW210332   3.560   5.272   5.009  0.7240  0.0915 -0.3023
 3145SOL     OW10333   1.016   4.220   5.535  0.1365  0.0331 -0.2898
 3145SOL    HW110334   0.935   4.172   5.569  0.3712 -0.1589  0.0043
 3145SOL    HW210335   1.037   4.188   5.442  0.9726 -1.3114  0.3239
 3146SOL     OW10336   0.364   0.466   5.036 -0.4361  0.0465 -0.0672
 3146SOL    HW110337   0.360   0.366   5.033 -1.0984  0.0477  0.6043
 3146SOL    HW210338   0.401   0.500   4.949  3.3115 -0.9255  0.9630
 3147SOL     OW10339   3.847   0.388   1.812  0.5517  0.6714  0.0362
 3147SOL    HW110340   3.756   0.419   1.786 -0.4131 -2.4102 -0.6503
 3147SOL    HW210341   3.844   0.352   1.906 -0.0639 -2.9751 -1.2165
 3148SOL     OW10342   4.412   4.359   1.254 -0.2760 -0.3597  0.0732
 3148SOL    HW110343   4.325   4.404   1.232  1.2303  3.4452  0.9611
 3148SOL    HW210344   4.406   4.317   1.344 -0.1365  3.7946  2.2587
 3149SOL     OW10345   4.048   2.437   1.391  0.6324 -0.0474  0.5809
 3149SOL    HW110346   3.955   2.401   1.391  0.2019  0.9892  1.6076
 3149SOL    HW210347   4.048   2.530   1.429  2.0819 -0.0177  0.5721
 3150SOL     OW10348   6.615   0.516   4.442  0.5027  0.2740  0.3818
 3150SOL    HW110349   6.652   0.504   4.534  0.6136  0.0619  0.3095
 3150SOL    HW210350   6.557   0.438   4.419  2.6369 -1.0798 -0.7764
 3151SOL     OW10351   0.842   2.424   0.629 -0.2032 -0.0048  0.0726
 3151SOL    HW110352   0.912   2.441   0.698 -1.3206 -0.0024  1.2384
 3151SOL    HW210353   0.752   2.444   0.667 -1.0029 -1.7838 -0.7555
 3152SOL     OW10354   2.156   2.538   6.942  0.1080 -0.6415 -0.5145
 3152SOL    HW110355   2.101   2.512   7.021  0.8891  1.7033  0.8823
 3152SOL    HW210356   2.220   2.464   6.920 -0.4415 -1.5236  0.7285
 3153SOL     OW10357   6.521   4.970   0.261  0.0885  0.0583  0.1468
 3153SOL    HW110358   6.604   5.025   0.255 -1.2652  2.0173 -1.8803
 3153SOL    HW210359   6.446   5.026   0.296 -1.2146 -0.6001 -1.4599
 3154SOL     OW10360   3.585   3.869   0.680  0.1144  0.0497  0.1265
 3154SOL    HW110361   3.487   3.866   0.700  0.2097 -0.1920  0.5863
 3154SOL    HW210362   3.636   3.873   0.766  0.4484  2.4711 -0.1293
 3155SOL     OW10363   6.633   6.499   6.373  0.2869 -0.0943 -0.5744
 3155SOL    HW110364   6.719   6.545   6.392  1.3978 -1.0974 -2.7259
 3155SOL    HW210365   6.562   6.566   6.352 -0.5691  0.9803  4.5039
 3156SOL     OW10366   3.126   4.810   1.356  0.2516  0.1529  0.0783
 3156SOL    HW110367   3.204   4.748   1.364 -1.1403 -1.4510  2.4664
 3156SOL    HW210368   3.129   4.878   1.429 -1.3431 -0.9325  1.2218
 3157SOL     OW10369   2.231   2.043   2.672  0.3141  0.3764 -0.0633
 3157SOL    HW110370   2.256   1.946   2.675  0.3590  0.3486 -1.1683
 3157SOL    HW210371   2.144   2.057   2.720  0.0108 -0.3043 -0.4036
 3158SOL     OW10372   1.154   6.405   6.981  0.0013  0.0080  0.8287
 3158SOL    HW110373   1.225   6.338   6.999 -2.1142 -2.0963  1.8614
 3158SOL    HW210374   1.101   6.421   7.064 -2.1318 -0.2660 -0.3953
 3159SOL     OW10375   5.527   4.907   0.364  0.3474  0.3884 -0.2397
 3159SOL    HW110376   5.530   4.858   0.452 -0.2566  0.6593 -0.0620
 3159SOL    HW210377   5.620   4.914   0.327  0.5682 -0.0142  0.2190
 3160SOL     OW10378   2.095   1.788   5.548  0.1310 -0.2448 -0.7267
 3160SOL    HW110379   2.051   1.794   5.459  0.1996  2.5309 -0.6563
 3160SOL    HW210380   2.053   1.854   5.611  1.3209 -0.8137  0.7489
 3161SOL     OW10381   0.831   2.015   1.562  0.6772  0.2444 -0.0405
 3161SOL    HW110382   0.929   2.018   1.543  0.3787  1.2435 -1.6861
 3161SOL    HW210383   0.814   1.964   1.646  2.2842 -3.7294 -1.8642
 3162SOL     OW10384   2.087   4.551   1.283  0.3079  0.6758  0.1146
 3162SOL    HW110385   2.020   4.556   1.208 -0.9042  1.0313  1.1723
 3162SOL    HW210386   2.040   4.520   1.366  1.3056  1.6907  1.0810
 3163SOL     OW10387   4.313   3.847   6.422 -0.0619 -0.4659 -0.4577
 3163SOL    HW110388   4.353   3.854   6.331  2.0410  1.7563  0.5021
 3163SOL    HW210389   4.223   3.890   6.423  0.1663  0.0521 -1.3625
 3164SOL     OW10390   1.271   4.665   3.147 -0.1052 -0.1333 -0.5361
 3164SOL    HW110391   1.331   4.675   3.227  1.2527 -2.1332 -1.2229
 3164SOL    HW210392   1.181   4.702   3.168  0.7338  0.9952  1.2948
 3165SOL     OW10393   5.941   6.262   6.678 -0.5156 -0.0507  0.2647
 3165SOL    HW110394   5.990   6.257   6.765 -0.9069 -1.9656  0.4260
 3165SOL    HW210395   5.845   6.284   6.695 -0.3958  0.5361  0.2150
 3166SOL     OW10396   2.576   0.724   6.498 -0.5215  0.0257  0.3470
 3166SOL    HW110397   2.524   0.809   6.498  1.1057  1.0847  1.3929
 3166SOL    HW210398   2.657   0.736   6.440 -0.5678 -1.0220  0.0548
 3167SOL     OW10399   0.904   2.187   3.266 -0.1467  0.1950  0.1504
 3167SOL    HW110400   0.952   2.219   3.347  0.9031  0.8676 -0.7081
 3167SOL    HW210401   0.863   2.265   3.219  2.8493  0.5245 -2.2296
 3168SOL     OW10402   6.856   1.335   6.833  0.3756 -0.6225  0.1231
 3168SOL    HW110403   6.876   1.348   6.736 -1.4140 -0.6431 -0.2850
 3168SOL    HW210404   6.783   1.268   6.843 -0.5030  0.4823  1.4091
 3169SOL     OW10405   0.321   1.374   3.149  0.3969 -0.3643 -0.1279
 3169SOL    HW110406   0.231   1.386   3.107 -0.1601  0.6299  1.2749
 3169SOL    HW210407   0.362   1.464   3.166  0.9589 -0.7605  0.6778
 3170SOL     OW10408   5.104   4.261   4.250  0.2190 -0.3879 -0.7702
 3170SOL    HW110409   5.198   4.265   4.217  0.3901  0.5319 -0.2152
 3170SOL    HW210410   5.044   4.229   4.177  0.8809 -0.4287 -1.3039
 3171SOL     OW10411   0.591   2.857   4.843 -0.1111  0.2032 -0.2944
 3171SOL    HW110412   0.540   2.940   4.821  1.4757  1.0030 -1.1643
 3171SOL    HW210413   0.555   2.780   4.790 -2.6910 -0.1372  1.7269
 3172SOL     OW10414   6.064   5.512   6.974 -0.2452 -0.0957 -0.0258
 3172SOL    HW110415   6.119   5.463   6.907  0.0114  1.0459 -0.6737
 3172SOL    HW210416   5.985   5.456   6.999  0.0762 -0.8620 -0.6888
 3173SOL     OW10417   4.182   3.227   6.380 -0.6241  0.3184 -0.1573
 3173SOL    HW110418   4.167   3.218   6.479 -0.8816  0.8073 -0.1500
 3173SOL    HW210419   4.267   3.276   6.364 -0.6281  0.3182 -0.1796
 3174SOL     OW10420   2.654   2.724   6.202  0.0425 -0.2098 -0.2469
 3174SOL    HW110421   2.714   2.647   6.177 -1.2514 -0.8012 -1.6543
 3174SOL    HW210422   2.694   2.809   6.168  0.7065 -0.4370 -0.0584
 3175SOL     OW10423   3.941   6.308   5.507 -0.1982 -0.4512  0.1440
 3175SOL    HW110424   4.038   6.285   5.506  0.0885  0.7035  0.4704
 3175SOL    HW210425   3.911   6.331   5.415  0.3093  1.0198  0.3193
 3176SOL     OW10426   2.370   4.259   3.842  0.1056 -0.0108 -0.7923
 3176SOL    HW110427   2.363   4.174   3.895  0.4378 -0.5169 -1.5416
 3176SOL    HW210428   2.433   4.321   3.888 -0.6521  0.1032  0.1137
 3177SOL     OW10429   5.200   3.051   1.639 -0.1843 -0.3446 -0.3012
 3177SOL    HW110430   5.180   3.137   1.591  0.1848 -0.8415 -1.3857
 3177SOL    HW210431   5.115   3.015   1.677 -0.2091  0.9226  0.9340
 3178SOL     OW10432   1.843   1.803   2.201 -0.5728  0.2831  0.3089
 3178SOL    HW110433   1.786   1.721   2.203 -2.5912  1.6207  0.8095
 3178SOL    HW210434   1.843   1.842   2.109  0.9582 -0.6014 -0.1047
 3179SOL     OW10435   2.095   4.219   2.567 -0.6235 -0.0362 -0.0039
 3179SOL    HW110436   2.166   4.206   2.497 -0.3901 -0.3421  0.2899
 3179SOL    HW210437   2.007   4.187   2.531 -0.4248 -0.5972 -0.0030
 3180SOL     OW10438   5.439   0.735   5.965 -0.0530 -0.4874 -0.5681
 3180SOL    HW110439   5.424   0.798   6.042  0.9346 -0.8796 -0.0415
 3180SOL    HW210440   5.523   0.760   5.918 -1.5536  0.9165 -2.7231
 3181SOL     OW10441   6.126   1.514   5.144 -0.6895 -0.4369  0.3358
 3181SOL    HW110442   6.195   1.585   5.134 -1.0934 -0.2692 -1.5181
 3181SOL    HW210443   6.045   1.553   5.188 -0.5401 -0.0116  0.2372
 3182SOL     OW10444   0.327   6.615   0.570 -0.1518  0.4484 -0.1275
 3182SOL    HW110445   0.285   6.632   0.659  1.7001  0.2465  0.8406
 3182SOL    HW210446   0.296   6.526   0.536 -1.0773  0.6414  0.1782
 3183SOL     OW10447   2.917   3.992   5.940  0.2758  0.2131 -0.2377
 3183SOL    HW110448   2.984   4.047   5.989  0.6507  1.4134 -1.9976
 3183SOL    HW210449   2.926   4.008   5.841 -1.9346 -0.3723 -0.5919
 3184SOL     OW10450   6.051   5.832   2.533  0.2260  0.5672 -0.1835
 3184SOL    HW110451   6.128   5.876   2.486  0.5628  0.2471  0.0611
 3184SOL    HW210452   5.966   5.879   2.509  0.5752  1.3188  0.0414
 3185SOL     OW10453   1.872   6.610   6.916  0.7766  0.3352  0.1400
 3185SOL    HW110454   1.791   6.626   6.973  1.4176  1.5913  0.7303
 3185SOL    HW210455   1.918   6.526   6.945  0.6578  0.5452  0.9363
 3186SOL     OW10456   1.900   4.423   3.425  0.2574  0.2075 -0.5237
 3186SOL    HW110457   1.809   4.408   3.386 -0.3362  0.4020  0.7148
 3186SOL    HW210458   1.966   4.364   3.380 -0.7529 -1.0238 -0.4594
 3187SOL     OW10459   6.274   6.839   2.180  0.0617  0.5711 -0.1650
 3187SOL    HW110460   6.351   6.903   2.182  0.1239  0.4949 -0.1265
 3187SOL    HW210461   6.215   6.861   2.102 -0.8448  1.7424  0.8122
 3188SOL     OW10462   0.513   0.652   1.980 -0.0575  0.5990 -0.1691
 3188SOL    HW110463   0.453   0.572   1.985 -0.6166  0.8848 -1.8480
 3188SOL    HW210464   0.544   0.676   2.073 -0.2226 -1.2728  0.4087
 3189SOL     OW10465   3.960   1.020   5.619 -0.5113  0.6923 -0.1095
 3189SOL    HW110466   4.001   1.032   5.709  2.4245  0.0587 -1.2410
 3189SOL    HW210467   4.010   1.075   5.552 -0.5393 -1.2540 -1.8423
 3190SOL     OW10468   0.080   5.297   3.805 -0.2738  0.0157  0.0452
 3190SOL    HW110469   0.021   5.265   3.879 -0.8232 -0.1947 -0.4714
 3190SOL    HW210470   0.137   5.373   3.838 -1.8249  1.1648  0.2016
 3191SOL     OW10471   4.172   6.009   0.641 -0.0982  0.3888 -0.0659
 3191SOL    HW110472   4.085   6.046   0.606 -2.0631 -2.3803  1.5005
 3191SOL    HW210473   4.194   5.925   0.592  1.7792  1.0641 -0.4430
 3192SOL     OW10474   5.507   6.708   3.007  0.0930 -0.3858  0.6833
 3192SOL    HW110475   5.563   6.759   2.942 -0.5527 -1.6232 -0.9429
 3192SOL    HW210476   5.478   6.768   3.081  2.3990  0.6192  0.8464
 3193SOL     OW10477   3.816   5.089   5.348 -0.1423 -0.2800  0.0735
 3193SOL    HW110478   3.875   5.013   5.321  2.9834  1.0358  2.5249
 3193SOL    HW210479   3.826   5.164   5.282  0.5138 -0.3001  0.1361
 3194SOL     OW10480   0.371   6.559   5.777 -0.1972  0.2526 -0.1394
 3194SOL    HW110481   0.353   6.503   5.859  1.2813  1.8170  1.3320
 3194SOL    HW210482   0.284   6.595   5.742 -0.9068 -0.8013  0.4565
 3195SOL     OW10483   5.983   6.121   1.364  0.2652  0.3592  0.2789
 3195SOL    HW110484   6.075   6.086   1.344 -0.8291 -1.7882 -1.4001
 3195SOL    HW210485   5.938   6.148   1.279 -1.3221 -0.4266  0.8281
 3196SOL     OW10486   6.197   2.006   2.458 -0.3261 -0.1614 -0.0288
 3196SOL    HW110487   6.156   1.917   2.438  1.0653 -0.7877 -0.1961
 3196SOL    HW210488   6.296   1.999   2.452 -0.1594  1.2187  0.7761
 3197SOL     OW10489   2.108   2.569   6.535 -0.5889  0.6372  0.2068
 3197SOL    HW110490   2.043   2.518   6.591 -0.0400 -0.1670  0.1317
 3197SOL    HW210491   2.165   2.627   6.594  0.4901 -0.7624  0.6041
 3198SOL     OW10492   5.896   4.528   3.656  0.0268 -0.6005  0.2414
 3198SOL    HW110493   5.852   4.461   3.716 -1.5546 -0.1681 -0.3828
 3198SOL    HW210494   5.970   4.573   3.705  0.1075 -1.7172  1.1792
 3199SOL     OW10495   6.752   2.131   5.963  0.1626  0.1700  0.3579
 3199SOL    HW110496   6.805   2.081   5.894 -0.8301 -0.1419 -0.2017
 3199SOL    HW210497   6.801   2.214   5.990  1.4756 -0.7000  0.7284
 3200SOL     OW10498   0.196   2.408   4.475  0.0356 -0.1096 -0.4919
 3200SOL    HW110499   0.188   2.502   4.508 -0.5330 -0.0627 -0.7451
 3200SOL    HW210500   0.105   2.374   4.449  0.1840 -0.8595 -0.0504
 3201SOL     OW10501   0.751   3.616   2.378 -0.1724  0.2562 -0.0150
 3201SOL    HW110502   0.826   3.585   2.437  0.2741 -0.9486 -1.1695
 3201SOL    HW210503   0.715   3.538   2.326  0.0752  1.4459 -2.0433
 3202SOL     OW10504   3.227   4.391   5.556  0.1473 -0.2506 -0.0141
 3202SOL    HW110505   3.246   4.307   5.607  1.4132 -0.9471 -1.5605
 3202SOL    HW210506   3.160   4.372   5.484  0.7546 -0.0582 -0.6424
 3203SOL     OW10507   3.878   6.957   0.991 -0.4721  0.2010  0.0328
 3203SOL    HW110508   3.936   6.918   0.919 -1.0585 -1.5571  0.4518
 3203SOL    HW210509   3.799   7.002   0.949 -0.6630 -0.5659 -0.4539
 3204SOL     OW10510   0.191   1.188   3.715 -0.3381  0.0197  0.6946
 3204SOL    HW110511   0.235   1.156   3.799  1.7296  2.9386  0.8310
 3204SOL    HW210512   0.158   1.281   3.727  0.7468  0.8489 -1.9336
 3205SOL     OW10513   6.835   4.100   6.480  0.3435 -0.0316  0.2905
 3205SOL    HW110514   6.805   4.186   6.440  0.2208 -0.8307 -1.4536
 3205SOL    HW210515   6.934   4.090   6.469  0.4821  0.2241  1.2124
 3206SOL     OW10516   4.207   6.408   6.365 -0.3610  0.0627 -0.1686
 3206SOL    HW110517   4.285   6.444   6.313  1.4651 -0.7320  1.8392
 3206SOL    HW210518   4.122   6.445   6.328  0.8503  0.0203 -3.2241
 3207SOL     OW10519   2.959   0.942   3.205 -0.3429  0.0454 -0.4830
 3207SOL    HW110520   2.875   0.954   3.152 -0.2189  0.4693 -0.5904
 3207SOL    HW210521   2.990   0.848   3.197 -0.0473  0.2200 -1.5944
 3208SOL     OW10522   2.612   2.870   1.237  0.4365  0.1510  0.0450
 3208SOL    HW110523   2.585   2.774   1.233 -0.9212  0.5474 -1.3799
 3208SOL    HW210524   2.695   2.884   1.183  0.3881 -0.1472 -0.1079
 3209SOL     OW10525   5.063   0.381   5.775  0.2256  0.3947  0.3799
 3209SOL    HW110526   5.160   0.397   5.756  0.3713  0.2917  1.0165
 3209SOL    HW210527   5.011   0.465   5.757  0.3900  0.3761 -0.2055
 3210SOL     OW10528   4.614   5.267   1.206  0.6218  0.4854  0.7545
 3210SOL    HW110529   4.645   5.175   1.230 -1.6008 -0.2621  0.9828
 3210SOL    HW210530   4.611   5.276   1.106 -0.1390 -0.0730  0.7186
 3211SOL     OW10531   1.588   6.551   4.803  0.4649  0.2360 -0.1532
 3211SOL    HW110532   1.562   6.641   4.839 -0.2534  0.2632 -0.7242
 3211SOL    HW210533   1.612   6.558   4.707 -0.2556 -0.2878 -0.3848
 3212SOL     OW10534   2.609   5.950   3.197  0.3061  0.3514 -0.7791
 3212SOL    HW110535   2.647   5.892   3.125  1.6542  1.4564 -1.0110
 3212SOL    HW210536   2.614   6.046   3.169  0.1017  0.7462  0.4540
 3213SOL     OW10537   1.208   6.075   6.283 -0.3200 -0.0045 -0.0385
 3213SOL    HW110538   1.246   6.006   6.221 -1.4953  0.0112 -0.8251
 3213SOL    HW210539   1.245   6.165   6.261  0.0073 -0.1483 -0.0732
 3214SOL     OW10540   1.195   0.526   4.347 -0.0152 -0.0788  0.5859
 3214SOL    HW110541   1.095   0.532   4.356 -0.3185 -1.3460 -1.3247
 3214SOL    HW210542   1.231   0.469   4.421 -0.4783  1.6125  2.1833
 3215SOL     OW10543   1.164   2.809   1.869 -0.3846  0.6029  0.1173
 3215SOL    HW110544   1.224   2.848   1.799 -0.2676 -0.3572 -0.3446
 3215SOL    HW210545   1.172   2.862   1.953  1.4919  0.2231  0.2316
 3216SOL     OW10546   1.282   2.958   2.311 -0.2658 -0.6946 -0.5225
 3216SOL    HW110547   1.330   3.046   2.313 -2.5591  0.6484  1.3011
 3216SOL    HW210548   1.338   2.888   2.355  0.4358  0.5823  0.7032
 3217SOL     OW10549   6.204   6.307   2.947 -0.1245 -0.5388  0.0435
 3217SOL    HW110550   6.212   6.367   2.867 -2.9690 -1.4161 -1.0289
 3217SOL    HW210551   6.129   6.243   2.932 -1.2362 -0.2820  3.7379
 3218SOL     OW10552   5.117   2.886   2.141 -0.0675 -0.2215 -0.1701
 3218SOL    HW110553   5.026   2.914   2.172  0.1105 -0.4130  0.5623
 3218SOL    HW210554   5.138   2.795   2.176  0.3145 -0.2721 -0.5204
 3219SOL     OW10555   5.596   1.883   3.429 -0.6303 -0.0284 -0.1393
 3219SOL    HW110556   5.679   1.843   3.392 -0.8448  1.0522 -1.9393
 3219SOL    HW210557   5.618   1.934   3.513  0.4547 -0.0369 -0.4015
 3220SOL     OW10558   1.703   3.392   4.013 -0.3288 -0.9284 -0.6893
 3220SOL    HW110559   1.669   3.303   4.043  0.1346 -0.6873  0.5940
 3220SOL    HW210560   1.801   3.385   3.992  0.1516 -0.3554  1.1560
 3221SOL     OW10561   3.634   1.826   2.015 -0.4214  1.0339 -0.3303
 3221SOL    HW110562   3.689   1.875   1.947  1.4565 -1.9601 -1.1433
 3221SOL    HW210563   3.687   1.814   2.099 -0.2239 -0.7769 -0.6668
 3222SOL     OW10564   3.068   0.433   2.513 -0.9506  0.3903  0.3528
 3222SOL    HW110565   3.161   0.427   2.550 -1.3632  0.6882  1.4675
 3222SOL    HW210566   3.043   0.347   2.470 -1.0287 -0.5487  2.1881
 3223SOL     OW10567   2.707   6.114   1.660 -0.1568 -0.5833  0.4358
 3223SOL    HW110568   2.691   6.075   1.569  2.2858  0.8320 -0.7074
 3223SOL    HW210569   2.700   6.214   1.655 -1.0927 -0.5242  2.1084
 3224SOL     OW10570   5.582   2.215   2.521  0.1736 -0.4149  0.4038
 3224SOL    HW110571   5.608   2.311   2.535  1.9539 -0.9465  1.0252
 3224SOL    HW210572   5.544   2.179   2.607  1.4896 -0.8238  0.8404
 3225SOL     OW10573   2.101   0.194   4.305 -0.4018  0.1224 -0.3754
 3225SOL    HW110574   2.108   0.202   4.205 -1.9052  0.0561 -0.5092
 3225SOL    HW210575   2.088   0.284   4.345  1.7743  0.3414 -0.0602
 3226SOL     OW10576   4.319   6.753   1.449 -0.1130 -0.0264  0.2267
 3226SOL    HW110577   4.327   6.667   1.499  1.1339  0.5201  1.0182
 3226SOL    HW210578   4.223   6.781   1.447 -0.4079 -0.9477  0.7956
 3227SOL     OW10579   6.859   4.442   5.596  0.2156 -0.3305  0.2872
 3227SOL    HW110580   6.852   4.469   5.500  0.7566 -1.7637 -0.1816
 3227SOL    HW210581   6.801   4.502   5.652 -2.8746 -1.5694 -1.3408
 3228SOL     OW10582   3.481   5.676   0.465  0.0823 -0.2201  0.1611
 3228SOL    HW110583   3.412   5.614   0.503 -1.8038  1.5653 -0.2126
 3228SOL    HW210584   3.527   5.632   0.388 -0.0147 -1.7576  0.9510
 3229SOL     OW10585   1.065   1.016   1.097  0.1611  0.1969  0.0014
 3229SOL    HW110586   1.065   0.956   1.017 -0.1260 -0.6385  0.6135
 3229SOL    HW210587   0.974   1.057   1.108  0.3346  0.6968 -0.3695
 3230SOL     OW10588   6.091   0.563   5.148 -0.6237  0.5218  0.7967
 3230SOL    HW110589   6.118   0.637   5.086 -0.9717  0.6067  0.7455
 3230SOL    HW210590   6.009   0.518   5.113 -0.4020  0.0983  0.8206
 3231SOL     OW10591   2.996   0.503   3.019  0.4289  0.3937 -0.4404
 3231SOL    HW110592   2.961   0.562   3.092  0.8556 -1.0004  0.9516
 3231SOL    HW210593   3.095   0.493   3.030  0.3354 -0.7253 -0.5205
 3232SOL     OW10594   4.508   5.134   2.891 -0.2166 -0.1887  0.0121
 3232SOL    HW110595   4.546   5.128   2.984 -0.3448  0.1278  0.0854
 3232SOL    HW210596   4.477   5.227   2.873 -0.5726 -0.3445 -0.2009
 3233SOL     OW10597   0.499   6.839   3.098  0.6250  0.8345 -0.2529
 3233SOL    HW110598   0.449   6.923   3.117 -1.2983 -0.5118  0.9724
 3233SOL    HW210599   0.486   6.813   3.002  0.0719  1.1927 -0.2757
 3234SOL     OW10600   4.125   4.866   2.740 -0.3139 -0.4554  0.1452
 3234SOL    HW110601   4.179   4.931   2.794  1.8964 -0.5322 -1.8070
 3234SOL    HW210602   4.142   4.882   2.643 -1.0723 -2.8338 -0.4298
 3235SOL     OW10603   1.018   1.263   2.979 -0.4803 -0.6933  0.4554
 3235SOL    HW110604   0.922   1.289   2.986 -0.5331 -0.9484  0.7298
 3235SOL    HW210605   1.041   1.247   2.884 -0.1852  1.2908  0.1530
 3236SOL     OW10606   5.925   6.248   0.835  0.1136 -0.1616 -0.6040
 3236SOL    HW110607   6.004   6.200   0.796  1.4616  0.4832  1.1365
 3236SOL    HW210608   5.854   6.182   0.858  0.7040 -0.9530 -0.9843
 3237SOL     OW10609   5.363   2.664   6.523  0.2178  0.4467 -0.3327
 3237SOL    HW110610   5.321   2.573   6.525  2.5890 -0.7399 -0.5732
 3237SOL    HW210611   5.415   2.674   6.438  1.7368  1.1460  0.6283
 3238SOL     OW10612   1.220   6.377   0.323  0.6219 -0.6067 -0.3807
 3238SOL    HW110613   1.151   6.414   0.261 -0.1331 -1.9760 -0.3802
 3238SOL    HW210614   1.247   6.286   0.293  3.0225  0.1709 -0.8244
 3239SOL     OW10615   0.032   0.445   5.446 -0.8767 -0.3720  0.5702
 3239SOL    HW110616   0.065   0.428   5.539  1.8438 -0.3937 -0.2871
 3239SOL    HW210617   0.098   0.408   5.380 -2.6507 -0.2402 -1.3995
 3240SOL     OW10618   2.193   1.082   2.019 -0.1935  0.3989  0.5033
 3240SOL    HW110619   2.264   1.028   2.065 -1.5559  0.5221  2.9654
 3240SOL    HW210620   2.215   1.180   2.027  0.2025  0.3768 -0.2666
 3241SOL     OW10621   0.430   1.626   4.956  0.4849  0.1709  0.2784
 3241SOL    HW110622   0.430   1.724   4.939  0.7151  0.2722  0.8337
 3241SOL    HW210623   0.455   1.609   5.051 -1.0087 -0.3508  0.6075
 3242SOL     OW10624   5.066   5.219   5.068 -0.2433  0.2254  0.0791
 3242SOL    HW110625   5.010   5.164   5.130 -0.4242  1.8560  1.4091
 3242SOL    HW210626   5.145   5.256   5.117  1.6865 -1.4499 -1.5999
 3243SOL     OW10627   5.558   5.749   6.485  0.8097 -0.4346 -1.0281
 3243SOL    HW110628   5.575   5.717   6.392  2.2010 -0.4041 -0.7998
 3243SOL    HW210629   5.469   5.795   6.488  1.0611  0.2223 -2.5129
 3244SOL     OW10630   3.705   0.842   6.203  0.1019  0.3754 -1.1429
 3244SOL    HW110631   3.758   0.760   6.182  0.7028  0.6190 -0.6381
 3244SOL    HW210632   3.612   0.832   6.168  0.0608 -0.6642 -0.7788
 3245SOL     OW10633   0.889   6.858   6.427  0.6239 -0.0450 -0.2400
 3245SOL    HW110634   0.916   6.921   6.499  1.4673 -0.7577  0.0896
 3245SOL    HW210635   0.862   6.770   6.467  0.8225 -0.3521 -0.7685
 3246SOL     OW10636   6.570   4.035   5.296  0.1657 -0.6089 -0.0999
 3246SOL    HW110637   6.501   3.968   5.271 -0.7858  0.0825  0.5908
 3246SOL    HW210638   6.638   3.992   5.356 -0.8016 -0.8193  0.8839
 3247SOL     OW10639   2.211   4.111   3.456  0.0924 -0.1750 -0.3732
 3247SOL    HW110640   2.152   4.157   3.390  1.1411  0.2481 -1.0524
 3247SOL    HW210641   2.278   4.176   3.492  0.0218 -0.5896  0.5395
 3248SOL     OW10642   6.078   2.519   3.278 -0.0881 -0.0379  0.8636
 3248SOL    HW110643   5.997   2.547   3.226 -0.3959  0.2479  1.4974
 3248SOL    HW210644   6.148   2.590   3.272  0.5667 -0.7500 -0.6046
 3249SOL     OW10645   3.887   3.960   3.618 -0.1068  0.4490 -0.2167
 3249SOL    HW110646   3.983   3.962   3.645  0.2499  0.6969 -1.4397
 3249SOL    HW210647   3.841   3.885   3.665  1.0633 -0.6770 -0.8025
 3250SOL     OW10648   4.768   5.168   4.050 -0.4883  0.2048 -0.7437
 3250SOL    HW110649   4.800   5.248   4.101  1.7101 -1.5501  0.8254
 3250SOL    HW210650   4.668   5.163   4.056 -0.5069  1.5583  1.0997
 3251SOL     OW10651   2.607   1.241   2.875  0.1145  0.5228 -0.2275
 3251SOL    HW110652   2.531   1.295   2.840 -0.4407 -0.8544 -1.1865
 3251SOL    HW210653   2.597   1.231   2.974 -1.3307 -0.2044 -0.4219
 3252SOL     OW10654   1.257   1.246   0.573  0.4337  0.2415  0.0489
 3252SOL    HW110655   1.227   1.288   0.659  1.3616 -0.8890  0.9528
 3252SOL    HW210656   1.179   1.241   0.510 -0.4066  0.5536  1.0317
 3253SOL     OW10657   1.978   3.329   6.701 -0.0771 -0.0016  0.8866
 3253SOL    HW110658   1.920   3.387   6.759  0.6933  0.0501  1.6292
 3253SOL    HW210659   2.045   3.385   6.653 -0.5343 -0.0775  0.1397
 3254SOL     OW10660   5.391   6.573   6.922  0.6727  0.0943  0.5473
 3254SOL    HW110661   5.444   6.494   6.890  1.8955  0.9945  0.2981
 3254SOL    HW210662   5.316   6.541   6.981 -1.3882 -1.6122 -2.6886
 3255SOL     OW10663   4.302   4.745   0.827  0.2276 -0.3461  0.1660
 3255SOL    HW110664   4.246   4.794   0.761 -0.4169  0.1160  1.0354
 3255SOL    HW210665   4.243   4.697   0.892  0.6481  2.5335  2.9517
 3256SOL     OW10666   4.303   2.548   1.312 -0.0784 -0.6604 -0.4368
 3256SOL    HW110667   4.223   2.488   1.307 -0.8577  0.2411  0.7515
 3256SOL    HW210668   4.275   2.643   1.300  1.0572 -0.4388 -1.6152
 3257SOL     OW10669   0.410   2.548   1.661  0.1951 -0.1565 -0.1126
 3257SOL    HW110670   0.352   2.584   1.734  0.3267 -0.1470 -0.0132
 3257SOL    HW210671   0.465   2.621   1.622  2.3365 -0.6366  1.7752
 3258SOL     OW10672   6.499   5.960   4.282  0.6919  0.3398  0.0041
 3258SOL    HW110673   6.539   5.872   4.308 -0.5196  0.7207  3.7314
 3258SOL    HW210674   6.429   5.946   4.213  0.8205 -1.5627  0.2204
 3259SOL     OW10675   6.459   5.933   1.500  0.6194  0.0451  0.4769
 3259SOL    HW110676   6.515   5.878   1.438 -0.3528 -0.7043  0.2366
 3259SOL    HW210677   6.378   5.881   1.526  2.2328 -0.8084  4.5579
 3260SOL     OW10678   3.616   5.467   3.325  1.2105  0.0129 -0.7045
 3260SOL    HW110679   3.523   5.439   3.348  0.8147  2.4654  1.0327
 3260SOL    HW210680   3.681   5.397   3.356  0.2198  0.2787  2.2717
 3261SOL     OW10681   5.119   1.625   5.029  0.1771  0.3177  0.2055
 3261SOL    HW110682   5.026   1.590   5.038 -0.1312  1.6360  3.8117
 3261SOL    HW210683   5.122   1.691   4.954 -2.1070  1.1136  0.7242
 3262SOL     OW10684   5.166   0.935   3.607 -0.2968 -0.0680 -0.0068
 3262SOL    HW110685   5.073   0.963   3.632  0.1227  1.5680 -0.1739
 3262SOL    HW210686   5.219   0.916   3.690  0.0667  1.9443  0.2776
 3263SOL     OW10687   4.880   1.533   6.692  0.1947  0.2618 -0.0558
 3263SOL    HW110688   4.807   1.540   6.760 -1.3836 -0.6929 -1.5530
 3263SOL    HW210689   4.928   1.447   6.703  1.2416  0.9497  1.0176
 3264SOL     OW10690   0.848   5.390   5.516  0.3938  1.1921 -0.3494
 3264SOL    HW110691   0.869   5.469   5.459 -0.4075  1.5367 -0.1803
 3264SOL    HW210692   0.785   5.329   5.467  0.1992  1.1780 -0.0889
 3265SOL     OW10693   6.876   6.168   5.324  0.5176 -0.1886  0.0674
 3265SOL    HW110694   6.950   6.122   5.372  1.8790  0.0053 -1.7156
 3265SOL    HW210695   6.851   6.115   5.243 -2.0097 -0.7376  1.1002
 3266SOL     OW10696   2.073   6.342   6.503  0.1433 -0.1406  0.2233
 3266SOL    HW110697   2.168   6.337   6.473 -0.0519 -0.5191 -0.3431
 3266SOL    HW210698   2.056   6.432   6.544  0.8510 -0.2247  0.7170
 3267SOL     OW10699   2.721   2.404   6.531 -0.5088  1.0082  0.4072
 3267SOL    HW110700   2.747   2.308   6.539 -1.6183  0.7902  1.7952
 3267SOL    HW210701   2.636   2.420   6.582 -1.1702  2.4094 -1.0596
 3268SOL     OW10702   5.251   3.472   4.273  0.5842 -0.1933 -0.5749
 3268SOL    HW110703   5.262   3.380   4.234 -2.0148 -0.6633 -0.4134
 3268SOL    HW210704   5.153   3.490   4.287  1.0004  2.7788 -0.9481
 3269SOL     OW10705   1.310   0.044   0.369  0.2651  0.1664  0.6313
 3269SOL    HW110706   1.251   0.078   0.442  0.3815  0.7846  0.4401
 3269SOL    HW210707   1.376   0.114   0.343  1.4247 -0.6875  1.1813
 3270SOL     OW10708   2.207   3.150   5.716  0.2567 -0.2122 -0.2342
 3270SOL    HW110709   2.125   3.110   5.756 -0.1342  0.7062 -0.1073
 3270SOL    HW210710   2.211   3.128   5.619 -0.6722  0.5830 -0.4656
 3271SOL     OW10711   6.424   4.148   0.896  0.8617  0.0765 -0.5986
 3271SOL    HW110712   6.413   4.163   0.798 -1.5031 -2.7905 -0.8864
 3271SOL    HW210713   6.447   4.052   0.913 -1.8618 -0.2872  1.7424
 3272SOL     OW10714   1.901   1.051   0.573 -0.2462  0.2048  0.1152
 3272SOL    HW110715   1.914   1.146   0.545  1.1156 -0.4497 -1.6857
 3272SOL    HW210716   1.950   1.033   0.658 -0.3009  1.0422  0.3273
 3273SOL     OW10717   4.089   3.237   0.139  0.3712 -0.1455  0.0019
 3273SOL    HW110718   4.042   3.148   0.132  0.5176 -0.4199  2.0620
 3273SOL    HW210719   4.023   3.308   0.163  0.3798  0.2009 -0.9462
 3274SOL     OW10720   5.207   0.365   0.313  0.5195  0.4976 -0.0088
 3274SOL    HW110721   5.207   0.265   0.313  0.0629  0.4969  0.1915
 3274SOL    HW210722   5.194   0.398   0.406  1.2309  0.7494  0.0088
 3275SOL     OW10723   4.903   6.931   1.671 -0.1283  0.0543  0.6909
 3275SOL    HW110724   4.869   7.022   1.696 -0.3437 -0.0080  0.6325
 3275SOL    HW210725   4.864   6.905   1.583  0.7476  0.3408  0.2092
 3276SOL     OW10726   0.051   5.344   1.939  0.4974  0.0107  0.2326
 3276SOL    HW110727   0.101   5.430   1.949  0.5728  0.0057 -0.0731
 3276SOL    HW210728   0.029   5.307   2.029  1.4691 -0.2332  0.3809
 3277SOL     OW10729   3.586   1.832   2.572  0.0126  0.9300  0.2630
 3277SOL    HW110730   3.612   1.852   2.666 -2.4998  0.3452  1.1377
 3277SOL    HW210731   3.580   1.733   2.559  3.0422  0.8053 -1.3936
 3278SOL     OW10732   4.433   1.309   6.097 -0.5805  0.1750  0.3742
 3278SOL    HW110733   4.393   1.398   6.074 -1.1480  0.1082  1.0765
 3278SOL    HW210734   4.393   1.275   6.182  2.6528  1.2270  2.4958
 3279SOL     OW10735   3.242   0.773   0.846  0.4999 -0.4146  0.4026
 3279SOL    HW110736   3.280   0.834   0.915  0.2478 -1.1298  1.1982
 3279SOL    HW210737   3.190   0.826   0.780  0.2761  0.2327  1.0821
 3280SOL     OW10738   6.122   1.204   4.134 -0.2098  0.1371  0.2232
 3280SOL    HW110739   6.183   1.282   4.145 -0.6339  0.3642  1.1341
 3280SOL    HW210740   6.174   1.123   4.106  0.4425  0.4146  0.6303
 3281SOL     OW10741   5.483   3.363   3.201 -0.1870 -0.2464 -0.3042
 3281SOL    HW110742   5.498   3.434   3.133 -0.6073  0.3538  0.2178
 3281SOL    HW210743   5.396   3.316   3.182 -1.0275  0.8695  0.6036
 3282SOL     OW10744   0.640   4.463   4.296  1.0729  0.0223 -0.4229
 3282SOL    HW110745   0.573   4.391   4.279  0.7332  0.3617 -0.5249
 3282SOL    HW210746   0.610   4.519   4.374  2.7773 -1.7435  1.6351
 3283SOL     OW10747   4.165   1.693   0.512 -0.3679  0.2130  0.1210
 3283SOL    HW110748   4.096   1.670   0.444 -2.0627 -0.5532  1.9818
 3283SOL    HW210749   4.128   1.761   0.575  0.1991 -0.8714  1.6940
 3284SOL     OW10750   1.003   6.088   6.463 -0.0647  0.0424  0.3545
 3284SOL    HW110751   1.057   6.117   6.385 -3.0855  0.5017 -1.7295
 3284SOL    HW210752   0.953   6.004   6.441 -1.4775  0.5269  1.5086
 3285SOL     OW10753   4.308   2.292   4.522  0.1723 -0.0695 -0.2315
 3285SOL    HW110754   4.209   2.290   4.506 -0.3645  2.2232  2.2251
 3285SOL    HW210755   4.326   2.289   4.620  2.4744  1.2151 -0.5501
 3286SOL     OW10756   0.641   2.352   4.942 -0.1709  0.1301 -0.1338
 3286SOL    HW110757   0.632   2.263   4.897  0.0905  0.1076 -0.1459
 3286SOL    HW210758   0.598   2.349   5.033  2.1040 -0.8316  0.9913
 3287SOL     OW10759   3.536   2.163   1.740  0.1364 -0.2138 -0.5800
 3287SOL    HW110760   3.570   2.075   1.708 -0.1062  0.0736 -1.6856
 3287SOL    HW210761   3.611   2.218   1.775  0.6110 -0.1200 -1.7022
 3288SOL     OW10762   3.293   6.354   1.751 -0.3683 -0.4155 -0.2090
 3288SOL    HW110763   3.365   6.322   1.689 -0.5889  0.1968 -0.7951
 3288SOL    HW210764   3.209   6.303   1.735  0.0485 -1.4431  0.7892
 3289SOL     OW10765   5.239   0.337   6.696 -0.0183  0.1622 -0.0628
 3289SOL    HW110766   5.238   0.263   6.628  0.0109 -0.8163  0.9676
 3289SOL    HW210767   5.202   0.420   6.655  1.1486 -0.0520 -1.6434
 3290SOL     OW10768   6.914   3.395   0.763 -0.3187  0.4226  0.3198
 3290SOL    HW110769   7.005   3.417   0.729 -0.6945  1.5609  0.0246
 3290SOL    HW210770   6.903   3.432   0.856  0.2107 -1.4669  1.1928
 3291SOL     OW10771   4.753   0.502   5.431 -0.4591 -0.2139  0.6257
 3291SOL    HW110772   4.843   0.462   5.445 -0.8379 -1.9150 -1.1981
 3291SOL    HW210773   4.759   0.602   5.436  1.6609 -0.2560 -0.0965
 3292SOL     OW10774   1.545   1.805   1.760 -0.3580 -0.3995 -0.0002
 3292SOL    HW110775   1.525   1.893   1.802  1.7717 -0.3775  1.1016
 3292SOL    HW210776   1.535   1.732   1.828  0.9972 -0.6212 -0.0123
 3293SOL     OW10777   6.375   4.526   1.649  0.3169 -0.1478  0.7272
 3293SOL    HW110778   6.341   4.587   1.577 -0.6015 -0.0214  1.2571
 3293SOL    HW210779   6.413   4.443   1.607  1.6410  0.7857 -0.0093
 3294SOL     OW10780   2.665   3.101   6.537 -0.2397  0.0184 -0.0680
 3294SOL    HW110781   2.728   3.086   6.613  0.6219  0.6705 -0.6173
 3294SOL    HW210782   2.580   3.140   6.571  0.2086  0.4838  0.5466
 3295SOL     OW10783   2.692   5.520   2.143 -0.5603  0.5487 -0.4256
 3295SOL    HW110784   2.742   5.606   2.140  0.8569 -0.1803  0.7821
 3295SOL    HW210785   2.741   5.455   2.202 -0.8173 -1.5904 -2.4242
 3296SOL     OW10786   1.562   6.397   6.298 -0.2588 -0.4723 -0.0671
 3296SOL    HW110787   1.633   6.404   6.368  0.1075  0.4230 -0.5156
 3296SOL    HW210788   1.503   6.478   6.301 -0.6470 -0.7348 -0.3620
 3297SOL     OW10789   1.752   6.772   5.777 -0.1252  0.0367 -0.3029
 3297SOL    HW110790   1.808   6.765   5.695 -2.1283 -1.7706 -1.6365
 3297SOL    HW210791   1.804   6.738   5.855  0.8598 -1.0415 -1.3823
 3298SOL     OW10792   3.397   3.630   5.366 -0.4253  0.2467  0.3753
 3298SOL    HW110793   3.451   3.695   5.314 -1.1418  1.4416  1.0796
 3298SOL    HW210794   3.432   3.624   5.459  1.4130 -2.5467 -0.3591
 3299SOL     OW10795   1.199   6.599   6.181 -0.2917 -0.1224 -0.1426
 3299SOL    HW110796   1.169   6.586   6.087  0.8667  1.7275 -0.8281
 3299SOL    HW210797   1.237   6.513   6.216  0.6708 -0.4722 -1.9153
 3300SOL     OW10798   2.695   0.246   1.910 -0.3096 -0.7863  0.1388
 3300SOL    HW110799   2.788   0.215   1.889 -0.3755 -0.9596  0.0995
 3300SOL    HW210800   2.661   0.197   1.990 -0.1845 -0.3680  0.4506
 3301SOL     OW10801   1.434   0.210   1.847 -0.5645  0.1126  0.5098
 3301SOL    HW110802   1.454   0.250   1.937  1.3471 -0.2077  0.2715
 3301SOL    HW210803   1.335   0.204   1.835 -0.8884  1.6915  1.9021
 3302SOL     OW10804   6.723   6.787   5.265  0.3753 -0.6039 -0.4230
 3302SOL    HW110805   6.741   6.740   5.351 -0.9106  0.6746  0.6161
 3302SOL    HW210806   6.659   6.734   5.210 -0.8689 -0.2352  0.6221
 3303SOL     OW10807   4.309   2.974   6.697  0.5188 -0.0295 -0.0194
 3303SOL    HW110808   4.324   2.882   6.732  1.6804  0.0229 -0.3406
 3303SOL    HW210809   4.212   2.985   6.673  0.1850 -0.8482  0.8744
 3304SOL     OW10810   2.985   4.382   0.101 -0.0385 -0.0372 -0.3166
 3304SOL    HW110811   2.909   4.317   0.097  0.2224 -0.4099  0.6024
 3304SOL    HW210812   2.965   4.451   0.170 -0.5407  1.1815 -1.6193
 3305SOL     OW10813   3.872   3.883   5.076  0.2082 -0.3533 -0.3724
 3305SOL    HW110814   3.919   3.832   5.148 -0.7760 -0.0823  0.4804
 3305SOL    HW210815   3.844   3.821   5.003  2.8277 -0.3910 -1.4922
 3306SOL     OW10816   2.346   2.875   0.126  0.1059 -0.1636  0.5084
 3306SOL    HW110817   2.372   2.875   0.223  1.1778  1.6494  0.2809
 3306SOL    HW210818   2.252   2.908   0.117 -0.9048 -2.7037  1.0572
 3307SOL     OW10819   0.239   5.506   4.786  0.1414 -0.0597 -0.0801
 3307SOL    HW110820   0.264   5.603   4.792  1.3074 -0.4044  0.8737
 3307SOL    HW210821   0.297   5.461   4.718  1.1639 -0.5498  1.0900
 3308SOL     OW10822   5.671   6.102   2.342  0.1912 -0.0715 -0.7191
 3308SOL    HW110823   5.628   6.180   2.297 -1.4296 -1.4815 -1.7742
 3308SOL    HW210824   5.631   6.089   2.433  2.1867  1.7023  0.4929
 3309SOL     OW10825   5.540   2.162   4.066 -0.0393 -0.3661 -0.3199
 3309SOL    HW110826   5.621   2.122   4.023 -0.2109 -0.4056 -0.6039
 3309SOL    HW210827   5.568   2.213   4.148  0.2849 -0.2954 -0.4738
 3310SOL     OW10828   6.260   4.421   6.882  0.8547  0.9048  0.2641
 3310SOL    HW110829   6.238   4.431   6.785  0.2709  0.4113  0.3348
 3310SOL    HW210830   6.295   4.507   6.918 -0.6699  1.6266  0.0586
 3311SOL     OW10831   0.724   4.855   2.562  0.5662 -0.1186  0.0777
 3311SOL    HW110832   0.661   4.839   2.486 -0.4341  1.6690  0.4792
 3311SOL    HW210833   0.713   4.783   2.630 -1.4930  0.4393  0.4029
 3312SOL     OW10834   5.817   3.465   0.140  0.0396  0.0163  0.6675
 3312SOL    HW110835   5.855   3.447   0.230 -0.2079  0.4649  0.8676
 3312SOL    HW210836   5.723   3.498   0.149  0.3447  1.0482  0.3155
 3313SOL     OW10837   0.072   0.054   3.776  0.4484 -0.3913  0.2187
 3313SOL    HW110838   0.052   0.115   3.853  0.1314  0.1179 -0.2565
 3313SOL    HW210839   0.133  -0.020   3.807  1.1583  0.3772  0.7223
 3314SOL     OW10840   2.436   5.738   3.256  0.2841 -0.6425 -0.5870
 3314SOL    HW110841   2.388   5.744   3.343 -3.8733 -0.9578 -2.6013
 3314SOL    HW210842   2.480   5.826   3.236 -0.0889 -0.0422  1.0848
 3315SOL     OW10843   0.021   5.841   5.888 -0.3238  0.4462 -0.5687
 3315SOL    HW110844   0.078   5.850   5.969 -1.3257 -0.6111  0.2998
 3315SOL    HW210845   0.057   5.899   5.815 -0.4280  2.8596  1.1749
 3316SOL     OW10846   3.999   1.840   0.689  0.0278 -0.0054 -0.2682
 3316SOL    HW110847   4.000   1.921   0.631 -1.0828 -0.2690 -0.6887
 3316SOL    HW210848   3.957   1.862   0.777  0.7775  0.1458  0.0575
 3317SOL     OW10849   4.917   1.041   1.271  0.3622 -0.3980  0.2183
 3317SOL    HW110850   4.945   1.136   1.257  1.0800 -0.7723 -0.9510
 3317SOL    HW210851   4.821   1.031   1.243  0.2836 -0.0254  0.3408
 3318SOL     OW10852   4.137   2.600   0.493  0.1278  0.1122  0.2417
 3318SOL    HW110853   4.144   2.501   0.496  0.1041  0.0814 -0.4047
 3318SOL    HW210854   4.139   2.638   0.585  2.4043 -0.3224  0.4092
 3319SOL     OW10855   6.181   6.653   4.611 -0.0817 -0.5587  0.0582
 3319SOL    HW110856   6.117   6.727   4.592 -1.3936 -1.1656  1.7887
 3319SOL    HW210857   6.242   6.640   4.533 -1.7514  0.3577 -1.4760
 3320SOL     OW10858   5.355   0.492   1.766 -0.2938  0.7503  0.3942
 3320SOL    HW110859   5.425   0.561   1.746 -0.2038  0.5699  0.0669
 3320SOL    HW210860   5.386   0.403   1.732 -0.0701  0.3972  1.4853
 3321SOL     OW10861   3.931   0.240   1.595 -0.6440  0.5395 -0.2299
 3321SOL    HW110862   3.907   0.280   1.683 -1.8303  0.1607 -0.3613
 3321SOL    HW210863   4.014   0.185   1.605 -1.2509 -0.2112  0.8589
 3322SOL     OW10864   0.231   2.642   6.650 -0.3675  0.1878 -0.1475
 3322SOL    HW110865   0.142   2.601   6.672  0.6453 -1.6858  0.6646
 3322SOL    HW210866   0.231   2.738   6.678 -1.8161 -0.0390  0.7320
 3323SOL     OW10867   1.039   1.864   3.448 -0.2653  0.0087 -0.2668
 3323SOL    HW110868   1.021   1.781   3.395 -0.8553 -0.7078  0.9898
 3323SOL    HW210869   1.122   1.851   3.503  0.0123  0.5111 -0.5654
 3324SOL     OW10870   6.068   5.435   6.203  0.0866  0.2343 -0.2687
 3324SOL    HW110871   6.100   5.524   6.172  0.0857  0.2587 -0.1990
 3324SOL    HW210872   5.978   5.444   6.245  0.2033  0.2417 -0.0213
 3325SOL     OW10873   2.159   6.313   5.827 -0.1114  0.3031 -0.0805
 3325SOL    HW110874   2.079   6.258   5.850 -0.2131  0.7389  0.6249
 3325SOL    HW210875   2.232   6.296   5.894  0.6050 -0.5247 -1.0413
 3326SOL     OW10876   3.738   6.849   0.724 -0.1659  0.3339  0.0650
 3326SOL    HW110877   3.648   6.862   0.683 -0.5112  0.2893  0.8085
 3326SOL    HW210878   3.807   6.888   0.663 -0.8031  1.5917  0.1029
 3327SOL     OW10879   1.211   5.219   6.413  0.2068 -0.7138  0.0715
 3327SOL    HW110880   1.182   5.309   6.381  0.1650 -0.7524  0.0002
 3327SOL    HW210881   1.274   5.178   6.347  3.1417  0.7736  1.7577
 3328SOL     OW10882   2.948   4.514   5.872 -0.3485 -0.2896  0.1235
 3328SOL    HW110883   2.891   4.485   5.796  0.0808 -2.4375  0.5606
 3328SOL    HW210884   2.929   4.458   5.952  1.9119 -0.6628  0.4596
 3329SOL     OW10885   0.120   6.591   6.645 -0.0129  0.1212  0.1566
 3329SOL    HW110886   0.185   6.549   6.581  0.2371 -1.2057  1.2466
 3329SOL    HW210887   0.103   6.686   6.617  0.6495 -0.1930 -1.4383
 3330SOL     OW10888   0.319   3.977   4.884  0.1449 -0.5808 -0.1849
 3330SOL    HW110889   0.225   3.980   4.852  0.6658 -0.7768 -1.8452
 3330SOL    HW210890   0.368   4.057   4.851  0.6206 -0.5754  0.5010
 3331SOL     OW10891   2.370   4.052   1.822  0.2203 -0.9569 -0.0771
 3331SOL    HW110892   2.303   3.983   1.794 -0.6886  0.0638 -0.4869
 3331SOL    HW210893   2.334   4.104   1.899  0.6728 -0.5978 -0.1014
 3332SOL     OW10894   6.510   3.102   1.766  0.1872  0.8903  0.5087
 3332SOL    HW110895   6.566   3.175   1.805  0.6081  0.2513  1.1248
 3332SOL    HW210896   6.538   3.014   1.805  0.3514  0.2759 -0.9405
 3333SOL     OW10897   2.257   5.227   5.064 -0.1712 -0.0798 -0.3207
 3333SOL    HW110898   2.301   5.287   5.130 -1.8885 -0.5351  1.2991
 3333SOL    HW210899   2.182   5.275   5.019 -0.1314 -0.3273 -0.6630
 3334SOL     OW10900   1.337   2.704   0.281  0.5071 -0.2083  0.3199
 3334SOL    HW110901   1.429   2.691   0.319  0.1640  1.9347  2.0863
 3334SOL    HW210902   1.339   2.777   0.213  0.0016  0.3663  0.9137
 3335SOL     OW10903   4.940   5.847   5.146 -0.2516 -0.5103 -0.0336
 3335SOL    HW110904   4.926   5.901   5.064 -0.3417 -0.2841  0.1295
 3335SOL    HW210905   5.027   5.797   5.140  1.0136  1.4758  0.8151
 3336SOL     OW10906   2.055   0.676   4.018  1.3426 -0.1422  0.0713
 3336SOL    HW110907   2.074   0.616   4.096 -0.2578  0.4248  0.9462
 3336SOL    HW210908   2.138   0.725   3.993  1.8396 -0.1713  1.5631
 3337SOL     OW10909   5.385   2.683   0.092  0.2927 -0.1534  0.2979
 3337SOL    HW110910   5.443   2.604   0.110  1.4436  0.9219  1.6012
 3337SOL    HW210911   5.409   2.723   0.004 -0.9874 -1.7750 -0.8586
 3338SOL     OW10912   6.170   4.753   1.188  0.0963  0.0803  0.3198
 3338SOL    HW110913   6.097   4.746   1.256 -1.5379  0.3852 -1.3344
 3338SOL    HW210914   6.168   4.674   1.128  1.9285 -0.4938  0.9540
 3339SOL     OW10915   0.617   3.752   0.175 -0.4512 -0.0682  0.3364
 3339SOL    HW110916   0.652   3.659   0.180  1.9431  0.4984 -2.6484
 3339SOL    HW210917   0.572   3.766   0.087  0.1654  1.8088  0.2660
 3340SOL     OW10918   3.036   0.725   1.845  0.2095 -0.7061  0.6576
 3340SOL    HW110919   3.059   0.803   1.903  0.1989 -1.4605  1.6993
 3340SOL    HW210920   3.053   0.749   1.749  0.0328  0.6238  0.9437
 3341SOL     OW10921   1.927   0.954   0.039  0.3045 -0.2930 -0.3458
 3341SOL    HW110922   1.971   0.914  -0.041 -0.1669  1.4771 -1.5629
 3341SOL    HW210923   1.995   0.998   0.097  0.3099  2.1860 -2.0715
 3342SOL     OW10924   2.556   0.458   5.286 -0.0909  0.2660 -0.0045
 3342SOL    HW110925   2.525   0.375   5.240  0.0161  0.1680  0.0969
 3342SOL    HW210926   2.557   0.442   5.385  1.4136 -0.1333 -0.0542
 3343SOL     OW10927   1.068   3.698   1.369 -0.3673 -0.1947 -0.1819
 3343SOL    HW110928   1.072   3.783   1.421  1.5895 -0.2093 -0.2126
 3343SOL    HW210929   1.052   3.622   1.431  0.2401 -0.0306  0.1905
 3344SOL     OW10930   2.114   2.114   6.916 -0.6646  0.0429 -0.1366
 3344SOL    HW110931   2.101   2.083   6.821 -1.7538  2.0763 -0.7187
 3344SOL    HW210932   2.044   2.181   6.939 -0.0130  0.0969  1.9165
 3345SOL     OW10933   2.235   4.178   1.387 -0.2423 -0.1352 -1.0980
 3345SOL    HW110934   2.257   4.245   1.458 -1.6733  0.8734 -1.5694
 3345SOL    HW210935   2.243   4.086   1.425  0.0062  0.3489  0.0731
 3346SOL     OW10936   3.259   5.938   3.662 -1.0067 -0.5565 -0.4388
 3346SOL    HW110937   3.292   6.031   3.679 -0.6239 -0.9544  1.1916
 3346SOL    HW210938   3.280   5.912   3.567 -2.6420  1.5860 -1.4770
 3347SOL     OW10939   5.683   3.825   3.854 -0.1991  0.1890  0.4355
 3347SOL    HW110940   5.741   3.878   3.916  2.0568  0.9862 -2.1075
 3347SOL    HW210941   5.593   3.868   3.846  0.2075  1.2790  1.5103
 3348SOL     OW10942   3.074   3.064   3.578 -0.2542 -0.0699  0.6682
 3348SOL    HW110943   3.049   3.125   3.654 -2.3048 -0.3520  0.2744
 3348SOL    HW210944   2.992   3.041   3.525  0.8148 -1.4920 -0.4522
 3349SOL     OW10945   6.057   2.926   1.051  0.3507  0.1561 -0.0076
 3349SOL    HW110946   6.077   2.929   1.149  0.7685  0.2480 -0.0936
 3349SOL    HW210947   6.058   2.831   1.019 -0.3534  0.0803  0.1910
 3350SOL     OW10948   4.539   3.012   1.153 -0.4500  0.9499 -0.2254
 3350SOL    HW110949   4.500   3.048   1.237 -0.2801  0.5545  0.0251
 3350SOL    HW210950   4.594   3.082   1.108  0.1728  0.8938  0.4388
 3351SOL     OW10951   5.848   4.316   5.542 -0.3869  0.1269 -0.5138
 3351SOL    HW110952   5.945   4.293   5.531 -0.2364 -0.9847  2.2087
 3351SOL    HW210953   5.810   4.344   5.454  2.4296  0.8035 -1.6372
 3352SOL     OW10954   1.118   4.365   0.538 -0.3938 -0.6900 -0.6571
 3352SOL    HW110955   1.136   4.318   0.624  2.6158  0.6672 -0.4003
 3352SOL    HW210956   1.075   4.453   0.556  0.8217 -0.1228 -0.4310
 3353SOL     OW10957   0.420   0.145   5.790  0.3421 -0.0720 -0.2255
 3353SOL    HW110958   0.483   0.079   5.748  1.6449  1.2112 -0.3583
 3353SOL    HW210959   0.403   0.119   5.885  0.0403 -1.1325 -0.5536
 3354SOL     OW10960   0.649   5.833   2.874 -0.8048  0.1709  0.2876
 3354SOL    HW110961   0.598   5.869   2.795 -1.0072  0.5338  0.5781
 3354SOL    HW210962   0.653   5.903   2.945  0.9922  0.5203 -0.1205
 3355SOL     OW10963   6.391   2.800   3.053  0.0686  0.2418 -0.4422
 3355SOL    HW110964   6.484   2.825   3.027  0.0572  0.0369 -0.6840
 3355SOL    HW210965   6.327   2.826   2.981  0.1131 -0.8828 -0.9171
 3356SOL     OW10966   2.422   5.256   0.264 -0.0853 -0.0003 -0.3655
 3356SOL    HW110967   2.331   5.218   0.279 -0.7620  1.2267 -1.1702
 3356SOL    HW210968   2.491   5.185   0.277 -1.2826 -1.4950 -1.8843
 3357SOL     OW10969   2.275   6.283   3.430  0.4569  0.4588 -0.2278
 3357SOL    HW110970   2.284   6.342   3.350  2.4556 -0.0850 -0.4482
 3357SOL    HW210971   2.277   6.187   3.400  0.9402  0.2531  0.4514
 3358SOL     OW10972   1.061   5.101   3.051  0.5377  0.2618  0.1951
 3358SOL    HW110973   1.094   5.008   3.069 -0.5773 -0.3231 -0.7144
 3358SOL    HW210974   1.051   5.115   2.952 -0.0378  1.0954  0.3590
 3359SOL     OW10975   1.986   3.572   0.066  0.3691 -0.3337  0.5777
 3359SOL    HW110976   2.014   3.509   0.139  1.5441 -1.3690 -0.7161
 3359SOL    HW210977   2.067   3.611   0.024 -0.1215 -1.7760 -1.8815
 3360SOL     OW10978   2.302   2.563   0.340  0.0579 -0.6733 -0.4720
 3360SOL    HW110979   2.366   2.553   0.263  0.1023  1.2550 -0.7355
 3360SOL    HW210980   2.282   2.660   0.354 -1.0718 -1.0932  1.0586
 3361SOL     OW10981   2.458   1.704   0.555 -0.5712  0.4084  0.2657
 3361SOL    HW110982   2.534   1.758   0.520 -0.5411  0.0439 -0.2379
 3361SOL    HW210983   2.382   1.764   0.579 -1.0810  0.5755 -1.6459
 3362SOL     OW10984   4.244   1.613   4.428  0.1666 -0.2507 -0.3339
 3362SOL    HW110985   4.177   1.637   4.498  0.4018  0.2287 -0.2674
 3362SOL    HW210986   4.197   1.583   4.345 -0.1166 -0.5756 -0.0581
 3363SOL     OW10987   6.428   5.889   0.241  0.1873 -0.3957  0.6651
 3363SOL    HW110988   6.470   5.913   0.328 -1.9132 -1.5678  2.0834
 3363SOL    HW210989   6.496   5.848   0.181  1.5185 -0.2863  2.0546
 3364SOL     OW10990   2.440   6.104   5.045 -0.2572 -0.7874  0.1061
 3364SOL    HW110991   2.388   6.019   5.054 -0.8986 -0.3370  0.6764
 3364SOL    HW210992   2.455   6.123   4.948 -1.9672 -0.4447 -0.1119
 3365SOL     OW10993   6.919   1.301   6.302  0.0086 -0.1621 -0.0216
 3365SOL    HW110994   6.879   1.242   6.232 -2.0357  0.6374  0.4156
 3365SOL    HW210995   6.856   1.375   6.324  1.7212  1.1287  0.7971
 3366SOL     OW10996   3.403   1.141   2.151 -0.1847  0.0125  0.1850
 3366SOL    HW110997   3.354   1.067   2.198  0.3594  0.6276  1.8155
 3366SOL    HW210998   3.460   1.103   2.079  0.1329 -1.1854  1.0358
 3367SOL     OW10999   1.810   6.714   2.158  0.3632 -0.6104 -0.5988
 3367SOL    HW111000   1.813   6.814   2.147  0.5536 -0.6591 -1.0201
 3367SOL    HW211001   1.871   6.687   2.232  1.4227 -0.5416 -1.4346
 3368SOL     OW11002   5.624   0.950   4.140 -0.3231  0.0833  0.2849
 3368SOL    HW111003   5.564   0.870   4.139 -0.6123 -0.0134  4.6415
 3368SOL    HW211004   5.717   0.922   4.165 -0.0640  0.9355  0.3302
 3369SOL     OW11005   3.272   6.327   5.919 -0.4418  0.0263  0.3295
 3369SOL    HW111006   3.199   6.265   5.891 -1.3497  0.6559  1.2509
 3369SOL    HW211007   3.298   6.384   5.841 -0.0832 -1.0054 -0.3348
 3370SOL     OW11008   4.019   0.413   5.407  0.2883 -0.1114 -0.0464
 3370SOL    HW111009   4.109   0.428   5.367  0.6726  0.5185  1.0305
 3370SOL    HW211010   3.951   0.470   5.361  0.8532  1.1592  0.6654
 3371SOL     OW11011   7.014   4.707   2.347  0.6145 -0.3445  0.0280
 3371SOL    HW111012   6.965   4.791   2.327  0.3993 -0.6893 -0.9230
 3371SOL    HW211013   7.086   4.726   2.414  1.2846  0.8227 -0.9894
 3372SOL     OW11014   1.786   3.563   2.251  0.6156 -0.7000 -0.3303
 3372SOL    HW111015   1.884   3.541   2.256  0.5756 -1.1395 -1.2269
 3372SOL    HW211016   1.734   3.492   2.299  0.7311 -0.4771  0.1305
 3373SOL     OW11017   5.783   1.376   0.912  0.0752 -0.2713  0.1459
 3373SOL    HW111018   5.825   1.330   0.833 -2.2757  0.7719 -1.8410
 3373SOL    HW211019   5.727   1.310   0.962 -0.9808 -0.2920 -1.0009
 3374SOL     OW11020   4.033   4.847   4.520  0.4968  0.5769 -0.3051
 3374SOL    HW111021   4.099   4.825   4.591  0.4422 -0.0134 -0.4294
 3374SOL    HW211022   4.072   4.827   4.430  0.2977  0.6081 -0.4003
 3375SOL     OW11023   3.518   3.379   5.310  0.2729  0.1854  0.6668
 3375SOL    HW111024   3.492   3.475   5.321 -0.8558 -0.2254  1.8179
 3375SOL    HW211025   3.525   3.358   5.213  1.7839  1.7313  0.3953
 3376SOL     OW11026   5.026   3.764   1.754 -0.4122 -0.3681 -0.3824
 3376SOL    HW111027   5.003   3.710   1.835  1.5014 -3.3643 -1.6553
 3376SOL    HW211028   4.941   3.796   1.711 -1.5205 -0.1771  1.8171
 3377SOL     OW11029   3.012   5.780   6.479  0.1878  0.9582 -0.3722
 3377SOL    HW111030   2.917   5.753   6.463 -0.6380  1.5409  2.8412
 3377SOL    HW211031   3.071   5.739   6.410 -1.7553 -3.6690  0.3601
 3378SOL     OW11032   0.364   2.407   6.653  0.4564  0.3556 -0.0722
 3378SOL    HW111033   0.384   2.357   6.569  0.3551 -0.1978  0.2332
 3378SOL    HW211034   0.319   2.494   6.629 -0.6759 -0.3339 -0.5439
 3379SOL     OW11035   6.212   4.041   6.322 -0.0641  0.0721  0.2161
 3379SOL    HW111036   6.211   4.033   6.222  0.9519 -2.9030  0.3415
 3379SOL    HW211037   6.212   3.950   6.363 -0.6902  1.2108  2.9778
 3380SOL     OW11038   1.540   3.763   6.034  0.7177 -0.5232 -0.2458
 3380SOL    HW111039   1.492   3.813   5.963 -0.1764 -0.9009  0.0735
 3380SOL    HW211040   1.591   3.687   5.993  0.5334 -0.4969 -0.5247
 3381SOL     OW11041   3.785   2.029   1.876  0.5691  0.1733 -0.2715
 3381SOL    HW111042   3.766   2.126   1.889 -2.1882 -0.3778  0.2686
 3381SOL    HW211043   3.816   2.014   1.782 -2.8739  1.1341 -1.7022
 3382SOL     OW11044   6.537   5.976   1.045  0.5647  0.5230 -0.0566
 3382SOL    HW111045   6.447   6.015   1.027  0.5024  1.0353  1.2503
 3382SOL    HW211046   6.540   5.882   1.011 -0.6494  0.3205  0.3463
 3383SOL     OW11047   1.433   2.785   1.563 -0.1788 -0.0391 -0.4142
 3383SOL    HW111048   1.407   2.698   1.604 -0.1304  0.7031  1.2942
 3383SOL    HW211049   1.355   2.848   1.567  0.2093  0.4408 -0.3362
 3384SOL     OW11050   3.089   4.027   3.153 -0.2071 -0.4363 -0.1280
 3384SOL    HW111051   3.050   4.000   3.065  2.2446 -0.6370 -1.2226
 3384SOL    HW211052   3.020   4.078   3.206 -1.4702  0.4600 -2.5076
 3385SOL     OW11053   6.084   3.040   5.102 -0.2185 -0.1621 -0.3873
 3385SOL    HW111054   6.078   2.979   5.181  3.6701  1.3471  1.3236
 3385SOL    HW211055   6.113   2.987   5.022 -2.0609 -1.3367 -0.3462
 3386SOL     OW11056   5.537   5.020   3.723  0.4048 -0.0998  0.1659
 3386SOL    HW111057   5.599   4.947   3.751 -1.3633 -1.2973  1.1334
 3386SOL    HW211058   5.562   5.051   3.631  1.2371 -1.8774 -0.2515
 3387SOL     OW11059   3.850   0.696   0.962  0.1502 -0.1028 -0.0027
 3387SOL    HW111060   3.919   0.684   1.034 -0.6977  1.1065  1.0648
 3387SOL    HW211061   3.760   0.704   1.004 -0.3719  0.6113 -1.2180
 3388SOL     OW11062   3.903   1.201   1.424 -0.4201 -0.5236 -0.0381
 3388SOL    HW111063   3.912   1.136   1.349 -2.0191 -2.8384  1.6471
 3388SOL    HW211064   3.821   1.257   1.411  0.8286  1.1109 -1.3648
 3389SOL     OW11065   4.131   5.742   2.937 -0.1964 -0.8542  0.1725
 3389SOL    HW111066   4.064   5.669   2.925 -1.1770  0.0596 -0.0218
 3389SOL    HW211067   4.213   5.721   2.883 -0.8374 -1.3434 -0.6275
 3390SOL     OW11068   5.756   0.802   6.885  0.2047 -0.3886  0.1720
 3390SOL    HW111069   5.695   0.770   6.812 -1.4266  1.0884  0.8041
 3390SOL    HW211070   5.713   0.786   6.974  1.1362 -0.1018  0.6883
 3391SOL     OW11071   2.808   0.939   4.641  0.6220  0.1762  0.0519
 3391SOL    HW111072   2.728   0.975   4.594  1.1216  1.1278 -0.1087
 3391SOL    HW211073   2.836   0.852   4.599 -0.6977 -0.5012  0.5373
 3392SOL     OW11074   0.257   6.633   4.377 -0.5062 -0.2808  0.4708
 3392SOL    HW111075   0.279   6.677   4.290 -1.4080 -1.1647 -0.2283
 3392SOL    HW211076   0.179   6.572   4.364  0.5052 -1.8570  1.4622
 3393SOL     OW11077   6.630   6.668   6.951  0.2784  0.1987  0.1732
 3393SOL    HW111078   6.684   6.627   7.025  1.7123  2.1533  0.2968
 3393SOL    HW211079   6.674   6.648   6.863  0.1806  0.2758  0.1067
 3394SOL     OW11080   3.646   1.129   2.404 -0.2922  0.7302  0.4908
 3394SOL    HW111081   3.658   1.226   2.383 -0.7111  0.1512 -3.0990
 3394SOL    HW211082   3.553   1.113   2.437 -0.4626  1.4527  0.3698
 3395SOL     OW11083   0.625   4.144   5.285  0.2352  0.2814  0.5226
 3395SOL    HW111084   0.627   4.129   5.384 -0.4962 -1.3038  0.3350
 3395SOL    HW211085   0.572   4.071   5.242  0.1085  1.2376 -0.9980
 3396SOL     OW11086   6.176   4.007   6.023  0.3882 -0.0883  0.6464
 3396SOL    HW111087   6.092   3.994   5.970  0.1867 -2.6636  1.4673
 3396SOL    HW211088   6.227   4.085   5.986 -0.6741 -0.5738 -2.0955
 3397SOL     OW11089   0.314   6.055   5.976  0.3862 -0.1385 -0.4848
 3397SOL    HW111090   0.363   5.985   6.028  0.3457  0.7564  0.7987
 3397SOL    HW211091   0.268   6.012   5.898  0.5324 -1.5104  0.1557
 3398SOL     OW11092   1.643   2.618   3.581 -0.4367  0.2359  0.1555
 3398SOL    HW111093   1.703   2.544   3.613 -0.5049 -0.0442 -0.3580
 3398SOL    HW211094   1.628   2.683   3.656  0.4465  0.2701  0.3248
 3399SOL     OW11095   3.871   5.933   2.672 -0.4846 -0.4614 -0.8537
 3399SOL    HW111096   3.832   5.855   2.722 -1.3914 -0.2746 -1.2333
 3399SOL    HW211097   3.949   5.903   2.618 -1.5813 -1.4137 -1.9820
 3400SOL     OW11098   6.398   2.258   0.183 -0.1853  0.5750  0.3100
 3400SOL    HW111099   6.348   2.291   0.102 -0.9082  0.5352  0.7282
 3400SOL    HW211100   6.401   2.158   0.181 -2.8044  0.3753  1.7835
 3401SOL     OW11101   6.940   4.141   6.852 -0.1094  0.4314 -0.2405
 3401SOL    HW111102   7.013   4.077   6.828  0.2587  0.5379  0.5700
 3401SOL    HW211103   6.860   4.123   6.795  0.9563  1.1529 -2.0749
 3402SOL     OW11104   3.661   4.902   2.587  0.0318 -0.3218  0.2136
 3402SOL    HW111105   3.580   4.845   2.602 -2.0680  2.4573  0.3189
 3402SOL    HW211106   3.735   4.873   2.648 -0.9803 -2.6956  0.4141
 3403SOL     OW11107   3.212   2.860   6.857 -0.1835 -0.3774  0.0179
 3403SOL    HW111108   3.151   2.900   6.789 -0.3682 -2.3066 -1.0054
 3403SOL    HW211109   3.159   2.813   6.927  0.0576 -2.0667 -0.8770
 3404SOL     OW11110   5.911   6.356   1.487 -0.3319  0.2326 -0.2617
 3404SOL    HW111111   5.987   6.402   1.533  0.3880  0.2069 -1.4059
 3404SOL    HW211112   5.941   6.264   1.458 -1.1942 -0.2678  0.3905
 3405SOL     OW11113   6.462   3.590   6.653  0.3143 -0.4234 -0.3792
 3405SOL    HW111114   6.518   3.651   6.710 -0.0207 -0.5524  0.0949
 3405SOL    HW211115   6.507   3.501   6.646  0.3943 -0.3837 -0.3757
 3406SOL     OW11116   0.755   3.186   1.762 -0.2298 -0.3876  0.1050
 3406SOL    HW111117   0.732   3.134   1.844  0.5778  0.5649  0.9546
 3406SOL    HW211118   0.777   3.280   1.787 -4.4215  1.3229 -1.6233
 3407SOL     OW11119   2.735   5.680   1.897  0.4782 -0.0640  0.2064
 3407SOL    HW111120   2.641   5.675   1.931  0.9171 -0.2568  1.4676
 3407SOL    HW211121   2.798   5.687   1.975  1.5033  0.2068 -0.6196
 3408SOL     OW11122   5.234   2.373   2.472 -0.3696 -0.3318  0.3163
 3408SOL    HW111123   5.225   2.468   2.442  1.7910 -0.1899 -0.0157
 3408SOL    HW211124   5.278   2.370   2.561 -1.1736 -1.0086  0.7024
 3409SOL     OW11125   3.296   3.018   0.093 -0.5335  0.2050  0.0488
 3409SOL    HW111126   3.241   3.101   0.081  0.0029  0.6015  0.2468
 3409SOL    HW211127   3.270   2.950   0.025 -1.7223  0.1308  0.5567
 3410SOL     OW11128   2.443   1.868   6.473  0.1844 -0.6954 -0.1335
 3410SOL    HW111129   2.372   1.934   6.499 -0.1651 -0.9291 -0.4770
 3410SOL    HW211130   2.506   1.911   6.408 -0.7275 -1.0318 -1.2992
 3411SOL     OW11131   4.938   0.754   2.251 -0.2188 -0.0483  0.2034
 3411SOL    HW111132   4.866   0.813   2.286 -1.0287 -2.0739  2.2450
 3411SOL    HW211133   4.902   0.700   2.174 -0.0437  0.8053 -0.4826
 3412SOL     OW11134   5.476   4.992   2.012 -0.5177 -0.2384 -0.4730
 3412SOL    HW111135   5.508   4.973   2.105  1.8757 -1.7899 -1.5107
 3412SOL    HW211136   5.486   4.909   1.956 -0.3687  1.0798 -2.5012
 3413SOL     OW11137   4.733   1.168   2.250 -0.2120  0.1372 -0.0063
 3413SOL    HW111138   4.701   1.203   2.339 -0.9221  1.5359 -0.7769
 3413SOL    HW211139   4.741   1.244   2.186 -1.0673 -1.0301 -1.5540
 3414SOL     OW11140   5.173   0.943   4.089 -0.0567 -0.3018  0.1962
 3414SOL    HW111141   5.182   0.938   4.189 -1.4394  0.1921  0.3641
 3414SOL    HW211142   5.172   0.851   4.051  0.9682 -0.4851  0.5793
 3415SOL     OW11143   6.764   5.061   0.257 -0.1505  0.0613 -0.0748
 3415SOL    HW111144   6.795   5.105   0.172 -0.1269 -1.0218 -0.6447
 3415SOL    HW211145   6.813   5.100   0.335 -0.0642  0.9719 -0.5617
 3416SOL     OW11146   6.576   5.886   6.566  0.4824 -0.4385 -0.3207
 3416SOL    HW111147   6.538   5.806   6.521 -1.2053  0.0465  0.1634
 3416SOL    HW211148   6.544   5.890   6.661 -0.0808  1.1832 -0.5404
 3417SOL     OW11149   4.043   2.606   0.026  0.5287  0.1401 -0.2260
 3417SOL    HW111150   4.008   2.668  -0.044  1.7805  1.5835  0.3768
 3417SOL    HW211151   4.110   2.654   0.083 -0.6674 -0.8587  2.1784
 3418SOL     OW11152   2.239   3.348   5.441 -0.7843 -0.1374 -0.0533
 3418SOL    HW111153   2.160   3.369   5.383 -3.6902  0.4888  3.7989
 3418SOL    HW211154   2.238   3.406   5.522  3.0916 -0.9301  0.7613
 3419SOL     OW11155   4.604   3.308   1.580 -0.0399  0.4966  0.1483
 3419SOL    HW111156   4.598   3.254   1.496  1.0266  0.8448 -0.1717
 3419SOL    HW211157   4.515   3.311   1.624 -0.3741 -0.5780 -0.4181
 3420SOL     OW11158   2.726   0.830   6.125 -0.1917 -0.6763  0.7309
 3420SOL    HW111159   2.708   0.760   6.056  1.4671  1.1197 -1.7458
 3420SOL    HW211160   2.684   0.916   6.096  5.2515  1.7187 -1.4720
 3421SOL     OW11161   0.461   0.443   1.586 -0.4005  0.3338  0.2389
 3421SOL    HW111162   0.547   0.398   1.608 -1.3667 -3.1475 -2.2242
 3421SOL    HW211163   0.391   0.412   1.651 -0.6153 -0.0150 -0.1562
 3422SOL     OW11164   5.217   2.331   3.312 -0.1966 -0.6238  0.2560
 3422SOL    HW111165   5.191   2.237   3.289  0.6159 -0.3777 -1.9171
 3422SOL    HW211166   5.135   2.385   3.330 -0.8265 -1.2454 -0.6532
 3423SOL     OW11167   4.101   2.237   2.400  0.3817 -0.7511  0.2447
 3423SOL    HW111168   4.142   2.180   2.328  1.8256  0.7298 -0.1782
 3423SOL    HW211169   4.025   2.289   2.362 -1.9359 -3.3732  0.9855
 3424SOL     OW11170   5.124   2.860   0.649  0.0173 -1.0182 -0.2191
 3424SOL    HW111171   5.168   2.950   0.652 -3.6364  1.0293 -1.2342
 3424SOL    HW211172   5.056   2.853   0.722 -2.2635 -1.3902 -2.2476
 3425SOL     OW11173   4.679   3.538   0.451 -0.3436  0.6069  0.1063
 3425SOL    HW111174   4.614   3.613   0.437  0.4642  1.3418  0.1914
 3425SOL    HW211175   4.772   3.572   0.438  0.0705 -0.2399  0.7586
 3426SOL     OW11176   4.434   4.195   1.522 -0.3367 -0.5587 -0.3432
 3426SOL    HW111177   4.381   4.112   1.504 -0.4963 -0.6355  0.4667
 3426SOL    HW211178   4.416   4.227   1.615  1.6321 -1.0339  0.2426
 3427SOL     OW11179   1.531   0.882   6.938  0.2274 -0.2134 -0.2136
 3427SOL    HW111180   1.585   0.810   6.895  1.4123  1.2957 -1.3710
 3427SOL    HW211181   1.472   0.925   6.870 -1.1066 -0.6067  0.6467
 3428SOL     OW11182   6.392   4.174   2.926  0.0311  0.8351  0.8182
 3428SOL    HW111183   6.488   4.195   2.941 -0.5548  3.0303  1.8005
 3428SOL    HW211184   6.335   4.241   2.973 -2.0113 -0.8294  0.8717
 3429SOL     OW11185   0.316   3.644   1.421 -0.0773 -0.4076 -0.1694
 3429SOL    HW111186   0.284   3.727   1.374 -2.2991 -1.5767 -0.8779
 3429SOL    HW211187   0.325   3.663   1.519 -3.0472  0.0882  0.0995
 3430SOL     OW11188   0.683   5.949   6.495  0.6683 -0.0068  0.5039
 3430SOL    HW111189   0.665   6.001   6.578 -0.9364  0.3460 -0.0176
 3430SOL    HW211190   0.661   6.005   6.415 -0.6836 -1.2786 -0.0757
 3431SOL     OW11191   6.869   5.851   6.549 -0.5780 -0.4425  0.5316
 3431SOL    HW111192   6.904   5.811   6.634  0.0574 -1.0255 -0.0092
 3431SOL    HW211193   6.794   5.914   6.572  1.2057  1.3780  1.7764
 3432SOL     OW11194   4.892   2.522   6.040 -0.4902  0.2706 -0.4420
 3432SOL    HW111195   4.882   2.566   5.951  2.0346  1.8214 -0.0604
 3432SOL    HW211196   4.811   2.539   6.095 -0.6479  2.3601 -1.2153
 3433SOL     OW11197   4.949   2.022   6.635  0.8150 -0.8909 -0.6729
 3433SOL    HW111198   4.998   2.035   6.549  1.5277 -2.3541 -0.5167
 3433SOL    HW211199   5.014   2.003   6.708  0.1376 -0.8364 -0.0411
 3434SOL     OW11200   4.003   1.424   0.971 -0.0283 -0.0333  0.5156
 3434SOL    HW111201   4.039   1.504   0.923 -2.6664  0.0927 -1.5402
 3434SOL    HW211202   3.920   1.450   1.021 -0.9026 -1.3800 -0.1445
 3435SOL     OW11203   0.834   0.347   6.677 -0.3684 -0.0396 -0.4436
 3435SOL    HW111204   0.899   0.389   6.740 -1.4020 -0.2638  0.8218
 3435SOL    HW211205   0.781   0.278   6.725  0.2748 -1.7802 -2.1267
 3436SOL     OW11206   3.063   6.075   2.574 -0.3139  0.5464  0.3538
 3436SOL    HW111207   3.162   6.076   2.559 -0.1801  1.2601  1.1816
 3436SOL    HW211208   3.028   5.983   2.558  0.4446  0.3272 -0.1408
 3437SOL     OW11209   2.392   6.309   6.060 -0.0257  0.0696 -0.7503
 3437SOL    HW111210   2.349   6.398   6.077 -1.7263 -0.4710 -1.9668
 3437SOL    HW211211   2.472   6.299   6.119  0.5833  2.6486 -1.0082
 3438SOL     OW11212   1.021   5.177   5.402  0.4551 -0.0625 -0.5424
 3438SOL    HW111213   1.029   5.239   5.481 -0.4672 -0.1355 -0.3772
 3438SOL    HW211214   1.080   5.209   5.329  1.5476 -0.1546  0.2816
 3439SOL     OW11215   2.555   6.686   4.105 -0.4120  0.4225 -0.2982
 3439SOL    HW111216   2.536   6.725   4.195  1.6154  0.6537  0.0761
 3439SOL    HW211217   2.535   6.588   4.106  0.0543  0.3315  0.5607
 3440SOL     OW11218   3.858   2.560   0.453 -0.1313 -0.5934  0.0794
 3440SOL    HW111219   3.945   2.586   0.494  1.1322 -1.6713 -1.8170
 3440SOL    HW211220   3.812   2.643   0.419 -0.3280  0.0845  1.8721
 3441SOL     OW11221   4.267   6.487   4.738 -0.0231  0.3915 -0.2203
 3441SOL    HW111222   4.210   6.564   4.765 -1.2373 -0.6782  0.3603
 3441SOL    HW211223   4.349   6.484   4.796 -0.0842  1.1047 -0.0960
 3442SOL     OW11224   0.651   1.434   5.719  0.6963  0.4853  0.4954
 3442SOL    HW111225   0.630   1.408   5.624  0.5293  0.6466  0.4866
 3442SOL    HW211226   0.573   1.411   5.777  1.4048 -1.0682  0.8667
 3443SOL     OW11227   0.042   0.358   3.039  0.2096  0.3859  0.4215
 3443SOL    HW111228   0.120   0.345   3.101  0.6318 -0.4303 -0.2684
 3443SOL    HW211229   0.022   0.456   3.031  0.4327  0.5306  1.4920
 3444SOL     OW11230   4.522   6.823   6.346  0.4867 -0.2407  0.5958
 3444SOL    HW111231   4.549   6.877   6.266  0.9300 -0.4835  0.5755
 3444SOL    HW211232   4.590   6.752   6.361  0.0684 -0.5969  0.8081
 3445SOL     OW11233   5.487   5.358   4.089 -0.0170  0.1986 -0.3937
 3445SOL    HW111234   5.436   5.297   4.150 -0.3192  2.2385  1.5192
 3445SOL    HW211235   5.459   5.342   3.994 -1.4833 -1.2813  0.2438
 3446SOL     OW11236   2.107   3.464   1.230 -0.6906 -0.3081 -1.0845
 3446SOL    HW111237   2.081   3.415   1.314  1.6162  0.2774  0.0495
 3446SOL    HW211238   2.087   3.561   1.241  1.4215  0.0947 -0.3385
 3447SOL     OW11239   5.391   3.901   0.206 -0.1554 -0.0549  0.2119
 3447SOL    HW111240   5.320   3.873   0.142 -0.3735 -0.9995  0.8439
 3447SOL    HW211241   5.466   3.835   0.203  0.0683  0.1833  0.5452
 3448SOL     OW11242   4.294   2.753   6.226  0.1260 -0.1704  0.4919
 3448SOL    HW111243   4.357   2.828   6.207  0.6860 -0.6941  0.2725
 3448SOL    HW211244   4.220   2.753   6.158  0.5861 -0.3272 -0.0135
 3449SOL     OW11245   6.984   5.692   3.001 -0.3637  0.3775  0.2625
 3449SOL    HW111246   6.929   5.630   2.944 -1.4273 -1.2175  2.8500
 3449SOL    HW211247   6.925   5.762   3.041 -0.4668 -0.8468  2.4022
 3450SOL     OW11248   0.152   2.870   5.096 -0.2676  0.4621  0.1434
 3450SOL    HW111249   0.196   2.891   5.009  0.6712 -2.0786 -0.0721
 3450SOL    HW211250   0.222   2.851   5.165 -1.0145 -0.3066  0.7035
 3451SOL     OW11251   0.841   0.074   4.996 -0.3321 -0.0161  0.3924
 3451SOL    HW111252   0.746   0.069   4.964 -0.0923  0.1806 -0.3605
 3451SOL    HW211253   0.856   0.004   5.066 -1.3227  0.6409  1.2911
 3452SOL     OW11254   5.924   2.350   0.650 -0.5620  0.3821  0.0509
 3452SOL    HW111255   5.890   2.435   0.610 -2.7360 -0.8560 -0.8992
 3452SOL    HW211256   6.005   2.319   0.600  1.7956  3.0280  1.9077
 3453SOL     OW11257   0.082   5.641   3.930 -0.2287 -0.3855 -0.6998
 3453SOL    HW111258  -0.005   5.645   3.980  0.6412  1.9626  0.7995
 3453SOL    HW211259   0.069   5.682   3.839 -0.8744 -0.8002 -0.8008
 3454SOL     OW11260   0.700   0.256   5.919  0.3931 -0.4265  0.2508
 3454SOL    HW111261   0.610   0.298   5.929  0.1625 -0.8857  0.1745
 3454SOL    HW211262   0.770   0.319   5.950  0.2085  0.6779 -1.4454
 3455SOL     OW11263   1.577   2.240   3.159  0.2168 -0.1447  0.3325
 3455SOL    HW111264   1.612   2.296   3.084 -1.3301 -0.0622 -0.3810
 3455SOL    HW211265   1.605   2.145   3.145  1.2067  0.1218  0.4758
 3456SOL     OW11266   0.572   6.343   0.231 -0.1278  0.1149 -0.1033
 3456SOL    HW111267   0.590   6.430   0.185  1.7747  1.2718  2.5801
 3456SOL    HW211268   0.658   6.294   0.245 -0.8058 -0.7888  1.0390
 3457SOL     OW11269   1.464   6.726   5.857 -0.2984 -0.0289  0.1881
 3457SOL    HW111270   1.562   6.738   5.843 -0.7784  1.4358 -2.6027
 3457SOL    HW211271   1.449   6.666   5.935  2.7684  0.5413  1.3594
 3458SOL     OW11272   4.694   4.997   1.224  0.0822 -0.8820  0.5021
 3458SOL    HW111273   4.602   4.971   1.196 -0.4598  0.8755  0.5762
 3458SOL    HW211274   4.712   4.961   1.316 -0.5562 -1.1551  0.5277
 3459SOL     OW11275   6.805   6.484   3.650 -0.5656  0.2625 -0.2404
 3459SOL    HW111276   6.804   6.517   3.556  0.0902  0.8153 -0.0611
 3459SOL    HW211277   6.721   6.510   3.696 -1.2227 -0.6583 -0.8841
 3460SOL     OW11278   4.110   3.676   0.761  0.3051  0.1695  0.3125
 3460SOL    HW111279   4.181   3.616   0.799  2.1474  1.2627 -1.2258
 3460SOL    HW211280   4.107   3.760   0.815 -0.6651 -0.3225  1.0627
 3461SOL     OW11281   1.745   5.253   3.196 -0.1874  0.0519 -0.1977
 3461SOL    HW111282   1.692   5.176   3.160 -0.9998  0.3276  0.3722
 3461SOL    HW211283   1.792   5.225   3.280 -2.4336  0.7881  1.4045
 3462SOL     OW11284   4.841   3.708   3.055  0.4557  0.2553 -0.2259
 3462SOL    HW111285   4.900   3.682   2.978  0.3094  0.5076 -0.4255
 3462SOL    HW211286   4.828   3.807   3.055 -1.4625  0.0498 -1.2884
 3463SOL     OW11287   1.920   2.928   1.497 -1.1690 -0.2007  0.2533
 3463SOL    HW111288   1.995   2.871   1.529 -1.2295  0.0277  0.8105
 3463SOL    HW211289   1.863   2.875   1.434 -0.8377 -0.5365  0.2307
 3464SOL     OW11290   6.517   2.318   6.804 -0.6085  0.5999 -0.0782
 3464SOL    HW111291   6.578   2.239   6.801 -0.6405  0.5242  1.0547
 3464SOL    HW211292   6.554   2.386   6.867 -1.9386  0.3421  1.0074
 3465SOL     OW11293   3.242   3.123   2.267 -0.0498  0.5262 -0.2276
 3465SOL    HW111294   3.307   3.192   2.234 -0.7425  1.3780  0.1443
 3465SOL    HW211295   3.177   3.101   2.195  1.5404 -1.4933 -1.1396
 3466SOL     OW11296   0.524   1.214   6.001 -0.6915  0.5452  0.1652
 3466SOL    HW111297   0.522   1.290   6.067  0.4728  0.3479  0.4505
 3466SOL    HW211298   0.497   1.130   6.048 -1.8764  0.7447 -0.1251
 3467SOL     OW11299   2.206   3.549   6.679 -0.3442 -0.0584  0.0346
 3467SOL    HW111300   2.301   3.572   6.655 -0.0221  0.4420  1.6649
 3467SOL    HW211301   2.144   3.590   6.613  0.4785  1.4280  0.1416
 3468SOL     OW11302   1.819   6.704   0.768 -0.2193  0.2261  0.1213
 3468SOL    HW111303   1.812   6.791   0.720  1.4840  0.9284  1.0676
 3468SOL    HW211304   1.728   6.675   0.798 -0.8798  1.3884 -0.6735
 3469SOL     OW11305   2.359   5.005   3.801  0.0311  0.1760 -0.1861
 3469SOL    HW111306   2.293   4.930   3.798  0.3554 -0.1053 -0.4489
 3469SOL    HW211307   2.411   5.001   3.886 -0.6833  0.7450  0.2860
 3470SOL     OW11308   0.981   4.085   6.838  0.2169 -0.7543  0.3065
 3470SOL    HW111309   0.946   4.178   6.841 -0.6058 -1.0637  0.6070
 3470SOL    HW211310   0.915   4.023   6.880  0.6186 -1.5187 -0.1650
 3471SOL     OW11311   6.491   4.561   5.230  0.1344 -0.8474 -0.0735
 3471SOL    HW111312   6.453   4.583   5.141  0.5582 -1.4075 -0.3993
 3471SOL    HW211313   6.524   4.467   5.230 -1.1255 -1.3262  1.1013
 3472SOL     OW11314   4.649   0.245   2.333  0.4606 -0.2288 -0.8059
 3472SOL    HW111315   4.728   0.306   2.327  1.2384 -0.9939  0.9114
 3472SOL    HW211316   4.566   0.300   2.344  1.2549  0.6046  1.8682
 3473SOL     OW11317   6.323   3.915   3.432  0.1788 -0.4204 -0.2809
 3473SOL    HW111318   6.333   3.995   3.372  0.1169 -0.8406 -0.8612
 3473SOL    HW211319   6.241   3.864   3.405 -0.7837  0.2729  1.2147
 3474SOL     OW11320   4.811   6.003   4.751  0.0897  0.1848 -0.6376
 3474SOL    HW111321   4.809   6.085   4.693 -2.1495 -1.7508 -3.5736
 3474SOL    HW211322   4.868   5.933   4.709  1.2260 -0.1771  1.3692
 3475SOL     OW11323   6.876   2.293   5.315 -0.0679 -0.1433 -0.5900
 3475SOL    HW111324   6.808   2.306   5.243  0.3219  1.8456 -0.6457
 3475SOL    HW211325   6.965   2.276   5.273 -0.2543 -1.3573 -0.5275
 3476SOL     OW11326   2.860   4.799   2.678  0.0110  0.5530  0.3314
 3476SOL    HW111327   2.890   4.763   2.589  0.7736  0.3236  0.6826
 3476SOL    HW211328   2.779   4.857   2.664 -0.9423 -0.8854 -0.3005
 3477SOL     OW11329   1.239   3.339   2.296  0.0824 -0.4566  0.3843
 3477SOL    HW111330   1.173   3.414   2.297  0.0918 -0.3660 -1.4080
 3477SOL    HW211331   1.328   3.372   2.326 -0.1471 -0.0028  0.5810
 3478SOL     OW11332   2.862   6.978   0.976 -0.0897 -0.5981  0.6991
 3478SOL    HW111333   2.771   6.944   0.954 -0.6644 -0.1750  2.3087
 3478SOL    HW211334   2.887   6.951   1.069  1.1065 -0.0498  0.5622
 3479SOL     OW11335   1.641   4.446   4.433 -0.5293 -0.4961  0.0160
 3479SOL    HW111336   1.644   4.382   4.356  1.1491  0.0268 -0.3813
 3479SOL    HW211337   1.563   4.423   4.492 -0.9521 -1.8398 -1.0133
 3480SOL     OW11338   2.050   5.073   6.004 -0.0542 -0.3428 -0.3750
 3480SOL    HW111339   2.137   5.123   6.016 -0.3121  0.1147 -0.3684
 3480SOL    HW211340   2.068   4.975   6.004  0.4141 -0.2652  0.0653
 3481SOL     OW11341   5.088   1.897   0.296  0.0598 -0.0389 -0.0602
 3481SOL    HW111342   5.166   1.949   0.332  0.6771 -0.5593 -0.6162
 3481SOL    HW211343   5.077   1.813   0.350 -0.5466  0.3617  0.4457
 3482SOL     OW11344   5.239   4.101   5.634 -0.1306 -0.5171 -0.1026
 3482SOL    HW111345   5.203   4.058   5.717  1.6796 -2.0124 -0.0089
 3482SOL    HW211346   5.312   4.164   5.658 -2.0650  1.9833 -0.3417
 3483SOL     OW11347   5.104   1.047   5.207 -0.2145 -0.6687  0.0581
 3483SOL    HW111348   5.024   1.016   5.157 -0.5511 -0.3003  0.3571
 3483SOL    HW211349   5.076   1.113   5.276  0.6592  2.0404 -1.9804
 3484SOL     OW11350   0.826   2.635   3.323  0.2250 -0.4053  0.1563
 3484SOL    HW111351   0.785   2.724   3.299 -2.8558 -1.6454  0.4186
 3484SOL    HW211352   0.880   2.645   3.407  1.0798  1.4459 -0.5448
 3485SOL     OW11353   6.134   6.139   6.485 -0.0295 -0.5647 -0.5516
 3485SOL    HW111354   6.066   6.160   6.556  1.5822  0.8083  0.6776
 3485SOL    HW211355   6.155   6.042   6.487 -0.7020 -0.7105  0.1988
 3486SOL     OW11356   6.529   4.691   3.895  0.3876 -0.2288 -0.8440
 3486SOL    HW111357   6.516   4.744   3.979  0.3304  0.2105 -1.1292
 3486SOL    HW211358   6.552   4.753   3.820  3.7127 -0.8456 -0.4850
 3487SOL     OW11359   2.777   6.698   1.267  0.3708 -0.1660  0.8320
 3487SOL    HW111360   2.713   6.643   1.213  0.2808 -1.6056  2.3115
 3487SOL    HW211361   2.860   6.714   1.214  0.2695 -1.4981  0.2273
 3488SOL     OW11362   4.506   4.070   5.868  0.5565  0.8102  0.3456
 3488SOL    HW111363   4.496   3.983   5.821 -0.0851 -0.1302  2.1169
 3488SOL    HW211364   4.450   4.139   5.824 -0.1865 -0.0848 -0.1351
 3489SOL     OW11365   4.303   6.961   6.481  0.1826  0.2939  0.0858
 3489SOL    HW111366   4.369   6.895   6.445 -0.1581 -0.3140  0.5652
 3489SOL    HW211367   4.220   6.913   6.510 -0.0105  0.9114  0.5768
 3490SOL     OW11368   4.959   0.925   6.317  0.1455  0.3775 -0.1924
 3490SOL    HW111369   4.921   0.924   6.224 -0.0525 -0.4055 -0.1129
 3490SOL    HW211370   4.891   0.960   6.381  0.7368  2.2135 -0.5098
 3491SOL     OW11371   4.698   5.591   0.934  0.6136 -0.2280  0.3825
 3491SOL    HW111372   4.733   5.520   0.995 -1.5226 -0.1669  1.7427
 3491SOL    HW211373   4.676   5.673   0.986 -1.5947 -0.2898 -0.3570
 3492SOL     OW11374   5.421   4.092   2.695  0.4950  0.2462  0.4380
 3492SOL    HW111375   5.489   4.109   2.767 -0.3440 -3.8881  2.5370
 3492SOL    HW211376   5.339   4.146   2.713 -0.7552 -2.5349  4.5121
 3493SOL     OW11377   1.572   3.973   6.915 -0.1013  0.0072  0.0142
 3493SOL    HW111378   1.662   4.012   6.935 -0.2963  2.3376 -2.9276
 3493SOL    HW211379   1.508   3.998   6.987  0.6568  2.0968  0.0259
 3494SOL     OW11380   3.393   1.094   1.254  0.3491  0.1210  0.1744
 3494SOL    HW111381   3.485   1.056   1.265  0.6264  1.1015  1.4594
 3494SOL    HW211382   3.398   1.194   1.259 -0.5676  0.3006 -1.5797
 3495SOL     OW11383   2.279   0.918   3.145 -0.3863  0.3518  0.0360
 3495SOL    HW111384   2.264   0.887   3.239  0.4273 -1.7037 -0.4448
 3495SOL    HW211385   2.278   1.018   3.142  1.6990  0.5518  2.6150
 3496SOL     OW11386   4.302   3.081   0.969  0.2414  0.5328 -0.0943
 3496SOL    HW111387   4.374   3.040   1.026 -0.2755  2.6199  2.2432
 3496SOL    HW211388   4.335   3.168   0.933 -0.2929  0.3511 -1.0378
 3497SOL     OW11389   3.483   6.722   3.148 -0.6999 -0.2821 -0.0898
 3497SOL    HW111390   3.495   6.814   3.184 -1.7031 -0.1460 -0.0853
 3497SOL    HW211391   3.564   6.697   3.094  0.1031  0.1288  0.8928
 3498SOL     OW11392   2.924   1.498   6.706  0.0305 -0.3235 -0.5711
 3498SOL    HW111393   2.917   1.407   6.665  0.7736 -0.8249  0.3582
 3498SOL    HW211394   3.016   1.509   6.744 -1.0244 -0.4604  2.2331
 3499SOL     OW11395   4.756   0.154   4.197  0.2177  0.2147 -0.2449
 3499SOL    HW111396   4.717   0.062   4.192  0.2261  0.2416 -1.0644
 3499SOL    HW211397   4.856   0.149   4.191  0.2054  0.2856 -0.5511
 3500SOL     OW11398   3.538   1.540   3.966  0.4495 -0.9371  0.2340
 3500SOL    HW111399   3.535   1.639   3.976  3.1769 -0.5701 -1.4234
 3500SOL    HW211400   3.521   1.497   4.055  1.5490  1.1151  1.5088
 3501SOL     OW11401   0.875   0.212   6.460  0.2291 -0.3493 -0.2208
 3501SOL    HW111402   0.871   0.268   6.542  2.9783 -0.5906  0.1657
 3501SOL    HW211403   0.947   0.247   6.399 -0.3419 -1.4245 -1.5739
 3502SOL     OW11404   4.190   2.340   0.549  0.2216 -0.3513  0.0594
 3502SOL    HW111405   4.209   2.383   0.638 -0.9590  0.1081  0.1087
 3502SOL    HW211406   4.276   2.320   0.503  0.8465 -0.1987  1.1209
 3503SOL     OW11407   0.338   4.874   1.534 -0.6076 -0.2159 -0.2361
 3503SOL    HW111408   0.394   4.929   1.596  0.0182 -0.8503 -0.2214
 3503SOL    HW211409   0.253   4.923   1.513 -0.9800 -0.1284  1.3652
 3504SOL     OW11410   1.242   0.853   6.955 -0.0993  0.5409 -0.1538
 3504SOL    HW111411   1.233   0.782   6.885 -0.0175 -0.8251  1.1505
 3504SOL    HW211412   1.335   0.851   6.993 -1.1605 -1.4614  2.6536
 3505SOL     OW11413   4.254   2.066   5.994  0.4123  0.8224  0.5352
 3505SOL    HW111414   4.235   1.988   6.055 -1.4856  0.5057 -0.3895
 3505SOL    HW211415   4.334   2.046   5.937  0.1846 -0.2798  0.5902
 3506SOL     OW11416   3.580   5.684   6.015 -0.2499  0.3505  0.3000
 3506SOL    HW111417   3.493   5.634   6.021  0.2303 -0.3485  2.0269
 3506SOL    HW211418   3.590   5.743   6.096  1.2088 -0.1603  0.5247
 3507SOL     OW11419   3.358   3.359   0.507  0.2033  0.2519  0.0807
 3507SOL    HW111420   3.269   3.317   0.489  1.0158 -1.5978  0.2298
 3507SOL    HW211421   3.411   3.363   0.422 -0.4263  2.5146 -0.2948
 3508SOL     OW11422   4.305   1.926   6.883  0.1914 -0.8929  0.2147
 3508SOL    HW111423   4.295   2.025   6.876  0.4313 -0.8164  0.9016
 3508SOL    HW211424   4.391   1.904   6.928  0.4109 -1.4287 -0.4519
 3509SOL     OW11425   5.906   6.826   0.037  0.8495 -0.6621 -0.1285
 3509SOL    HW111426   5.944   6.811  -0.055  0.2555  0.4906 -0.5962
 3509SOL    HW211427   5.924   6.747   0.095 -3.1108 -3.8490 -2.6628
 3510SOL     OW11428   2.976   1.260   0.273 -0.0158 -0.3548  0.2759
 3510SOL    HW111429   2.933   1.266   0.183 -1.3311 -1.3026  0.7989
 3510SOL    HW211430   2.941   1.179   0.321  1.7020 -0.6443  1.1075
 3511SOL     OW11431   2.781   5.160   2.552  0.6442 -0.0021 -0.2637
 3511SOL    HW111432   2.874   5.142   2.584  1.0542  0.6195 -1.0556
 3511SOL    HW211433   2.783   5.176   2.453 -0.3122 -0.0076 -0.2912
 3512SOL     OW11434   6.683   3.805   6.828 -1.0383 -0.4829 -1.0034
 3512SOL    HW111435   6.636   3.767   6.908  0.4135  0.4119  0.3228
 3512SOL    HW211436   6.781   3.786   6.835 -0.8383 -0.0935 -2.4226
 3513SOL     OW11437   6.289   2.419   0.662  0.6144  0.1827 -0.1167
 3513SOL    HW111438   6.230   2.358   0.714  0.8491  0.3157  0.3089
 3513SOL    HW211439   6.311   2.377   0.574 -0.5624  0.3638 -0.5217
 3514SOL     OW11440   2.404   0.552   0.729 -0.6009 -0.2138 -0.1421
 3514SOL    HW111441   2.388   0.570   0.826 -0.6006 -0.0657 -0.1687
 3514SOL    HW211442   2.446   0.462   0.718 -0.9603 -0.4002 -0.0347
 3515SOL     OW11443   0.848   2.429   3.132  0.1893  0.0400  0.2074
 3515SOL    HW111444   0.838   2.506   3.195  1.4556 -0.6987  1.3775
 3515SOL    HW211445   0.884   2.461   3.044 -0.3747  0.9110  0.2841
 3516SOL     OW11446   1.999   2.149   6.652 -0.2459  0.1965 -0.1194
 3516SOL    HW111447   1.959   2.241   6.653 -0.2369  0.2033  0.8278
 3516SOL    HW211448   2.041   2.132   6.563 -0.7871  0.8720 -0.5202
 3517SOL     OW11449   4.137   1.437   1.917 -1.4186  0.1668 -0.1183
 3517SOL    HW111450   4.101   1.499   1.986  0.5207  2.1591 -0.7624
 3517SOL    HW211451   4.207   1.378   1.957  1.4485  2.9369 -0.6564
 3518SOL     OW11452   6.607   1.503   4.697 -0.0834 -0.0265  0.0871
 3518SOL    HW111453   6.680   1.498   4.764 -0.2170 -1.3762  0.1618
 3518SOL    HW211454   6.580   1.410   4.670 -2.0910  0.4186  0.4191
 3519SOL     OW11455   2.854   1.555   3.757 -0.5016  0.3825  0.3410
 3519SOL    HW111456   2.948   1.527   3.739  0.3385  1.4173  2.7571
 3519SOL    HW211457   2.811   1.583   3.671  1.4512  0.0920 -0.7807
 3520SOL     OW11458   2.642   5.416   3.447 -0.1463  0.0120 -0.3139
 3520SOL    HW111459   2.667   5.510   3.425  1.9233 -0.3679  0.2603
 3520SOL    HW211460   2.653   5.358   3.367  1.7093 -0.2946  0.1207
 3521SOL     OW11461   2.611   2.611   5.214 -0.0528 -0.1538  0.0100
 3521SOL    HW111462   2.687   2.612   5.278  0.3764 -0.4079 -0.4855
 3521SOL    HW211463   2.575   2.518   5.207 -2.0988  0.3762  2.1769
 3522SOL     OW11464   0.169   5.187   6.649 -0.1179  0.5826 -0.0066
 3522SOL    HW111465   0.095   5.221   6.591 -0.6233  0.5991  0.6426
 3522SOL    HW211466   0.253   5.238   6.629 -0.4694  1.0976 -0.1926
 3523SOL     OW11467   4.699   5.828   6.592 -0.2427 -0.1074 -0.3537
 3523SOL    HW111468   4.671   5.853   6.685  0.8890 -1.4643  0.3870
 3523SOL    HW211469   4.634   5.866   6.527 -0.3546  2.0228  0.8772
 3524SOL     OW11470   2.474   0.109   4.774 -0.0021 -0.0010 -0.0365
 3524SOL    HW111471   2.393   0.112   4.715  1.1409  0.4774 -1.6255
 3524SOL    HW211472   2.550   0.068   4.724  1.3255  1.4752  0.6875
 3525SOL     OW11473   1.104   3.246   4.231  0.1664 -0.1169 -0.0795
 3525SOL    HW111474   1.120   3.219   4.326 -1.0407  0.6583  0.3660
 3525SOL    HW211475   1.158   3.187   4.171  0.1597 -1.3074  1.0185
 3526SOL     OW11476   0.795   5.021   1.446  0.0080 -0.0245  0.6038
 3526SOL    HW111477   0.725   5.012   1.375 -1.0238 -0.2249  1.6156
 3526SOL    HW211478   0.885   5.021   1.404 -0.6193  2.8143 -1.0130
 3527SOL     OW11479   6.734   1.727   1.249 -0.0593 -0.0877 -0.6284
 3527SOL    HW111480   6.701   1.671   1.324  1.5045 -0.8021 -0.4421
 3527SOL    HW211481   6.723   1.824   1.272 -1.2605 -0.2894 -0.2682
 3528SOL     OW11482   1.937   5.186   3.662 -0.4588  0.4831  0.0516
 3528SOL    HW111483   1.934   5.165   3.565 -0.5497  1.2929 -0.1280
 3528SOL    HW211484   1.844   5.200   3.696 -0.4811 -0.4231  0.4105
 3529SOL     OW11485   3.799   5.507   5.891 -0.2806  0.8759  0.3656
 3529SOL    HW111486   3.885   5.475   5.929 -0.3763  0.2529  0.0698
 3529SOL    HW211487   3.740   5.540   5.965  0.5387  2.1469  0.4826
 3530SOL     OW11488   6.237   0.533   1.892  0.8204  0.2532  0.5628
 3530SOL    HW111489   6.309   0.570   1.833  0.2140 -0.4847 -0.6614
 3530SOL    HW211490   6.178   0.472   1.840  0.2778 -0.4558  1.9470
 3531SOL     OW11491   4.128   2.755   0.224 -0.4436 -0.1709  0.3387
 3531SOL    HW111492   4.107   2.713   0.312 -0.3614 -1.5176 -0.2652
 3531SOL    HW211493   4.227   2.766   0.215 -0.2480 -2.1750 -0.4921
 3532SOL     OW11494   4.171   1.498   1.668 -0.1592 -0.2287  0.2103
 3532SOL    HW111495   4.167   1.444   1.752  1.4786 -0.5664  0.1049
 3532SOL    HW211496   4.263   1.535   1.657 -0.4179  0.0193 -1.3116
 3533SOL     OW11497   2.505   1.332   4.074  0.6774 -0.0755 -0.2957
 3533SOL    HW111498   2.495   1.251   4.017 -1.4857 -0.2717  0.2649
 3533SOL    HW211499   2.571   1.394   4.033  3.4623 -2.6376 -0.0752
 3534SOL     OW11500   0.032   0.992   0.053  0.2382 -0.0216 -0.3980
 3534SOL    HW111501   0.004   1.088   0.049 -1.9068 -0.2637  3.6327
 3534SOL    HW211502  -0.020   0.939  -0.015 -1.9901  1.0823  0.3489
 3535SOL     OW11503   4.821   5.781   3.686 -0.0373  0.0226  0.0025
 3535SOL    HW111504   4.904   5.793   3.741  0.0441  0.6636 -0.2460
 3535SOL    HW211505   4.742   5.815   3.737  0.0563  0.7451 -0.3101
 3536SOL     OW11506   4.713   1.848   3.543 -0.3797  0.2794  0.2715
 3536SOL    HW111507   4.794   1.905   3.552 -0.6886  0.6610  0.6539
 3536SOL    HW211508   4.720   1.793   3.460  1.7475 -2.0226  1.8348
 3537SOL     OW11509   2.030   5.404   1.398  0.5830  0.3096 -0.0813
 3537SOL    HW111510   2.011   5.318   1.445 -0.5880 -0.0592 -1.1647
 3537SOL    HW211511   1.944   5.445   1.367  1.2951  0.4999 -1.9408
 3538SOL     OW11512   3.409   5.830   1.069 -0.8526 -0.0214 -0.0280
 3538SOL    HW111513   3.468   5.875   1.002 -0.4114  0.7224  0.8424
 3538SOL    HW211514   3.400   5.888   1.150 -0.0978 -1.6082  1.2292
 3539SOL     OW11515   3.774   3.441   5.065  0.3250  0.4031  0.3964
 3539SOL    HW111516   3.820   3.400   5.144 -0.3306 -2.1940 -0.4615
 3539SOL    HW211517   3.694   3.386   5.041  0.3606  1.2582 -1.9091
 3540SOL     OW11518   3.609   6.484   2.354 -0.6532 -0.4289  0.3730
 3540SOL    HW111519   3.522   6.500   2.307 -0.0744 -1.0108 -0.9649
 3540SOL    HW211520   3.683   6.482   2.286  0.6131  1.4601  1.6138
 3541SOL     OW11521   3.915   2.980   4.830 -0.3816  0.0012 -0.0693
 3541SOL    HW111522   3.967   2.897   4.806  1.0168  1.0083 -0.6496
 3541SOL    HW211523   3.824   2.953   4.862 -0.5470 -1.6994 -1.7295
 3542SOL     OW11524   6.756   5.510   2.904  0.0216 -0.3534  0.0393
 3542SOL    HW111525   6.699   5.578   2.951  1.0758  0.6862 -0.1432
 3542SOL    HW211526   6.796   5.448   2.971  0.2221  0.1166  0.3587
 3543SOL     OW11527   5.072   2.886   4.471 -0.7794  0.3950  0.0874
 3543SOL    HW111528   4.977   2.868   4.445 -0.0023 -1.5486 -1.6535
 3543SOL    HW211529   5.115   2.944   4.402 -0.1954 -0.2521 -0.0924
 3544SOL     OW11530   3.017   2.063   5.986 -0.2425  0.5400 -0.3714
 3544SOL    HW111531   3.111   2.038   6.010  0.1109  0.9274 -1.2943
 3544SOL    HW211532   3.009   2.069   5.887 -1.1630  0.8299 -0.2843
 3545SOL     OW11533   4.361   6.972   6.740  0.0567  0.1739  0.3141
 3545SOL    HW111534   4.319   6.896   6.789  1.5679 -0.6152  0.4284
 3545SOL    HW211535   4.320   6.980   6.650 -2.1447  1.0881  1.3179
 3546SOL     OW11536   0.086   5.939   2.062  0.0929  0.0639 -0.6374
 3546SOL    HW111537   0.074   5.884   1.979 -1.1729  0.5867 -0.8259
 3546SOL    HW211538   0.051   5.888   2.140  1.3206 -0.4437 -0.3897
 3547SOL     OW11539   4.178   4.431   5.830  0.3027 -0.2981 -0.5384
 3547SOL    HW111540   4.232   4.494   5.886  0.9019 -0.7612 -0.5850
 3547SOL    HW211541   4.097   4.478   5.795  0.7900  0.4756 -0.6502
 3548SOL     OW11542   6.985   3.251   4.492 -0.2128  0.0637  0.7061
 3548SOL    HW111543   6.984   3.328   4.555  0.7387  0.0827  0.7237
 3548SOL    HW211544   6.937   3.275   4.408  0.2327  0.7380  0.6419
 3549SOL     OW11545   5.152   4.000   3.462  0.1615 -0.1514  0.3820
 3549SOL    HW111546   5.209   3.926   3.427 -2.0582 -1.2483 -1.1889
 3549SOL    HW211547   5.102   3.967   3.543  0.5245  0.2423  0.7678
 3550SOL     OW11548   6.481   2.552   2.976 -0.4318  0.4594  0.0793
 3550SOL    HW111549   6.449   2.638   3.017 -1.2715 -0.0677  0.5524
 3550SOL    HW211550   6.501   2.567   2.879 -2.1642  0.8119 -0.2467
 3551SOL     OW11551   3.081   6.928   1.512 -0.7129  0.1571 -0.1823
 3551SOL    HW111552   3.170   6.941   1.467 -0.9486  1.5827 -0.2981
 3551SOL    HW211553   3.096   6.899   1.606 -0.1516 -0.4192 -0.4378
 3552SOL     OW11554   0.998   4.509   4.505  0.9811  0.1634  0.3618
 3552SOL    HW111555   1.061   4.532   4.432  1.4493 -0.5981  0.5168
 3552SOL    HW211556   0.972   4.593   4.555 -1.0242  1.0395 -1.9493
 3553SOL     OW11557   6.167   3.380   4.120  0.3011 -0.1612 -0.1918
 3553SOL    HW111558   6.171   3.450   4.048  0.0308  0.3643  0.2944
 3553SOL    HW211559   6.104   3.308   4.093 -0.3453  0.3876 -0.1827
 3554SOL     OW11560   4.603   5.977   5.890 -0.0913  0.3784  0.5775
 3554SOL    HW111561   4.659   6.018   5.962 -0.0772  1.1672  0.1250
 3554SOL    HW211562   4.649   5.895   5.855  1.4026  1.6667 -0.6142
 3555SOL     OW11563   0.365   2.104   3.448 -0.0441  0.5321 -0.1070
 3555SOL    HW111564   0.455   2.132   3.482 -0.2909 -0.6274  1.6299
 3555SOL    HW211565   0.296   2.125   3.516 -0.5243 -2.1870  0.3541
 3556SOL     OW11566   4.586   1.629   3.691  0.2181  0.2181 -0.1031
 3556SOL    HW111567   4.659   1.690   3.658  0.0343  0.9558  0.8229
 3556SOL    HW211568   4.594   1.620   3.790 -0.4086 -0.4251 -0.1145
 3557SOL     OW11569   1.292   6.084   3.305  0.0002  0.4065 -0.4372
 3557SOL    HW111570   1.386   6.061   3.278  0.2100  1.1973 -0.4072
 3557SOL    HW211571   1.248   6.137   3.233  0.0079  1.1158  0.0676
 3558SOL     OW11572   0.165   6.730   1.136  0.7421 -0.2169 -0.7487
 3558SOL    HW111573   0.227   6.695   1.206 -0.9314  1.5451  1.8296
 3558SOL    HW211574   0.071   6.710   1.162  0.0438  0.7827 -2.3398
 3559SOL     OW11575   0.245   5.864   5.319 -0.1308  0.6062 -0.0020
 3559SOL    HW111576   0.254   5.795   5.391 -0.4110  0.7725  0.1936
 3559SOL    HW211577   0.254   5.820   5.230 -1.7597  0.0421  0.0677
 3560SOL     OW11578   6.077   1.033   1.347 -0.6288 -0.4773  0.5204
 3560SOL    HW111579   6.077   1.093   1.267  0.7838 -1.1631 -0.0319
 3560SOL    HW211580   6.082   1.088   1.430 -2.3234  0.2519  0.1731
 3561SOL     OW11581   6.290   6.128   4.826  0.0558  0.0767  0.3022
 3561SOL    HW111582   6.292   6.030   4.844  2.8166  0.1366  0.7140
 3561SOL    HW211583   6.342   6.176   4.897 -2.3758  2.0346  0.8817
 3562SOL     OW11584   3.437   0.674   3.157 -0.0847 -0.1801  0.3557
 3562SOL    HW111585   3.443   0.774   3.166  0.8076 -0.0528 -1.4071
 3562SOL    HW211586   3.407   0.636   3.245 -0.6677  1.6354  1.0104
 3563SOL     OW11587   4.089   0.192   2.513 -0.2746 -0.0872 -0.0429
 3563SOL    HW111588   4.084   0.247   2.429 -0.4778  1.0380  0.6909
 3563SOL    HW211589   4.179   0.203   2.555 -0.4847  0.0840  0.3689
 3564SOL     OW11590   6.173   2.963   1.308  0.3513  0.5069  0.3826
 3564SOL    HW111591   6.099   3.020   1.342 -0.1945 -0.0284  0.0991
 3564SOL    HW211592   6.247   2.960   1.376 -0.3705  0.1272  1.1669
 3565SOL     OW11593   0.492   1.408   6.185  0.4259  0.1799 -0.5613
 3565SOL    HW111594   0.519   1.492   6.139  0.5223  1.5370  1.8002
 3565SOL    HW211595   0.427   1.429   6.258 -2.9680 -2.3385 -2.5602
 3566SOL     OW11596   6.949   4.635   5.861 -0.0804 -0.1599  0.0761
 3566SOL    HW111597   6.933   4.693   5.941  1.0197  0.4461 -0.1292
 3566SOL    HW211598   6.873   4.645   5.797 -0.5207  0.0633  0.6197
 3567SOL     OW11599   5.753   2.158   0.745 -0.0342 -0.2212 -0.5408
 3567SOL    HW111600   5.826   2.207   0.698 -0.9130  2.8836  1.0132
 3567SOL    HW211601   5.792   2.091   0.808  1.2717 -1.1840 -2.2958
 3568SOL     OW11602   4.229   5.870   4.840 -0.0769 -0.1810  0.3308
 3568SOL    HW111603   4.234   5.773   4.861  0.0385 -0.3244 -0.3288
 3568SOL    HW211604   4.283   5.889   4.758  0.6410  0.5914  0.9628
 3569SOL     OW11605   3.747   3.804   2.312  0.0525 -0.4995  0.0942
 3569SOL    HW111606   3.792   3.843   2.232  0.9858 -0.7482  0.4831
 3569SOL    HW211607   3.793   3.836   2.395 -0.6790 -0.5280  0.5196
 3570SOL     OW11608   0.135   3.399   5.365 -0.3114 -0.3644  0.6614
 3570SOL    HW111609   0.047   3.373   5.324 -0.5179 -2.6775  2.3509
 3570SOL    HW211610   0.182   3.464   5.306 -2.8121  0.3587 -0.6651
 3571SOL     OW11611   2.482   6.382   3.824  0.0046  0.6398 -0.0282
 3571SOL    HW111612   2.502   6.295   3.778 -1.1185 -0.2006  1.0126
 3571SOL    HW211613   2.409   6.429   3.774  1.3856  1.5718 -1.2511
 3572SOL     OW11614   4.530   4.605   3.796  0.6701  0.3732 -1.1769
 3572SOL    HW111615   4.439   4.602   3.756  0.4805  0.1019 -0.7303
 3572SOL    HW211616   4.596   4.637   3.727  0.4826 -0.8335 -1.9452
 3573SOL     OW11617   2.025   3.547   3.070  0.3671  0.6871  0.3690
 3573SOL    HW111618   2.053   3.451   3.070 -0.2888  0.4881  1.0352
 3573SOL    HW211619   1.927   3.553   3.092  0.6708  1.5679  1.5853
 3574SOL     OW11620   2.332   3.704   0.507 -0.2608 -0.1604  0.1767
 3574SOL    HW111621   2.308   3.719   0.412 -1.3314  0.9528  0.5861
 3574SOL    HW211622   2.279   3.628   0.544  1.1752 -1.5171 -0.4583
 3575SOL     OW11623   5.035   0.402   6.074 -0.2225 -0.3566 -0.2991
 3575SOL    HW111624   5.072   0.398   5.981  0.6280  0.6781 -0.0263
 3575SOL    HW211625   5.063   0.488   6.117 -0.4952 -0.8820  0.9688
 3576SOL     OW11626   1.085   2.600   0.620 -0.1790  0.0990  0.8967
 3576SOL    HW111627   1.154   2.632   0.555 -0.6449 -0.4387  0.1257
 3576SOL    HW211628   1.027   2.677   0.648  0.0468  0.3407  0.7021
 3577SOL     OW11629   0.918   3.070   4.546  0.5323 -0.2812 -0.3803
 3577SOL    HW111630   0.899   3.007   4.471  0.4067 -0.0945 -0.5073
 3577SOL    HW211631   0.907   3.023   4.633 -2.6073  0.2970 -0.3307
 3578SOL     OW11632   5.667   2.154   1.272  0.8885  0.2322  0.2346
 3578SOL    HW111633   5.676   2.055   1.269  1.6269  0.2575  1.1982
 3578SOL    HW211634   5.662   2.184   1.367 -1.2718  0.9645 -0.0546
 3579SOL     OW11635   6.974   3.373   3.454 -0.0187 -0.0185 -0.3026
 3579SOL    HW111636   6.889   3.321   3.446 -0.6897  0.6328  1.8904
 3579SOL    HW211637   7.021   3.373   3.366 -1.6886 -1.3946 -1.2645
 3580SOL     OW11638   6.726   2.974   1.999 -0.3169 -0.1601  0.2075
 3580SOL    HW111639   6.811   2.930   1.971 -0.1406  0.2180  0.1487
 3580SOL    HW211640   6.654   2.905   2.007 -0.2665 -0.3295 -0.7612
 3581SOL     OW11641   0.749   5.246   1.144 -0.6824 -0.5800  0.2772
 3581SOL    HW111642   0.797   5.266   1.059 -1.0822  0.6880  0.3147
 3581SOL    HW211643   0.652   5.231   1.124 -0.6832 -0.7977  0.4490
 3582SOL     OW11644   5.503   6.163   0.981 -0.0337 -0.2225 -0.2058
 3582SOL    HW111645   5.492   6.199   0.888  1.7665 -0.2297 -0.4484
 3582SOL    HW211646   5.414   6.164   1.028 -0.9793 -0.2495 -1.9219
 3583SOL     OW11647   1.634   6.620   0.497  0.3250 -0.3804  0.1388
 3583SOL    HW111648   1.539   6.648   0.481  0.3982 -0.5861 -0.7484
 3583SOL    HW211649   1.635   6.540   0.556 -0.0637 -0.4120  0.1064
 3584SOL     OW11650   4.881   5.885   6.961 -0.7911  0.6024 -0.0684
 3584SOL    HW111651   4.888   5.787   6.943 -0.1321  0.7070 -0.3962
 3584SOL    HW211652   4.927   5.936   6.889 -0.6823  1.1382  0.3711
 3585SOL     OW11653   5.835   3.176   2.004  0.0693 -0.7244 -0.3088
 3585SOL    HW111654   5.742   3.161   1.972 -0.2144  0.3406 -0.0183
 3585SOL    HW211655   5.842   3.147   2.099 -0.9887  2.4921  0.8697
 3586SOL     OW11656   0.555   3.167   4.757  0.0169  0.0574 -0.1755
 3586SOL    HW111657   0.612   3.203   4.831  0.0260  0.7878 -0.5341
 3586SOL    HW211658   0.474   3.224   4.746  1.0052  1.1702 -2.0671
 3587SOL     OW11659   3.530   6.661   5.747 -0.7448 -0.2689 -0.0022
 3587SOL    HW111660   3.619   6.624   5.724 -1.6050 -1.1675 -2.0892
 3587SOL    HW211661   3.541   6.754   5.783  1.0983 -0.8865  1.1497
 3588SOL     OW11662   5.182   4.791   3.483 -0.1334 -0.0729 -0.2162
 3588SOL    HW111663   5.132   4.828   3.405  0.1695 -2.6134 -1.7357
 3588SOL    HW211664   5.280   4.792   3.464  0.5016  3.7067  2.2281
 3589SOL     OW11665   0.298   0.315   5.426  0.6785  0.2376 -0.2660
 3589SOL    HW111666   0.311   0.396   5.368  1.7354  0.5213  0.3580
 3589SOL    HW211667   0.313   0.339   5.522 -5.0464  0.8376  0.8425
 3590SOL     OW11668   0.255   6.499   4.779  0.0593 -0.3463  0.2595
 3590SOL    HW111669   0.314   6.548   4.715  0.7121 -0.5243  0.7070
 3590SOL    HW211670   0.160   6.506   4.750  0.3491 -0.4372 -0.7310
 3591SOL     OW11671   6.080   2.424   6.477 -0.0560 -0.1796  0.4146
 3591SOL    HW111672   5.981   2.428   6.495 -0.0438 -2.3295  1.2665
 3591SOL    HW211673   6.109   2.329   6.473  1.4853  0.2885 -2.9931
 3592SOL     OW11674   0.783   0.433   1.319  0.7015  0.5103 -0.0302
 3592SOL    HW111675   0.684   0.439   1.305  0.6279  1.5929  0.8045
 3592SOL    HW211676   0.827   0.510   1.273  0.9703  1.0272  1.0688
 3593SOL     OW11677   3.478   3.615   5.603 -0.0852 -0.4638  1.2760
 3593SOL    HW111678   3.504   3.702   5.646  1.6305 -0.7940  0.9466
 3593SOL    HW211679   3.559   3.558   5.589 -0.9399 -1.4160 -0.0975
 3594SOL     OW11680   3.531   4.100   5.976  0.1447 -0.1028 -0.2254
 3594SOL    HW111681   3.543   4.124   6.072 -3.0880 -1.9663  0.8084
 3594SOL    HW211682   3.620   4.079   5.936  1.4715 -1.0450  2.8768
 3595SOL     OW11683   4.988   4.600   6.818  0.2040 -0.2773 -0.3866
 3595SOL    HW111684   4.978   4.675   6.753  0.8556  0.8329  0.7493
 3595SOL    HW211685   5.075   4.610   6.867 -0.7855 -0.4099  1.4825
 3596SOL     OW11686   3.768   2.796   1.258  0.2123  0.0103 -0.1521
 3596SOL    HW111687   3.748   2.718   1.317  0.1317  0.0597 -0.1145
 3596SOL    HW211688   3.685   2.850   1.245  0.3125  0.1966 -0.0203
 3597SOL     OW11689   5.292   3.852   5.216  0.5798  0.5093 -0.4163
 3597SOL    HW111690   5.220   3.819   5.155 -0.0485  1.6405 -0.3330
 3597SOL    HW211691   5.272   3.823   5.310  0.1781  0.8707 -0.3847
 3598SOL     OW11692   5.007   5.455   5.441 -0.0654 -0.9982 -0.2957
 3598SOL    HW111693   4.913   5.422   5.436 -0.0523 -1.0815 -0.0059
 3598SOL    HW211694   5.013   5.529   5.508  0.2192 -1.5059  0.2541
 3599SOL     OW11695   2.467   2.491   0.161  0.1408 -0.1935 -0.0118
 3599SOL    HW111696   2.511   2.523   0.077  0.0501 -0.6448 -0.2354
 3599SOL    HW211697   2.503   2.400   0.184  0.1892 -0.0572  0.4551
 3600SOL     OW11698   3.022   2.775   1.491 -0.1542  0.5555  0.5229
 3600SOL    HW111699   2.923   2.782   1.503 -0.1787  0.0022  0.6738
 3600SOL    HW211700   3.061   2.866   1.477 -0.6937  0.7666  0.3877
 3601SOL     OW11701   2.955   1.454   5.447  0.1525 -0.6197  0.4750
 3601SOL    HW111702   3.054   1.460   5.435  0.3404  0.2162  2.1374
 3601SOL    HW211703   2.909   1.507   5.376  0.8836 -1.0238 -0.3173
 3602SOL     OW11704   0.772   2.291   1.525  0.7832  0.1593  0.1415
 3602SOL    HW111705   0.790   2.330   1.435 -0.6697  0.6053  0.0197
 3602SOL    HW211706   0.794   2.193   1.524  1.2229  0.2610 -0.5515
 3603SOL     OW11707   2.066   0.055   3.897  0.2965  0.2092 -0.1958
 3603SOL    HW111708   1.980   0.088   3.936 -0.2590  1.7083 -2.4496
 3603SOL    HW211709   2.121   0.012   3.968 -1.1245  1.6481  1.9068
 3604SOL     OW11710   0.993   6.929   5.163  0.3224 -0.0421  0.3727
 3604SOL    HW111711   1.081   6.950   5.121 -0.7347  0.2906 -1.7735
 3604SOL    HW211712   1.009   6.894   5.256  2.7337 -0.6804 -0.1987
 3605SOL     OW11713   1.101   6.770   3.840 -0.1512  0.2897 -0.3181
 3605SOL    HW111714   1.130   6.820   3.759 -1.0797 -0.3040 -1.0416
 3605SOL    HW211715   1.167   6.784   3.914  2.4514 -1.6092 -2.0902
 3606SOL     OW11716   2.542   6.678   2.760  0.3459  0.2411 -0.2291
 3606SOL    HW111717   2.597   6.759   2.738  0.3423  0.5698  0.8966
 3606SOL    HW211718   2.524   6.676   2.858 -0.3027 -0.7283 -0.3544
 3607SOL     OW11719   5.873   1.837   3.405  0.0674 -0.2263  0.4680
 3607SOL    HW111720   5.962   1.873   3.434 -0.1289  0.2149  0.5343
 3607SOL    HW211721   5.885   1.746   3.366  0.5685 -0.1109  0.3458
 3608SOL     OW11722   4.150   3.466   6.723 -0.0480 -0.2993 -0.0354
 3608SOL    HW111723   4.069   3.509   6.683  1.7510  1.5133 -1.9888
 3608SOL    HW211724   4.203   3.534   6.773  2.3924 -0.3040 -2.3862
 3609SOL     OW11725   3.199   5.083   3.054  1.1637  0.4282 -0.5261
 3609SOL    HW111726   3.200   5.180   3.028 -1.6439  1.3105  2.0565
 3609SOL    HW211727   3.167   5.028   2.978  1.0274  1.7805 -1.4804
 3610SOL     OW11728   1.323   6.845   0.225 -0.0929 -0.2694  0.0450
 3610SOL    HW111729   1.235   6.806   0.251 -0.4898 -0.1609 -1.0865
 3610SOL    HW211730   1.348   6.916   0.291 -0.6995 -0.5139  0.5534
 3611SOL     OW11731   6.558   2.166   0.894  0.8415 -0.3222  0.6554
 3611SOL    HW111732   6.637   2.124   0.849  0.3680 -1.1983  0.6099
 3611SOL    HW211733   6.562   2.265   0.884 -0.0810 -0.5252 -2.7665
 3612SOL     OW11734   5.229   1.184   3.214 -0.7210 -0.4233 -0.4234
 3612SOL    HW111735   5.211   1.113   3.282  3.1422  0.3142  1.6612
 3612SOL    HW211736   5.193   1.271   3.246  0.9270 -0.1152  0.7097
 3613SOL     OW11737   4.377   2.261   2.081 -0.0049  0.4643 -1.0140
 3613SOL    HW111738   4.421   2.349   2.065  0.4917  0.3765 -0.1766
 3613SOL    HW211739   4.357   2.217   1.993 -0.1178  1.3342 -1.4376
 3614SOL     OW11740   3.648   5.316   5.703 -0.0238  0.7223 -0.1685
 3614SOL    HW111741   3.574   5.271   5.753 -0.7820 -0.4004 -2.1631
 3614SOL    HW211742   3.701   5.373   5.765 -0.5291 -1.0366  2.0140
 3615SOL     OW11743   5.037   2.121   0.628 -0.0336 -0.2190 -0.1292
 3615SOL    HW111744   4.965   2.179   0.667  0.6321 -0.4682  1.5342
 3615SOL    HW211745   5.085   2.172   0.556  2.1329  2.3538  2.8498
 3616SOL     OW11746   1.226   1.377   1.045  0.7229 -0.3873  0.2526
 3616SOL    HW111747   1.187   1.393   1.136 -0.5030 -0.3231 -0.2727
 3616SOL    HW211748   1.322   1.351   1.055  0.9370  0.7533  1.4949
 3617SOL     OW11749   4.861   6.169   0.276  0.1201  0.1285 -0.0336
 3617SOL    HW111750   4.874   6.268   0.271  1.1509  0.0046 -0.0358
 3617SOL    HW211751   4.939   6.123   0.234 -1.1049 -0.6791 -1.5066
 3618SOL     OW11752   6.213   4.357   3.026 -0.1106 -0.4881 -0.4436
 3618SOL    HW111753   6.218   4.434   2.963 -2.6476 -0.1801 -0.3718
 3618SOL    HW211754   6.223   4.390   3.120 -2.7017  0.1009 -0.2907
 3619SOL     OW11755   2.095   1.278   2.351 -0.3303  1.1220 -0.1848
 3619SOL    HW111756   2.182   1.229   2.350  0.3819  2.3571 -0.6804
 3619SOL    HW211757   2.038   1.242   2.425  1.1056  1.1458  0.9812
 3620SOL     OW11758   4.798   2.211   5.885  0.2020 -0.6379 -0.5906
 3620SOL    HW111759   4.708   2.253   5.878  0.0450 -1.0891 -1.4341
 3620SOL    HW211760   4.866   2.268   5.839 -0.0685 -1.4415 -2.0292
 3621SOL     OW11761   2.941   3.681   3.360  0.0678  0.0379  0.5103
 3621SOL    HW111762   2.913   3.671   3.264  0.9014  0.3118  0.2279
 3621SOL    HW211763   2.925   3.595   3.408  0.9662 -0.5638 -0.2327
 3622SOL     OW11764   1.697   1.051   5.827 -0.4182 -0.1771 -0.2550
 3622SOL    HW111765   1.651   1.098   5.752 -0.7421 -1.1817 -0.7095
 3622SOL    HW211766   1.635   0.983   5.867 -1.0329  1.7610  2.3508
 3623SOL     OW11767   1.673   6.053   3.773  1.1227 -0.3282 -0.2787
 3623SOL    HW111768   1.622   6.060   3.687 -0.0313 -0.4969  0.3770
 3623SOL    HW211769   1.767   6.084   3.758  0.2727  2.1789 -1.0101
 3624SOL     OW11770   2.971   1.826   3.305  0.2338  0.4622 -0.6416
 3624SOL    HW111771   3.014   1.834   3.395  4.3562 -3.8835 -1.7616
 3624SOL    HW211772   3.034   1.857   3.234 -1.5843  0.7407 -2.2439
 3625SOL     OW11773   6.186   2.859   2.420  0.3023  0.1998  0.2459
 3625SOL    HW111774   6.253   2.854   2.494 -0.4399 -0.8085  0.8767
 3625SOL    HW211775   6.137   2.772   2.414 -1.0184  0.9389 -0.1269
 3626SOL     OW11776   2.289   2.870   6.501  0.6203  0.0394 -0.0814
 3626SOL    HW111777   2.246   2.952   6.464  1.7735  1.4761  1.6015
 3626SOL    HW211778   2.229   2.828   6.570  0.3056 -0.1763 -0.4833
 3627SOL     OW11779   4.638   2.702   3.281 -0.1012  0.1510  0.4427
 3627SOL    HW111780   4.585   2.683   3.198  1.6600 -0.0142 -0.7212
 3627SOL    HW211781   4.597   2.655   3.359  0.2031 -2.8071 -1.0315
 3628SOL     OW11782   1.192   0.461   1.491 -0.1444 -0.1491  0.6865
 3628SOL    HW111783   1.150   0.423   1.573  1.3293 -2.4454  0.4568
 3628SOL    HW211784   1.292   0.458   1.501  0.0379  1.0301 -0.5630
 3629SOL     OW11785   0.866   1.815   4.054 -0.4319  0.0138 -0.2507
 3629SOL    HW111786   0.769   1.794   4.052 -0.5204  0.3543 -2.8844
 3629SOL    HW211787   0.918   1.735   4.084 -1.4349 -0.5711 -0.0595
 3630SOL     OW11788   6.254   2.830   1.934 -0.5664  0.0924  0.0919
 3630SOL    HW111789   6.160   2.799   1.947 -0.4343 -0.4099 -0.1469
 3630SOL    HW211790   6.287   2.874   2.018 -0.2379 -1.7479  0.9698
 3631SOL     OW11791   2.871   5.069   3.593 -0.1938  0.0665  0.4599
 3631SOL    HW111792   2.834   5.151   3.636 -0.5807  0.3987 -0.4714
 3631SOL    HW211793   2.850   5.071   3.495  0.5561 -0.7191  0.2717
 3632SOL     OW11794   4.085   1.668   0.869  0.9312 -0.0460 -0.5349
 3632SOL    HW111795   4.109   1.725   0.947  2.7563  0.1553 -1.1996
 3632SOL    HW211796   4.046   1.724   0.796  1.9538  0.2373 -0.8720
 3633SOL     OW11797   4.862   5.185   6.468  0.1932 -0.0477 -0.5784
 3633SOL    HW111798   4.941   5.213   6.523  0.5244 -0.0105 -1.0669
 3633SOL    HW211799   4.796   5.260   6.463  1.3374  0.8940 -2.3638
 3634SOL     OW11800   1.449   5.649   6.652  0.4597 -0.7131  0.3635
 3634SOL    HW111801   1.504   5.702   6.587 -1.3094  0.3200 -0.3783
 3634SOL    HW211802   1.375   5.603   6.603  0.1027 -1.3236  1.4370
 3635SOL     OW11803   2.721   6.478   1.885 -0.3569  0.0550 -0.0177
 3635SOL    HW111804   2.721   6.547   1.957  3.3800  1.5679 -1.2205
 3635SOL    HW211805   2.813   6.440   1.875 -1.4793 -2.4809 -1.8722
 3636SOL     OW11806   4.600   5.539   2.503 -0.6466 -0.5434  0.4725
 3636SOL    HW111807   4.681   5.545   2.445 -1.8701  0.2330 -1.2328
 3636SOL    HW211808   4.622   5.573   2.595  0.6515  0.8869 -0.3204
 3637SOL     OW11809   4.273   1.428   6.847 -0.3179 -0.2192 -0.4242
 3637SOL    HW111810   4.331   1.393   6.773 -0.1561 -0.3572 -0.2364
 3637SOL    HW211811   4.180   1.394   6.835  0.1645 -2.0746  0.6207
 3638SOL     OW11812   2.338   2.763   3.379 -0.1834 -0.4898  0.2921
 3638SOL    HW111813   2.331   2.743   3.281  2.2280  2.0485 -0.5131
 3638SOL    HW211814   2.418   2.718   3.417  0.7878  1.1440  0.2663
 3639SOL     OW11815   3.798   3.922   2.553  0.6216  0.5571 -0.1151
 3639SOL    HW111816   3.808   3.862   2.632  1.3776 -0.0134 -0.6313
 3639SOL    HW211817   3.719   3.981   2.566 -0.0819 -0.4804  0.4559
 3640SOL     OW11818   4.602   0.720   3.442 -0.0911 -0.6686  0.2897
 3640SOL    HW111819   4.632   0.651   3.377  1.4555 -0.5773  0.8594
 3640SOL    HW211820   4.631   0.694   3.534  1.4656  1.2025  0.3987
 3641SOL     OW11821   6.947   3.477   1.971 -0.1833  0.8839 -0.2178
 3641SOL    HW111822   6.869   3.533   1.942 -0.1744  0.6528 -0.6985
 3641SOL    HW211823   7.011   3.467   1.894 -0.5771 -0.4573 -0.3952
 3642SOL     OW11824   1.693   4.702   6.059  0.9018 -0.3328 -0.2490
 3642SOL    HW111825   1.757   4.629   6.035 -1.1451 -1.9233 -1.2762
 3642SOL    HW211826   1.599   4.670   6.044 -0.0991  2.7483 -1.3716
 3643SOL     OW11827   1.871   4.342   6.216  0.3243 -0.3462 -0.2740
 3643SOL    HW111828   1.783   4.322   6.174 -0.8053  0.2590  1.6479
 3643SOL    HW211829   1.896   4.268   6.279  0.1187  0.4285  0.7572
 3644SOL     OW11830   3.944   2.128   2.113 -0.1403 -0.6103 -0.8504
 3644SOL    HW111831   3.942   2.029   2.100 -0.1244 -0.8761  0.9169
 3644SOL    HW211832   3.854   2.166   2.092 -0.5425 -1.1919 -0.2052
 3645SOL     OW11833   1.784   2.835   4.271  0.5678  0.3431 -0.1552
 3645SOL    HW111834   1.807   2.814   4.366 -0.6351  0.6039  0.2171
 3645SOL    HW211835   1.867   2.857   4.221  1.1652  0.8190  0.9953
 3646SOL     OW11836   2.106   3.905   4.425 -0.5537  0.0721 -0.6650
 3646SOL    HW111837   2.106   4.004   4.440 -0.7417 -0.1407  0.9546
 3646SOL    HW211838   2.112   3.858   4.513 -1.1354 -1.3678 -1.3575
 3647SOL     OW11839   1.774   2.361   0.332 -0.2136 -0.8162  0.3315
 3647SOL    HW111840   1.785   2.357   0.233  1.2605 -0.8238  0.4717
 3647SOL    HW211841   1.795   2.453   0.365 -1.6107 -0.5584  0.5581
 3648SOL     OW11842   2.432   6.125   4.147  0.1421 -0.2534 -0.0102
 3648SOL    HW111843   2.417   6.026   4.143 -1.2758 -0.1402  1.4498
 3648SOL    HW211844   2.526   6.145   4.174 -0.5783 -1.3490  3.9232
 3649SOL     OW11845   6.897   3.969   6.121 -0.8840  0.4380  0.2785
 3649SOL    HW111846   6.902   4.033   6.198  0.8654  0.0119  0.5680
 3649SOL    HW211847   6.857   3.883   6.151 -0.8874  0.5220  0.5158
 3650SOL     OW11848   4.673   6.269   1.110  0.9889 -0.2911  0.5456
 3650SOL    HW111849   4.657   6.182   1.063  0.5866 -0.6214  1.2822
 3650SOL    HW211850   4.741   6.321   1.060  1.3128 -1.0786  0.1453
 3651SOL     OW11851   1.284   1.680   5.444  0.0066  0.8142  0.1418
 3651SOL    HW111852   1.321   1.703   5.354  0.7228  2.6241  0.8523
 3651SOL    HW211853   1.355   1.691   5.513 -0.2138 -1.5996  0.8581
 3652SOL     OW11854   4.959   3.428   1.734 -0.2350 -0.5730 -0.0459
 3652SOL    HW111855   4.946   3.397   1.828  1.2694  1.5508  0.9425
 3652SOL    HW211856   4.877   3.477   1.704 -1.1639 -2.2214 -0.2934
 3653SOL     OW11857   3.140   2.145   2.304  0.0493  0.1243  0.3477
 3653SOL    HW111858   3.043   2.144   2.282  0.0620  0.2156  0.2863
 3653SOL    HW211859   3.188   2.205   2.240  0.0704  0.4808  0.7018
 3654SOL     OW11860   4.274   4.763   2.016 -0.0570  0.3977  0.2166
 3654SOL    HW111861   4.222   4.703   2.077  0.4946  1.3893  1.7487
 3654SOL    HW211862   4.371   4.740   2.023 -0.1681 -1.0617 -2.1786
 3655SOL     OW11863   2.404   5.625   2.762  0.4921  0.1803  0.2648
 3655SOL    HW111864   2.416   5.559   2.687 -0.3978  0.4330 -0.1050
 3655SOL    HW211865   2.353   5.582   2.836 -1.7902  0.9907 -0.7602
 3656SOL     OW11866   0.918   0.723   0.877 -0.2736 -0.4664 -0.0213
 3656SOL    HW111867   0.881   0.774   0.799 -0.8336 -1.9175 -0.7379
 3656SOL    HW211868   1.018   0.719   0.870  0.0101  2.2970  1.1874
 3657SOL     OW11869   0.160   2.910   6.819 -0.2428  0.3869  0.1994
 3657SOL    HW111870   0.258   2.925   6.829 -0.1187 -0.5531  0.5322
 3657SOL    HW211871   0.110   2.989   6.854  0.3951  0.8359  0.1030
 3658SOL     OW11872   1.973   4.332   5.068 -0.2478  0.5123 -0.2080
 3658SOL    HW111873   1.922   4.408   5.109 -1.2862 -0.0259 -0.4416
 3658SOL    HW211874   1.946   4.323   4.972 -0.4814 -0.4302 -0.0590
 3659SOL     OW11875   0.870   2.599   1.514 -0.4616 -0.3642 -0.0416
 3659SOL    HW111876   0.838   2.608   1.420 -2.6664 -0.5495  0.6476
 3659SOL    HW211877   0.810   2.537   1.564  0.5185 -0.0673  1.5639
 3660SOL     OW11878   4.564   4.408   3.324 -0.1363  0.6721  0.6817
 3660SOL    HW111879   4.552   4.489   3.382 -0.9381  1.1910 -0.1777
 3660SOL    HW211880   4.577   4.436   3.229 -0.8084 -0.2040  0.3075
 3661SOL     OW11881   0.242   1.350   5.043  0.0568  0.4549  0.5586
 3661SOL    HW111882   0.216   1.446   5.034  0.0654  0.4162  0.0789
 3661SOL    HW211883   0.333   1.343   5.083  0.5213  0.6888 -0.4394
 3662SOL     OW11884   4.494   2.977   6.417 -0.0009  0.8657  0.1049
 3662SOL    HW111885   4.427   2.943   6.483  0.7495  0.9469  0.9348
 3662SOL    HW211886   4.462   3.064   6.378 -0.5046  0.7581  0.2783
 3663SOL     OW11887   1.341   2.600   5.539 -0.1327 -0.4933 -0.5019
 3663SOL    HW111888   1.328   2.692   5.503  3.7005  0.5663  0.3829
 3663SOL    HW211889   1.284   2.587   5.620 -0.1404  1.4269 -0.1709
 3664SOL     OW11890   1.614   2.457   1.646  0.1761  0.4791  0.6253
 3664SOL    HW111891   1.572   2.422   1.729  0.4186  1.2693  1.0918
 3664SOL    HW211892   1.664   2.541   1.667  1.9748 -0.4134  0.0974
 3665SOL     OW11893   6.971   4.869   0.480  0.2034  0.5291  0.3474
 3665SOL    HW111894   7.057   4.877   0.531  0.9897  0.7366 -0.9478
 3665SOL    HW211895   6.953   4.772   0.461 -0.4056  0.4054  1.5084
 3666SOL     OW11896   2.408   4.233   5.263 -0.4570  0.3261  0.0196
 3666SOL    HW111897   2.483   4.234   5.330 -1.4612  0.2271  1.1733
 3666SOL    HW211898   2.400   4.141   5.224  2.0342  1.0564 -2.4991
 3667SOL     OW11899   2.847   5.966   1.867  0.1562 -0.2640  0.7621
 3667SOL    HW111900   2.801   5.877   1.857 -0.0286 -0.2965  1.7654
 3667SOL    HW211901   2.804   6.033   1.807 -1.1714 -0.3205  1.6028
 3668SOL     OW11902   5.055   1.050   2.324 -0.4334  0.0413 -0.5995
 3668SOL    HW111903   5.147   1.011   2.334 -0.5182 -0.1970 -0.7320
 3668SOL    HW211904   5.013   1.014   2.240 -0.9341 -0.4247 -0.1517
 3669SOL     OW11905   6.769   2.717   3.939  0.0288  0.1428 -0.3857
 3669SOL    HW111906   6.780   2.808   3.978 -2.5663 -0.0413  1.0053
 3669SOL    HW211907   6.744   2.725   3.842 -0.8582  0.9754 -0.1071
 3670SOL     OW11908   1.915   6.974   2.163  0.4095  0.1881  0.3332
 3670SOL    HW111909   1.882   7.025   2.083  0.2802 -0.8127 -0.2679
 3670SOL    HW211910   1.914   7.034   2.243 -0.0146  1.0427 -0.2909
 3671SOL     OW11911   0.420   0.238   4.239  0.0719 -0.2000  0.1204
 3671SOL    HW111912   0.491   0.203   4.177 -0.3081 -0.1087 -0.3689
 3671SOL    HW211913   0.455   0.318   4.288 -0.5632  1.5439 -2.1044
 3672SOL     OW11914   3.479   6.971   3.287 -0.1787 -0.0185  0.0231
 3672SOL    HW111915   3.568   6.998   3.324  0.1829 -2.0534  0.7542
 3672SOL    HW211916   3.421   7.052   3.278  0.2202  0.8278  3.6200
 3673SOL     OW11917   5.072   1.447   0.989 -0.3076 -0.0139 -0.1451
 3673SOL    HW111918   5.024   1.534   0.979 -0.5212  0.0109  0.9345
 3673SOL    HW211919   5.118   1.424   0.903  1.6790  2.3056  0.1664
 3674SOL     OW11920   0.329   4.508   5.496 -0.4865 -0.3010  0.0688
 3674SOL    HW111921   0.360   4.592   5.451 -1.1338  0.2613  0.6603
 3674SOL    HW211922   0.238   4.522   5.535 -0.3152 -1.0654  0.7748
 3675SOL     OW11923   5.822   1.943   6.311 -0.3151 -0.2134  0.2234
 3675SOL    HW111924   5.895   1.897   6.363  0.0900 -0.9195 -0.9191
 3675SOL    HW211925   5.751   1.877   6.287 -0.3467  0.0225 -0.3674
 3676SOL     OW11926   3.497   1.256   0.419  0.0255  0.3715  0.2939
 3676SOL    HW111927   3.510   1.162   0.385 -0.4872  0.3875  0.0440
 3676SOL    HW211928   3.437   1.255   0.499 -1.2786  0.6252 -0.6464
 3677SOL     OW11929   0.160   6.682   5.627  0.3580 -0.1869  0.2264
 3677SOL    HW111930   0.110   6.641   5.550 -2.2002  1.2057  1.0096
 3677SOL    HW211931   0.190   6.774   5.602 -0.0634  0.0882  0.7181
 3678SOL     OW11932   2.874   2.289   4.028  0.2289  0.5472 -0.0748
 3678SOL    HW111933   2.815   2.326   3.956 -0.3005 -2.2555 -1.2041
 3678SOL    HW211934   2.967   2.278   3.994  0.8548  2.4213  0.8571
 3679SOL     OW11935   3.108   1.069   1.688 -0.7699 -0.2123 -0.7283
 3679SOL    HW111936   3.125   1.116   1.601 -0.7276 -1.3974 -1.3811
 3679SOL    HW211937   3.018   1.096   1.722  0.9123  3.7478  1.2175
 3680SOL     OW11938   5.668   5.913   2.935  0.5367  0.2728 -0.0163
 3680SOL    HW111939   5.655   5.986   2.867  0.9830  0.1558 -0.2282
 3680SOL    HW211940   5.608   5.930   3.013  0.7859  0.9744  0.0282
 3681SOL     OW11941   3.248   6.114   0.887  0.1057  1.0007  0.1399
 3681SOL    HW111942   3.346   6.119   0.909  0.3663  0.6676 -0.9035
 3681SOL    HW211943   3.220   6.199   0.841 -0.2238  1.2997  0.8618
 3682SOL     OW11944   4.439   0.401   2.325 -0.6334  0.0077  0.2748
 3682SOL    HW111945   4.400   0.391   2.416  2.8536 -0.3213  1.9071
 3682SOL    HW211946   4.416   0.492   2.288 -1.5106  0.4259  1.7818
 3683SOL     OW11947   4.940   1.648   1.365  0.1835 -0.2255 -0.1984
 3683SOL    HW111948   5.020   1.600   1.331 -0.2216  0.5555 -2.3920
 3683SOL    HW211949   4.857   1.604   1.331 -0.2528  0.5690 -0.1921
 3684SOL     OW11950   1.226   6.829   5.779  0.4838 -0.0121 -1.0979
 3684SOL    HW111951   1.204   6.894   5.707  0.0366  1.1198  0.0177
 3684SOL    HW211952   1.324   6.806   5.775  0.2147 -1.0365 -2.8650
 3685SOL     OW11953   2.474   0.399   3.028 -0.0125 -0.1319 -0.1222
 3685SOL    HW111954   2.442   0.326   3.087 -0.2253 -1.4451 -1.7800
 3685SOL    HW211955   2.519   0.360   2.948 -0.3917  1.5393 -1.2085
 3686SOL     OW11956   1.063   5.814   6.844  0.1658 -0.2377  0.3550
 3686SOL    HW111957   1.076   5.826   6.745  0.0505  1.0851  0.4715
 3686SOL    HW211958   1.087   5.721   6.870  0.0904 -0.6408 -0.9399
 3687SOL     OW11959   5.191   4.442   6.050  0.2453 -0.1955  0.0883
 3687SOL    HW111960   5.250   4.424   5.971 -0.4404  0.6077 -0.6248
 3687SOL    HW211961   5.182   4.359   6.105 -0.6769 -1.2691 -1.6350
 3688SOL     OW11962   1.018   1.361   7.000  0.0005  0.5147 -0.2240
 3688SOL    HW111963   1.086   1.413   7.052  1.3986  0.9575 -2.3961
 3688SOL    HW211964   1.049   1.267   6.989 -0.9121  0.0699  0.7707
 3689SOL     OW11965   0.928   2.840   5.015  0.8209  0.1540  0.4540
 3689SOL    HW111966   1.024   2.823   5.038  0.3915 -0.6778  1.7607
 3689SOL    HW211967   0.875   2.756   5.030 -0.1853  0.7182  0.1565
 3690SOL     OW11968   6.569   5.384   4.339 -0.0616 -0.4828 -0.9895
 3690SOL    HW111969   6.536   5.417   4.427  3.3106  0.6778 -0.0060
 3690SOL    HW211970   6.583   5.285   4.343 -0.1874 -0.4738 -0.2882
 3691SOL     OW11971   3.173   2.555   6.712  0.1308 -0.2056 -0.4942
 3691SOL    HW111972   3.097   2.620   6.713  0.2088 -0.0144 -2.4318
 3691SOL    HW211973   3.168   2.496   6.792 -3.0623 -1.3311 -1.3533
 3692SOL     OW11974   2.084   3.047   6.379 -0.0673 -0.5033  0.3529
 3692SOL    HW111975   2.041   3.006   6.298 -0.9496  1.0009  0.0236
 3692SOL    HW211976   2.160   3.106   6.349 -1.1590  1.0200  0.4756
 3693SOL     OW11977   2.213   6.681   3.413  0.3258  0.5839 -0.2086
 3693SOL    HW111978   2.167   6.761   3.450  1.2669 -0.1579  2.8473
 3693SOL    HW211979   2.153   6.635   3.347 -0.6927  3.0449 -1.0932
 3694SOL     OW11980   6.855   4.281   3.914 -0.1712 -0.1064 -0.4922
 3694SOL    HW111981   6.865   4.366   3.864 -0.0013  0.5906  0.6946
 3694SOL    HW211982   6.863   4.204   3.850  1.8861  0.6724 -1.2776
 3695SOL     OW11983   5.418   2.583   4.782  0.1653 -0.1148 -0.4533
 3695SOL    HW111984   5.408   2.537   4.694 -0.1742 -0.5299 -0.2025
 3695SOL    HW211985   5.329   2.618   4.811 -0.3626 -2.4792  1.0648
 3696SOL     OW11986   3.831   5.879   5.332  0.1500 -0.1728  1.0462
 3696SOL    HW111987   3.800   5.914   5.243  0.6316 -1.2179  0.4460
 3696SOL    HW211988   3.755   5.881   5.397 -0.3958 -0.0497  0.4164
 3697SOL     OW11989   1.476   6.487   2.410  0.3784 -0.4546  0.1861
 3697SOL    HW111990   1.394   6.470   2.466 -0.9866  0.5332 -1.4088
 3697SOL    HW211991   1.525   6.402   2.396 -0.8761 -1.2490  0.4557
 3698SOL     OW11992   3.361   1.191   3.631  0.1288  0.0975 -0.7118
 3698SOL    HW111993   3.380   1.152   3.541  0.1390 -0.4577 -0.4732
 3698SOL    HW211994   3.334   1.287   3.621  0.4672  0.1387 -1.2740
 3699SOL     OW11995   2.457   2.157   2.097 -0.3477  0.3463 -0.0201
 3699SOL    HW111996   2.469   2.219   2.175  1.9426  1.6386 -1.2977
 3699SOL    HW211997   2.481   2.205   2.012  0.5932 -2.0336 -1.1806
 3700SOL     OW11998   2.597   5.211   3.128 -0.6853  0.5018 -0.7518
 3700SOL    HW111999   2.636   5.134   3.077 -3.1755 -0.4459 -1.4049
 3700SOL    HW212000   2.530   5.176   3.193 -1.2951  2.0837 -0.4949
 3701SOL     OW12001   2.048   1.513   2.508  0.2892 -0.7460  0.1047
 3701SOL    HW112002   2.080   1.438   2.451 -0.4308  0.1696 -1.5850
 3701SOL    HW212003   2.051   1.599   2.456  0.9661  0.4047  1.9341
 3702SOL     OW12004   6.124   3.800   3.232  0.5436  0.2177  0.3579
 3702SOL    HW112005   6.220   3.774   3.218  0.4871  0.2967 -0.1811
 3702SOL    HW212006   6.071   3.777   3.151  0.1739  0.5059  0.5149
 3703SOL     OW12007   2.442   0.239   0.906 -0.4923  0.0757 -0.7505
 3703SOL    HW112008   2.469   0.299   0.982  0.9896 -0.0184 -1.1634
 3703SOL    HW212009   2.493   0.265   0.824  0.6845 -2.1234 -0.7783
 3704SOL     OW12010   6.081   5.996   0.397 -0.1517  0.1704  0.1774
 3704SOL    HW112011   6.121   6.054   0.326  0.7770 -0.3591  0.2497
 3704SOL    HW212012   6.143   5.993   0.475 -1.1732  0.7598  1.0331
 3705SOL     OW12013   1.013   4.010   1.970  0.7642  1.0003  0.3018
 3705SOL    HW112014   1.071   3.998   1.890  0.3099 -1.9691  0.2977
 3705SOL    HW212015   0.918   4.020   1.941  0.4080 -1.4619  0.3764
 3706SOL     OW12016   5.929   5.734   0.382  0.0596  0.0614 -0.2178
 3706SOL    HW112017   5.971   5.651   0.417 -0.3802  1.1342  3.2471
 3706SOL    HW212018   5.999   5.805   0.373 -0.2548  0.6677  1.6357
 3707SOL     OW12019   5.740   3.539   2.414 -0.6115 -0.6834 -0.5287
 3707SOL    HW112020   5.765   3.443   2.407 -0.5241 -0.8071  1.1764
 3707SOL    HW212021   5.822   3.596   2.411 -0.6248 -0.6802 -0.9915
 3708SOL     OW12022   0.202   5.862   0.233  0.6489  0.2485 -0.0972
 3708SOL    HW112023   0.285   5.869   0.177  0.9896 -1.2878  0.1719
 3708SOL    HW212024   0.222   5.893   0.326  0.5355  1.2146 -0.3911
 3709SOL     OW12025   0.735   1.238   1.574 -0.1655 -0.1955  0.0003
 3709SOL    HW112026   0.642   1.206   1.556 -0.2971  0.8608 -1.3171
 3709SOL    HW212027   0.800   1.170   1.540 -0.4363 -0.5199  0.1110
 3710SOL     OW12028   2.090   3.480   4.522  0.2444 -0.0044  0.8585
 3710SOL    HW112029   2.035   3.484   4.439  3.2648  1.0892 -1.2856
 3710SOL    HW212030   2.094   3.571   4.564  0.7206  0.0326  0.7418
 3711SOL     OW12031   1.468   5.192   6.299  0.4940 -0.9161  0.4242
 3711SOL    HW112032   1.543   5.131   6.326  1.5106  0.2295  0.2793
 3711SOL    HW212033   1.495   5.244   6.218 -0.6545 -0.8281  0.0863
 3712SOL     OW12034   4.487   4.792   4.065  0.3227  0.1466 -0.1514
 3712SOL    HW112035   4.567   4.806   4.124 -0.0581 -1.7635  0.8883
 3712SOL    HW212036   4.507   4.720   4.000  0.3551  1.5189 -1.7269
 3713SOL     OW12037   6.389   3.010   4.953 -0.1488  0.2926  0.1921
 3713SOL    HW112038   6.312   2.974   4.901 -0.0834  1.8394 -1.0508
 3713SOL    HW212039   6.421   2.941   5.019  0.1884 -2.0281 -2.2493
 3714SOL     OW12040   1.492   5.159   1.052  0.4318  0.4629  0.0884
 3714SOL    HW112041   1.528   5.247   1.083  1.2340  1.1781 -2.5926
 3714SOL    HW212042   1.487   5.159   0.952 -1.6147 -1.7754  0.1090
 3715SOL     OW12043   5.494   3.371   2.533 -0.3392 -0.3250  0.3946
 3715SOL    HW112044   5.565   3.402   2.470 -0.3215 -1.1268 -0.0021
 3715SOL    HW212045   5.441   3.449   2.565 -1.5503 -0.0574 -2.0667
 3716SOL     OW12046   5.131   5.979   5.516  0.2759 -0.8384 -0.6743
 3716SOL    HW112047   5.051   6.031   5.486  1.1926 -0.0967 -1.9409
 3716SOL    HW212048   5.151   6.001   5.611 -0.3696 -0.1991 -0.6727
 3717SOL     OW12049   5.619   0.250   0.926 -0.1847  0.5330 -0.2715
 3717SOL    HW112050   5.622   0.152   0.907  2.7780  0.3865  0.5568
 3717SOL    HW212051   5.548   0.268   0.994  1.8835 -1.7359  2.7614
 3718SOL     OW12052   5.033   4.958   0.749 -0.0813 -0.5831 -0.0893
 3718SOL    HW112053   4.961   4.903   0.706 -0.3035  0.5023 -1.1691
 3718SOL    HW212054   5.001   4.989   0.838 -1.1666  0.2240 -0.7199
 3719SOL     OW12055   1.385   4.114   1.488  0.4781  0.2319  0.0136
 3719SOL    HW112056   1.302   4.157   1.524 -1.5710 -2.3783 -1.2587
 3719SOL    HW212057   1.429   4.175   1.423 -1.0521  1.2819 -0.0820
 3720SOL     OW12058   1.857   2.971   0.906 -0.5942 -0.0977  0.3628
 3720SOL    HW112059   1.862   3.008   0.813  0.8986 -0.9582  0.0729
 3720SOL    HW212060   1.769   2.995   0.947 -1.2629  0.3151 -1.2555
 3721SOL     OW12061   5.592   0.420   5.631 -0.2035 -0.3225 -0.5001
 3721SOL    HW112062   5.640   0.501   5.665  1.4005 -1.8750  1.1456
 3721SOL    HW212063   5.558   0.438   5.539  0.6309  2.0117 -0.4179
 3722SOL     OW12064   7.006   0.266   1.682  0.8647  0.2294  0.6913
 3722SOL    HW112065   7.084   0.207   1.660 -0.6494 -1.2184 -1.1653
 3722SOL    HW212066   6.923   0.210   1.689 -0.2269  1.8689  1.3799
 3723SOL     OW12067   5.083   2.789   6.723  0.1767 -0.2298  0.3234
 3723SOL    HW112068   5.098   2.691   6.738 -1.9398 -0.5657  0.5821
 3723SOL    HW212069   5.133   2.818   6.642  1.2567 -1.3938  0.5414
 3724SOL     OW12070   5.555   4.498   4.370 -0.0207  0.5437 -0.1864
 3724SOL    HW112071   5.609   4.485   4.287  2.4689 -0.7523  1.5119
 3724SOL    HW212072   5.609   4.472   4.450 -2.6948  0.6094  1.8019
 3725SOL     OW12073   0.236   5.547   1.971 -1.1830  0.5420 -0.0216
 3725SOL    HW112074   0.264   5.628   1.919 -0.9529  0.2432 -0.3700
 3725SOL    HW212075   0.317   5.494   1.996 -1.4063 -0.2420 -0.8923
 3726SOL     OW12076   5.925   4.755   4.804 -0.0966  0.2035 -0.4831
 3726SOL    HW112077   5.888   4.845   4.783 -1.4078 -0.3424 -0.6000
 3726SOL    HW212078   6.015   4.745   4.760 -0.2657  1.1718 -1.0864
 3727SOL     OW12079   1.427   2.452   4.055 -0.0197  0.0013 -0.7011
 3727SOL    HW112080   1.481   2.498   4.125 -0.0785  1.0427 -1.3314
 3727SOL    HW212081   1.486   2.424   3.979 -0.5252  2.5542 -2.1377
 3728SOL     OW12082   1.658   5.703   1.547 -0.1296 -0.5684 -0.5213
 3728SOL    HW112083   1.712   5.636   1.600 -1.4589 -1.6130 -0.4434
 3728SOL    HW212084   1.720   5.759   1.492  1.0241 -2.0047 -0.7492
 3729SOL     OW12085   1.049   5.517   0.504 -0.5266  0.1031  0.1748
 3729SOL    HW112086   1.015   5.508   0.598 -1.2140 -0.4686 -0.1142
 3729SOL    HW212087   1.076   5.427   0.470 -0.6498  0.2477 -0.3095
 3730SOL     OW12088   5.664   4.563   5.187 -0.2931 -0.3775 -0.4793
 3730SOL    HW112089   5.589   4.528   5.131 -1.1162  1.3625 -0.5267
 3730SOL    HW212090   5.732   4.606   5.128 -1.0632  1.2789 -0.2208
 3731SOL     OW12091   6.554   0.358   2.120  0.0875  0.5447 -0.4586
 3731SOL    HW112092   6.623   0.380   2.189  0.0161  1.1834 -0.5848
 3731SOL    HW212093   6.600   0.329   2.036  0.2657  2.2445 -0.9860
 3732SOL     OW12094   4.913   2.849   0.833  0.3790  0.6110  0.4421
 3732SOL    HW112095   4.823   2.847   0.789  1.1403  1.9377 -1.3161
 3732SOL    HW212096   4.910   2.911   0.911 -0.0029  1.4930 -0.2473
 3733SOL     OW12097   2.223   6.729   2.653  0.5894  0.1401 -0.3918
 3733SOL    HW112098   2.223   6.823   2.618 -0.2961 -0.0577 -0.9402
 3733SOL    HW212099   2.314   6.708   2.690  0.5866  1.4770  0.4719
 3734SOL     OW12100   4.611   1.295   3.921  0.4554  0.2142 -0.4578
 3734SOL    HW112101   4.602   1.392   3.941  0.0322  0.5610 -2.2256
 3734SOL    HW212102   4.706   1.274   3.897  0.5149  0.2171 -0.2264
 3735SOL     OW12103   4.597   6.899   3.210  0.1946 -0.2934 -0.0975
 3735SOL    HW112104   4.606   6.813   3.160 -0.8244 -0.4712  0.0028
 3735SOL    HW212105   4.599   6.881   3.308 -0.3667 -0.2443 -0.0767
 3736SOL     OW12106   6.805   0.169   1.440 -0.5744 -0.5363  0.7451
 3736SOL    HW112107   6.741   0.142   1.368 -0.2380 -1.8143  0.8979
 3736SOL    HW212108   6.837   0.087   1.488 -0.4044  0.2536  2.0170
 3737SOL     OW12109   5.584   0.819   4.625  0.0483  0.0176  0.0858
 3737SOL    HW112110   5.633   0.803   4.710  0.1404  2.3941  0.5524
 3737SOL    HW212111   5.561   0.916   4.617 -1.9079 -0.5013 -1.5693
 3738SOL     OW12112   1.151   2.075   6.983  0.2184  0.4792 -0.3009
 3738SOL    HW112113   1.193   2.157   7.021 -0.6841  0.9813 -0.3581
 3738SOL    HW212114   1.059   2.097   6.949 -0.7028 -0.8616  1.1701
 3739SOL     OW12115   3.151   6.477   0.831  0.2019  0.2460  0.3719
 3739SOL    HW112116   3.076   6.459   0.767  1.1278 -0.0090 -0.6715
 3739SOL    HW212117   3.119   6.461   0.924 -1.0623  0.2208 -0.0431
 3740SOL     OW12118   6.518   0.126   0.572  0.2426  0.1484  0.1054
 3740SOL    HW112119   6.441   0.089   0.521 -0.9144  0.1228  1.7725
 3740SOL    HW212120   6.493   0.134   0.669  1.6417  2.0478  0.3713
 3741SOL     OW12121   5.859   5.101   0.557  0.0664 -0.0737  0.3399
 3741SOL    HW112122   5.913   5.136   0.633  0.4501  0.0045  0.0367
 3741SOL    HW212123   5.889   5.009   0.534 -1.9194 -1.2275  2.0865
 3742SOL     OW12124   3.299   3.844   6.207 -0.4825  0.8511  0.4192
 3742SOL    HW112125   3.274   3.816   6.300  0.9125 -2.2023  0.0217
 3742SOL    HW212126   3.234   3.806   6.142  1.2587 -1.4673 -0.1186
 3743SOL     OW12127   2.738   4.905   1.371  0.1469 -0.1249 -0.2027
 3743SOL    HW112128   2.746   4.945   1.463 -0.4054  0.8842 -0.5792
 3743SOL    HW212129   2.650   4.858   1.362  1.9185 -4.1628  1.2333
 3744SOL     OW12130   6.105   6.985   1.727  0.6311  0.2818 -0.1039
 3744SOL    HW112131   6.107   7.019   1.632 -1.8658  0.2688 -0.2283
 3744SOL    HW212132   6.044   6.907   1.733 -0.9072  1.5409  1.8599
 3745SOL     OW12133   5.349   6.910   3.130 -0.2700 -0.6666 -1.0483
 3745SOL    HW112134   5.398   6.958   3.203 -1.4549 -1.0200  0.0020
 3745SOL    HW212135   5.273   6.966   3.099 -0.2592 -0.8754 -1.4537
 3746SOL     OW12136   4.825   1.011   5.583  0.4010 -0.0563 -0.2206
 3746SOL    HW112137   4.872   1.017   5.671 -0.2331  1.6407  0.0578
 3746SOL    HW212138   4.868   1.075   5.518  0.5429 -0.9213 -0.9945
 3747SOL     OW12139   1.115   4.862   5.601 -0.4608 -0.5306  0.1771
 3747SOL    HW112140   1.206   4.879   5.563  0.1610 -2.4652  0.6646
 3747SOL    HW212141   1.095   4.931   5.670  0.2251  0.4761 -0.5917
 3748SOL     OW12142   5.181   6.724   3.992  0.2299  0.5213 -0.3082
 3748SOL    HW112143   5.239   6.787   4.044 -0.5265  1.1416 -0.2094
 3748SOL    HW212144   5.123   6.776   3.930 -0.8346 -0.0355  0.2081
 3749SOL     OW12145   5.745   6.046   0.903 -0.0907 -0.2827 -0.5164
 3749SOL    HW112146   5.649   6.068   0.921 -0.1396  0.0597 -1.1345
 3749SOL    HW212147   5.776   5.973   0.964 -0.0651  1.1805  1.2813
 3750SOL     OW12148   6.667   3.837   0.562 -0.3968 -0.4485 -0.0653
 3750SOL    HW112149   6.609   3.858   0.640  1.1279  2.3528  0.4395
 3750SOL    HW212150   6.711   3.748   0.576 -1.1445 -0.5865  1.6244
 3751SOL     OW12151   1.684   3.670   0.646  0.5769  0.1599  0.4159
 3751SOL    HW112152   1.611   3.736   0.664  1.1917  0.3578  2.4561
 3751SOL    HW212153   1.768   3.720   0.622  0.5149  0.0048 -0.1468
 3752SOL     OW12154   1.822   6.372   5.971  0.0039  0.0776 -0.5121
 3752SOL    HW112155   1.862   6.280   5.977 -0.4873 -0.0634  3.3805
 3752SOL    HW212156   1.876   6.435   6.027 -2.1430  1.0773  0.5699
 3753SOL     OW12157   6.552   1.373   6.169 -0.4381  0.0360  0.0159
 3753SOL    HW112158   6.574   1.447   6.105 -0.5249  0.5523  0.5746
 3753SOL    HW212159   6.470   1.325   6.137  0.2167 -0.4857 -0.8976
 3754SOL     OW12160   5.496   0.306   0.579  0.3697 -0.1581  0.1385
 3754SOL    HW112161   5.480   0.219   0.625  1.4338  0.0154  0.8483
 3754SOL    HW212162   5.510   0.378   0.646  1.2892  0.2250 -0.4486
 3755SOL     OW12163   4.416   1.898   0.737 -0.9635 -0.1614 -0.0075
 3755SOL    HW112164   4.411   1.895   0.837 -0.7706  0.5999  0.0376
 3755SOL    HW212165   4.468   1.820   0.703 -1.0278 -0.4212  0.4839
 3756SOL     OW12166   2.831   0.378   0.989  0.4706 -0.2385  0.5089
 3756SOL    HW112167   2.752   0.399   0.931  0.6017  0.4892  0.5900
 3756SOL    HW212168   2.885   0.305   0.947  1.6999  1.6365 -1.3503
 3757SOL     OW12169   1.028   2.523   6.135 -0.0944  0.1324 -0.6954
 3757SOL    HW112170   1.037   2.499   6.232 -0.4502 -0.1267 -0.7219
 3757SOL    HW212171   0.969   2.456   6.090  1.6618 -0.9101 -1.5451
 3758SOL     OW12172   0.408   3.004   1.689 -0.7950  0.5637  0.1088
 3758SOL    HW112173   0.317   2.991   1.648 -0.6598 -1.3111  0.3313
 3758SOL    HW212174   0.420   2.939   1.764  0.7197  0.8168  0.1087
 3759SOL     OW12175   5.526   4.246   0.901  0.7354 -0.8685 -0.1505
 3759SOL    HW112176   5.564   4.271   0.990  0.4759 -1.1279  0.0361
 3759SOL    HW212177   5.453   4.310   0.876  0.6119 -0.9656 -0.0410
 3760SOL     OW12178   2.776   1.660   6.521  0.0834  0.3819  0.1238
 3760SOL    HW112179   2.750   1.726   6.591  0.6969  0.7537  0.0045
 3760SOL    HW212180   2.843   1.597   6.559 -2.1614 -1.6748  0.9919
 3761SOL     OW12181   6.921   0.999   3.967  0.4518 -0.2149  0.1432
 3761SOL    HW112182   6.935   1.090   4.007  1.6110 -0.4032  0.1895
 3761SOL    HW212183   6.948   0.929   4.034 -0.7331 -0.6125  0.2274
 3762SOL     OW12184   0.330   3.026   0.740  0.3880  0.5631 -0.4728
 3762SOL    HW112185   0.263   3.039   0.667  1.1835  0.4740 -1.2284
 3762SOL    HW212186   0.412   3.078   0.720  1.6499 -1.5048 -0.9891
 3763SOL     OW12187   1.647   2.145   5.722 -0.1291  0.2631  0.1425
 3763SOL    HW112188   1.663   2.122   5.818  1.5855 -0.2958 -0.2508
 3763SOL    HW212189   1.627   2.062   5.670 -0.2046  0.4522 -0.1373
 3764SOL     OW12190   1.947   1.043   1.927 -0.1927  0.7108 -0.6444
 3764SOL    HW112191   2.026   1.045   1.988 -2.2385 -0.9348  2.3107
 3764SOL    HW212192   1.939   0.953   1.885 -1.7574  0.0173  1.0224
 3765SOL     OW12193   6.536   2.383   3.225  0.1018  0.1855 -0.0511
 3765SOL    HW112194   6.453   2.380   3.280  0.3468 -0.8968  0.2803
 3765SOL    HW212195   6.522   2.445   3.148 -0.4970  1.1382  0.8085
 3766SOL     OW12196   0.903   0.889   4.406 -0.3026 -0.9704  0.4444
 3766SOL    HW112197   0.944   0.980   4.401  0.2155 -1.2659 -1.2878
 3766SOL    HW212198   0.906   0.856   4.500  0.0561  0.5367  0.9917
 3767SOL     OW12199   6.882   4.706   4.873 -0.5619  0.2470  0.2225
 3767SOL    HW112200   6.903   4.800   4.845  0.8757 -0.6158 -1.8544
 3767SOL    HW212201   6.958   4.670   4.927 -1.6788  0.6490  2.1453
 3768SOL     OW12202   6.166   5.335   1.273  0.3385 -0.6524 -0.1201
 3768SOL    HW112203   6.237   5.340   1.203  0.5554  1.1387  0.2024
 3768SOL    HW212204   6.077   5.350   1.231  0.4055 -0.2350 -0.1121
 3769SOL     OW12205   2.407   0.293   5.115  1.0253  0.1296 -0.3092
 3769SOL    HW112206   2.456   0.293   5.027  2.9122 -2.1368  0.6483
 3769SOL    HW212207   2.348   0.213   5.120  1.9062 -0.4800  0.9273
 3770SOL     OW12208   0.666   2.714   0.916 -0.3214  0.1323 -0.7188
 3770SOL    HW112209   0.623   2.743   1.002 -1.2070  0.9741 -1.4210
 3770SOL    HW212210   0.681   2.615   0.918 -0.0700  0.1842  0.5130
 3771SOL     OW12211   4.807   2.441   3.618 -0.4790 -0.0674 -1.0772
 3771SOL    HW112212   4.775   2.514   3.678  0.0897 -0.1562 -0.6690
 3771SOL    HW212213   4.790   2.353   3.661 -2.1422 -0.2663 -2.0095
 3772SOL     OW12214   4.368   0.484   3.512 -0.1753  0.0353 -0.4847
 3772SOL    HW112215   4.428   0.441   3.580 -1.8191 -0.5534  0.6638
 3772SOL    HW212216   4.361   0.582   3.531 -0.9694 -0.1917  0.5328
 3773SOL     OW12217   6.430   3.090   3.110  0.1402  0.1488 -0.5922
 3773SOL    HW112218   6.416   2.993   3.127  1.8737  0.0586  0.5603
 3773SOL    HW212219   6.379   3.117   3.029  0.2407 -1.8928 -1.3987
 3774SOL     OW12220   0.672   1.564   2.334  0.2341  0.3075 -0.5088
 3774SOL    HW112221   0.697   1.610   2.249 -1.0681  1.5739 -0.2359
 3774SOL    HW212222   0.607   1.490   2.314 -0.6375  1.0764 -0.5508
 3775SOL     OW12223   5.639   3.322   3.413  0.4236  0.1993  0.4785
 3775SOL    HW112224   5.623   3.376   3.496 -0.2308  1.4211 -0.4019
 3775SOL    HW212225   5.564   3.338   3.349  1.4797  0.1840 -0.8066
 3776SOL     OW12226   3.613   1.601   0.813  0.0882 -0.3521 -0.5683
 3776SOL    HW112227   3.675   1.602   0.734  0.4915  2.2894 -0.3298
 3776SOL    HW212228   3.660   1.642   0.892 -1.4945  0.4315  0.0057
 3777SOL     OW12229   2.215   3.890   3.277 -0.6808 -0.1045  0.1362
 3777SOL    HW112230   2.204   3.798   3.315  0.7301  0.0707  1.0382
 3777SOL    HW212231   2.238   3.954   3.350  0.4966  0.5581 -0.7876
 3778SOL     OW12232   0.492   0.678   1.434 -0.7836  0.2273  0.6770
 3778SOL    HW112233   0.581   0.721   1.422 -0.8763  0.2039 -0.1160
 3778SOL    HW212234   0.502   0.596   1.491 -0.1116 -0.3805 -0.2880
 3779SOL     OW12235   2.110   4.548   6.579  0.6027  0.1578  0.2612
 3779SOL    HW112236   2.096   4.638   6.537 -0.4532 -1.0320 -2.1219
 3779SOL    HW212237   2.150   4.560   6.670 -1.2966  3.1368  0.8614
 3780SOL     OW12238   1.289   6.854   4.695 -0.0921  0.1478  0.0731
 3780SOL    HW112239   1.285   6.954   4.697 -1.4227  0.1145  1.0439
 3780SOL    HW212240   1.276   6.822   4.602  0.5775  0.8878 -0.2838
 3781SOL     OW12241   3.612   5.113   5.509  0.6353  0.6142  0.1929
 3781SOL    HW112242   3.662   5.145   5.590  2.1999  1.9308 -1.2415
 3781SOL    HW212243   3.675   5.104   5.432 -0.5688 -1.8880 -0.6069
 3782SOL     OW12244   3.577   1.993   0.817  0.2897 -0.0487 -0.0615
 3782SOL    HW112245   3.515   1.915   0.812  0.9459 -0.5754 -0.1834
 3782SOL    HW212246   3.532   2.069   0.863 -0.6619 -0.1997 -0.7227
 3783SOL     OW12247   4.793   3.665   6.560  0.0933  0.1958  0.0179
 3783SOL    HW112248   4.769   3.739   6.497 -0.5469 -0.1102 -0.1110
 3783SOL    HW212249   4.835   3.703   6.642 -0.6016  0.7533  0.1297
 3784SOL     OW12250   4.449   0.658   5.963  0.3441  0.0283  0.1706
 3784SOL    HW112251   4.448   0.718   5.883  1.4827  1.5815  1.2597
 3784SOL    HW212252   4.355   0.643   5.994  0.0321  1.6697  0.1422
 3785SOL     OW12253   6.786   1.215   2.055  0.0183  0.0014  0.2005
 3785SOL    HW112254   6.737   1.171   1.980  0.3946 -1.5148  0.8080
 3785SOL    HW212255   6.759   1.172   2.141  0.6402  0.7749  0.7922
 3786SOL     OW12256   3.410   4.699   6.621 -0.7109 -0.3652 -0.1028
 3786SOL    HW112257   3.487   4.636   6.628 -0.5196 -0.3599 -1.7107
 3786SOL    HW212258   3.368   4.689   6.530 -1.8025  0.5410  0.2902
 3787SOL     OW12259   3.245   1.441   4.280 -0.4053  0.0510  0.3584
 3787SOL    HW112260   3.241   1.470   4.376 -0.9629 -1.0733  0.6921
 3787SOL    HW212261   3.269   1.344   4.275  2.6681  0.7517 -0.7682
 3788SOL     OW12262   0.100   3.126   2.578 -0.0664 -0.2492  0.3398
 3788SOL    HW112263   0.085   3.193   2.651  0.6514 -0.0835  0.3401
 3788SOL    HW212264   0.167   3.059   2.607  1.4477  0.7383 -0.7363
 3789SOL     OW12265   1.275   4.959   1.019 -0.0497  0.1512 -0.5880
 3789SOL    HW112266   1.342   5.031   1.033 -0.5683  0.9690 -2.1367
 3789SOL    HW212267   1.188   4.999   0.989 -1.3019 -0.8705  1.4108
 3790SOL     OW12268   1.415   3.529   1.787  0.1401 -0.1217  0.0997
 3790SOL    HW112269   1.389   3.493   1.697  0.3543 -0.2557  0.0909
 3790SOL    HW212270   1.485   3.470   1.828 -0.2769 -0.3126  0.5498
 3791SOL     OW12271   0.436   0.945   1.957  0.4246  0.0013  0.0275
 3791SOL    HW112272   0.419   0.960   2.055 -0.4296 -1.1439  0.0713
 3791SOL    HW212273   0.486   0.860   1.945 -0.6380 -0.5515 -0.6110
 3792SOL     OW12274   2.591   6.325   0.149 -0.0177  0.3173 -0.0803
 3792SOL    HW112275   2.580   6.296   0.054 -1.4646  0.7949 -0.0943
 3792SOL    HW212276   2.502   6.325   0.194  0.5768  0.5770  1.1390
 3793SOL     OW12277   6.955   3.882   2.239 -0.1448  0.2146 -0.0095
 3793SOL    HW112278   6.894   3.961   2.244 -1.2544 -0.6776  1.3226
 3793SOL    HW212279   6.984   3.857   2.331  0.7452 -0.5173 -0.4772
 3794SOL     OW12280   0.221   0.211   4.391  0.2956  0.0947 -0.1529
 3794SOL    HW112281   0.305   0.224   4.338  0.2007  0.7565 -0.1526
 3794SOL    HW212282   0.240   0.151   4.469  0.1561 -1.8962 -1.5814
 3795SOL     OW12283   4.355   1.410   1.146 -0.1636  0.0602  0.2510
 3795SOL    HW112284   4.424   1.360   1.094 -0.9822  0.0624 -0.8914
 3795SOL    HW212285   4.272   1.355   1.152 -0.6589  0.7706  0.0539
 3796SOL     OW12286   5.951   0.629   3.861  0.5130  0.6982 -0.6504
 3796SOL    HW112287   5.877   0.585   3.811 -0.4737  1.3265  0.2391
 3796SOL    HW212288   6.019   0.561   3.887  0.2226  0.1068 -1.4061
 3797SOL     OW12289   6.427   6.675   2.773  0.6302 -0.2054  0.4895
 3797SOL    HW112290   6.469   6.765   2.785 -1.3483  1.2096 -2.1772
 3797SOL    HW212291   6.477   6.624   2.703 -0.2793  0.2692 -0.5248
 3798SOL     OW12292   2.849   4.361   6.084  0.1304 -0.5730  0.1039
 3798SOL    HW112293   2.925   4.317   6.133  1.1917  0.8965 -0.1484
 3798SOL    HW212294   2.769   4.301   6.085  1.4356 -2.4027 -0.0282
 3799SOL     OW12295   7.000   6.585   6.223 -0.6143 -0.0646 -0.0175
 3799SOL    HW112296   6.978   6.637   6.140 -0.8645  0.5016  0.3983
 3799SOL    HW212297   7.024   6.491   6.198  1.6110  0.6915 -0.9435
 3800SOL     OW12298   4.046   2.726   5.302  0.0083  0.2310 -0.4327
 3800SOL    HW112299   4.009   2.713   5.394 -0.6169  1.9033 -0.4190
 3800SOL    HW212300   4.058   2.637   5.258 -1.2516 -0.5045  0.6482
 3801SOL     OW12301   6.246   0.536   6.875 -0.1875  0.3637  0.5514
 3801SOL    HW112302   6.176   0.607   6.884 -0.4315  0.0061  1.6179
 3801SOL    HW212303   6.336   0.576   6.891 -0.3229  0.4343  1.1388
 3802SOL     OW12304   3.111   1.859   2.645  0.5599  0.4570  0.2069
 3802SOL    HW112305   3.205   1.892   2.629  0.8023 -0.2574  0.1355
 3802SOL    HW212306   3.047   1.935   2.633  1.0991  0.8748 -0.0825
 3803SOL     OW12307   4.449   0.826   0.528  0.1800  0.6917 -0.1913
 3803SOL    HW112308   4.441   0.774   0.443  3.8411 -1.9175  0.8333
 3803SOL    HW212309   4.485   0.918   0.508  1.1460  0.0550 -1.4895
 3804SOL     OW12310   4.887   4.140   5.861 -0.4926 -0.2957 -0.2282
 3804SOL    HW112311   4.814   4.200   5.893  0.2227  0.7519 -0.5184
 3804SOL    HW212312   4.849   4.073   5.797 -1.5601 -1.1175  1.1915
 3805SOL     OW12313   0.874   2.175   0.917 -0.1015 -0.2784 -0.0593
 3805SOL    HW112314   0.901   2.152   0.824  0.4668  2.6788 -0.7257
 3805SOL    HW212315   0.942   2.138   0.981  0.0912 -1.3927 -0.8808
 3806SOL     OW12316   5.499   6.137   0.556  0.2178 -0.5758  0.4491
 3806SOL    HW112317   5.587   6.172   0.587  0.5796  0.1658 -1.2982
 3806SOL    HW212318   5.479   6.174   0.465 -1.8431 -0.8422  0.7632
 3807SOL     OW12319   3.744   6.514   1.599  0.3254 -0.7391 -0.0060
 3807SOL    HW112320   3.741   6.480   1.693 -2.3318 -1.0346 -0.1301
 3807SOL    HW212321   3.651   6.533   1.568  1.1749 -0.3855 -2.5019
 3808SOL     OW12322   3.323   1.769   1.713  0.3959 -0.2334  0.3103
 3808SOL    HW112323   3.297   1.850   1.765  1.5066  0.1968  0.2001
 3808SOL    HW212324   3.300   1.782   1.616  0.1141 -0.2635  0.3708
 3809SOL     OW12325   2.387   5.895   0.241  0.3656  0.1821  0.1908
 3809SOL    HW112326   2.368   5.888   0.339 -1.8755  1.3370 -0.0928
 3809SOL    HW212327   2.305   5.928   0.193  2.0519  1.8764 -1.7590
 3810SOL     OW12328   1.623   2.178   6.078  0.0571  0.2227  0.1674
 3810SOL    HW112329   1.541   2.234   6.064 -0.2901  0.0456  1.3278
 3810SOL    HW212330   1.613   2.126   6.163  0.2611 -1.8271 -1.0135
 3811SOL     OW12331   6.006   6.770   6.400 -0.0789  0.5876 -0.1324
 3811SOL    HW112332   6.061   6.752   6.481  0.8806 -0.0007 -0.8905
 3811SOL    HW212333   5.983   6.683   6.355 -0.9945  0.8749 -0.2545
 3812SOL     OW12334   4.922   6.490   6.346 -0.2643 -0.6823  0.4929
 3812SOL    HW112335   5.005   6.454   6.303  0.4581  0.7690  0.5772
 3812SOL    HW212336   4.861   6.415   6.371  0.4732 -1.7057 -0.6813
 3813SOL     OW12337   4.354   5.544   4.272 -0.2002  0.1422 -0.1112
 3813SOL    HW112338   4.445   5.551   4.231 -0.0916  0.1370  0.1304
 3813SOL    HW212339   4.362   5.536   4.371 -0.5139  1.8928  0.0961
 3814SOL     OW12340   0.038   0.180   1.260 -0.5470 -0.2367  0.2101
 3814SOL    HW112341  -0.007   0.214   1.342  0.5703 -1.1154  1.2280
 3814SOL    HW212342   0.137   0.172   1.276 -0.2723 -0.2740 -1.2768
 3815SOL     OW12343   5.125   2.862   3.237 -0.0736  0.2420 -0.0241
 3815SOL    HW112344   5.082   2.952   3.238 -1.5847 -0.4510 -0.0519
 3815SOL    HW212345   5.158   2.842   3.144 -0.1304  0.5803 -0.1170
 3816SOL     OW12346   0.185   5.433   1.648 -0.5540  0.2722 -0.0094
 3816SOL    HW112347   0.131   5.416   1.730  2.0072 -4.4846  1.0513
 3816SOL    HW212348   0.148   5.380   1.571 -0.2173  0.9129 -0.6292
 3817SOL     OW12349   4.489   1.650   4.778  0.2012  0.4863  0.4085
 3817SOL    HW112350   4.415   1.584   4.788 -0.9324  1.8926  1.8383
 3817SOL    HW212351   4.520   1.652   4.683 -2.1490  0.4365 -0.4283
 3818SOL     OW12352   4.328   6.335   2.454 -0.3001 -0.5034 -0.6986
 3818SOL    HW112353   4.428   6.338   2.461 -0.3834  0.3884  0.4493
 3818SOL    HW212354   4.299   6.375   2.367  0.2584  1.6066  0.0209
 3819SOL     OW12355   0.160   4.305   0.020 -0.1559 -0.0518 -0.2041
 3819SOL    HW112356   0.114   4.231   0.070  0.1225  0.4745  0.8604
 3819SOL    HW212357   0.091   4.367  -0.016 -0.4081 -0.9606 -1.3488
 3820SOL     OW12358   4.314   0.331   2.581  0.0796 -0.3111 -0.3494
 3820SOL    HW112359   4.348   0.238   2.586 -1.0585 -0.7496 -0.3706
 3820SOL    HW212360   4.358   0.387   2.650  1.2543 -0.6958 -0.7694
 3821SOL     OW12361   0.543   2.714   3.601 -0.2155 -0.0859  0.3405
 3821SOL    HW112362   0.453   2.710   3.645 -0.3870 -0.1662 -0.0094
 3821SOL    HW212363   0.607   2.763   3.660 -0.5413  0.1524  0.5006
 3822SOL     OW12364   0.570   2.463   1.393 -0.4084 -1.5510 -0.0444
 3822SOL    HW112365   0.663   2.430   1.383 -0.0166 -0.4542 -0.0852
 3822SOL    HW212366   0.555   2.494   1.487 -0.3404 -0.5431 -0.3643
 3823SOL     OW12367   1.905   3.529   5.536  0.3480  0.2411 -0.2560
 3823SOL    HW112368   1.825   3.576   5.499  0.4284  1.4695  1.0014
 3823SOL    HW212369   1.910   3.547   5.635  1.5896 -0.6915 -0.1322
 3824SOL     OW12370   2.845   3.313   6.432 -0.8334  0.3165  0.2153
 3824SOL    HW112371   2.771   3.246   6.436 -0.0611 -0.5577  0.1807
 3824SOL    HW212372   2.916   3.289   6.499 -0.4483  0.9929  0.0674
 3825SOL     OW12373   6.615   5.312   6.880  0.2691  0.8634 -0.4314
 3825SOL    HW112374   6.677   5.261   6.821  3.4073  2.6606  1.0203
 3825SOL    HW212375   6.529   5.263   6.889  1.8177 -2.3764 -1.7557
 3826SOL     OW12376   0.740   1.351   7.000  0.7594  0.2572 -0.0400
 3826SOL    HW112377   0.840   1.344   7.006  0.5781 -2.5592  1.1368
 3826SOL    HW212378   0.703   1.268   6.957 -1.2101  0.1629  1.6845
 3827SOL     OW12379   4.675   2.292   1.143  0.2424  0.1131  0.1428
 3827SOL    HW112380   4.611   2.368   1.154  0.6420  0.1812  2.5952
 3827SOL    HW212381   4.754   2.322   1.090  1.2166  2.0048  2.5044
 3828SOL     OW12382   3.432   6.829   0.679  0.3010  0.6666  0.4171
 3828SOL    HW112383   3.414   6.903   0.614 -0.6641 -0.2478 -0.3953
 3828SOL    HW212384   3.354   6.766   0.680  0.1438  0.8324  2.7432
 3829SOL     OW12385   6.915   5.461   4.542  0.1547  0.4532 -0.6228
 3829SOL    HW112386   7.011   5.488   4.532  0.3477 -0.2839 -0.7995
 3829SOL    HW212387   6.860   5.510   4.474  0.2434  1.6356  0.1275
 3830SOL     OW12388   1.848   0.307   4.618  0.1328 -1.1521  0.5079
 3830SOL    HW112389   1.932   0.347   4.581  0.2515 -1.8970 -0.0641
 3830SOL    HW212390   1.827   0.349   4.706  0.2415  0.1613 -0.0741
 3831SOL     OW12391   4.941   1.840   3.026  0.4227  0.5307 -0.3852
 3831SOL    HW112392   4.853   1.854   2.982 -0.2760 -2.1889 -0.0895
 3831SOL    HW212393   5.015   1.863   2.963 -0.4979  1.4960 -1.1365
 3832SOL     OW12394   0.822   6.240   0.293 -0.1696 -0.2501  0.1092
 3832SOL    HW112395   0.807   6.178   0.369  0.9778 -0.8170 -0.0994
 3832SOL    HW212396   0.881   6.196   0.225 -0.8692  0.3795 -0.9341
 3833SOL     OW12397   0.762   6.479   3.887 -0.0863 -0.7981  0.0780
 3833SOL    HW112398   0.727   6.461   3.795  2.3228  0.6526 -1.2148
 3833SOL    HW212399   0.716   6.559   3.926  0.6133  0.1122 -0.9236
 3834SOL     OW12400   3.772   4.511   6.790  0.1019  0.5700  0.2119
 3834SOL    HW112401   3.733   4.421   6.771  1.1530  0.3760 -1.2097
 3834SOL    HW212402   3.871   4.504   6.797  0.0560  1.2782  2.4113
 3835SOL     OW12403   3.507   5.586   1.718 -0.6423 -0.3580  0.1649
 3835SOL    HW112404   3.595   5.540   1.707 -0.7271 -0.3181 -0.7220
 3835SOL    HW212405   3.436   5.535   1.669 -1.4242 -1.2205  2.0812
 3836SOL     OW12406   1.376   3.192   6.252  0.4119  0.7003 -0.3132
 3836SOL    HW112407   1.284   3.194   6.214  1.5796  0.4780 -3.5025
 3836SOL    HW212408   1.377   3.133   6.333 -1.5092 -2.9640 -2.6631
 3837SOL     OW12409   2.639   4.155   5.713 -0.2745 -0.3566 -0.7221
 3837SOL    HW112410   2.727   4.144   5.668  0.0888  2.0398 -0.7068
 3837SOL    HW212411   2.594   4.066   5.721  2.9824 -2.0141  1.1102
 3838SOL     OW12412   1.529   3.169   3.282  0.3025 -0.9594  0.4084
 3838SOL    HW112413   1.515   3.200   3.189 -0.5291 -0.2538  0.7611
 3838SOL    HW212414   1.508   3.243   3.346  0.7638 -1.4642  1.1567
 3839SOL     OW12415   0.178   5.181   5.810  0.4660 -0.1318  0.3381
 3839SOL    HW112416   0.200   5.111   5.878  0.2469 -0.6633 -0.1301
 3839SOL    HW212417   0.125   5.140   5.736  2.5427 -0.0752 -1.2752
 3840SOL     OW12418   4.973   2.437   3.384  0.5257  0.0296 -0.1860
 3840SOL    HW112419   4.925   2.419   3.470 -0.4553  0.6351 -0.5929
 3840SOL    HW212420   4.910   2.428   3.307  1.2269  0.1822 -0.7936
 3841SOL     OW12421   1.900   2.283   1.696 -0.1908 -0.2260 -0.0757
 3841SOL    HW112422   1.899   2.383   1.697 -0.5764 -0.2148 -0.9916
 3841SOL    HW212423   1.806   2.249   1.695 -0.1644 -0.6631  2.8693
 3842SOL     OW12424   1.836   5.558   1.042  0.2992  0.3929 -0.5295
 3842SOL    HW112425   1.801   5.504   0.965 -0.3448 -1.1636  0.7928
 3842SOL    HW212426   1.925   5.521   1.070 -0.0572  0.1208  0.2652
 3843SOL     OW12427   0.345   3.335   5.530 -0.0592  0.5286  0.1139
 3843SOL    HW112428   0.247   3.349   5.513  0.3265 -0.3695 -4.1750
 3843SOL    HW212429   0.397   3.406   5.484  1.3454 -0.0242  0.7966
 3844SOL     OW12430   3.763   4.124   5.562 -0.3347  0.3894 -0.2663
 3844SOL    HW112431   3.852   4.154   5.528 -0.4388 -0.4700 -1.3583
 3844SOL    HW212432   3.691   4.168   5.510 -0.5051 -0.5480 -0.8458
 3845SOL     OW12433   6.749   3.998   5.021 -0.4763 -0.2048  0.2677
 3845SOL    HW112434   6.848   4.001   5.013 -0.5481 -0.9247 -1.0498
 3845SOL    HW212435   6.721   4.049   5.103  1.0553 -1.1310  1.4270
 3846SOL     OW12436   5.847   3.976   4.017 -0.3957 -0.5493  0.0175
 3846SOL    HW112437   5.929   4.033   4.014  0.3586 -1.6265 -0.3295
 3846SOL    HW212438   5.869   3.887   4.057 -1.4606 -0.7577  0.1822
 3847SOL     OW12439   1.433   0.759   1.504 -0.1335 -0.1350 -0.2567
 3847SOL    HW112440   1.338   0.750   1.535 -0.1700 -0.4347 -0.4447
 3847SOL    HW212441   1.443   0.712   1.416  0.4390 -1.0225  0.2686
 3848SOL     OW12442   1.912   5.033   2.943  0.1886  0.1929 -0.2951
 3848SOL    HW112443   1.838   5.092   2.913 -0.6773 -0.3842  0.6297
 3848SOL    HW212444   1.925   4.959   2.878  0.6204  0.8424 -0.9580
 3849SOL     OW12445   2.294   1.859   1.465 -0.0393 -0.4829 -0.1004
 3849SOL    HW112446   2.340   1.771   1.454  0.3297 -0.2877 -0.1327
 3849SOL    HW212447   2.198   1.844   1.491 -0.2152 -0.9092 -0.9577
 3850SOL     OW12448   1.454   4.560   2.213  0.0834  0.2131 -0.0956
 3850SOL    HW112449   1.516   4.638   2.222 -0.7295  1.0870 -1.5884
 3850SOL    HW212450   1.456   4.527   2.118 -0.6651 -0.6561  0.1776
 3851SOL     OW12451   3.666   4.251   6.731 -0.2421 -0.0547 -0.1491
 3851SOL    HW112452   3.600   4.230   6.803 -0.4260  0.8658 -0.0279
 3851SOL    HW212453   3.725   4.173   6.716 -0.5925 -0.4740  0.5811
 3852SOL     OW12454   0.020   0.498   6.307 -0.3114  0.8617  1.3048
 3852SOL    HW112455  -0.016   0.405   6.307 -0.5365  0.9224 -0.0608
 3852SOL    HW212456   0.120   0.496   6.314 -0.1691  0.4025 -0.3709
 3853SOL     OW12457   0.086   2.635   3.563  0.2788  0.0544  0.4904
 3853SOL    HW112458   0.106   2.683   3.477 -0.1764  2.0282  1.4371
 3853SOL    HW212459   0.142   2.552   3.568 -0.5464 -0.7610 -2.2182
 3854SOL     OW12460   3.261   5.458   4.507 -0.2341 -0.1369  0.3743
 3854SOL    HW112461   3.315   5.509   4.574 -0.9828  0.1108  0.7965
 3854SOL    HW212462   3.317   5.385   4.468 -0.1014 -0.9899  2.0658
 3855SOL     OW12463   6.382   1.958   4.744 -0.0114 -0.8139 -0.2129
 3855SOL    HW112464   6.412   1.863   4.754  0.1065 -0.7188  0.3863
 3855SOL    HW212465   6.293   1.960   4.697  0.5671 -1.1356 -1.3594
 3856SOL     OW12466   1.749   5.808   5.450 -0.4258  0.0268 -0.0386
 3856SOL    HW112467   1.849   5.802   5.447 -0.5010 -1.9082  0.1134
 3856SOL    HW212468   1.713   5.802   5.357 -0.4116  1.0998 -0.1283
 3857SOL     OW12469   0.349   6.376   6.970  0.2515  0.2483  0.0518
 3857SOL    HW112470   0.342   6.398   7.067  0.5706 -0.6534  0.2854
 3857SOL    HW212471   0.436   6.329   6.952 -0.4852 -0.9989 -0.3817
 3858SOL     OW12472   1.975   6.365   6.976  0.2684 -0.0715 -0.7550
 3858SOL    HW112473   1.935   6.304   6.907  0.1193 -2.5972  1.4147
 3858SOL    HW212474   2.058   6.324   7.013 -0.2554  0.6392  1.3313
 3859SOL     OW12475   6.219   2.771   3.285  1.0571  0.0463 -0.6184
 3859SOL    HW112476   6.255   2.759   3.193  1.6956 -1.7928 -0.1699
 3859SOL    HW212477   6.295   2.789   3.348  0.5395  2.3207 -0.5410
 3860SOL     OW12478   2.073   6.068   4.252  0.4703 -0.1106  0.9653
 3860SOL    HW112479   2.029   5.986   4.288  0.0359  0.6580  2.2453
 3860SOL    HW212480   2.027   6.097   4.168 -0.9244  0.1792  1.8099
 3861SOL     OW12481   4.029   4.869   6.229 -0.4504 -0.3726 -0.4302
 3861SOL    HW112482   3.987   4.846   6.317  0.1793 -1.5485 -0.4249
 3861SOL    HW212483   4.127   4.855   6.234 -0.3536 -0.0250 -1.2017
 3862SOL     OW12484   0.128   6.180   6.628  0.6120 -0.7691  0.0079
 3862SOL    HW112485   0.195   6.126   6.679  0.0802 -1.4056  0.0378
 3862SOL    HW212486   0.094   6.254   6.686  0.9845 -0.6923  0.1305
 3863SOL     OW12487   1.522   4.416   1.640 -0.6391 -0.8920 -0.1605
 3863SOL    HW112488   1.462   4.387   1.715  0.4922  0.0008  1.1618
 3863SOL    HW212489   1.472   4.477   1.579 -1.3660 -0.9676  0.3435
 3864SOL     OW12490   3.080   1.888   0.657 -0.5914  0.2418 -0.1372
 3864SOL    HW112491   3.106   1.974   0.701 -0.0398 -0.6264  1.2946
 3864SOL    HW212492   3.090   1.897   0.558 -0.8287  1.9102 -0.0422
 3865SOL     OW12493   4.705   0.006   2.011  0.8287  0.8348  0.6584
 3865SOL    HW112494   4.646   0.069   2.061  0.5043  2.2164 -1.3404
 3865SOL    HW212495   4.738   0.050   1.928 -0.2778 -1.9411 -1.4325
 3866SOL     OW12496   4.968   6.158   6.427 -0.1228 -0.1987  0.0254
 3866SOL    HW112497   4.940   6.064   6.408 -0.8998 -0.1183  0.7230
 3866SOL    HW212498   4.888   6.218   6.420  0.3350  0.3856 -0.2315
 3867SOL     OW12499   3.192   4.835   2.275 -0.3512 -0.7650  0.5314
 3867SOL    HW112500   3.272   4.777   2.259  0.2467  0.4001 -0.8088
 3867SOL    HW212501   3.130   4.828   2.197 -0.7477 -0.3455  0.8057
 3868SOL     OW12502   1.884   6.073   1.996 -0.4490 -0.0513 -0.1663
 3868SOL    HW112503   1.862   6.134   1.920 -1.3813 -0.1925 -0.0233
 3868SOL    HW212504   1.983   6.057   1.999 -0.0905  2.0008  0.2218
 3869SOL     OW12505   3.225   0.214   3.690 -0.1606  0.1086  0.5762
 3869SOL    HW112506   3.179   0.138   3.735 -0.3622  0.7730  1.5232
 3869SOL    HW212507   3.221   0.202   3.590 -0.7778 -0.7663  0.6992
 3870SOL     OW12508   1.982   3.887   6.281 -0.5338  0.4882  0.0184
 3870SOL    HW112509   1.904   3.902   6.343 -0.6455 -1.2802  0.3361
 3870SOL    HW212510   2.067   3.894   6.333 -0.6229 -0.8567  0.3791
 3871SOL     OW12511   2.346   0.277   2.505  0.2037 -0.1319 -0.4813
 3871SOL    HW112512   2.251   0.254   2.485  0.3025 -0.2433 -0.8288
 3871SOL    HW212513   2.351   0.370   2.539 -0.2203 -0.6383  1.0629
 3872SOL     OW12514   4.840   3.040   0.046 -0.5766  0.1787 -0.2578
 3872SOL    HW112515   4.842   3.049   0.145 -1.6194 -2.0571  0.0327
 3872SOL    HW212516   4.750   3.069   0.012 -1.2560 -1.6926 -0.1664
 3873SOL     OW12517   0.414   5.542   1.625 -0.0204 -0.2327  0.5606
 3873SOL    HW112518   0.459   5.483   1.558 -0.7957  2.4074 -2.5420
 3873SOL    HW212519   0.324   5.504   1.648  0.4968 -1.4815  0.5533
 3874SOL     OW12520   5.403   6.401   6.032 -0.2461  0.3271 -0.0020
 3874SOL    HW112521   5.360   6.438   5.950 -1.4407 -2.5736 -0.8487
 3874SOL    HW212522   5.447   6.474   6.084  0.0319  2.3543 -2.8860
 3875SOL     OW12523   1.460   4.193   5.537  0.2193  0.1580 -0.7333
 3875SOL    HW112524   1.517   4.140   5.476  1.6654 -0.1645  0.8329
 3875SOL    HW212525   1.517   4.238   5.607 -1.4558 -0.9170  1.4541
 3876SOL     OW12526   0.138   5.170   3.146  0.1524 -0.2304 -0.4414
 3876SOL    HW112527   0.075   5.247   3.141 -3.5628 -3.0576 -2.4728
 3876SOL    HW212528   0.224   5.195   3.103 -1.1696  2.5393 -1.7655
 3877SOL     OW12529   5.161   3.825   1.521  0.9326  0.5804  0.0340
 3877SOL    HW112530   5.119   3.812   1.611  0.0191  0.3401 -0.4122
 3877SOL    HW212531   5.197   3.738   1.488 -0.2494  0.2875 -0.5518
 3878SOL     OW12532   0.475   6.492   6.703 -0.0247 -0.2443  0.0368
 3878SOL    HW112533   0.380   6.505   6.732  0.2546 -1.4123  1.5884
 3878SOL    HW212534   0.477   6.441   6.618 -0.7847  0.0603 -0.1761
 3879SOL     OW12535   2.277   1.241   0.656  0.1393  0.4607  0.2307
 3879SOL    HW112536   2.207   1.249   0.726 -1.1217  0.9113 -1.0408
 3879SOL    HW212537   2.275   1.322   0.597  1.2461  0.1444 -0.2704
 3880SOL     OW12538   5.371   0.215   3.880 -0.4052 -0.3493 -0.5481
 3880SOL    HW112539   5.291   0.155   3.878 -0.4905 -0.3420  1.4756
 3880SOL    HW212540   5.346   0.305   3.915  0.6769 -0.6965  1.2272
 3881SOL     OW12541   5.449   5.294   5.360 -0.2277 -0.2095 -0.3217
 3881SOL    HW112542   5.454   5.194   5.355 -0.6452 -0.3668  1.4886
 3881SOL    HW212543   5.533   5.334   5.322  0.7771 -1.3547  0.5915
 3882SOL     OW12544   5.854   3.914   1.667  0.0337  0.3197  0.4247
 3882SOL    HW112545   5.843   3.948   1.760 -0.5728 -1.2713  0.9542
 3882SOL    HW212546   5.814   3.980   1.603 -1.1105  0.6157  1.4095
 3883SOL     OW12547   4.583   2.721   0.354  0.1446  0.2263  0.5122
 3883SOL    HW112548   4.539   2.739   0.443 -2.1191 -1.0582 -0.2446
 3883SOL    HW212549   4.630   2.803   0.323 -2.8612  2.2513  0.8481
 3884SOL     OW12550   2.869   1.422   5.133 -0.4325 -0.4600  0.1894
 3884SOL    HW112551   2.792   1.359   5.123 -1.8635  1.6136 -3.9320
 3884SOL    HW212552   2.847   1.492   5.201 -1.5867 -0.7117  0.0912
 3885SOL     OW12553   2.198   0.881   4.439  0.4365 -0.1435 -0.3527
 3885SOL    HW112554   2.265   0.849   4.506  0.8513  0.5584 -0.4248
 3885SOL    HW212555   2.246   0.912   4.357  0.1400  1.7036  0.1336
 3886SOL     OW12556   0.025   6.496   4.335 -0.4117  0.6103 -0.8483
 3886SOL    HW112557  -0.069   6.530   4.343  0.0458  1.6565  0.4974
 3886SOL    HW212558   0.039   6.419   4.398  0.0896  1.6048  0.3068
 3887SOL     OW12559   6.717   3.722   3.815  0.0637 -0.4525  0.2545
 3887SOL    HW112560   6.816   3.731   3.823  0.1699 -1.1497 -0.1811
 3887SOL    HW212561   6.682   3.787   3.748  0.3914 -1.0661 -0.5195
 3888SOL     OW12562   4.957   3.269   2.523  0.0621 -0.1907 -0.3073
 3888SOL    HW112563   4.919   3.202   2.587 -2.3317  1.6873  0.4063
 3888SOL    HW212564   5.036   3.314   2.563 -0.5675 -0.0275  0.7841
 3889SOL     OW12565   6.859   5.956   0.547  0.4266  0.7081  0.2009
 3889SOL    HW112566   6.859   5.975   0.449 -0.3459 -1.4193 -0.2623
 3889SOL    HW212567   6.951   5.972   0.584  0.9951  0.5372 -1.0764
 3890SOL     OW12568   5.474   2.133   4.513  0.0475  0.0860  0.2648
 3890SOL    HW112569   5.485   2.037   4.539 -0.5010  0.2530  1.1475
 3890SOL    HW212570   5.477   2.191   4.595 -1.0442  0.6928 -0.0964
 3891SOL     OW12571   4.514   4.977   5.869  0.3040  0.1368  0.4011
 3891SOL    HW112572   4.435   5.020   5.913  0.3917  0.2978  0.4030
 3891SOL    HW212573   4.595   5.035   5.883  0.0413  0.9597 -1.2377
 3892SOL     OW12574   5.746   5.425   5.206  0.4862  0.0988 -0.5166
 3892SOL    HW112575   5.846   5.433   5.202  0.5169 -0.4232 -0.8963
 3892SOL    HW212576   5.707   5.458   5.120  0.2785  0.9425 -0.1154
 3893SOL     OW12577   1.691   0.349   3.855 -0.1455 -0.0436 -0.6035
 3893SOL    HW112578   1.645   0.288   3.919  0.0542 -0.8942 -1.2367
 3893SOL    HW212579   1.627   0.419   3.823  0.2603  1.6424  1.9676
 3894SOL     OW12580   5.093   4.801   6.647  0.3605  0.3303 -0.3839
 3894SOL    HW112581   5.101   4.728   6.580  0.1425  0.3802 -0.4667
 3894SOL    HW212582   5.006   4.849   6.633 -0.4791 -0.7148  0.9970
 3895SOL     OW12583   0.861   1.470   5.281  0.0932  0.2474 -0.1077
 3895SOL    HW112584   0.931   1.465   5.211 -0.9271 -0.4598 -1.1013
 3895SOL    HW212585   0.801   1.549   5.263 -1.5962 -1.2616 -1.4508
 3896SOL     OW12586   6.964   2.519   0.341 -0.0183 -0.5510  0.2491
 3896SOL    HW112587   6.880   2.489   0.296  0.2004 -0.4084 -0.2635
 3896SOL    HW212588   6.952   2.515   0.440 -0.8500  0.0821  0.1847
 3897SOL     OW12589   3.349   1.643   0.891  0.5002 -0.1083  0.3289
 3897SOL    HW112590   3.434   1.665   0.844  0.3301  1.5867  0.7480
 3897SOL    HW212591   3.280   1.616   0.824  0.8344  0.3440 -0.2072
 3898SOL     OW12592   3.584   3.394   3.184  0.0415  0.8677 -0.0947
 3898SOL    HW112593   3.487   3.413   3.166 -0.2448  1.9272  2.1944
 3898SOL    HW212594   3.614   3.318   3.127 -2.7451 -0.9611  0.6796
 3899SOL     OW12595   3.559   1.435   5.403 -0.0921 -0.2201 -0.0056
 3899SOL    HW112596   3.573   1.451   5.305 -0.7906 -1.3457 -0.3085
 3899SOL    HW212597   3.591   1.515   5.454 -1.4790  1.2139 -1.2625
 3900SOL     OW12598   1.580   0.928   2.377  0.5043 -0.1448  0.1390
 3900SOL    HW112599   1.641   0.849   2.389  0.2064 -0.4337 -0.2423
 3900SOL    HW212600   1.626   1.010   2.412  1.1149 -0.3593 -0.1367
 3901SOL     OW12601   4.598   6.985   4.967 -0.1271 -0.0780  0.2647
 3901SOL    HW112602   4.614   7.076   4.929  0.5357  0.4743  1.7372
 3901SOL    HW212603   4.674   6.925   4.942 -1.7595 -1.0517 -2.8443
 3902SOL     OW12604   4.621   5.223   3.500 -0.0804  0.2603  0.1311
 3902SOL    HW112605   4.680   5.163   3.446 -1.1693  1.1585 -2.2145
 3902SOL    HW212606   4.621   5.194   3.595  0.6620 -2.4501 -0.6187
 3903SOL     OW12607   1.428   4.565   6.036 -0.1240  0.3423 -0.8433
 3903SOL    HW112608   1.405   4.508   6.115  0.3227  0.6124 -0.5100
 3903SOL    HW212609   1.344   4.595   5.991 -0.5186  2.1348  0.9290
 3904SOL     OW12610   1.388   6.399   0.888 -0.2522 -0.1867  0.5115
 3904SOL    HW112611   1.351   6.307   0.891 -0.9275  0.0632  0.0930
 3904SOL    HW212612   1.338   6.458   0.951 -0.4839  0.1166  0.0579
 3905SOL     OW12613   3.862   6.374   4.262 -0.0371 -0.2468 -0.2535
 3905SOL    HW112614   3.850   6.374   4.361 -1.7365 -1.6665 -0.4049
 3905SOL    HW212615   3.876   6.467   4.229  0.2414  0.2700  1.2798
 3906SOL     OW12616   6.650   6.497   3.179  0.0541  0.2056 -0.2449
 3906SOL    HW112617   6.568   6.452   3.145  0.3181  0.6740 -1.5798
 3906SOL    HW212618   6.637   6.596   3.179  0.7603  0.3214 -0.9698
 3907SOL     OW12619   6.398   0.409   4.751 -0.0436 -0.0287  0.0187
 3907SOL    HW112620   6.412   0.508   4.752  0.0697 -0.0442  0.7032
 3907SOL    HW212621   6.398   0.374   4.845  1.0998 -0.8405 -0.2539
 3908SOL     OW12622   3.788   0.973   4.251 -0.1372  0.3803  0.0755
 3908SOL    HW112623   3.886   0.994   4.252 -0.4901  2.3516 -0.9838
 3908SOL    HW212624   3.740   1.043   4.198 -2.2573  0.0294  1.4217
 3909SOL     OW12625   6.878   4.020   3.723  0.4243 -0.3480  0.4160
 3909SOL    HW112626   6.807   3.959   3.686 -1.0779  0.9462  1.0421
 3909SOL    HW212627   6.927   3.973   3.797 -0.6902 -0.8376  0.8690
 3910SOL     OW12628   1.875   2.957   0.302 -0.2725  0.0779 -0.2993
 3910SOL    HW112629   1.823   2.886   0.255 -2.0855  0.5439  0.8987
 3910SOL    HW212630   1.819   2.995   0.376  1.6796  0.8568  0.8286
 3911SOL     OW12631   5.849   1.966   0.896  0.6195 -0.3810 -0.0937
 3911SOL    HW112632   5.888   1.948   0.986  0.2401 -0.6274  0.0261
 3911SOL    HW212633   5.913   1.936   0.825  0.6092 -0.8639  0.0985
 3912SOL     OW12634   4.129   4.913   0.044  0.4009 -0.2103 -0.1801
 3912SOL    HW112635   4.100   4.822   0.074 -0.4711 -0.2919 -1.2126
 3912SOL    HW212636   4.077   4.939  -0.038  2.3418  0.1939 -1.3447
 3913SOL     OW12637   1.678   5.762   5.917  0.3182 -0.4188 -0.0873
 3913SOL    HW112638   1.726   5.837   5.872 -0.5628 -0.9079 -1.9324
 3913SOL    HW212639   1.602   5.732   5.860 -0.9045 -1.0476  1.7998
 3914SOL     OW12640   6.750   1.167   0.681  0.5882  0.4107 -0.0270
 3914SOL    HW112641   6.738   1.214   0.768  1.1423 -0.2038  0.3964
 3914SOL    HW212642   6.693   1.084   0.680  0.3548  0.5733 -0.3737
 3915SOL     OW12643   5.740   6.168   4.214 -0.5877  0.9801  0.0613
 3915SOL    HW112644   5.738   6.242   4.281  0.9726  0.5459  0.6138
 3915SOL    HW212645   5.834   6.139   4.199 -0.8967  0.9892 -2.2546
 3916SOL     OW12646   1.789   4.531   2.778 -0.2037  0.0984 -0.0846
 3916SOL    HW112647   1.718   4.556   2.844 -1.3765 -2.9848 -0.0230
 3916SOL    HW212648   1.752   4.536   2.685  0.1944  0.5341 -0.2242
 3917SOL     OW12649   2.057   6.132   2.568  0.2040  0.0329  0.3599
 3917SOL    HW112650   2.113   6.186   2.632  0.4135  0.8388 -0.4813
 3917SOL    HW212651   2.101   6.043   2.554  2.0749  1.1291 -1.3128
 3918SOL     OW12652   4.485   6.466   1.211  0.2048 -0.0362 -0.0573
 3918SOL    HW112653   4.569   6.416   1.193 -0.6139 -1.1714 -0.8378
 3918SOL    HW212654   4.406   6.406   1.200 -0.7174  0.8830  1.0851
 3919SOL     OW12655   4.529   4.655   3.473 -0.0157  0.1309  0.5365
 3919SOL    HW112656   4.441   4.653   3.520  0.8578 -1.2975  2.2390
 3919SOL    HW212657   4.582   4.734   3.504 -0.4197  0.6071  0.0243
 3920SOL     OW12658   4.303   6.968   5.997 -0.0600  0.5813 -0.2279
 3920SOL    HW112659   4.355   7.052   6.012 -0.1576  0.5893  0.0779
 3920SOL    HW212660   4.239   6.955   6.073  1.1343 -0.6583  0.6139
 3921SOL     OW12661   1.102   4.184   5.962 -0.2289 -0.6721 -0.4692
 3921SOL    HW112662   1.143   4.204   5.873  0.0748  0.1211 -0.1603
 3921SOL    HW212663   1.087   4.085   5.970 -0.1407 -0.7642 -1.3436
 3922SOL     OW12664   4.538   6.912   3.503 -0.9291 -0.4402 -0.0777
 3922SOL    HW112665   4.633   6.923   3.473 -1.5936  0.5954 -2.0126
 3922SOL    HW212666   4.495   6.838   3.451 -2.1573  1.4892 -1.9604
 3923SOL     OW12667   5.160   1.920   0.758 -0.3278 -0.5847  0.1772
 3923SOL    HW112668   5.118   1.830   0.746 -2.7772  0.5471 -0.2603
 3923SOL    HW212669   5.103   1.990   0.715  0.1319  1.5315  2.7818
 3924SOL     OW12670   4.117   5.621   5.522  0.0622  0.3269 -0.1076
 3924SOL    HW112671   4.122   5.570   5.436 -0.3603  0.6370 -0.3153
 3924SOL    HW212672   4.130   5.558   5.599 -1.0155 -0.1957 -0.3338
 3925SOL     OW12673   4.285   4.753   1.251 -0.3556  0.4505  0.2924
 3925SOL    HW112674   4.380   4.731   1.273 -0.4641 -0.3044  0.0260
 3925SOL    HW212675   4.227   4.733   1.330 -0.2367  1.4143  0.6442
 3926SOL     OW12676   1.769   6.139   3.047 -0.1104 -0.1608 -0.0182
 3926SOL    HW112677   1.816   6.163   2.961  0.1372  1.4650  0.5484
 3926SOL    HW212678   1.815   6.182   3.124 -1.0440 -0.6249  0.8300
 3927SOL     OW12679   6.361   4.181   6.537  0.1051  0.4126  0.0465
 3927SOL    HW112680   6.440   4.223   6.493 -0.5556  0.8530 -0.7324
 3927SOL    HW212681   6.298   4.145   6.468  0.5330 -1.6851  0.6700
 3928SOL     OW12682   4.744   5.453   3.820  0.2082  0.1126  0.6658
 3928SOL    HW112683   4.841   5.434   3.804  0.9099  2.3391  1.7823
 3928SOL    HW212684   4.697   5.462   3.732  0.8708 -1.5317  0.1157
 3929SOL     OW12685   3.313   0.880   0.156 -0.6973  0.1420  0.9451
 3929SOL    HW112686   3.316   0.784   0.130  1.3112  0.5461 -0.5338
 3929SOL    HW212687   3.221   0.903   0.187 -0.9828 -2.4530  2.2618
 3930SOL     OW12688   1.555   6.124   4.004 -0.1316  0.0815  0.5001
 3930SOL    HW112689   1.594   6.085   3.921 -0.8504  0.9527 -0.2654
 3930SOL    HW212690   1.617   6.107   4.081  1.2776  0.5615 -0.4917
 3931SOL     OW12691   0.987   2.104   0.354  0.6053 -0.3934 -0.2382
 3931SOL    HW112692   0.996   2.070   0.260 -2.2183 -0.2129 -0.6772
 3931SOL    HW212693   1.020   2.198   0.359 -0.4043  0.0561 -1.4227
 3932SOL     OW12694   2.376   6.347   3.153 -0.2282 -0.6242  0.0819
 3932SOL    HW112695   2.315   6.300   3.089 -1.2308  1.9621 -1.0064
 3932SOL    HW212696   2.465   6.303   3.153 -1.8882 -4.3812  1.5318
 3933SOL     OW12697   5.827   0.868   1.704 -0.4355  0.1086 -0.4178
 3933SOL    HW112698   5.768   0.915   1.770 -0.8308 -0.5421 -0.2987
 3933SOL    HW212699   5.880   0.798   1.751  0.3287  0.5775 -0.5550
 3934SOL     OW12700   6.734   6.408   0.543  0.0328 -0.6586  0.0201
 3934SOL    HW112701   6.737   6.358   0.456  0.6889  0.6688 -0.7365
 3934SOL    HW212702   6.754   6.504   0.527  2.1077 -0.7126  1.8877
 3935SOL     OW12703   6.909   0.018   1.094 -0.1357 -0.5854 -0.0056
 3935SOL    HW112704   6.944   0.075   1.169  0.5093  0.4679 -1.0781
 3935SOL    HW212705   6.969  -0.061   1.082  0.4132 -0.1514 -0.1442
 3936SOL     OW12706   5.138   3.534   6.040  0.2433  0.1277  0.0413
 3936SOL    HW112707   5.162   3.619   6.086  0.0167  0.3985 -0.3425
 3936SOL    HW212708   5.050   3.501   6.074 -2.1639  2.6204 -3.2428
 3937SOL     OW12709   3.098   4.209   5.801 -0.0762  0.1469 -0.0165
 3937SOL    HW112710   3.041   4.270   5.855 -0.9003 -0.6573  0.0369
 3937SOL    HW212711   3.055   4.194   5.711 -1.0952 -2.1266  0.7689
 3938SOL     OW12712   2.733   5.904   0.935 -0.2699 -0.3049 -0.1351
 3938SOL    HW112713   2.694   5.870   0.850  1.2335 -2.1384 -0.1622
 3938SOL    HW212714   2.684   5.863   1.012  0.6912 -1.5884 -0.1682
 3939SOL     OW12715   6.718   5.419   4.790  0.1441  0.3367  0.2884
 3939SOL    HW112716   6.639   5.421   4.852  0.4006 -0.5378  0.6577
 3939SOL    HW212717   6.734   5.325   4.761  0.5252  0.6342 -0.4779
 3940SOL     OW12718   2.309   5.203   5.466 -0.1854 -0.3021 -0.2135
 3940SOL    HW112719   2.271   5.112   5.456  0.4448 -0.7905  1.4484
 3940SOL    HW212720   2.371   5.205   5.545  2.2805  0.7660 -2.0273
 3941SOL     OW12721   5.754   4.858   3.782  0.3829 -0.5075  0.0684
 3941SOL    HW112722   5.767   4.816   3.872  0.5771  0.6343  0.5953
 3941SOL    HW212723   5.842   4.890   3.747  0.2994 -0.9099 -0.5078
 3942SOL     OW12724   1.621   0.070   0.557  0.7196  0.3307  0.0716
 3942SOL    HW112725   1.678  -0.012   0.549  0.4577 -0.0352  1.6281
 3942SOL    HW212726   1.636   0.113   0.646 -0.5667  0.8929  0.0411
 3943SOL     OW12727   1.098   4.369   6.648  0.0030 -0.0917  0.0245
 3943SOL    HW112728   1.067   4.342   6.557 -1.6080  0.8926  0.2496
 3943SOL    HW212729   1.037   4.330   6.717  1.0533 -0.6134  0.7006
 3944SOL     OW12730   4.657   2.773   0.734 -0.2003  0.5946  0.4002
 3944SOL    HW112731   4.586   2.816   0.790 -2.3707  1.1381 -2.5536
 3944SOL    HW212732   4.653   2.673   0.747 -1.8847  0.5750 -0.0797
 3945SOL     OW12733   2.971   6.394   1.503 -0.0280 -0.4577 -0.4392
 3945SOL    HW112734   3.018   6.482   1.511 -0.3067 -0.1883 -1.5722
 3945SOL    HW212735   2.874   6.406   1.528  0.1114 -0.6361  0.2132
 3946SOL     OW12736   3.704   0.482   1.464  0.1184 -0.1566  0.1341
 3946SOL    HW112737   3.783   0.537   1.492  0.4793 -0.6848  0.1616
 3946SOL    HW212738   3.640   0.475   1.540  1.5743 -2.4699  1.2548
 3947SOL     OW12739   3.877   1.196   0.483  0.3902  0.3166 -1.0300
 3947SOL    HW112740   3.885   1.273   0.547  1.6815  0.0267 -0.8184
 3947SOL    HW212741   3.821   1.124   0.525 -1.6986  1.5142 -1.6321
 3948SOL     OW12742   1.766   1.431   2.585 -0.2486  0.1228  0.0597
 3948SOL    HW112743   1.725   1.342   2.607 -1.1949 -0.3956 -3.2689
 3948SOL    HW212744   1.861   1.417   2.557 -0.7132 -0.0716 -1.5274
 3949SOL     OW12745   6.576   6.605   0.260 -0.6861  0.0129  0.1408
 3949SOL    HW112746   6.590   6.506   0.257 -0.6331  0.0309 -0.5469
 3949SOL    HW212747   6.662   6.652   0.240 -0.5452  0.2181  1.1721
 3950SOL     OW12748   1.755   4.761   0.575  0.4086  0.0318  0.1269
 3950SOL    HW112749   1.814   4.829   0.618 -1.2260 -0.0786  2.7668
 3950SOL    HW212750   1.702   4.804   0.502 -1.2194  1.9857  2.2788
 3951SOL     OW12751   5.354   6.153   2.783 -0.4356  0.3017 -0.0360
 3951SOL    HW112752   5.309   6.200   2.707 -0.3672  1.6414  0.7097
 3951SOL    HW212753   5.310   6.179   2.869  0.6039  0.2187  0.5389
 3952SOL     OW12754   6.089   5.152   6.804 -0.3896  0.2492  0.2271
 3952SOL    HW112755   6.047   5.205   6.878  0.5880  1.8217 -0.3080
 3952SOL    HW212756   6.086   5.204   6.719  1.3549 -0.1997 -0.1368
 3953SOL     OW12757   3.536   3.877   2.937  0.3917 -0.1083  0.1241
 3953SOL    HW112758   3.524   3.963   2.987 -0.3652 -0.3778  0.4213
 3953SOL    HW212759   3.612   3.825   2.977  1.5407  0.8649 -0.7023
 3954SOL     OW12760   0.533   3.793   0.507  0.3487 -0.0188  0.1621
 3954SOL    HW112761   0.630   3.808   0.527  0.3908 -1.7205  1.4007
 3954SOL    HW212762   0.477   3.835   0.578  0.1800  0.5667 -0.3089
 3955SOL     OW12763   6.954   2.917   6.399  0.8545 -0.1155 -0.1610
 3955SOL    HW112764   7.034   2.951   6.448 -0.1767  2.8893 -0.3192
 3955SOL    HW212765   6.883   2.891   6.464  0.7170  0.5923 -0.0193
 3956SOL     OW12766   6.994   3.844   3.906  0.2707 -0.6354 -0.1757
 3956SOL    HW112767   6.982   3.752   3.941  1.4688 -1.2886 -1.3700
 3956SOL    HW212768   7.078   3.884   3.945 -0.4328  0.1086  0.6183
 3957SOL     OW12769   2.906   3.874   6.610  0.1025  0.1005 -0.0110
 3957SOL    HW112770   2.967   3.796   6.623 -0.8397 -0.5893  0.3350
 3957SOL    HW212771   2.876   3.908   6.699 -3.7064 -2.5352 -0.0719
 3958SOL     OW12772   3.038   6.129   1.048  0.1182  0.2761 -0.4626
 3958SOL    HW112773   2.974   6.104   0.974  0.1611  0.1223 -0.4486
 3958SOL    HW212774   3.131   6.103   1.021 -0.0169 -0.9281  0.1566
 3959SOL     OW12775   2.634   5.221   5.934  0.0141  0.0156  0.4032
 3959SOL    HW112776   2.591   5.170   6.008 -0.4983 -2.5249 -1.5124
 3959SOL    HW212777   2.728   5.188   5.920 -1.1020 -2.4519 -2.4519
 3960SOL     OW12778   5.835   2.368   2.344  0.4363 -0.3788 -0.0546
 3960SOL    HW112779   5.870   2.285   2.387 -0.3273 -0.4720  0.3936
 3960SOL    HW212780   5.869   2.448   2.395  0.0208 -0.4691  0.3732
 3961SOL     OW12781   0.108   1.821   3.711 -0.5187  0.1731  0.3237
 3961SOL    HW112782   0.017   1.825   3.750 -0.5486  1.1328  0.1735
 3961SOL    HW212783   0.166   1.891   3.753  0.3799 -0.9373  0.9813
 3962SOL     OW12784   6.077   0.995   1.693 -0.3610  0.2889  0.7538
 3962SOL    HW112785   6.066   1.087   1.656 -1.8567 -0.0953  0.1806
 3962SOL    HW212786   5.994   0.942   1.677  0.2761 -1.0078  1.5436
 3963SOL     OW12787   5.458   4.994   4.468 -0.0088  0.5360  0.3041
 3963SOL    HW112788   5.506   4.957   4.389 -2.1880 -0.2975 -0.7068
 3963SOL    HW212789   5.422   5.085   4.447  0.2935  0.7522  0.7055
 3964SOL     OW12790   6.001   4.897   5.942  0.3664 -0.2504  0.1650
 3964SOL    HW112791   6.073   4.869   5.880 -0.4165 -0.2097 -0.7933
 3964SOL    HW212792   5.912   4.867   5.906 -0.2786  1.3369  0.3206
 3965SOL     OW12793   2.930   3.571   6.206  0.0467  0.5324 -0.8411
 3965SOL    HW112794   2.979   3.612   6.129  0.5004  0.1427 -0.7643
 3965SOL    HW212795   2.987   3.501   6.249  0.0804  1.2332  0.3002
 3966SOL     OW12796   6.626   4.580   4.721  0.3398 -0.1484  0.0328
 3966SOL    HW112797   6.724   4.560   4.730  0.4617  0.1270 -0.6343
 3966SOL    HW212798   6.596   4.557   4.628 -0.7153 -2.3036  0.8360
 3967SOL     OW12799   2.208   1.105   1.069 -0.4302 -0.0865 -0.3630
 3967SOL    HW112800   2.141   1.082   1.140  0.2430 -0.0278  0.3001
 3967SOL    HW212801   2.253   1.192   1.092  1.1192 -0.9731  0.1419
 3968SOL     OW12802   6.417   3.528   0.977  0.1401  0.2614 -0.0013
 3968SOL    HW112803   6.499   3.471   0.976  1.3124  1.8239  1.3675
 3968SOL    HW212804   6.411   3.580   0.891 -0.1000 -0.7238 -0.5982
 3969SOL     OW12805   5.556   0.035   6.828  0.4226  0.2186 -0.0034
 3969SOL    HW112806   5.612   0.050   6.909  1.2981  2.7984 -0.9680
 3969SOL    HW212807   5.609  -0.013   6.759  0.5444  0.2821  0.0456
 3970SOL     OW12808   5.135   3.088   3.398 -0.2613 -0.8062 -0.2199
 3970SOL    HW112809   5.130   3.100   3.497  0.6023 -0.7421 -0.1729
 3970SOL    HW212810   5.164   3.174   3.355 -0.4245 -0.8929 -0.5070
 3971SOL     OW12811   6.189   4.863   4.715 -0.2000 -0.3161  0.0203
 3971SOL    HW112812   6.215   4.903   4.803 -1.3526 -0.3608  0.4001
 3971SOL    HW212813   6.257   4.888   4.646 -0.2700  1.3324  0.4953
 3972SOL     OW12814   0.816   1.127   4.916 -0.1878 -0.1567 -0.0749
 3972SOL    HW112815   0.886   1.107   4.985  1.2065  3.6523 -0.1566
 3972SOL    HW212816   0.860   1.159   4.832 -1.9773 -1.6972 -1.6851
 3973SOL     OW12817   3.607   3.432   0.600 -0.3161 -0.5342 -0.6157
 3973SOL    HW112818   3.519   3.386   0.595  0.7870 -2.9496  0.8224
 3973SOL    HW212819   3.680   3.366   0.583  1.3168  0.9390  0.3964
 3974SOL     OW12820   5.721   0.024   0.035  0.2342 -0.0593  0.1768
 3974SOL    HW112821   5.677   0.051   0.121  0.9803 -1.5223  1.0532
 3974SOL    HW212822   5.782  -0.054   0.051  0.3808 -0.3833 -1.6861
 3975SOL     OW12823   6.110   5.106   4.212 -0.2121 -0.1275  0.2766
 3975SOL    HW112824   6.206   5.076   4.205 -0.0466  0.5208 -0.4900
 3975SOL    HW212825   6.081   5.144   4.123 -0.5628  1.4789  1.0405
 3976SOL     OW12826   6.910   1.205   5.845 -0.5269 -0.5848 -0.4108
 3976SOL    HW112827   6.942   1.299   5.839  0.2099 -0.9082 -2.1843
 3976SOL    HW212828   6.988   1.144   5.858 -0.5197 -1.2422 -3.0582
 3977SOL     OW12829   1.465   6.943   4.397  0.3554  0.1802 -0.5166
 3977SOL    HW112830   1.490   6.956   4.493 -1.4942 -0.3391  0.0856
 3977SOL    HW212831   1.395   7.009   4.371  0.2379 -0.2195 -1.2500
 3978SOL     OW12832   4.782   4.891   0.399  0.3769  0.1223 -0.5323
 3978SOL    HW112833   4.776   4.874   0.497 -0.4350 -1.3099 -0.8005
 3978SOL    HW212834   4.782   4.990   0.382 -0.2993  0.3807  0.8467
 3979SOL     OW12835   2.582   1.049   2.689  0.5733 -0.2823  0.2744
 3979SOL    HW112836   2.632   1.066   2.604 -0.5497 -0.8306 -0.5145
 3979SOL    HW212837   2.612   1.114   2.759  2.3586 -0.5703 -0.1686
 3980SOL     OW12838   5.797   6.626   3.827 -0.1994  0.7642 -0.0652
 3980SOL    HW112839   5.796   6.713   3.876 -2.5169 -0.3091  2.0025
 3980SOL    HW212840   5.779   6.551   3.891 -1.9082 -0.8972 -2.3004
 3981SOL     OW12841   5.140   1.450   6.951 -0.5403  0.4854 -0.3904
 3981SOL    HW112842   5.090   1.377   6.904 -0.4156 -0.4890  0.9227
 3981SOL    HW212843   5.076   1.513   6.994 -0.6520  0.0495  0.0882
 3982SOL     OW12844   1.888   2.970   3.675  0.4019 -0.4663  0.5556
 3982SOL    HW112845   1.908   2.922   3.589  0.7768  0.8954 -0.1448
 3982SOL    HW212846   1.886   3.068   3.659 -0.0868 -0.2087  2.0133
 3983SOL     OW12847   4.363   7.021   3.084  0.2508 -0.2856 -0.1224
 3983SOL    HW112848   4.423   6.985   3.012 -0.1864  0.1008 -0.6988
 3983SOL    HW212849   4.403   7.003   3.173  0.7734 -0.8452 -0.4607
 3984SOL     OW12850   1.791   5.712   2.559 -0.4237  0.1271  0.6573
 3984SOL    HW112851   1.768   5.708   2.656 -2.1467 -1.6488  0.2338
 3984SOL    HW212852   1.880   5.669   2.544 -0.6796 -0.6516  1.3182
 3985SOL     OW12853   6.879   2.972   1.484  0.3080 -0.7227  0.6051
 3985SOL    HW112854   6.799   3.027   1.504  0.1557 -0.9038  0.5016
 3985SOL    HW212855   6.861   2.916   1.403  0.2270 -1.3983  1.0833
 3986SOL     OW12856   1.997   6.311   3.177  0.3534  0.2754  0.1951
 3986SOL    HW112857   2.089   6.286   3.145 -0.4061 -2.1533 -0.2451
 3986SOL    HW212858   1.949   6.359   3.104  1.9550  3.6964  1.1727
 3987SOL     OW12859   2.257   4.687   3.189 -0.4615  0.3325 -0.0669
 3987SOL    HW112860   2.182   4.638   3.233 -1.9559  2.5632  0.0333
 3987SOL    HW212861   2.336   4.690   3.250 -0.6614 -1.0598  0.2944
 3988SOL     OW12862   3.516   5.087   2.411  0.3460 -0.1246 -0.2144
 3988SOL    HW112863   3.556   5.074   2.321  1.7095  0.2268  0.3226
 3988SOL    HW212864   3.579   5.054   2.481 -0.6017 -0.1931  0.6266
 3989SOL     OW12865   4.328   1.821   5.722 -0.4885  0.3810  0.2218
 3989SOL    HW112866   4.228   1.826   5.724 -0.5993 -1.4143  1.5058
 3989SOL    HW212867   4.360   1.831   5.628 -1.9935 -0.5521 -0.4273
 3990SOL     OW12868   5.159   6.183   4.306 -0.2831 -0.2046  0.2610
 3990SOL    HW112869   5.165   6.113   4.235  0.2572 -1.0152  1.0972
 3990SOL    HW212870   5.245   6.234   4.309  0.4540 -1.4588  1.6225
 3991SOL     OW12871   1.520   2.561   4.786  0.7374  0.4017  0.0343
 3991SOL    HW112872   1.614   2.594   4.796  0.5902  0.3008  1.9863
 3991SOL    HW212873   1.504   2.487   4.851 -0.8430  0.7331  0.0505
 3992SOL     OW12874   6.154   2.672   5.922  0.2712  0.0163  0.2945
 3992SOL    HW112875   6.149   2.621   6.008  2.7313  1.6958  1.5390
 3992SOL    HW212876   6.099   2.754   5.929 -0.6175 -0.5090 -0.2921
 3993SOL     OW12877   1.342   6.588   3.397 -0.1232  0.4636 -0.1425
 3993SOL    HW112878   1.418   6.583   3.332  1.2234  1.8162  1.2184
 3993SOL    HW212879   1.374   6.557   3.487 -1.0961  1.2763  0.5021
 3994SOL     OW12880   4.341   1.729   2.092 -0.1211 -0.1886  0.2930
 3994SOL    HW112881   4.357   1.735   1.993  2.5063 -0.7519  0.6121
 3994SOL    HW212882   4.403   1.792   2.139 -0.4637 -0.8290  1.6333
 3995SOL     OW12883   1.790   3.474   2.925 -0.4641  0.3068 -0.4130
 3995SOL    HW112884   1.774   3.571   2.905 -0.0745  0.5183  0.2619
 3995SOL    HW212885   1.863   3.440   2.865 -0.6082  0.4234 -0.6593
 3996SOL     OW12886   6.699   4.382   0.966  0.3089 -0.7567 -0.4395
 3996SOL    HW112887   6.654   4.304   0.922  0.6701 -1.1996 -0.0431
 3996SOL    HW212888   6.749   4.350   1.046 -0.6423  0.0987  0.5108
 3997SOL     OW12889   5.814   2.456   6.575  0.3261 -0.3754  0.0544
 3997SOL    HW112890   5.739   2.519   6.595  0.2351 -0.6211  0.5050
 3997SOL    HW212891   5.780   2.378   6.523  0.1978 -0.6597  0.5595
 3998SOL     OW12892   3.718   2.123   2.907 -0.0826 -0.0647  0.8886
 3998SOL    HW112893   3.711   2.149   3.003 -2.4499 -3.7389  1.8964
 3998SOL    HW212894   3.634   2.149   2.859 -0.2266 -0.9975  0.6209
 3999SOL     OW12895   5.473   4.084   1.817  0.1506 -0.0691  0.4768
 3999SOL    HW112896   5.396   4.021   1.817  0.3718 -0.4504  2.7709
 3999SOL    HW212897   5.445   4.172   1.778 -0.4775 -1.1821 -1.6792
 4000SOL     OW12898   3.914   5.760   0.325 -0.4037 -0.0442  0.6521
 4000SOL    HW112899   3.929   5.778   0.228  1.2724  1.0879  1.0757
 4000SOL    HW212900   3.894   5.846   0.372  2.8925  0.1678  1.9314
 4001SOL     OW12901   0.916   5.614   3.387 -0.4124  0.0309  0.0790
 4001SOL    HW112902   0.889   5.569   3.472 -0.2861  2.7814  1.6999
 4001SOL    HW212903   0.994   5.674   3.405  0.9659 -0.8398 -2.4883
 4002SOL     OW12904   3.162   3.458   3.967  0.2031  0.1681  0.1858
 4002SOL    HW112905   3.244   3.462   3.911 -1.0567  0.6393 -1.7061
 4002SOL    HW212906   3.136   3.550   3.995 -0.5822  0.2038 -0.6248
 4003SOL     OW12907   2.831   0.717   4.464 -0.6790  0.2216 -0.0217
 4003SOL    HW112908   2.906   0.754   4.410 -0.5040  1.2134  0.8559
 4003SOL    HW212909   2.750   0.708   4.407 -0.2133  0.2446 -0.6978
 4004SOL     OW12910   2.887   3.364   4.775 -0.4323 -0.3565  0.5111
 4004SOL    HW112911   2.812   3.305   4.805 -1.0966  0.7233  1.0299
 4004SOL    HW212912   2.964   3.357   4.839 -0.7897 -0.1205  0.9706
 4005SOL     OW12913   5.888   1.226   3.055 -0.0836 -0.1374  0.3710
 4005SOL    HW112914   5.920   1.185   3.141  1.3588  0.1894  0.0082
 4005SOL    HW212915   5.874   1.324   3.069  0.4604 -0.0255  0.1651
 4006SOL     OW12916   0.370   5.630   2.741 -0.1363 -0.1451 -0.9552
 4006SOL    HW112917   0.427   5.636   2.823 -0.3884 -1.5845 -0.6415
 4006SOL    HW212918   0.275   5.614   2.767 -0.1060 -1.3755 -1.5070
 4007SOL     OW12919   1.521   1.724   2.343 -0.2113 -0.2626 -0.1231
 4007SOL    HW112920   1.553   1.819   2.340 -1.7790  0.2692 -1.1860
 4007SOL    HW212921   1.599   1.662   2.337  0.7075  0.9571 -1.1918
 4008SOL     OW12922   4.410   1.167   1.425  0.1701 -0.1921  0.5120
 4008SOL    HW112923   4.378   1.101   1.493  0.1123 -0.6530  0.0443
 4008SOL    HW212924   4.336   1.232   1.405 -0.2460 -0.8411 -0.0635
 4009SOL     OW12925   4.522   1.555   1.369  0.2955  0.3851 -0.6594
 4009SOL    HW112926   4.615   1.538   1.337  0.4714  0.6052 -0.2702
 4009SOL    HW212927   4.462   1.480   1.340  0.9938 -0.7759  0.7953
 4010SOL     OW12928   0.032   6.303   2.637  0.2665 -0.2222 -0.2789
 4010SOL    HW112929  -0.062   6.284   2.610 -0.2841 -0.2129  1.4959
 4010SOL    HW212930   0.060   6.238   2.708  1.8109 -0.5820 -1.1661
 4011SOL     OW12931   5.720   5.536   5.964  0.2008  0.0607 -0.0685
 4011SOL    HW112932   5.638   5.551   5.909  1.2854  2.3836 -1.1650
 4011SOL    HW212933   5.789   5.490   5.910  0.1622 -0.5428  0.3850
 4012SOL     OW12934   6.938   5.234   4.000 -0.0922 -0.1304  0.2506
 4012SOL    HW112935   6.986   5.267   4.083  1.6334 -0.3193 -0.6232
 4012SOL    HW212936   6.874   5.162   4.025  0.7769 -0.5451  1.3784
 4013SOL     OW12937   0.920   6.984   6.665  0.2215 -0.0473 -0.0712
 4013SOL    HW112938   0.865   6.937   6.734  1.1907 -1.5780 -0.2861
 4013SOL    HW212939   1.004   7.019   6.708 -0.9947  2.5900  0.3359
 4014SOL     OW12940   4.684   5.860   2.921  0.6318 -0.2222  0.0899
 4014SOL    HW112941   4.676   5.848   3.020 -0.4495 -1.3015 -0.0993
 4014SOL    HW212942   4.680   5.957   2.899 -0.1796 -0.0239  1.0301
 4015SOL     OW12943   3.436   6.707   6.143 -0.2497 -0.2215 -0.6387
 4015SOL    HW112944   3.393   6.676   6.228  1.5352  1.7782  1.0836
 4015SOL    HW212945   3.367   6.706   6.070 -2.3959 -0.1050  1.2478
 4016SOL     OW12946   0.329   4.631   3.317  0.4161 -0.7910  0.4096
 4016SOL    HW112947   0.417   4.650   3.273 -1.3142  2.9487 -1.9424
 4016SOL    HW212948   0.319   4.690   3.398 -1.2401  1.8242 -1.5159
 4017SOL     OW12949   1.672   5.276   0.424  0.6405 -0.3483 -0.7953
 4017SOL    HW112950   1.609   5.354   0.423  2.5248  1.3181  1.0858
 4017SOL    HW212951   1.758   5.302   0.380  2.1565 -0.4526  1.8790
 4018SOL     OW12952   6.499   5.288   0.276  0.0183 -0.1948 -0.0035
 4018SOL    HW112953   6.497   5.313   0.373  0.5044 -1.9611  0.4941
 4018SOL    HW212954   6.549   5.358   0.225 -2.2289  1.9934  0.5737
 4019SOL     OW12955   2.771   1.334   3.396 -0.6919 -0.6349 -0.1690
 4019SOL    HW112956   2.762   1.421   3.348  0.9433 -0.3720 -0.0528
 4019SOL    HW212957   2.740   1.343   3.490  2.0919  0.6985  0.7441
 4020SOL     OW12958   6.494   6.418   3.448  0.0033 -0.1515  0.0980
 4020SOL    HW112959   6.433   6.474   3.392  1.2384  1.0073 -0.1497
 4020SOL    HW212960   6.533   6.475   3.520  0.6108 -0.9298  0.3939
 4021SOL     OW12961   5.278   3.833   6.209  0.1776  0.3386 -0.1313
 4021SOL    HW112962   5.191   3.863   6.171 -0.3071  0.2434  0.8622
 4021SOL    HW212963   5.352   3.890   6.173 -0.3192  0.5353 -0.8468
 4022SOL     OW12964   1.960   0.460   0.297 -0.2051 -0.6117  0.7418
 4022SOL    HW112965   1.875   0.426   0.338 -1.4963 -1.8351 -2.5580
 4022SOL    HW212966   1.938   0.532   0.231  1.2163 -1.4691 -0.7154
 4023SOL     OW12967   0.755   0.847   5.157  0.0770 -0.4235  0.8185
 4023SOL    HW112968   0.756   0.881   5.251 -0.8039  0.0801  0.6652
 4023SOL    HW212969   0.662   0.857   5.120 -0.1144 -2.5910  0.6051
 4024SOL     OW12970   1.451   6.943   5.463  0.1728 -0.2296 -0.1175
 4024SOL    HW112971   1.544   6.969   5.489  0.3240 -1.7178  0.9193
 4024SOL    HW212972   1.454   6.870   5.395 -0.2556  0.8614 -1.3484
 4025SOL     OW12973   5.528   4.085   4.559  0.1454 -0.3160  0.1968
 4025SOL    HW112974   5.477   4.166   4.531 -3.8485 -2.8580 -0.5977
 4025SOL    HW212975   5.587   4.108   4.637 -1.1619  3.1825  0.3218
 4026SOL     OW12976   6.843   6.661   0.544  0.0797  0.2305 -0.6735
 4026SOL    HW112977   6.890   6.739   0.502  0.0126  1.2592  1.0571
 4026SOL    HW212978   6.912   6.597   0.579  0.2688  1.4314  1.3026
 4027SOL     OW12979   3.283   5.280   4.881 -0.1240 -0.3610  0.0261
 4027SOL    HW112980   3.291   5.272   4.781  2.6840 -1.9330  0.2897
 4027SOL    HW212981   3.285   5.377   4.907  1.5117  0.0180 -1.3399
 4028SOL     OW12982   5.880   1.043   5.506 -0.5688  0.0301 -0.4437
 4028SOL    HW112983   5.837   1.133   5.507  0.2408  0.4391  1.5779
 4028SOL    HW212984   5.972   1.049   5.545 -1.0754 -1.9308  1.2184
 4029SOL     OW12985   1.683   0.144   2.887  0.3740  0.9073 -0.2939
 4029SOL    HW112986   1.775   0.108   2.893 -0.2734 -0.6010  1.7140
 4029SOL    HW212987   1.682   0.239   2.918  1.0276  0.4443  1.1943
 4030SOL     OW12988   1.301   1.149   1.781  0.0345  0.3595 -0.5598
 4030SOL    HW112989   1.339   1.210   1.850  0.1654 -1.4178  1.0007
 4030SOL    HW212990   1.307   1.054   1.813 -0.1377 -0.5086 -2.9058
 4031SOL     OW12991   0.740   6.059   6.829 -0.0459  0.2571 -0.4513
 4031SOL    HW112992   0.747   6.130   6.758  0.3364  1.7284  1.0018
 4031SOL    HW212993   0.813   6.072   6.896 -1.9589  0.6175  1.6963
 4032SOL     OW12994   4.381   2.433   2.560  1.0031 -0.3799 -0.0954
 4032SOL    HW112995   4.421   2.501   2.622  0.2387  0.7954 -0.8548
 4032SOL    HW212996   4.310   2.382   2.609  1.0163 -0.0694  0.2562
 4033SOL     OW12997   1.560   5.060   4.264 -0.0894  0.2097  0.0261
 4033SOL    HW112998   1.622   5.123   4.217  0.8545 -0.5806  0.1808
 4033SOL    HW212999   1.488   5.113   4.310  1.3659  1.3014  1.1837
 4034SOL     OW13000   4.487   1.495   4.530 -0.1434 -0.4283  0.2875
 4034SOL    HW113001   4.453   1.419   4.587 -1.1590 -0.9548 -0.9735
 4034SOL    HW213002   4.410   1.537   4.482  0.8643 -1.2991 -2.2510
 4035SOL     OW13003   3.540   2.238   0.096 -0.2543  0.4447  0.6966
 4035SOL    HW113004   3.557   2.167   0.165  0.7970  1.9074  1.9971
 4035SOL    HW213005   3.443   2.238   0.071 -0.0187 -2.5972 -0.6944
 4036SOL     OW13006   2.845   0.291   5.123  0.6276 -0.2143  0.4280
 4036SOL    HW113007   2.772   0.267   5.060  1.7521 -0.4943 -0.8033
 4036SOL    HW213008   2.900   0.365   5.084  0.3984  0.7272  1.8069
 4037SOL     OW13009   1.573   2.127   0.339  0.2269  0.2050  0.0421
 4037SOL    HW113010   1.645   2.069   0.302 -0.0673 -0.3241  0.3002
 4037SOL    HW213011   1.605   2.222   0.340  1.7339 -0.2568  2.1345
 4038SOL     OW13012   4.500   4.093   6.207 -0.2048  0.1017 -0.2313
 4038SOL    HW113013   4.516   3.997   6.184  0.5801 -0.2768  1.6692
 4038SOL    HW213014   4.465   4.142   6.127  0.0376 -1.6046 -1.4241
 4039SOL     OW13015   5.671   3.523   1.214  0.2601  0.0821  0.4805
 4039SOL    HW113016   5.770   3.529   1.225  0.0909  2.2624  1.1187
 4039SOL    HW213017   5.627   3.603   1.255 -1.6020  0.4353 -1.9697
 4040SOL     OW13018   1.056   6.687   2.789  0.0079  0.4785  0.5498
 4040SOL    HW113019   1.018   6.649   2.705  0.0607  0.2654  0.6224
 4040SOL    HW213020   1.073   6.785   2.776  1.0406  0.2361 -0.0544
 4041SOL     OW13021   0.027   0.900   2.862 -0.7014  0.6124  0.1494
 4041SOL    HW113022   0.021   0.929   2.957  1.0235 -2.1001  1.2127
 4041SOL    HW213023  -0.047   0.835   2.842 -0.5905  0.5640 -0.1064
 4042SOL     OW13024   2.440   1.891   3.913  0.3073 -0.1955 -0.2584
 4042SOL    HW113025   2.350   1.883   3.954  0.2680 -0.5988 -0.4211
 4042SOL    HW213026   2.433   1.881   3.814  0.6057 -0.8738 -0.2172
 4043SOL     OW13027   4.210   3.955   6.063 -0.7412  0.1665 -0.1022
 4043SOL    HW113028   4.246   3.903   5.986 -0.0637  0.2751  0.1359
 4043SOL    HW213029   4.279   4.020   6.094 -0.1989 -1.3074  1.9415
 4044SOL     OW13030   4.660   2.356   4.169  0.6829  0.1589  0.3811
 4044SOL    HW113031   4.603   2.432   4.201  1.6418  0.4837  1.3599
 4044SOL    HW213032   4.745   2.392   4.130  0.5551 -0.3605 -0.4031
 4045SOL     OW13033   4.304   2.338   5.632 -0.4122 -0.5987  0.8385
 4045SOL    HW113034   4.281   2.306   5.724  0.4730  0.4419  1.4532
 4045SOL    HW213035   4.315   2.437   5.633  1.5205 -0.7581  0.0736
 4046SOL     OW13036   3.792   6.371   4.546 -0.3469  0.1913 -0.8160
 4046SOL    HW113037   3.693   6.360   4.553 -0.4920  1.1405 -1.2096
 4046SOL    HW213038   3.817   6.463   4.575  0.2457  0.4469 -2.0878
 4047SOL     OW13039   1.882   4.587   4.709  0.2763  0.1537 -0.3709
 4047SOL    HW113040   1.850   4.497   4.680 -0.5142  0.8891 -1.8972
 4047SOL    HW213041   1.982   4.590   4.706  0.3291 -0.7932  0.1171
 4048SOL     OW13042   5.408   3.820   2.714  0.0253 -0.4855 -0.0732
 4048SOL    HW113043   5.421   3.919   2.709  0.1808 -0.5098 -0.1351
 4048SOL    HW213044   5.487   3.774   2.674  0.4182 -0.6507  0.8644
 4049SOL     OW13045   3.857   3.587   2.604  0.1106 -0.3622  0.2877
 4049SOL    HW113046   3.800   3.583   2.686  0.5974 -1.1399  0.5891
 4049SOL    HW213047   3.840   3.507   2.547  0.8035 -0.5383  0.3186
 4050SOL     OW13048   1.075   6.118   1.955  0.3372 -0.2196  0.0749
 4050SOL    HW113049   1.172   6.102   1.937  0.1404  0.4511 -1.8091
 4050SOL    HW213050   1.051   6.080   2.044  2.2342 -0.7290  0.4160
 4051SOL     OW13051   6.255   5.939   2.374 -0.0376 -0.3096  0.0936
 4051SOL    HW113052   6.207   5.927   2.287 -0.5892  1.9679  0.0148
 4051SOL    HW213053   6.348   5.902   2.367 -0.5129 -1.3256 -1.0264
 4052SOL     OW13054   4.757   0.244   5.069  0.0891 -0.1627 -0.4917
 4052SOL    HW113055   4.811   0.231   5.153  1.8751  1.1747 -1.3541
 4052SOL    HW213056   4.669   0.286   5.092  0.4449 -0.0473  0.7481
 4053SOL     OW13057   1.810   4.536   0.743 -0.0965  0.1938 -0.1017
 4053SOL    HW113058   1.724   4.544   0.794 -1.4300 -0.0640 -2.1976
 4053SOL    HW213059   1.803   4.586   0.657  1.5839 -0.4600 -0.6620
 4054SOL     OW13060   5.029   3.644   2.809 -0.1876 -0.5598 -0.4352
 4054SOL    HW113061   5.067   3.559   2.773  2.1518  0.7827 -1.3698
 4054SOL    HW213062   5.103   3.700   2.846 -1.6555  1.1345  0.0451
 4055SOL     OW13063   6.247   5.725   0.682 -0.1730 -0.1997 -0.1796
 4055SOL    HW113064   6.293   5.687   0.761  0.5219  1.0546  0.0363
 4055SOL    HW213065   6.304   5.713   0.600 -0.5454 -0.8004 -0.3566
 4056SOL     OW13066   4.157   5.413   0.507 -0.2354  0.0178 -0.1025
 4056SOL    HW113067   4.158   5.325   0.461 -2.2711 -0.2968  0.3621
 4056SOL    HW213068   4.239   5.465   0.483  1.6874 -2.4984  0.6860
 4057SOL     OW13069   6.432   4.899   6.637 -0.0502 -0.9860  0.2568
 4057SOL    HW113070   6.496   4.822   6.643 -1.4709 -2.2500 -0.1562
 4057SOL    HW213071   6.383   4.908   6.723  1.9490  1.2188  1.2863
 4058SOL     OW13072   3.793   0.005   4.527 -0.3917 -0.0086  0.0472
 4058SOL    HW113073   3.828   0.096   4.507 -1.4732  0.4962  0.4373
 4058SOL    HW213074   3.719  -0.018   4.464  0.5742 -1.0699 -0.7615
 4059SOL     OW13075   2.127   0.257   3.070 -0.2969  0.5797 -0.1295
 4059SOL    HW113076   2.157   0.241   2.976  1.7246 -0.1148  0.5881
 4059SOL    HW213077   2.204   0.244   3.132 -1.4808  1.5001  1.5960
 4060SOL     OW13078   6.260   5.847   3.871 -0.3493 -0.3501  1.0860
 4060SOL    HW113079   6.329   5.918   3.861 -1.5905  0.7758  0.2144
 4060SOL    HW213080   6.284   5.770   3.812 -1.5535  1.4714 -2.0112
 4061SOL     OW13081   2.304   4.425   2.170 -0.0388  0.0012  0.3028
 4061SOL    HW113082   2.250   4.510   2.164 -0.1937 -0.0699  0.6560
 4061SOL    HW213083   2.397   4.442   2.139  0.4242  0.7352  1.9839
 4062SOL     OW13084   2.483   3.748   1.464 -0.1382 -0.6823 -0.6750
 4062SOL    HW113085   2.419   3.678   1.497  0.8728 -0.8126  1.1282
 4062SOL    HW213086   2.571   3.737   1.510  0.4033  1.0756 -1.2154
 4063SOL     OW13087   4.914   6.422   1.376 -0.0805 -0.1051  0.1423
 4063SOL    HW113088   4.964   6.410   1.461 -0.3090  0.6377  0.3842
 4063SOL    HW213089   4.816   6.416   1.393 -0.1196 -0.2639 -0.1204
 4064SOL     OW13090   0.635   6.900   4.233  0.3081  0.2074  0.0503
 4064SOL    HW113091   0.594   6.977   4.185  1.1351  0.5694 -0.1082
 4064SOL    HW213092   0.712   6.864   4.179  0.6541  0.0109  0.6569
 4065SOL     OW13093   3.880   1.896   0.053  0.0028  0.4140 -0.0794
 4065SOL    HW113094   3.806   1.834   0.029 -0.2482  1.4519 -2.2513
 4065SOL    HW213095   3.867   1.930   0.146 -1.3533 -0.6299  0.1433
 4066SOL     OW13096   5.390   3.871   3.936 -0.2122 -0.0281  0.6740
 4066SOL    HW113097   5.304   3.905   3.897  0.9347  0.4290 -1.6711
 4066SOL    HW213098   5.412   3.923   4.018 -0.0690  2.9571 -1.0960
 4067SOL     OW13099   4.783   3.433   1.176 -0.1244  0.7043  0.0209
 4067SOL    HW113100   4.716   3.508   1.183  0.0088  0.9410 -1.0388
 4067SOL    HW213101   4.847   3.439   1.252 -0.9731  0.8107  0.7412
 4068SOL     OW13102   4.079   1.477   5.316  0.7286  0.7535 -0.4109
 4068SOL    HW113103   4.010   1.441   5.254  1.5405  1.6174 -1.8555
 4068SOL    HW213104   4.167   1.434   5.295  1.2185  1.8118 -0.5647
 4069SOL     OW13105   5.244   1.392   5.714 -0.2537 -0.4325 -0.5694
 4069SOL    HW113106   5.258   1.483   5.752 -1.2748 -1.2729  2.0518
 4069SOL    HW213107   5.168   1.347   5.760 -1.5188 -1.7064 -3.6000
 4070SOL     OW13108   1.732   5.149   5.062 -0.0115 -0.2539 -0.0897
 4070SOL    HW113109   1.732   5.221   4.992 -0.7122  0.0876  0.2502
 4070SOL    HW213110   1.645   5.098   5.058  0.3949 -0.9507 -0.1915
 4071SOL     OW13111   6.743   1.663   5.340 -0.5086 -0.8287 -0.1278
 4071SOL    HW113112   6.802   1.585   5.364  0.8308 -0.3195 -1.5283
 4071SOL    HW213113   6.693   1.641   5.256  0.9681  0.2612 -1.3679
 4072SOL     OW13114   2.149   5.390   1.963 -0.7423 -0.5222  0.0150
 4072SOL    HW113115   2.240   5.427   1.981 -1.1591  0.8860 -0.6479
 4072SOL    HW213116   2.120   5.333   2.040  0.9725 -1.5882 -0.0667
 4073SOL     OW13117   4.075   4.501   6.799  0.4558  0.3447  0.4502
 4073SOL    HW113118   4.149   4.478   6.737  1.4458 -0.9340  2.0113
 4073SOL    HW213119   4.064   4.600   6.805  0.9266  0.5003 -1.0331
 4074SOL     OW13120   0.072   4.611   1.538  0.3713 -0.6705  0.2848
 4074SOL    HW113121   0.052   4.636   1.633 -0.3626 -0.8065  0.1722
 4074SOL    HW213122   0.154   4.659   1.507 -1.2254  2.0016 -0.0751
 4075SOL     OW13123   2.518   0.340   6.944  0.2500 -0.2045 -0.1026
 4075SOL    HW113124   2.426   0.325   6.908 -0.2110  1.6772  0.1717
 4075SOL    HW213125   2.514   0.343   7.044  0.1084  2.2757 -0.1097
 4076SOL     OW13126   3.858   5.355   2.598  0.4511 -0.1293  0.3586
 4076SOL    HW113127   3.927   5.426   2.585  1.0684 -0.5755  1.1508
 4076SOL    HW213128   3.769   5.398   2.612  1.2035  0.6512  3.4321
 4077SOL     OW13129   2.781   2.543   1.578 -0.4401  0.2680 -0.2768
 4077SOL    HW113130   2.858   2.529   1.515  1.2714 -0.0284  1.7660
 4077SOL    HW213131   2.765   2.459   1.630  0.5959  1.5001  2.1785
 4078SOL     OW13132   5.789   4.898   2.998  0.2056  0.2855 -0.4001
 4078SOL    HW113133   5.856   4.959   2.955  1.0531  0.0757  0.5767
 4078SOL    HW213134   5.793   4.909   3.097 -0.2542 -0.7117 -0.2625
 4079SOL     OW13135   2.606   4.542   3.601  0.1947 -0.2689  0.5130
 4079SOL    HW113136   2.589   4.515   3.506  0.5661  0.8741  0.1159
 4079SOL    HW213137   2.673   4.616   3.604 -0.0583 -0.0665  1.6515
 4080SOL     OW13138   6.460   1.867   3.895  0.6428 -0.4120 -0.0605
 4080SOL    HW113139   6.556   1.876   3.922  0.3433  1.8112  0.4482
 4080SOL    HW213140   6.403   1.914   3.962 -1.1795 -4.3038  1.4377
 4081SOL     OW13141   4.701   2.406   1.539  0.4152 -0.4874 -0.3965
 4081SOL    HW113142   4.716   2.337   1.610  0.3662  0.0291  0.1199
 4081SOL    HW213143   4.785   2.459   1.526 -0.5318  1.7678  1.8178
 4082SOL     OW13144   1.900   4.239   1.989 -0.4109  0.6098  0.1925
 4082SOL    HW113145   1.851   4.204   2.070  0.1510 -0.9745 -0.1144
 4082SOL    HW213146   1.870   4.188   1.908  0.8011  0.4863 -0.1970
 4083SOL     OW13147   6.426   2.859   5.401 -0.3237  0.8654 -0.0975
 4083SOL    HW113148   6.444   2.784   5.464  0.4453  0.8720 -0.3056
 4083SOL    HW213149   6.450   2.832   5.308  1.0207  1.7233 -0.0306
 4084SOL     OW13150   3.284   1.039   4.466 -0.4596  0.7105  0.1905
 4084SOL    HW113151   3.265   1.111   4.400 -0.4585  0.1387 -0.4463
 4084SOL    HW213152   3.252   0.951   4.430  0.1137  0.2943  0.6712
 4085SOL     OW13153   3.327   4.508   5.330  0.3507  0.5953  0.2508
 4085SOL    HW113154   3.317   4.428   5.271 -0.6156  0.9533 -0.0914
 4085SOL    HW213155   3.313   4.482   5.425  1.9512  0.0069  0.3622
 4086SOL     OW13156   6.656   3.082   2.796  0.4678 -0.3221 -0.6302
 4086SOL    HW113157   6.700   3.152   2.852  0.7355 -0.1390 -1.0645
 4086SOL    HW213158   6.710   3.066   2.713 -0.4527  0.1462 -1.3360
 4087SOL     OW13159   1.343   0.556   0.599 -0.1706 -0.5836  0.9071
 4087SOL    HW113160   1.274   0.484   0.597 -2.1349  1.1644 -1.8469
 4087SOL    HW213161   1.304   0.638   0.642  0.8597 -0.1462  1.0234
 4088SOL     OW13162   1.533   1.328   4.373 -0.0813  0.0033  0.5110
 4088SOL    HW113163   1.441   1.353   4.343  0.1139 -0.8263 -0.8489
 4088SOL    HW213164   1.597   1.400   4.346 -0.2206  0.2550  0.8432
 4089SOL     OW13165   0.848   3.040   6.171  0.1053 -0.1506 -0.3313
 4089SOL    HW113166   0.866   2.947   6.139 -0.3444 -0.7852  1.1932
 4089SOL    HW213167   0.755   3.067   6.143 -0.2518 -0.6652  0.3247
 4090SOL     OW13168   2.884   5.785   0.319 -0.0232  0.0909  0.3240
 4090SOL    HW113169   2.914   5.700   0.275 -2.9419 -1.4727  1.1269
 4090SOL    HW213170   2.848   5.848   0.250 -1.6285 -1.0445  0.0834
 4091SOL     OW13171   6.236   6.446   1.148  0.4265  0.0376 -0.4067
 4091SOL    HW113172   6.275   6.526   1.101  0.4580  0.6989  0.7098
 4091SOL    HW213173   6.289   6.428   1.231 -0.3111 -0.4170 -0.0293
 4092SOL     OW13174   2.813   1.146   1.004  0.4753 -0.1293 -0.0142
 4092SOL    HW113175   2.870   1.072   0.969  1.0805  1.6251 -3.1643
 4092SOL    HW213176   2.725   1.145   0.957  0.4213  0.9779  0.0312
 4093SOL     OW13177   2.038   0.312   3.745  0.3527 -0.4148 -0.0537
 4093SOL    HW113178   2.066   0.228   3.791 -1.8235 -0.2278  1.7948
 4093SOL    HW213179   1.969   0.291   3.676  1.3973 -0.3531 -1.1378
 4094SOL     OW13180   3.089   3.249   6.812 -0.1058 -0.3778  0.0913
 4094SOL    HW113181   3.077   3.347   6.826 -1.6531 -0.8216  2.4792
 4094SOL    HW213182   3.062   3.225   6.719  1.0838  1.5354 -0.8034
 4095SOL     OW13183   2.188   3.842   5.262  0.0993  0.3108 -0.1629
 4095SOL    HW113184   2.107   3.887   5.225 -0.0298  0.7892  0.6662
 4095SOL    HW213185   2.268   3.900   5.247  0.2371 -0.0010 -0.6660
 4096SOL     OW13186   4.588   5.945   2.039  0.8461  0.3025 -0.1153
 4096SOL    HW113187   4.547   5.951   1.948 -0.6965  2.7944  0.6473
 4096SOL    HW213188   4.521   5.909   2.104  1.2340  0.5160  0.4152
 4097SOL     OW13189   3.194   3.772   3.296  0.4247  0.5513 -0.5118
 4097SOL    HW113190   3.192   3.856   3.243 -0.6788  0.8959  0.0526
 4097SOL    HW213191   3.101   3.736   3.305  1.0787 -2.0585 -2.8155
 4098SOL     OW13192   1.620   2.908   2.427 -0.4965 -0.0326 -0.4234
 4098SOL    HW113193   1.616   2.842   2.351  2.4323  0.5351 -1.1830
 4098SOL    HW213194   1.713   2.942   2.437 -1.4880  2.4657  1.3156
 4099SOL     OW13195   3.584   4.930   6.363 -0.0459  0.0031  0.2164
 4099SOL    HW113196   3.676   4.913   6.397  1.2846 -0.2785 -3.1604
 4099SOL    HW213197   3.586   5.010   6.302 -2.1872  0.3459  0.5305
 4100SOL     OW13198   1.447   0.703   0.097 -0.1787  0.0753 -0.4014
 4100SOL    HW113199   1.490   0.778   0.046  1.1790  0.4884  1.2484
 4100SOL    HW213200   1.480   0.704   0.192 -0.3848 -2.4351 -0.2375
 4101SOL     OW13201   4.780   1.436   5.579 -0.0669 -0.4864 -0.0678
 4101SOL    HW113202   4.775   1.382   5.663  1.0500 -0.0803  0.2769
 4101SOL    HW213203   4.715   1.513   5.585 -1.0271 -1.2659 -0.1952
 4102SOL     OW13204   5.377   1.803   6.890 -0.9307  0.6406  1.0992
 4102SOL    HW113205   5.365   1.707   6.868  1.3890  0.5295  0.0224
 4102SOL    HW213206   5.391   1.813   6.989 -1.3340 -0.0986  1.2375
 4103SOL     OW13207   6.418   0.772   2.322  0.5989 -0.1506 -0.0807
 4103SOL    HW113208   6.517   0.788   2.319  0.5604  0.2165  0.3649
 4103SOL    HW213209   6.392   0.708   2.250  1.5090 -2.0543  1.1827
 4104SOL     OW13210   2.550   4.526   1.110 -0.0533  0.2970  0.2978
 4104SOL    HW113211   2.581   4.436   1.143  0.1445  0.5109  0.6975
 4104SOL    HW213212   2.630   4.584   1.093 -0.1794  0.3798 -0.0168
 4105SOL     OW13213   4.272   3.870   0.875  0.2921 -0.2071  0.6675
 4105SOL    HW113214   4.314   3.806   0.811 -0.0092 -0.3283  0.5889
 4105SOL    HW213215   4.297   3.963   0.849  0.3474 -0.2660  0.5028
 4106SOL     OW13216   6.945   5.202   3.581  0.1448 -0.0674  0.0895
 4106SOL    HW113217   6.962   5.235   3.674  1.1551  1.8064 -0.7219
 4106SOL    HW213218   7.028   5.162   3.544  0.0574  0.1944 -0.3974
 4107SOL     OW13219   6.078   1.368   1.109 -0.7211  0.0242  0.2264
 4107SOL    HW113220   5.991   1.329   1.077  0.7799 -3.0095 -0.6084
 4107SOL    HW213221   6.134   1.393   1.030 -0.0236 -0.0568  0.6836
 4108SOL     OW13222   5.421   3.340   4.785  0.0508  0.1088 -0.0096
 4108SOL    HW113223   5.492   3.293   4.732 -1.4403 -0.8738 -1.2018
 4108SOL    HW213224   5.421   3.305   4.879  0.9548 -0.0564 -0.0614
 4109SOL     OW13225   1.580   6.368   3.045  0.1500  0.4627  0.7286
 4109SOL    HW113226   1.577   6.290   2.982  1.7855  0.6068  0.4270
 4109SOL    HW213227   1.540   6.448   3.000 -0.2235  0.1585  0.5083
 4110SOL     OW13228   5.864   1.298   0.330 -0.3771 -0.1664  0.0693
 4110SOL    HW113229   5.937   1.325   0.392 -0.9725  1.4647  0.1003
 4110SOL    HW213230   5.790   1.365   0.335 -2.0806 -2.0008  0.3546
 4111SOL     OW13231   4.366   3.194   5.723 -0.1832 -0.2537  0.4366
 4111SOL    HW113232   4.312   3.239   5.794  0.2601  1.1819 -0.0998
 4111SOL    HW213233   4.405   3.109   5.759 -0.3728  0.1976  1.7377
 4112SOL     OW13234   3.376   6.616   4.618 -0.2673  0.2164  0.1313
 4112SOL    HW113235   3.337   6.680   4.685 -2.0186 -0.3440 -0.3129
 4112SOL    HW213236   3.308   6.548   4.594  1.2113 -1.1773 -0.2539
 4113SOL     OW13237   3.190   6.437   4.888  0.3206 -0.7298 -0.7300
 4113SOL    HW113238   3.160   6.489   4.968 -2.6591  1.0867 -2.8473
 4113SOL    HW213239   3.176   6.339   4.905 -1.3487 -0.3106  0.5721
 4114SOL     OW13240   1.956   6.631   4.712  0.4441 -0.1270  0.9329
 4114SOL    HW113241   2.023   6.671   4.775  1.2368  3.0142 -1.6740
 4114SOL    HW213242   1.882   6.696   4.696 -0.9839 -1.8026  0.3580
 4115SOL     OW13243   5.276   4.431   3.412 -0.6295  0.0486  0.2459
 4115SOL    HW113244   5.190   4.474   3.436 -0.5181 -0.2614  1.2288
 4115SOL    HW213245   5.348   4.461   3.475  0.1806  0.9274 -1.0347
 4116SOL     OW13246   2.154   0.809   2.895  0.1429  0.7868  0.1024
 4116SOL    HW113247   2.163   0.716   2.859  0.0586  1.0016 -0.4807
 4116SOL    HW213248   2.235   0.832   2.949 -0.4115 -0.0981  1.3501
 4117SOL     OW13249   0.945   4.763   2.998 -0.0864  0.4123 -0.7746
 4117SOL    HW113250   0.901   4.680   3.033 -0.4690  1.3084  1.0047
 4117SOL    HW213251   1.006   4.801   3.068  3.4092 -0.5804 -2.9949
 4118SOL     OW13252   0.939   6.961   0.740  0.5881 -0.1556 -0.4352
 4118SOL    HW113253   0.965   6.901   0.816  2.8949 -0.1806 -1.1820
 4118SOL    HW213254   0.886   7.039   0.776  2.2478  0.2274  1.3307
 4119SOL     OW13255   0.689   6.759   3.600 -0.1180  0.2900 -0.4259
 4119SOL    HW113256   0.630   6.806   3.534 -1.4686 -0.5869  0.1197
 4119SOL    HW213257   0.665   6.662   3.603  1.7332 -0.2049 -0.5569
 4120SOL     OW13258   4.180   0.612   5.982  0.5338 -0.6712  0.3050
 4120SOL    HW113259   4.118   0.654   5.916  0.9082 -3.6214 -2.1312
 4120SOL    HW213260   4.134   0.603   6.070 -0.6112  1.7910  0.0348
 4121SOL     OW13261   5.987   1.844   4.827 -1.0440  0.2564  0.6622
 4121SOL    HW113262   6.023   1.785   4.754 -1.0888 -0.1401  0.9541
 4121SOL    HW213263   6.001   1.799   4.915 -1.0289  0.7141  0.8969
 4122SOL     OW13264   3.277   6.183   0.413 -0.1134 -0.0683 -0.3506
 4122SOL    HW113265   3.304   6.257   0.351 -0.7243 -0.0714 -0.6269
 4122SOL    HW213266   3.178   6.182   0.422  0.0048  0.5716  1.4172
 4123SOL     OW13267   3.002   3.797   4.482  0.5558  0.5055  0.4623
 4123SOL    HW113268   2.994   3.737   4.403 -0.2667  0.7506  0.3456
 4123SOL    HW213269   2.969   3.748   4.563  1.0711  0.3749  0.5988
 4124SOL     OW13270   4.720   0.904   2.289  0.5110 -0.5003 -0.1103
 4124SOL    HW113271   4.736   1.001   2.273  2.4495 -0.7435  0.0695
 4124SOL    HW213272   4.631   0.878   2.251  0.2388  1.1975 -0.7251
 4125SOL     OW13273   3.702   1.194   0.729  0.1302 -0.0870  0.3105
 4125SOL    HW113274   3.615   1.239   0.749 -0.7503 -1.4763 -0.2612
 4125SOL    HW213275   3.689   1.095   0.730  1.5517 -0.3056 -0.5033
 4126SOL     OW13276   1.305   3.453   3.221  0.5223 -0.1897  0.7673
 4126SOL    HW113277   1.308   3.476   3.318 -0.5249  1.0951  0.5219
 4126SOL    HW213278   1.210   3.459   3.188  0.3600 -3.4392  0.2878
 4127SOL     OW13279   5.547   4.452   6.051  0.2781 -0.1777 -0.4586
 4127SOL    HW113280   5.556   4.466   6.150 -1.4777  1.2033 -0.4307
 4127SOL    HW213281   5.624   4.495   6.004  0.6250  0.0039  0.2595
 4128SOL     OW13282   0.065   1.597   1.488 -0.4685 -0.1307 -0.0670
 4128SOL    HW113283   0.024   1.640   1.407 -0.9136 -0.4093  0.0085
 4128SOL    HW213284   0.012   1.517   1.514 -0.4508  0.0758  0.6292
 4129SOL     OW13285   0.242   4.514   6.035  0.1105 -0.1120 -0.0186
 4129SOL    HW113286   0.234   4.598   5.981  1.2947 -0.8265 -1.3760
 4129SOL    HW213287   0.161   4.458   6.022  0.3996 -0.2935 -1.1365
 4130SOL     OW13288   4.482   2.469   3.725 -0.4640 -0.3706  0.3855
 4130SOL    HW113289   4.542   2.537   3.767  0.6263 -0.9599 -0.1650
 4130SOL    HW213290   4.405   2.449   3.786 -1.5182  2.2478  0.0314
 4131SOL     OW13291   6.986   3.513   2.250 -0.4829 -0.3023 -0.2087
 4131SOL    HW113292   7.010   3.416   2.250 -0.8725 -0.3969 -0.2899
 4131SOL    HW213293   6.961   3.541   2.158  3.3506  0.7970 -1.1218
 4132SOL     OW13294   3.815   1.486   4.279 -0.2216 -0.1884 -0.6164
 4132SOL    HW113295   3.823   1.446   4.371 -0.4884 -0.3406 -0.6588
 4132SOL    HW213296   3.901   1.472   4.230  0.0528  0.2222 -0.2596
 4133SOL     OW13297   3.207   3.568   0.603  0.0142 -0.1217 -0.4099
 4133SOL    HW113298   3.276   3.496   0.594 -0.0702 -0.2326 -0.1775
 4133SOL    HW213299   3.144   3.544   0.676  0.8839  0.9125  0.7297
 4134SOL     OW13300   1.839   1.995   6.019  0.0370 -0.8061  0.0825
 4134SOL    HW113301   1.898   2.023   5.943 -0.3053 -0.0670  0.0885
 4134SOL    HW213302   1.765   2.061   6.031 -2.2973 -2.9214 -1.5078
 4135SOL     OW13303   1.159   1.649   6.090 -0.5592  0.4729 -0.0849
 4135SOL    HW113304   1.219   1.685   6.019 -0.5248 -0.2976 -0.4544
 4135SOL    HW213305   1.208   1.579   6.143 -1.3578 -0.7601 -0.9126
 4136SOL     OW13306   1.612   2.849   3.734  0.0991 -0.1854 -0.1693
 4136SOL    HW113307   1.703   2.888   3.722 -0.1421  0.5806  0.4089
 4136SOL    HW213308   1.543   2.913   3.699 -0.3270  0.1073  1.1344
 4137SOL     OW13309   3.687   2.865   4.976 -0.3684 -0.3263  0.1141
 4137SOL    HW113310   3.597   2.847   5.016 -0.2656 -0.7048  0.1814
 4137SOL    HW213311   3.752   2.885   5.049 -1.2811  4.2857 -0.0760
 4138SOL     OW13312   4.245   3.745   1.121  0.5705  0.4181  0.5028
 4138SOL    HW113313   4.183   3.794   1.183 -0.9276  0.0252 -0.6179
 4138SOL    HW213314   4.240   3.785   1.030  0.4648 -0.8561 -0.0690
 4139SOL     OW13315   3.385   2.600   1.711 -0.9758 -0.3634 -0.2977
 4139SOL    HW113316   3.289   2.604   1.736 -0.7434 -1.6345  0.9681
 4139SOL    HW213317   3.425   2.691   1.715 -1.4726 -0.1843  2.0470
 4140SOL     OW13318   3.846   2.169   3.535 -0.2435  0.4349  0.0687
 4140SOL    HW113319   3.778   2.102   3.504  1.2251 -1.0056 -0.1381
 4140SOL    HW213320   3.801   2.239   3.590 -2.1057  0.2583 -1.1478
 4141SOL     OW13321   6.871   5.450   1.370  0.2470  0.2889  0.1239
 4141SOL    HW113322   6.785   5.398   1.372  1.1300 -1.2035  0.4389
 4141SOL    HW213323   6.853   5.544   1.399 -1.3870  0.1798 -0.4104
 4142SOL     OW13324   4.741   4.381   3.891 -0.2486  0.5944  0.7411
 4142SOL    HW113325   4.721   4.319   3.816 -0.0389  0.8984  0.4281
 4142SOL    HW213326   4.701   4.471   3.871 -1.9362  0.1520  1.9186
 4143SOL     OW13327   1.623   2.133   1.752 -0.5375 -0.4285  0.0340
 4143SOL    HW113328   1.672   2.115   1.667  0.3275 -0.7571  0.5816
 4143SOL    HW213329   1.544   2.191   1.734 -2.3514 -3.1393 -1.5257
 4144SOL     OW13330   3.583   5.842   1.710 -0.3651 -0.1376  0.1691
 4144SOL    HW113331   3.542   5.870   1.623 -2.2827 -2.0572  0.3930
 4144SOL    HW213332   3.572   5.744   1.723  0.6574 -0.0415  2.2083
 4145SOL     OW13333   3.474   0.959   3.108 -0.3329 -0.8366  0.1743
 4145SOL    HW113334   3.483   1.004   3.019 -1.7341 -0.5502  0.1531
 4145SOL    HW213335   3.439   1.025   3.175  0.5574 -1.0913  0.9161
 4146SOL     OW13336   3.253   4.562   5.789 -0.0185 -0.3383  0.1679
 4146SOL    HW113337   3.251   4.515   5.700  1.1932 -1.4547  0.7003
 4146SOL    HW213338   3.162   4.596   5.811 -0.2175  0.6095 -1.8266
 4147SOL     OW13339   2.671   1.186   5.710  0.3596 -0.4387  0.8681
 4147SOL    HW113340   2.667   1.224   5.618  1.4232 -2.1777  0.0543
 4147SOL    HW213341   2.766   1.167   5.735  0.0973  0.0630  2.3757
 4148SOL     OW13342   0.489   0.306   3.104  0.3097 -0.0312  0.0288
 4148SOL    HW113343   0.440   0.393   3.103  0.3225 -0.0099 -1.7766
 4148SOL    HW213344   0.473   0.260   3.192 -1.0358  1.0215  0.3757
 4149SOL     OW13345   4.916   4.148   1.628  0.1428 -0.4461 -0.4769
 4149SOL    HW113346   4.901   4.049   1.625 -0.5524 -0.3922  0.4718
 4149SOL    HW213347   5.008   4.169   1.594  0.4051 -1.4456 -0.4246
 4150SOL     OW13348   3.575   1.010   5.891  0.0237  0.4638 -0.4553
 4150SOL    HW113349   3.616   0.921   5.908  0.2996  0.9404  1.6679
 4150SOL    HW213350   3.476   1.004   5.903  0.1337  0.6168  0.5999
 4151SOL     OW13351   1.583   0.470   2.290  0.3353  0.4771  0.3700
 4151SOL    HW113352   1.523   0.486   2.369  0.5938 -0.3514  0.7531
 4151SOL    HW213353   1.530   0.426   2.217  0.5819 -0.8148  0.9352
 4152SOL     OW13354   3.441   4.013   1.462 -0.6313 -0.3218 -0.5232
 4152SOL    HW113355   3.510   3.971   1.522 -0.1258  0.9127 -0.2195
 4152SOL    HW213356   3.350   3.982   1.490 -0.4552  0.6612  1.2697
 4153SOL     OW13357   5.441   1.006   0.447  0.1407  0.4530 -0.1508
 4153SOL    HW113358   5.370   1.018   0.515 -0.4120  0.7299 -0.7653
 4153SOL    HW213359   5.412   0.937   0.380 -0.0075  1.3220 -0.9970
 4154SOL     OW13360   5.671   2.212   3.513 -0.2382  0.4332  0.0260
 4154SOL    HW113361   5.649   2.134   3.572 -1.2430  2.0524  1.9344
 4154SOL    HW213362   5.665   2.296   3.567 -3.1238  2.2578 -2.7726
 4155SOL     OW13363   0.165   3.064   0.971  0.3178  0.2652  0.5597
 4155SOL    HW113364   0.232   3.091   1.039  0.2070  1.5614  0.1927
 4155SOL    HW213365   0.207   3.066   0.880 -0.0235  0.3525  0.4023
 4156SOL     OW13366   3.767   2.129   3.820  0.2706 -0.0301 -0.0330
 4156SOL    HW113367   3.785   2.040   3.863  1.1661 -0.4134 -1.1579
 4156SOL    HW213368   3.671   2.133   3.792  0.1587 -0.5401  0.2528
 4157SOL     OW13369   5.572   0.109   4.031 -0.8592 -0.3903 -0.0980
 4157SOL    HW113370   5.534   0.021   4.056 -0.1901  0.0992  3.1024
 4157SOL    HW213371   5.511   0.156   3.968 -1.7222 -2.6845 -1.0252
 4158SOL     OW13372   0.021   0.903   3.406 -0.3800 -0.1474 -0.3285
 4158SOL    HW113373   0.093   0.924   3.472 -0.5688 -1.5580  0.3508
 4158SOL    HW213374   0.011   0.980   3.342  0.4241  0.8598  0.7209
 4159SOL     OW13375   0.503   4.830   3.110  0.4710 -0.0079 -0.0465
 4159SOL    HW113376   0.413   4.869   3.128 -0.0459 -0.7012 -1.0068
 4159SOL    HW213377   0.573   4.901   3.118 -0.1877  0.6005  0.4142
 4160SOL     OW13378   5.570   1.752   0.710 -0.1826 -0.5529  0.3615
 4160SOL    HW113379   5.659   1.770   0.667 -0.5479 -0.2910 -0.2956
 4160SOL    HW213380   5.570   1.789   0.803 -0.7607  2.5776 -0.7829
 4161SOL     OW13381   4.728   0.041   1.165 -0.2405  0.7293  0.1671
 4161SOL    HW113382   4.794   0.029   1.239  0.4195  0.0858 -0.5136
 4161SOL    HW213383   4.635   0.027   1.200 -0.0798  2.2154  1.2632
 4162SOL     OW13384   1.375   5.142   3.699  0.2035  0.6530  0.2967
 4162SOL    HW113385   1.438   5.067   3.719  0.3854  1.0026  1.0843
 4162SOL    HW213386   1.341   5.181   3.785  0.6462  1.9156 -0.0706
 4163SOL     OW13387   1.888   2.299   5.721 -0.1515 -0.8194  0.4253
 4163SOL    HW113388   1.795   2.263   5.728 -0.3352 -0.4558 -0.0436
 4163SOL    HW213389   1.885   2.396   5.695  0.3399 -0.4845  1.5773
 4164SOL     OW13390   2.076   1.995   6.271  0.1404  0.1671 -0.1424
 4164SOL    HW113391   2.082   2.045   6.185 -1.0286 -0.9281 -0.9006
 4164SOL    HW213392   2.008   1.922   6.262 -1.2903  1.0922  2.2480
 4165SOL     OW13393   0.949   4.677   3.366  0.1504  1.0645  0.4243
 4165SOL    HW113394   0.910   4.629   3.287  0.9048 -2.2973  1.9066
 4165SOL    HW213395   0.878   4.695   3.434  0.0596  0.9566  0.3574
 4166SOL     OW13396   1.158   1.113   2.264  0.8902  0.2115  0.4984
 4166SOL    HW113397   1.100   1.090   2.186  3.0384  2.3804 -1.9613
 4166SOL    HW213398   1.121   1.194   2.310  0.2650 -0.3500  0.9975
 4167SOL     OW13399   1.960   2.653   0.636 -0.4177  0.1727 -0.5059
 4167SOL    HW113400   2.010   2.567   0.647 -0.6692  0.0583 -0.2516
 4167SOL    HW213401   2.025   2.727   0.620 -0.2204 -0.1229 -1.1107
 4168SOL     OW13402   2.418   6.375   0.886  0.3300  0.0863  0.2910
 4168SOL    HW113403   2.403   6.426   0.971 -0.9277  0.4910 -0.1585
 4168SOL    HW213404   2.330   6.346   0.849  0.9141 -0.6478 -0.5396
 4169SOL     OW13405   0.177   3.111   0.552 -0.2597 -0.1756  0.6748
 4169SOL    HW113406   0.233   3.044   0.504 -1.3198 -1.9766  1.8238
 4169SOL    HW213407   0.155   3.187   0.490 -0.3592 -1.6605 -1.2188
 4170SOL     OW13408   2.490   0.256   5.954 -0.2137 -0.0899  0.0026
 4170SOL    HW113409   2.499   0.220   6.047  0.6954 -0.0685 -0.0679
 4170SOL    HW213410   2.409   0.217   5.911  0.0287 -1.0298  0.3858
 4171SOL     OW13411   6.168   2.657   0.827 -0.2746 -0.1600 -0.3634
 4171SOL    HW113412   6.230   2.724   0.867 -0.9299 -0.0806  0.5614
 4171SOL    HW213413   6.210   2.616   0.746  0.6666  0.4182 -0.1803
 4172SOL     OW13414   2.198   0.790   0.191 -0.0661 -0.5554  0.6749
 4172SOL    HW113415   2.213   0.693   0.209 -0.1854 -0.6299  0.3876
 4172SOL    HW213416   2.179   0.838   0.277 -2.3440 -1.2123  0.6123
 4173SOL     OW13417   6.310   1.963   4.446  0.1219  0.5244 -0.1915
 4173SOL    HW113418   6.279   1.913   4.365  1.5209 -1.3104  0.3346
 4173SOL    HW213419   6.406   1.942   4.464  0.1010  1.6151  1.4142
 4174SOL     OW13420   4.102   1.883   1.977  0.2533 -0.2979 -0.2099
 4174SOL    HW113421   4.051   1.917   1.898 -0.9104 -0.6587  0.3585
 4174SOL    HW213422   4.195   1.860   1.949  0.5209  1.5753 -1.0064
 4175SOL     OW13423   3.183   0.479   1.797  0.2427 -0.2800 -0.2051
 4175SOL    HW113424   3.145   0.461   1.707 -0.9324 -2.2458  0.6312
 4175SOL    HW213425   3.136   0.558   1.838 -0.1254 -0.1957 -0.7845
 4176SOL     OW13426   7.020   5.327   4.243  0.0489  0.0214  1.3348
 4176SOL    HW113427   7.082   5.392   4.289  0.5231  0.3453  0.2573
 4176SOL    HW213428   6.926   5.346   4.271  0.1702  1.2395  0.9705
 4177SOL     OW13429   0.914   6.339   4.527 -0.2922 -0.7536  0.4692
 4177SOL    HW113430   0.908   6.395   4.610 -1.0782 -0.9666  0.5645
 4177SOL    HW213431   0.987   6.271   4.539  0.2102 -0.2037  0.6198
 4178SOL     OW13432   3.689   1.728   6.968  0.1526  0.6900  0.1399
 4178SOL    HW113433   3.728   1.738   6.876 -0.4506 -3.1185 -0.7049
 4178SOL    HW213434   3.592   1.753   6.966 -0.1066 -0.3139 -0.5491
 4179SOL     OW13435   0.277   3.648   0.110 -0.3616  0.1387  0.5450
 4179SOL    HW113436   0.340   3.577   0.142  0.4611  1.4937  2.0412
 4179SOL    HW213437   0.187   3.632   0.150 -0.4658 -0.6573  0.0125
 4180SOL     OW13438   5.234   4.937   2.795 -0.1255 -0.4412 -0.4232
 4180SOL    HW113439   5.166   4.863   2.801 -2.5542  1.5306 -1.5071
 4180SOL    HW213440   5.272   4.939   2.703 -0.2379 -0.2150 -0.4649
 4181SOL     OW13441   5.961   1.123   6.113 -0.5071  0.2092 -0.2821
 4181SOL    HW113442   5.908   1.193   6.161 -1.4300 -0.1623 -0.7507
 4181SOL    HW213443   5.979   1.047   6.175 -0.6787  0.2555 -0.1737
 4182SOL     OW13444   5.665   2.371   3.779 -0.0176 -0.5451 -0.4967
 4182SOL    HW113445   5.708   2.280   3.775 -0.6689 -0.8124 -1.8559
 4182SOL    HW213446   5.694   2.417   3.863  2.2122 -1.0479 -0.9293
 4183SOL     OW13447   0.557   5.613   0.725  0.1860  0.5261 -0.5709
 4183SOL    HW113448   0.477   5.621   0.666  1.0221 -1.1851 -2.0510
 4183SOL    HW213449   0.593   5.705   0.745 -2.1228  1.3210  0.1855
 4184SOL     OW13450   4.610   2.753   5.969 -0.0389 -0.0706  0.2165
 4184SOL    HW113451   4.672   2.829   5.947 -0.8263  0.6271  0.3717
 4184SOL    HW213452   4.516   2.785   5.965 -0.6078 -1.6932 -2.6073
 4185SOL     OW13453   1.040   2.063   4.979 -0.1539 -0.3588 -0.0153
 4185SOL    HW113454   1.054   2.109   4.891  1.9193  1.4030  1.1313
 4185SOL    HW213455   0.957   2.098   5.021 -0.1517  0.1943 -0.4567
 4186SOL     OW13456   3.723   2.901   3.287  0.6866  0.5500  0.0229
 4186SOL    HW113457   3.789   2.959   3.335  0.8941  1.3607 -1.2092
 4186SOL    HW213458   3.772   2.837   3.227  0.3683  0.9251 -0.6402
 4187SOL     OW13459   4.956   4.352   6.885 -0.1085 -0.2758 -0.7836
 4187SOL    HW113460   4.879   4.314   6.833  0.4652 -0.1398 -1.7554
 4187SOL    HW213461   4.971   4.447   6.857  0.4294 -0.3061 -0.6054
 4188SOL     OW13462   5.603   5.138   3.494 -0.0258 -0.1684 -0.3275
 4188SOL    HW113463   5.593   5.227   3.450  1.5621  0.4903  0.5574
 4188SOL    HW213464   5.561   5.068   3.436  2.2087  0.5776 -3.1228
 4189SOL     OW13465   1.998   2.442   4.272 -0.0610 -0.2793 -0.2661
 4189SOL    HW113466   1.974   2.357   4.224 -0.7160 -0.5700  0.5606
 4189SOL    HW213467   1.955   2.519   4.225  0.9295 -0.3297 -1.3076
 4190SOL     OW13468   3.153   5.303   2.819  0.2678 -0.2603 -0.3740
 4190SOL    HW113469   3.237   5.352   2.793  0.0871  0.0519 -0.3726
 4190SOL    HW213470   3.138   5.228   2.754 -0.5593  0.9439 -1.6272
 4191SOL     OW13471   2.699   2.164   3.244  0.2997  0.1433  0.3580
 4191SOL    HW113472   2.784   2.135   3.287  0.1403 -1.3087 -0.2483
 4191SOL    HW213473   2.714   2.176   3.146  0.0267  0.8122  0.3939
 4192SOL     OW13474   6.657   0.151   2.737 -0.2368 -0.0769 -0.1728
 4192SOL    HW113475   6.698   0.169   2.826 -1.7989  0.3276  0.4861
 4192SOL    HW213476   6.702   0.208   2.668  1.9599 -1.4265  0.0464
 4193SOL     OW13477   2.526   6.387   4.388 -0.7496 -0.0742 -0.2148
 4193SOL    HW113478   2.466   6.428   4.320 -0.4905  1.6020  0.4955
 4193SOL    HW213479   2.617   6.373   4.349  0.4717  4.1018  0.5154
 4194SOL     OW13480   6.552   6.056   2.488  0.5604  0.0555  0.0870
 4194SOL    HW113481   6.522   6.140   2.442  3.5034  0.5258 -1.2242
 4194SOL    HW213482   6.519   5.976   2.437 -0.8857  0.4426  0.4019
 4195SOL     OW13483   4.106   0.155   3.383 -0.1393 -0.0751 -0.4521
 4195SOL    HW113484   4.121   0.231   3.446  0.8675 -1.0031  0.4603
 4195SOL    HW213485   4.147   0.071   3.420 -1.1523 -1.0621 -1.4678
 4196SOL     OW13486   5.354   2.846   3.483 -0.5739  0.1933 -0.4470
 4196SOL    HW113487   5.292   2.868   3.408 -3.2052  1.5392  1.9399
 4196SOL    HW213488   5.302   2.841   3.569  2.4425 -0.1104  1.5020
 4197SOL     OW13489   6.426   6.395   5.269 -0.4565 -0.1645  0.4763
 4197SOL    HW113490   6.332   6.409   5.299  0.1662  2.0232  1.5862
 4197SOL    HW213491   6.481   6.359   5.344 -0.0677  0.0028  0.2751
 4198SOL     OW13492   0.674   4.019   5.539 -0.0248 -0.2252  0.0264
 4198SOL    HW113493   0.620   3.936   5.528  1.6869 -1.6471  1.7287
 4198SOL    HW213494   0.719   4.018   5.628  0.0030  2.6024  0.1433
 4199SOL     OW13495   3.365   3.139   5.881 -0.4459  0.0273 -0.4334
 4199SOL    HW113496   3.389   3.043   5.891 -0.0836  0.2662  1.3059
 4199SOL    HW213497   3.284   3.160   5.935 -1.1501  0.4875 -1.6341
 4200SOL     OW13498   4.389   1.110   6.298 -0.0696  0.3092  0.0820
 4200SOL    HW113499   4.333   1.030   6.275  0.4193  0.6321 -2.6461
 4200SOL    HW213500   4.378   1.132   6.395 -0.5434 -2.7772  0.8449
 4201SOL     OW13501   5.281   5.964   3.739  0.0384  0.8345 -0.1725
 4201SOL    HW113502   5.342   5.924   3.670  1.6040  2.0199  0.4628
 4201SOL    HW213503   5.328   6.039   3.785 -2.0987  2.1469  0.0198
 4202SOL     OW13504   6.722   2.393   5.085  0.2475  0.0471  0.5235
 4202SOL    HW113505   6.723   2.478   5.032  1.7823 -0.6985 -0.7529
 4202SOL    HW213506   6.629   2.373   5.116 -0.4711  1.1795 -0.8134
 4203SOL     OW13507   1.871   6.368   4.783 -0.0038 -0.2598 -0.5986
 4203SOL    HW113508   1.901   6.461   4.762 -0.7573 -0.1395 -1.2135
 4203SOL    HW213509   1.931   6.302   4.738 -0.7123 -0.0221 -1.9541
 4204SOL     OW13510   1.570   4.540   6.458  0.0189  0.2817  0.2296
 4204SOL    HW113511   1.662   4.575   6.437 -0.3590  1.2915  0.2331
 4204SOL    HW213512   1.578   4.467   6.526  0.7165  1.3872  1.3929
 4205SOL     OW13513   2.782   5.960   2.283 -0.0329  0.5919  0.8983
 4205SOL    HW113514   2.708   6.012   2.239  0.2188 -1.2535 -1.9761
 4205SOL    HW213515   2.861   6.020   2.297 -0.6704  1.6279  0.1988
 4206SOL     OW13516   4.004   5.051   2.115  0.6931  0.6794  0.7435
 4206SOL    HW113517   3.919   5.103   2.108  0.5776  0.7800  2.3907
 4206SOL    HW213518   4.031   5.045   2.211  0.2330 -2.9856  0.7988
 4207SOL     OW13519   1.478   0.116   1.119  0.3245  0.0404  0.1841
 4207SOL    HW113520   1.508   0.100   1.213  1.3579  0.3310 -0.0745
 4207SOL    HW213521   1.423   0.039   1.087 -1.6225  0.7445  1.6215
 4208SOL     OW13522   1.272   1.137   3.121  0.4886  0.1114  0.8198
 4208SOL    HW113523   1.317   1.188   3.194 -0.7178  2.4194  0.0388
 4208SOL    HW213524   1.180   1.173   3.106 -0.1173 -1.7706 -0.3718
 4209SOL     OW13525   6.852   0.066   6.095  0.5122 -0.6816  0.4283
 4209SOL    HW113526   6.753   0.067   6.105  0.4378  2.0652  0.1703
 4209SOL    HW213527   6.877   0.009   6.017 -1.0063 -0.0418 -0.5612
 4210SOL     OW13528   3.530   5.043   6.899 -0.0301 -0.6060  0.4703
 4210SOL    HW113529   3.467   4.988   6.845 -0.8927  0.2566  0.5811
 4210SOL    HW213530   3.479   5.096   6.966  0.7495  0.5124  0.2079
 4211SOL     OW13531   6.326   3.044   5.802 -0.5885 -0.0510  0.3112
 4211SOL    HW113532   6.251   3.106   5.825 -0.3596 -0.2343  1.6386
 4211SOL    HW213533   6.397   3.051   5.873 -0.2019 -1.2376  0.0504
 4212SOL     OW13534   0.326   0.561   2.262 -0.3453 -0.4630  0.1669
 4212SOL    HW113535   0.405   0.520   2.308  0.3279 -0.5794 -1.0620
 4212SOL    HW213536   0.289   0.497   2.194 -0.6732  0.1032 -0.2031
 4213SOL     OW13537   0.160   0.582   1.075  0.5051  0.2449  0.3316
 4213SOL    HW113538   0.137   0.657   1.013 -0.7978 -0.4791 -0.0986
 4213SOL    HW213539   0.202   0.619   1.158 -0.5536  1.4977  0.3423
 4214SOL     OW13540   4.020   5.848   2.442  0.3003 -0.2460 -0.2766
 4214SOL    HW113541   4.037   5.777   2.373  2.8397 -1.2335  1.2035
 4214SOL    HW213542   4.069   5.931   2.417  2.3752 -1.0378  0.8658
 4215SOL     OW13543   2.718   0.309   0.337 -0.0301  0.1943 -0.0445
 4215SOL    HW113544   2.654   0.346   0.270  0.8726  0.3422 -0.8567
 4215SOL    HW213545   2.712   0.360   0.422 -0.2921  0.8490 -0.4492
 4216SOL     OW13546   2.107   2.036   5.895  0.2954 -0.0577 -0.0465
 4216SOL    HW113547   2.119   2.113   5.957 -2.1326  0.3662 -0.0210
 4216SOL    HW213548   2.157   2.054   5.810  0.9545  0.8433  0.5115
 4217SOL     OW13549   6.604   0.092   4.478  0.3099  0.9101  0.2031
 4217SOL    HW113550   6.700   0.105   4.453  0.2292  1.8001  0.3196
 4217SOL    HW213551   6.548   0.087   4.396  0.3513  1.3145  0.1462
 4218SOL     OW13552   2.885   6.477   0.980 -0.0772 -0.5179 -0.0658
 4218SOL    HW113553   2.949   6.432   1.042  0.7546  2.7599  1.7058
 4218SOL    HW213554   2.798   6.492   1.027 -0.5228 -0.7600 -0.8001
 4219SOL     OW13555   4.610   6.783   2.314  0.1046  0.1254  0.2367
 4219SOL    HW113556   4.535   6.750   2.371  0.4766  1.3856  1.5110
 4219SOL    HW213557   4.639   6.873   2.346  1.8107 -0.0991 -0.5849
 4220SOL     OW13558   1.886   6.232   0.833  0.4078 -0.5170 -0.0293
 4220SOL    HW113559   1.817   6.229   0.904  0.6887  0.5639  0.3229
 4220SOL    HW213560   1.868   6.161   0.765 -0.0028 -1.4086  0.9805
 4221SOL     OW13561   6.956   6.453   0.922 -0.2847  0.7078 -0.0300
 4221SOL    HW113562   7.046   6.420   0.950  0.2307  1.9306 -0.2058
 4221SOL    HW213563   6.924   6.400   0.843  0.0921 -0.0045  0.2900
 4222SOL     OW13564   1.417   3.638   0.152  0.4299 -0.0508  0.4264
 4222SOL    HW113565   1.491   3.705   0.142  0.5114 -0.0711  0.8679
 4222SOL    HW213566   1.345   3.658   0.086  0.1361  0.8863  1.0199
 4223SOL     OW13567   3.647   3.166   2.761  0.3729  0.3256  0.0407
 4223SOL    HW113568   3.643   3.066   2.772  0.2343 -0.0309 -2.4892
 4223SOL    HW213569   3.743   3.195   2.758  0.4162  0.4019  1.4451
 4224SOL     OW13570   3.111   1.914   4.416 -0.0236  0.1492  0.4656
 4224SOL    HW113571   3.093   2.000   4.463  0.0725  0.1918  0.4261
 4224SOL    HW213572   3.195   1.873   4.451 -1.3908 -1.2344  2.3118
 4225SOL     OW13573   6.100   6.870   2.856 -0.3104  0.2984  0.3908
 4225SOL    HW113574   6.169   6.932   2.892 -3.0013  1.4206  4.2595
 4225SOL    HW213575   6.037   6.920   2.797 -0.2324  0.3031  0.3120
 4226SOL     OW13576   2.640   1.763   1.644  0.0500  0.2928 -0.2601
 4226SOL    HW113577   2.723   1.712   1.666  0.0733  0.9513  1.2603
 4226SOL    HW213578   2.650   1.805   1.553  0.7537 -0.8716 -0.7460
 4227SOL     OW13579   5.590   6.778   0.002 -0.7891  0.7166 -0.4922
 4227SOL    HW113580   5.543   6.863  -0.020 -2.3959 -0.0561 -0.2265
 4227SOL    HW213581   5.533   6.700  -0.024  0.7146 -0.3029 -0.8893
 4228SOL     OW13582   5.547   5.707   3.246  0.1689  0.1061  0.6677
 4228SOL    HW113583   5.470   5.762   3.278  0.1577  1.3825 -1.3507
 4228SOL    HW213584   5.631   5.760   3.255  0.2297  0.3153 -0.8219
 4229SOL     OW13585   2.387   5.814   5.004 -0.4040  0.1026 -0.1557
 4229SOL    HW113586   2.391   5.739   5.070 -0.2501 -0.0566 -0.3483
 4229SOL    HW213587   2.477   5.829   4.964 -0.3453  0.6391  0.1606
 4230SOL     OW13588   0.958   0.813   4.942  0.5753 -0.0100 -0.1837
 4230SOL    HW113589   1.032   0.832   5.007 -0.7126 -0.1391  1.3924
 4230SOL    HW213590   0.873   0.856   4.975 -0.3137 -0.8281 -1.3279
 4231SOL     OW13591   5.237   1.338   0.205 -0.7775  0.5251 -0.4046
 4231SOL    HW113592   5.290   1.263   0.166 -0.1850  1.0204 -0.5725
 4231SOL    HW213593   5.262   1.424   0.160  0.9933  1.3584  1.9375
 4232SOL     OW13594   1.789   3.520   6.183  0.3345 -0.3780  0.4352
 4232SOL    HW113595   1.848   3.600   6.195 -0.0635 -0.0853  0.4764
 4232SOL    HW213596   1.753   3.520   6.090  1.7731 -1.5101 -0.1517
 4233SOL     OW13597   4.284   3.474   1.046 -0.0697 -0.1955 -0.0410
 4233SOL    HW113598   4.326   3.448   1.133 -1.1872  0.5340  0.7535
 4233SOL    HW213599   4.268   3.573   1.045 -0.5986 -0.2761 -0.8417
 4234SOL     OW13600   1.610   4.879   5.828  0.3207  0.2296  0.1736
 4234SOL    HW113601   1.657   4.828   5.901  0.8322  0.2691 -0.1268
 4234SOL    HW213602   1.587   4.970   5.862  0.5409  0.2422  0.2964
 4235SOL     OW13603   0.265   4.193   4.541  0.6178 -0.0206  0.3498
 4235SOL    HW113604   0.176   4.235   4.555  0.7151  0.2499  0.1638
 4235SOL    HW213605   0.317   4.196   4.627  0.9151  0.9334  0.1460
 4236SOL     OW13606   6.560   1.621   3.836 -0.2165  0.6276 -0.4834
 4236SOL    HW113607   6.606   1.589   3.919 -0.6926  0.4267 -0.2954
 4236SOL    HW213608   6.514   1.707   3.854 -2.9928 -0.9061  0.4008
 4237SOL     OW13609   4.776   5.106   5.875  0.0222  0.3882 -0.7711
 4237SOL    HW113610   4.837   5.176   5.837  2.0675 -0.1934  1.2175
 4237SOL    HW213611   4.803   5.016   5.841  0.0279  0.1713 -0.2122
 4238SOL     OW13612   5.404   4.308   4.696  0.0393  1.2744 -0.1573
 4238SOL    HW113613   5.310   4.275   4.681  0.0989  1.4072 -0.8817
 4238SOL    HW213614   5.408   4.405   4.673  0.0017  1.6625  1.3905
 4239SOL     OW13615   1.142   4.382   3.865 -0.4990 -0.0541 -0.3625
 4239SOL    HW113616   1.069   4.443   3.896  3.0673  4.2658  0.5383
 4239SOL    HW213617   1.188   4.342   3.945 -0.1629 -0.5406 -0.7925
 4240SOL     OW13618   1.952   3.129   0.699 -0.1296  0.2996  0.1100
 4240SOL    HW113619   2.052   3.121   0.693 -0.1619 -0.5332  0.5744
 4240SOL    HW213620   1.911   3.097   0.614 -0.0323 -0.0058  0.1782
 4241SOL     OW13621   1.206   3.173   5.882  0.7839 -0.1059 -0.1154
 4241SOL    HW113622   1.292   3.222   5.882  1.1050 -0.6596 -0.2314
 4241SOL    HW213623   1.167   3.174   5.790  0.5486  0.3382 -0.0147
 4242SOL     OW13624   4.338   6.528   1.614  0.9155  0.1933 -0.1118
 4242SOL    HW113625   4.311   6.436   1.585  1.4349 -0.3238  0.9950
 4242SOL    HW213626   4.257   6.580   1.639  0.6771 -0.2139 -0.0217
 4243SOL     OW13627   2.429   1.373   2.441  0.2517  0.4540 -0.1507
 4243SOL    HW113628   2.433   1.356   2.539  1.4197  0.8338 -0.1243
 4243SOL    HW213629   2.434   1.471   2.423 -0.3440  0.4148 -0.5791
 4244SOL     OW13630   2.820   0.803   0.770  0.0088 -0.6910  0.0919
 4244SOL    HW113631   2.748   0.786   0.702 -0.7821 -0.3005  0.8020
 4244SOL    HW213632   2.789   0.770   0.859  0.2258  0.5279  0.6382
 4245SOL     OW13633   0.154   1.959   2.028  0.4366 -0.6076 -0.4528
 4245SOL    HW113634   0.093   1.938   2.104  0.7716  2.9800  0.9864
 4245SOL    HW213635   0.109   2.021   1.965  2.1568  1.3122  0.1180
 4246SOL     OW13636   5.128   2.084   3.932 -0.0527  0.2985  0.0064
 4246SOL    HW113637   5.106   1.986   3.923  0.1014  0.3471 -0.9772
 4246SOL    HW213638   5.116   2.112   4.027  1.0996 -0.9730  0.5576
 4247SOL     OW13639   1.377   5.206   4.622  0.6825  0.7450 -0.4959
 4247SOL    HW113640   1.475   5.203   4.601  0.3694 -1.5689 -2.0149
 4247SOL    HW213641   1.357   5.140   4.694 -0.0388 -0.6217 -1.8807
 4248SOL     OW13642   2.261   1.314   2.707  0.7996 -0.5540 -0.5125
 4248SOL    HW113643   2.253   1.217   2.729  2.2163 -0.4206  0.6811
 4248SOL    HW213644   2.169   1.353   2.694 -0.0954 -1.0939  3.2256
 4249SOL     OW13645   0.280   1.216   4.823  0.1500  0.0351  0.1169
 4249SOL    HW113646   0.228   1.278   4.881 -0.5238  1.0245 -1.4721
 4249SOL    HW213647   0.371   1.202   4.861 -0.1966  0.8364  1.2692
 4250SOL     OW13648   0.475   5.639   5.134 -0.1487 -0.2328 -0.7120
 4250SOL    HW113649   0.501   5.544   5.148 -0.3081 -0.4513 -1.8493
 4250SOL    HW213650   0.513   5.672   5.048 -2.5783 -0.2144 -1.8731
 4251SOL     OW13651   6.397   6.396   6.782  0.1630 -0.1750  0.1733
 4251SOL    HW113652   6.476   6.363   6.730 -0.9287 -1.8585 -0.4902
 4251SOL    HW213653   6.374   6.488   6.751 -0.1108 -0.9042 -1.9980
 4252SOL     OW13654   6.906   0.653   6.715  0.3007 -0.0226 -0.1813
 4252SOL    HW113655   6.963   0.700   6.647  0.2638  1.8520  1.0302
 4252SOL    HW213656   6.858   0.577   6.670  1.1143  0.4611 -1.9881
 4253SOL     OW13657   2.114   0.887   1.247  0.5139 -0.0159 -0.0349
 4253SOL    HW113658   2.037   0.922   1.299  1.3637 -0.6998  1.7702
 4253SOL    HW213659   2.111   0.787   1.247  0.3409 -0.0354 -1.6497
 4254SOL     OW13660   1.463   2.167   4.097 -0.1676  0.3330  0.3147
 4254SOL    HW113661   1.378   2.121   4.069 -0.4778  0.6586  0.7054
 4254SOL    HW213662   1.442   2.261   4.125 -0.1172 -0.3851  3.0062
 4255SOL     OW13663   2.078   2.480   3.550  0.7602  0.8398  0.0225
 4255SOL    HW113664   2.138   2.532   3.611  0.6383  0.0311  0.8457
 4255SOL    HW213665   2.133   2.418   3.494  0.6542 -0.5537  1.4098
 4256SOL     OW13666   3.888   6.953   6.599  0.5327  0.3104  0.2805
 4256SOL    HW113667   3.962   6.897   6.561  0.8226  1.7097 -1.3183
 4256SOL    HW213668   3.800   6.908   6.583  0.5234  1.2852 -3.1221
 4257SOL     OW13669   6.492   1.258   2.814  0.7096  0.3902  0.2497
 4257SOL    HW113670   6.451   1.316   2.744 -0.3714  0.3799  0.8616
 4257SOL    HW213671   6.589   1.283   2.825  0.0560  2.7353  1.1645
 4258SOL     OW13672   2.657   0.511   1.989 -0.3814 -0.1455 -0.5669
 4258SOL    HW113673   2.586   0.446   2.013 -0.3857  0.4272  1.1276
 4258SOL    HW213674   2.731   0.464   1.942 -0.7134 -1.2284 -0.0395
 4259SOL     OW13675   1.066   1.315   1.825 -0.3764  0.7026  0.2852
 4259SOL    HW113676   1.047   1.337   1.921 -1.4507 -1.2135  0.5634
 4259SOL    HW213677   1.157   1.275   1.817 -0.5702  0.1715  0.6487
 4260SOL     OW13678   6.520   0.593   3.866 -0.4160 -0.3740 -0.1093
 4260SOL    HW113679   6.610   0.584   3.909  0.3636 -0.4823 -1.6752
 4260SOL    HW213680   6.451   0.552   3.924  0.3801  0.6282  1.6195
 4261SOL     OW13681   0.977   6.584   4.003  0.5590 -0.0139 -0.3102
 4261SOL    HW113682   0.916   6.518   3.959  0.9991 -1.1457  0.7041
 4261SOL    HW213683   1.009   6.650   3.935 -0.7660 -0.1616 -1.1221
 4262SOL     OW13684   1.333   5.217   4.341  0.1030  0.3350 -0.3081
 4262SOL    HW113685   1.292   5.297   4.298  2.3837  2.9210  1.9869
 4262SOL    HW213686   1.318   5.221   4.440  2.6743 -0.5489  0.1909
 4263SOL     OW13687   2.781   1.165   1.275  0.3327  0.1265 -0.1522
 4263SOL    HW113688   2.684   1.140   1.283 -0.3472  2.6595  0.2168
 4263SOL    HW213689   2.808   1.160   1.179  0.1121 -1.4434 -0.1579
 4264SOL     OW13690   3.719   2.679   5.936 -0.0809 -0.3078  0.1902
 4264SOL    HW113691   3.671   2.685   5.848  1.2819 -1.2677 -0.6546
 4264SOL    HW213692   3.751   2.770   5.962 -1.7536  0.2471  0.4608
 4265SOL     OW13693   0.592   5.463   5.951 -0.0614  0.1755  0.2810
 4265SOL    HW113694   0.494   5.464   5.931 -0.0633  0.6708  0.3101
 4265SOL    HW213695   0.644   5.489   5.870  0.1201 -1.2345 -0.0897
 4266SOL     OW13696   2.142   3.599   2.464  0.1058  0.8973 -0.3540
 4266SOL    HW113697   2.163   3.573   2.558  0.3962  0.8930 -0.4171
 4266SOL    HW213698   2.114   3.695   2.461  3.0317  1.8557 -0.6167
 4267SOL     OW13699   2.581   1.184   0.865 -0.3664  0.2032 -0.3541
 4267SOL    HW113700   2.554   1.220   0.955  0.2319 -0.0179 -0.0793
 4267SOL    HW213701   2.606   1.260   0.805 -1.9305  0.4427 -0.7425
 4268SOL     OW13702   6.976   4.964   4.758  0.4028 -0.3156  0.0689
 4268SOL    HW113703   7.071   4.938   4.770  0.3510 -0.3392  0.4409
 4268SOL    HW213704   6.951   5.033   4.826 -0.1843 -1.1989  0.7637
 4269SOL     OW13705   3.629   2.053   3.170  0.3782 -0.6340  0.4079
 4269SOL    HW113706   3.648   1.955   3.173 -1.1676 -0.9909 -0.7079
 4269SOL    HW213707   3.539   2.071   3.209 -0.2401  0.0784 -1.2824
 4270SOL     OW13708   3.907   3.797   0.083 -0.1816 -0.2335  0.6542
 4270SOL    HW113709   3.812   3.813   0.109 -0.0491  2.4788 -0.1953
 4270SOL    HW213710   3.944   3.879   0.040  1.6902 -2.1756 -1.7265
 4271SOL     OW13711   0.342   5.181   2.085 -0.2159  0.1461 -0.0708
 4271SOL    HW113712   0.397   5.265   2.083 -0.4072  0.3958  2.1186
 4271SOL    HW213713   0.291   5.178   2.171 -0.7265 -1.9023 -0.4105
 4272SOL     OW13714   6.532   2.272   4.372  0.0263  0.5521 -0.4221
 4272SOL    HW113715   6.623   2.252   4.336  0.0072 -0.4693  0.0497
 4272SOL    HW213716   6.535   2.271   4.472 -0.6131 -0.0286 -0.4005
 4273SOL     OW13717   3.197   6.319   4.285 -0.8079  0.2224  0.2575
 4273SOL    HW113718   3.199   6.407   4.237 -1.1844 -0.0025 -0.1852
 4273SOL    HW213719   3.248   6.326   4.371 -0.5695  0.7807  0.0730
 4274SOL     OW13720   6.017   2.001   2.230 -0.7563 -0.4067 -0.0890
 4274SOL    HW113721   5.919   2.016   2.244 -0.8083 -1.9431  1.4669
 4274SOL    HW213722   6.067   2.034   2.310  0.1259  1.1492 -1.2275
 4275SOL     OW13723   5.140   0.037   3.876  0.1644 -0.3066 -0.1702
 4275SOL    HW113724   5.086  -0.041   3.843 -0.1663  0.0278 -0.4269
 4275SOL    HW213725   5.082   0.118   3.879  0.4860 -0.0890  0.1835
 4276SOL     OW13726   1.454   0.450   1.519  0.7956  1.0223 -0.9650
 4276SOL    HW113727   1.523   0.389   1.556  0.3211  0.7608 -0.4891
 4276SOL    HW213728   1.484   0.485   1.430  0.7852 -0.4543 -1.5881
 4277SOL     OW13729   6.295   5.288   3.628 -0.2887 -0.2212  0.0365
 4277SOL    HW113730   6.289   5.222   3.554 -1.1441 -0.9465  0.7342
 4277SOL    HW213731   6.388   5.325   3.632 -0.2653 -0.0445 -1.4784
 4278SOL     OW13732   0.606   1.214   2.796  0.3257 -0.2172 -0.4422
 4278SOL    HW113733   0.616   1.123   2.757  1.2103 -1.6554  2.8401
 4278SOL    HW213734   0.689   1.268   2.775  0.1784 -0.4100 -1.6287
 4279SOL     OW13735   1.840   3.605   2.635 -0.1431 -0.3325 -0.5156
 4279SOL    HW113736   1.888   3.518   2.628 -2.5939 -2.2557  3.1386
 4279SOL    HW213737   1.742   3.589   2.643 -0.5768  2.5319  1.8598
 4280SOL     OW13738   3.066   1.872   4.998  0.2579  0.6920  0.3167
 4280SOL    HW113739   3.127   1.946   5.028 -0.5398  0.8115  1.7414
 4280SOL    HW213740   2.973   1.908   4.986 -0.0007  0.0567  0.3587
 4281SOL     OW13741   0.361   0.360   1.319  0.0595  0.2076  0.0031
 4281SOL    HW113742   0.394   0.442   1.271  1.7533 -0.2724  0.2698
 4281SOL    HW213743   0.393   0.362   1.414  0.3019 -0.8489 -0.0446
 4282SOL     OW13744   5.329   3.675   3.170 -0.2385 -0.1357 -0.2468
 4282SOL    HW113745   5.283   3.677   3.259  1.5542 -0.1568  0.7274
 4282SOL    HW213746   5.428   3.684   3.183  0.2502 -2.0064 -2.1218
 4283SOL     OW13747   1.184   3.123   5.185 -0.0535 -0.0538 -0.7296
 4283SOL    HW113748   1.232   3.169   5.110 -2.0763  0.4643 -1.7605
 4283SOL    HW213749   1.172   3.026   5.163  1.2503 -0.4101 -0.0442
 4284SOL     OW13750   3.568   0.685   2.732 -0.2182  0.5188 -0.3986
 4284SOL    HW113751   3.468   0.691   2.731 -0.4151 -1.8260 -0.4974
 4284SOL    HW213752   3.600   0.675   2.826 -0.2809 -0.9302 -0.5182
 4285SOL     OW13753   1.620   1.066   4.282 -0.1814 -0.1102 -0.2371
 4285SOL    HW113754   1.574   1.152   4.304  2.4965  1.5755 -0.8884
 4285SOL    HW213755   1.616   1.050   4.184  1.3403  0.5220 -0.4170
 4286SOL     OW13756   5.145   6.714   6.486 -0.3931 -0.0594  0.4021
 4286SOL    HW113757   5.048   6.736   6.477 -0.3716  0.4993  1.4093
 4286SOL    HW213758   5.169   6.643   6.419 -2.0465 -1.9559  1.7101
 4287SOL     OW13759   3.346   1.227   6.819 -0.2536  0.5698  0.0209
 4287SOL    HW113760   3.441   1.202   6.838 -0.2472 -1.3403 -2.1781
 4287SOL    HW213761   3.307   1.271   6.900  3.0420  3.2857  0.3503
 4288SOL     OW13762   5.902   0.337   2.729  0.0766 -0.1970 -0.3130
 4288SOL    HW113763   5.947   0.413   2.684  0.4003  1.9306  3.2757
 4288SOL    HW213764   5.804   0.357   2.740  0.3657  0.3485  1.6685
 4289SOL     OW13765   6.780   2.763   4.509 -0.2282  0.4397 -0.0130
 4289SOL    HW113766   6.748   2.680   4.463 -3.7203  1.7712 -0.3349
 4289SOL    HW213767   6.810   2.741   4.601  1.1053 -1.4414 -0.8373
 4290SOL     OW13768   1.147   5.910   3.708  0.2567 -0.8896 -0.4538
 4290SOL    HW113769   1.074   5.893   3.774 -0.4290 -1.0637 -1.2294
 4290SOL    HW213770   1.214   5.973   3.747  0.5165 -1.9354  0.8340
 4291SOL     OW13771   5.211   4.649   6.984  0.3998  0.1614  0.5934
 4291SOL    HW113772   5.302   4.624   7.015  0.7146  1.1253  0.4936
 4291SOL    HW213773   5.189   4.741   7.018 -0.1173  0.3506 -0.2290
 4292SOL     OW13774   6.683   6.684   6.671  0.5634 -0.1354  0.1162
 4292SOL    HW113775   6.763   6.710   6.617  0.1725  0.6580 -0.0893
 4292SOL    HW213776   6.603   6.736   6.641  0.2637  0.0757  1.2177
 4293SOL     OW13777   4.979   2.280   4.468  0.1538  0.2171  0.2264
 4293SOL    HW113778   4.906   2.340   4.437  0.7061  1.0294  0.4694
 4293SOL    HW213779   5.068   2.322   4.449  0.5257  0.3287  2.0514
 4294SOL     OW13780   3.385   2.432   0.398  0.0502  0.3215  0.8417
 4294SOL    HW113781   3.453   2.494   0.438  0.5539  0.5859 -0.3882
 4294SOL    HW213782   3.368   2.458   0.303 -0.7762 -0.5823  0.7280
 4295SOL     OW13783   3.868   6.469   3.299 -0.2271 -0.3964  0.0818
 4295SOL    HW113784   3.870   6.440   3.203 -1.2747 -0.0146 -0.0654
 4295SOL    HW213785   3.906   6.561   3.306 -1.9209  0.3546 -0.2711
 4296SOL     OW13786   1.406   3.186   1.858  0.3244 -1.1603 -0.3210
 4296SOL    HW113787   1.362   3.189   1.768 -0.0922 -1.2511 -0.1199
 4296SOL    HW213788   1.338   3.200   1.929  0.9669  1.2461 -0.0864
 4297SOL     OW13789   6.041   1.961   6.072  0.5547 -0.0388  0.5042
 4297SOL    HW113790   6.008   2.027   6.140  1.9507  0.8824  0.3212
 4297SOL    HW213791   6.138   1.942   6.088  0.5680 -0.8241 -0.4403
 4298SOL     OW13792   0.445   6.421   2.774 -0.0401 -0.4561 -0.4943
 4298SOL    HW113793   0.382   6.464   2.838 -0.9999 -2.3507 -0.0899
 4298SOL    HW213794   0.476   6.334   2.812  1.2974 -0.4846 -1.5673
 4299SOL     OW13795   0.457   4.041   0.886  0.4883  0.5022  0.5971
 4299SOL    HW113796   0.485   3.945   0.883  0.8895  0.6309 -0.6786
 4299SOL    HW213797   0.537   4.099   0.867  0.5575  1.1774  2.7333
 4300SOL     OW13798   3.117   6.744   3.858 -0.3518 -0.1542  0.3182
 4300SOL    HW113799   3.039   6.717   3.915  1.6314 -1.6436  2.5103
 4300SOL    HW213800   3.143   6.838   3.880 -2.9114  1.3256 -2.2360
 4301SOL     OW13801   3.039   5.551   2.621  0.3316  0.0615 -0.0220
 4301SOL    HW113802   3.077   5.463   2.594  0.5916 -0.1790  1.0715
 4301SOL    HW213803   3.014   5.549   2.718  0.9706  1.4024  0.2003
 4302SOL     OW13804   3.178   5.146   6.219  0.6206  0.0364 -0.1715
 4302SOL    HW113805   3.161   5.098   6.306 -2.1707  0.8138 -0.2018
 4302SOL    HW213806   3.131   5.098   6.145 -1.3838  2.1028 -0.3634
 4303SOL     OW13807   4.844   3.928   3.837  0.0383 -0.3092 -0.4940
 4303SOL    HW113808   4.822   3.931   3.934  0.1283  0.2844 -0.4839
 4303SOL    HW213809   4.864   3.834   3.810  0.5236 -0.4131  0.1810
 4304SOL     OW13810   1.704   4.778   1.933 -0.1292 -0.2460 -0.1412
 4304SOL    HW113811   1.791   4.827   1.930  0.1232 -0.4555  2.1999
 4304SOL    HW213812   1.703   4.707   1.863  1.4874 -0.0818 -0.3630
 4305SOL     OW13813   2.048   5.955   0.160 -0.2482  0.6493 -0.1761
 4305SOL    HW113814   1.953   5.955   0.131 -0.1483 -1.4379 -0.6665
 4305SOL    HW213815   2.057   6.006   0.246 -2.2365 -0.8978  1.0524
 4306SOL     OW13816   6.932   1.902   5.475 -0.7472 -0.4195  0.3458
 4306SOL    HW113817   6.904   1.890   5.380 -1.5433  0.8595  0.3976
 4306SOL    HW213818   6.869   1.851   5.534 -0.6240 -0.7091  0.2305
 4307SOL     OW13819   6.991   1.801   5.917  0.4005  0.2833  0.2184
 4307SOL    HW113820   6.921   1.792   5.988  1.1539 -0.7607  0.8563
 4307SOL    HW213821   6.958   1.863   5.846 -0.1866  1.7134  1.6860
 4308SOL     OW13822   5.468   5.268   0.504 -0.2829  0.5650  0.0180
 4308SOL    HW113823   5.440   5.201   0.573  1.4131 -1.0918 -0.7965
 4308SOL    HW213824   5.445   5.360   0.534 -2.4259 -0.3387  1.3364
 4309SOL     OW13825   2.901   3.066   0.569  0.2726 -0.4100  0.2728
 4309SOL    HW113826   2.926   3.011   0.489  2.1269  2.3499 -1.2231
 4309SOL    HW213827   2.876   3.006   0.645  1.4139 -3.2217 -1.4268
 4310SOL     OW13828   0.096   0.423   3.571  0.6644  0.7133 -0.3371
 4310SOL    HW113829   0.056   0.448   3.659  0.6027 -1.7754  0.4243
 4310SOL    HW213830   0.023   0.403   3.506  0.6639  0.1717 -0.1812
 4311SOL     OW13831   3.595   5.274   1.657  0.1370  0.0614  0.3296
 4311SOL    HW113832   3.571   5.177   1.657 -0.4426  0.1735 -1.4515
 4311SOL    HW213833   3.684   5.287   1.701  1.6679 -1.6839 -2.0247
 4312SOL     OW13834   5.889   3.152   3.548  0.0834  0.1027  0.1265
 4312SOL    HW113835   5.816   3.103   3.498  0.8673  0.5710 -1.5350
 4312SOL    HW213836   5.972   3.097   3.546  0.8407  1.2632 -1.3457
 4313SOL     OW13837   6.962   1.984   0.294  0.5471  0.2423 -0.4773
 4313SOL    HW113838   6.864   1.969   0.277  0.7072 -2.0726  0.2883
 4313SOL    HW213839   6.990   2.071   0.252 -1.3989  0.0495 -2.3714
 4314SOL     OW13840   2.053   2.787   5.972 -0.5299  0.3496 -0.0337
 4314SOL    HW113841   2.009   2.697   5.975 -0.4889  0.3030 -0.7300
 4314SOL    HW213842   2.139   2.784   6.022 -1.0553  0.3001  0.8978
 4315SOL     OW13843   3.791   2.737   5.497  0.1372 -0.1610  0.2161
 4315SOL    HW113844   3.695   2.742   5.467 -0.4868  0.4224  2.1310
 4315SOL    HW213845   3.813   2.643   5.521  0.1799 -0.3667 -0.5952
 4316SOL     OW13846   4.063   4.752   2.465  0.3023  0.2105 -0.2108
 4316SOL    HW113847   3.971   4.766   2.427 -0.3316 -0.3789  1.0243
 4316SOL    HW213848   4.118   4.699   2.400 -1.2290 -2.0780  0.2469
 4317SOL     OW13849   3.380   1.053   2.475  0.1525  0.2877 -0.0574
 4317SOL    HW113850   3.280   1.058   2.479  0.1203 -0.8007  1.0639
 4317SOL    HW213851   3.408   0.964   2.440  0.7374  0.7229 -0.7208
 4318SOL     OW13852   1.896   5.516   3.100  0.1979 -0.3022 -0.3621
 4318SOL    HW113853   1.856   5.427   3.121  1.3454 -1.1108 -1.4579
 4318SOL    HW213854   1.979   5.528   3.153 -0.4602  0.5571  0.5057
 4319SOL     OW13855   3.731   4.734   6.128  0.2671 -0.5708 -0.6328
 4319SOL    HW113856   3.779   4.704   6.211 -1.0643 -1.3745 -0.1165
 4319SOL    HW213857   3.635   4.752   6.150  0.1081  0.1452 -1.8189
 4320SOL     OW13858   3.668   1.357   1.396 -0.4279 -0.3103  0.6071
 4320SOL    HW113859   3.619   1.431   1.443 -2.0900 -1.0622  0.1348
 4320SOL    HW213860   3.626   1.270   1.420  0.0675 -0.8988 -0.6025
 4321SOL     OW13861   0.161   0.657   3.894  0.3147  0.0962 -0.4089
 4321SOL    HW113862   0.116   0.580   3.850 -0.6260  0.3093  0.1556
 4321SOL    HW213863   0.127   0.666   3.988 -0.6433  2.0479 -0.8956
 4322SOL     OW13864   3.093   1.599   3.230 -0.5246 -0.0464 -0.2664
 4322SOL    HW113865   3.033   1.679   3.236 -1.2690 -0.6203  0.1716
 4322SOL    HW213866   3.181   1.621   3.272 -0.0773  1.0952 -1.7077
 4323SOL     OW13867   6.880   2.270   3.594  0.3522  0.1625 -0.1037
 4323SOL    HW113868   6.877   2.173   3.574 -0.6403  0.5767 -2.2136
 4323SOL    HW213869   6.863   2.323   3.511 -0.2722  2.1378  1.1854
 4324SOL     OW13870   4.226   5.351   0.185  0.5332 -0.1414  0.1856
 4324SOL    HW113871   4.299   5.288   0.211 -0.5940 -1.8423 -0.5829
 4324SOL    HW213872   4.150   5.300   0.146 -0.9046  1.6152  0.5241
 4325SOL     OW13873   0.215   5.674   6.574 -0.4899 -0.3936  0.4631
 4325SOL    HW113874   0.222   5.594   6.634  1.6871  0.8523  2.0163
 4325SOL    HW213875   0.307   5.708   6.553 -1.1460 -0.4160 -3.2296
 4326SOL     OW13876   5.638   4.578   2.517  0.2513  1.6121  0.6756
 4326SOL    HW113877   5.697   4.649   2.556 -0.0461  1.9564  0.5007
 4326SOL    HW213878   5.542   4.600   2.534  0.1788  0.7464  1.4819
 4327SOL     OW13879   3.712   5.796   4.682  0.1822 -0.2602  0.3335
 4327SOL    HW113880   3.752   5.718   4.730 -0.3298 -0.6082  0.2028
 4327SOL    HW213881   3.782   5.843   4.628  0.8449  0.3079  1.6349
 4328SOL     OW13882   5.573   1.284   1.929 -0.1171 -0.1980  0.1919
 4328SOL    HW113883   5.664   1.249   1.904 -0.3198  1.3959 -3.2104
 4328SOL    HW213884   5.584   1.356   1.998  1.0922 -0.6626  0.5247
 4329SOL     OW13885   6.539   3.855   6.145  0.5421 -0.4055  0.3715
 4329SOL    HW113886   6.554   3.870   6.243  1.8072  0.0802  0.1170
 4329SOL    HW213887   6.463   3.792   6.133  0.2604 -0.3449  1.6660
 4330SOL     OW13888   3.373   5.238   3.848  0.1618  0.4201 -0.1862
 4330SOL    HW113889   3.289   5.228   3.794 -0.7440 -1.0528  1.3936
 4330SOL    HW213890   3.417   5.149   3.857  0.6876  0.7802  0.8994
 4331SOL     OW13891   6.610   1.031   4.469  0.0461  0.0441  0.0878
 4331SOL    HW113892   6.590   0.934   4.457  0.6211 -0.2599  1.3817
 4331SOL    HW213893   6.649   1.068   4.385 -1.0464 -0.6014 -0.7347
 4332SOL     OW13894   6.870   5.201   1.626 -0.5950  0.3060 -0.1563
 4332SOL    HW113895   6.839   5.124   1.682  0.1252 -0.2402 -0.4918
 4332SOL    HW213896   6.846   5.287   1.671  1.1412 -0.1027  1.6791
 4333SOL     OW13897   2.886   2.512   6.008  0.4415  0.1775 -0.1909
 4333SOL    HW113898   2.836   2.426   6.020  0.5863  0.0312 -0.6191
 4333SOL    HW213899   2.958   2.518   6.077  0.6784 -0.2279 -0.3955
 4334SOL     OW13900   3.220   1.659   3.659 -0.2214 -0.3645  0.0071
 4334SOL    HW113901   3.233   1.587   3.727 -0.5283 -1.1030 -0.6883
 4334SOL    HW213902   3.209   1.617   3.568  2.7518  0.6569 -0.9433
 4335SOL     OW13903   2.680   3.176   0.525 -0.1295 -0.6412 -0.1965
 4335SOL    HW113904   2.772   3.138   0.531  0.1366 -0.0262 -0.3680
 4335SOL    HW213905   2.678   3.249   0.457 -0.8924 -1.0784 -0.6720
 4336SOL     OW13906   1.940   4.972   4.676  0.1395 -0.0951  0.0180
 4336SOL    HW113907   2.024   5.003   4.721  0.0242  0.5112 -0.1825
 4336SOL    HW213908   1.879   4.932   4.743  0.0316  0.6658  0.3823
 4337SOL     OW13909   0.277   3.834   3.625 -0.1597 -0.2380  0.2295
 4337SOL    HW113910   0.208   3.786   3.680  0.6124 -1.0241  0.5351
 4337SOL    HW213911   0.333   3.767   3.576 -0.9142  0.4442 -1.6474
 4338SOL     OW13912   3.592   2.880   4.682  0.6473 -0.0236 -0.2169
 4338SOL    HW113913   3.592   2.875   4.782  0.2002 -0.3536 -0.2286
 4338SOL    HW213914   3.662   2.818   4.645 -0.2408 -1.1038 -0.1467
 4339SOL     OW13915   3.593   3.655   3.883  0.4194 -0.6754  0.1331
 4339SOL    HW113916   3.680   3.704   3.875 -0.0028  0.3083  1.2033
 4339SOL    HW213917   3.547   3.684   3.967  0.2373 -3.0831  0.9414
 4340SOL     OW13918   0.392   4.566   6.784  0.0178  0.3193  0.0401
 4340SOL    HW113919   0.392   4.513   6.869  0.6441  0.5578  0.1972
 4340SOL    HW213920   0.299   4.595   6.762 -0.1136  0.4853  0.7898
 4341SOL     OW13921   6.079   1.620   2.246 -0.7955  0.9940  0.0062
 4341SOL    HW113922   6.166   1.668   2.236  0.3873 -0.7988  1.2125
 4341SOL    HW213923   6.091   1.523   2.225 -2.9537  1.0018 -1.6072
 4342SOL     OW13924   6.364   4.301   1.266 -0.6051 -0.0591  0.0353
 4342SOL    HW113925   6.341   4.312   1.363  0.5022 -1.3476  0.4847
 4342SOL    HW213926   6.411   4.383   1.233 -0.7174  0.2750  0.6822
 4343SOL     OW13927   5.029   5.173   0.326  0.5035 -0.3247 -0.2889
 4343SOL    HW113928   5.068   5.254   0.370 -1.9229  0.5663  0.3653
 4343SOL    HW213929   5.096   5.099   0.327  1.4557  0.4493  2.6574
 4344SOL     OW13930   2.521   4.962   2.390  0.4895  0.5397 -0.0445
 4344SOL    HW113931   2.473   4.874   2.390 -0.6707  1.1315 -0.9275
 4344SOL    HW213932   2.590   4.963   2.462 -0.0233 -0.8004  0.4968
 4345SOL     OW13933   3.037   3.861   3.568  0.1814 -0.1036  0.5873
 4345SOL    HW113934   3.104   3.927   3.535 -0.3300 -0.2597 -0.8448
 4345SOL    HW213935   2.993   3.817   3.490 -0.6192 -0.9903  1.5113
 4346SOL     OW13936   0.607   3.443   2.065 -0.4066 -0.3287  0.7801
 4346SOL    HW113937   0.519   3.490   2.072  1.6860  3.8482  2.3305
 4346SOL    HW213938   0.644   3.429   2.156  2.0983  1.5092  0.1378
 4347SOL     OW13939   4.755   5.403   2.864  0.7540 -0.3050  0.2018
 4347SOL    HW113940   4.683   5.333   2.862  0.9201 -0.5344  1.5382
 4347SOL    HW213941   4.843   5.361   2.842  0.6907 -0.3055 -0.0482
 4348SOL     OW13942   6.054   5.131   5.784 -0.1668 -0.2413  0.0169
 4348SOL    HW113943   6.153   5.114   5.789  0.2622  2.0732  0.6590
 4348SOL    HW213944   6.006   5.062   5.837  1.1241 -1.2386 -0.0561
 4349SOL     OW13945   2.140   3.955   3.703 -0.1068 -0.6532 -0.4421
 4349SOL    HW113946   2.125   3.859   3.679 -0.0193 -0.5085 -1.0714
 4349SOL    HW213947   2.163   4.007   3.621 -0.2916 -0.0646 -0.1212
 4350SOL     OW13948   5.212   6.685   2.846  0.1516 -0.2632 -0.0465
 4350SOL    HW113949   5.300   6.725   2.872 -0.5670 -0.1010  2.4059
 4350SOL    HW213950   5.227   6.598   2.799  1.7297 -2.2564  3.7336
 4351SOL     OW13951   5.657   5.613   2.528 -0.0944 -0.0714 -0.0766
 4351SOL    HW113952   5.641   5.677   2.453 -1.1491  0.2065  0.3827
 4351SOL    HW213953   5.691   5.663   2.608  1.7608 -0.4608 -0.5737
 4352SOL     OW13954   5.337   6.055   1.968 -0.5437  0.4177  0.6937
 4352SOL    HW113955   5.396   6.136   1.974 -1.6066  1.3059 -0.3701
 4352SOL    HW213956   5.256   6.077   1.914 -0.0241 -1.8576 -1.1754
 4353SOL     OW13957   0.931   5.595   5.874 -0.6738  0.6323  0.6101
 4353SOL    HW113958   0.876   5.630   5.949  0.0777 -0.6245  1.7886
 4353SOL    HW213959   1.027   5.597   5.899 -0.4400 -0.1735 -0.1685
 4354SOL     OW13960   5.895   3.712   4.361 -0.3781  0.2334  0.5252
 4354SOL    HW113961   5.930   3.686   4.450 -0.6716 -0.3053  0.4871
 4354SOL    HW213962   5.795   3.716   4.364 -0.3842  0.3471  0.2542
 4355SOL     OW13963   0.448   3.952   5.195  0.1801  0.0319 -0.0015
 4355SOL    HW113964   0.475   3.917   5.105  1.2443  0.4030  0.1680
 4355SOL    HW213965   0.365   4.008   5.185 -1.0765 -1.8023 -0.3980
 4356SOL     OW13966   6.698   2.223   0.491 -0.5869  0.0188  0.3461
 4356SOL    HW113967   6.746   2.305   0.459 -0.8091  0.7607  1.8253
 4356SOL    HW213968   6.740   2.191   0.576 -1.2817 -0.6730  0.4383
 4357SOL     OW13969   3.076   0.149   2.417 -0.1933  0.2697  0.2996
 4357SOL    HW113970   3.081   0.062   2.367 -1.6936  0.4083 -0.1308
 4357SOL    HW213971   3.149   0.152   2.485  0.2339 -1.0840 -0.0640
 4358SOL     OW13972   4.384   5.997   1.831 -0.2929 -0.0950  0.0821
 4358SOL    HW113973   4.287   6.002   1.853 -0.3470 -0.3721 -0.0869
 4358SOL    HW213974   4.418   6.088   1.806 -0.0366  0.3886  2.0638
 4359SOL     OW13975   3.355   3.368   2.249 -0.5880  0.2315  0.5558
 4359SOL    HW113976   3.272   3.408   2.287 -0.6838  0.5926 -0.0286
 4359SOL    HW213977   3.404   3.437   2.196  0.8688  0.4510  2.1184
 4360SOL     OW13978   0.937   2.867   1.600  0.2808  0.4454 -0.3227
 4360SOL    HW113979   0.947   2.779   1.554 -2.2588  0.4449 -1.0179
 4360SOL    HW213980   0.873   2.857   1.677  0.6395  1.5157  0.1305
 4361SOL     OW13981   1.557   6.469   0.170 -0.2697 -0.8230 -0.4469
 4361SOL    HW113982   1.536   6.372   0.182  0.6842 -1.1115 -0.9886
 4361SOL    HW213983   1.522   6.521   0.248  0.2076 -1.7703  0.4221
 4362SOL     OW13984   5.386   4.936   2.527 -0.1433 -0.4825 -0.6657
 4362SOL    HW113985   5.478   4.975   2.520  1.0645 -2.8653  0.6712
 4362SOL    HW213986   5.343   4.937   2.437  0.5934  1.9200 -1.0763
 4363SOL     OW13987   4.186   6.977   2.434  0.1782  0.2232  0.2626
 4363SOL    HW113988   4.258   6.996   2.367 -1.1674  0.0195 -1.3079
 4363SOL    HW213989   4.149   7.064   2.469  0.6384  0.3354  0.4703
 4364SOL     OW13990   3.243   4.028   4.125  0.2357  0.6523  0.8251
 4364SOL    HW113991   3.189   4.029   4.210 -0.5137 -0.8042  0.3969
 4364SOL    HW213992   3.182   4.021   4.047  0.9297  1.9122  0.1310
 4365SOL     OW13993   1.672   0.995   1.020  0.1813 -0.1588  0.0671
 4365SOL    HW113994   1.589   1.030   0.977 -0.2321  0.8131  1.5798
 4365SOL    HW213995   1.726   1.071   1.056  0.3340 -0.9171  1.5402
 4366SOL     OW13996   4.620   6.341   6.688  0.2232 -0.5701 -0.0799
 4366SOL    HW113997   4.574   6.252   6.685  0.4933 -0.6889 -1.0305
 4366SOL    HW213998   4.697   6.335   6.751 -0.7119 -0.5273  1.1012
 4367SOL     OW13999   0.601   1.559   0.644 -0.2873  0.0988  0.9657
 4367SOL    HW114000   0.601   1.507   0.559 -1.7226  0.2693  0.8299
 4367SOL    HW214001   0.619   1.655   0.624 -0.9784  0.1979  0.8028
 4368SOL     OW14002   2.782   5.201   4.364  0.2953 -0.6017  0.3151
 4368SOL    HW114003   2.878   5.215   4.340  0.9526 -1.6189  2.1092
 4368SOL    HW214004   2.730   5.176   4.283  1.7787 -1.0835 -0.5178
 4369SOL     OW14005   5.187   6.006   5.777  0.1083  0.0133  0.0345
 4369SOL    HW114006   5.113   6.018   5.843  0.3231 -0.0370  0.2874
 4369SOL    HW214007   5.272   6.045   5.815  0.2076  0.0856 -0.2587
 4370SOL     OW14008   5.365   3.428   0.838  0.0997  0.5075 -0.0185
 4370SOL    HW114009   5.432   3.413   0.766 -0.6111 -1.2593 -0.3624
 4370SOL    HW214010   5.309   3.508   0.815  0.6012  0.6308 -0.8550
 4371SOL     OW14011   4.172   1.548   4.165 -0.1681 -0.1662  0.0764
 4371SOL    HW114012   4.247   1.614   4.158 -0.8173  0.5268 -0.6057
 4371SOL    HW214013   4.168   1.495   4.080 -0.5237 -0.1159  0.0623
 4372SOL     OW14014   0.732   4.550   5.510 -0.2093 -0.5428 -1.0771
 4372SOL    HW114015   0.802   4.615   5.540 -0.3888 -0.7642 -0.1532
 4372SOL    HW214016   0.751   4.522   5.416 -0.1166  0.8252 -1.4936
 4373SOL     OW14017   3.862   0.908   6.809 -0.1449 -0.3928 -0.1007
 4373SOL    HW114018   3.819   0.893   6.720  1.1082 -1.5560 -0.5574
 4373SOL    HW214019   3.939   0.971   6.798 -0.6546  0.3207  0.3757
 4374SOL     OW14020   3.393   6.404   0.292  0.9748  0.1589 -0.0783
 4374SOL    HW114021   3.355   6.476   0.234 -0.0332  1.1350  1.6960
 4374SOL    HW214022   3.491   6.394   0.274  0.8036  0.8328 -1.4911
 4375SOL     OW14023   4.086   3.028   5.938 -0.7845  0.4834  0.5967
 4375SOL    HW114024   4.014   2.968   5.904 -1.4452  2.4909 -1.7963
 4375SOL    HW214025   4.052   3.122   5.942  1.2813  1.2707  0.8217
 4376SOL     OW14026   3.247   4.837   5.965 -0.4198  0.6954  0.3489
 4376SOL    HW114027   3.156   4.836   5.923 -0.5757  0.6158  0.6858
 4376SOL    HW214028   3.316   4.846   5.894 -0.7856  3.2344  0.2347
 4377SOL     OW14029   5.177   6.434   6.222  0.3105 -0.1054 -0.1773
 4377SOL    HW114030   5.270   6.472   6.219  0.7001 -1.0966 -1.6511
 4377SOL    HW214031   5.162   6.377   6.142 -0.6531 -2.1362  1.3556
 4378SOL     OW14032   3.484   6.603   0.474  0.0149 -0.0424 -0.5021
 4378SOL    HW114033   3.459   6.529   0.412 -1.4032  0.6791 -0.8394
 4378SOL    HW214034   3.448   6.584   0.565 -0.1380  0.0982 -0.5310
 4379SOL     OW14035   5.215   0.081   0.287 -0.1537  0.4694 -0.3246
 4379SOL    HW114036   5.240   0.024   0.366 -1.9319 -0.1742 -0.1807
 4379SOL    HW214037   5.245   0.037   0.203  1.3232  0.9215 -0.0676
 4380SOL     OW14038   1.263   0.435   3.161  0.0035  0.4222 -0.2220
 4380SOL    HW114039   1.209   0.506   3.207 -0.3640  0.4887 -0.7491
 4380SOL    HW214040   1.209   0.395   3.087 -0.7736 -2.1880  1.6339
 4381SOL     OW14041   4.307   6.657   6.144 -0.0880  0.0718 -0.1795
 4381SOL    HW114042   4.298   6.616   6.053 -1.6885  0.1733 -0.1016
 4381SOL    HW214043   4.386   6.718   6.145 -1.0560  1.4843 -2.0991
 4382SOL     OW14044   6.197   6.370   4.193 -0.1019  0.2915  0.6940
 4382SOL    HW114045   6.172   6.453   4.141 -0.9831 -0.1819  0.3507
 4382SOL    HW214046   6.245   6.397   4.276  0.0878  1.1293  0.3317
 4383SOL     OW14047   0.755   5.569   7.002  0.2704  0.7530 -0.1067
 4383SOL    HW114048   0.753   5.554   6.903 -0.8337 -0.3193  0.0441
 4383SOL    HW214049   0.792   5.660   7.022  3.1007 -0.0327 -1.3462
 4384SOL     OW14050   3.615   1.551   2.175 -0.5989  0.1403 -0.1859
 4384SOL    HW114051   3.661   1.629   2.133 -2.1943  0.6007 -1.1489
 4384SOL    HW214052   3.575   1.493   2.104  2.3444 -2.8460  0.3056
 4385SOL     OW14053   5.881   2.237   5.488 -0.7886 -0.0787 -0.2300
 4385SOL    HW114054   5.895   2.306   5.560  0.4322  1.2007 -1.6241
 4385SOL    HW214055   5.967   2.221   5.440 -1.2257 -2.0726 -0.4390
 4386SOL     OW14056   1.068   5.353   2.325 -0.3890 -0.0067 -0.1462
 4386SOL    HW114057   0.983   5.336   2.275 -1.4259 -0.8889  1.8042
 4386SOL    HW214058   1.090   5.450   2.321 -1.1099  0.1245 -1.2499
 4387SOL     OW14059   1.177   2.398   4.030  0.9299  0.3184  0.5059
 4387SOL    HW114060   1.155   2.303   4.050  0.1655 -0.0822 -1.9843
 4387SOL    HW214061   1.275   2.412   4.040  0.9978 -0.5953  1.2897
 4388SOL     OW14062   4.982   1.218   5.367 -0.0566  0.4611  0.0662
 4388SOL    HW114063   5.023   1.303   5.398 -1.7423  0.8869  1.2927
 4388SOL    HW214064   4.887   1.235   5.340 -1.2416 -1.3467  2.6052
 4389SOL     OW14065   0.685   4.514   2.420  0.4495 -0.1911 -0.4782
 4389SOL    HW114066   0.651   4.548   2.332 -2.5599  1.1708  1.0490
 4389SOL    HW214067   0.732   4.427   2.407  1.7458  0.8452 -3.6166
 4390SOL     OW14068   4.997   3.899   0.498  0.1311  0.5865  0.4508
 4390SOL    HW114069   4.958   3.859   0.581 -0.5369 -0.6645 -0.4301
 4390SOL    HW214070   5.094   3.875   0.492 -0.5573 -2.3260 -0.7902
 4391SOL     OW14071   5.878   5.673   1.264  0.1432 -0.0199 -0.1150
 4391SOL    HW114072   5.812   5.683   1.339  0.0292  2.1747 -0.4271
 4391SOL    HW214073   5.849   5.729   1.186  0.7454 -1.5344 -1.4756
 4392SOL     OW14074   2.340   7.007   4.341  0.2162 -0.0946 -0.3173
 4392SOL    HW114075   2.370   7.101   4.358  1.3576 -0.1501 -1.8743
 4392SOL    HW214076   2.407   6.943   4.378 -1.6480 -0.4426  2.8431
 4393SOL     OW14077   5.577   0.750   1.306 -0.5129 -0.3777 -0.0749
 4393SOL    HW114078   5.490   0.730   1.261  0.7279 -1.3601 -2.1602
 4393SOL    HW214079   5.645   0.775   1.238  0.3995  2.3677  1.6804
 4394SOL     OW14080   4.225   0.747   3.471 -0.4218  0.5576 -0.1330
 4394SOL    HW114081   4.286   0.821   3.499 -0.4466  0.7375 -0.5363
 4394SOL    HW214082   4.130   0.777   3.477 -0.5911 -0.2566  2.0637
 4395SOL     OW14083   6.651   2.459   0.060  0.3414  0.5695  0.0328
 4395SOL    HW114084   6.738   2.410   0.065 -0.5992 -1.2081 -0.3343
 4395SOL    HW214085   6.594   2.434   0.139 -0.3686  0.6632 -0.4430
 4396SOL     OW14086   3.253   0.881   1.909  0.2572 -0.3608  0.2015
 4396SOL    HW114087   3.247   0.893   2.008  0.4361  1.0499  0.0756
 4396SOL    HW214088   3.259   0.971   1.866 -0.2807 -0.9411 -1.1298
 4397SOL     OW14089   4.772   1.357   0.435 -0.7625  0.0164  0.0857
 4397SOL    HW114090   4.835   1.378   0.509 -0.5519 -0.9580  0.2015
 4397SOL    HW214091   4.739   1.442   0.394  0.9347  0.5465 -0.2485
 4398SOL     OW14092   1.017   5.904   5.284  0.2561  0.5776  0.3325
 4398SOL    HW114093   1.046   5.952   5.367 -0.8525  0.8887  0.5486
 4398SOL    HW214094   0.975   5.817   5.309  0.4642  0.3956  0.0556
 4399SOL     OW14095   1.355   0.047   0.680 -0.1056 -0.0919  0.1121
 4399SOL    HW114096   1.447   0.057   0.642  0.2137 -0.2596  0.8293
 4399SOL    HW214097   1.331   0.128   0.734 -1.6738  1.4763 -2.6767
 4400SOL     OW14098   4.137   6.443   4.091  0.2241 -0.5568  0.7491
 4400SOL    HW114099   4.100   6.504   4.160  0.3127 -0.5523  0.7926
 4400SOL    HW214100   4.186   6.497   4.022  0.1247 -0.5600  0.6764
 4401SOL     OW14101   6.594   1.907   4.458 -0.0061 -0.0388 -0.2411
 4401SOL    HW114102   6.624   1.960   4.538 -0.2430 -0.0123 -0.1717
 4401SOL    HW214103   6.623   1.812   4.469 -1.8247 -0.5014  0.8465
 4402SOL     OW14104   6.620   5.771   1.364  0.1951  0.0711 -0.6102
 4402SOL    HW114105   6.667   5.769   1.276  1.2377 -2.0971 -0.0957
 4402SOL    HW214106   6.684   5.742   1.436 -1.1285 -0.0205  0.5719
 4403SOL     OW14107   0.411   2.052   4.385 -0.4639  0.0763 -0.8184
 4403SOL    HW114108   0.479   2.046   4.458 -1.2650 -1.4119 -0.1582
 4403SOL    HW214109   0.456   2.040   4.296 -0.0750 -2.9254 -0.2926
 4404SOL     OW14110   2.589   4.553   2.705  0.1692 -0.2072 -0.2211
 4404SOL    HW114111   2.564   4.460   2.730 -0.3949 -0.0736 -0.2777
 4404SOL    HW214112   2.639   4.596   2.781 -2.2804  0.4947  1.0970
 4405SOL     OW14113   2.479   4.579   6.260  0.2672  0.7178 -0.3680
 4405SOL    HW114114   2.448   4.528   6.180  0.1936  1.9646 -1.1440
 4405SOL    HW214115   2.576   4.600   6.250  0.8263 -0.9791  0.8948
 4406SOL     OW14116   4.692   2.498   2.262  0.2106 -0.3538 -0.4439
 4406SOL    HW114117   4.619   2.453   2.313 -1.9466  3.5826  0.3025
 4406SOL    HW214118   4.657   2.527   2.173  2.1319 -1.7167 -1.7374
 4407SOL     OW14119   6.789   0.421   7.005 -0.0375  0.1044  0.0747
 4407SOL    HW114120   6.717   0.404   6.938  0.4570  2.4342 -1.1569
 4407SOL    HW214121   6.748   0.459   7.088 -0.3197  0.6591 -0.3113
 4408SOL     OW14122   4.921   4.801   2.495 -0.0150 -0.4511 -0.2498
 4408SOL    HW114123   4.918   4.822   2.592  2.6143 -0.6293 -0.0664
 4408SOL    HW214124   4.906   4.885   2.442  1.9810  0.3845  0.4018
 4409SOL     OW14125   3.206   1.056   5.008 -0.0174  0.3325 -0.0496
 4409SOL    HW114126   3.258   1.140   5.025  0.2317  0.1075  0.3314
 4409SOL    HW214127   3.224   0.991   5.082  0.7895 -0.5388 -1.0040
 4410SOL     OW14128   1.251   0.210   0.883  0.4014 -0.2920  0.3452
 4410SOL    HW114129   1.211   0.138   0.940  1.5444 -0.6836  0.6860
 4410SOL    HW214130   1.281   0.285   0.940  1.3096 -0.5684  0.2510
 4411SOL     OW14131   4.469   3.782   1.493  0.1949 -0.1115  0.2012
 4411SOL    HW114132   4.420   3.719   1.554  0.8665 -1.5453 -0.6994
 4411SOL    HW214133   4.462   3.750   1.399  1.3740  0.6372 -0.1593
 4412SOL     OW14134   2.264   0.857   5.642 -0.6101  0.0555  0.5625
 4412SOL    HW114135   2.237   0.878   5.548  1.2481  0.0659 -0.0201
 4412SOL    HW214136   2.301   0.939   5.685  0.2155 -0.3584  0.6680
 4413SOL     OW14137   4.039   5.689   3.464  0.7598  0.0342 -0.1837
 4413SOL    HW114138   3.955   5.701   3.517  0.8453 -1.1390  0.2542
 4413SOL    HW214139   4.092   5.774   3.465 -0.2852  0.7114 -0.2542
 4414SOL     OW14140   3.864   4.951   0.462  0.0750 -0.0808  0.1472
 4414SOL    HW114141   3.809   5.019   0.511 -0.1070  0.9689 -1.4238
 4414SOL    HW214142   3.953   4.991   0.438  1.2128 -1.4510  1.8516
 4415SOL     OW14143   4.475   6.528   2.650 -0.8839 -0.2107  0.0954
 4415SOL    HW114144   4.446   6.493   2.739  0.8357 -0.4899  0.5790
 4415SOL    HW214145   4.502   6.452   2.592  2.2620  0.1472  0.9303
 4416SOL     OW14146   2.531   2.538   4.176 -0.0684  0.2351  0.2657
 4416SOL    HW114147   2.599   2.503   4.242  0.7198 -0.6156 -0.9686
 4416SOL    HW214148   2.442   2.497   4.195  0.2277 -0.2796  0.5799
 4417SOL     OW14149   4.847   1.112   1.624  1.0276  0.0244 -0.5107
 4417SOL    HW114150   4.785   1.179   1.583 -0.3719 -0.6297  0.4516
 4417SOL    HW214151   4.818   1.020   1.598  1.0217 -0.3331  0.6911
 4418SOL     OW14152   3.761   1.877   3.920  0.0950 -0.4769  0.1071
 4418SOL    HW114153   3.724   1.823   3.996  0.0459  2.4129  2.2874
 4418SOL    HW214154   3.861   1.883   3.929  0.0241  0.4181  0.3289
 4419SOL     OW14155   5.389   3.790   6.556  0.1966 -0.2434 -0.3224
 4419SOL    HW114156   5.338   3.726   6.615 -0.0382 -0.1509 -0.4215
 4419SOL    HW214157   5.330   3.818   6.480 -0.1891  1.1299  0.4435
 4420SOL     OW14158   0.165   2.622   0.895  0.2470  0.4953  0.4227
 4420SOL    HW114159   0.212   2.553   0.951  0.2456  0.0808 -0.0827
 4420SOL    HW214160   0.233   2.674   0.843  0.1285 -0.3868 -0.6316
 4421SOL     OW14161   2.233   1.063   2.785  0.1782 -0.9475  0.2645
 4421SOL    HW114162   2.185   0.980   2.815 -0.1872  0.0846  2.7730
 4421SOL    HW214163   2.296   1.093   2.857 -1.0327  1.9219  0.2523
 4422SOL     OW14164   0.298   4.247   5.441 -0.5102  0.6063  0.8059
 4422SOL    HW114165   0.307   4.342   5.473 -1.0086  0.6586  0.8019
 4422SOL    HW214166   0.327   4.185   5.513  2.2488  0.7854 -0.0369
 4423SOL     OW14167   1.412   3.711   5.387 -0.0129 -0.2650  0.0923
 4423SOL    HW114168   1.322   3.678   5.416 -0.4956  0.5819 -0.4115
 4423SOL    HW214169   1.424   3.695   5.289  0.0026  0.4586 -0.0292
 4424SOL     OW14170   1.255   4.176   2.691  0.1628 -0.6303  0.2062
 4424SOL    HW114171   1.300   4.094   2.656  1.0056  0.8463 -2.5013
 4424SOL    HW214172   1.312   4.256   2.672 -1.7341  0.8621  0.4809
 4425SOL     OW14173   4.858   4.019   3.561  0.2001  0.0273 -0.0487
 4425SOL    HW114174   4.851   4.119   3.551  2.0629  0.0081 -2.5043
 4425SOL    HW214175   4.850   3.995   3.657  0.1368  2.5832  0.6722
 4426SOL     OW14176   0.231   6.822   0.420  0.1846  0.6396  0.0243
 4426SOL    HW114177   0.256   6.806   0.325  2.2130  0.0135  0.6127
 4426SOL    HW214178   0.244   6.737   0.473 -1.9724  0.6599  0.6871
 4427SOL     OW14179   0.359   4.379   2.522 -0.3665  0.1616  0.0223
 4427SOL    HW114180   0.293   4.352   2.592  0.1735  2.5600  1.5721
 4427SOL    HW214181   0.429   4.437   2.563  0.2930  1.1963 -2.3971
 4428SOL     OW14182   3.227   6.173   2.773 -0.6128 -0.0931 -0.2509
 4428SOL    HW114183   3.167   6.158   2.694  0.2004 -2.4267 -0.4876
 4428SOL    HW214184   3.278   6.258   2.759 -2.5843  1.0829 -0.8126
 4429SOL     OW14185   2.529   1.301   2.018  0.0013 -1.0000  0.4655
 4429SOL    HW114186   2.440   1.318   1.977 -0.3578 -3.8532 -0.1290
 4429SOL    HW214187   2.596   1.367   1.983 -1.8485  1.3789  1.1488
 4430SOL     OW14188   2.604   0.060   1.162 -0.7986  0.7103  0.9051
 4430SOL    HW114189   2.507   0.067   1.187 -0.9344 -0.5509  0.7681
 4430SOL    HW214190   2.611   0.037   1.065 -0.3583  0.8150  0.9128
 4431SOL     OW14191   2.061   2.156   1.494  0.5745 -0.3732 -0.0456
 4431SOL    HW114192   2.098   2.069   1.524  1.3005 -0.6399 -1.6023
 4431SOL    HW214193   2.025   2.206   1.573  1.2812 -1.5238  1.0475
 4432SOL     OW14194   3.540   2.247   5.565  0.0092  0.3658 -0.3319
 4432SOL    HW114195   3.442   2.236   5.548  0.0178  0.7231 -0.6306
 4432SOL    HW214196   3.591   2.174   5.520 -0.0814  0.4756 -0.6110
 4433SOL     OW14197   5.507   0.645   6.740  0.3712 -0.2559  0.0391
 4433SOL    HW114198   5.521   0.566   6.679 -3.9349 -1.7243  0.6147
 4433SOL    HW214199   5.433   0.702   6.704 -1.2625 -0.3268  3.0374
 4434SOL     OW14200   6.782   0.038   0.849  0.2574  0.1155 -0.3919
 4434SOL    HW114201   6.832   0.029   0.936 -3.1968 -0.3628  1.7649
 4434SOL    HW214202   6.791  -0.047   0.798 -0.1756 -0.8629  1.0729
 4435SOL     OW14203   3.201   3.510   1.429 -0.3714  0.4325  0.5561
 4435SOL    HW114204   3.155   3.453   1.496 -0.3562  1.1704  1.2109
 4435SOL    HW214205   3.197   3.606   1.458  0.4889  0.6548  0.0018
 4436SOL     OW14206   0.197   6.149   0.047 -0.0470 -0.1042  0.4767
 4436SOL    HW114207   0.267   6.208   0.008  1.7629 -2.3047  0.1762
 4436SOL    HW214208   0.217   6.131   0.143  1.2187 -2.4966 -0.1320
 4437SOL     OW14209   4.475   1.177   5.485 -0.0276  0.3502 -0.4513
 4437SOL    HW114210   4.504   1.124   5.565 -2.2814  0.5099  0.5371
 4437SOL    HW214211   4.412   1.122   5.430  3.1130 -0.6367 -3.4883
 4438SOL     OW14212   5.551   3.238   0.340  0.3545  0.1887  0.4731
 4438SOL    HW114213   5.534   3.336   0.346 -0.2851  0.1404 -0.4354
 4438SOL    HW214214   5.475   3.193   0.294  0.6280 -0.7439  0.9074
 4439SOL     OW14215   0.931   4.131   2.995  0.0651 -0.3144 -0.1947
 4439SOL    HW114216   1.030   4.139   2.986  0.1424 -1.0478 -0.0464
 4439SOL    HW214217   0.900   4.187   3.072  0.5998 -1.5155  0.9120
 4440SOL     OW14218   0.643   0.644   6.015  0.3892  0.3972  0.0689
 4440SOL    HW114219   0.698   0.612   6.092  0.5665  1.5969  0.4693
 4440SOL    HW214220   0.639   0.744   6.016 -2.3260  0.3678  0.4324
 4441SOL     OW14221   0.350   0.032   3.090  0.3291  0.7248 -0.6374
 4441SOL    HW114222   0.359   0.132   3.094 -3.0889  1.1791 -1.0496
 4441SOL    HW214223   0.267   0.009   3.039  1.1426 -2.3725 -0.7207
 4442SOL     OW14224   2.735   6.188   1.389  0.5661 -0.3526  0.0892
 4442SOL    HW114225   2.800   6.124   1.348  1.0187  1.2021 -1.7701
 4442SOL    HW214226   2.781   6.275   1.407 -0.6190  0.2754  0.1839
 4443SOL     OW14227   2.809   2.061   1.970 -0.2275  0.3936 -0.0096
 4443SOL    HW114228   2.839   2.155   1.988 -0.7176  1.2118 -2.8675
 4443SOL    HW214229   2.860   2.025   1.892 -0.5767 -1.4671  0.5870
 4444SOL     OW14230   5.340   3.401   2.813 -0.3066 -0.0517 -0.0732
 4444SOL    HW114231   5.304   3.433   2.726  0.0387  1.1475  0.2055
 4444SOL    HW214232   5.267   3.356   2.865 -1.2457  1.6482  0.1556
 4445SOL     OW14233   0.366   2.658   4.954  0.2534 -0.0086 -0.6168
 4445SOL    HW114234   0.436   2.634   4.887  0.5044 -0.1660 -0.3046
 4445SOL    HW214235   0.399   2.734   5.011  0.8331 -1.0952  0.5533
 4446SOL     OW14236   5.357   5.629   3.046 -0.2810  0.5249 -0.2660
 4446SOL    HW114237   5.424   5.673   3.106 -0.0713  0.3376 -0.3605
 4446SOL    HW214238   5.381   5.646   2.951 -0.2346  0.2674 -0.3024
 4447SOL     OW14239   5.047   4.111   5.429  0.1113  0.1559  0.2641
 4447SOL    HW114240   5.055   4.020   5.389 -0.3550  0.2366 -0.0239
 4447SOL    HW214241   5.059   4.106   5.528  0.5957 -0.1437  0.1913
 4448SOL     OW14242   1.940   2.775   6.675  1.1725  0.1650  0.6809
 4448SOL    HW114243   1.947   2.874   6.683  1.7829  0.0753  1.4166
 4448SOL    HW214244   1.977   2.732   6.758  1.8813 -0.7009 -0.0621
 4449SOL     OW14245   6.038   0.324   5.344 -0.5490  0.2785  0.3173
 4449SOL    HW114246   6.063   0.398   5.281  0.0994  0.8253  1.1928
 4449SOL    HW214247   6.009   0.363   5.432 -0.4598 -0.4956  0.7006
 4450SOL     OW14248   3.557   3.239   3.649 -0.4693  0.2994 -0.6621
 4450SOL    HW114249   3.520   3.147   3.640  0.0121 -0.1824  1.5704
 4450SOL    HW214250   3.482   3.305   3.646 -0.9955 -0.2874 -0.7192
 4451SOL     OW14251   0.303   6.098   1.910 -0.2359 -0.4170 -0.3490
 4451SOL    HW114252   0.322   6.196   1.918  0.1835 -0.2881 -2.4053
 4451SOL    HW214253   0.246   6.069   1.987 -0.5238  1.4821  0.2077
 4452SOL     OW14254   1.398   4.998   5.254  0.1784 -0.2822  0.2848
 4452SOL    HW114255   1.435   5.089   5.235  0.0604 -0.2571  0.1683
 4452SOL    HW214256   1.299   4.999   5.238  0.2305 -0.5223 -0.0612
 4453SOL     OW14257   3.339   1.477   0.465 -0.3765 -0.1540  0.4410
 4453SOL    HW114258   3.367   1.557   0.519 -1.5040 -0.0166  0.8416
 4453SOL    HW214259   3.421   1.427   0.436  0.4309  1.7915 -0.8511
 4454SOL     OW14260   0.433   5.084   2.593  0.0386  0.5388  0.3755
 4454SOL    HW114261   0.465   5.026   2.518  0.3276  1.4106 -0.1840
 4454SOL    HW214262   0.354   5.040   2.637 -1.8362  1.1948 -2.0923
 4455SOL     OW14263   5.305   3.583   4.889 -0.2481  0.0665  0.2627
 4455SOL    HW114264   5.355   3.496   4.890 -0.4506 -0.0713 -0.6078
 4455SOL    HW214265   5.297   3.615   4.795 -0.2961  0.9642  0.5638
 4456SOL     OW14266   0.458   3.703   2.948  0.1641 -0.0125 -0.7204
 4456SOL    HW114267   0.447   3.782   2.889 -2.6336  0.1889 -0.0886
 4456SOL    HW214268   0.474   3.733   3.042 -0.5655 -0.1949 -0.5339
 4457SOL     OW14269   5.499   2.768   6.841 -0.0483  0.2904 -0.0441
 4457SOL    HW114270   5.418   2.827   6.833  0.4271  0.9158 -0.3302
 4457SOL    HW214271   5.578   2.823   6.866  0.4241 -0.2172 -0.3865
 4458SOL     OW14272   4.668   2.697   2.040  0.1084 -0.3369 -0.0896
 4458SOL    HW114273   4.709   2.693   1.949  1.1507  0.8821  0.3015
 4458SOL    HW214274   4.680   2.788   2.078 -2.0765 -0.2396  0.4862
 4459SOL     OW14275   5.499   4.825   6.487  0.1897  0.7258 -0.3192
 4459SOL    HW114276   5.412   4.823   6.438 -0.1666  1.0195  0.2905
 4459SOL    HW214277   5.482   4.824   6.585  0.8946  0.2026 -0.1958
 4460SOL     OW14278   2.765   0.734   6.700  0.5280 -0.4995  0.2692
 4460SOL    HW114279   2.683   0.728   6.643  1.5673 -0.1815 -1.3502
 4460SOL    HW214280   2.749   0.690   6.787 -1.3526 -0.4519 -0.0145
 4461SOL     OW14281   3.558   1.416   3.659  0.6777 -0.7755  0.3514
 4461SOL    HW114282   3.556   1.506   3.703  0.1104 -0.8834  0.5530
 4461SOL    HW214283   3.497   1.416   3.580 -0.2365 -1.3227  1.0327
 4462SOL     OW14284   0.608   1.933   3.569  0.0891  0.0117 -0.1539
 4462SOL    HW114285   0.625   1.849   3.517 -0.7307 -1.1395  1.3622
 4462SOL    HW214286   0.688   1.993   3.562  0.0806 -0.1597 -2.5474
 4463SOL     OW14287   2.053   4.563   5.641 -0.0727 -0.3142 -0.3253
 4463SOL    HW114288   2.101   4.530   5.559 -0.6559 -1.2818 -0.2885
 4463SOL    HW214289   2.045   4.663   5.637 -1.0446 -0.4215 -1.9920
 4464SOL     OW14290   1.087   3.635   1.106 -0.1858  0.0253 -0.3300
 4464SOL    HW114291   1.024   3.564   1.075  1.0898 -1.1247 -0.3413
 4464SOL    HW214292   1.073   3.651   1.204 -1.6683  1.0450 -0.6618
 4465SOL     OW14293   5.339   2.859   5.538 -0.0350 -0.5306 -0.4983
 4465SOL    HW114294   5.424   2.907   5.562  0.3831 -0.7244 -1.5365
 4465SOL    HW214295   5.353   2.760   5.547 -0.7379 -0.5093  1.1382
 4466SOL     OW14296   6.056   5.146   5.499  0.1193 -0.2528 -0.1875
 4466SOL    HW114297   6.076   5.142   5.597 -3.3585  1.0261  0.7221
 4466SOL    HW214298   6.023   5.057   5.469 -2.1491  0.2233  0.7309
 4467SOL     OW14299   1.796   6.924   3.894 -0.0805 -0.9016 -0.1001
 4467SOL    HW114300   1.890   6.929   3.861  0.2206  0.4893  0.8762
 4467SOL    HW214301   1.743   7.000   3.856  0.0358  0.1806  1.8033
 4468SOL     OW14302   1.296   0.824   1.839 -0.1426  0.0391  0.1038
 4468SOL    HW114303   1.213   0.801   1.787  0.5857  1.3830 -1.7970
 4468SOL    HW214304   1.366   0.755   1.822  0.8443  1.5525 -2.6843
 4469SOL     OW14305   5.170   1.048   0.550  0.7478 -0.4157 -0.5085
 4469SOL    HW114306   5.094   1.010   0.602  0.7316  0.7540  0.3561
 4469SOL    HW214307   5.156   1.032   0.453 -0.7968  0.1205 -0.3899
 4470SOL     OW14308   6.013   4.163   3.020 -0.0682  0.2514  0.1385
 4470SOL    HW114309   6.087   4.225   2.995  0.2545  0.2489  1.0591
 4470SOL    HW214310   5.931   4.216   3.042 -0.7463  0.2182 -2.0350
 4471SOL     OW14311   6.670   4.686   2.825  0.0501  0.9562  0.3278
 4471SOL    HW114312   6.759   4.725   2.846  0.9053 -1.1237  0.8088
 4471SOL    HW214313   6.677   4.627   2.745 -0.6059 -0.1048  1.0220
 4472SOL     OW14314   2.590   4.080   1.478 -0.4033 -0.5249 -0.6255
 4472SOL    HW114315   2.590   4.005   1.412 -2.6485 -1.2495  0.1012
 4472SOL    HW214316   2.503   4.081   1.527  0.3716  1.3135  0.8341
 4473SOL     OW14317   6.246   2.816   6.762 -0.4285 -0.0891 -0.1474
 4473SOL    HW114318   6.193   2.749   6.710 -1.3501 -0.4253  1.1645
 4473SOL    HW214319   6.184   2.883   6.803  0.5144  1.9545 -1.9061
 4474SOL     OW14320   4.739   2.366   5.229 -0.2790  0.2908 -0.3565
 4474SOL    HW114321   4.826   2.414   5.227 -0.2371  0.8227  4.1790
 4474SOL    HW214322   4.668   2.424   5.189  1.0270  0.6169 -2.3706
 4475SOL     OW14323   1.741   3.930   6.419  0.1858 -0.7721 -0.3245
 4475SOL    HW114324   1.719   3.900   6.512  2.8258  3.3497  1.9281
 4475SOL    HW214325   1.693   4.015   6.398  0.1512 -1.2718 -2.5685
 4476SOL     OW14326   4.119   6.162   4.247 -0.2062  0.2549 -0.2211
 4476SOL    HW114327   4.028   6.198   4.264 -0.9647 -1.4145 -0.5273
 4476SOL    HW214328   4.145   6.180   4.152 -0.5360  0.0749 -0.3458
 4477SOL     OW14329   2.479   1.868   2.481 -0.0495 -0.0703 -0.2966
 4477SOL    HW114330   2.500   1.825   2.569 -1.1263 -0.6159 -0.2904
 4477SOL    HW214331   2.481   1.799   2.409  0.1560  0.2472 -0.5996
 4478SOL     OW14332   0.453   3.510   6.806 -0.0923  0.3948  0.0743
 4478SOL    HW114333   0.479   3.491   6.711 -0.2833  3.7177 -0.7415
 4478SOL    HW214334   0.375   3.452   6.831  1.2235 -1.9953 -1.0442
 4479SOL     OW14335   1.884   4.120   0.235 -0.1235  0.1277  0.2759
 4479SOL    HW114336   1.941   4.174   0.297  2.6344 -1.1833 -0.9519
 4479SOL    HW214337   1.869   4.029   0.275 -0.5224  0.1388  0.1510
 4480SOL     OW14338   5.408   2.509   2.691 -0.7334 -0.2969 -0.5070
 4480SOL    HW114339   5.370   2.596   2.660 -0.4407  0.1325  0.3117
 4480SOL    HW214340   5.508   2.512   2.682 -0.4953  0.4052  1.8027
 4481SOL     OW14341   2.586   1.205   1.605  0.4253 -0.4011  0.6808
 4481SOL    HW114342   2.648   1.143   1.653 -0.1702 -0.1989  1.7464
 4481SOL    HW214343   2.521   1.244   1.670  0.0430  0.4415 -0.1813
 4482SOL     OW14344   0.773   5.024   3.818  0.3659 -0.4614  0.1745
 4482SOL    HW114345   0.694   5.017   3.756  0.5698  1.0376 -0.2947
 4482SOL    HW214346   0.857   5.025   3.764  0.5370  1.0726  0.4329
 4483SOL     OW14347   1.308   4.890   1.823  0.1655  0.0818 -0.1545
 4483SOL    HW114348   1.255   4.808   1.840 -1.4889  0.7487 -1.7633
 4483SOL    HW214349   1.246   4.967   1.806  1.6242  1.8862  2.0108
 4484SOL     OW14350   4.676   4.293   5.920 -0.1834 -0.2477  0.4197
 4484SOL    HW114351   4.621   4.215   5.889 -1.2095  0.5116  0.2784
 4484SOL    HW214352   4.691   4.286   6.018  0.3299 -0.9870  0.2945
 4485SOL     OW14353   1.607   5.750   4.063 -0.3189  0.3307  0.0822
 4485SOL    HW114354   1.705   5.772   4.064 -0.2045 -0.1327 -0.7706
 4485SOL    HW214355   1.595   5.652   4.076 -0.6820  0.3986  0.2710
 4486SOL     OW14356   6.411   3.835   4.156 -0.3060 -0.1127 -0.0431
 4486SOL    HW114357   6.388   3.790   4.243 -0.0700 -0.8897 -0.3726
 4486SOL    HW214358   6.499   3.801   4.123  1.1265  2.4052  0.9220
 4487SOL     OW14359   3.009   3.294   4.549 -0.0690 -0.4277 -0.2082
 4487SOL    HW114360   3.040   3.203   4.579  0.0120  0.3976  2.4874
 4487SOL    HW214361   2.966   3.341   4.626 -0.4843  1.6914 -1.6644
 4488SOL     OW14362   1.155   1.781   6.564  0.0989  0.2383 -0.2088
 4488SOL    HW114363   1.185   1.819   6.651  0.6345  0.8786 -0.6628
 4488SOL    HW214364   1.234   1.741   6.516 -0.4658 -1.6078  0.3226
 4489SOL     OW14365   1.607   0.976   3.988 -0.1141  0.1193  0.0783
 4489SOL    HW114366   1.683   0.923   4.024 -0.2772  0.3654  0.8068
 4489SOL    HW214367   1.544   0.915   3.939  0.5358 -0.0833 -0.5136
 4490SOL     OW14368   0.722   1.355   3.686 -0.3075  0.0847 -0.0753
 4490SOL    HW114369   0.786   1.313   3.622  1.6624  0.2679  1.6513
 4490SOL    HW214370   0.645   1.293   3.701  0.0363 -0.6814 -1.3048
 4491SOL     OW14371   1.472   3.796   2.374  0.3509 -0.1154  0.2662
 4491SOL    HW114372   1.431   3.780   2.284 -0.9401 -0.5667  0.9254
 4491SOL    HW214373   1.543   3.728   2.391 -0.5639 -1.0746  0.2866
 4492SOL     OW14374   5.280   2.739   5.279 -0.1226  0.0661 -0.0445
 4492SOL    HW114375   5.205   2.746   5.212 -1.8431  1.9976  1.9245
 4492SOL    HW214376   5.279   2.820   5.338 -0.5308 -2.7256  4.1608
 4493SOL     OW14377   0.161   4.288   2.989  0.8597  0.5739 -0.4026
 4493SOL    HW114378   0.105   4.364   3.023  0.5875  0.0383  0.3645
 4493SOL    HW214379   0.257   4.308   3.006  0.9107  1.4031 -1.5345
 4494SOL     OW14380   5.387   3.708   1.826 -0.1978  0.6769 -0.2901
 4494SOL    HW114381   5.322   3.785   1.824 -2.3204 -0.9862  0.1419
 4494SOL    HW214382   5.428   3.696   1.736 -3.6459 -0.6297 -1.8656
 4495SOL     OW14383   4.397   4.519   1.827 -0.3225  0.3581 -0.1849
 4495SOL    HW114384   4.439   4.605   1.855  0.6445  0.7945 -2.7325
 4495SOL    HW214385   4.451   4.442   1.862 -0.2146  0.8083  0.6599
 4496SOL     OW14386   0.060   2.594   6.998  0.3907 -0.2979 -0.0892
 4496SOL    HW114387   0.153   2.568   6.974  0.2254  1.1024 -2.6509
 4496SOL    HW214388   0.059   2.687   7.035 -0.0746  0.2397 -1.3840
 4497SOL     OW14389   4.136   0.823   0.406  0.6905  0.0552 -0.2614
 4497SOL    HW114390   4.040   0.798   0.419  0.8875 -1.2300 -1.0446
 4497SOL    HW214391   4.194   0.753   0.449  1.2702 -0.0810 -1.2413
 4498SOL     OW14392   1.163   4.409   0.062  0.1725  0.8407  0.6997
 4498SOL    HW114393   1.149   4.313   0.083  0.0374  0.9891  1.2978
 4498SOL    HW214394   1.198   4.418  -0.032  0.4521  0.1965  0.7396
 4499SOL     OW14395   5.279   4.042   0.668  0.4012 -0.2823  0.0995
 4499SOL    HW114396   5.219   4.122   0.667  1.2676  0.4636  2.0415
 4499SOL    HW214397   5.309   4.025   0.762  1.8707 -1.6619 -0.5832
 4500SOL     OW14398   2.484   4.468   0.448  1.0786  0.4717 -0.8129
 4500SOL    HW114399   2.482   4.509   0.540  1.2920  0.5875 -0.8596
 4500SOL    HW214400   2.526   4.378   0.453  0.1973  0.0561 -0.6329
 4501SOL     OW14401   6.698   5.819   4.986  0.5871 -0.5292 -0.2099
 4501SOL    HW114402   6.755   5.748   4.945 -0.0538 -0.1533 -1.8068
 4501SOL    HW214403   6.756   5.881   5.039  1.6254 -0.3920 -1.4517
 4502SOL     OW14404   4.596   3.135   6.993 -0.2644  0.2844 -0.0244
 4502SOL    HW114405   4.515   3.163   7.045 -0.4198 -0.8799  0.4062
 4502SOL    HW214406   4.617   3.204   6.924 -1.0493  1.0654  0.4965
 4503SOL     OW14407   6.518   3.772   1.552 -0.0233 -0.0868  0.3399
 4503SOL    HW114408   6.477   3.758   1.462 -0.4046 -0.5538  0.5799
 4503SOL    HW214409   6.471   3.847   1.598  1.7760  1.8587 -0.7974
 4504SOL     OW14410   5.368   1.731   3.549 -0.6043  0.4819 -0.3310
 4504SOL    HW114411   5.438   1.766   3.611  1.1577 -0.1453 -1.8605
 4504SOL    HW214412   5.406   1.656   3.495 -2.5301  0.0140 -1.1260
 4505SOL     OW14413   2.250   6.556   6.989  0.1275  0.1165 -0.0697
 4505SOL    HW114414   2.260   6.464   6.952 -3.3258  0.0508 -1.1802
 4505SOL    HW214415   2.287   6.623   6.925 -0.4651 -0.3389 -0.9005
 4506SOL     OW14416   4.153   0.423   1.004  0.3974  0.2792  0.4059
 4506SOL    HW114417   4.095   0.345   1.027  0.2646 -0.1865 -1.3373
 4506SOL    HW214418   4.100   0.508   1.014  0.1715  0.0623  1.1387
 4507SOL     OW14419   1.439   5.204   2.830 -0.0905  0.4503 -0.3628
 4507SOL    HW114420   1.358   5.148   2.849 -0.0287  0.5005  0.0724
 4507SOL    HW214421   1.448   5.274   2.901 -0.2655  1.1259 -0.9930
 4508SOL     OW14422   4.037   4.434   0.060 -0.7088 -0.1558 -1.5697
 4508SOL    HW114423   3.953   4.393   0.097 -1.2113  2.3663  0.3318
 4508SOL    HW214424   4.019   4.469  -0.031 -1.4771 -0.3933 -1.5168
 4509SOL     OW14425   3.043   1.858   3.582  0.1354  0.1372  0.3719
 4509SOL    HW114426   3.117   1.798   3.612  2.0273  2.1444  0.0125
 4509SOL    HW214427   2.997   1.897   3.662 -0.8484 -1.4031  0.5990
 4510SOL     OW14428   2.365   6.192   6.765  0.7525 -0.4247 -0.0022
 4510SOL    HW114429   2.350   6.209   6.668  1.7735  0.3798 -0.0408
 4510SOL    HW214430   2.280   6.161   6.807  0.5208 -1.7593 -1.3411
 4511SOL     OW14431   6.347   1.781   1.031  0.2245 -0.6259  0.1324
 4511SOL    HW114432   6.251   1.767   1.006  0.5647 -1.8304 -0.5709
 4511SOL    HW214433   6.376   1.711   1.096  0.7633 -0.5609 -0.0303
 4512SOL     OW14434   0.153   5.136   1.177  0.3863 -0.4707 -0.7762
 4512SOL    HW114435   0.092   5.070   1.220  1.8291 -1.0000  0.5731
 4512SOL    HW214436   0.107   5.224   1.168 -0.3508 -0.6561  0.8757
 4513SOL     OW14437   5.657   2.797   2.149  0.0708  0.2596 -0.0346
 4513SOL    HW114438   5.575   2.798   2.092 -0.4875  1.2074  0.7619
 4513SOL    HW214439   5.731   2.751   2.099 -0.9850 -0.8127 -0.6713
 4514SOL     OW14440   6.568   6.222   5.453  0.0419  0.4676  0.2462
 4514SOL    HW114441   6.488   6.164   5.469  0.2467 -0.1256 -0.7915
 4514SOL    HW214442   6.637   6.202   5.523 -0.8482  1.2524  1.3655
 4515SOL     OW14443   0.310   5.291   0.998 -0.1181  0.1942  0.4690
 4515SOL    HW114444   0.266   5.380   0.987  0.8070  1.0831  3.0751
 4515SOL    HW214445   0.242   5.222   1.022 -0.7629  0.2784 -1.0063
 4516SOL     OW14446   0.467   6.738   5.558  0.0751  0.0391  0.4072
 4516SOL    HW114447   0.445   6.672   5.629  0.6047 -0.0244  0.5154
 4516SOL    HW214448   0.540   6.701   5.499 -0.2630  0.1432 -0.0873
 4517SOL     OW14449   0.677   1.981   0.777  0.1915 -0.2553 -0.7719
 4517SOL    HW114450   0.742   2.041   0.731  0.9180  0.4036  1.0136
 4517SOL    HW214451   0.715   1.953   0.866 -1.6727 -0.4184  0.0166
 4518SOL     OW14452   0.200   2.036   1.331 -0.0676  0.1678  0.1285
 4518SOL    HW114453   0.154   2.064   1.415 -1.2368 -1.8178  0.2209
 4518SOL    HW214454   0.133   2.000   1.266  0.4765  3.6769 -2.6586
 4519SOL     OW14455   1.581   3.089   4.002  0.3832  0.0846  0.3131
 4519SOL    HW114456   1.681   3.096   4.003  0.4593 -0.8082 -0.1699
 4519SOL    HW214457   1.554   2.993   4.006 -0.4730  0.3367  0.8906
 4520SOL     OW14458   1.255   4.279   4.817  0.1042  0.2608  0.0025
 4520SOL    HW114459   1.305   4.193   4.809  2.4793  1.7621 -4.3969
 4520SOL    HW214460   1.158   4.264   4.796 -0.0799 -1.5972  1.8339
 4521SOL     OW14461   6.292   2.159   6.184  0.1203 -0.1438  0.0895
 4521SOL    HW114462   6.322   2.066   6.164 -0.7319 -0.1888 -1.0487
 4521SOL    HW214463   6.370   2.221   6.176  0.4622 -0.6090 -0.2477
 4522SOL     OW14464   4.628   6.558   3.525  0.1636 -0.3445  0.6094
 4522SOL    HW114465   4.558   6.603   3.471  0.5289  0.4782  0.8001
 4522SOL    HW214466   4.689   6.506   3.465  0.9070  1.0197  0.1396
 4523SOL     OW14467   5.372   3.475   6.929  0.3425  0.2357  0.4615
 4523SOL    HW114468   5.274   3.456   6.937  0.2747  1.2048  2.7235
 4523SOL    HW214469   5.410   3.421   6.854 -1.4823 -1.9071  0.9558
 4524SOL     OW14470   3.769   2.090   4.624 -0.1109  0.2679 -0.3877
 4524SOL    HW114471   3.781   2.033   4.705 -0.9345 -0.1940 -0.5840
 4524SOL    HW214472   3.727   2.176   4.649 -0.5171  0.0578 -0.3484
 4525SOL     OW14473   6.608   0.915   3.947  0.1421 -0.4953  0.0987
 4525SOL    HW114474   6.700   0.947   3.970 -0.0276 -0.7168  1.1401
 4525SOL    HW214475   6.603   0.816   3.959  0.3872 -0.8289 -2.1553
 4526SOL     OW14476   1.985   2.748   6.965 -0.2193 -0.7457  0.2619
 4526SOL    HW114477   2.053   2.675   6.974 -0.1694 -0.5053  2.4640
 4526SOL    HW214478   2.011   2.825   7.022 -0.8944  0.5414 -1.1006
 4527SOL     OW14479   4.577   4.792   0.832 -0.1415  0.0912  0.0342
 4527SOL    HW114480   4.481   4.768   0.839 -0.6944  2.0861 -0.2679
 4527SOL    HW214481   4.628   4.747   0.906 -1.4433 -0.2588  0.7401
 4528SOL     OW14482   4.317   4.941   6.748  0.0629  0.3408  0.2270
 4528SOL    HW114483   4.303   4.869   6.816 -0.6172  0.2723  0.0205
 4528SOL    HW214484   4.344   5.025   6.795 -0.8141  0.4088  0.6348
 4529SOL     OW14485   2.456   6.625   3.337  0.7124 -0.3327 -0.0117
 4529SOL    HW114486   2.376   6.670   3.377 -0.3115 -1.4834 -0.7063
 4529SOL    HW214487   2.495   6.683   3.266  1.1191  0.6747  0.9967
 4530SOL     OW14488   6.443   2.575   4.511  0.0807  0.1153 -0.6924
 4530SOL    HW114489   6.404   2.499   4.564  3.4316 -0.7794  0.7206
 4530SOL    HW214490   6.459   2.653   4.571  0.7640  0.3282 -1.1378
 4531SOL     OW14491   0.255   4.852   3.484  0.0062 -0.6032  0.8919
 4531SOL    HW114492   0.349   4.882   3.470 -0.4429  1.0458  1.1201
 4531SOL    HW214493   0.206   4.921   3.539 -1.2856 -1.4939  0.9087
 4532SOL     OW14494   1.910   1.399   1.612 -0.2902  0.1644 -0.6544
 4532SOL    HW114495   1.980   1.455   1.567  0.4088 -0.5860 -0.5224
 4532SOL    HW214496   1.945   1.306   1.626 -0.1505  0.5413  2.1369
 4533SOL     OW14497   4.712   6.678   1.044 -0.5019 -0.2286  0.3812
 4533SOL    HW114498   4.714   6.596   0.987 -0.1692 -1.5152  2.1461
 4533SOL    HW214499   4.617   6.706   1.059 -0.5811  0.4008 -1.1128
 4534SOL     OW14500   6.454   5.621   5.495 -0.7662  0.0695 -0.4140
 4534SOL    HW114501   6.460   5.602   5.593 -0.5145 -2.0616 -0.7797
 4534SOL    HW214502   6.536   5.669   5.465  0.1882 -1.2003  0.0742
 4535SOL     OW14503   4.401   6.443   3.246  0.5467 -0.4079  0.0001
 4535SOL    HW114504   4.309   6.456   3.209  0.4763 -1.9825 -0.4452
 4535SOL    HW214505   4.452   6.529   3.238 -0.3762  0.0651 -1.1869
 4536SOL     OW14506   0.018   5.879   4.135  0.4929  0.2389 -0.3458
 4536SOL    HW114507   0.107   5.858   4.094  0.7880  1.1295 -0.1805
 4536SOL    HW214508  -0.042   5.916   4.065  0.4819  0.2883 -0.3104
 4537SOL     OW14509   5.008   2.326   4.952  0.2640  0.0653  0.7316
 4537SOL    HW114510   5.102   2.338   4.921  0.3016 -0.6755  0.5408
 4537SOL    HW214511   5.003   2.343   5.051  0.1507  2.3917  0.3786
 4538SOL     OW14512   2.229   2.384   2.153  0.3398  0.9824 -0.3208
 4538SOL    HW114513   2.309   2.331   2.178 -1.5139 -1.3131  1.2031
 4538SOL    HW214514   2.167   2.327   2.098 -1.7283  1.4574  1.3574
 4539SOL     OW14515   3.792   5.205   2.080  0.0259  0.4568 -0.1925
 4539SOL    HW114516   3.812   5.257   1.997  0.3645  1.8272  0.7132
 4539SOL    HW214517   3.764   5.268   2.152 -1.1764 -0.8081  0.4715
 4540SOL     OW14518   5.031   3.965   6.174 -0.0970 -0.3277  0.1575
 4540SOL    HW114519   4.989   4.051   6.144  0.1456 -0.2876 -0.0695
 4540SOL    HW214520   4.965   3.891   6.163 -0.1770 -0.2327 -0.0190
 4541SOL     OW14521   6.179   0.460   3.051 -0.3683  0.0188 -0.0844
 4541SOL    HW114522   6.120   0.534   3.081 -1.8477 -1.1089 -0.0696
 4541SOL    HW214523   6.205   0.474   2.955  0.1110  0.9949  0.1819
 4542SOL     OW14524   4.128   5.365   4.306  0.4833 -0.0887  0.5943
 4542SOL    HW114525   4.192   5.440   4.290 -0.4972  1.0593  1.7821
 4542SOL    HW214526   4.042   5.402   4.342 -0.0632 -1.7821  1.1193
 4543SOL     OW14527   6.088   2.614   4.088 -0.2047  0.0266  0.5181
 4543SOL    HW114528   6.184   2.620   4.115 -0.1687  0.8472  0.2607
 4543SOL    HW214529   6.082   2.609   3.988 -0.4109 -0.5755  0.5613
 4544SOL     OW14530   5.910   4.208   6.113  0.0632  0.2989 -0.0710
 4544SOL    HW114531   5.884   4.238   6.021 -3.0117 -1.5048  0.0831
 4544SOL    HW214532   5.903   4.109   6.119  3.2174  0.0236  1.3497
 4545SOL     OW14533   4.431   5.038   1.125  0.3334  0.3894 -0.5012
 4545SOL    HW114534   4.357   4.974   1.105 -0.3318  0.6544  1.0037
 4545SOL    HW214535   4.404   5.130   1.098  1.1557  0.1423 -2.3388
 4546SOL     OW14536   2.018   0.236   1.945 -0.5959 -0.1919 -0.0976
 4546SOL    HW114537   2.006   0.138   1.927 -0.2338 -0.6363  1.8789
 4546SOL    HW214538   1.928   0.278   1.962 -0.8223 -0.0026 -1.6051
 4547SOL     OW14539   3.764   1.529   3.245 -0.0741  0.1521 -0.1412
 4547SOL    HW114540   3.848   1.515   3.297 -1.4651 -3.4100  1.4720
 4547SOL    HW214541   3.772   1.485   3.156  0.1203  0.8158 -0.4612
 4548SOL     OW14542   1.990   2.453   3.871 -0.4143  0.1368 -0.2292
 4548SOL    HW114543   1.928   2.444   3.792  0.1639  0.3717 -0.7164
 4548SOL    HW214544   2.048   2.372   3.877  1.8225  1.4755 -2.0481
 4549SOL     OW14545   5.703   2.680   4.605 -0.5721  0.1869 -0.4787
 4549SOL    HW114546   5.646   2.749   4.650 -1.3288 -1.2424  0.8484
 4549SOL    HW214547   5.672   2.667   4.511 -0.9156  1.0864 -0.5001
 4550SOL     OW14548   0.672   4.571   1.556 -0.0475 -0.4017 -0.2119
 4550SOL    HW114549   0.749   4.634   1.559 -0.1681 -0.2495 -0.2941
 4550SOL    HW214550   0.588   4.619   1.582 -0.0078 -0.7287  0.5509
 4551SOL     OW14551   0.343   3.198   0.022 -0.2482 -0.3245 -0.4666
 4551SOL    HW114552   0.353   3.108  -0.020  1.7653 -0.2331 -0.3069
 4551SOL    HW214553   0.428   3.222   0.069 -1.7789  0.3290  2.1897
 4552SOL     OW14554   0.148   4.189   5.785 -0.1319 -0.2191  0.2115
 4552SOL    HW114555   0.105   4.105   5.818 -0.1630 -0.4047 -0.2926
 4552SOL    HW214556   0.237   4.167   5.745  1.2367  0.3705  2.7742
 4553SOL     OW14557   5.158   4.510   0.671 -0.7986  0.2645 -0.1767
 4553SOL    HW114558   5.170   4.411   0.681  1.9114  0.5597  0.3463
 4553SOL    HW214559   5.213   4.543   0.594 -2.3924  1.2676 -0.9193
 4554SOL     OW14560   5.394   5.710   5.810 -0.3148  0.2472  0.2018
 4554SOL    HW114561   5.412   5.623   5.855 -3.6796  0.2599  1.8333
 4554SOL    HW214562   5.390   5.783   5.879  1.1460  1.5220 -0.9868
 4555SOL     OW14563   3.532   1.815   6.379  0.1156  0.9846  0.5244
 4555SOL    HW114564   3.516   1.895   6.322  2.5466  1.4092  0.3462
 4555SOL    HW214565   3.628   1.812   6.407  0.6427 -2.8738 -1.0502
 4556SOL     OW14566   4.210   0.105   3.959 -0.5398  0.6030  0.2244
 4556SOL    HW114567   4.160   0.136   3.878 -0.4515  0.2621  0.0365
 4556SOL    HW214568   4.287   0.049   3.931 -1.2925 -0.6524  0.5845
 4557SOL     OW14569   3.482   6.462   4.245 -0.0651  0.7604 -0.1303
 4557SOL    HW114570   3.548   6.494   4.313 -0.7531  0.2733  0.7783
 4557SOL    HW214571   3.418   6.535   4.223 -1.1879  0.2850  1.4013
 4558SOL     OW14572   1.016   4.452   1.041 -0.1892  0.1429  0.1364
 4558SOL    HW114573   0.946   4.381   1.034 -0.6163  0.5420  0.2590
 4558SOL    HW214574   1.042   4.463   1.137  0.8128 -0.7302 -0.0246
 4559SOL     OW14575   2.232   5.807   0.838  0.3882 -0.1527  0.0667
 4559SOL    HW114576   2.318   5.817   0.888  0.7050 -3.7239  0.5290
 4559SOL    HW214577   2.155   5.824   0.899  0.7666  0.3654  0.4035
 4560SOL     OW14578   1.301   2.606   6.065 -0.0287  0.2826 -0.3943
 4560SOL    HW114579   1.324   2.659   6.147  0.4876 -0.8353  0.2022
 4560SOL    HW214580   1.208   2.570   6.074 -0.9128  2.1595 -1.4019
 4561SOL     OW14581   1.092   5.447   6.340  0.5864  0.5219  0.3644
 4561SOL    HW114582   1.111   5.447   6.241  1.3859  0.7646  0.5092
 4561SOL    HW214583   1.140   5.523   6.383 -0.9634  1.3152  0.7346
 4562SOL     OW14584   3.989   3.823   3.369  0.1103 -0.3059 -0.2564
 4562SOL    HW114585   3.917   3.891   3.358  1.0915  0.9453  0.6914
 4562SOL    HW214586   4.031   3.833   3.459 -0.1961 -2.6885  0.2341
 4563SOL     OW14587   4.679   4.356   6.962  0.9089  0.1619 -0.2614
 4563SOL    HW114588   4.751   4.289   6.985  0.0786 -0.6440  0.0448
 4563SOL    HW214589   4.669   4.420   7.037 -0.2117 -1.0806  0.6949
 4564SOL     OW14590   6.280   3.961   0.040 -0.0503 -0.0344  0.4614
 4564SOL    HW114591   6.371   3.991   0.068 -0.2157  0.9365  0.0131
 4564SOL    HW214592   6.263   3.989  -0.055 -0.6597 -0.5651  0.4039
 4565SOL     OW14593   4.056   6.230   3.655 -0.2006 -0.1638 -0.0206
 4565SOL    HW114594   3.988   6.230   3.583  0.5518  0.1044 -0.7487
 4565SOL    HW214595   4.147   6.213   3.616 -0.0327 -2.3420  1.1309
 4566SOL     OW14596   0.439   0.058   2.198  0.0663 -0.2980 -0.5617
 4566SOL    HW114597   0.464   0.015   2.285 -0.4733 -0.3402 -0.4193
 4566SOL    HW214598   0.391  -0.008   2.141  1.9157 -0.7943 -1.6236
 4567SOL     OW14599   6.398   2.423   1.089 -0.0337 -0.2001  0.2033
 4567SOL    HW114600   6.316   2.412   1.145  1.4024  1.4502  2.8690
 4567SOL    HW214601   6.478   2.389   1.140  1.7846  4.1431  0.6614
 4568SOL     OW14602   3.315   4.938   4.805  0.2464  0.4049 -0.0955
 4568SOL    HW114603   3.314   5.016   4.743 -2.2269 -1.0812 -2.1432
 4568SOL    HW214604   3.346   4.857   4.756 -2.0151 -0.8664  0.4390
 4569SOL     OW14605   2.903   1.832   3.833  0.4133  0.0816  0.0527
 4569SOL    HW114606   2.875   1.738   3.810 -1.0128  0.2560  0.9676
 4569SOL    HW214607   2.858   1.860   3.918 -1.2269  2.4885 -1.4916
 4570SOL     OW14608   7.011   0.144   4.742 -0.1466  0.4059  0.1216
 4570SOL    HW114609   7.080   0.102   4.802 -0.9645  0.1396  0.8960
 4570SOL    HW214610   6.924   0.096   4.752 -0.7641  1.4658  0.0559
 4571SOL     OW14611   3.470   3.346   4.490  0.1024 -0.1603 -0.2832
 4571SOL    HW114612   3.416   3.391   4.419 -1.7856 -0.9102  0.6149
 4571SOL    HW214613   3.541   3.408   4.523 -2.4539  2.2655  1.0059
 4572SOL     OW14614   4.068   3.694   2.483 -0.0271 -0.2054  0.3329
 4572SOL    HW114615   3.996   3.661   2.544  0.3198 -0.7510  0.4520
 4572SOL    HW214616   4.047   3.788   2.455 -0.1418  0.0973  1.3695
 4573SOL     OW14617   5.605   6.939   0.926  0.0394 -0.3161 -0.3022
 4573SOL    HW114618   5.526   6.923   0.985  1.0195  0.7332  1.3542
 4573SOL    HW214619   5.669   6.863   0.935 -1.2081 -1.7378 -2.5075
 4574SOL     OW14620   6.604   4.954   2.136 -0.6112  0.2593 -0.2380
 4574SOL    HW114621   6.565   4.879   2.084 -0.6033  1.2298 -1.6920
 4574SOL    HW214622   6.660   4.917   2.210 -1.2279 -1.1462 -0.4334
 4575SOL     OW14623   6.327   5.011   3.852 -0.7835 -0.2316  0.1070
 4575SOL    HW114624   6.284   4.931   3.895  1.1079 -2.0653 -1.1917
 4575SOL    HW214625   6.307   5.010   3.754 -1.4993  1.4668  0.2119
 4576SOL     OW14626   2.996   6.058   4.736 -0.2312  0.1444  0.3771
 4576SOL    HW114627   3.027   5.966   4.759 -1.6340 -0.3092  0.5947
 4576SOL    HW214628   2.896   6.062   4.747 -0.3733  1.2590 -1.0790
 4577SOL     OW14629   2.738   5.534   4.474  0.3236 -0.2950 -0.1031
 4577SOL    HW114630   2.692   5.462   4.421  0.9249  0.3906 -1.6158
 4577SOL    HW214631   2.823   5.498   4.512  0.8711 -0.2919 -1.2671
 4578SOL     OW14632   4.931   6.487   2.331 -0.5582 -0.3891 -0.0856
 4578SOL    HW114633   4.869   6.458   2.258  0.7219 -1.9397 -0.6239
 4578SOL    HW214634   4.963   6.580   2.313 -0.4385 -0.6717 -1.3966
 4579SOL     OW14635   6.634   1.947   1.933  0.1961 -0.1649  0.0307
 4579SOL    HW114636   6.730   1.962   1.909  0.6577 -1.4130  0.9892
 4579SOL    HW214637   6.585   1.914   1.852  0.5144  0.6444 -0.5118
 4580SOL     OW14638   0.609   3.788   0.922  0.6141  0.1845 -0.2108
 4580SOL    HW114639   0.569   3.801   1.013  0.4408 -0.3480 -0.2110
 4580SOL    HW214640   0.676   3.715   0.924  0.9305  0.4650 -0.4176
 4581SOL     OW14641   1.500   4.350   3.580  0.4732  0.0772  0.0049
 4581SOL    HW114642   1.428   4.299   3.627 -0.7362  0.3948 -1.4049
 4581SOL    HW214643   1.589   4.310   3.602 -0.1063 -0.3266  1.7931
 4582SOL     OW14644   5.198   6.283   3.426 -0.6341 -0.5591  0.5474
 4582SOL    HW114645   5.138   6.332   3.364 -0.0433 -1.7854 -1.0867
 4582SOL    HW214646   5.245   6.348   3.486 -1.2513  0.6817 -0.2713
 4583SOL     OW14647   2.680   6.754   5.072  0.3006 -0.2278  0.3209
 4583SOL    HW114648   2.714   6.672   5.026  0.8282  0.3916 -0.4207
 4583SOL    HW214649   2.603   6.792   5.021 -0.7010 -0.8891  1.2876
 4584SOL     OW14650   5.755   5.785   6.076 -0.4834 -0.2888 -0.4587
 4584SOL    HW114651   5.742   5.715   6.006  0.0220  0.0469 -0.8867
 4584SOL    HW214652   5.851   5.790   6.101 -0.5571  0.0745 -0.2402
 4585SOL     OW14653   0.702   1.072   1.212  0.4977 -0.4674  0.0170
 4585SOL    HW114654   0.777   1.134   1.186 -0.6613  0.5739 -0.9395
 4585SOL    HW214655   0.633   1.124   1.263 -0.5327 -0.9463 -0.8627
 4586SOL     OW14656   0.541   6.552   2.174 -0.3244 -0.0355 -0.0300
 4586SOL    HW114657   0.568   6.560   2.270  0.4741 -1.4679 -0.1133
 4586SOL    HW214658   0.599   6.486   2.128 -1.3868 -0.1693 -1.2521
 4587SOL     OW14659   4.640   5.183   6.686 -0.0529  0.6424 -0.2507
 4587SOL    HW114660   4.729   5.185   6.640 -1.4447 -0.6538 -3.2779
 4587SOL    HW214661   4.636   5.104   6.748  0.7697  0.4904 -0.3850
 4588SOL     OW14662   3.531   3.325   5.041 -0.2681  0.7193  0.1015
 4588SOL    HW114663   3.514   3.395   4.972 -0.0021  0.7712  0.0877
 4588SOL    HW214664   3.492   3.238   5.011 -1.7789  1.1480  0.7060
 4589SOL     OW14665   2.273   2.596   4.501 -0.0988 -0.5815  0.8442
 4589SOL    HW114666   2.325   2.664   4.450  0.7587  0.9351  3.5311
 4589SOL    HW214667   2.313   2.506   4.487  0.0889 -0.2431 -1.0790
 4590SOL     OW14668   3.224   1.134   4.145 -0.4990  0.0590  0.0657
 4590SOL    HW114669   3.205   1.174   4.056  1.3912  1.4229  0.2140
 4590SOL    HW214670   3.312   1.086   4.141 -0.2277  0.4325  1.2738
 4591SOL     OW14671   5.171   4.952   4.940  0.6431 -0.3128  0.1583
 4591SOL    HW114672   5.110   5.031   4.937  1.0000 -0.0458 -0.2970
 4591SOL    HW214673   5.262   4.981   4.971  1.3707 -0.1150 -1.9714
 4592SOL     OW14674   3.750   1.850   6.090  0.4064 -0.1506  0.5692
 4592SOL    HW114675   3.734   1.948   6.088 -0.6738 -0.3123 -0.7003
 4592SOL    HW214676   3.785   1.823   6.179  0.3329  1.3266  1.0660
 4593SOL     OW14677   4.152   4.970   1.187 -0.1344 -0.0477 -0.8145
 4593SOL    HW114678   4.118   4.977   1.094 -1.6803 -1.1799 -0.3673
 4593SOL    HW214679   4.196   4.881   1.201 -1.0812 -0.4263 -0.1225
 4594SOL     OW14680   4.071   1.226   3.183  0.2626 -0.2384 -0.4398
 4594SOL    HW114681   4.133   1.303   3.197 -0.5380  0.4781 -0.7198
 4594SOL    HW214682   4.106   1.146   3.230  1.4074  0.1398 -0.6144
 4595SOL     OW14683   4.209   2.965   5.323 -0.2459  0.8292 -0.1741
 4595SOL    HW114684   4.176   3.052   5.288 -0.2471  0.6503 -0.6229
 4595SOL    HW214685   4.139   2.894   5.309 -0.0799  0.6674 -0.1954
 4596SOL     OW14686   6.397   0.594   2.122  0.4692 -0.3257  0.6692
 4596SOL    HW114687   6.438   0.504   2.132  0.2866 -0.2770  1.9448
 4596SOL    HW214688   6.322   0.590   2.055 -0.7888 -1.5689  2.0841
 4597SOL     OW14689   1.514   3.707   5.103  0.2243  0.1818 -0.2297
 4597SOL    HW114690   1.528   3.677   5.009  3.1367 -1.5222  0.6251
 4597SOL    HW214691   1.540   3.803   5.112 -0.4135  0.4550 -1.1967
 4598SOL     OW14692   2.577   5.479   5.880  0.5317  0.1419 -0.0485
 4598SOL    HW114693   2.614   5.530   5.958 -0.3554  0.2559  0.3007
 4598SOL    HW214694   2.607   5.384   5.885  0.1485  0.0547  0.6450
 4599SOL     OW14695   2.886   6.316   6.358  0.3268  0.2243  0.4029
 4599SOL    HW114696   2.838   6.247   6.412 -0.8094  0.8597  0.2408
 4599SOL    HW214697   2.848   6.406   6.377  0.1446  0.5172 -1.1496
 4600SOL     OW14698   2.834   4.770   0.222 -0.0439 -0.2899 -0.2731
 4600SOL    HW114699   2.875   4.692   0.269  1.6039 -0.0269 -1.1992
 4600SOL    HW214700   2.852   4.854   0.275 -0.5804 -0.3339 -0.0072
 4601SOL     OW14701   0.500   6.885   4.722  0.2934  0.5202 -0.0025
 4601SOL    HW114702   0.597   6.863   4.714  0.3400  0.0926  1.3284
 4601SOL    HW214703   0.446   6.803   4.704  0.0995  0.9891 -1.7339
 4602SOL     OW14704   1.245   6.174   2.799 -0.0928 -0.0658  0.6919
 4602SOL    HW114705   1.151   6.149   2.818 -0.5731  0.4448 -0.8359
 4602SOL    HW214706   1.251   6.273   2.787  0.8841  0.0599  1.9422
 4603SOL     OW14707   2.882   1.261   0.009 -0.0864 -0.3263  0.6718
 4603SOL    HW114708   2.910   1.217  -0.076  0.8319 -1.3774  1.4857
 4603SOL    HW214709   2.807   1.325  -0.009  1.9437  1.6563 -1.4028
 4604SOL     OW14710   0.595   0.115   4.065 -0.0300  0.1699 -0.4832
 4604SOL    HW114711   0.588   0.069   3.977  1.9299 -0.1903 -0.4865
 4604SOL    HW214712   0.688   0.149   4.078 -0.8875  2.3202  0.4313
 4605SOL     OW14713   4.855   5.696   5.943  0.0221  0.5202  0.2587
 4605SOL    HW114714   4.759   5.679   5.918  0.4208 -0.6245 -0.5478
 4605SOL    HW214715   4.881   5.637   6.019  0.5732 -0.4371 -0.6517
 4606SOL     OW14716   5.849   5.852   4.489  0.2603  0.0321  0.5275
 4606SOL    HW114717   5.911   5.803   4.550 -0.3375 -0.1648  0.9878
 4606SOL    HW214718   5.754   5.833   4.516 -0.0063  0.0910 -0.3491
 4607SOL     OW14719   1.106   4.564   4.841  0.3440 -0.5355 -0.7044
 4607SOL    HW114720   1.159   4.484   4.813  0.1176 -1.6297  1.7249
 4607SOL    HW214721   1.059   4.602   4.761  1.2003 -2.2509 -2.1005
 4608SOL     OW14722   1.431   4.058   0.109  0.5692  0.3236 -0.4581
 4608SOL    HW114723   1.340   4.088   0.139  1.6533  3.2296  0.1401
 4608SOL    HW214724   1.501   4.107   0.160  2.4836  0.3516 -2.9605
 4609SOL     OW14725   3.027   1.438   0.562 -0.2171 -0.1437 -0.2988
 4609SOL    HW114726   3.052   1.439   0.465 -2.6509 -1.9634 -1.0457
 4609SOL    HW214727   2.940   1.485   0.574  0.3751  0.6341  1.1546
 4610SOL     OW14728   6.580   2.884   0.166  0.3237  0.6849  0.5055
 4610SOL    HW114729   6.483   2.895   0.189  0.1615  1.5861 -0.5262
 4610SOL    HW214730   6.591   2.813   0.097  0.5577 -0.3094  1.5258
 4611SOL     OW14731   1.005   5.409   4.184  0.2767 -0.0347 -0.6334
 4611SOL    HW114732   0.936   5.446   4.247 -0.4954 -0.5092 -1.1766
 4611SOL    HW214733   0.980   5.434   4.090  0.2644 -1.1173 -0.9257
 4612SOL     OW14734   0.625   0.037   0.546  0.8309 -0.1405  0.0155
 4612SOL    HW114735   0.693   0.063   0.477  0.7946 -1.0767 -0.4004
 4612SOL    HW214736   0.662   0.053   0.637  1.0917  0.6093 -0.2180
 4613SOL     OW14737   5.777   4.535   2.290 -0.2414 -0.0532  0.0929
 4613SOL    HW114738   5.741   4.450   2.251 -1.6282  0.8592 -0.7207
 4613SOL    HW214739   5.724   4.559   2.372  0.3168 -0.0960  0.4714
 4614SOL     OW14740   1.227   3.321   1.266 -0.3166 -0.0350 -0.3880
 4614SOL    HW114741   1.194   3.385   1.335 -0.3192 -1.9941  1.5289
 4614SOL    HW214742   1.323   3.338   1.247 -0.6280  1.3081 -0.8780
 4615SOL     OW14743   5.310   2.356   6.933 -0.1611  0.4406 -0.0552
 4615SOL    HW114744   5.377   2.351   6.858  1.1921  2.7839  0.8989
 4615SOL    HW214745   5.253   2.436   6.920 -0.5747  0.3068  0.9064
 4616SOL     OW14746   4.935   1.740   6.514 -0.0825  0.4874  0.6751
 4616SOL    HW114747   4.953   1.824   6.565  2.7307 -0.8685  2.1714
 4616SOL    HW214748   4.918   1.665   6.578  0.9072 -0.7494 -0.4314
 4617SOL     OW14749   5.856   4.214   0.284 -0.5115 -0.2393 -0.2076
 4617SOL    HW114750   5.784   4.145   0.291 -1.3877  0.7026  0.3297
 4617SOL    HW214751   5.844   4.283   0.355  0.5958  0.2508 -0.4642
 4618SOL     OW14752   1.715   2.714   6.948  0.5917 -0.2449  0.5226
 4618SOL    HW114753   1.704   2.632   6.891  0.1289 -0.8335  1.4352
 4618SOL    HW214754   1.810   2.745   6.943  0.6518 -0.5116 -0.2540
 4619SOL     OW14755   5.464   2.317   6.730  0.2599  0.5501  0.5993
 4619SOL    HW114756   5.450   2.294   6.634  1.0806 -0.5157  0.7234
 4619SOL    HW214757   5.555   2.287   6.759  0.1519  1.1651  1.6224
 4620SOL     OW14758   6.095   4.817   0.507 -0.2721  0.0384  0.0046
 4620SOL    HW114759   6.181   4.824   0.455 -0.6021 -0.0835 -0.5624
 4620SOL    HW214760   6.108   4.860   0.596 -0.2610  2.0396 -0.9025
 4621SOL     OW14761   1.867   6.994   6.922  0.8321 -0.0046 -0.4119
 4621SOL    HW114762   1.942   6.929   6.908 -0.0347 -1.4745  1.4046
 4621SOL    HW214763   1.831   6.984   7.015 -1.0007  1.3307 -0.9235
 4622SOL     OW14764   2.257   5.773   0.497 -0.0969 -0.0157 -0.3665
 4622SOL    HW114765   2.206   5.708   0.554 -1.6195 -0.4046 -2.0860
 4622SOL    HW214766   2.335   5.727   0.456  1.0500  0.2793  1.3603
 4623SOL     OW14767   6.630   2.948   4.626  0.0338  0.4610 -0.2416
 4623SOL    HW114768   6.697   2.985   4.690  0.5314 -1.9493  0.7316
 4623SOL    HW214769   6.676   2.891   4.558 -0.8284  0.4687 -0.8515
 4624SOL     OW14770   4.148   6.309   5.811  0.1998  0.3600  0.9203
 4624SOL    HW114771   4.081   6.241   5.840  0.2176  0.6167  1.5845
 4624SOL    HW214772   4.239   6.267   5.810  0.2658  0.4674  1.7088
 4625SOL     OW14773   1.406   3.280   0.239  1.0261  0.3304 -0.0533
 4625SOL    HW114774   1.379   3.310   0.148  0.9892  0.2215 -0.0781
 4625SOL    HW214775   1.402   3.358   0.302  2.6196  0.7922 -0.4843
 4626SOL     OW14776   0.005   5.203   2.175  0.0454  0.9118 -0.4366
 4626SOL    HW114777  -0.059   5.226   2.248 -1.6518 -0.5347 -1.3911
 4626SOL    HW214778   0.087   5.161   2.213 -0.0011  1.8405  0.7401
 4627SOL     OW14779   6.503   0.186   4.025 -0.2174  0.0849  0.3668
 4627SOL    HW114780   6.455   0.218   3.943 -0.3164 -0.4044  0.2274
 4627SOL    HW214781   6.541   0.095   4.008 -0.1414  0.0277  0.8255
 4628SOL     OW14782   5.590   2.745   3.036 -0.1376  0.2633 -0.2954
 4628SOL    HW114783   5.503   2.696   3.035  1.2620 -2.4619  0.8026
 4628SOL    HW214784   5.629   2.745   2.944 -1.1560  1.3848 -0.7680
 4629SOL     OW14785   5.641   6.095   3.950  0.6490 -0.2324 -0.1545
 4629SOL    HW114786   5.688   6.104   4.037  0.7136 -0.3707 -0.1739
 4629SOL    HW214787   5.629   5.998   3.929 -0.1563 -0.2032  0.1300
 4630SOL     OW14788   1.698   6.416   1.525  0.0449 -0.1198 -0.1156
 4630SOL    HW114789   1.622   6.452   1.470 -0.7495 -0.3636  0.7968
 4630SOL    HW214790   1.665   6.339   1.580  0.7830  0.2418  0.8446
 4631SOL     OW14791   0.848   0.803   2.788  0.0294 -0.1572 -0.3584
 4631SOL    HW114792   0.885   0.786   2.879 -1.0926  0.3826  0.2106
 4631SOL    HW214793   0.813   0.717   2.750  2.2823 -0.8111 -1.1490
 4632SOL     OW14794   4.981   6.993   6.215 -0.5144  0.1231  0.1572
 4632SOL    HW114795   4.930   7.077   6.196 -0.4990 -0.0457 -0.6415
 4632SOL    HW214796   4.967   6.928   6.140 -0.5683 -0.6102  0.7896
 4633SOL     OW14797   6.253   3.225   5.215  0.3120 -0.0216 -0.2249
 4633SOL    HW114798   6.262   3.205   5.312 -0.5765  0.4587 -0.0331
 4633SOL    HW214799   6.200   3.153   5.170  0.7317 -0.2491 -0.3552
 4634SOL     OW14800   3.149   4.226   6.979 -0.1283 -0.2109  0.1349
 4634SOL    HW114801   3.098   4.294   7.032 -1.1501  0.4558 -1.6161
 4634SOL    HW214802   3.221   4.271   6.927  1.2997 -0.9497  1.4168
 4635SOL     OW14803   4.127   2.661   0.762  0.4685  0.0198  0.0026
 4635SOL    HW114804   4.032   2.694   0.768  0.3886  0.2286 -1.7390
 4635SOL    HW214805   4.174   2.680   0.848 -0.7426  0.9862  0.4937
 4636SOL     OW14806   0.774   5.524   6.746 -0.2056 -0.2984 -0.4569
 4636SOL    HW114807   0.780   5.424   6.756  0.3005 -0.2600 -0.3297
 4636SOL    HW214808   0.821   5.551   6.662 -0.9531 -0.2306 -0.8638
 4637SOL     OW14809   0.866   6.442   5.760 -0.2961 -0.0062  0.2545
 4637SOL    HW114810   0.793   6.506   5.784  1.7312  2.7811 -0.4784
 4637SOL    HW214811   0.832   6.377   5.692 -1.6627  2.3344 -1.4523
 4638SOL     OW14812   4.869   5.801   1.825 -0.3031 -0.0327 -0.0793
 4638SOL    HW114813   4.938   5.833   1.890  1.0573 -1.9578 -0.4997
 4638SOL    HW214814   4.907   5.729   1.768 -2.5558 -0.8783 -0.6336
 4639SOL     OW14815   7.015   0.905   6.199 -0.3653 -0.7512 -0.1863
 4639SOL    HW114816   7.082   0.938   6.266  0.8433 -0.6127 -1.4015
 4639SOL    HW214817   7.063   0.867   6.120 -1.7319 -0.7023 -1.0844
 4640SOL     OW14818   6.703   0.501   4.689 -0.1408 -0.0434  0.4440
 4640SOL    HW114819   6.661   0.474   4.775  0.0991  1.0023  0.9074
 4640SOL    HW214820   6.791   0.454   4.679 -0.6320 -0.9448  0.2708
 4641SOL     OW14821   1.335   3.970   3.814  0.0465  0.3845 -0.4349
 4641SOL    HW114822   1.299   4.048   3.764  1.3731  0.4546 -1.3298
 4641SOL    HW214823   1.423   3.942   3.774  1.5160  0.8566  2.2673
 4642SOL     OW14824   5.193   6.075   4.051 -0.2413  0.1555 -0.2919
 4642SOL    HW114825   5.139   6.004   4.004 -3.9159  2.6748 -0.3627
 4642SOL    HW214826   5.266   6.106   3.991 -0.2836 -1.6639 -1.3558
 4643SOL     OW14827   3.953   3.426   0.323  0.8093 -0.0664 -0.4899
 4643SOL    HW114828   4.015   3.413   0.401  0.8847 -2.1147 -0.8238
 4643SOL    HW214829   3.877   3.485   0.349  1.3679  0.0926  0.8263
 4644SOL     OW14830   1.370   4.408   6.300 -0.3837 -0.5058  0.4864
 4644SOL    HW114831   1.436   4.474   6.335 -0.9689 -0.8126  2.2598
 4644SOL    HW214832   1.352   4.338   6.370 -0.8608 -1.7311 -0.8145
 4645SOL     OW14833   1.437   5.238   5.103  0.1949  0.2427 -0.1811
 4645SOL    HW114834   1.349   5.255   5.147  0.2426  0.1384 -0.0444
 4645SOL    HW214835   1.487   5.324   5.094  1.2033 -0.0397  2.1454
 4646SOL     OW14836   4.726   1.083   0.498 -0.1366 -0.1270 -0.6453
 4646SOL    HW114837   4.683   1.171   0.517  0.4937  0.9377 -3.6431
 4646SOL    HW214838   4.787   1.059   0.574  0.3795  2.5168 -0.1230
 4647SOL     OW14839   5.390   0.068   4.557  0.3360 -0.4265 -0.6216
 4647SOL    HW114840   5.439  -0.011   4.595  3.0062  1.8993  1.1418
 4647SOL    HW214841   5.292   0.057   4.573  0.5645 -3.4058 -0.6320
 4648SOL     OW14842   3.477   0.440   4.094 -0.6391 -0.4385  1.0053
 4648SOL    HW114843   3.571   0.409   4.108 -0.6106 -0.4236  0.8419
 4648SOL    HW214844   3.419   0.362   4.071 -0.5914 -0.3885  0.7174
 4649SOL     OW14845   4.403   6.133   0.615  0.2435  0.4111  0.9865
 4649SOL    HW114846   4.394   6.176   0.525  0.7624 -0.8046  0.3357
 4649SOL    HW214847   4.317   6.088   0.639  0.1422  0.6376  1.0549
 4650SOL     OW14848   0.913   5.790   2.709  0.1469  0.1317  0.3678
 4650SOL    HW114849   0.963   5.748   2.785 -1.1598 -0.2620  1.0375
 4650SOL    HW214850   0.830   5.834   2.744 -1.6364 -1.8943 -1.0538
 4651SOL     OW14851   5.606   0.956   0.094  0.4653 -0.5053 -0.4498
 4651SOL    HW114852   5.673   0.990   0.161 -0.5154  1.5606 -0.4482
 4651SOL    HW214853   5.546   0.890   0.138  0.3286  0.2408  0.5276
 4652SOL     OW14854   0.091   5.555   6.339 -0.3120  0.8569  0.4053
 4652SOL    HW114855   0.113   5.585   6.247  1.4760  0.3232  0.6230
 4652SOL    HW214856   0.138   5.613   6.406 -0.8916  0.7034  0.9602
 4653SOL     OW14857   3.378   5.411   0.641 -0.3129  0.3482 -0.0888
 4653SOL    HW114858   3.286   5.448   0.659 -1.5767 -2.1280 -0.9279
 4653SOL    HW214859   3.414   5.372   0.725 -1.2005 -0.9621 -0.2832
 4654SOL     OW14860   2.178   1.418   6.581  0.2465  0.1050 -0.4208
 4654SOL    HW114861   2.155   1.498   6.526 -0.8443 -1.2453 -2.0492
 4654SOL    HW214862   2.266   1.380   6.549 -0.5350 -0.8578 -1.5274
 4655SOL     OW14863   6.608   4.100   4.799 -0.2673 -0.1440 -0.4426
 4655SOL    HW114864   6.636   4.070   4.891  0.5510  1.3106 -0.1893
 4655SOL    HW214865   6.510   4.085   4.788 -0.4277 -0.1159  0.7634
 4656SOL     OW14866   1.623   0.575   1.328  0.0285 -0.1397  0.1339
 4656SOL    HW114867   1.685   0.497   1.335  1.1259  0.6878 -0.0968
 4656SOL    HW214868   1.664   0.645   1.270 -1.1823  0.3917 -0.1166
 4657SOL     OW14869   0.261   6.899   5.439 -0.0544 -0.1732 -0.0615
 4657SOL    HW114870   0.346   6.851   5.462 -0.7457 -1.6354 -0.4431
 4657SOL    HW214871   0.283   6.982   5.389  1.1944  0.0345  0.7662
 4658SOL     OW14872   5.659   1.388   3.556  0.0034 -0.1340  0.3863
 4658SOL    HW114873   5.711   1.325   3.498  0.5332  0.3267  0.3546
 4658SOL    HW214874   5.603   1.335   3.619 -0.4469 -0.6397 -0.4200
 4659SOL     OW14875   2.387   2.737   4.302  0.2026  0.6473  0.4240
 4659SOL    HW114876   2.368   2.788   4.218 -2.4139  0.3910  0.7938
 4659SOL    HW214877   2.447   2.660   4.281  0.7734  1.4181 -0.9115
 4660SOL     OW14878   0.752   0.149   6.819  0.3566  0.0172  0.1836
 4660SOL    HW114879   0.805   0.111   6.895 -1.2475 -0.2795  1.1912
 4660SOL    HW214880   0.734   0.078   6.752 -0.2958 -0.3394  0.7263
 4661SOL     OW14881   3.851   3.008   4.053  0.1008 -0.1381 -0.9041
 4661SOL    HW114882   3.880   3.089   4.001  0.9559  1.2270  1.5315
 4661SOL    HW214883   3.760   3.024   4.090  0.7532  0.2945  0.5941
 4662SOL     OW14884   5.986   5.743   4.255 -0.2520 -0.9904 -0.5923
 4662SOL    HW114885   5.957   5.793   4.336  0.4615  0.4770 -1.2170
 4662SOL    HW214886   5.924   5.666   4.239 -0.6970 -0.9983  1.0341
 4663SOL     OW14887   1.983   2.882   4.095  0.6347 -0.1013 -0.3393
 4663SOL    HW114888   2.046   2.869   4.172  2.4249  1.9417 -1.3661
 4663SOL    HW214889   2.010   2.823   4.020 -0.4688 -1.3117  0.1777
 4664SOL     OW14890   4.694   6.493   0.828  0.1162 -0.6561  0.0154
 4664SOL    HW114891   4.793   6.487   0.816  0.2873  2.1598 -0.6024
 4664SOL    HW214892   4.648   6.447   0.752  1.0004  0.1284 -1.0221
 4665SOL     OW14893   6.195   0.484   1.036  0.1186 -0.4268 -0.2244
 4665SOL    HW114894   6.151   0.508   1.122  2.2380 -2.8533  1.6789
 4665SOL    HW214895   6.151   0.402   0.998  1.3819 -1.4140  0.4074
 4666SOL     OW14896   2.035   1.722   0.310 -0.0573  0.5395 -0.0033
 4666SOL    HW114897   1.980   1.753   0.388  1.2056  2.0625  0.3252
 4666SOL    HW214898   2.006   1.771   0.228  0.0958  0.5390 -0.0563
 4667SOL     OW14899   6.942   6.810   3.642  0.0280 -0.6253  0.0490
 4667SOL    HW114900   6.917   6.897   3.683  0.5219 -0.2700 -0.3987
 4667SOL    HW214901   6.941   6.818   3.543  1.2494 -0.7860  0.0076
 4668SOL     OW14902   6.035   5.663   4.595 -0.1817  0.6584 -0.5404
 4668SOL    HW114903   6.115   5.680   4.538  0.5528  0.5198  0.4162
 4668SOL    HW214904   6.064   5.649   4.690 -1.1977 -0.9776 -0.4270
 4669SOL     OW14905   2.296   1.672   0.188  0.5092 -0.4865 -1.2970
 4669SOL    HW114906   2.206   1.703   0.159  0.2382 -1.7673 -1.9102
 4669SOL    HW214907   2.286   1.600   0.257  1.1354  1.9134  1.4804
 4670SOL     OW14908   2.891   0.430   6.299  0.1820 -0.6919  0.5559
 4670SOL    HW114909   2.902   0.395   6.206  1.0978  0.5456  0.1838
 4670SOL    HW214910   2.957   0.385   6.359  0.8180 -0.1909  0.2400
 4671SOL     OW14911   6.601   1.606   2.810  0.4899  0.3271  0.0246
 4671SOL    HW114912   6.657   1.620   2.892  1.7137 -0.6634 -0.5915
 4671SOL    HW214913   6.554   1.690   2.786  0.6930  0.8312  1.3271
 4672SOL     OW14914   2.526   2.584   4.678  0.9309  0.4154  0.1461
 4672SOL    HW114915   2.518   2.611   4.774  0.9296  0.7750  0.0484
 4672SOL    HW214916   2.454   2.628   4.625  2.0706  1.7810 -0.3399
 4673SOL     OW14917   3.180   6.302   2.124 -0.1265  0.4253  0.2603
 4673SOL    HW114918   3.211   6.396   2.111  0.2472  0.3256  0.3922
 4673SOL    HW214919   3.232   6.242   2.064  0.4946  0.1586  1.0468
 4674SOL     OW14920   4.680   0.209   6.849  0.0933  0.6447  0.5104
 4674SOL    HW114921   4.762   0.200   6.905 -1.3426  0.1609  2.6255
 4674SOL    HW214922   4.627   0.124   6.855 -0.7706  1.0948 -0.5194
 4675SOL     OW14923   0.800   3.939   0.527  0.2892 -0.0586  0.0106
 4675SOL    HW114924   0.753   4.025   0.545  0.7114  0.3709 -0.8633
 4675SOL    HW214925   0.892   3.943   0.565 -0.1840 -0.7021  1.2689
 4676SOL     OW14926   1.616   3.448   2.411  0.1392  0.4190  0.0750
 4676SOL    HW114927   1.580   3.461   2.503 -0.3930 -0.1950 -0.0378
 4676SOL    HW214928   1.605   3.352   2.384 -1.3598  0.9337 -1.3102
 4677SOL     OW14929   6.790   3.333   1.488  0.2641 -0.6864 -0.4390
 4677SOL    HW114930   6.746   3.243   1.485  0.0695 -0.6279  0.4119
 4677SOL    HW214931   6.726   3.401   1.524 -0.0986  0.1303 -2.5086
 4678SOL     OW14932   1.521   1.327   0.270 -0.2142  0.5329 -0.2287
 4678SOL    HW114933   1.506   1.349   0.366  0.5259  1.4972 -0.3228
 4678SOL    HW214934   1.439   1.282   0.233 -0.3352 -0.2697  0.9541
 4679SOL     OW14935   4.886   0.453   1.796  0.4366  0.3888 -0.4032
 4679SOL    HW114936   4.880   0.540   1.746  0.5410 -0.0928 -1.2854
 4679SOL    HW214937   4.982   0.429   1.810  0.4811  1.8939  2.5624
 4680SOL     OW14938   4.379   4.278   5.725  0.0334  0.5529  0.0537
 4680SOL    HW114939   4.451   4.346   5.736 -0.1124  1.1639 -2.2458
 4680SOL    HW214940   4.290   4.321   5.737 -0.0201  0.4415  0.0589
 4681SOL     OW14941   5.083   5.017   2.123 -0.1231  0.2025  0.2831
 4681SOL    HW114942   5.026   4.946   2.082 -0.4690 -0.1440  1.3446
 4681SOL    HW214943   5.149   4.975   2.185 -1.1570  0.8629  1.9069
 4682SOL     OW14944   2.508   4.089   6.473  0.8696 -0.0815  0.0183
 4682SOL    HW114945   2.537   4.073   6.378  0.7525 -0.6149  0.0716
 4682SOL    HW214946   2.497   4.002   6.520 -3.0251 -0.0902 -0.6151
 4683SOL     OW14947   6.341   3.766   3.768 -0.2078  0.1788 -0.2567
 4683SOL    HW114948   6.259   3.784   3.714 -0.7542 -0.5822  0.2976
 4683SOL    HW214949   6.382   3.852   3.796 -0.1855  0.5850 -1.4593
 4684SOL     OW14950   4.850   1.678   0.783 -0.1317 -0.9271  0.2339
 4684SOL    HW114951   4.869   1.717   0.872 -1.2889 -0.0921  0.1280
 4684SOL    HW214952   4.929   1.623   0.753  0.1317 -1.4898  1.8927
 4685SOL     OW14953   2.915   3.697   3.764 -0.1260  0.0052 -0.1995
 4685SOL    HW114954   3.007   3.669   3.791 -0.5950 -0.4484  0.9496
 4685SOL    HW214955   2.921   3.782   3.711  0.8311  0.9038  1.2656
 4686SOL     OW14956   2.745   6.826   5.414  0.0193 -0.1053  0.3370
 4686SOL    HW114957   2.818   6.876   5.369  0.0085  0.9166  1.3930
 4686SOL    HW214958   2.785   6.760   5.478  0.0241 -0.4863 -0.0576
 4687SOL     OW14959   1.106   6.456   2.222  0.2313 -0.3181 -0.7853
 4687SOL    HW114960   1.071   6.500   2.305  1.5900  0.4370 -0.5930
 4687SOL    HW214961   1.158   6.375   2.247  0.6361 -0.0932 -0.8932
 4688SOL     OW14962   4.691   0.693   5.712 -0.0965  0.4541 -0.4307
 4688SOL    HW114963   4.637   0.772   5.683 -1.5754  0.3940  1.8764
 4688SOL    HW214964   4.647   0.609   5.679 -0.0524  0.4935 -0.5896
 4689SOL     OW14965   4.312   0.453   0.750 -0.6820  0.0829 -0.0432
 4689SOL    HW114966   4.244   0.432   0.820 -0.5899  0.8180  0.2737
 4689SOL    HW214967   4.307   0.550   0.727  0.1023  0.0974 -0.1768
 4690SOL     OW14968   3.815   1.878   0.900 -0.1628 -0.6177 -0.4437
 4690SOL    HW114969   3.797   1.817   0.977 -0.3983  0.8024  0.6643
 4690SOL    HW214970   3.729   1.913   0.864 -0.0677 -1.4124 -1.5164
 4691SOL     OW14971   5.124   4.234   3.291  0.1427 -0.0244  0.4439
 4691SOL    HW114972   5.199   4.285   3.333  2.5809 -1.8999 -1.3114
 4691SOL    HW214973   5.120   4.143   3.331 -1.1538  0.0128  0.4298
 4692SOL     OW14974   5.814   1.962   3.162  0.2855 -0.5889 -0.0079
 4692SOL    HW114975   5.820   1.919   3.252  0.7070 -0.3765  0.0702
 4692SOL    HW214976   5.809   2.062   3.174 -2.3538 -0.6343 -0.1005
 4693SOL     OW14977   6.304   2.371   3.348  0.0259  0.3620  0.2027
 4693SOL    HW114978   6.224   2.403   3.297 -0.6776  1.9493  2.1784
 4693SOL    HW214979   6.315   2.273   3.335 -2.0994  0.1527 -0.3354
 4694SOL     OW14980   0.813   5.042   5.479 -0.0321 -0.1467  0.3166
 4694SOL    HW114981   0.830   4.952   5.517 -2.1863 -0.0597  1.6496
 4694SOL    HW214982   0.900   5.083   5.450  1.1818 -1.9306  1.2546
 4695SOL     OW14983   0.223   2.182   2.473  0.0677  0.1387  0.2389
 4695SOL    HW114984   0.179   2.212   2.388 -2.7072 -1.8150  0.8526
 4695SOL    HW214985   0.196   2.243   2.548  0.8664  0.6841  0.0861
 4696SOL     OW14986   6.944   5.101   6.798  0.4626 -0.4859  0.3696
 4696SOL    HW114987   7.027   5.121   6.747  0.8444 -0.6967  0.8936
 4696SOL    HW214988   6.866   5.098   6.736  0.1743  3.4699  0.3017
 4697SOL     OW14989   6.278   5.504   2.351  0.1397  0.7856 -0.2526
 4697SOL    HW114990   6.296   5.554   2.436  2.0361 -0.2517  0.0254
 4697SOL    HW214991   6.356   5.515   2.289  1.0122 -2.2916  0.1246
 4698SOL     OW14992   5.479   1.245   3.736  0.1381 -0.7424 -0.6462
 4698SOL    HW114993   5.459   1.190   3.655  0.8677 -0.0695 -1.3024
 4698SOL    HW214994   5.409   1.228   3.806  0.1669 -2.2443 -0.9380
 4699SOL     OW14995   2.975   2.168   2.821 -0.8474  0.1278 -0.1271
 4699SOL    HW114996   2.898   2.106   2.809 -0.8682  0.5938 -2.9360
 4699SOL    HW214997   3.025   2.178   2.735  1.4067  1.1178  1.1909
 4700SOL     OW14998   4.344   2.942   5.986  0.3104 -0.0967 -0.3442
 4700SOL    HW114999   4.251   2.977   5.979  0.2522 -0.2238 -0.1988
 4700SOL    HW215000   4.387   2.943   5.896  0.2814  0.2739 -0.3552
 4701SOL     OW15001   2.938   2.066   1.338  0.1911  0.1753 -0.4454
 4701SOL    HW115002   3.036   2.081   1.322  0.2746 -0.0423 -0.1334
 4701SOL    HW215003   2.913   2.103   1.427  0.1212 -0.3427 -0.2476
 4702SOL     OW15004   5.689   4.976   2.223 -0.3599  0.6020 -0.3488
 4702SOL    HW115005   5.702   5.070   2.253  1.7492  0.9086 -1.9570
 4702SOL    HW215006   5.778   4.931   2.214 -1.0428 -0.4394 -2.8422
 4703SOL     OW15007   5.865   6.821   3.499 -0.2306 -0.1815  0.6168
 4703SOL    HW115008   5.787   6.796   3.443 -1.1251  2.2942  0.6348
 4703SOL    HW215009   5.833   6.869   3.581  1.2674  0.1501  1.0400
 4704SOL     OW15010   1.448   4.116   4.384  0.0113 -0.2449  0.4314
 4704SOL    HW115011   1.475   4.139   4.290  0.5331 -0.5283  0.5135
 4704SOL    HW215012   1.529   4.103   4.440 -0.2764 -1.5517  0.5719
 4705SOL     OW15013   3.399   2.913   1.673 -0.1724  0.3082 -1.2348
 4705SOL    HW115014   3.479   2.890   1.617  0.2877 -0.2865 -0.3569
 4705SOL    HW215015   3.430   2.946   1.763 -0.9061  0.0719 -0.8853
 4706SOL     OW15016   2.612   1.664   0.943  0.0102 -0.2806 -0.7298
 4706SOL    HW115017   2.652   1.626   1.026 -0.2363 -0.5454 -0.7268
 4706SOL    HW215018   2.574   1.589   0.888 -0.7166 -0.0164 -0.5994
 4707SOL     OW15019   1.543   6.866   1.472  0.2017  0.3539  0.4966
 4707SOL    HW115020   1.485   6.813   1.535 -0.7464  1.0061  0.1982
 4707SOL    HW215021   1.620   6.810   1.442  0.0166 -0.3599  1.3193
 4708SOL     OW15022   1.542   1.065   5.557  0.0242 -0.1016 -0.1838
 4708SOL    HW115023   1.607   1.015   5.500 -1.0300 -3.8162  1.6009
 4708SOL    HW215024   1.452   1.065   5.513  0.3422  1.8483 -0.9420
 4709SOL     OW15025   0.052   4.553   4.992  0.0497  0.0663 -0.4271
 4709SOL    HW115026   0.101   4.508   4.918 -0.0620  0.0985 -0.5221
 4709SOL    HW215027  -0.001   4.486   5.043 -0.9121  0.2254 -1.1879
 4710SOL     OW15028   6.997   5.142   5.611  0.3242 -0.3688 -0.1700
 4710SOL    HW115029   6.938   5.214   5.648  0.5512 -0.6515  0.7610
 4710SOL    HW215030   7.063   5.182   5.547 -0.1930  0.0975 -0.4217
 4711SOL     OW15031   4.945   4.620   4.327 -0.1275 -0.0461 -0.4876
 4711SOL    HW115032   5.011   4.631   4.253  1.0906  1.1132  0.7224
 4711SOL    HW215033   4.928   4.522   4.341  0.9669 -0.3534 -1.1517
 4712SOL     OW15034   3.645   6.127   5.914 -0.6275  0.3665 -0.1568
 4712SOL    HW115035   3.733   6.084   5.935 -0.6515  0.8872  1.1109
 4712SOL    HW215036   3.578   6.057   5.890 -1.0623 -0.5537  3.2524
 4713SOL     OW15037   5.936   3.929   0.523  0.3435 -0.0631 -0.0886
 4713SOL    HW115038   5.857   3.952   0.580 -0.0574 -0.8989 -0.2855
 4713SOL    HW215039   5.909   3.930   0.426  0.5793 -0.3065 -0.1594
 4714SOL     OW15040   4.490   2.050   1.204 -0.3879  0.1015 -0.2412
 4714SOL    HW115041   4.506   1.969   1.260  0.7460  0.7256  0.3755
 4714SOL    HW215042   4.578   2.092   1.181 -0.9333  0.8797 -0.9662
 4715SOL     OW15043   5.459   6.936   0.351 -0.4013  0.5768  0.4398
 4715SOL    HW115044   5.427   6.940   0.256 -2.3873 -0.1198  1.0273
 4715SOL    HW215045   5.501   6.847   0.367  0.8084  1.0379  0.0039
 4716SOL     OW15046   3.404   3.108   4.923 -0.3527  0.1921  0.3324
 4716SOL    HW115047   3.346   3.141   4.849  0.0707 -1.0888 -0.6120
 4716SOL    HW215048   3.365   3.024   4.961  0.9604 -0.8383 -0.4980
 4717SOL     OW15049   1.412   3.609   4.562 -0.3920  0.0628  0.5740
 4717SOL    HW115050   1.330   3.552   4.566  0.5619 -1.3865  0.3261
 4717SOL    HW215051   1.474   3.574   4.491  0.4351  1.1341  0.7402
 4718SOL     OW15052   5.335   2.815   0.325  0.1598  0.5151  0.5389
 4718SOL    HW115053   5.317   2.913   0.317 -1.2416  0.2068 -0.5328
 4718SOL    HW215054   5.351   2.777   0.234  0.2548 -0.3229  0.8998
 4719SOL     OW15055   6.292   4.107   3.633  0.1942  0.0106 -0.0466
 4719SOL    HW115056   6.208   4.157   3.611  0.2349  0.7088  1.3127
 4719SOL    HW215057   6.305   4.034   3.566 -1.7333 -0.4069 -0.0380
 4720SOL     OW15058   0.777   0.849   3.571 -0.1370  0.6987  0.5615
 4720SOL    HW115059   0.811   0.885   3.658  2.5374 -0.4690  0.1004
 4720SOL    HW215060   0.815   0.757   3.556 -2.3655 -0.0871 -0.8280
 4721SOL     OW15061   6.385   2.799   2.634 -0.3163 -0.0650  0.2232
 4721SOL    HW115062   6.441   2.725   2.669  1.0795  1.4519  1.3973
 4721SOL    HW215063   6.443   2.866   2.587 -1.1913  1.2925  1.0083
 4722SOL     OW15064   2.385   5.227   7.004  0.0097 -0.3808 -0.2010
 4722SOL    HW115065   2.302   5.279   6.984 -0.3491 -0.5022  0.8903
 4722SOL    HW215066   2.422   5.255   7.093  1.4827  0.0898 -0.9201
 4723SOL     OW15067   3.085   4.921   5.612  0.0705  0.5235  0.0715
 4723SOL    HW115068   3.029   4.910   5.693  0.7144  2.0732  0.7732
 4723SOL    HW215069   3.122   4.833   5.584 -1.5808 -0.3053  0.3939
 4724SOL     OW15070   5.903   1.229   5.223  0.1460 -0.4718 -0.2282
 4724SOL    HW115071   5.808   1.206   5.246  0.6006 -0.6462  1.6201
 4724SOL    HW215072   5.905   1.314   5.171 -0.8080  1.9995  3.4438
 4725SOL     OW15073   4.703   4.278   1.523  0.5828 -0.0692 -0.0407
 4725SOL    HW115074   4.617   4.235   1.549 -0.2602  1.9053  0.6167
 4725SOL    HW215075   4.779   4.227   1.562 -0.2123 -2.1238 -1.0114
 4726SOL     OW15076   1.227   0.006   5.588  0.4637 -0.1161  0.3172
 4726SOL    HW115077   1.305  -0.033   5.540  0.7507  1.4709 -0.5714
 4726SOL    HW215078   1.251   0.097   5.623 -1.0027  0.4459 -0.0626
 4727SOL     OW15079   5.579   4.320   0.449  0.0082  0.0315  0.4148
 4727SOL    HW115080   5.543   4.405   0.410 -0.6168  0.5202  1.9701
 4727SOL    HW215081   5.506   4.252   0.453 -0.4181  0.5425  2.2182
 4728SOL     OW15082   2.697   0.804   5.699  0.1207 -0.3904  0.1016
 4728SOL    HW115083   2.644   0.778   5.618 -0.0941  1.3389 -0.3397
 4728SOL    HW215084   2.663   0.754   5.778  0.6907 -2.5490 -0.9230
 4729SOL     OW15085   0.136   1.600   3.291  0.3644 -0.2075  0.5672
 4729SOL    HW115086   0.119   1.668   3.362  0.7424 -0.9191  1.3571
 4729SOL    HW215087   0.213   1.542   3.317  0.6783 -0.3273 -0.5446
 4730SOL     OW15088   3.887   0.956   2.953  0.2382  0.4230  0.5942
 4730SOL    HW115089   3.866   1.041   2.903  0.3209  0.0463 -0.0927
 4730SOL    HW215090   3.986   0.940   2.951  0.0963 -0.4901 -0.6371
 4731SOL     OW15091   4.547   6.946   4.464 -0.5484 -0.0410  0.5008
 4731SOL    HW115092   4.625   6.985   4.513 -0.5059 -1.2023  1.3899
 4731SOL    HW215093   4.502   6.878   4.522 -0.1790 -1.8585 -1.2540
 4732SOL     OW15094   6.142   3.951   1.499  0.6586  0.3173 -0.5648
 4732SOL    HW115095   6.137   3.996   1.410  1.1120  0.3426 -0.5816
 4732SOL    HW215096   6.061   3.974   1.553  0.4274  0.3772 -0.9340
 4733SOL     OW15097   0.949   4.921   1.817  0.2170 -0.9636 -0.1009
 4733SOL    HW115098   0.863   4.915   1.767 -0.5844 -0.3612  1.1500
 4733SOL    HW215099   1.014   4.976   1.765 -0.4812 -0.6336 -0.6469
 4734SOL     OW15100   5.084   5.369   4.818 -0.0706 -0.2519 -0.6306
 4734SOL    HW115101   5.074   5.318   4.904  2.5140 -0.0983 -0.1572
 4734SOL    HW215102   5.067   5.466   4.835 -2.7587 -0.5578 -1.0611
 4735SOL     OW15103   0.566   0.913   5.812 -0.4296  0.2190 -0.9234
 4735SOL    HW115104   0.566   0.978   5.735  3.5346  0.4336 -0.9832
 4735SOL    HW215105   0.580   0.821   5.777 -1.5212 -0.0916 -0.5699
 4736SOL     OW15106   4.767   0.774   5.380 -0.6406 -0.5205 -0.1205
 4736SOL    HW115107   4.834   0.835   5.423 -0.6041 -0.0102 -0.8829
 4736SOL    HW215108   4.676   0.813   5.390 -0.9670 -1.6078  1.6309
 4737SOL     OW15109   2.938   5.284   6.552  0.1673 -0.5254 -0.4940
 4737SOL    HW115110   3.004   5.354   6.581 -0.1291 -0.4691  0.0475
 4737SOL    HW215111   2.847   5.308   6.585  0.1396 -1.3916  0.0695
 4738SOL     OW15112   0.020   6.012   5.439  0.2297 -0.3160  0.4890
 4738SOL    HW115113  -0.056   5.961   5.479  0.3678  1.2112  2.8934
 4738SOL    HW215114   0.078   5.950   5.387 -2.0035 -1.7285 -0.4847
 4739SOL     OW15115   5.910   3.644   3.855  0.0102  0.6520 -0.3872
 4739SOL    HW115116   5.828   3.693   3.828 -1.6278 -1.6351  0.0889
 4739SOL    HW215117   5.920   3.647   3.954 -0.6738 -0.6882 -0.2461
 4740SOL     OW15118   1.796   1.761   1.693 -0.6354 -0.4199  0.2779
 4740SOL    HW115119   1.810   1.664   1.672 -2.2201 -0.8379  1.0807
 4740SOL    HW215120   1.699   1.779   1.707 -0.5201  1.5417 -1.0150
 4741SOL     OW15121   5.973   3.198   1.679  0.0818  0.1623  0.2461
 4741SOL    HW115122   5.942   3.293   1.689  1.6757  0.7558 -0.1142
 4741SOL    HW215123   6.073   3.196   1.678  0.1062 -1.2228 -2.4858
 4742SOL     OW15124   3.287   4.154   0.207 -0.2959 -0.5099 -0.2331
 4742SOL    HW115125   3.369   4.131   0.153 -1.0086 -1.1475 -1.0746
 4742SOL    HW215126   3.209   4.163   0.146 -1.4818 -2.8626  0.7850
 4743SOL     OW15127   1.028   1.427   1.556  0.2471 -0.2516 -0.6210
 4743SOL    HW115128   0.941   1.470   1.534 -0.6629 -1.1680  0.9870
 4743SOL    HW215129   1.018   1.372   1.639  2.2305 -0.8088 -0.6975
 4744SOL     OW15130   4.320   0.435   6.606  0.3833  0.2578  0.2762
 4744SOL    HW115131   4.250   0.486   6.657  0.6147  0.1994  0.6529
 4744SOL    HW215132   4.386   0.396   6.669  0.0304 -0.7930  0.0206
 4745SOL     OW15133   6.924   6.914   5.909  0.0318  0.3124  0.0454
 4745SOL    HW115134   6.883   6.911   5.818  0.1635 -0.2728  0.0023
 4745SOL    HW215135   6.921   6.823   5.950 -0.2558  0.6263  0.7309
 4746SOL     OW15136   6.034   1.435   0.542 -0.2830 -0.6688 -0.4321
 4746SOL    HW115137   6.128   1.420   0.510 -0.3217 -1.5812 -0.1374
 4746SOL    HW215138   6.021   1.532   0.561  0.7804 -0.6098  0.0730
 4747SOL     OW15139   2.118   3.259   3.022  0.3515  0.0003  0.2046
 4747SOL    HW115140   2.111   3.294   3.115  1.2126  0.1291  0.2337
 4747SOL    HW215141   2.184   3.184   3.019  0.8744  0.4697 -0.4227
 4748SOL     OW15142   1.198   5.638   5.945 -0.1107  0.0778 -0.7328
 4748SOL    HW115143   1.214   5.635   6.043  1.6982  2.7627 -0.8333
 4748SOL    HW215144   1.249   5.565   5.900 -1.9670 -1.9917  0.3146
 4749SOL     OW15145   2.969   0.478   0.586 -0.0258  0.1926 -0.3096
 4749SOL    HW115146   3.059   0.489   0.542  0.2148 -0.6123 -0.0266
 4749SOL    HW215147   2.973   0.517   0.678  0.3761 -0.8599  0.1266
 4750SOL     OW15148   0.898   1.809   4.987 -0.3752  0.0635 -1.2509
 4750SOL    HW115149   0.862   1.811   5.080 -1.2553 -1.3171 -1.5267
 4750SOL    HW215150   0.935   1.898   4.963  1.0402  0.1173  0.8677
 4751SOL     OW15151   1.921   3.830   5.544  0.4397 -0.3439 -0.7124
 4751SOL    HW115152   1.866   3.792   5.469 -1.1919  1.7578 -0.6934
 4751SOL    HW215153   1.979   3.903   5.509  0.7434 -0.3237 -0.1719
 4752SOL     OW15154   2.938   5.519   0.167  0.1420 -0.2061  0.3440
 4752SOL    HW115155   3.007   5.542   0.099  0.1796 -4.4681 -1.3531
 4752SOL    HW215156   2.977   5.460   0.237 -0.8472  0.9705  1.9841
 4753SOL     OW15157   0.760   2.250   6.871 -0.0730  0.2469 -0.0231
 4753SOL    HW115158   0.726   2.305   6.795 -0.7337  0.5255  0.4611
 4753SOL    HW215159   0.820   2.307   6.928  0.8365 -0.1062 -0.6064
 4754SOL     OW15160   0.889   0.859   6.059  0.5056  0.6344 -0.1569
 4754SOL    HW115161   0.825   0.845   6.135 -1.0028  0.1499 -1.4627
 4754SOL    HW215162   0.884   0.954   6.028 -0.0203  0.4585 -0.6242
 4755SOL     OW15163   2.688   5.043   4.576  0.2798 -0.5522 -0.1528
 4755SOL    HW115164   2.758   5.034   4.646  0.1425  0.5523  0.1449
 4755SOL    HW215165   2.720   5.105   4.504  0.3039 -1.4447 -0.9256
 4756SOL     OW15166   4.543   1.879   2.240 -0.6510  0.4982 -0.0044
 4756SOL    HW115167   4.552   1.902   2.337  1.7658  0.3539 -0.1376
 4756SOL    HW215168   4.595   1.943   2.185  1.5543 -1.8219 -0.8146
 4757SOL     OW15169   2.594   5.152   6.427  0.4054  0.6728  0.2526
 4757SOL    HW115170   2.506   5.126   6.467  0.7392 -0.8581  0.0652
 4757SOL    HW215171   2.658   5.175   6.500  0.8641 -1.6357  0.6526
 4758SOL     OW15172   6.060   4.259   6.393 -0.8889 -0.5914  0.1395
 4758SOL    HW115173   6.136   4.324   6.403 -1.3300  0.0963 -0.8559
 4758SOL    HW215174   6.093   4.175   6.349 -0.5020 -0.6910  0.6167
 4759SOL     OW15175   6.496   4.295   0.078  0.3284 -0.3742  0.2204
 4759SOL    HW115176   6.559   4.368   0.106 -1.9731  2.1506 -0.6511
 4759SOL    HW215177   6.520   4.264  -0.013  1.7988 -1.3469  0.8986
 4760SOL     OW15178   0.927   3.675   0.650 -0.9244  0.0913 -0.0405
 4760SOL    HW115179   0.978   3.605   0.699 -1.5951 -0.2331  0.2002
 4760SOL    HW215180   0.940   3.764   0.694 -1.3804 -0.1676  0.6240
 4761SOL     OW15181   3.221   0.199   5.221 -1.0881  0.0369 -0.4742
 4761SOL    HW115182   3.228   0.231   5.127 -0.1105  1.3024 -0.0069
 4761SOL    HW215183   3.300   0.144   5.245 -1.1327  0.0570 -0.2716
 4762SOL     OW15184   5.212   2.411   2.851 -0.5292 -0.3194 -0.3522
 4762SOL    HW115185   5.289   2.443   2.795  0.4559  0.0492  1.1513
 4762SOL    HW215186   5.231   2.318   2.882  0.1296  0.3468  1.3631
 4763SOL     OW15187   4.688   5.676   4.697 -0.1421 -0.3359  0.1665
 4763SOL    HW115188   4.627   5.669   4.776  2.5037  0.7975  2.5278
 4763SOL    HW215189   4.684   5.768   4.659 -2.1824 -1.1595 -1.8487
 4764SOL     OW15190   3.581   2.855   4.046 -0.3262  0.3774  0.0700
 4764SOL    HW115191   3.676   2.832   4.068  0.0061  0.0381 -1.6087
 4764SOL    HW215192   3.525   2.845   4.128  0.3800 -3.2391  0.2834
 4765SOL     OW15193   0.594   5.964   5.489  0.1361  0.3866  0.2128
 4765SOL    HW115194   0.512   6.017   5.511  0.0427 -0.0084  0.8567
 4765SOL    HW215195   0.633   5.997   5.403  0.6295  2.1594  1.0665
 4766SOL     OW15196   4.441   0.588   4.049  0.1320  0.2734 -0.1290
 4766SOL    HW115197   4.468   0.492   4.050  3.1309  1.0203  0.9836
 4766SOL    HW215198   4.358   0.601   4.104 -0.0123 -1.5619  0.1317
 4767SOL     OW15199   4.110   0.979   6.127 -0.1426  0.2309 -0.4440
 4767SOL    HW115200   4.193   0.925   6.139  0.5877  1.0960 -1.3909
 4767SOL    HW215201   4.043   0.927   6.075  1.3468  0.8993 -3.2317
 4768SOL     OW15202   3.582   1.160   5.313 -0.4532  0.0166 -0.1518
 4768SOL    HW115203   3.488   1.131   5.329 -1.0333  2.1242  0.5772
 4768SOL    HW215204   3.593   1.256   5.340  1.8404 -0.0841 -0.4870
 4769SOL     OW15205   4.249   0.554   0.440  0.6956 -0.6609 -0.2832
 4769SOL    HW115206   4.301   0.492   0.499  1.3418  0.7878  0.7159
 4769SOL    HW215207   4.312   0.608   0.384  0.2806  0.6581  0.4738
 4770SOL     OW15208   3.803   0.923   3.639  0.1998  0.5633 -0.2395
 4770SOL    HW115209   3.848   1.009   3.617 -0.6936  0.9079 -0.7543
 4770SOL    HW215210   3.794   0.915   3.739 -3.7986  3.3044 -0.1540
 4771SOL     OW15211   4.482   3.673   1.230  0.3806  0.4510 -0.2847
 4771SOL    HW115212   4.395   3.705   1.192  1.0984 -0.2822 -2.7077
 4771SOL    HW215213   4.557   3.719   1.184  1.3289 -0.2899  0.4720
 4772SOL     OW15214   5.851   3.174   1.422 -0.3479  0.3470  0.1737
 4772SOL    HW115215   5.924   3.207   1.362  0.0841  0.8196  0.9458
 4772SOL    HW215216   5.882   3.177   1.517 -0.8832 -0.7570  0.4004
 4773SOL     OW15217   0.047   3.479   4.338 -0.6906  0.8678  0.5078
 4773SOL    HW115218  -0.042   3.516   4.308 -3.1918 -1.2781  4.4616
 4773SOL    HW215219   0.085   3.538   4.409  1.5234  2.0443 -1.4896
 4774SOL     OW15220   3.060   5.551   6.918 -0.4471 -0.0880  0.0485
 4774SOL    HW115221   3.086   5.537   6.822 -0.5570 -0.4132  0.0642
 4774SOL    HW215222   3.143   5.554   6.975 -0.1169  3.1395 -0.3994
 4775SOL     OW15223   3.088   1.322   3.518  0.3481 -0.2119  0.0738
 4775SOL    HW115224   3.039   1.291   3.600  0.3067 -1.1266 -0.2769
 4775SOL    HW215225   3.035   1.297   3.437 -1.2205  3.4887 -0.2204
 4776SOL     OW15226   4.927   4.483   0.912  0.1989  0.4730  0.2597
 4776SOL    HW115227   4.858   4.420   0.949  0.9597  0.4939  1.8169
 4776SOL    HW215228   4.917   4.489   0.813 -0.0117 -1.9728  0.0536
 4777SOL     OW15229   2.102   3.229   1.973 -0.5234 -0.2422  0.0393
 4777SOL    HW115230   2.104   3.187   2.064  2.0540 -1.2631 -0.4133
 4777SOL    HW215231   2.130   3.325   1.981 -2.9401  0.4658  0.6162
 4778SOL     OW15232   5.657   1.485   2.170  0.9788 -0.2345  0.5729
 4778SOL    HW115233   5.710   1.569   2.173 -0.5377  0.7484  1.0606
 4778SOL    HW215234   5.587   1.487   2.241  0.7448 -1.8032  0.4236
 4779SOL     OW15235   5.742   0.087   0.593 -0.3623  0.0447 -0.1655
 4779SOL    HW115236   5.680   0.077   0.671 -0.2472 -0.7844 -0.1724
 4779SOL    HW215237   5.694   0.131   0.517 -0.2825  1.5028  0.5966
 4780SOL     OW15238   2.711   1.428   4.807  0.0325 -0.2848  0.0664
 4780SOL    HW115239   2.677   1.479   4.885  1.5631 -1.6005  1.6709
 4780SOL    HW215240   2.811   1.430   4.805  0.0487 -0.6205 -1.6417
 4781SOL     OW15241   3.604   5.455   2.529  0.2037 -0.1209  0.2508
 4781SOL    HW115242   3.627   5.553   2.533  1.1160 -0.2954 -0.3525
 4781SOL    HW215243   3.522   5.443   2.473  0.1373  0.2941  0.2532
 4782SOL     OW15244   6.114   5.804   1.883  0.9621 -0.1030  0.1944
 4782SOL    HW115245   6.201   5.817   1.930  0.6410 -1.5356  1.2513
 4782SOL    HW215246   6.130   5.754   1.797  1.1166 -1.0840  0.7772
 4783SOL     OW15247   5.040   5.980   3.165  0.1559 -0.4248 -0.4892
 4783SOL    HW115248   4.943   6.003   3.162 -0.0341 -0.9307  0.8649
 4783SOL    HW215249   5.061   5.938   3.254  1.8021  0.5147 -0.4013
 4784SOL     OW15250   4.449   5.603   4.542 -0.0660  0.4515  0.2833
 4784SOL    HW115251   4.548   5.619   4.540  0.1373 -0.6320  0.9151
 4784SOL    HW215252   4.430   5.521   4.595 -1.2894  0.4544 -0.1278
 4785SOL     OW15253   0.886   4.642   0.064  0.7439  0.4901 -0.0115
 4785SOL    HW115254   0.939   4.594   0.134  3.5313  0.2878 -2.0723
 4785SOL    HW215255   0.940   4.718   0.028 -1.6061  2.1328 -0.3005
 4786SOL     OW15256   2.779   4.892   3.338 -0.0153 -0.0375 -0.5125
 4786SOL    HW115257   2.831   4.824   3.286 -2.2795 -0.6278 -2.1402
 4786SOL    HW215258   2.747   4.850   3.423  0.4773 -0.2928 -0.4453
 4787SOL     OW15259   3.195   2.099   4.745 -0.1093  0.5105  0.1627
 4787SOL    HW115260   3.110   2.144   4.715 -0.6476 -0.5377  0.0613
 4787SOL    HW215261   3.220   2.132   4.836 -2.3247 -1.3492  1.5461
 4788SOL     OW15262   2.096   1.299   5.140 -0.4293 -0.3893  0.1074
 4788SOL    HW115263   2.082   1.263   5.047 -0.1514 -3.4348  1.1267
 4788SOL    HW215264   2.072   1.229   5.207 -0.0319  1.5048  2.3611
 4789SOL     OW15265   5.385   5.366   6.957 -0.7369  0.4467 -0.0707
 4789SOL    HW115266   5.409   5.387   7.052  0.3137  1.7060 -0.5838
 4789SOL    HW215267   5.356   5.271   6.950  2.5973 -0.7802  0.9430
 4790SOL     OW15268   4.449   5.245   5.464 -0.0923  0.3367 -0.0314
 4790SOL    HW115269   4.355   5.209   5.460  0.6120 -1.6246 -0.3422
 4790SOL    HW215270   4.505   5.197   5.396  1.2082  1.2580  0.3602
 4791SOL     OW15271   4.897   2.705   3.123  0.3876  0.5932 -0.4679
 4791SOL    HW115272   4.960   2.766   3.172  1.9251 -0.3274 -1.2042
 4791SOL    HW215273   4.806   2.711   3.164  0.8457  2.2392  0.4206
 4792SOL     OW15274   2.253   4.576   6.822  0.0698 -0.4047 -0.6231
 4792SOL    HW115275   2.349   4.580   6.794  0.2647  0.9984  0.1506
 4792SOL    HW215276   2.242   4.625   6.909 -1.4799  0.1518 -1.1081
 4793SOL     OW15277   2.076   6.747   0.473 -0.0101  0.6967  0.7614
 4793SOL    HW115278   2.126   6.830   0.452 -0.5381  0.9220  0.3784
 4793SOL    HW215279   1.981   6.756   0.443  0.5852 -1.1330 -2.0134
 4794SOL     OW15280   5.878   2.873   1.353 -0.1540 -0.1949 -0.2800
 4794SOL    HW115281   5.860   2.947   1.418  0.5539  0.7123 -1.0814
 4794SOL    HW215282   5.839   2.897   1.264 -0.8586 -1.2860 -0.2846
 4795SOL     OW15283   6.815   0.735   4.598 -0.0010 -0.3801 -0.1031
 4795SOL    HW115284   6.735   0.783   4.562 -0.9284 -1.7584  0.0295
 4795SOL    HW215285   6.787   0.646   4.634  1.8892 -1.9557 -2.2202
 4796SOL     OW15286   5.238   3.243   0.287 -0.2854  0.5681  0.5248
 4796SOL    HW115287   5.270   3.255   0.381  1.1703 -0.9181  0.2572
 4796SOL    HW215288   5.187   3.157   0.280 -0.9824  1.0037  0.0783
 4797SOL     OW15289   1.630   6.654   4.519  0.1621 -0.2319  0.2057
 4797SOL    HW115290   1.595   6.664   4.425  0.9904 -0.9043 -0.1866
 4797SOL    HW215291   1.664   6.743   4.551  0.4370 -0.1311 -0.3587
 4798SOL     OW15292   1.463   5.728   0.715 -0.3284  0.0773 -0.2752
 4798SOL    HW115293   1.528   5.803   0.731 -0.2451 -0.0634  0.0545
 4798SOL    HW215294   1.430   5.732   0.621  0.8802 -0.4233 -0.7370
 4799SOL     OW15295   4.266   1.041   5.391  0.0432 -0.0047  0.2966
 4799SOL    HW115296   4.284   1.009   5.483  2.4807  1.8705  0.5732
 4799SOL    HW215297   4.183   1.096   5.390 -0.6702 -1.0339  1.0730
 4800SOL     OW15298   0.464   2.461   2.536  0.2212 -0.3653  0.9927
 4800SOL    HW115299   0.458   2.454   2.635 -1.5449 -1.5607  0.8445
 4800SOL    HW215300   0.372   2.468   2.497  0.8715 -0.0900 -0.5724
 4801SOL     OW15301   0.732   3.441   5.746  0.0588  0.4927  0.4738
 4801SOL    HW115302   0.818   3.426   5.699  1.4558  0.4544  2.9023
 4801SOL    HW215303   0.670   3.365   5.728  1.0550 -0.1862 -0.1642
 4802SOL     OW15304   1.112   5.807   1.786  0.8804 -0.1068 -0.1561
 4802SOL    HW115305   1.172   5.788   1.864  1.5354 -0.0827 -0.6433
 4802SOL    HW215306   1.022   5.767   1.803  0.1823  2.0268  1.7297
 4803SOL     OW15307   0.899   0.662   1.148 -0.2210  0.2792  0.0659
 4803SOL    HW115308   0.822   0.723   1.168 -0.2914  0.2671 -0.1546
 4803SOL    HW215309   0.941   0.690   1.061 -0.8168 -0.5323 -0.4897
 4804SOL     OW15310   4.193   4.003   0.263 -0.4161 -0.2186 -0.4786
 4804SOL    HW115311   4.103   4.021   0.223 -0.8592  0.4706  0.7692
 4804SOL    HW215312   4.256   4.076   0.236 -0.9742  0.7867  0.7925
 4805SOL     OW15313   0.610   6.646   6.357  0.0337  0.3904 -0.1432
 4805SOL    HW115314   0.562   6.559   6.365 -0.1982  0.6119  1.0737
 4805SOL    HW215315   0.685   6.650   6.423 -1.4584  2.0237  1.5897
 4806SOL     OW15316   6.114   1.714   3.719 -0.2909 -0.3732 -0.6983
 4806SOL    HW115317   6.053   1.634   3.720 -0.7383 -0.0366 -0.0145
 4806SOL    HW215318   6.199   1.691   3.671 -0.7348 -1.0158 -1.1909
 4807SOL     OW15319   2.349   0.058   1.792  0.1823  0.5159 -0.7446
 4807SOL    HW115320   2.287   0.105   1.730  1.0274  1.7447 -0.6828
 4807SOL    HW215321   2.444   0.081   1.769  0.5316  0.5235  0.6304
 4808SOL     OW15322   0.094   2.677   1.557 -0.2854 -0.4459  0.3332
 4808SOL    HW115323   0.144   2.663   1.472 -1.8354 -3.3403 -0.2172
 4808SOL    HW215324   0.155   2.663   1.635  0.3431 -1.3916 -0.3187
 4809SOL     OW15325   6.671   6.551   1.715 -0.3631 -0.1576  0.7745
 4809SOL    HW115326   6.656   6.510   1.805  0.6088 -1.0702  0.5426
 4809SOL    HW215327   6.600   6.520   1.652  0.2314 -1.3343  0.6623
 4810SOL     OW15328   1.012   1.582   5.514  0.1251  0.3400 -0.0734
 4810SOL    HW115329   1.108   1.606   5.526  0.7962 -1.7910 -0.7424
 4810SOL    HW215330   0.999   1.537   5.425 -1.6558  1.3329 -0.3641
 4811SOL     OW15331   4.809   2.901   4.746  0.0792 -0.4847  0.2216
 4811SOL    HW115332   4.712   2.884   4.726  0.2632 -1.4094  0.0695
 4811SOL    HW215333   4.826   2.999   4.747 -0.3210 -0.3286 -2.3551
 4812SOL     OW15334   6.495   4.811   2.989  0.4481 -0.5710  0.3961
 4812SOL    HW115335   6.501   4.909   2.971 -0.8492 -0.3665  0.9637
 4812SOL    HW215336   6.538   4.761   2.914 -1.1576  0.3739 -1.2531
 4813SOL     OW15337   6.419   3.377   3.262 -0.1266 -0.1963 -0.8451
 4813SOL    HW115338   6.390   3.349   3.353 -1.8598  0.7486 -1.0650
 4813SOL    HW215339   6.511   3.342   3.244 -0.4108 -1.8128  0.6019
 4814SOL     OW15340   1.251   2.027   0.812  0.0410 -0.2586 -0.3751
 4814SOL    HW115341   1.239   2.025   0.712 -0.0842 -0.3931 -0.3576
 4814SOL    HW215342   1.237   1.936   0.849  0.6619 -0.3243 -0.2970
 4815SOL     OW15343   3.752   0.559   2.593 -0.3604  0.0618  0.6664
 4815SOL    HW115344   3.686   0.610   2.649  0.3277  1.7162  0.0555
 4815SOL    HW215345   3.800   0.623   2.533  1.2130 -1.2016  0.5069
 4816SOL     OW15346   5.482   4.215   5.940 -0.0096 -0.5277 -0.4530
 4816SOL    HW115347   5.531   4.286   5.990  0.5569 -0.5386 -0.9949
 4816SOL    HW215348   5.402   4.255   5.896 -0.5847 -0.5355  0.5381
 4817SOL     OW15349   3.075   2.617   0.281 -0.0113 -0.0258 -0.5468
 4817SOL    HW115350   3.059   2.576   0.370  0.5533 -0.1589 -0.5024
 4817SOL    HW215351   3.151   2.569   0.235  0.7689  1.0554 -0.4233
 4818SOL     OW15352   6.800   6.233   2.544  0.2678  0.2440  0.3196
 4818SOL    HW115353   6.727   6.299   2.562 -0.0980 -0.2017  0.4950
 4818SOL    HW215354   6.769   6.168   2.475  1.4034  1.5165 -1.4494
 4819SOL     OW15355   0.225   3.922   0.131 -0.1464 -0.1956 -0.4223
 4819SOL    HW115356   0.261   3.829   0.119 -1.7432 -1.2985  2.3715
 4819SOL    HW215357   0.135   3.929   0.088 -0.0129  0.0683 -0.6591
 4820SOL     OW15358   5.491   3.991   2.428 -0.1905  0.2164  0.3327
 4820SOL    HW115359   5.444   4.027   2.508  0.1975  1.1489  0.1586
 4820SOL    HW215360   5.530   4.067   2.376  0.8391 -0.4864  0.0610
 4821SOL     OW15361   6.573   4.831   3.654 -0.1002  0.1075 -0.2602
 4821SOL    HW115362   6.595   4.760   3.587 -0.1038 -0.2537  0.1241
 4821SOL    HW215363   6.577   4.920   3.609  2.2981  0.0918 -0.2015
 4822SOL     OW15364   2.444   0.417   5.568  0.1123  0.3588  0.1794
 4822SOL    HW115365   2.425   0.321   5.549 -0.5367 -0.1070  2.7352
 4822SOL    HW215366   2.361   0.471   5.553  0.6212  0.6683 -1.7848
 4823SOL     OW15367   1.029   3.210   0.905 -0.0580 -0.1554  0.0513
 4823SOL    HW115368   1.037   3.174   0.998  1.0392  0.1917  0.1053
 4823SOL    HW215369   1.111   3.187   0.853  0.7150  2.2475  0.0986
 4824SOL     OW15370   1.399   2.564   0.758  0.4491  0.5310 -0.4809
 4824SOL    HW115371   1.438   2.506   0.830 -0.3687  1.1835  0.5139
 4824SOL    HW215372   1.449   2.548   0.672  1.4205 -0.2894  0.2043
 4825SOL     OW15373   0.727   5.958   3.663  0.4954  0.3969  0.2493
 4825SOL    HW115374   0.666   5.886   3.628  1.9483 -1.2385  0.9061
 4825SOL    HW215375   0.755   5.936   3.756  2.9109  0.4699 -0.3681
 4826SOL     OW15376   4.861   0.359   0.159  0.4398  0.4505  0.1212
 4826SOL    HW115377   4.781   0.308   0.191  1.4851 -1.3840 -0.0390
 4826SOL    HW215378   4.833   0.425   0.089 -0.8819 -0.4262 -0.2191
 4827SOL     OW15379   6.125   0.052   0.774 -0.3997  0.1179  0.6617
 4827SOL    HW115380   6.109   0.095   0.685  0.7631 -3.3321 -1.3961
 4827SOL    HW215381   6.206   0.092   0.816  0.6953 -0.0516 -1.2006
 4828SOL     OW15382   3.774   1.820   6.701  0.7138 -0.4940 -0.0353
 4828SOL    HW115383   3.804   1.914   6.718  0.8304 -0.9817  3.3059
 4828SOL    HW215384   3.853   1.759   6.701  0.4323 -0.8797  0.7148
 4829SOL     OW15385   3.847   6.515   6.880 -0.2405  0.0337 -0.2946
 4829SOL    HW115386   3.804   6.431   6.914 -1.3936  0.9956  0.6928
 4829SOL    HW215387   3.858   6.510   6.781  0.1287 -1.4579 -0.2026
 4830SOL     OW15388   2.409   5.512   1.853  0.1802 -0.5217  0.2306
 4830SOL    HW115389   2.406   5.610   1.872  2.2015 -0.5070  0.7994
 4830SOL    HW215390   2.426   5.498   1.755  0.2759 -0.2718  0.2090
 4831SOL     OW15391   3.901   3.317   5.266 -0.5265 -0.5896  0.3269
 4831SOL    HW115392   3.940   3.324   5.358  0.6882 -0.2186 -0.2022
 4831SOL    HW215393   3.963   3.267   5.206 -1.0801 -0.4082 -0.4210
 4832SOL     OW15394   4.108   3.584   4.584 -0.3993 -0.1697  0.3352
 4832SOL    HW115395   4.173   3.549   4.651  0.6025 -0.7670 -0.9001
 4832SOL    HW215396   4.016   3.550   4.605  0.3362 -2.6640 -0.1407
 4833SOL     OW15397   5.056   2.127   3.186  0.9274  0.4812 -0.6084
 4833SOL    HW115398   5.082   2.133   3.089  1.6250  0.7405 -0.4129
 4833SOL    HW215399   4.968   2.172   3.199  1.9753  2.6993 -0.7125
 4834SOL     OW15400   0.480   4.150   3.462 -0.2855  0.1878 -0.1629
 4834SOL    HW115401   0.556   4.164   3.398 -1.3202  0.0362 -1.4697
 4834SOL    HW215402   0.470   4.052   3.480 -0.4373  0.1693 -0.3410
 4835SOL     OW15403   6.163   4.575   6.179  0.0890  0.1390  0.0505
 4835SOL    HW115404   6.070   4.536   6.182  0.2691 -0.2454  0.7871
 4835SOL    HW215405   6.219   4.532   6.249  0.4147  1.4409  0.6068
 4836SOL     OW15406   3.894   0.646   5.911 -0.0138  0.0698  0.1452
 4836SOL    HW115407   3.886   0.637   5.812  1.3775 -1.0064  0.0959
 4836SOL    HW215408   3.847   0.569   5.956 -0.1109  0.2151  0.2932
 4837SOL     OW15409   3.079   2.116   5.319 -0.2145  0.3707 -0.0997
 4837SOL    HW115410   3.130   2.198   5.294  0.6181 -0.1353 -0.1150
 4837SOL    HW215411   3.064   2.060   5.238 -0.6061  0.4133 -0.0563
 4838SOL     OW15412   0.672   4.561   5.119 -0.0020  0.1540 -0.1865
 4838SOL    HW115413   0.697   4.468   5.147  1.5466  0.7632  0.6245
 4838SOL    HW215414   0.728   4.626   5.170 -1.3144  1.5517 -0.4896
 4839SOL     OW15415   1.283   0.774   6.317  0.2557  0.2602  0.4514
 4839SOL    HW115416   1.301   0.837   6.242 -0.7788 -1.3147 -1.1680
 4839SOL    HW215417   1.365   0.719   6.334  0.4096  0.4526  0.3462
 4840SOL     OW15418   4.803   0.925   3.379  0.1013 -0.7549 -0.3823
 4840SOL    HW115419   4.784   0.920   3.281 -1.3028  1.2555 -0.2703
 4840SOL    HW215420   4.747   0.858   3.427 -1.0065 -0.1288 -0.7689
 4841SOL     OW15421   3.468   5.631   3.820  0.3822  0.4976  0.1368
 4841SOL    HW115422   3.444   5.580   3.903  1.1057  1.7732  1.1815
 4841SOL    HW215423   3.547   5.588   3.776  0.0517 -0.1398  0.1561
 4842SOL     OW15424   3.251   4.900   4.454  0.3367 -0.1146 -0.5034
 4842SOL    HW115425   3.206   4.844   4.524 -0.6712 -1.5060 -2.1890
 4842SOL    HW215426   3.184   4.925   4.384  1.3041  1.3521 -0.9394
 4843SOL     OW15427   6.238   3.226   6.430 -0.2365  0.6820  0.5171
 4843SOL    HW115428   6.283   3.273   6.354 -0.1016  0.9461  0.7576
 4843SOL    HW215429   6.296   3.152   6.463  0.1323  1.1559  0.9658
 4844SOL     OW15430   0.554   3.387   0.657 -0.1924  0.0669  0.0192
 4844SOL    HW115431   0.582   3.447   0.581  2.5445 -0.9179  0.1474
 4844SOL    HW215432   0.557   3.292   0.628  0.9867 -0.3358  1.3470
 4845SOL     OW15433   6.058   6.935   4.589 -0.4461 -0.0127 -0.0329
 4845SOL    HW115434   5.974   6.980   4.621 -1.1361 -0.5532 -1.0331
 4845SOL    HW215435   6.126   7.005   4.565 -0.5695  0.4301  0.8725
 4846SOL     OW15436   5.406   2.579   5.586  0.0192  0.1527  0.2192
 4846SOL    HW115437   5.353   2.508   5.632 -1.4579  1.6563  0.9649
 4846SOL    HW215438   5.493   2.541   5.555 -0.3284 -1.7362  1.3764
 4847SOL     OW15439   2.678   5.176   4.078 -0.2352  0.0592 -0.1187
 4847SOL    HW115440   2.641   5.085   4.063  1.7568 -1.0566  1.2652
 4847SOL    HW215441   2.778   5.174   4.068  0.1316  1.5010  2.3820
 4848SOL     OW15442   4.647   1.587   3.947 -0.4835  0.0317  0.5391
 4848SOL    HW115443   4.723   1.652   3.947 -3.2590  3.6580 -0.0132
 4848SOL    HW215444   4.623   1.563   4.041  1.7098 -1.8147  0.6978
 4849SOL     OW15445   1.479   6.187   1.123  0.3846 -0.3375  0.4686
 4849SOL    HW115446   1.567   6.232   1.111 -0.3139  1.1084  0.6136
 4849SOL    HW215447   1.437   6.218   1.208 -0.4479 -0.6871  0.1959
 4850SOL     OW15448   3.652   1.034   1.341  0.2531 -0.4394  0.1471
 4850SOL    HW115449   3.731   1.018   1.282 -0.7931 -1.7182 -0.9508
 4850SOL    HW215450   3.656   0.973   1.420 -0.2974 -1.4518 -0.5925
 4851SOL     OW15451   3.920   5.720   6.442 -0.5020 -0.2676 -0.1353
 4851SOL    HW115452   3.850   5.779   6.403  1.6480  1.3200 -1.8171
 4851SOL    HW215453   3.949   5.756   6.530  0.8333  1.3476 -1.1718
 4852SOL     OW15454   4.709   3.174   5.938 -0.1658  0.1792  0.0741
 4852SOL    HW115455   4.724   3.094   5.881  0.4445 -0.0332  0.5172
 4852SOL    HW215456   4.774   3.173   6.014 -0.2257  1.0370  0.1458
 4853SOL     OW15457   0.796   6.730   1.960  0.2874  0.3145  0.2599
 4853SOL    HW115458   0.826   6.638   1.988 -0.0412  0.2045  0.2630
 4853SOL    HW215459   0.868   6.774   1.908  0.2911 -0.1108 -0.1004
 4854SOL     OW15460   4.817   0.908   3.113 -0.2674  0.1752 -0.4712
 4854SOL    HW115461   4.910   0.927   3.082 -0.1947  0.0140 -0.3525
 4854SOL    HW215462   4.766   0.861   3.041 -0.2737  0.3067 -0.5542
 4855SOL     OW15463   4.682   4.483   5.192  0.2615  0.9866 -0.8002
 4855SOL    HW115464   4.754   4.416   5.176  0.3036  0.4867  1.2406
 4855SOL    HW215465   4.722   4.574   5.198  0.2136  1.2560 -3.5081
 4856SOL     OW15466   6.320   2.350   2.657 -0.5022  0.0434 -0.4518
 4856SOL    HW115467   6.398   2.296   2.627 -0.1041  0.7338 -0.6476
 4856SOL    HW215468   6.293   2.319   2.749 -0.0062 -0.1946 -0.3810
 4857SOL     OW15469   3.754   1.504   6.043 -0.0497 -0.1940 -0.5384
 4857SOL    HW115470   3.689   1.497   6.119  0.9429  1.7460  0.5352
 4857SOL    HW215471   3.732   1.583   5.987  0.6971 -0.1957 -0.8490
 4858SOL     OW15472   2.529   5.511   3.963  0.3577  0.4066  0.4187
 4858SOL    HW115473   2.531   5.420   3.924  0.1172  0.5141  0.1545
 4858SOL    HW215474   2.450   5.561   3.928  1.1883  1.1592 -0.4221
 4859SOL     OW15475   0.508   4.953   3.480  0.5817  0.2297  0.0693
 4859SOL    HW115476   0.535   4.996   3.393 -0.9347 -2.0408 -1.6360
 4859SOL    HW215477   0.570   4.877   3.500 -0.0770 -0.3197  0.0569
 4860SOL     OW15478   4.847   5.263   1.558  0.1848  0.7034  0.1491
 4860SOL    HW115479   4.825   5.358   1.536 -1.0021  0.1700 -1.1267
 4860SOL    HW215480   4.763   5.211   1.570  0.8290 -0.0408  1.5972
 4861SOL     OW15481   4.301   6.441   5.281  0.3509 -0.4418  0.6572
 4861SOL    HW115482   4.217   6.405   5.240  0.2096  0.3389  0.2424
 4861SOL    HW215483   4.377   6.432   5.216  0.4657 -0.6365  0.8187
 4862SOL     OW15484   3.015   4.859   4.591 -0.7412  0.2726 -0.1797
 4862SOL    HW115485   2.982   4.808   4.670  0.7783  1.6587  1.4193
 4862SOL    HW215486   3.016   4.957   4.612  0.4357  0.6149 -1.6382
 4863SOL     OW15487   0.141   1.686   2.445  0.0317  0.8841  0.2714
 4863SOL    HW115488   0.146   1.599   2.494 -0.6132 -0.7499 -2.3717
 4863SOL    HW215489   0.233   1.714   2.416 -0.0425 -1.2916 -2.5483
 4864SOL     OW15490   2.606   5.025   0.247 -0.2513 -0.7578  0.1542
 4864SOL    HW115491   2.600   4.962   0.170 -0.5534 -1.5873  0.8455
 4864SOL    HW215492   2.591   4.975   0.332 -0.0699  0.1750  0.7443
 4865SOL     OW15493   4.616   0.059   5.888 -0.3604 -0.5105 -0.2482
 4865SOL    HW115494   4.689   0.068   5.821 -0.3573  0.2279 -0.1550
 4865SOL    HW215495   4.545   0.128   5.869 -0.0352  0.1556  0.9126
 4866SOL     OW15496   1.909   3.322   1.111 -0.3705 -0.7499  0.4748
 4866SOL    HW115497   1.989   3.376   1.137  0.3286 -0.6534 -1.6414
 4866SOL    HW215498   1.870   3.279   1.192  1.2125  0.0126  1.7115
 4867SOL     OW15499   0.731   3.701   5.507  0.2169 -0.0678 -0.0519
 4867SOL    HW115500   0.735   3.604   5.483 -2.0540 -0.1403 -0.4291
 4867SOL    HW215501   0.650   3.741   5.465 -0.4965  1.3106  2.4471
 4868SOL     OW15502   3.477   6.732   3.482  0.2251 -0.3272  0.1292
 4868SOL    HW115503   3.533   6.653   3.507  2.1516  0.9908  0.1446
 4868SOL    HW215504   3.513   6.775   3.400 -0.6441  0.6799  0.2432
 4869SOL     OW15505   6.941   3.557   1.010 -0.3464 -0.3670 -0.1013
 4869SOL    HW115506   6.936   3.470   1.060 -0.7206 -0.5407 -0.4317
 4869SOL    HW215507   7.037   3.583   0.998 -0.2597 -0.0350  1.1830
 4870SOL     OW15508   6.446   1.890   2.527 -0.2198  0.7515 -0.6767
 4870SOL    HW115509   6.423   1.861   2.620  2.4663  0.1598 -0.1266
 4870SOL    HW215510   6.419   1.819   2.462 -1.5529  0.9010 -0.3228
 4871SOL     OW15511   2.744   2.106   4.337 -0.2610 -0.2376 -0.0975
 4871SOL    HW115512   2.749   2.051   4.253  0.1028  0.7276 -0.7229
 4871SOL    HW215513   2.798   2.189   4.326 -1.3460  0.5896  0.5709
 4872SOL     OW15514   2.547   1.779   2.722  0.5457  0.9071 -0.1515
 4872SOL    HW115515   2.640   1.757   2.694  0.3756 -0.3592  0.2111
 4872SOL    HW215516   2.547   1.861   2.779  1.2688  1.6849 -1.2342
 4873SOL     OW15517   6.830   6.817   0.764 -0.2758  0.1551 -0.1927
 4873SOL    HW115518   6.925   6.843   0.748 -0.1902 -0.3568 -0.5351
 4873SOL    HW215519   6.800   6.754   0.692 -0.6548 -0.2384  0.2999
 4874SOL     OW15520   6.058   3.212   4.363 -0.1145 -0.1809 -0.0961
 4874SOL    HW115521   5.981   3.264   4.329  0.5214  0.1868 -1.0172
 4874SOL    HW215522   6.140   3.234   4.310  0.3695 -1.4476  0.0701
 4875SOL     OW15523   0.353   2.956   5.384 -0.5519  0.7168 -0.2403
 4875SOL    HW115524   0.347   3.056   5.378  0.1021  0.9027  1.6386
 4875SOL    HW215525   0.342   2.927   5.479  0.8632 -0.8650 -0.5029
 4876SOL     OW15526   6.697   0.987   5.779 -0.6530  0.7308 -0.2383
 4876SOL    HW115527   6.615   1.003   5.835 -1.7817  1.2281 -1.9430
 4876SOL    HW215528   6.754   1.069   5.781 -1.9025  1.6895 -1.6979
 4877SOL     OW15529   4.622   2.231   3.715 -0.1977  0.2597 -0.1452
 4877SOL    HW115530   4.553   2.159   3.720 -1.3032  1.2258 -0.8125
 4877SOL    HW215531   4.577   2.320   3.722  0.6339  1.0184 -2.9679
 4878SOL     OW15532   3.147   1.240   3.901 -0.0824 -0.4364  1.0281
 4878SOL    HW115533   3.070   1.223   3.840  0.0638 -1.1386  1.0252
 4878SOL    HW215534   3.170   1.337   3.900  0.3690 -0.5304 -0.5705
 4879SOL     OW15535   3.158   6.920   3.215  0.1090  0.0267 -0.3957
 4879SOL    HW115536   3.178   6.971   3.299 -3.8362 -0.1327  0.8913
 4879SOL    HW215537   3.186   6.825   3.227 -2.1792 -0.5112  1.7839
 4880SOL     OW15538   0.245   1.187   5.916  0.0498 -0.3765 -0.2397
 4880SOL    HW115539   0.340   1.217   5.926  1.1301 -3.6934  0.8927
 4880SOL    HW215540   0.192   1.221   5.993  0.2880  1.4455 -0.8356
 4881SOL     OW15541   4.218   6.017   5.571 -0.1222 -0.1965 -0.2271
 4881SOL    HW115542   4.286   6.073   5.524  0.4575 -0.4095  0.3459
 4881SOL    HW215543   4.182   5.948   5.509  0.8150 -0.6333 -0.2941
 4882SOL     OW15544   6.151   4.313   0.072 -0.4578  0.4230  0.0005
 4882SOL    HW115545   6.211   4.334  -0.006 -1.1878  1.6453 -0.2590
 4882SOL    HW215546   6.206   4.307   0.155  0.1386  0.6326 -0.3673
 4883SOL     OW15547   0.105   5.002   1.470 -0.0267 -0.2347  0.9406
 4883SOL    HW115548   0.071   5.095   1.486 -1.9056 -1.0148  1.7953
 4883SOL    HW215549   0.031   4.945   1.435  1.1872 -1.3674  0.0967
 4884SOL     OW15550   5.882   5.753   3.069 -0.5079 -0.1242  0.3941
 4884SOL    HW115551   5.795   5.786   3.032 -0.6612 -1.2871 -0.3577
 4884SOL    HW215552   5.866   5.706   3.155 -0.9178 -1.8603 -0.5824
 4885SOL     OW15553   0.401   6.984   1.539  0.3647  0.0858  0.3686
 4885SOL    HW115554   0.457   7.018   1.615  1.5420 -0.4789 -0.2126
 4885SOL    HW215555   0.393   6.884   1.546  1.6196 -0.1499 -0.9347
 4886SOL     OW15556   5.416   1.610   5.460  0.2151  0.3717 -0.3370
 4886SOL    HW115557   5.463   1.542   5.517  0.2745  0.6550 -0.0462
 4886SOL    HW215558   5.339   1.566   5.414 -0.0318  0.2135  0.2182
 4887SOL     OW15559   0.819   2.098   5.107  0.0780 -0.1521 -0.1447
 4887SOL    HW115560   0.849   2.187   5.139  2.0870  0.1022 -2.5231
 4887SOL    HW215561   0.755   2.059   5.174  2.2022  1.2766  2.9306
 4888SOL     OW15562   3.458   6.264   0.621  0.0509 -0.6240 -0.0680
 4888SOL    HW115563   3.388   6.237   0.555  1.5547 -0.4387 -1.8508
 4888SOL    HW215564   3.450   6.362   0.640 -0.1742 -0.6044 -0.2635
 4889SOL     OW15565   0.806   4.353   5.249  0.4273 -0.2651 -0.3584
 4889SOL    HW115566   0.746   4.279   5.277 -0.6900  0.5985 -0.4018
 4889SOL    HW215567   0.900   4.332   5.276 -0.0850 -1.0367  0.8950
 4890SOL     OW15568   0.066   5.994   4.700 -0.4339  0.5207  0.1332
 4890SOL    HW115569  -0.013   5.942   4.667  0.9861 -0.7838 -1.4128
 4890SOL    HW215570   0.148   5.967   4.648  0.8420  2.5978  0.9209
 4891SOL     OW15571   0.385   3.784   1.994 -0.1674  0.0026  0.2043
 4891SOL    HW115572   0.289   3.759   2.009 -0.8856  2.4283 -0.0024
 4891SOL    HW215573   0.427   3.807   2.082  0.5191 -1.8032  0.4034
 4892SOL     OW15574   1.275   6.655   1.276 -0.0202 -0.3616  0.1576
 4892SOL    HW115575   1.236   6.605   1.198  1.6317 -0.6901 -0.4934
 4892SOL    HW215576   1.212   6.728   1.304  0.3040  1.2696 -2.9574
 4893SOL     OW15577   0.400   4.174   0.533  0.4277 -0.5216 -0.2901
 4893SOL    HW115578   0.366   4.232   0.459 -0.0303  0.1986  0.4661
 4893SOL    HW215579   0.500   4.178   0.535  0.4122  2.6382  1.5220
 4894SOL     OW15580   6.865   5.857   4.577  0.2995  0.0123  0.0821
 4894SOL    HW115581   6.849   5.952   4.550  1.2922 -0.1326 -1.1072
 4894SOL    HW215582   6.859   5.798   4.497 -1.2018 -1.0915  0.9388
 4895SOL     OW15583   0.304   4.565   1.139  0.2536 -0.4224 -0.0593
 4895SOL    HW115584   0.219   4.516   1.124 -0.3125  0.8234 -1.1152
 4895SOL    HW215585   0.285   4.662   1.157  1.4285 -0.1536 -0.1396
 4896SOL     OW15586   4.654   1.667   5.644  0.1177  0.1897  0.3013
 4896SOL    HW115587   4.569   1.719   5.629 -0.2256 -0.7801 -1.3896
 4896SOL    HW215588   4.668   1.655   5.742 -1.5974  0.5636  0.6385
 4897SOL     OW15589   2.897   5.643   0.910  0.1388  0.4926  0.6533
 4897SOL    HW115590   2.990   5.675   0.894  0.0757  0.0373 -0.7371
 4897SOL    HW215591   2.849   5.709   0.968  1.6418  0.1668  2.3663
 4898SOL     OW15592   5.106   4.224   4.710 -0.2625 -0.4271  0.5011
 4898SOL    HW115593   5.123   4.160   4.635 -0.7222 -1.1064  0.9737
 4898SOL    HW215594   5.031   4.191   4.767 -0.8880  0.8042  0.4404
 4899SOL     OW15595   6.717   5.122   4.762 -0.1071  0.6028  0.3771
 4899SOL    HW115596   6.748   5.154   4.852  0.2708  3.2767 -0.6152
 4899SOL    HW215597   6.795   5.084   4.712  0.2104  1.3468  0.2955
 4900SOL     OW15598   0.046   5.845   6.737 -0.5084 -0.0464 -0.5276
 4900SOL    HW115599   0.110   5.795   6.680  1.3758 -1.2962  2.4407
 4900SOL    HW215600   0.086   5.932   6.765 -0.6743 -0.1986  0.2146
 4901SOL     OW15601   0.736   1.795   2.983  0.1671 -0.0218  0.3465
 4901SOL    HW115602   0.749   1.881   3.033 -0.8964  0.8983 -0.9184
 4901SOL    HW215603   0.667   1.807   2.912 -0.0842 -1.9667  0.2067
 4902SOL     OW15604   3.881   6.604   0.664  0.1495 -0.4485  0.0289
 4902SOL    HW115605   3.884   6.651   0.576  2.9894 -0.6655 -0.0679
 4902SOL    HW215606   3.877   6.672   0.737  3.0446  0.0329 -0.1522
 4903SOL     OW15607   0.154   4.130   0.288 -0.2187 -0.4436  0.3183
 4903SOL    HW115608   0.189   4.058   0.228 -0.5762  0.7442 -1.4010
 4903SOL    HW215609   0.222   4.203   0.297  0.2157 -1.0207  2.1911
 4904SOL     OW15610   3.932   1.906   4.181 -0.3439  0.2589  0.1857
 4904SOL    HW115611   3.969   1.845   4.111 -1.3834  0.8027 -0.8720
 4904SOL    HW215612   3.983   1.992   4.182  0.2031 -0.0635  0.6891
 4905SOL     OW15613   6.895   4.418   3.659 -0.0369 -0.2246  0.1570
 4905SOL    HW115614   6.829   4.446   3.589  0.1547 -1.8788 -0.7308
 4905SOL    HW215615   6.988   4.433   3.626  0.0520  0.2398  0.6075
 4906SOL     OW15616   5.189   0.482   0.876 -0.0441 -0.0548  0.4223
 4906SOL    HW115617   5.247   0.420   0.930  1.1581  0.4289 -0.2613
 4906SOL    HW215618   5.161   0.437   0.792  1.7548  0.6179 -0.6152
 4907SOL     OW15619   4.175   2.150   0.806  0.4920  0.0230  0.6633
 4907SOL    HW115620   4.160   2.238   0.852  0.8242  0.5591 -0.2190
 4907SOL    HW215621   4.132   2.077   0.859 -0.7878  0.8620  0.8469
 4908SOL     OW15622   4.771   5.170   0.258  0.4893 -0.1838  0.1211
 4908SOL    HW115623   4.707   5.243   0.235  0.3848  0.4795  2.2533
 4908SOL    HW215624   4.864   5.207   0.264  0.5998 -0.4646  0.1370
 4909SOL     OW15625   0.170   5.276   5.456 -0.6676  0.3981  0.3897
 4909SOL    HW115626   0.150   5.373   5.466  1.1251  1.0005 -1.3490
 4909SOL    HW215627   0.262   5.257   5.491 -0.6517 -0.5022 -0.1152
 4910SOL     OW15628   5.065   1.026   4.770  0.1549  0.0859  0.6870
 4910SOL    HW115629   5.086   1.092   4.842  1.6587  1.7504 -1.1554
 4910SOL    HW215630   5.085   1.067   4.681  2.2749 -3.2107 -0.5425
 4911SOL     OW15631   1.877   4.393   5.777 -0.1886  0.3873  0.8528
 4911SOL    HW115632   1.933   4.440   5.709  1.7475  0.5239  2.4493
 4911SOL    HW215633   1.812   4.333   5.731  0.5404  1.0106 -1.1079
 4912SOL     OW15634   2.448   2.569   2.489  0.3632 -0.6610 -0.3393
 4912SOL    HW115635   2.508   2.638   2.448  0.7225 -0.6659  0.1752
 4912SOL    HW215636   2.432   2.591   2.585  0.9840 -1.6327 -0.0023
 4913SOL     OW15637   3.828   3.372   1.380 -0.1971 -0.5056  0.1753
 4913SOL    HW115638   3.845   3.446   1.445 -1.8995 -0.4270  0.5933
 4913SOL    HW215639   3.807   3.411   1.290  2.6892 -0.6224 -0.6633
 4914SOL     OW15640   1.790   0.013   2.481 -0.4114 -0.0753  0.1642
 4914SOL    HW115641   1.737   0.096   2.463 -0.8459 -0.6016 -1.1035
 4914SOL    HW215642   1.733  -0.067   2.464  0.3887 -0.6359  0.0935
 4915SOL     OW15643   4.699   0.301   3.867  0.4616 -0.3195 -0.2856
 4915SOL    HW115644   4.609   0.318   3.906  0.3577  0.3121 -0.7750
 4915SOL    HW215645   4.759   0.379   3.886  0.2777  0.2160 -1.7149
 4916SOL     OW15646   1.134   0.339   2.919 -0.0766  0.2337 -0.1731
 4916SOL    HW115647   1.063   0.276   2.952  1.3763 -0.0223  2.7463
 4916SOL    HW215648   1.190   0.293   2.850 -1.0484 -0.4881 -0.5120
 4917SOL     OW15649   0.360   5.686   5.486  0.0964  0.1683 -0.3716
 4917SOL    HW115650   0.415   5.700   5.568 -1.5299  1.4992  0.5634
 4917SOL    HW215651   0.402   5.615   5.429  0.9155 -1.2861  1.9112
 4918SOL     OW15652   0.664   6.302   5.554  0.1855 -0.0118 -0.1031
 4918SOL    HW115653   0.596   6.347   5.497 -0.3628  0.4893  0.9168
 4918SOL    HW215654   0.618   6.248   5.625  0.8355 -1.7407 -0.9302
 4919SOL     OW15655   2.136   1.949   2.131 -0.0003 -0.1764 -0.5151
 4919SOL    HW115656   2.046   1.981   2.161  0.3628 -0.0624  0.5188
 4919SOL    HW215657   2.204   1.970   2.202  1.1346  1.0994 -1.8993
 4920SOL     OW15658   3.769   1.480   6.904  0.2448  0.3676  0.0571
 4920SOL    HW115659   3.823   1.447   6.981  0.6169  2.4555  0.7376
 4920SOL    HW215660   3.714   1.558   6.932 -0.3026  0.6155 -1.5675
 4921SOL     OW15661   0.182   5.135   0.531 -0.0156  0.3080  0.6159
 4921SOL    HW115662   0.226   5.097   0.613  1.4075  0.5121 -0.0186
 4921SOL    HW215663   0.085   5.151   0.549  0.1051 -0.3784  2.0020
 4922SOL     OW15664   0.572   3.207   5.390  0.1535  0.2602 -0.2317
 4922SOL    HW115665   0.570   3.227   5.488 -2.2558  0.1342 -0.2148
 4922SOL    HW215666   0.666   3.221   5.356  1.4133 -1.1564  2.3478
 4923SOL     OW15667   4.900   3.755   0.763 -0.3317 -0.0999  0.3307
 4923SOL    HW115668   4.977   3.791   0.814  0.5586  1.6746 -2.0764
 4923SOL    HW215669   4.888   3.657   0.784  1.5572 -0.0396  1.8914
 4924SOL     OW15670   2.066   4.205   4.418 -0.1791 -0.4835  0.8215
 4924SOL    HW115671   2.072   4.228   4.321  1.5141 -0.8227  0.8166
 4924SOL    HW215672   2.134   4.259   4.469 -1.8623  0.6055  2.0283
 4925SOL     OW15673   4.262   4.732   4.337  0.1390  0.5337 -0.1381
 4925SOL    HW115674   4.249   4.812   4.278 -0.1945  0.7292  0.1950
 4925SOL    HW215675   4.358   4.724   4.362 -0.2448  3.0948  2.9277
 4926SOL     OW15676   4.822   3.904   1.630 -0.3800 -0.1337  0.6232
 4926SOL    HW115677   4.796   3.838   1.559  0.3770  0.2649 -0.0431
 4926SOL    HW215678   4.740   3.944   1.670 -0.8145 -0.1080 -0.2787
 4927SOL     OW15679   3.532   3.203   2.417  0.4383  0.1845 -0.7353
 4927SOL    HW115680   3.481   3.200   2.503  0.1143 -0.7011 -0.9515
 4927SOL    HW215681   3.481   3.256   2.350  0.1800 -0.0243 -0.7062
 4928SOL     OW15682   1.190   2.330   0.091  0.2064  0.8116 -0.2687
 4928SOL    HW115683   1.141   2.324   0.178 -0.5109  0.9058 -0.6587
 4928SOL    HW215684   1.269   2.391   0.101  1.6505 -1.1776  0.9965
 4929SOL     OW15685   6.749   3.214   3.449 -0.5511  0.5562  0.5669
 4929SOL    HW115686   6.716   3.124   3.479  2.4057 -0.6632  0.4401
 4929SOL    HW215687   6.701   3.240   3.366  1.3970 -3.0428 -1.9801
 4930SOL     OW15688   1.620   3.482   7.010 -0.0095  0.5926 -0.3615
 4930SOL    HW115689   1.645   3.554   6.945 -2.2389 -0.4169 -2.4602
 4930SOL    HW215690   1.534   3.506   7.056  0.2395  0.1277  0.3717
 4931SOL     OW15691   6.595   1.584   1.487 -0.0371  0.4665  0.6278
 4931SOL    HW115692   6.584   1.610   1.583 -2.0862  2.3383 -0.0155
 4931SOL    HW215693   6.594   1.485   1.479 -2.7470  0.2551  2.3172
 4932SOL     OW15694   1.860   2.739   6.399  0.1603 -0.3545 -0.5551
 4932SOL    HW115695   1.922   2.668   6.368  0.6188 -0.5527  0.7465
 4932SOL    HW215696   1.874   2.755   6.497 -1.9384 -0.5215 -0.1781
 4933SOL     OW15697   2.023   6.684   2.941 -0.3329 -0.3497 -0.5876
 4933SOL    HW115698   2.034   6.775   2.980 -1.0119  0.2194 -1.6944
 4933SOL    HW215699   1.967   6.689   2.859  1.5099 -1.4218 -1.9894
 4934SOL     OW15700   6.379   5.889   5.816  0.8097 -0.7810 -0.1562
 4934SOL    HW115701   6.393   5.793   5.788  1.3815 -0.5693 -0.6161
 4934SOL    HW215702   6.467   5.931   5.837  0.5849 -0.2771 -0.2042
 4935SOL     OW15703   0.131   2.094   3.276  1.0219 -0.7825  0.1899
 4935SOL    HW115704   0.126   2.021   3.208  1.5713 -0.4326 -0.2374
 4935SOL    HW215705   0.226   2.123   3.287  0.9043 -0.6591  0.9225
 4936SOL     OW15706   5.510   1.533   1.809  0.6914 -0.9790 -0.1208
 4936SOL    HW115707   5.531   1.436   1.818  2.0175 -0.8948 -1.8006
 4936SOL    HW215708   5.413   1.548   1.828  0.8588 -2.2895  2.1765
 4937SOL     OW15709   1.259   2.742   6.525 -0.1700  0.3147  0.0376
 4937SOL    HW115710   1.217   2.666   6.475 -1.4491  1.8434 -1.3429
 4937SOL    HW215711   1.204   2.764   6.605 -0.6648  0.7621 -0.4211
 4938SOL     OW15712   2.990   4.550   0.345 -0.6527  0.3484  0.0340
 4938SOL    HW115713   2.929   4.491   0.398  0.3710 -2.6734 -1.8898
 4938SOL    HW215714   3.078   4.558   0.392 -0.5067 -0.4260 -0.0938
 4939SOL     OW15715   3.774   2.926   0.755  0.7348 -0.1490  0.5597
 4939SOL    HW115716   3.700   2.994   0.760  1.2945  0.6725 -1.3814
 4939SOL    HW215717   3.861   2.970   0.773  1.1352 -0.2549 -0.9987
 4940SOL     OW15718   0.763   0.511   6.246  0.4502 -0.2567 -0.6008
 4940SOL    HW115719   0.792   0.558   6.329  0.1080  2.0491 -1.6993
 4940SOL    HW215720   0.746   0.415   6.266 -1.6495  0.6204  2.4731
 4941SOL     OW15721   3.516   2.701   5.444 -0.1960 -0.3709 -0.7030
 4941SOL    HW115722   3.463   2.625   5.409 -2.6838  1.0361 -0.2134
 4941SOL    HW215723   3.480   2.787   5.408  1.2229  0.7220  0.3344
 4942SOL     OW15724   0.906   0.389   5.026 -0.2483  0.6073 -0.3010
 4942SOL    HW115725   0.810   0.419   5.026 -0.2429  0.6584  0.6875
 4942SOL    HW215726   0.930   0.355   5.117  0.8856  1.2642 -0.3412
 4943SOL     OW15727   6.094   1.460   7.003 -0.5740  0.0374 -0.0194
 4943SOL    HW115728   6.009   1.509   7.023 -0.9314 -0.8377  0.6595
 4943SOL    HW215729   6.086   1.365   7.031 -1.1587 -1.4445 -4.3978
 4944SOL     OW15730   3.140   5.385   0.285 -0.3499 -0.3767  0.0577
 4944SOL    HW115731   3.159   5.483   0.287  0.0310 -0.4510  1.9731
 4944SOL    HW215732   3.219   5.335   0.320 -0.4702 -1.4059 -1.0741
 4945SOL     OW15733   3.447   4.787   6.150  0.4062  0.0361 -0.1489
 4945SOL    HW115734   3.463   4.860   6.216  2.4024  0.7609 -1.3646
 4945SOL    HW215735   3.362   4.805   6.101  0.3155  0.9398  0.3170
 4946SOL     OW15736   0.912   0.983   5.659 -0.0662  0.2813  0.1452
 4946SOL    HW115737   0.874   0.911   5.718  2.5378 -0.8607  0.5790
 4946SOL    HW215738   0.954   1.054   5.715  3.2454 -1.2608 -0.1073
 4947SOL     OW15739   1.701   1.589   1.474 -0.0769  0.3900  0.2683
 4947SOL    HW115740   1.703   1.528   1.553 -0.9427 -0.1110 -0.0803
 4947SOL    HW215741   1.606   1.608   1.450  0.1778  0.3715 -0.7790
 4948SOL     OW15742   0.530   4.296   3.203 -0.3464  0.0083  0.2636
 4948SOL    HW115743   0.626   4.268   3.202 -0.7785 -1.5871  0.5372
 4948SOL    HW215744   0.525   4.395   3.199  1.2838  0.0995 -1.1640
 4949SOL     OW15745   5.743   5.447   6.450 -0.1740  0.3699  0.2466
 4949SOL    HW115746   5.667   5.410   6.503  0.6639  0.5231  1.6106
 4949SOL    HW215747   5.708   5.502   6.374 -1.4129  0.4474  0.8551
 4950SOL     OW15748   4.711   3.753   5.761  0.0719  0.0423 -0.1594
 4950SOL    HW115749   4.646   3.698   5.709  1.6814 -1.7244 -0.4063
 4950SOL    HW215750   4.739   3.703   5.843  0.7855  0.9579  0.1734
 4951SOL     OW15751   3.493   0.060   5.232 -0.0418 -0.1967 -0.2048
 4951SOL    HW115752   3.442  -0.026   5.229  0.7235 -0.7152  1.0287
 4951SOL    HW215753   3.544   0.066   5.318 -0.0842  1.5026 -0.2682
 4952SOL     OW15754   0.763   0.592   0.262 -0.6256  0.3032  0.5374
 4952SOL    HW115755   0.689   0.534   0.226 -0.1764 -0.1589  0.3468
 4952SOL    HW215756   0.809   0.639   0.187 -0.9559  0.8790  0.6880
 4953SOL     OW15757   6.809   0.570   6.154 -0.2436 -0.2475 -0.2561
 4953SOL    HW115758   6.814   0.629   6.074  1.5116 -0.9610 -0.7215
 4953SOL    HW215759   6.901   0.557   6.192 -0.7128 -1.8573  0.4201
 4954SOL     OW15760   5.341   3.555   5.265 -0.3177  0.0295 -0.6488
 4954SOL    HW115761   5.292   3.628   5.313 -1.9407 -1.2479 -0.2595
 4954SOL    HW215762   5.309   3.550   5.170  0.5114  0.4410 -0.9611
 4955SOL     OW15763   4.339   6.037   0.037 -0.2586 -0.0603 -0.2525
 4955SOL    HW115764   4.423   5.995   0.001 -0.8415 -0.6372 -0.9847
 4955SOL    HW215765   4.328   6.012   0.133  1.1267  1.1839  0.2678
 4956SOL     OW15766   3.013   0.536   3.626  0.8361 -0.2123 -0.2633
 4956SOL    HW115767   3.046   0.520   3.719 -1.4346 -1.8675  0.3469
 4956SOL    HW215768   3.012   0.450   3.575 -2.3677 -0.3485 -0.1950
 4957SOL     OW15769   5.848   3.484   1.955 -0.3372  0.0599  0.1157
 4957SOL    HW115770   5.856   3.384   1.958 -3.2611 -0.4109 -2.4095
 4957SOL    HW215771   5.765   3.512   2.003  0.3704  1.3251  0.6563
 4958SOL     OW15772   3.233   4.104   6.115  0.2236  0.4383  0.2787
 4958SOL    HW115773   3.147   4.127   6.161  0.3189  1.5712 -0.0689
 4958SOL    HW215774   3.271   4.021   6.155 -1.5265 -0.6535 -0.2314
 4959SOL     OW15775   2.620   1.208   0.419  0.1065 -0.1354  0.0062
 4959SOL    HW115776   2.557   1.134   0.397 -0.2483 -0.7903  2.7586
 4959SOL    HW215777   2.714   1.178   0.407 -0.0498 -0.8167  0.4570
 4960SOL     OW15778   4.764   4.208   5.482 -0.0922  0.0300  0.3277
 4960SOL    HW115779   4.676   4.170   5.453  0.8921 -1.2587 -1.1195
 4960SOL    HW215780   4.819   4.136   5.524  0.2403  0.8539  1.3437
 4961SOL     OW15781   3.871   5.119   0.842 -0.6364  0.0889 -0.2479
 4961SOL    HW115782   3.959   5.094   0.881 -0.1535  1.8110 -0.1441
 4961SOL    HW215783   3.885   5.186   0.769 -1.8752  0.8623  0.1854
 4962SOL     OW15784   1.026   3.531   2.502 -0.8926 -0.0503 -0.5688
 4962SOL    HW115785   1.067   3.558   2.414  1.3354 -0.7608  0.1762
 4962SOL    HW215786   1.098   3.524   2.571 -2.2335 -1.9989  0.7136
 4963SOL     OW15787   0.563   2.905   6.593 -0.0017  0.4848 -0.0187
 4963SOL    HW115788   0.564   2.844   6.672 -0.7630 -0.0598 -0.4147
 4963SOL    HW215789   0.473   2.904   6.551 -0.0122  1.8517 -0.0820
 4964SOL     OW15790   2.534   4.864   1.097  0.3848 -0.7251 -0.1780
 4964SOL    HW115791   2.480   4.805   1.156  0.9945 -1.3546 -0.2346
 4964SOL    HW215792   2.631   4.840   1.105  0.4374 -1.2992 -1.9450
 4965SOL     OW15793   3.779   0.395   3.281  0.1786  0.3367 -0.6760
 4965SOL    HW115794   3.808   0.422   3.373 -0.6861 -1.8220  0.2986
 4965SOL    HW215795   3.830   0.448   3.214  3.4534 -0.4213  0.9824
 4966SOL     OW15796   3.543   5.999   4.699 -0.1732 -0.1323 -0.0631
 4966SOL    HW115797   3.602   5.918   4.695  0.3005  0.2517 -0.9732
 4966SOL    HW215798   3.519   6.027   4.606  1.5934  2.1916  0.1113
 4967SOL     OW15799   5.024   5.181   3.618 -0.2117 -0.4830 -0.4421
 4967SOL    HW115800   5.070   5.250   3.675 -1.8084 -0.3647  0.7461
 4967SOL    HW215801   5.049   5.090   3.649 -1.9339 -0.4295  1.2335
 4968SOL     OW15802   6.599   2.631   2.719  0.3018  0.5051 -0.5630
 4968SOL    HW115803   6.587   2.583   2.632  2.0040  0.2756 -0.6981
 4968SOL    HW215804   6.696   2.638   2.741 -0.0913  0.1016  1.5857
 4969SOL     OW15805   1.208   4.623   3.703 -0.4209 -0.9238 -0.3965
 4969SOL    HW115806   1.291   4.654   3.658 -0.4701  0.3583  0.3525
 4969SOL    HW215807   1.223   4.531   3.741  0.5672 -0.7996 -0.4623
 4970SOL     OW15808   3.215   2.088   1.394 -0.5294  0.1564  0.0389
 4970SOL    HW115809   3.221   2.020   1.467 -1.1325  0.8531  0.7454
 4970SOL    HW215810   3.301   2.138   1.387 -0.0572 -0.7119 -0.5317
 4971SOL     OW15811   2.045   1.697   3.123  0.3177 -0.1671 -0.0829
 4971SOL    HW115812   2.113   1.686   3.050 -0.5835 -0.8392 -0.8419
 4971SOL    HW215813   1.956   1.716   3.083 -0.0883  0.0115  0.8837
 4972SOL     OW15814   5.979   2.611   1.418 -0.4181  0.2700 -0.4594
 4972SOL    HW115815   5.960   2.707   1.396 -0.9952  0.0257 -1.0612
 4972SOL    HW215816   6.067   2.585   1.379  0.2689  0.8491  0.6416
 4973SOL     OW15817   6.644   3.186   6.240  0.5022 -0.1658  0.1728
 4973SOL    HW115818   6.559   3.238   6.247 -0.8765 -2.2599 -0.0797
 4973SOL    HW215819   6.629   3.093   6.274  2.6430 -0.6779 -0.1224
 4974SOL     OW15820   4.481   0.651   6.799  0.1372  0.4672 -0.1660
 4974SOL    HW115821   4.487   0.552   6.803  2.0988  0.5932  1.8116
 4974SOL    HW215822   4.481   0.681   6.703  0.8115 -1.3698 -0.7665
 4975SOL     OW15823   5.507   1.601   3.069 -0.4561 -0.0811 -0.2731
 4975SOL    HW115824   5.481   1.671   3.136  2.0527  0.5471  0.1815
 4975SOL    HW215825   5.457   1.516   3.087  0.4262 -0.0667  2.7345
 4976SOL     OW15826   0.560   5.785   4.881  0.1963 -0.5384  0.0987
 4976SOL    HW115827   0.600   5.872   4.853  0.7052 -0.6746  0.3879
 4976SOL    HW215828   0.460   5.791   4.876  0.2324  0.0090 -0.0250
 4977SOL     OW15829   0.567   3.418   3.866 -0.0643 -0.7533 -0.4817
 4977SOL    HW115830   0.666   3.429   3.873 -0.1517 -0.0629 -0.2474
 4977SOL    HW215831   0.530   3.488   3.805 -0.7191  0.8172  1.5817
 4978SOL     OW15832   5.878   4.681   5.056  0.4004  0.0768 -0.2255
 4978SOL    HW115833   5.954   4.625   5.088 -0.9090 -2.6407 -1.5749
 4978SOL    HW215834   5.890   4.701   4.959  0.4657  1.5884  0.0649
 4979SOL     OW15835   5.839   0.050   4.687  0.2443 -0.1728 -0.5059
 4979SOL    HW115836   5.769   0.068   4.618 -0.0400 -2.1177 -0.7756
 4979SOL    HW215837   5.799   0.054   4.778  0.4726  1.6885 -0.4310
 4980SOL     OW15838   5.055   4.521   5.248 -0.9399 -1.1115 -0.7663
 4980SOL    HW115839   5.134   4.463   5.268 -0.6968 -1.0022 -1.3934
 4980SOL    HW215840   5.077   4.584   5.174  0.3889  2.9510  2.7239
 4981SOL     OW15841   2.821   0.009   2.421  0.4105 -0.4666  0.1398
 4981SOL    HW115842   2.768   0.067   2.359  2.1122 -0.3318 -1.2755
 4981SOL    HW215843   2.860   0.064   2.494 -0.0607 -0.2873  0.2591
 4982SOL     OW15844   3.044   1.749   4.721 -0.0040 -0.1483 -0.3549
 4982SOL    HW115845   3.130   1.800   4.717 -1.4344  2.5885  0.5246
 4982SOL    HW215846   3.016   1.738   4.816 -1.3101  0.3226 -0.6608
 4983SOL     OW15847   4.878   3.993   3.083  0.3018 -0.4498 -0.3171
 4983SOL    HW115848   4.804   4.055   3.109 -0.1346 -0.9790 -0.2713
 4983SOL    HW215849   4.965   4.028   3.117  0.2604  0.8450 -1.4499
 4984SOL     OW15850   4.963   1.412   2.903 -0.2129 -0.3101 -0.2387
 4984SOL    HW115851   5.027   1.482   2.936 -2.0170  1.4962 -0.3913
 4984SOL    HW215852   4.883   1.410   2.963 -0.0687 -2.5178 -0.0572
 4985SOL     OW15853   6.800   6.437   2.880  0.4466  0.2878 -0.1876
 4985SOL    HW115854   6.890   6.473   2.906 -0.1796  1.8257 -0.0758
 4985SOL    HW215855   6.770   6.371   2.949  0.4089  1.6067  1.0930
 4986SOL     OW15856   0.745   4.619   1.841  0.1307 -0.0519  0.0467
 4986SOL    HW115857   0.742   4.693   1.774 -1.8832  0.9520  1.1840
 4986SOL    HW215858   0.658   4.570   1.841  1.3310 -2.3248 -0.5036
 4987SOL     OW15859   2.139   5.234   3.842 -0.0571 -0.3731  0.4787
 4987SOL    HW115860   2.230   5.191   3.836 -1.0360 -2.4654 -0.9644
 4987SOL    HW215861   2.089   5.216   3.757 -2.1964 -0.1881  1.6366
 4988SOL     OW15862   6.547   4.311   5.216 -0.1972  0.4587 -0.6329
 4988SOL    HW115863   6.508   4.297   5.125  1.7518 -2.8267 -1.1114
 4988SOL    HW215864   6.568   4.223   5.257  0.4932  1.9029  2.4002
 4989SOL     OW15865   6.467   6.697   6.303 -0.2434  0.1689  0.4186
 4989SOL    HW115866   6.424   6.696   6.393 -1.2279 -1.6624 -0.0317
 4989SOL    HW215867   6.397   6.701   6.231  0.5160  1.3417 -0.2917
 4990SOL     OW15868   4.558   1.936   4.851  0.2356  0.4513  0.0008
 4990SOL    HW115869   4.557   1.943   4.951  1.3924  0.1272  0.0468
 4990SOL    HW215870   4.519   1.848   4.823 -1.1924  1.0203  0.0858
 4991SOL     OW15871   1.536   5.440   3.999  0.3812  0.7348  0.1069
 4991SOL    HW115872   1.526   5.450   3.900  0.8917  0.8990  0.0708
 4991SOL    HW215873   1.448   5.458   4.043  0.4840  2.1221 -0.2072
 4992SOL     OW15874   2.536   2.351   5.179  0.2300  0.3393  0.6292
 4992SOL    HW115875   2.550   2.340   5.277  0.2271  2.0816  0.8539
 4992SOL    HW215876   2.449   2.310   5.153  0.2778 -0.2294  1.3238
 4993SOL     OW15877   2.719   5.800   2.985  0.0259  0.2018 -0.4458
 4993SOL    HW115878   2.796   5.755   3.030  1.3732  2.1765 -0.6201
 4993SOL    HW215879   2.753   5.859   2.912 -1.6704  1.1206 -0.5508
 4994SOL     OW15880   3.483   4.943   5.043 -0.2515  0.3323  0.0615
 4994SOL    HW115881   3.469   4.856   5.091  0.8769 -1.0060 -1.9020
 4994SOL    HW215882   3.408   4.957   4.978 -0.6700  1.0865  0.6925
 4995SOL     OW15883   6.969   1.461   5.884  0.1195 -0.0842  0.0899
 4995SOL    HW115884   7.020   1.499   5.961  1.4025  0.0807 -0.8051
 4995SOL    HW215885   6.871   1.473   5.899  0.3064 -0.7471  2.0390
 4996SOL     OW15886   1.188   0.451   6.520  0.2388 -0.3143 -0.0183
 4996SOL    HW115887   1.134   0.529   6.487  0.7148 -0.2374 -0.6321
 4996SOL    HW215888   1.209   0.463   6.617  0.3375  0.3410 -0.1161
 4997SOL     OW15889   5.445   1.840   0.143 -0.4457 -0.5171 -1.1331
 4997SOL    HW115890   5.411   1.770   0.206  2.5640 -1.2733 -0.1882
 4997SOL    HW215891   5.399   1.927   0.163 -1.1369 -1.2342  0.6615
 4998SOL     OW15892   0.342   2.478   3.292  0.0377  0.3894  0.2134
 4998SOL    HW115893   0.310   2.564   3.331  0.3671  1.3279 -1.4856
 4998SOL    HW215894   0.379   2.420   3.364 -3.1501  0.2642  1.9251
 4999SOL     OW15895   6.460   1.831   2.099 -0.0121  0.7827 -0.0758
 4999SOL    HW115896   6.548   1.860   2.063  0.8318 -2.4548 -0.9429
 4999SOL    HW215897   6.387   1.884   2.056  1.3908  2.6288 -0.3130
 5000SOL     OW15898   2.085   5.156   2.599  0.1979  0.6618 -0.4030
 5000SOL    HW115899   2.079   5.222   2.674  0.3992 -0.2998  0.4946
 5000SOL    HW215900   1.993   5.124   2.575  0.0656  1.5292 -1.1026
 5001SOL     OW15901   0.535   0.155   3.442  0.4605  0.1186 -0.1131
 5001SOL    HW115902   0.571   0.237   3.398  0.7878  0.6623  1.1043
 5001SOL    HW215903   0.590   0.135   3.523 -0.6713 -0.2920  0.5782
 5002SOL     OW15904   0.260   6.165   4.389  0.8011  0.8621 -0.3759
 5002SOL    HW115905   0.309   6.094   4.338  2.0456 -1.2297  3.3742
 5002SOL    HW215906   0.322   6.241   4.407  1.1607  0.4603  0.1222
 5003SOL     OW15907   3.982   2.082   2.785  0.5134  0.0162  0.2276
 5003SOL    HW115908   3.887   2.100   2.813  0.1001 -1.3889 -0.1785
 5003SOL    HW215909   4.026   2.024   2.854  0.7317 -0.2164 -0.1089
 5004SOL     OW15910   4.726   6.286   6.419 -0.1456 -0.0896 -0.5038
 5004SOL    HW115911   4.706   6.289   6.321  0.6969  0.3465 -0.6768
 5004SOL    HW215912   4.644   6.309   6.471 -0.8724 -1.3261 -1.0669
 5005SOL     OW15913   3.566   3.130   6.601  0.0812 -0.3143  0.4232
 5005SOL    HW115914   3.535   3.150   6.694  1.4584  0.7870  0.6842
 5005SOL    HW215915   3.665   3.119   6.601  0.2707  0.9689 -1.1026
 5006SOL     OW15916   3.795   1.474   3.870 -0.2820 -0.2130 -0.0192
 5006SOL    HW115917   3.796   1.385   3.825 -2.0825 -0.8698  1.1467
 5006SOL    HW215918   3.702   1.497   3.898  0.3800  1.3524  1.0601
 5007SOL     OW15919   6.221   6.423   2.641  0.3595  0.6005  0.0340
 5007SOL    HW115920   6.185   6.497   2.698 -0.2603  2.0854 -2.1300
 5007SOL    HW215921   6.147   6.360   2.617  0.9203 -0.9069  2.0131
 5008SOL     OW15922   2.888   0.138   4.625  0.2445  0.1939 -0.1967
 5008SOL    HW115923   2.911   0.136   4.722  0.1406 -2.6063 -0.1483
 5008SOL    HW215924   2.971   0.122   4.571 -0.1391 -1.1799 -0.4071
 5009SOL     OW15925   1.809   3.424   3.335  0.2791  0.0733  0.0844
 5009SOL    HW115926   1.797   3.326   3.344  0.0832  0.1413  0.6040
 5009SOL    HW215927   1.725   3.465   3.299  1.1158 -0.2184 -2.4136
 5010SOL     OW15928   6.137   5.368   1.567  0.3931 -0.1250 -0.3829
 5010SOL    HW115929   6.060   5.309   1.590  0.6840 -0.7388 -0.9615
 5010SOL    HW215930   6.158   5.360   1.470  0.0558  1.3991 -0.6158
 5011SOL     OW15931   1.037   1.432   4.790  0.3607 -0.0423 -0.2828
 5011SOL    HW115932   0.963   1.489   4.753 -1.8876 -1.6774  1.3915
 5011SOL    HW215933   1.038   1.344   4.743 -0.5756 -1.0167  1.4319
 5012SOL     OW15934   5.285   0.947   6.877 -0.4853 -0.2411  0.4692
 5012SOL    HW115935   5.351   1.006   6.925  0.9249 -1.4372  0.0516
 5012SOL    HW215936   5.252   0.994   6.795  0.1224  0.2162  0.4807
 5013SOL     OW15937   6.236   7.013   6.424 -0.1322  0.0528  0.2173
 5013SOL    HW115938   6.139   7.007   6.399 -0.1493  0.5651  0.1570
 5013SOL    HW215939   6.292   7.009   6.341 -0.0624 -0.9089  0.2940
 5014SOL     OW15940   6.011   3.715   5.041 -0.0916  0.8631  0.4741
 5014SOL    HW115941   5.976   3.630   5.079  0.5568 -0.3236 -1.4746
 5014SOL    HW215942   6.110   3.719   5.051 -0.0277  1.0119 -0.1606
 5015SOL     OW15943   5.413   5.883   5.605 -0.1594  0.0574 -0.5082
 5015SOL    HW115944   5.324   5.927   5.593 -0.6148 -0.6500  0.2039
 5015SOL    HW215945   5.407   5.815   5.678  1.3100  0.9601  0.5194
 5016SOL     OW15946   1.687   1.740   6.506  0.4771  0.3944  0.0326
 5016SOL    HW115947   1.666   1.671   6.575  1.8300  0.0822  0.1418
 5016SOL    HW215948   1.736   1.816   6.549  1.6721  0.0233 -0.6437
 5017SOL     OW15949   0.709   1.214   2.451 -0.0383  0.5184 -0.0440
 5017SOL    HW115950   0.617   1.252   2.438 -0.3689 -0.4835 -0.7681
 5017SOL    HW215951   0.733   1.158   2.371  0.6831 -0.2738  0.7108
 5018SOL     OW15952   6.859   6.217   0.052  0.0384 -0.3174 -0.2711
 5018SOL    HW115953   6.863   6.117   0.045 -1.6848 -0.3171 -2.2247
 5018SOL    HW215954   6.894   6.257  -0.033 -0.5144  0.6815 -0.0352
 5019SOL     OW15955   1.829   1.717   3.869  0.2377  0.5815  0.0682
 5019SOL    HW115956   1.909   1.747   3.920  1.1111  0.0667 -0.9460
 5019SOL    HW215957   1.859   1.671   3.785 -1.1096 -0.1551 -0.0398
 5020SOL     OW15958   2.939   6.668   2.172  0.1516 -0.1366  0.6124
 5020SOL    HW115959   2.925   6.757   2.216  1.4325  0.0864  0.6015
 5020SOL    HW215960   2.857   6.644   2.121 -1.7776 -0.8086  3.7264
 5021SOL     OW15961   3.072   3.027   2.053  0.5025  0.6292  0.4570
 5021SOL    HW115962   3.053   2.998   1.960  3.2049  0.7251 -0.2160
 5021SOL    HW215963   2.993   3.007   2.111 -1.3772  0.8823 -1.8705
 5022SOL     OW15964   6.733   3.643   1.912 -0.2161 -0.4943 -0.2278
 5022SOL    HW115965   6.739   3.657   2.011  0.3818 -0.8316 -0.2116
 5022SOL    HW215966   6.644   3.673   1.880 -1.1772 -2.2302  0.7062
 5023SOL     OW15967   2.161   3.604   3.289  0.3961  0.2601  0.6287
 5023SOL    HW115968   2.228   3.530   3.285  0.5310  0.3139  1.7441
 5023SOL    HW215969   2.099   3.597   3.211  1.7001  0.2223 -0.4510
 5024SOL     OW15970   4.764   3.697   1.096 -0.5619  0.1677 -0.2070
 5024SOL    HW115971   4.730   3.780   1.140 -0.7766 -0.0763  0.0878
 5024SOL    HW215972   4.863   3.691   1.108 -0.5954  0.1953  0.0866
 5025SOL     OW15973   2.930   6.852   4.234  0.4407 -0.3058  0.1083
 5025SOL    HW115974   2.959   6.786   4.165  1.3276  0.8878 -0.6980
 5025SOL    HW215975   2.937   6.810   4.325  1.5845 -1.1231 -0.3330
 5026SOL     OW15976   5.655   6.490   4.773 -0.2335  0.1342 -0.5649
 5026SOL    HW115977   5.754   6.504   4.763 -0.4500  0.9289 -1.7482
 5026SOL    HW215978   5.631   6.495   4.870  1.1398 -2.0150 -0.0490
 5027SOL     OW15979   5.541   6.435   0.135  0.1864 -0.0055 -0.1586
 5027SOL    HW115980   5.569   6.528   0.108  1.3570 -0.7923 -1.8394
 5027SOL    HW215981   5.513   6.385   0.053  0.3854 -1.4104  0.6140
 5028SOL     OW15982   7.010   1.708   1.760 -0.5451 -0.4284 -0.0650
 5028SOL    HW115983   7.097   1.722   1.807 -1.1317  0.7673  0.6954
 5028SOL    HW215984   7.026   1.654   1.677  0.7039 -1.4368  0.7858
 5029SOL     OW15985   5.671   1.705   3.708  0.2778 -0.2720  0.2813
 5029SOL    HW115986   5.708   1.642   3.640  0.4757 -0.3023  0.4176
 5029SOL    HW215987   5.615   1.655   3.774 -1.6707  0.0289 -1.0626
 5030SOL     OW15988   1.123   2.345   0.348  0.2654 -0.6074 -0.5750
 5030SOL    HW115989   1.067   2.423   0.377 -2.4834 -2.3406 -0.8760
 5030SOL    HW215990   1.186   2.320   0.421  1.4920  2.0380 -0.5963
 5031SOL     OW15991   3.900   2.478   5.616  0.3228 -0.0281 -0.1351
 5031SOL    HW115992   3.985   2.530   5.629  0.8416 -1.2192  1.6473
 5031SOL    HW215993   3.858   2.460   5.705  0.1067 -2.5313 -0.6747
 5032SOL     OW15994   1.222   4.424   4.353  0.1017  0.1499  0.3983
 5032SOL    HW115995   1.207   4.398   4.257 -0.6512  0.1970  0.4950
 5032SOL    HW215996   1.246   4.342   4.406 -0.2227 -0.0101  0.3052
 5033SOL     OW15997   1.291   5.530   4.065 -0.2178  0.5567 -0.3094
 5033SOL    HW115998   1.288   5.561   4.161 -0.5073  1.6386 -0.6471
 5033SOL    HW215999   1.300   5.610   4.005 -1.1853 -0.0041 -1.2390
 5034SOL     OW16000   6.621   5.761   3.840 -0.5704  0.3970 -0.2613
 5034SOL    HW116001   6.538   5.801   3.879 -0.1181  1.4087 -0.2933
 5034SOL    HW216002   6.597   5.706   3.760 -1.1667  1.1895 -0.6456
 5035SOL     OW16003   1.955   3.039   5.337  0.1942  0.2211 -0.4703
 5035SOL    HW116004   1.942   2.939   5.339 -0.2925  0.1872 -2.7888
 5035SOL    HW216005   1.887   3.082   5.395 -0.6818 -0.7363 -0.7561
 5036SOL     OW16006   1.692   0.678   3.182  0.9340  0.2339  0.2277
 5036SOL    HW116007   1.752   0.707   3.107  0.4658 -1.2968 -0.7988
 5036SOL    HW216008   1.601   0.657   3.145  1.1583 -2.2096  0.8730
 5037SOL     OW16009   6.854   4.529   3.398 -0.2294 -0.1352 -0.1426
 5037SOL    HW116010   6.896   4.440   3.384  0.9569  0.4518 -0.4768
 5037SOL    HW216011   6.924   4.595   3.426 -1.0851  0.6863  0.1113
 5038SOL     OW16012   0.864   3.316   6.751  0.2061  0.3782  0.9531
 5038SOL    HW116013   0.851   3.407   6.712 -1.5606 -0.2148  0.0086
 5038SOL    HW216014   0.775   3.277   6.776  0.8904 -1.1689  1.1403
 5039SOL     OW16015   0.405   4.391   4.890  0.0285 -0.3881 -0.0562
 5039SOL    HW116016   0.420   4.379   4.988  2.8857  0.0449 -0.3474
 5039SOL    HW216017   0.475   4.341   4.839 -1.0377 -0.1193 -1.8624
 5040SOL     OW16018   2.498   1.061   3.944  0.3860  0.8219  0.5743
 5040SOL    HW116019   2.550   0.985   3.981  1.0937  0.7839 -0.4532
 5040SOL    HW216020   2.400   1.042   3.953  0.5407  0.5030  1.7215
 5041SOL     OW16021   6.108   3.177   0.975 -0.2569 -0.0149 -0.1407
 5041SOL    HW116022   6.201   3.209   0.957 -0.5286  0.6196 -0.4310
 5041SOL    HW216023   6.112   3.084   1.012  0.4426 -0.3496 -1.0296
 5042SOL     OW16024   1.062   7.011   4.791  0.0815 -0.7015  0.9183
 5042SOL    HW116025   0.971   6.995   4.830 -1.0163  0.1482 -1.1321
 5042SOL    HW216026   1.064   6.975   4.698  1.9491 -0.9045  1.0133
 5043SOL     OW16027   3.343   1.131   6.417 -0.3335 -0.4886  0.0247
 5043SOL    HW116028   3.321   1.202   6.350  0.4270 -0.5288 -0.2790
 5043SOL    HW216029   3.442   1.128   6.431 -0.3171 -1.7735 -0.2907
 5044SOL     OW16030   6.508   4.717   0.120 -1.4416  0.1160 -0.1227
 5044SOL    HW116031   6.519   4.812   0.151 -1.8430 -0.2655  1.2304
 5044SOL    HW216032   6.428   4.676   0.164 -0.8406 -1.0913 -0.1143
 5045SOL     OW16033   6.671   3.626   3.087 -0.3515 -0.1351  0.0334
 5045SOL    HW116034   6.757   3.642   3.037 -0.0264 -1.1220  0.2455
 5045SOL    HW216035   6.690   3.619   3.185 -0.2764 -2.6457 -0.0891
 5046SOL     OW16036   4.658   4.541   1.451  0.5332 -0.1536  0.1138
 5046SOL    HW116037   4.676   4.444   1.466 -0.3960 -0.7187 -2.0981
 5046SOL    HW216038   4.560   4.557   1.445  0.6648  0.9674  0.5649
 5047SOL     OW16039   3.634   6.006   5.135 -0.2268 -0.1046 -0.1434
 5047SOL    HW116040   3.613   6.100   5.161 -2.3639 -0.8902  1.2946
 5047SOL    HW216041   3.549   5.959   5.111  0.0182 -2.8870  3.5710
 5048SOL     OW16042   1.141   6.670   4.496  0.2724  0.2389 -0.1966
 5048SOL    HW116043   1.180   6.656   4.405  0.3873  0.5006 -0.1897
 5048SOL    HW216044   1.180   6.604   4.560  0.7483  0.5328 -0.1801
 5049SOL     OW16045   2.387   3.519   0.852 -0.5499 -0.3658  0.5617
 5049SOL    HW116046   2.449   3.583   0.806 -0.0307 -2.9770 -2.7866
 5049SOL    HW216047   2.310   3.569   0.891  0.3138  2.3592 -0.9635
 5050SOL     OW16048   1.846   6.643   6.650  0.2866  0.1578  0.3958
 5050SOL    HW116049   1.886   6.734   6.642 -0.1771  0.2363 -1.3291
 5050SOL    HW216050   1.828   6.624   6.747  1.5831  1.3487  0.9185
 5051SOL     OW16051   5.394   4.308   1.290  0.0485 -0.4075 -0.5700
 5051SOL    HW116052   5.438   4.381   1.238 -0.1505 -0.9829 -1.5695
 5051SOL    HW216053   5.299   4.333   1.309  0.2753  0.0387 -0.0044
 5052SOL     OW16054   4.002   5.100   3.965  0.1465 -0.7501  0.3164
 5052SOL    HW116055   4.051   5.141   4.042 -0.0074  1.7276 -0.7883
 5052SOL    HW216056   4.023   5.151   3.882 -3.0907 -0.5334 -0.4929
 5053SOL     OW16057   6.541   6.691   0.794 -0.1626 -0.1310 -0.1898
 5053SOL    HW116058   6.593   6.613   0.830  0.8150 -0.6616 -2.5271
 5053SOL    HW216059   6.555   6.697   0.695 -2.0086  1.7087 -0.4105
 5054SOL     OW16060   5.039   5.520   2.856 -0.4851  0.0297  0.2191
 5054SOL    HW116061   4.955   5.556   2.896  0.7393  1.4661  1.6596
 5054SOL    HW216062   5.034   5.523   2.757 -1.7098  1.0985  0.2949
 5055SOL     OW16063   0.125   4.587   6.418  0.0778  0.4963  0.7003
 5055SOL    HW116064   0.185   4.651   6.465 -0.8304 -0.3675  3.2442
 5055SOL    HW216065   0.032   4.625   6.415  0.4216  1.2750 -2.0504
 5056SOL     OW16066   6.776   5.918   2.637  0.0450 -0.2965 -0.4569
 5056SOL    HW116067   6.716   5.990   2.601  1.5171  1.2388  0.0194
 5056SOL    HW216068   6.870   5.937   2.610  0.4412 -2.2688 -0.5924
 5057SOL     OW16069   0.200   6.271   1.482 -0.1714 -0.5285 -0.0649
 5057SOL    HW116070   0.172   6.229   1.395  0.9004 -1.4345  0.0018
 5057SOL    HW216071   0.181   6.209   1.557 -0.5861  0.0302  0.3041
 5058SOL     OW16072   3.071   5.359   3.738 -0.1258 -0.4291  0.0104
 5058SOL    HW116073   3.040   5.319   3.824  1.4674 -1.6227  0.0736
 5058SOL    HW216074   3.036   5.452   3.731  0.0002 -0.1584  2.1295
 5059SOL     OW16075   5.191   6.950   2.566 -0.0300  0.0692 -0.6805
 5059SOL    HW116076   5.194   6.910   2.474 -1.6622 -0.1998 -0.6533
 5059SOL    HW216077   5.274   6.925   2.615 -0.3502 -2.1411 -1.1555
 5060SOL     OW16078   2.832   2.991   0.049 -0.1263  0.3801 -0.9129
 5060SOL    HW116079   2.804   2.941   0.131  0.7027  0.6465 -0.4504
 5060SOL    HW216080   2.752   3.033   0.007 -0.8137 -1.1622 -1.2153
 5061SOL     OW16081   0.411   2.638   0.552  0.1155  0.3788  0.1709
 5061SOL    HW116082   0.347   2.640   0.629  0.1450 -1.6734  0.3179
 5061SOL    HW216083   0.367   2.595   0.473  1.0212 -0.2968  0.0089
 5062SOL     OW16084   6.353   0.401   0.523  0.2092 -0.0015 -0.3298
 5062SOL    HW116085   6.344   0.303   0.541  0.9657 -0.1989 -0.9731
 5062SOL    HW216086   6.316   0.422   0.433 -0.7097  0.4521  0.1464
 5063SOL     OW16087   0.603   0.023   1.795  0.4069 -0.1138  0.4913
 5063SOL    HW116088   0.671  -0.045   1.768  0.7938  0.9236 -1.3557
 5063SOL    HW216089   0.569   0.003   1.886  1.7670 -1.7754  0.6678
 5064SOL     OW16090   4.068   5.445   5.977  0.0213 -0.2154  0.4504
 5064SOL    HW116091   4.132   5.494   6.036  0.1491  1.9957 -1.3688
 5064SOL    HW216092   4.093   5.349   5.973  1.1968 -0.0385  2.3625
 5065SOL     OW16093   2.047   5.374   4.849 -0.5115 -0.0431 -0.2762
 5065SOL    HW116094   2.018   5.282   4.877  0.5007 -0.5474 -0.8516
 5065SOL    HW216095   2.106   5.367   4.769 -0.5864  1.1335 -0.4419
 5066SOL     OW16096   5.713   3.601   0.867  0.5620 -0.2683 -0.1090
 5066SOL    HW116097   5.712   3.571   0.963  1.6064  1.0258  0.3385
 5066SOL    HW216098   5.773   3.541   0.815  1.2641 -0.0284  0.4054
 5067SOL     OW16099   5.801   1.838   0.586  0.5688  0.0340 -0.4922
 5067SOL    HW116100   5.746   1.905   0.536 -0.4632  0.3697  1.0273
 5067SOL    HW216101   5.891   1.877   0.607  0.2663  0.6426 -0.3162
 5068SOL     OW16102   2.841   5.077   1.222 -0.2049  0.1970  0.0871
 5068SOL    HW116103   2.788   5.102   1.141  1.3867 -1.8505 -1.7056
 5068SOL    HW216104   2.788   5.014   1.278 -0.3358 -0.5476 -0.8417
 5069SOL     OW16105   6.742   4.413   4.962 -0.3793 -0.1524 -0.2254
 5069SOL    HW116106   6.661   4.369   4.924 -1.0481 -0.6389  1.6532
 5069SOL    HW216107   6.759   4.499   4.914 -1.2797 -0.6197 -1.4329
 5070SOL     OW16108   4.459   2.527   4.142 -0.3091 -0.0344 -0.0886
 5070SOL    HW116109   4.448   2.625   4.123  0.1167 -0.1599 -1.0386
 5070SOL    HW216110   4.395   2.475   4.087 -1.6906 -0.2256  1.6294
 5071SOL     OW16111   4.776   6.125   2.059  0.0549 -0.3584 -0.1518
 5071SOL    HW116112   4.868   6.109   2.095 -0.0605  0.2326  0.4237
 5071SOL    HW216113   4.725   6.039   2.061  0.9480 -0.9486 -1.5474
 5072SOL     OW16114   0.409   2.972   2.111 -0.0161 -0.6561 -0.5203
 5072SOL    HW116115   0.440   2.877   2.108 -1.3089 -1.0781 -2.3728
 5072SOL    HW216116   0.486   3.033   2.093  1.2175 -1.1669  2.4397
 5073SOL     OW16117   4.791   1.666   3.339 -0.0033  0.5906 -0.2884
 5073SOL    HW116118   4.827   1.610   3.414  0.3941 -0.1780 -1.0342
 5073SOL    HW216119   4.866   1.704   3.286 -0.2825  1.2004 -0.2611
 5074SOL     OW16120   3.229   3.659   3.668 -0.4472 -0.4581  0.0352
 5074SOL    HW116121   3.314   3.711   3.677  0.1836 -1.2814 -0.9996
 5074SOL    HW216122   3.156   3.721   3.638 -0.0432  0.1111  0.1988
 5075SOL     OW16123   5.793   1.250   4.885  0.3713  0.3801  0.5079
 5075SOL    HW116124   5.713   1.205   4.924  0.4119 -1.4196 -1.2973
 5075SOL    HW216125   5.821   1.326   4.943 -1.3165 -0.3099  2.3170
 5076SOL     OW16126   5.669   1.897   1.291  0.1361  0.2985 -0.4142
 5076SOL    HW116127   5.725   1.814   1.284 -0.6662 -0.2013 -1.1219
 5076SOL    HW216128   5.587   1.877   1.345  0.0601  0.7052 -0.3776
 5077SOL     OW16129   6.736   1.658   3.055 -0.5258  0.2783 -0.5342
 5077SOL    HW116130   6.778   1.573   3.085  0.3081  0.6382 -0.6665
 5077SOL    HW216131   6.802   1.733   3.061 -0.5404  0.5190 -2.4660
 5078SOL     OW16132   0.154   0.964   4.484  0.5436 -0.2515 -0.4536
 5078SOL    HW116133   0.108   0.876   4.492  0.4827 -0.0754  1.3309
 5078SOL    HW216134   0.148   1.014   4.570  0.7927  1.4114 -1.3521
 5079SOL     OW16135   5.683   6.151   6.076  0.0395 -0.0099  0.2543
 5079SOL    HW116136   5.619   6.113   6.143 -0.1105  0.7995  0.5879
 5079SOL    HW216137   5.677   6.099   5.991 -0.9504 -0.0470  0.3320
 5080SOL     OW16138   4.273   1.336   5.847 -0.3457  0.6071  0.8292
 5080SOL    HW116139   4.198   1.392   5.883  0.6184  0.7935  2.6493
 5080SOL    HW216140   4.335   1.394   5.795 -1.5601  0.4036 -0.9329
 5081SOL     OW16141   3.846   2.964   2.975 -0.0041  0.0222 -0.9538
 5081SOL    HW116142   3.766   2.932   2.926 -0.2200  0.2583 -0.7576
 5081SOL    HW216143   3.918   2.990   2.910 -0.5081  0.9136 -1.1733
 5082SOL     OW16144   1.093   1.760   4.427  0.0563 -0.4022  0.1375
 5082SOL    HW116145   1.110   1.732   4.522 -0.5326  0.4299  0.5129
 5082SOL    HW216146   1.180   1.780   4.382  0.3037  2.7824  1.6765
 5083SOL     OW16147   6.986   1.250   0.044  0.7372 -0.0273  0.1936
 5083SOL    HW116148   6.937   1.281  -0.037 -0.5372 -1.4744  0.3808
 5083SOL    HW216149   6.976   1.318   0.117 -0.5940 -0.0834  0.0757
 5084SOL     OW16150   2.376   4.269   1.620  0.5706  0.2167 -0.1821
 5084SOL    HW116151   2.455   4.324   1.645  0.7657  0.4133 -1.1626
 5084SOL    HW216152   2.371   4.188   1.679  1.6255  0.0915 -0.2442
 5085SOL     OW16153   6.008   3.088   0.709  0.2293  0.0163 -0.0330
 5085SOL    HW116154   6.070   3.095   0.631  0.7562 -1.2306  0.2429
 5085SOL    HW216155   6.061   3.099   0.794  0.0556 -0.8220  0.1976
 5086SOL     OW16156   0.519   6.314   5.031  0.0556  0.5481  0.3122
 5086SOL    HW116157   0.465   6.309   4.947 -1.2751 -0.7457  1.1944
 5086SOL    HW216158   0.466   6.359   5.102  0.5965  0.3112  0.8797
 5087SOL     OW16159   0.191   4.684   0.035 -0.7718 -0.6763 -0.0561
 5087SOL    HW116160   0.207   4.783   0.030 -0.0389 -0.6914  1.5052
 5087SOL    HW216161   0.157   4.652  -0.053 -1.8352  1.1027 -0.3537
 5088SOL     OW16162   2.934   2.272   0.638 -0.4051 -0.0053 -0.3888
 5088SOL    HW116163   2.853   2.329   0.657  0.2930  1.3149 -1.2185
 5088SOL    HW216164   3.011   2.331   0.614  0.5970 -1.2841 -0.4006
 5089SOL     OW16165   6.163   1.075   2.847 -0.7498  0.0909  0.4259
 5089SOL    HW116166   6.070   1.104   2.827 -1.0053 -0.8140  0.2275
 5089SOL    HW216167   6.192   1.111   2.935 -1.1920  0.5803  0.3744
 5090SOL     OW16168   0.482   4.620   4.523  0.4210  0.1763 -0.5864
 5090SOL    HW116169   0.386   4.616   4.496  0.5893  0.5663 -1.2584
 5090SOL    HW216170   0.518   4.712   4.506  1.5331 -0.5468 -2.5348
 5091SOL     OW16171   0.160   5.471   4.433 -0.5915 -0.6997 -0.4398
 5091SOL    HW116172   0.227   5.418   4.485  0.9117  0.1587 -1.4251
 5091SOL    HW216173   0.195   5.564   4.420 -3.5852  1.0170  2.1933
 5092SOL     OW16174   3.495   2.571   6.127 -0.0065  0.4214 -0.2303
 5092SOL    HW116175   3.595   2.570   6.131 -0.0242 -0.0487  0.2359
 5092SOL    HW216176   3.465   2.639   6.061  0.5750  2.5937  1.5883
 5093SOL     OW16177   6.817   1.437   1.895  0.1777  0.1886 -0.1133
 5093SOL    HW116178   6.812   1.364   1.964 -2.3004  1.2580  0.9595
 5093SOL    HW216179   6.801   1.525   1.939  0.4805  1.1203 -1.7998
 5094SOL     OW16180   1.026   6.824   5.994 -0.0264  0.0034 -0.1155
 5094SOL    HW116181   1.096   6.858   5.931 -1.5441  1.2330 -1.2327
 5094SOL    HW216182   1.017   6.886   6.072 -0.5308  0.3946 -0.4774
 5095SOL     OW16183   3.383   5.881   3.094  0.0028  0.5859  0.3383
 5095SOL    HW116184   3.385   5.911   2.998 -0.5744 -0.2540  0.0520
 5095SOL    HW216185   3.369   5.782   3.097 -0.1333  0.6313  1.2993
 5096SOL     OW16186   4.084   6.095   2.770 -0.8900  0.1095 -0.1676
 5096SOL    HW116187   4.139   6.045   2.702 -0.9770  0.5259 -0.5420
 5096SOL    HW216188   3.995   6.050   2.780 -0.5550 -0.4764  0.3274
 5097SOL     OW16189   2.461   2.085   6.734 -0.0432 -0.1667  0.3905
 5097SOL    HW116190   2.515   2.054   6.812  1.1693 -2.8099 -1.3603
 5097SOL    HW216191   2.506   2.164   6.691 -0.5166  1.0542  2.0615
 5098SOL     OW16192   2.002   4.211   3.273  0.2925  0.0524  0.0976
 5098SOL    HW116193   2.071   4.183   3.206 -0.5964  1.0917 -1.2878
 5098SOL    HW216194   1.928   4.144   3.274 -0.3223  0.6885 -0.9436
 5099SOL     OW16195   6.696   1.642   4.488 -0.6011  0.0421 -0.3683
 5099SOL    HW116196   6.794   1.657   4.482 -0.5213 -0.2452  0.1380
 5099SOL    HW216197   6.674   1.597   4.575 -1.1835  0.1499 -0.4502
 5100SOL     OW16198   6.437   4.673   0.495  0.2552 -1.2078  0.1526
 5100SOL    HW116199   6.368   4.659   0.424 -0.1751 -1.5592  0.6292
 5100SOL    HW216200   6.445   4.590   0.551 -1.3245 -0.1104  2.1525
 5101SOL     OW16201   5.555   6.607   1.083  0.7448 -0.6090 -0.2803
 5101SOL    HW116202   5.490   6.574   1.014  0.3749 -2.5674  0.9435
 5101SOL    HW216203   5.508   6.669   1.146  0.0600 -1.9194  0.5258
 5102SOL     OW16204   2.892   5.862   4.543  0.7586 -0.1707 -0.2243
 5102SOL    HW116205   2.963   5.827   4.604  0.1256  0.3055  0.8178
 5102SOL    HW216206   2.807   5.811   4.559  0.2445  0.8005  0.2190
 5103SOL     OW16207   1.665   1.837   3.413 -0.5710 -0.5195 -0.6154
 5103SOL    HW116208   1.733   1.900   3.450 -1.8244 -0.8128  2.4905
 5103SOL    HW216209   1.582   1.887   3.390 -0.7175 -0.6829 -0.4531
 5104SOL     OW16210   0.516   6.224   0.658 -0.5395 -0.5532  0.1365
 5104SOL    HW116211   0.598   6.208   0.712 -0.7713 -2.1510  0.0655
 5104SOL    HW216212   0.506   6.322   0.640 -0.0389 -0.0492  2.3014
 5105SOL     OW16213   0.329   2.822   6.439 -0.3073  0.2929 -0.0972
 5105SOL    HW116214   0.361   2.802   6.346  1.0522  2.5291 -0.1928
 5105SOL    HW216215   0.296   2.738   6.482  0.3733 -1.0625 -2.0871
 5106SOL     OW16216   2.952   6.350   1.944  0.2296  0.6961 -0.2435
 5106SOL    HW116217   2.888   6.286   1.987 -0.8303  2.9121  1.6881
 5106SOL    HW216218   3.040   6.347   1.992  0.5537 -0.0498 -0.8588
 5107SOL     OW16219   0.832   6.899   3.803  0.1348  0.1897  0.4266
 5107SOL    HW116220   0.901   6.835   3.836 -0.6959 -0.6748  0.5571
 5107SOL    HW216221   0.769   6.850   3.741 -0.5339  0.8712  0.5509
 5108SOL     OW16222   2.952   3.717   2.007 -0.1718 -0.0160 -0.3756
 5108SOL    HW116223   3.045   3.689   2.028 -0.4899 -0.0335  1.1330
 5108SOL    HW216224   2.889   3.641   2.022 -0.6871  0.6182  0.9090
 5109SOL     OW16225   6.458   2.654   1.838  0.5235 -0.4525  0.2706
 5109SOL    HW116226   6.386   2.705   1.886  1.1210 -2.1198  3.1771
 5109SOL    HW216227   6.419   2.570   1.800  0.5848 -0.5034  0.3201
 5110SOL     OW16228   1.231   5.821   4.756 -0.0219  0.1212 -0.5359
 5110SOL    HW116229   1.178   5.740   4.731  1.7327 -1.6262  1.1397
 5110SOL    HW216230   1.244   5.825   4.855  2.2289  0.9272 -0.7924
 5111SOL     OW16231   0.185   2.384   1.246 -0.1941  0.0679 -0.1300
 5111SOL    HW116232   0.148   2.342   1.329  0.8746  1.1176  0.9365
 5111SOL    HW216233   0.208   2.480   1.265  2.2888 -0.2892 -0.9120
 5112SOL     OW16234   1.010   6.516   1.785  0.3593 -0.6316 -0.1859
 5112SOL    HW116235   1.091   6.460   1.772  1.9528  1.0281  1.8052
 5112SOL    HW216236   0.975   6.504   1.878  0.2982  1.0671  0.0408
 5113SOL     OW16237   0.789   1.694   5.668  0.3450  0.7431  0.2461
 5113SOL    HW116238   0.878   1.669   5.631 -0.3145  0.0993 -0.9568
 5113SOL    HW216239   0.741   1.611   5.698  0.2881  1.1174  1.2327
 5114SOL     OW16240   4.854   4.909   6.553 -0.4123  0.3103 -0.1018
 5114SOL    HW116241   4.798   4.862   6.485  1.4419 -0.3969 -1.2275
 5114SOL    HW216242   4.868   5.004   6.525 -0.0944  0.1640 -0.4533
 5115SOL     OW16243   3.412   2.924   5.362  0.4191 -0.2323 -0.1183
 5115SOL    HW116244   3.437   2.984   5.438  0.6353 -1.6416  0.9537
 5115SOL    HW216245   3.328   2.958   5.320 -1.3042 -0.8805  2.5129
 5116SOL     OW16246   5.415   2.926   2.356  0.0423 -0.3793  0.7696
 5116SOL    HW116247   5.322   2.917   2.392 -0.5313  0.6396 -0.4047
 5116SOL    HW216248   5.425   3.014   2.309  0.6598 -1.7186 -1.7745
 5117SOL     OW16249   2.747   5.482   0.548  0.1414  0.0420 -0.2699
 5117SOL    HW116250   2.750   5.386   0.518  0.5843 -0.0990  0.2045
 5117SOL    HW216251   2.718   5.486   0.643 -0.2870  0.4162 -0.4111
 5118SOL     OW16252   5.190   0.716   1.508  0.4585  0.0381 -0.3968
 5118SOL    HW116253   5.134   0.796   1.489 -2.1017 -1.3175  0.8748
 5118SOL    HW216254   5.234   0.727   1.597 -0.9799 -0.4454  0.4147
 5119SOL     OW16255   6.796   1.401   4.891 -0.3410  0.5450 -0.2506
 5119SOL    HW116256   6.771   1.418   4.987  1.6155 -0.5446  0.5121
 5119SOL    HW216257   6.895   1.404   4.882 -0.3833 -1.1455 -1.8924
 5120SOL     OW16258   2.486   0.718   0.071 -0.5696  0.4527  0.0184
 5120SOL    HW116259   2.457   0.663   0.150 -0.8650 -0.0052 -0.4062
 5120SOL    HW216260   2.436   0.689  -0.010 -1.5075  2.0474 -0.0184
 5121SOL     OW16261   1.195   1.894   2.051  0.6664 -0.4283 -0.1784
 5121SOL    HW116262   1.217   1.957   2.126  0.4899 -1.4368  0.7497
 5121SOL    HW216263   1.246   1.921   1.969 -0.3423  1.6627 -0.1969
 5122SOL     OW16264   2.444   5.858   2.887 -0.2704 -0.2354 -0.1987
 5122SOL    HW116265   2.526   5.848   2.944  0.2843 -0.7939 -1.0722
 5122SOL    HW216266   2.425   5.772   2.840 -1.3806 -0.1183 -0.0049
 5123SOL     OW16267   5.588   2.446   0.683 -0.4095 -0.2020 -0.3692
 5123SOL    HW116268   5.610   2.349   0.677 -0.9294 -0.2453 -2.8692
 5123SOL    HW216269   5.514   2.460   0.749  0.3670 -1.3305  0.7860
 5124SOL     OW16270   4.611   1.075   5.212 -0.4139  0.5102  0.4936
 5124SOL    HW116271   4.629   1.005   5.142 -2.1405  1.6865 -1.2242
 5124SOL    HW216272   4.613   1.032   5.302 -0.3692 -1.5458 -0.4051
 5125SOL     OW16273   0.871   3.423   6.165 -0.0349  0.6540  0.7690
 5125SOL    HW116274   0.901   3.353   6.101  0.6091  1.9237 -0.3501
 5125SOL    HW216275   0.881   3.389   6.259 -0.1271 -0.8843  0.2434
 5126SOL     OW16276   2.778   3.307   6.794 -0.0170  0.0671  0.3756
 5126SOL    HW116277   2.689   3.290   6.751 -0.3041 -0.7217  1.2435
 5126SOL    HW216278   2.823   3.219   6.812  0.7358  0.4476  0.3765
 5127SOL     OW16279   4.219   4.856   5.644 -0.1482 -0.4771  0.8281
 5127SOL    HW116280   4.196   4.953   5.648 -0.3533 -0.3656 -1.6861
 5127SOL    HW216281   4.316   4.846   5.620 -0.5898 -0.8520 -0.8747
 5128SOL     OW16282   0.252   6.769   0.154  0.0435 -0.7304  0.0380
 5128SOL    HW116283   0.276   6.676   0.127  0.3407 -0.2686 -1.3609
 5128SOL    HW216284   0.217   6.819   0.075  0.6413  0.5945  0.5722
 5129SOL     OW16285   5.331   3.659   4.632  0.0859 -0.0657  0.3089
 5129SOL    HW116286   5.315   3.747   4.589 -0.5796 -0.3319 -0.0023
 5129SOL    HW216287   5.378   3.598   4.567  3.6850  1.0843  1.5823
 5130SOL     OW16288   1.182   6.677   4.963  0.1732 -0.0615 -0.7770
 5130SOL    HW116289   1.211   6.641   5.052  1.6061 -2.2250 -2.0250
 5130SOL    HW216290   1.212   6.772   4.955  1.8160 -0.4404  0.3062
 5131SOL     OW16291   5.789   4.332   3.083 -0.2960  0.1514 -0.3089
 5131SOL    HW116292   5.769   4.398   3.011 -3.0775 -0.7220 -0.4392
 5131SOL    HW216293   5.807   4.381   3.169 -0.7656  1.1036 -0.7429
 5132SOL     OW16294   2.814   2.990   6.755 -0.4621  0.2540  0.4978
 5132SOL    HW116295   2.889   2.931   6.727 -0.3451  0.7791 -0.3387
 5132SOL    HW216296   2.746   2.937   6.806  0.1432 -0.3643  0.6752
 5133SOL     OW16297   1.082   5.309   3.731  0.0624 -0.0928 -0.1786
 5133SOL    HW116298   1.147   5.276   3.799 -0.3215  0.9048  0.7006
 5133SOL    HW216299   1.129   5.370   3.667  0.2825 -0.4739 -0.3774
 5134SOL     OW16300   5.224   6.404   1.589  0.7161  0.3899  0.1884
 5134SOL    HW116301   5.177   6.481   1.633 -0.3799 -0.0617 -0.1554
 5134SOL    HW216302   5.296   6.439   1.529 -0.9791  1.2947 -1.4335
 5135SOL     OW16303   6.882   2.568   1.443 -0.0762 -0.1050  0.5436
 5135SOL    HW116304   6.807   2.538   1.502  1.0003 -1.7370  1.1183
 5135SOL    HW216305   6.945   2.625   1.495  0.8770 -1.5499  1.0325
 5136SOL     OW16306   6.066   6.590   5.124 -0.2406  0.1707 -0.4517
 5136SOL    HW116307   6.128   6.522   5.162 -0.9556 -0.3003 -0.0981
 5136SOL    HW216308   5.979   6.588   5.175 -0.0985  1.7068 -0.0830
 5137SOL     OW16309   5.444   0.415   3.628 -0.4017  0.2714 -0.1869
 5137SOL    HW116310   5.445   0.467   3.542 -2.8112 -1.5697 -1.4435
 5137SOL    HW216311   5.401   0.469   3.700  0.0869  1.1895 -0.5667
 5138SOL     OW16312   3.305   2.936   2.445  0.2097  0.8363  0.2544
 5138SOL    HW116313   3.310   2.855   2.386 -2.2971  0.5622  0.3049
 5138SOL    HW216314   3.293   3.017   2.389  0.9224  0.9627  0.2790
 5139SOL     OW16315   5.679   0.126   2.835  0.2272  0.2495  0.0331
 5139SOL    HW116316   5.591   0.133   2.882 -0.0572 -1.1649 -0.2301
 5139SOL    HW216317   5.689   0.201   2.770 -2.2788 -1.3186 -2.3532
 5140SOL     OW16318   3.170   2.985   5.199  0.4575  0.2413 -0.2187
 5140SOL    HW116319   3.091   2.950   5.251 -0.1877 -0.4496 -1.6098
 5140SOL    HW216320   3.148   3.077   5.165  0.9871  0.8097  0.9141
 5141SOL     OW16321   2.927   0.349   2.741  0.7853  0.0504  0.3074
 5141SOL    HW116322   2.970   0.387   2.823  1.4812 -0.7849  0.3460
 5141SOL    HW216323   2.981   0.375   2.660  1.2229 -0.7661  0.3269
 5142SOL     OW16324   6.120   4.364   3.769  1.0017  0.1848 -0.2777
 5142SOL    HW116325   6.076   4.372   3.679 -0.6209  0.1354  0.4765
 5142SOL    HW216326   6.204   4.418   3.770 -0.3099  2.3694 -1.0202
 5143SOL     OW16327   6.153   5.097   0.989 -0.1436 -0.2731  0.6784
 5143SOL    HW116328   6.232   5.043   1.018 -0.1256 -0.6205  0.0131
 5143SOL    HW216329   6.069   5.049   1.015 -0.1289 -0.7466 -0.0897
 5144SOL     OW16330   1.931   1.656   4.410  0.4785 -0.9498 -0.3967
 5144SOL    HW116331   1.972   1.731   4.358 -0.2387 -0.3100 -0.0488
 5144SOL    HW216332   1.983   1.641   4.494  2.3961 -2.7992 -1.8053
 5145SOL     OW16333   2.146   6.378   0.798 -0.3616  0.4787 -0.1470
 5145SOL    HW116334   2.134   6.466   0.754  0.8020  1.4066  1.2886
 5145SOL    HW216335   2.057   6.334   0.811 -0.8487  0.8084 -2.0301
 5146SOL     OW16336   5.397   5.466   5.980  0.0330  0.0886  0.1872
 5146SOL    HW116337   5.314   5.436   5.933 -1.2059  1.7621  1.1790
 5146SOL    HW216338   5.437   5.390   6.030 -1.5866 -0.5138  0.6351
 5147SOL     OW16339   1.279   1.157   0.210 -0.1049  0.7549 -0.5615
 5147SOL    HW116340   1.201   1.197   0.259  0.3463 -0.7325  1.5253
 5147SOL    HW216341   1.253   1.139   0.115 -2.5050 -0.1660  0.1904
 5148SOL     OW16342   6.361   1.653   1.819 -0.0280  0.3638 -0.4132
 5148SOL    HW116343   6.403   1.682   1.905 -0.8884 -0.6277  0.3754
 5148SOL    HW216344   6.406   1.699   1.743  1.1517  0.8207  0.5211
 5149SOL     OW16345   2.082   6.745   1.794 -0.5217 -0.4212 -0.3506
 5149SOL    HW116346   2.082   6.697   1.881  0.4313 -0.2850 -0.2644
 5149SOL    HW216347   2.025   6.695   1.728 -1.1978 -0.5483  0.3232
 5150SOL     OW16348   6.250   5.758   4.462  0.2429 -0.5815 -0.4505
 5150SOL    HW116349   6.343   5.733   4.488  0.2287  1.5337  2.0070
 5150SOL    HW216350   6.253   5.827   4.390  0.7574  1.5170  1.4923
 5151SOL     OW16351   4.548   5.265   2.500  0.4310 -0.5435  0.2895
 5151SOL    HW116352   4.596   5.247   2.414  0.3043 -1.9035  0.4811
 5151SOL    HW216353   4.555   5.363   2.522 -0.2177 -0.0167 -1.6589
 5152SOL     OW16354   0.776   6.905   2.161  0.3559 -0.8534  0.4864
 5152SOL    HW116355   0.789   6.846   2.081  2.0416  1.2849 -0.9214
 5152SOL    HW216356   0.821   6.992   2.146 -1.3166  0.5358  2.8461
 5153SOL     OW16357   1.557   2.477   6.263 -0.0846 -0.1661 -0.0164
 5153SOL    HW116358   1.628   2.490   6.195 -0.0023 -0.3959  0.0235
 5153SOL    HW216359   1.511   2.564   6.281  0.0894 -0.0475 -0.1472
 5154SOL     OW16360   0.298   3.714   6.028  0.2283 -0.0049  0.7388
 5154SOL    HW116361   0.329   3.620   6.012 -0.9946 -0.1897 -0.8201
 5154SOL    HW216362   0.357   3.778   5.979 -0.3403 -0.1643 -0.1749
 5155SOL     OW16363   1.784   0.754   1.603 -0.4887  0.0339 -0.0329
 5155SOL    HW116364   1.743   0.671   1.565 -1.0141  0.0310  0.5266
 5155SOL    HW216365   1.727   0.789   1.677  0.9701 -0.4589  1.3817
 5156SOL     OW16366   5.713   3.060   6.085  0.2497  0.5339 -0.3362
 5156SOL    HW116367   5.755   3.102   6.166 -0.0940  2.0240 -0.9051
 5156SOL    HW216368   5.617   3.086   6.079  0.7664  2.2717 -2.3499
 5157SOL     OW16369   4.128   0.995   2.768  0.0537  0.5092 -0.2431
 5157SOL    HW116370   4.132   1.087   2.730  1.1134 -0.3790 -2.4567
 5157SOL    HW216371   4.096   0.931   2.698  0.6649 -1.0066  0.8099
 5158SOL     OW16372   2.189   3.134   1.124  0.6595  0.3322  0.1201
 5158SOL    HW116373   2.252   3.209   1.143  0.0918  1.3768 -1.8473
 5158SOL    HW216374   2.095   3.166   1.137  0.4404 -0.3639  0.2768
 5159SOL     OW16375   0.872   4.555   6.050  0.5737  0.0136 -0.1854
 5159SOL    HW116376   0.773   4.541   6.046  0.4275  0.6996  0.7214
 5159SOL    HW216377   0.913   4.526   5.964 -0.4767  0.2283 -0.7786
 5160SOL     OW16378   6.462   1.646   3.205 -0.1048  0.3024  0.0757
 5160SOL    HW116379   6.557   1.662   3.178  0.0814 -1.5027 -0.4496
 5160SOL    HW216380   6.416   1.594   3.134 -0.9512 -0.4864  1.1733
 5161SOL     OW16381   6.148   2.333   1.148 -0.0825 -0.1131 -0.2008
 5161SOL    HW116382   6.088   2.360   1.073 -1.0934 -0.5933  0.4115
 5161SOL    HW216383   6.093   2.290   1.220  1.1281 -1.4063 -0.0175
 5162SOL     OW16384   0.736   6.887   6.848  0.6289  0.2624 -0.5357
 5162SOL    HW116385   0.742   6.788   6.836  0.8749  0.1225  0.6123
 5162SOL    HW216386   0.687   6.907   6.933 -1.6081  1.1686 -1.9429
 5163SOL     OW16387   4.354   2.515   1.781  0.0324  0.2369  0.0809
 5163SOL    HW116388   4.355   2.446   1.708  2.0071  1.9971 -1.7205
 5163SOL    HW216389   4.290   2.588   1.757 -0.7645 -0.0869  1.1307
 5164SOL     OW16390   3.998   2.976   0.144  0.3193  0.1263 -0.4819
 5164SOL    HW116391   4.056   2.898   0.168 -1.0553 -1.7045 -2.6666
 5164SOL    HW216392   3.948   2.955   0.060 -0.8556  3.0275 -0.6067
 5165SOL     OW16393   0.566   6.026   4.726 -0.9894  0.2193  0.0499
 5165SOL    HW116394   0.479   6.064   4.756 -2.0725 -1.5013 -0.7163
 5165SOL    HW216395   0.571   6.029   4.626 -0.6821 -0.6921  0.0244
 5166SOL     OW16396   6.639   6.242   6.243 -0.3494  0.1675 -0.3250
 5166SOL    HW116397   6.628   6.330   6.289 -1.2468 -0.3344  0.4502
 5166SOL    HW216398   6.571   6.234   6.170 -1.2680 -0.4951  0.5913
 5167SOL     OW16399   5.465   4.983   5.401  0.0824  0.1057  0.3121
 5167SOL    HW116400   5.528   4.906   5.410  1.7406  1.4925  1.2578
 5167SOL    HW216401   5.370   4.950   5.407  0.7570 -1.7419  1.5901
 5168SOL     OW16402   6.102   1.043   4.807  0.4275  0.0180 -0.3008
 5168SOL    HW116403   6.059   0.957   4.780 -2.8472  0.3424  3.0711
 5168SOL    HW216404   6.079   1.114   4.740 -0.5900 -0.8009 -0.8367
 5169SOL     OW16405   5.026   6.475   5.368  0.1799  0.1165  0.6756
 5169SOL    HW116406   5.048   6.399   5.307 -3.0760 -0.2512 -0.2503
 5169SOL    HW216407   5.043   6.448   5.462  1.3217 -0.8674  0.2149
 5170SOL     OW16408   1.636   2.813   5.152  0.9738 -0.3965 -0.6246
 5170SOL    HW116409   1.565   2.762   5.104  1.0023 -0.0844 -1.0068
 5170SOL    HW216410   1.608   2.829   5.246  0.3286  0.1179 -0.8952
 5171SOL     OW16411   2.127   4.775   6.443  0.2031  0.2978 -0.1614
 5171SOL    HW116412   2.220   4.811   6.430  1.6518 -3.1843 -0.6132
 5171SOL    HW216413   2.086   4.755   6.354 -0.7454  1.2041  0.0577
 5172SOL     OW16414   2.861   6.404   5.821 -0.0413 -0.4268 -0.2117
 5172SOL    HW116415   2.927   6.330   5.803  0.2519  0.2697 -2.2656
 5172SOL    HW216416   2.771   6.377   5.788 -0.0940 -0.1598 -0.2890
 5173SOL     OW16417   5.167   6.982   5.314  0.1279  0.4257 -0.1670
 5173SOL    HW116418   5.182   7.046   5.389  1.9833  0.2589 -0.3305
 5173SOL    HW216419   5.234   6.907   5.320  0.1797  0.2959 -1.8466
 5174SOL     OW16420   1.332   5.715   3.846 -0.5193  0.1743  0.1413
 5174SOL    HW116421   1.271   5.769   3.787 -0.1127 -1.5517 -1.9821
 5174SOL    HW216422   1.426   5.725   3.814 -0.3533 -1.1921  0.1546
 5175SOL     OW16423   3.548   4.121   4.986  0.0067 -0.3982 -0.2748
 5175SOL    HW116424   3.537   4.024   4.964  0.9343 -0.4012 -0.7850
 5175SOL    HW216425   3.560   4.172   4.901  0.8897 -0.0293  0.0602
 5176SOL     OW16426   5.787   4.866   6.315 -0.0487 -0.5337  0.0366
 5176SOL    HW116427   5.750   4.895   6.404 -0.5211  2.7302 -1.0890
 5176SOL    HW216428   5.882   4.896   6.308  0.3242 -1.7287 -0.1887
 5177SOL     OW16429   4.656   6.515   2.230  0.5024  0.5495  0.1082
 5177SOL    HW116430   4.647   6.609   2.265 -1.7137  0.1522  0.7648
 5177SOL    HW216431   4.634   6.514   2.132 -0.4381  0.5861  0.3127
 5178SOL     OW16432   0.083   4.075   0.542 -0.8014 -0.1730  0.5581
 5178SOL    HW116433   0.102   4.082   0.444 -1.8675 -0.7275  0.2956
 5178SOL    HW216434   0.153   4.125   0.593  0.9923 -1.5949 -0.3570
 5179SOL     OW16435   4.660   4.298   2.632 -0.2563  0.5460  0.4037
 5179SOL    HW116436   4.676   4.303   2.533  1.8761  1.8182  0.7529
 5179SOL    HW216437   4.623   4.208   2.655 -1.3725  0.4165 -1.5936
 5180SOL     OW16438   3.450   4.811   0.779 -0.4480 -0.5381  0.2126
 5180SOL    HW116439   3.371   4.775   0.729  0.0708  0.2557 -1.2355
 5180SOL    HW216440   3.432   4.806   0.877 -2.1952 -0.6273 -0.0751
 5181SOL     OW16441   6.374   0.580   5.236  0.8779 -0.2391 -0.1914
 5181SOL    HW116442   6.282   0.578   5.197  0.4251  0.0771  0.8440
 5181SOL    HW216443   6.410   0.673   5.232  0.5254 -0.0489  0.8185
 5182SOL     OW16444   3.700   5.164   0.532  0.2595 -0.6008  0.5522
 5182SOL    HW116445   3.690   5.261   0.556 -1.4669 -0.9041  1.2366
 5182SOL    HW216446   3.647   5.108   0.596 -1.2266 -1.7615 -1.5306
 5183SOL     OW16447   5.298   0.998   2.446  0.2899  0.7462  0.1172
 5183SOL    HW116448   5.296   0.945   2.531  1.5970 -1.5266 -1.1566
 5183SOL    HW216449   5.363   0.956   2.382 -1.0756  2.0050 -2.2503
 5184SOL     OW16450   4.326   2.100   1.860  0.3053  0.2611 -0.0239
 5184SOL    HW116451   4.365   2.130   1.773 -0.0238 -0.2599 -0.3555
 5184SOL    HW216452   4.228   2.121   1.863  0.2981  0.2087  0.1927
 5185SOL     OW16453   0.046   1.313   2.951  0.2949 -0.3799 -0.5336
 5185SOL    HW116454  -0.001   1.356   2.874 -0.5671 -0.5502 -0.1171
 5185SOL    HW216455   0.070   1.219   2.926 -1.4396 -0.9919 -0.0700
 5186SOL     OW16456   0.362   1.953   5.249  0.0541 -0.5242 -0.0255
 5186SOL    HW116457   0.304   1.963   5.169  1.6626  1.7597 -1.0269
 5186SOL    HW216458   0.305   1.954   5.332 -1.5780 -2.3845 -1.0408
 5187SOL     OW16459   7.001   6.510   5.740 -0.3311 -0.6044  0.1644
 5187SOL    HW116460   7.083   6.561   5.711 -0.0552 -1.4544 -0.6097
 5187SOL    HW216461   6.960   6.466   5.660 -0.7031 -1.3844  0.7726
 5188SOL     OW16462   6.104   1.798   1.423 -0.2818  0.2697 -0.3257
 5188SOL    HW116463   6.103   1.865   1.497  0.1638  0.4529 -0.4855
 5188SOL    HW216464   6.198   1.775   1.399 -0.3812 -1.8171  0.9902
 5189SOL     OW16465   6.711   4.629   5.720 -0.1438  0.1831 -0.1402
 5189SOL    HW116466   6.646   4.690   5.675 -0.2383  0.6797  0.6504
 5189SOL    HW216467   6.662   4.563   5.777  0.0349  0.4870  0.3711
 5190SOL     OW16468   3.093   5.906   2.920 -0.1558  0.0295 -0.8681
 5190SOL    HW116469   3.118   6.002   2.932  1.0430 -0.4777  1.2655
 5190SOL    HW216470   3.157   5.863   2.856  0.9511  0.0851  0.1641
 5191SOL     OW16471   2.996   3.658   1.683  0.1180 -0.3947  0.0903
 5191SOL    HW116472   3.073   3.663   1.747 -0.2933 -1.2652  0.6710
 5191SOL    HW216473   2.943   3.575   1.701 -0.6954 -0.0404 -0.6078
 5192SOL     OW16474   6.898   5.667   2.598  0.2788 -0.2047  0.2353
 5192SOL    HW116475   6.831   5.595   2.613  0.5175 -0.1898  1.4193
 5192SOL    HW216476   6.854   5.757   2.604  0.0090 -0.2224 -1.1016
 5193SOL     OW16477   5.858   6.851   3.982  0.0437  0.5582  0.0363
 5193SOL    HW116478   5.870   6.948   3.999 -0.9121  0.5376  0.8726
 5193SOL    HW216479   5.916   6.799   4.045 -0.1164  0.5595  0.1819
 5194SOL     OW16480   3.454   0.187   6.039  0.2346 -0.4415  0.3577
 5194SOL    HW116481   3.461   0.278   6.080 -1.7905  1.2200 -2.5934
 5194SOL    HW216482   3.530   0.173   5.976 -0.2387 -0.1537 -0.2838
 5195SOL     OW16483   2.232   6.008   5.296  0.5816 -0.4081 -0.5469
 5195SOL    HW116484   2.264   6.102   5.312  0.0309 -0.7083  3.1634
 5195SOL    HW216485   2.294   5.944   5.340 -0.1360 -1.6890 -1.3418
 5196SOL     OW16486   5.613   0.311   2.121  0.3501  0.8551 -1.0016
 5196SOL    HW116487   5.662   0.294   2.206 -1.9966 -0.8306  0.1463
 5196SOL    HW216488   5.564   0.398   2.127 -0.1267  0.5534 -0.4467
 5197SOL     OW16489   2.009   3.564   6.461 -0.2767 -0.6921  0.0212
 5197SOL    HW116490   2.045   3.546   6.369  1.6339 -0.6478  0.7177
 5197SOL    HW216491   1.913   3.537   6.465 -0.4275 -0.6129 -2.0085
 5198SOL     OW16492   4.543   0.270   2.886  0.1874 -0.1171  0.0674
 5198SOL    HW116493   4.448   0.298   2.893  0.3941  0.9287 -0.9228
 5198SOL    HW216494   4.602   0.349   2.904  0.8523 -0.6242  0.1468
 5199SOL     OW16495   1.938   4.543   2.032 -0.0343 -0.1115 -0.4421
 5199SOL    HW116496   1.919   4.457   1.986 -0.1861 -0.0524 -0.4912
 5199SOL    HW216497   1.871   4.558   2.105 -0.5595  0.3856 -1.0081
 5200SOL     OW16498   5.793   5.217   6.146 -0.0349 -1.1657  0.5505
 5200SOL    HW116499   5.831   5.290   6.088  3.0812 -1.0671  2.4603
 5200SOL    HW216500   5.849   5.135   6.136 -1.3168 -2.1439  1.1597
 5201SOL     OW16501   0.108   5.869   6.145 -0.0095 -0.6798  0.6781
 5201SOL    HW116502   0.127   5.774   6.167 -1.6786 -0.7902  1.8842
 5201SOL    HW216503   0.110   5.924   6.229 -0.6147  0.0390  0.2435
 5202SOL     OW16504   6.940   4.320   2.687  0.1508 -0.0304 -0.4371
 5202SOL    HW116505   6.881   4.356   2.760  0.2360  0.1444 -0.4547
 5202SOL    HW216506   7.035   4.327   2.715  0.2042  0.3635 -0.7104
 5203SOL     OW16507   6.719   4.145   1.340 -0.5013  0.2162 -0.0447
 5203SOL    HW116508   6.619   4.149   1.337 -0.6037 -1.7239 -1.1436
 5203SOL    HW216509   6.750   4.063   1.292  1.5381 -0.1609  1.7683
 5204SOL     OW16510   5.426   6.169   5.883 -0.0668 -0.3337 -0.0506
 5204SOL    HW116511   5.456   6.252   5.930 -1.6149  0.5036 -0.4487
 5204SOL    HW216512   5.493   6.143   5.814 -0.5371  1.9003 -1.4516
 5205SOL     OW16513   4.702   0.236   6.579  0.9562  0.0089  0.0861
 5205SOL    HW116514   4.690   0.224   6.678  0.0067  2.1449  0.2873
 5205SOL    HW216515   4.612   0.240   6.535  1.3262  0.5083 -0.6432
 5206SOL     OW16516   6.268   4.754   5.372  0.2096  0.6249  0.2901
 5206SOL    HW116517   6.331   4.728   5.445  0.0567 -0.1288  0.1598
 5206SOL    HW216518   6.319   4.794   5.296  0.4199  0.9425  0.5951
 5207SOL     OW16519   0.974   0.227   2.180  0.0809 -0.1183 -0.2129
 5207SOL    HW116520   0.927   0.182   2.105  3.0310 -0.8863 -1.7624
 5207SOL    HW216521   1.036   0.297   2.144 -0.3515  1.3745  1.7545
 5208SOL     OW16522   4.977   1.232   6.584 -0.2679  0.3412 -0.5154
 5208SOL    HW116523   5.059   1.187   6.619 -0.8635 -1.3620 -1.2162
 5208SOL    HW216524   5.004   1.302   6.517  0.6303  0.1774 -0.3434
 5209SOL     OW16525   0.007   6.327   3.598 -0.0577  0.2537  0.1707
 5209SOL    HW116526   0.050   6.384   3.528 -0.3582 -0.5401 -0.6737
 5209SOL    HW216527  -0.086   6.361   3.615 -0.2612 -0.0081 -0.3788
 5210SOL     OW16528   4.518   4.691   4.384 -0.0819 -0.0876  0.1718
 5210SOL    HW116529   4.534   4.606   4.435 -0.0359  1.3978  2.8020
 5210SOL    HW216530   4.600   4.714   4.332  0.0613 -1.4126 -0.2401
 5211SOL     OW16531   2.947   4.972   0.373 -0.1142 -0.0272  0.0011
 5211SOL    HW116532   2.935   4.984   0.472  1.9225  1.2198  0.1579
 5211SOL    HW216533   2.935   5.061   0.327  0.2995 -0.3256 -0.7015
 5212SOL     OW16534   1.659   1.437   6.206  0.6683  0.4474  0.7551
 5212SOL    HW116535   1.634   1.351   6.252 -2.5548  0.9248  0.1598
 5212SOL    HW216536   1.679   1.419   6.110 -2.3113  0.4676  0.0153
 5213SOL     OW16537   5.934   1.713   0.059 -0.4516  0.4145  0.2152
 5213SOL    HW116538   5.854   1.696   0.117 -1.0504 -1.0132 -0.9806
 5213SOL    HW216539   5.910   1.777  -0.013 -0.7140 -0.4906 -0.5146
 5214SOL     OW16540   3.736   0.854   6.594  0.3376 -0.5140  0.4937
 5214SOL    HW116541   3.817   0.837   6.537 -0.9298  0.7307 -1.8248
 5214SOL    HW216542   3.654   0.854   6.537 -1.0473  0.7418  2.3478
 5215SOL     OW16543   5.236   6.554   4.633 -0.3987  0.1110  0.1863
 5215SOL    HW116544   5.307   6.527   4.698 -1.9274  0.1276  1.9392
 5215SOL    HW216545   5.277   6.609   4.560  1.5728 -0.9620  0.4077
 5216SOL     OW16546   3.069   0.131   1.154 -0.2567 -0.1158 -0.3606
 5216SOL    HW116547   2.980   0.105   1.193  0.2215 -1.2599 -0.0094
 5216SOL    HW216548   3.054   0.172   1.064 -1.1438 -0.2930 -0.3079
 5217SOL     OW16549   3.122   5.338   2.442  0.3193 -0.3782 -0.0412
 5217SOL    HW116550   3.222   5.342   2.438  0.4270  0.6793  2.2180
 5217SOL    HW216551   3.094   5.245   2.465  0.8141 -0.5539 -0.1350
 5218SOL     OW16552   0.171   1.031   3.081 -0.2371  0.4970  0.2890
 5218SOL    HW116553   0.248   1.070   3.030  0.6442  0.0572  1.2580
 5218SOL    HW216554   0.116   1.105   3.120 -0.4103  0.8160 -0.5368
 5219SOL     OW16555   1.201   6.172   0.601 -0.2601 -0.0265 -0.2189
 5219SOL    HW116556   1.156   6.260   0.590  0.1496  0.2071 -0.0580
 5219SOL    HW216557   1.154   6.103   0.546 -3.1617 -0.6732  2.7818
 5220SOL     OW16558   2.236   1.010   2.481 -0.4340  0.6916  0.3485
 5220SOL    HW116559   2.181   0.929   2.500 -0.0386  0.2685 -0.2784
 5220SOL    HW216560   2.240   1.067   2.563 -1.2203  0.3848  0.6119
 5221SOL     OW16561   3.953   1.058   1.208  0.0807 -0.2837 -0.0294
 5221SOL    HW116562   3.885   1.057   1.135 -0.4009  4.4186  0.0203
 5221SOL    HW216563   4.027   1.121   1.184  0.7192  0.2051  2.8284
 5222SOL     OW16564   0.038   4.517   4.201 -0.4292  0.3296  0.0854
 5222SOL    HW116565  -0.040   4.478   4.250 -0.7138  0.1730 -0.4864
 5222SOL    HW216566   0.005   4.580   4.131 -0.0101  0.8271  0.3303
 5223SOL     OW16567   2.931   0.255   2.178 -0.0611  0.1534  0.3562
 5223SOL    HW116568   2.983   0.318   2.120  1.4577 -1.7018 -0.4104
 5223SOL    HW216569   2.984   0.232   2.259 -0.8630  0.2938  0.9397
 5224SOL     OW16570   1.295   7.001   1.408  0.1977  0.4510 -0.0938
 5224SOL    HW116571   1.378   6.945   1.405 -0.5031 -0.5904 -0.2854
 5224SOL    HW216572   1.317   7.093   1.374  1.0728 -0.0710 -1.0261
 5225SOL     OW16573   1.372   0.987   6.166 -0.6041 -0.2307 -0.3194
 5225SOL    HW116574   1.299   1.054   6.180 -0.1747  0.7294 -2.2724
 5225SOL    HW216575   1.449   1.031   6.120 -0.2352 -2.0083 -1.5184
 5226SOL     OW16576   1.882   6.736   3.389  0.5812 -0.0089  0.1624
 5226SOL    HW116577   1.919   6.670   3.323  0.9996 -0.3382  0.7256
 5226SOL    HW216578   1.803   6.782   3.348 -0.6453 -1.8871  0.2623
 5227SOL     OW16579   5.817   1.489   3.056 -0.0379 -0.1769  0.3376
 5227SOL    HW116580   5.725   1.523   3.042 -0.0745  1.2282  3.2009
 5227SOL    HW216581   5.883   1.551   3.014 -0.3082  0.6207  1.0597
 5228SOL     OW16582   5.544   0.475   3.015  0.2685  0.2448 -0.0204
 5228SOL    HW116583   5.585   0.465   2.924  0.2048  0.4701 -0.0755
 5228SOL    HW216584   5.610   0.449   3.085  0.0271 -0.7698 -0.1654
 5229SOL     OW16585   0.718   3.847   4.290  0.0240  0.5506 -0.1651
 5229SOL    HW116586   0.796   3.838   4.228 -0.2189  0.4598 -0.4559
 5229SOL    HW216587   0.703   3.761   4.338 -0.0205  0.5104 -0.2520
 5230SOL     OW16588   0.760   3.050   0.207  0.5494  0.0521  0.2780
 5230SOL    HW116589   0.835   3.052   0.140  0.3729  0.8509  0.0930
 5230SOL    HW216590   0.796   3.067   0.298  0.8870 -1.6997  0.5013
 5231SOL     OW16591   3.786   3.357   3.503 -0.1349  0.2342  0.2242
 5231SOL    HW116592   3.802   3.456   3.499  0.2417  0.1410 -0.9971
 5231SOL    HW216593   3.712   3.338   3.567  0.3236  1.2381  1.0804
 5232SOL     OW16594   3.222   0.793   4.376 -0.2620 -0.2935 -0.6463
 5232SOL    HW116595   3.149   0.753   4.322  0.0982  0.6653 -1.8756
 5232SOL    HW216596   3.310   0.769   4.336  0.0134  0.3226 -0.4232
 5233SOL     OW16597   1.219   4.171   2.964  0.4426  0.0305  0.6310
 5233SOL    HW116598   1.246   4.133   2.876  0.6847 -0.1414  0.7786
 5233SOL    HW216599   1.267   4.257   2.979  1.3638 -0.5609  1.1519
 5234SOL     OW16600   3.181   3.679   2.123 -0.3854 -0.2350  0.2920
 5234SOL    HW116601   3.176   3.612   2.197 -1.5585 -1.1273 -0.5638
 5234SOL    HW216602   3.225   3.763   2.156 -0.0702 -0.9478  1.7311
 5235SOL     OW16603   2.446   3.155   1.678  0.2725 -0.3309 -0.2391
 5235SOL    HW116604   2.387   3.146   1.598 -0.0731 -0.0297 -0.0194
 5235SOL    HW216605   2.390   3.169   1.759  0.5575 -1.7344  0.2285
 5236SOL     OW16606   0.473   3.887   2.608  0.2940  0.4005  0.1872
 5236SOL    HW116607   0.469   3.930   2.517 -2.0257  1.2156  0.6072
 5236SOL    HW216608   0.413   3.807   2.609  2.8796 -1.6840  0.0863
 5237SOL     OW16609   1.320   3.581   2.081  0.3983 -0.5311  0.5804
 5237SOL    HW116610   1.287   3.551   1.991 -2.3115  0.6905  1.0482
 5237SOL    HW216611   1.417   3.602   2.076  0.3991 -0.7982 -1.9900
 5238SOL     OW16612   1.135   4.225   1.674 -0.3634 -0.2513  0.0953
 5238SOL    HW116613   1.142   4.125   1.675  0.8040 -0.2168  2.5158
 5238SOL    HW216614   1.051   4.254   1.719  0.1910 -0.1383  1.0825
 5239SOL     OW16615   3.720   3.145   5.576  0.5800 -0.5278  0.2973
 5239SOL    HW116616   3.735   3.096   5.490  0.6873 -1.1839  0.6807
 5239SOL    HW216617   3.809   3.160   5.621  0.6248  0.6455 -0.1428
 5240SOL     OW16618   4.984   1.335   3.486  0.3833  0.2266 -0.0410
 5240SOL    HW116619   5.004   1.267   3.556  3.9581  1.2686  0.1673
 5240SOL    HW216620   4.932   1.410   3.526  0.3205 -0.2991  0.8905
 5241SOL     OW16621   4.195   0.293   6.164  0.3517 -0.3705  0.5174
 5241SOL    HW116622   4.103   0.275   6.198 -0.0020 -1.2441 -0.8257
 5241SOL    HW216623   4.191   0.312   6.066  1.5368  0.2182  0.5709
 5242SOL     OW16624   5.362   1.062   4.889 -0.1002  0.0276 -0.1899
 5242SOL    HW116625   5.299   1.097   4.820  0.0710 -0.0502 -0.3864
 5242SOL    HW216626   5.357   0.962   4.891  2.2304 -0.2346 -2.3708
 5243SOL     OW16627   1.525   2.714   6.642 -0.0973  0.6219  0.1170
 5243SOL    HW116628   1.444   2.723   6.585 -0.4514  1.2193  0.7007
 5243SOL    HW216629   1.601   2.765   6.600 -0.2282  0.6803 -0.0504
 5244SOL     OW16630   6.258   4.589   4.901 -0.5133  0.3533  0.0181
 5244SOL    HW116631   6.332   4.654   4.890 -1.4062  1.2563 -0.8241
 5244SOL    HW216632   6.255   4.527   4.823 -1.7092  1.4621 -0.8703
 5245SOL     OW16633   4.062   4.204   5.851 -0.8515  0.1935  0.8989
 5245SOL    HW116634   4.085   4.301   5.839 -2.0132  0.3538 -0.2135
 5245SOL    HW216635   4.003   4.193   5.931 -0.3472  0.3334  1.2953
 5246SOL     OW16636   1.957   2.540   2.848  0.0677 -0.0208  0.2874
 5246SOL    HW116637   1.946   2.462   2.909  0.2880  0.0436  0.4132
 5246SOL    HW216638   1.868   2.570   2.815  0.0172 -0.6087 -0.1224
 5247SOL     OW16639   0.434   2.583   5.494 -0.2167 -0.6311  0.5407
 5247SOL    HW116640   0.371   2.527   5.549  1.4193 -1.9094  1.1881
 5247SOL    HW216641   0.458   2.666   5.545 -1.0738 -0.3095  0.4390
 5248SOL     OW16642   6.943   3.778   6.858  0.2635  0.1746 -0.3544
 5248SOL    HW116643   6.939   3.679   6.848 -0.3039 -0.2272  2.8970
 5248SOL    HW216644   7.026   3.813   6.816  1.2512 -1.8952 -0.1933
 5249SOL     OW16645   6.973   6.959   6.742  0.2257  0.2782 -0.5878
 5249SOL    HW116646   6.931   6.996   6.659  0.0156  1.3001 -0.0472
 5249SOL    HW216647   7.073   6.957   6.731  0.3392  2.1221 -0.2297
 5250SOL     OW16648   1.126   0.699   6.071 -0.0838  0.4148 -0.2238
 5250SOL    HW116649   1.044   0.756   6.076 -0.7008 -0.2952 -1.5402
 5250SOL    HW216650   1.176   0.704   6.157 -1.4462  0.9736  0.5675
 5251SOL     OW16651   1.643   2.250   3.449  0.8574 -0.8617 -0.2898
 5251SOL    HW116652   1.583   2.254   3.529  1.4208 -2.1914  0.2278
 5251SOL    HW216653   1.592   2.278   3.367 -0.2922 -1.3727  0.2342
 5252SOL     OW16654   5.381   3.467   1.409 -0.1742  0.2322 -0.7886
 5252SOL    HW116655   5.386   3.386   1.467  3.3719  0.7379 -0.1715
 5252SOL    HW216656   5.426   3.448   1.321  0.1185  1.3230 -0.8882
 5253SOL     OW16657   5.554   2.902   3.254 -0.1497 -0.2406 -0.0056
 5253SOL    HW116658   5.599   2.871   3.170  1.7407  0.2932  0.7573
 5253SOL    HW216659   5.515   2.824   3.302  1.6252 -1.0391  0.2183
 5254SOL     OW16660   5.574   6.850   4.016 -0.0064  0.1343  0.1955
 5254SOL    HW116661   5.670   6.855   3.991  0.6072 -0.3324  2.2690
 5254SOL    HW216662   5.560   6.776   4.082 -1.8255  0.0832 -0.1831
 5255SOL     OW16663   5.924   3.508   1.353 -0.1907 -0.5098 -0.0052
 5255SOL    HW116664   5.926   3.421   1.305  0.2926 -0.0934 -0.7607
 5255SOL    HW216665   6.017   3.543   1.364 -0.3545 -0.2259  0.5537
 5256SOL     OW16666   5.591   6.521   2.573  0.0378 -0.3293  0.1749
 5256SOL    HW116667   5.661   6.589   2.594  1.6177 -1.5943 -0.7083
 5256SOL    HW216668   5.583   6.511   2.473 -0.3441 -1.2416  0.2810
 5257SOL     OW16669   2.892   1.418   2.220 -0.2593  0.2479 -0.5096
 5257SOL    HW116670   2.840   1.358   2.281 -1.1022  1.5144  0.0452
 5257SOL    HW216671   2.987   1.423   2.253 -0.5242  0.3363  0.2704
 5258SOL     OW16672   6.597   1.013   1.903  0.6258  0.6522  0.2481
 5258SOL    HW116673   6.534   0.998   1.980  0.4431  1.1075  0.1900
 5258SOL    HW216674   6.553   0.985   1.818  1.2205 -0.8905  0.4074
 5259SOL     OW16675   4.905   3.641   0.341  0.4613  0.1283 -0.4772
 5259SOL    HW116676   4.915   3.739   0.358 -0.3478  0.4395 -1.6581
 5259SOL    HW216677   4.909   3.623   0.243 -0.1956 -0.9089 -0.3356
 5260SOL     OW16678   6.004   2.324   1.980  0.9592  0.2275 -0.5273
 5260SOL    HW116679   6.038   2.412   1.944  2.1635  0.5408  1.2478
 5260SOL    HW216680   6.068   2.251   1.956 -0.1613 -0.2592 -2.2077
 5261SOL     OW16681   2.065   3.612   5.114  0.2251  0.5884  0.3753
 5261SOL    HW116682   2.054   3.530   5.170  2.1291 -0.8943 -1.3134
 5261SOL    HW216683   2.135   3.671   5.155 -0.3268  0.8539  0.9659
 5262SOL     OW16684   6.745   0.335   2.560 -0.4956  0.4209  0.6856
 5262SOL    HW116685   6.752   0.427   2.599  0.1681  0.8412 -0.3764
 5262SOL    HW216686   6.729   0.341   2.462 -1.8389 -0.6145  0.8111
 5263SOL     OW16687   1.902   0.311   5.692 -0.3835 -1.0394  0.2303
 5263SOL    HW116688   1.912   0.269   5.782  0.8590 -0.8246  0.2056
 5263SOL    HW216689   1.811   0.352   5.684 -1.0550 -2.3431  0.8315
 5264SOL     OW16690   0.299   0.810   0.553  0.5228 -0.2545  0.3097
 5264SOL    HW116691   0.351   0.887   0.515  0.1031  0.4422  1.1093
 5264SOL    HW216692   0.316   0.803   0.651  0.4266 -1.0904  0.2723
 5265SOL     OW16693   4.070   5.074   2.358 -0.1947 -0.1441 -0.6207
 5265SOL    HW116694   4.149   5.014   2.369 -1.2514 -1.7546 -1.4216
 5265SOL    HW216695   4.023   5.083   2.446  1.0934  1.1884 -0.0374
 5266SOL     OW16696   1.171   0.012   2.739 -0.2071  0.7280  0.3708
 5266SOL    HW116697   1.102  -0.006   2.669 -0.2865 -0.0860  0.6499
 5266SOL    HW216698   1.129   0.005   2.829  0.1942  0.4072  0.5364
 5267SOL     OW16699   2.754   3.707   5.386 -0.2089 -0.4394 -0.0390
 5267SOL    HW116700   2.692   3.776   5.350  0.3354  0.3439  0.4737
 5267SOL    HW216701   2.782   3.645   5.313 -0.8342 -0.2155 -0.4748
 5268SOL     OW16702   5.730   3.688   6.172 -0.7327 -0.2274 -0.3570
 5268SOL    HW116703   5.717   3.591   6.194 -0.2258  0.0959  1.5124
 5268SOL    HW216704   5.727   3.742   6.256 -0.7453  1.3593 -1.3478
 5269SOL     OW16705   2.365   5.999   5.803  0.2811  0.2419 -0.0377
 5269SOL    HW116706   2.317   5.996   5.891 -0.3989 -0.1291 -0.4064
 5269SOL    HW216707   2.298   6.007   5.729  0.7128 -1.2392 -0.6306
 5270SOL     OW16708   6.571   1.500   4.281  0.1926 -0.5704 -0.6857
 5270SOL    HW116709   6.523   1.416   4.307 -0.3414  0.1068  0.6507
 5270SOL    HW216710   6.609   1.542   4.363  2.4531 -0.6646 -1.5979
 5271SOL     OW16711   4.843   2.424   6.389  0.1147  0.3786  0.1486
 5271SOL    HW116712   4.786   2.497   6.351 -0.5917  0.0146  0.4812
 5271SOL    HW216713   4.859   2.354   6.319 -1.9347 -0.7335  0.7238
 5272SOL     OW16714   0.676   2.617   2.453  0.1531  0.4805  0.4602
 5272SOL    HW116715   0.697   2.594   2.358  0.4286 -1.0537  0.8665
 5272SOL    HW216716   0.597   2.564   2.484  1.3802 -0.6847  1.7174
 5273SOL     OW16717   0.208   0.921   6.380 -0.4467  0.4936 -0.5008
 5273SOL    HW116718   0.221   1.019   6.396 -0.6973  0.4025  0.2972
 5273SOL    HW216719   0.201   0.873   6.468 -1.1099 -0.1318 -0.8840
 5274SOL     OW16720   5.928   5.562   5.480 -0.0291 -0.1867 -0.4514
 5274SOL    HW116721   5.971   5.518   5.559  1.2482  0.7386 -0.6054
 5274SOL    HW216722   5.968   5.526   5.396  0.7238  0.9522 -0.5895
 5275SOL     OW16723   3.111   6.515   0.399 -0.0485  0.2098  0.7307
 5275SOL    HW116724   3.120   6.611   0.422 -0.0228  0.3797  0.0226
 5275SOL    HW216725   3.202   6.474   0.391  0.2704  1.2770 -3.6753
 5276SOL     OW16726   0.221   0.003   6.755 -0.1506  0.5112 -0.2583
 5276SOL    HW116727   0.214  -0.020   6.852  0.3074 -0.2125 -0.3875
 5276SOL    HW216728   0.312  -0.023   6.721 -0.2899  0.8034 -0.8646
 5277SOL     OW16729   1.144   0.626   0.101 -0.2704 -0.0000 -0.2031
 5277SOL    HW116730   1.219   0.692   0.097  1.3623 -1.6898  0.8807
 5277SOL    HW216731   1.125   0.603   0.196 -2.6937  0.9144 -0.4149
 5278SOL     OW16732   0.154   4.853   0.664 -0.2286  0.4276 -0.7180
 5278SOL    HW116733   0.252   4.860   0.685 -0.3752  1.6715 -0.3440
 5278SOL    HW216734   0.123   4.760   0.681  0.2583  0.6849  2.1649
 5279SOL     OW16735   2.664   5.553   6.707  0.2602  0.2091 -0.0037
 5279SOL    HW116736   2.566   5.566   6.724  0.4002  1.7938 -0.1964
 5279SOL    HW216737   2.713   5.555   6.794  0.1729 -0.0211  0.0503
 5280SOL     OW16738   2.068   1.166   0.171 -0.7418  0.2172 -0.5093
 5280SOL    HW116739   2.018   1.230   0.230  0.3078  0.5062  0.0777
 5280SOL    HW216740   2.126   1.218   0.108  1.4102 -0.1154  1.0874
 5281SOL     OW16741   0.165   6.141   3.102 -0.2165  0.9904  0.2292
 5281SOL    HW116742   0.070   6.135   3.134  0.2031  0.9885  1.5406
 5281SOL    HW216743   0.214   6.210   3.155  0.2731  1.6841 -1.0938
 5282SOL     OW16744   6.711   6.766   2.148 -0.1689  0.3966  0.0691
 5282SOL    HW116745   6.625   6.776   2.098 -1.1927 -1.6037  1.3086
 5282SOL    HW216746   6.787   6.766   2.083 -1.3829 -1.2192 -1.4422
 5283SOL     OW16747   1.024   6.048   5.500 -0.5281  0.1921 -0.0641
 5283SOL    HW116748   1.013   6.136   5.454  0.2488  0.4963  0.3196
 5283SOL    HW216749   1.010   6.059   5.598 -0.6155 -0.1482 -0.0372
 5284SOL     OW16750   4.735   3.743   1.432 -0.6100  0.1167  0.0299
 5284SOL    HW116751   4.643   3.777   1.413 -0.5181  1.6458  1.9617
 5284SOL    HW216752   4.802   3.797   1.380 -0.6006  1.7290  1.6085
 5285SOL     OW16753   2.242   1.405   4.480  0.4142  0.7652  0.2706
 5285SOL    HW116754   2.328   1.378   4.523 -0.4253 -2.4708  0.1745
 5285SOL    HW216755   2.252   1.400   4.381 -0.3248 -1.4972  0.2624
 5286SOL     OW16756   0.022   2.211   1.935  0.8596 -0.6340  0.0543
 5286SOL    HW116757   0.075   2.219   1.851  0.3531  2.8539 -0.0828
 5286SOL    HW216758  -0.074   2.230   1.916  1.0512  2.6421  1.6012
 5287SOL     OW16759   1.070   3.677   3.187  0.0913  0.1073 -0.1432
 5287SOL    HW116760   1.110   3.663   3.097 -0.1512 -0.6055 -0.1453
 5287SOL    HW216761   0.985   3.729   3.178 -0.1573 -0.3294 -0.3776
 5288SOL     OW16762   4.017   0.614   1.158 -0.4080  0.0438  0.5451
 5288SOL    HW116763   4.114   0.634   1.171 -0.9467  2.4537  1.2935
 5288SOL    HW216764   3.998   0.521   1.188  1.8637 -0.9508 -0.8028
 5289SOL     OW16765   3.138   5.821   0.792  0.1367 -0.1649 -0.2516
 5289SOL    HW116766   3.076   5.814   0.714 -0.0946  0.2137 -0.1060
 5289SOL    HW216767   3.174   5.914   0.799  1.0528 -0.4834 -0.5769
 5290SOL     OW16768   2.446   1.668   3.299 -0.4133 -0.3316  0.2455
 5290SOL    HW116769   2.392   1.644   3.380 -1.6448 -1.9213 -0.9777
 5290SOL    HW216770   2.539   1.690   3.326 -0.7646 -0.9121  2.0670
 5291SOL     OW16771   2.446   6.416   2.700 -0.0142 -0.3812  0.2919
 5291SOL    HW116772   2.467   6.487   2.767  0.3501 -0.4040  0.2046
 5291SOL    HW216773   2.522   6.408   2.635 -0.5872  0.0216 -0.4497
 5292SOL     OW16774   1.643   3.455   3.724 -0.0834 -0.6973  0.5142
 5292SOL    HW116775   1.652   3.493   3.816 -0.3821  0.2985  0.1468
 5292SOL    HW216776   1.581   3.377   3.726 -0.3786 -0.4545  1.0965
 5293SOL     OW16777   3.274   0.647   4.618 -0.7882  0.2329  0.4861
 5293SOL    HW116778   3.295   0.704   4.698  1.2670 -0.3754  0.4276
 5293SOL    HW216779   3.231   0.704   4.548  1.2608  1.7987  0.3989
 5294SOL     OW16780   4.331   0.604   3.259  0.1038 -0.3478  0.2421
 5294SOL    HW116781   4.294   0.668   3.326  1.5903 -1.1759  1.9576
 5294SOL    HW216782   4.373   0.526   3.307  0.8564 -1.1985 -1.6774
 5295SOL     OW16783   0.865   1.736   1.347 -0.2572  0.3268 -0.1902
 5295SOL    HW116784   0.838   1.657   1.403  0.8420  0.4181  0.4848
 5295SOL    HW216785   0.828   1.820   1.387  0.1659  0.3468  0.1632
 5296SOL     OW16786   2.097   5.782   1.524  0.4027 -0.3108  0.5957
 5296SOL    HW116787   2.070   5.877   1.508 -0.9268 -1.2036 -3.9875
 5296SOL    HW216788   2.197   5.774   1.520  0.4800  0.7861  0.1827
 5297SOL     OW16789   3.851   4.664   6.359  0.2239  0.2043 -0.1009
 5297SOL    HW116790   3.791   4.680   6.437 -0.3623  1.1806 -0.7315
 5297SOL    HW216791   3.932   4.612   6.389 -0.1942  0.1955  1.0539
 5298SOL     OW16792   2.229   1.969   6.703  0.0803 -0.6478 -0.8978
 5298SOL    HW116793   2.325   1.995   6.705  0.3850 -1.7342 -0.8571
 5298SOL    HW216794   2.177   2.037   6.652  0.4792  1.1633  0.9851
 5299SOL     OW16795   1.179   1.083   2.556 -0.0047  0.1246 -0.4122
 5299SOL    HW116796   1.248   1.152   2.577  1.1696 -1.2105  0.3161
 5299SOL    HW216797   1.175   1.069   2.457 -0.2489  1.1959 -0.5694
 5300SOL     OW16798   4.321   3.811   0.094  0.1916  0.5943 -0.2767
 5300SOL    HW116799   4.270   3.828   0.179  2.7772 -1.2185  1.8085
 5300SOL    HW216800   4.268   3.750   0.035 -1.3981  1.3929  0.2596
 5301SOL     OW16801   6.909   0.631   5.097 -0.2225  0.1946 -0.8962
 5301SOL    HW116802   7.006   0.617   5.078 -0.1579  0.7302 -0.9830
 5301SOL    HW216803   6.893   0.728   5.115 -0.7393  0.1036 -0.8619
 5302SOL     OW16804   3.131   5.967   4.033  0.4853 -0.0793  0.3806
 5302SOL    HW116805   3.215   5.912   4.032 -1.0276 -2.5249  0.3577
 5302SOL    HW216806   3.104   5.984   4.128 -0.5014 -1.8444  0.4597
 5303SOL     OW16807   1.085   5.798   5.043  0.1022 -0.2158  0.0711
 5303SOL    HW116808   1.065   5.858   5.120  1.9416 -0.0837  0.4911
 5303SOL    HW216809   1.000   5.755   5.011 -0.8300  0.4647  1.5300
 5304SOL     OW16810   5.924   3.236   4.671 -0.1708  0.0269 -0.4889
 5304SOL    HW116811   5.980   3.274   4.746 -1.0548 -2.0399  1.3305
 5304SOL    HW216812   5.975   3.241   4.586  3.0473 -2.0680  1.1037
 5305SOL     OW16813   0.491   1.218   3.682 -0.1087  0.1608 -0.5885
 5305SOL    HW116814   0.545   1.170   3.614 -2.0088 -1.4228 -1.0542
 5305SOL    HW216815   0.393   1.203   3.665 -0.6908 -0.8482  2.7895
 5306SOL     OW16816   0.653   2.113   6.098  0.1032 -0.2591  0.1485
 5306SOL    HW116817   0.687   2.030   6.142 -2.0044 -1.8018 -0.9815
 5306SOL    HW216818   0.653   2.101   5.999 -0.0540  1.1855 -0.0453
 5307SOL     OW16819   0.445   1.183   1.787 -0.2791 -0.1455 -0.8000
 5307SOL    HW116820   0.484   1.124   1.717  1.4408  0.4119 -0.3588
 5307SOL    HW216821   0.455   1.141   1.877 -2.2192 -0.7266 -0.8004
 5308SOL     OW16822   2.443   4.522   4.620  0.6669 -0.3035  0.5675
 5308SOL    HW116823   2.537   4.545   4.597  0.7595 -1.8104 -0.7875
 5308SOL    HW216824   2.431   4.524   4.719  1.8350  0.9116  0.7057
 5309SOL     OW16825   1.349   0.861   3.259  0.3875  0.1793  0.3435
 5309SOL    HW116826   1.313   0.947   3.223  1.1054  0.1951 -0.3805
 5309SOL    HW216827   1.448   0.870   3.272  0.4813 -0.5607  0.1773
 5310SOL     OW16828   0.551   2.744   4.065 -0.1420  0.2419 -0.7158
 5310SOL    HW116829   0.489   2.676   4.026  0.6254 -1.0747  0.2992
 5310SOL    HW216830   0.543   2.744   4.164  0.3461  1.1828 -0.6664
 5311SOL     OW16831   6.862   6.280   6.796  0.8490  0.4093 -0.1392
 5311SOL    HW116832   6.780   6.326   6.764  1.5737 -0.7753 -4.3486
 5311SOL    HW216833   6.933   6.347   6.816 -0.1200  1.2991  0.3890
 5312SOL     OW16834   5.930   0.619   0.917  0.1794  0.7996  0.2213
 5312SOL    HW116835   5.941   0.521   0.899  1.8772  0.5925  2.0650
 5312SOL    HW216836   5.837   0.636   0.950 -0.2598 -0.1145 -0.4903
 5313SOL     OW16837   5.461   6.616   4.972 -0.4424 -0.0491 -0.3295
 5313SOL    HW116838   5.432   6.707   5.002 -1.2610 -0.1754 -0.7367
 5313SOL    HW216839   5.447   6.551   5.047 -0.7520 -0.0194 -0.3616
 5314SOL     OW16840   6.795   3.246   2.961 -0.2130 -0.4181 -0.2278
 5314SOL    HW116841   6.789   3.330   2.907 -0.9914 -0.0807  0.3782
 5314SOL    HW216842   6.891   3.216   2.964  0.4260  1.5597  1.2179
 5315SOL     OW16843   3.423   0.006   4.780  0.1028  0.0404  0.0862
 5315SOL    HW116844   3.456   0.061   4.857 -2.3579  0.2663  1.0668
 5315SOL    HW216845   3.449  -0.089   4.794  3.1343  0.6076 -0.8980
 5316SOL     OW16846   6.917   3.147   5.893  0.5732  0.5826  0.3388
 5316SOL    HW116847   6.887   3.206   5.968 -0.7066 -0.2431  0.4977
 5316SOL    HW216848   6.969   3.070   5.931 -1.0003 -0.4260  0.5155
 5317SOL     OW16849   5.108   3.409   3.562 -0.5239  0.3819  0.0616
 5317SOL    HW116850   5.049   3.489   3.560 -0.9077  0.3242  3.1319
 5317SOL    HW216851   5.200   3.436   3.591 -0.7298 -0.2414  1.4059
 5318SOL     OW16852   0.184   5.302   0.158  0.1714 -0.3782 -0.0288
 5318SOL    HW116853   0.194   5.392   0.200  0.4933  0.2829 -1.4635
 5318SOL    HW216854   0.088   5.272   0.165 -0.4627  1.1482 -1.5945
 5319SOL     OW16855   4.805   4.838   1.796 -0.0526 -0.7963  0.1958
 5319SOL    HW116856   4.865   4.905   1.752 -0.0788 -0.0358  1.2986
 5319SOL    HW216857   4.791   4.761   1.733  1.0776 -0.4219 -0.5564
 5320SOL     OW16858   5.129   0.033   1.362  0.0928  0.7107 -0.1476
 5320SOL    HW116859   5.048  -0.022   1.343 -0.5023  1.4976  0.0723
 5320SOL    HW216860   5.152   0.088   1.281  1.4961 -0.8285 -0.8574
 5321SOL     OW16861   2.033   3.726   3.665  0.3855 -0.4173  0.5892
 5321SOL    HW116862   2.066   3.651   3.608  2.5625 -0.3711  1.6749
 5321SOL    HW216863   1.978   3.690   3.740  0.8934 -0.8770  0.7449
 5322SOL     OW16864   5.165   4.693   2.488 -0.0483 -0.6810  0.1118
 5322SOL    HW116865   5.219   4.702   2.571  0.7781  1.3353 -0.5799
 5322SOL    HW216866   5.079   4.744   2.497 -0.9295 -2.1534  0.4379
 5323SOL     OW16867   5.630   0.159   6.547  0.4329  0.4670  0.3434
 5323SOL    HW116868   5.609   0.152   6.449 -0.1562 -0.6975  0.5416
 5323SOL    HW216869   5.554   0.122   6.601  0.3354  1.9652  1.2928
 5324SOL     OW16870   0.310   1.753   4.388  0.3291  0.2958  0.2360
 5324SOL    HW116871   0.260   1.716   4.310 -4.6063  3.2232  1.5913
 5324SOL    HW216872   0.346   1.843   4.365  1.0067  0.1454  0.6730
 5325SOL     OW16873   1.988   1.827   4.042 -0.1035 -0.0750  0.0928
 5325SOL    HW116874   2.085   1.835   4.063  0.0313  0.5347 -0.7316
 5325SOL    HW216875   1.934   1.866   4.117  0.3881  2.7408 -0.8934
 5326SOL     OW16876   5.640   0.445   2.781  0.9357  0.1035  0.1703
 5326SOL    HW116877   5.648   0.540   2.751  2.3869 -0.3193 -0.8832
 5326SOL    HW216878   5.582   0.394   2.718  1.9037 -0.1796 -0.5297
 5327SOL     OW16879   1.614   2.476   6.732 -0.1274  0.5434  0.2080
 5327SOL    HW116880   1.531   2.427   6.758 -1.5330  2.3831 -0.5836
 5327SOL    HW216881   1.589   2.564   6.690  2.1820  0.5137 -1.3884
 5328SOL     OW16882   3.118   3.208   0.486  0.2142 -0.0462  0.8698
 5328SOL    HW116883   3.098   3.260   0.403  1.7695 -1.1180 -0.2375
 5328SOL    HW216884   3.033   3.170   0.523 -0.3686 -0.7660 -1.0782
 5329SOL     OW16885   2.338   6.329   0.260  0.3897  0.0845  0.6129
 5329SOL    HW116886   2.327   6.303   0.356 -0.9881 -0.1343  0.4200
 5329SOL    HW216887   2.309   6.424   0.248  2.6053  0.8375  0.7738
 5330SOL     OW16888   1.501   5.853   6.458  0.2750 -0.1612 -0.7632
 5330SOL    HW116889   1.572   5.798   6.414  0.1918  0.2602 -1.4436
 5330SOL    HW216890   1.540   5.939   6.491  0.6379 -1.0531  1.2753
 5331SOL     OW16891   5.700   1.169   6.828  0.8610 -0.7594  0.3388
 5331SOL    HW116892   5.666   1.248   6.880  1.1125 -0.1818 -0.3637
 5331SOL    HW216893   5.784   1.136   6.871  1.5422  0.2529 -0.1692
 5332SOL     OW16894   2.309   5.318   1.375 -0.3679 -0.5686 -0.1595
 5332SOL    HW116895   2.230   5.358   1.421  0.5396 -0.1452  1.0972
 5332SOL    HW216896   2.278   5.263   1.297 -1.7786  0.8756 -0.6845
 5333SOL     OW16897   0.889   0.066   5.740  0.0881 -0.2557  0.0300
 5333SOL    HW116898   0.818   0.124   5.779  2.2927  1.1125  2.2790
 5333SOL    HW216899   0.868  -0.030   5.760 -0.6239  0.1935  1.5747
 5334SOL     OW16900   3.942   0.762   4.493 -0.4393  0.9350  0.2948
 5334SOL    HW116901   4.022   0.822   4.493  0.5854 -0.3909  0.6647
 5334SOL    HW216902   3.859   0.818   4.494  0.4649  2.3407 -0.0643
 5335SOL     OW16903   6.664   6.486   0.915 -0.5931 -0.7465 -0.2437
 5335SOL    HW116904   6.627   6.396   0.941  1.3227 -1.8905 -1.2139
 5335SOL    HW216905   6.760   6.491   0.943 -0.1363  0.2572 -1.8643
 5336SOL     OW16906   0.694   2.900   0.719  0.0820 -0.2194  0.7721
 5336SOL    HW116907   0.681   2.823   0.780  4.0641 -2.0910 -0.3776
 5336SOL    HW216908   0.677   2.872   0.624  0.3323  0.6902  0.4376
 5337SOL     OW16909   5.088   3.092   1.246  0.3478 -0.7013  0.3828
 5337SOL    HW116910   5.017   3.122   1.310  1.8726  1.3482  1.2003
 5337SOL    HW216911   5.145   3.023   1.290  0.8632  0.0673  0.9314
 5338SOL     OW16912   4.929   3.436   6.597  0.5142  0.0693 -0.6217
 5338SOL    HW116913   4.989   3.445   6.517  1.3522  3.1992  0.1934
 5338SOL    HW216914   4.874   3.519   6.606 -0.3646 -0.6870  1.4346
 5339SOL     OW16915   6.588   0.703   1.939  0.1752 -0.0000 -0.5992
 5339SOL    HW116916   6.535   0.647   2.003 -1.2238 -0.5868 -2.1998
 5339SOL    HW216917   6.612   0.648   1.859  3.4550  0.1911  0.1139
 5340SOL     OW16918   6.560   2.841   0.645  0.2146  0.0218 -0.4154
 5340SOL    HW116919   6.594   2.780   0.716  1.3783  1.1699  0.0637
 5340SOL    HW216920   6.586   2.805   0.555 -0.4289 -0.9394 -0.2306
 5341SOL     OW16921   2.414   0.992   6.285  0.8448 -0.5205 -0.1937
 5341SOL    HW116922   2.471   1.024   6.210  0.6751  0.2305 -0.0065
 5341SOL    HW216923   2.341   0.933   6.250 -0.0949  0.9577 -0.8061
 5342SOL     OW16924   0.289   0.414   6.286  0.2407 -0.5162 -0.0868
 5342SOL    HW116925   0.325   0.321   6.290  0.8507 -0.3044 -0.4923
 5342SOL    HW216926   0.278   0.450   6.379 -0.6114 -1.2108  0.0990
 5343SOL     OW16927   2.076   4.580   0.645 -0.3681  0.3252  0.0687
 5343SOL    HW116928   2.101   4.675   0.626 -1.1416  0.5621  0.1878
 5343SOL    HW216929   1.998   4.578   0.708  0.2261 -0.4036  0.8110
 5344SOL     OW16930   2.707   3.027   1.639 -0.5466  0.0283 -0.1656
 5344SOL    HW116931   2.696   2.936   1.680  1.0067 -0.0246  0.2240
 5344SOL    HW216932   2.619   3.073   1.634 -1.0606 -0.7112  1.5264
 5345SOL     OW16933   4.003   6.432   2.764  0.0130  0.2036  0.3337
 5345SOL    HW116934   4.100   6.423   2.743  0.1931  1.2917  0.6273
 5345SOL    HW216935   3.957   6.344   2.753  1.0504 -0.3329  0.2762
 5346SOL     OW16936   3.908   6.589   4.647  0.6553 -0.5063  0.8006
 5346SOL    HW116937   3.899   6.664   4.582  0.4890  0.1488  1.5578
 5346SOL    HW216938   3.969   6.617   4.721 -1.0131 -0.3031  2.1875
 5347SOL     OW16939   0.526   1.772   1.808  0.1215 -0.2896 -0.3458
 5347SOL    HW116940   0.557   1.695   1.752 -1.3728  0.5372 -2.4371
 5347SOL    HW216941   0.600   1.838   1.817  1.2466 -1.6351  1.0151
 5348SOL     OW16942   5.723   2.892   6.945 -0.8782  0.3997 -0.2729
 5348SOL    HW116943   5.693   2.966   7.005  0.9653  0.6729  0.3549
 5348SOL    HW216944   5.812   2.859   6.974 -0.3606 -0.1233 -2.2778
 5349SOL     OW16945   4.493   0.373   6.150 -0.0431  0.5616 -0.5868
 5349SOL    HW116946   4.394   0.384   6.140  0.0202  0.8591 -0.9027
 5349SOL    HW216947   4.515   0.352   6.245 -0.5554 -1.0296 -0.7785
 5350SOL     OW16948   1.447   6.650   6.361  0.0236  0.2782  0.1865
 5350SOL    HW116949   1.447   6.704   6.277  1.4613  0.9121  0.5656
 5350SOL    HW216950   1.456   6.711   6.439  2.5364 -0.4952  0.5960
 5351SOL     OW16951   4.704   0.433   2.016 -0.0746  0.0935  0.0376
 5351SOL    HW116952   4.776   0.447   1.948  0.4073  0.1704  0.5661
 5351SOL    HW216953   4.738   0.454   2.107 -0.4342 -0.9491  0.4291
 5352SOL     OW16954   2.757   0.597   2.233  0.2648 -0.2590 -0.1992
 5352SOL    HW116955   2.672   0.588   2.285 -0.6572  3.6231 -0.6865
 5352SOL    HW216956   2.742   0.569   2.138  0.2909 -1.9290  0.2731
 5353SOL     OW16957   0.575   1.651   6.072 -0.4808  0.5273  0.2964
 5353SOL    HW116958   0.670   1.671   6.095 -0.3035 -1.0615  1.0872
 5353SOL    HW216959   0.519   1.732   6.088  0.7115  1.4638 -0.1080
 5354SOL     OW16960   2.155   3.526   3.547  0.1028 -0.5820  0.3058
 5354SOL    HW116961   2.175   3.580   3.465  0.4622  0.1796  0.8789
 5354SOL    HW216962   2.216   3.447   3.551  2.2540  1.0360  1.4004
 5355SOL     OW16963   5.476   1.571   3.855 -0.4851 -0.0184  0.1900
 5355SOL    HW116964   5.454   1.657   3.901 -0.1723 -0.3834  1.0471
 5355SOL    HW216965   5.398   1.541   3.801 -0.7103  0.6407  0.1482
 5356SOL     OW16966   0.062   3.262   2.295  0.1071  0.0323 -0.3087
 5356SOL    HW116967   0.031   3.227   2.384 -0.2138  2.4566  0.6078
 5356SOL    HW216968   0.160   3.281   2.299  0.1790 -0.2597 -0.6277
 5357SOL     OW16969   5.099   6.331   2.113  0.1737 -0.0375  0.5056
 5357SOL    HW116970   5.086   6.232   2.127  1.8973 -0.4824 -0.6982
 5357SOL    HW216971   5.014   6.370   2.077 -0.1037 -1.3697 -0.3908
 5358SOL     OW16972   5.805   5.208   1.220  0.4459  0.6050 -0.0154
 5358SOL    HW116973   5.795   5.228   1.318 -2.0510 -0.5452  0.0302
 5358SOL    HW216974   5.830   5.291   1.172 -1.1893  1.8986  1.2404
 5359SOL     OW16975   2.893   1.779   5.931 -0.2866 -0.5406  0.4479
 5359SOL    HW116976   2.948   1.697   5.944 -0.5576 -1.0253 -1.2191
 5359SOL    HW216977   2.947   1.860   5.951  0.7392 -1.0411 -0.2642
 5360SOL     OW16978   4.355   2.887   0.774 -0.2170  0.0808  0.2218
 5360SOL    HW116979   4.330   2.825   0.849 -1.5602  0.1728 -0.1231
 5360SOL    HW216980   4.338   2.982   0.803  0.2441  0.1837  0.1595
 5361SOL     OW16981   6.935   3.164   0.241 -0.2602  0.2241  0.3230
 5361SOL    HW116982   7.026   3.198   0.264  0.3468 -0.4321 -1.0104
 5361SOL    HW216983   6.869   3.239   0.246  0.8900  1.4643 -1.6869
 5362SOL     OW16984   2.724   6.334   3.668 -0.1633 -0.5772 -0.8419
 5362SOL    HW116985   2.667   6.343   3.586 -0.2389 -2.8545 -1.1055
 5362SOL    HW216986   2.673   6.364   3.748 -1.1558 -1.0079 -1.2866
 5363SOL     OW16987   0.670   6.568   2.715 -0.2556  0.0807 -0.1185
 5363SOL    HW116988   0.763   6.540   2.739  0.2968  1.8030 -0.0916
 5363SOL    HW216989   0.604   6.510   2.763  0.8128  0.1007  1.4484
 5364SOL     OW16990   2.066   6.586   0.684 -0.3077  0.0368  0.3080
 5364SOL    HW116991   1.982   6.621   0.725 -0.3553 -0.9929  1.1222
 5364SOL    HW216992   2.077   6.624   0.592 -1.8792 -0.1399  0.0245
 5365SOL     OW16993   4.302   1.601   5.435  0.1055  0.1926  0.8303
 5365SOL    HW116994   4.241   1.530   5.399  1.9773 -1.3686  0.6232
 5365SOL    HW216995   4.351   1.566   5.514  1.3319  1.1316  0.5062
 5366SOL     OW16996   2.549   3.886   5.363 -0.0843 -0.2960  0.1234
 5366SOL    HW116997   2.490   3.892   5.443 -1.4040 -2.4846 -0.5829
 5366SOL    HW216998   2.497   3.909   5.281  0.9789  0.9419 -0.2318
 5367SOL     OW16999   0.587   3.524   0.416  0.1128  0.1824 -0.1230
 5367SOL    HW117000   0.674   3.517   0.367 -0.6212  0.3743 -1.5132
 5367SOL    HW217001   0.583   3.612   0.464  0.6532  0.1924 -0.0826
 5368SOL     OW17002   1.617   6.657   1.859  0.5448  0.3631  0.8275
 5368SOL    HW117003   1.649   6.571   1.899  2.3297  1.3573  1.6328
 5368SOL    HW217004   1.557   6.704   1.925 -2.2232 -1.1692 -0.4148
 5369SOL     OW17005   2.177   3.002   1.805 -0.2268  0.3616 -0.0489
 5369SOL    HW117006   2.176   3.091   1.851 -0.7377 -0.5173  1.6938
 5369SOL    HW217007   2.087   2.960   1.812  0.1598 -0.5468 -0.3996
 5370SOL     OW17008   2.939   3.160   1.778  0.2796  0.6860 -0.3777
 5370SOL    HW117009   3.013   3.094   1.791 -0.4059  0.1486  0.9963
 5370SOL    HW217010   2.859   3.112   1.742 -0.1637  0.7969  0.4518
 5371SOL     OW17011   1.484   5.374   5.575 -0.3443  0.0965 -0.1426
 5371SOL    HW117012   1.487   5.277   5.551  0.6920  0.2480 -0.7143
 5371SOL    HW217013   1.563   5.420   5.533 -1.6362  1.4739 -1.1448
 5372SOL     OW17014   4.930   6.358   1.047 -0.0634  0.2482  0.1341
 5372SOL    HW117015   5.017   6.395   1.014  0.0317 -0.5029 -0.4617
 5372SOL    HW217016   4.942   6.322   1.140 -0.3566  2.4618  1.0984
 5373SOL     OW17017   3.557   6.027   4.136  0.2412  0.2409 -0.6384
 5373SOL    HW117018   3.507   6.103   4.095 -0.3917  0.0492 -0.2390
 5373SOL    HW217019   3.654   6.048   4.139 -0.0257  1.4325  0.3075
 5374SOL     OW17020   2.278   3.570   6.987 -0.6063 -0.2243  0.1514
 5374SOL    HW117021   2.369   3.613   6.983 -1.0521  1.1939  2.8256
 5374SOL    HW217022   2.240   3.563   6.895  1.2830  1.2437 -0.8050
 5375SOL     OW17023   0.730   3.989   4.746  0.4163  0.2706  0.7097
 5375SOL    HW117024   0.701   4.002   4.651 -0.6676  0.3363  1.0457
 5375SOL    HW217025   0.829   3.970   4.748  0.0368 -2.2413 -0.6319
 5376SOL     OW17026   1.611   5.802   5.204 -0.2059  0.2751 -0.6419
 5376SOL    HW117027   1.572   5.764   5.119  0.1762  1.3192 -1.3011
 5376SOL    HW217028   1.538   5.816   5.270 -0.7194  0.7037 -1.2833
 5377SOL     OW17029   0.774   3.619   1.607 -0.0820  0.3305 -0.1933
 5377SOL    HW117030   0.856   3.568   1.632 -0.3516  0.6528  1.4656
 5377SOL    HW217031   0.693   3.566   1.632 -0.3865  2.0259  2.8289
 5378SOL     OW17032   4.962   0.206   5.283  0.5460 -0.0649 -0.1921
 5378SOL    HW117033   4.987   0.300   5.306 -1.2990  0.0270  1.7479
 5378SOL    HW217034   5.006   0.144   5.348  0.5735 -0.4170 -0.5479
 5379SOL     OW17035   7.013   1.700   1.256  0.0256 -0.0719  0.0904
 5379SOL    HW117036   7.067   1.675   1.176  0.9533  2.7555 -0.2445
 5379SOL    HW217037   6.917   1.713   1.228 -0.1512 -1.4757 -0.0344
 5380SOL     OW17038   2.871   6.936   5.184  0.3181 -0.0938 -0.5505
 5380SOL    HW117039   2.793   6.875   5.170 -0.4793  0.5170  1.0076
 5380SOL    HW217040   2.839   7.027   5.208  1.4813 -0.0279  0.9295
 5381SOL     OW17041   5.206   1.636   2.674 -0.0218 -0.7750  0.6299
 5381SOL    HW117042   5.255   1.563   2.722  0.4138 -2.2579 -1.8899
 5381SOL    HW217043   5.131   1.597   2.621 -0.6939  0.8370  0.3174
 5382SOL     OW17044   1.371   4.719   1.029  0.1407  0.0782 -0.8023
 5382SOL    HW117045   1.306   4.795   1.018  0.6466  0.7449  0.6141
 5382SOL    HW217046   1.442   4.745   1.095  1.2289 -1.0530 -1.4969
 5383SOL     OW17047   3.674   0.081   3.871 -0.0857 -0.6596 -0.4958
 5383SOL    HW117048   3.734   0.078   3.951  3.4873 -1.4600 -2.9797
 5383SOL    HW217049   3.683  -0.004   3.819 -3.1271 -0.6094 -1.2970
 5384SOL     OW17050   5.193   5.783   0.069  0.1765 -0.2876  0.4904
 5384SOL    HW117051   5.288   5.796   0.100 -0.0139 -1.1278  1.5002
 5384SOL    HW217052   5.190   5.782  -0.031  0.9739  1.4978  0.4180
 5385SOL     OW17053   4.116   3.363   2.423  0.1289 -0.4094 -0.7971
 5385SOL    HW117054   4.099   3.460   2.443 -2.4800 -0.5110 -2.0631
 5385SOL    HW217055   4.084   3.307   2.499  0.8197 -0.3521 -0.4503
 5386SOL     OW17056   0.664   5.023   0.226  0.9814 -0.6352 -0.4984
 5386SOL    HW117057   0.623   5.113   0.210 -1.9122 -1.9148 -0.8703
 5386SOL    HW217058   0.720   4.997   0.147  0.6419  0.2121 -1.0291
 5387SOL     OW17059   3.600   1.131   6.920 -0.2757 -0.7351 -0.3811
 5387SOL    HW117060   3.670   1.177   6.972 -1.3848 -0.4987  0.9509
 5387SOL    HW217061   3.600   1.033   6.942 -0.8439 -0.6107  0.2196
 5388SOL     OW17062   1.021   5.282   3.251 -0.5900  0.5461  0.2988
 5388SOL    HW117063   1.105   5.335   3.256 -1.0991  1.3652  0.3013
 5388SOL    HW217064   1.027   5.216   3.176  0.6323 -0.4497  1.2175
 5389SOL     OW17065   6.345   3.546   6.397  0.0573 -0.8954 -0.3724
 5389SOL    HW117066   6.294   3.632   6.388  2.5192  0.6216 -0.7581
 5389SOL    HW217067   6.394   3.545   6.484 -2.1163 -3.2579  0.9559
 5390SOL     OW17068   1.734   4.927   6.797  0.5827 -0.0999 -0.2683
 5390SOL    HW117069   1.742   5.002   6.863  0.6814 -0.2446 -0.1148
 5390SOL    HW217070   1.748   4.840   6.844 -0.4678 -0.2812 -0.2638
 5391SOL     OW17071   5.531   5.356   6.562  0.2898 -0.5926 -0.2588
 5391SOL    HW117072   5.461   5.387   6.497  0.5025 -1.1196 -0.7508
 5391SOL    HW217073   5.541   5.257   6.555  0.6386 -0.5963  0.2579
 5392SOL     OW17074   1.812   3.847   2.261 -0.2392  0.1043 -0.1432
 5392SOL    HW117075   1.810   3.747   2.256  0.9393  0.0639 -0.2497
 5392SOL    HW217076   1.742   3.879   2.324 -0.4124 -0.8151  0.1475
 5393SOL     OW17077   6.831   6.899   5.669  0.2539 -0.0951  0.4342
 5393SOL    HW117078   6.895   6.916   5.594 -1.4035  1.2078 -0.7889
 5393SOL    HW217079   6.779   6.816   5.651 -0.8726  0.7655 -0.4696
 5394SOL     OW17080   2.744   4.849   5.982  0.0034 -0.0116  0.0924
 5394SOL    HW117081   2.755   4.924   6.046 -2.0763  0.6487 -0.2689
 5394SOL    HW217082   2.649   4.843   5.952  0.5821 -1.3242 -1.6881
 5395SOL     OW17083   4.646   0.300   1.524  0.9662  0.2618 -0.4163
 5395SOL    HW117084   4.607   0.208   1.516 -0.2713  0.7541 -0.3858
 5395SOL    HW217085   4.576   0.362   1.559  0.6857  1.8833 -3.4635
 5396SOL     OW17086   6.052   1.703   0.974 -0.4824 -0.1186  0.2634
 5396SOL    HW117087   6.082   1.608   0.962 -0.0247  0.0781 -0.2058
 5396SOL    HW217088   5.957   1.705   1.004 -0.3691 -0.7368  0.6815
 5397SOL     OW17089   0.318   2.109   2.850  0.3764 -0.4845 -0.0426
 5397SOL    HW117090   0.329   2.181   2.783 -0.1697 -0.6985 -0.3699
 5397SOL    HW217091   0.239   2.052   2.826 -1.1204  0.6581  1.8718
 5398SOL     OW17092   3.813   4.846   0.879 -0.3103 -0.0603  0.0985
 5398SOL    HW117093   3.839   4.942   0.870  1.0767 -0.4079  0.1934
 5398SOL    HW217094   3.733   4.839   0.939  0.2679  0.9551  1.0330
 5399SOL     OW17095   1.947   4.576   6.827 -0.6561 -0.2711 -0.2508
 5399SOL    HW117096   1.953   4.664   6.780 -0.0149 -0.3347 -0.2856
 5399SOL    HW217097   2.036   4.550   6.862 -0.8748 -0.8364 -0.0997
 5400SOL     OW17098   3.470   5.784   6.369  0.6347  0.4710  0.2946
 5400SOL    HW117099   3.439   5.876   6.346 -1.1017 -0.1715 -0.1379
 5400SOL    HW217100   3.570   5.781   6.371  0.7628  1.9674 -1.3614
 5401SOL     OW17101   0.677   0.754   0.473  0.0876  0.2438 -0.0276
 5401SOL    HW117102   0.715   0.717   0.388  1.3105  0.4441  0.4163
 5401SOL    HW217103   0.652   0.679   0.534 -1.4833  0.0760 -0.8284
 5402SOL     OW17104   0.506   5.386   2.056  0.1549  0.0775  0.5177
 5402SOL    HW117105   0.541   5.381   2.150  1.8617  0.0225 -0.0834
 5402SOL    HW217106   0.569   5.440   2.000  0.2339 -1.5522 -1.0473
 5403SOL     OW17107   0.857   0.978   6.973 -0.3692 -0.3290 -0.3096
 5403SOL    HW117108   0.761   0.987   6.944 -0.9062 -0.4470  1.3432
 5403SOL    HW217109   0.888   1.066   7.008 -0.2389 -0.5876  0.2226
 5404SOL     OW17110   1.382   2.939   3.289 -0.0542  0.5256 -0.3581
 5404SOL    HW117111   1.443   2.885   3.231  0.8056  0.9848  0.0945
 5404SOL    HW217112   1.419   3.032   3.299  0.3886  0.1738  1.7700
 5405SOL     OW17113   6.096   4.738   6.620 -0.8371 -0.3214  0.2941
 5405SOL    HW117114   6.079   4.826   6.576  0.8216 -0.1782 -0.1282
 5405SOL    HW217115   6.019   4.715   6.679 -1.9250  0.7405 -0.6518
 5406SOL     OW17116   3.076   0.182   3.170 -0.3450 -0.2904 -0.3276
 5406SOL    HW117117   3.075   0.082   3.165 -1.6389 -0.2366 -1.9641
 5406SOL    HW217118   3.000   0.219   3.116  0.7372  1.6238 -0.6252
 5407SOL     OW17119   4.539   1.986   6.193  0.1308  0.4615  0.1547
 5407SOL    HW117120   4.636   1.963   6.183  0.3124  1.9780 -2.6248
 5407SOL    HW217121   4.486   1.938   6.124 -0.8519  1.0229  0.4959
 5408SOL     OW17122   3.312   0.047   6.943 -0.0249 -0.0723 -0.4356
 5408SOL    HW117123   3.286  -0.011   6.866  0.3628  0.9639 -1.3735
 5408SOL    HW217124   3.272   0.011   7.027 -2.0592 -0.1601 -1.3930
 5409SOL     OW17125   3.068   6.664   1.425  0.2308 -0.1351  0.7695
 5409SOL    HW117126   3.044   6.668   1.328  2.0782 -2.4565  0.1223
 5409SOL    HW217127   3.053   6.754   1.467 -3.7073  0.1468 -0.8104
 5410SOL     OW17128   1.121   1.474   3.104  0.1385 -0.7337 -0.4169
 5410SOL    HW117129   1.102   1.556   3.049 -0.4030 -0.4078  0.2444
 5410SOL    HW217130   1.080   1.394   3.060  0.2802 -0.5808 -0.8315
 5411SOL     OW17131   3.781   5.643   4.928  0.4112  0.1047 -0.0411
 5411SOL    HW117132   3.851   5.625   4.998  0.6802 -1.3805 -0.6670
 5411SOL    HW217133   3.723   5.563   4.917  1.6658 -0.5033 -2.9666
 5412SOL     OW17134   6.730   1.672   0.978  0.1114 -0.7248 -0.2500
 5412SOL    HW117135   6.700   1.711   1.065  1.7391  0.6823 -0.2485
 5412SOL    HW217136   6.665   1.697   0.906 -0.5341 -0.7434  0.3132
 5413SOL     OW17137   2.837   5.902   2.773  0.1021  0.1919 -0.2531
 5413SOL    HW117138   2.844   5.862   2.682  0.0665  0.7976 -0.5280
 5413SOL    HW217139   2.917   5.878   2.827 -0.4116 -1.1220 -0.0557
 5414SOL     OW17140   4.674   6.903   0.101  0.2519 -0.1642 -0.2988
 5414SOL    HW117141   4.727   6.978   0.140 -0.1901 -0.7114  1.4602
 5414SOL    HW217142   4.676   6.824   0.163 -1.0076 -0.8782 -1.0997
 5415SOL     OW17143   5.667   4.437   2.817 -0.0281  0.2512  0.2258
 5415SOL    HW117144   5.600   4.432   2.742 -0.4820  0.1697  0.6272
 5415SOL    HW217145   5.759   4.444   2.780 -0.1292 -1.2343 -0.3490
 5416SOL     OW17146   3.403   6.388   6.361 -0.0397  0.1976  0.5198
 5416SOL    HW117147   3.423   6.361   6.266 -0.1274 -0.6481  0.7303
 5416SOL    HW217148   3.488   6.411   6.408  0.0308  0.3743  0.3077
 5417SOL     OW17149   1.339   6.382   5.810 -0.7455 -0.3687 -0.3026
 5417SOL    HW117150   1.281   6.460   5.787 -0.0143  0.0581 -0.7485
 5417SOL    HW217151   1.419   6.413   5.861  0.2783 -0.6169 -1.7009
 5418SOL     OW17152   3.818   1.419   4.563  0.4400 -0.3420  0.3664
 5418SOL    HW117153   3.844   1.484   4.635  0.3820  0.4931 -0.3455
 5418SOL    HW217154   3.737   1.368   4.591 -0.6563  1.2418  0.1748
 5419SOL     OW17155   3.078   4.686   6.696  0.2900 -0.2780  0.7085
 5419SOL    HW117156   3.002   4.627   6.722  1.3795 -1.6985  0.7518
 5419SOL    HW217157   3.148   4.686   6.768  0.8492  0.1108  0.1851
 5420SOL     OW17158   2.222   2.820   2.264  0.1745  0.6755 -0.4390
 5420SOL    HW117159   2.128   2.832   2.232  0.1623  0.5702 -0.4431
 5420SOL    HW217160   2.272   2.764   2.199  0.1747  0.5369 -0.3211
 5421SOL     OW17161   2.433   4.757   0.268  0.3772  0.1913  0.5429
 5421SOL    HW117162   2.476   4.683   0.217  2.4469  0.5077  1.6777
 5421SOL    HW217163   2.339   4.771   0.236  0.5995 -1.5760 -1.0334
 5422SOL     OW17164   7.000   3.194   1.645 -0.1240  0.2316  0.0842
 5422SOL    HW117165   6.928   3.208   1.576  0.6521  1.0501 -0.5928
 5422SOL    HW217166   6.961   3.203   1.736 -0.6214  2.2788 -0.2721
 5423SOL     OW17167   2.970   3.511   5.847 -0.0760  0.2144 -0.1987
 5423SOL    HW117168   3.048   3.527   5.788  0.8920 -0.1854  0.9286
 5423SOL    HW217169   2.915   3.595   5.854 -0.2289  0.2570 -1.6374
 5424SOL     OW17170   0.603   3.168   5.084  0.1430  0.4259  0.6988
 5424SOL    HW117171   0.693   3.167   5.040 -1.1012  0.4475 -2.0042
 5424SOL    HW217172   0.599   3.094   5.152  1.1277 -1.7509 -1.4687
 5425SOL     OW17173   6.723   1.575   5.938  0.0095  0.2434  0.0556
 5425SOL    HW117174   6.730   1.665   5.982 -0.6768  0.0978  0.4873
 5425SOL    HW217175   6.626   1.549   5.932  0.2818 -1.4274  1.9482
 5426SOL     OW17176   6.349   0.443   4.091  0.5236  0.1614  0.3029
 5426SOL    HW117177   6.284   0.399   4.153  0.0960 -1.2306 -1.0686
 5426SOL    HW217178   6.441   0.438   4.131  0.6852 -3.0427 -0.2326
 5427SOL     OW17179   3.984   5.872   6.630  0.2093  0.1184  0.4686
 5427SOL    HW117180   4.021   5.864   6.723  0.5770  1.0451  0.4164
 5427SOL    HW217181   3.973   5.969   6.607 -0.3649 -0.1105 -0.2702
 5428SOL     OW17182   1.000   0.402   5.522 -0.1776  0.5796 -0.3444
 5428SOL    HW117183   0.980   0.371   5.429 -0.4422  0.0941 -0.1268
 5428SOL    HW217184   1.076   0.467   5.520 -0.1555  0.5396 -0.8942
 5429SOL     OW17185   1.810   1.789   1.065 -0.0503 -0.2565  0.0875
 5429SOL    HW117186   1.721   1.753   1.038 -0.3933  0.4709  0.2429
 5429SOL    HW217187   1.830   1.872   1.014  0.6854 -0.5766 -0.1727
 5430SOL     OW17188   2.991   2.461   6.501 -0.3317  0.6105  0.8587
 5430SOL    HW117189   2.891   2.465   6.496 -0.3554  0.0296  0.8031
 5430SOL    HW217190   3.021   2.482   6.595 -0.5705 -0.2623  1.1366
 5431SOL     OW17191   4.904   6.233   3.818 -0.9071  0.1490 -0.5878
 5431SOL    HW117192   4.940   6.254   3.909 -1.6693 -1.8323  0.2235
 5431SOL    HW217193   4.978   6.199   3.761 -0.8802 -1.1699  0.1766
 5432SOL     OW17194   0.383   4.332   0.309 -0.2151 -0.1208 -0.3712
 5432SOL    HW117195   0.331   4.402   0.260 -1.6091  0.3929  1.7049
 5432SOL    HW217196   0.477   4.364   0.323 -0.6200  1.0002 -0.1399
 5433SOL     OW17197   2.057   1.058   0.850  0.2485  0.3720  0.3403
 5433SOL    HW117198   2.123   1.093   0.915  1.0500 -1.0045  0.3128
 5433SOL    HW217199   2.073   0.960   0.835 -0.4283  0.4659 -1.2980
 5434SOL     OW17200   6.842   6.695   6.437 -0.0495 -0.3438 -0.6744
 5434SOL    HW117201   6.789   6.767   6.393  0.9500  1.4170  0.8520
 5434SOL    HW217202   6.903   6.653   6.370  1.3069  2.1328 -1.1055
 5435SOL     OW17203   3.466   1.349   0.816 -0.2336  0.0595  0.5343
 5435SOL    HW117204   3.414   1.354   0.902 -0.9975  0.7794  0.0525
 5435SOL    HW217205   3.513   1.436   0.802  0.2144 -0.2000  0.4134
 5436SOL     OW17206   4.150   5.133   4.190  0.2317 -0.2639 -0.0977
 5436SOL    HW117207   4.154   5.221   4.238 -2.4833 -1.3038  2.3509
 5436SOL    HW217208   4.231   5.079   4.213  1.0231  0.8863 -0.1248
 5437SOL     OW17209   3.555   3.842   5.756 -0.3707  0.0147 -0.8277
 5437SOL    HW117210   3.468   3.883   5.785  0.3997  0.6974  0.5572
 5437SOL    HW217211   3.631   3.885   5.804  0.4849 -3.2660  1.0197
 5438SOL     OW17212   6.609   1.077   1.558  0.1211 -0.3287  0.3982
 5438SOL    HW117213   6.687   1.103   1.616 -1.0158 -0.1707  1.9352
 5438SOL    HW217214   6.556   1.006   1.605 -0.2588 -0.9591 -0.9571
 5439SOL     OW17215   2.386   1.157   6.969  0.1080  0.2066 -0.0650
 5439SOL    HW117216   2.462   1.110   7.013  0.2029  2.0253  1.8426
 5439SOL    HW217217   2.402   1.255   6.968 -2.0574  0.6237  0.1186
 5440SOL     OW17218   3.562   0.052   1.922  0.0087  0.2592  0.3949
 5440SOL    HW117219   3.608   0.058   2.011  1.1622 -1.8540  0.0226
 5440SOL    HW217220   3.515  -0.036   1.915 -1.1597  0.9390 -0.6082
 5441SOL     OW17221   2.102   2.294   5.473 -0.4518  0.4588 -0.2868
 5441SOL    HW117222   2.155   2.378   5.479  0.5253 -0.1210 -0.5266
 5441SOL    HW217223   2.053   2.279   5.559  0.6452  0.4585  0.3530
 5442SOL     OW17224   3.496   0.201   1.715 -0.5084 -0.2328 -0.2702
 5442SOL    HW117225   3.528   0.144   1.791  3.2280 -0.3296 -1.6898
 5442SOL    HW217226   3.400   0.183   1.698 -0.4880 -3.0901  1.9059
 5443SOL     OW17227   0.681   5.195   5.676  0.2583  0.0560  0.1007
 5443SOL    HW117228   0.709   5.159   5.587 -0.6244 -0.2721 -0.0578
 5443SOL    HW217229   0.668   5.119   5.740  0.2282  0.2388  0.3142
 5444SOL     OW17230   0.807   1.917   4.641 -0.6481 -0.3175  0.4935
 5444SOL    HW117231   0.866   1.858   4.695  1.0385 -0.1935 -1.1255
 5444SOL    HW217232   0.789   1.875   4.552 -1.3944  0.5389  0.2207
 5445SOL     OW17233   5.711   3.277   2.689  0.3341  0.3764 -0.3173
 5445SOL    HW117234   5.616   3.299   2.665  0.4392  2.0378  0.6650
 5445SOL    HW217235   5.711   3.219   2.771  0.1808  0.3813 -0.3126
 5446SOL     OW17236   0.232   5.912   0.494 -0.0473  0.4131 -0.5913
 5446SOL    HW117237   0.164   5.915   0.567 -0.2148  0.9973 -0.7611
 5446SOL    HW217238   0.285   5.828   0.501 -0.3622  0.2514 -0.0708
 5447SOL     OW17239   4.322   2.341   0.249  0.1794  0.0801  0.6856
 5447SOL    HW117240   4.322   2.375   0.155  1.1162 -1.5099  0.0868
 5447SOL    HW217241   4.248   2.275   0.260  0.9200 -0.7647  0.6655
 5448SOL     OW17242   6.857   2.173   0.754  0.0413 -0.8655  0.2707
 5448SOL    HW117243   6.860   2.100   0.823 -0.0937  0.4421  1.7097
 5448SOL    HW217244   6.908   2.144   0.673  2.2374 -1.5865  1.8052
 5449SOL     OW17245   1.153   1.749   0.888 -0.3091 -0.0960 -0.3240
 5449SOL    HW117246   1.117   1.813   0.956  1.4006  0.5211  0.0528
 5449SOL    HW217247   1.077   1.709   0.837 -1.4615  3.5545 -1.8205
 5450SOL     OW17248   1.514   6.021   1.453 -0.3097  0.1932 -0.1647
 5450SOL    HW117249   1.501   5.965   1.372  2.5447 -1.2850  0.2669
 5450SOL    HW217250   1.439   6.004   1.518 -0.9981 -0.9415 -1.2087
 5451SOL     OW17251   2.214   0.407   1.142 -0.4407  0.1169  0.2105
 5451SOL    HW117252   2.180   0.414   1.236 -0.9679 -2.3981  0.2868
 5451SOL    HW217253   2.314   0.404   1.143 -0.4456  0.0151  0.7031
 5452SOL     OW17254   4.952   3.842   5.418 -0.0268 -0.0065 -0.2582
 5452SOL    HW117255   4.961   3.743   5.430 -0.9104  0.0533  1.2888
 5452SOL    HW217256   4.883   3.862   5.349  0.2051 -0.4743 -0.6231
 5453SOL     OW17257   5.063   4.725   5.071  0.4176 -0.0430 -0.1297
 5453SOL    HW117258   5.039   4.681   4.984 -1.9844  1.8148 -0.5518
 5453SOL    HW217259   5.073   4.824   5.056  1.0307  0.1751  1.5234
 5454SOL     OW17260   0.496   3.526   5.401  0.0212  0.3069 -0.1002
 5454SOL    HW117261   0.485   3.625   5.392  1.6025  0.7596  2.0998
 5454SOL    HW217262   0.506   3.486   5.310  2.1449  2.5594 -0.9864
 5455SOL     OW17263   6.127   2.068   0.939 -0.3433  0.5001  0.4780
 5455SOL    HW117264   6.216   2.047   0.981  0.2444  0.1881 -0.8611
 5455SOL    HW217265   6.106   2.164   0.953  0.0845  0.5263  1.0152
 5456SOL     OW17266   3.887   5.896   2.170  0.1237 -0.7414 -0.4655
 5456SOL    HW117267   3.944   5.977   2.187  2.2177 -2.1327 -0.3635
 5456SOL    HW217268   3.800   5.923   2.130 -0.5069  1.8027  2.2695
 5457SOL     OW17269   3.806   2.312   1.400 -0.4262 -0.2909  0.6335
 5457SOL    HW117270   3.748   2.239   1.364  0.8291 -1.7506  1.4038
 5457SOL    HW217271   3.819   2.298   1.498  0.3859  0.5812  0.6590
 5458SOL     OW17272   0.533   5.736   5.709 -0.0263 -0.2844 -0.8465
 5458SOL    HW117273   0.606   5.672   5.685  2.2404  1.3864  1.0666
 5458SOL    HW217274   0.548   5.823   5.662  0.1205  0.5513  0.6795
 5459SOL     OW17275   2.035   4.269   6.536 -0.4012  0.2095 -0.2189
 5459SOL    HW117276   2.108   4.202   6.548  0.2629  1.0044  0.3304
 5459SOL    HW217277   2.070   4.360   6.557 -1.7451  0.5292  0.7945
 5460SOL     OW17278   5.485   1.136   6.345 -0.2151  0.0977 -0.0921
 5460SOL    HW117279   5.427   1.127   6.426 -0.7157  0.3394 -0.4223
 5460SOL    HW217280   5.511   1.232   6.333 -0.7859  0.1838 -0.6634
 5461SOL     OW17281   2.735   6.233   5.035 -0.6711  0.0068 -0.0096
 5461SOL    HW117282   2.652   6.177   5.032 -0.4422 -0.2812 -1.2643
 5461SOL    HW217283   2.754   6.270   4.945 -0.7414  2.0501  0.7638
 5462SOL     OW17284   0.443   1.535   1.664  0.0403 -0.1647  0.3828
 5462SOL    HW117285   0.407   1.609   1.606  0.6369  0.1590  0.4194
 5462SOL    HW217286   0.374   1.463   1.671 -0.3186  0.1131 -0.1442
 5463SOL     OW17287   6.265   3.351   1.269 -0.1245  0.1591  0.3381
 5463SOL    HW117288   6.250   3.405   1.352 -1.5603 -1.0586  0.9076
 5463SOL    HW217289   6.288   3.412   1.193  1.7595  1.2543  1.7193
 5464SOL     OW17290   1.618   6.543   5.507 -0.0616 -0.4553  0.1639
 5464SOL    HW117291   1.650   6.629   5.467 -0.5546 -0.5103 -0.3677
 5464SOL    HW217292   1.570   6.562   5.593  0.3264 -0.2570  0.3375
 5465SOL     OW17293   1.170   4.913   6.284 -0.1922  0.3563  0.1996
 5465SOL    HW117294   1.088   4.875   6.326 -0.1314 -0.9036 -0.7566
 5465SOL    HW217295   1.251   4.881   6.333 -0.1674 -0.3382 -0.2851
 5466SOL     OW17296   5.097   4.053   4.498  0.4023 -0.2287 -0.1679
 5466SOL    HW117297   5.173   3.988   4.505  0.7463  0.2715  0.9111
 5466SOL    HW217298   5.111   4.113   4.420  0.7993 -0.5387 -0.3386
 5467SOL     OW17299   6.137   0.798   0.016 -0.0729 -0.5600  0.2949
 5467SOL    HW117300   6.218   0.759   0.061 -0.7876 -4.0862 -1.1171
 5467SOL    HW217301   6.066   0.815   0.084  1.3607  1.4259  1.3873
 5468SOL     OW17302   4.382   2.569   5.346 -0.5417 -0.2052  0.3761
 5468SOL    HW117303   4.454   2.630   5.377  1.0599 -0.2310 -2.9102
 5468SOL    HW217304   4.295   2.618   5.342  0.1830  1.0948  0.3081
 5469SOL     OW17305   6.917   5.996   1.774 -0.4513 -0.1776  0.5936
 5469SOL    HW117306   6.906   6.091   1.800  1.0898 -0.1269  1.1506
 5469SOL    HW217307   6.830   5.961   1.738 -0.3124  2.3319 -2.6677
 5470SOL     OW17308   0.552   3.701   3.342  0.1551  0.1248  0.0061
 5470SOL    HW117309   0.472   3.738   3.295  1.3035 -0.2159 -2.3453
 5470SOL    HW217310   0.576   3.760   3.420 -0.5813  1.9082 -1.0666
 5471SOL     OW17311   5.837   3.983   2.431  0.2839 -0.6058  0.0628
 5471SOL    HW117312   5.888   3.940   2.506 -0.8015 -0.0435  1.1659
 5471SOL    HW217313   5.775   3.917   2.390  0.3846 -0.7319  0.1131
 5472SOL     OW17314   2.035   4.830   5.661  0.5910 -0.3695 -0.1408
 5472SOL    HW117315   2.107   4.834   5.592  1.0583  0.5087  0.3766
 5472SOL    HW217316   1.966   4.899   5.642  1.7287  1.2650  1.3180
 5473SOL     OW17317   3.967   5.517   2.874 -0.3388 -0.3538  0.2055
 5473SOL    HW117318   4.027   5.490   2.799 -0.6028 -0.6034  0.0833
 5473SOL    HW217319   3.962   5.442   2.940 -0.5690 -0.3578  0.1835
 5474SOL     OW17320   2.870   5.741   2.134  0.0914 -0.2501 -0.5297
 5474SOL    HW117321   2.838   5.821   2.184 -0.1637  0.8521 -2.3682
 5474SOL    HW217322   2.969   5.733   2.144  0.0564 -0.0007  0.0619
 5475SOL     OW17323   4.649   6.913   4.202  0.0140 -0.1628  1.1790
 5475SOL    HW117324   4.604   6.914   4.292 -0.4535 -0.1313  0.9486
 5475SOL    HW217325   4.719   6.842   4.201 -0.8180 -1.0059  1.1710
 5476SOL     OW17326   1.183   4.059   6.668 -0.6140  0.2416  0.1707
 5476SOL    HW117327   1.125   4.060   6.749 -0.1954 -0.0932  0.4821
 5476SOL    HW217328   1.130   4.086   6.588 -0.9975  0.7244  0.5793
 5477SOL     OW17329   1.977   2.753   3.035 -0.2260 -0.2873  0.4208
 5477SOL    HW117330   1.982   2.667   2.983  1.3358 -0.1852  0.3422
 5477SOL    HW217331   1.999   2.829   2.974 -0.9989  0.1212  0.6388
 5478SOL     OW17332   6.925   5.747   4.343 -0.2139  0.4270 -0.0876
 5478SOL    HW117333   6.891   5.657   4.318 -1.0982  0.8243 -0.3414
 5478SOL    HW217334   6.952   5.796   4.260  1.6941 -0.1441  0.1507
 5479SOL     OW17335   5.439   0.831   6.243 -0.4809 -0.1615  0.0557
 5479SOL    HW117336   5.492   0.915   6.259 -0.2920  0.0373 -1.4614
 5479SOL    HW217337   5.480   0.757   6.295  0.4079  0.3270  0.0879
 5480SOL     OW17338   1.109   0.280   5.760  0.3400 -0.6130  0.0347
 5480SOL    HW117339   1.065   0.191   5.775 -0.0930 -0.7128 -1.5777
 5480SOL    HW217340   1.053   0.334   5.697  0.1314  1.1962  1.6841
 5481SOL     OW17341   4.812   6.910   0.450  0.1727  0.2027  0.2245
 5481SOL    HW117342   4.840   6.983   0.386  0.7959 -0.7542 -0.6267
 5481SOL    HW217343   4.712   6.913   0.461 -0.1456 -0.4522 -1.9071
 5482SOL     OW17344   3.664   5.913   2.028  0.4078 -0.0138 -0.0891
 5482SOL    HW117345   3.681   5.815   2.027 -0.6732 -0.2148 -1.1717
 5482SOL    HW217346   3.647   5.946   1.935  1.4107  1.3358  0.1660
 5483SOL     OW17347   1.343   3.121   5.452 -0.1652  0.6617  0.7617
 5483SOL    HW117348   1.339   3.143   5.354 -0.7020 -0.3237  0.5445
 5483SOL    HW217349   1.424   3.163   5.492  1.0874 -0.4345 -0.5042
 5484SOL     OW17350   6.074   6.811   4.211  0.3394 -0.2364  0.3641
 5484SOL    HW117351   6.088   6.721   4.170 -0.0444 -0.4333  0.6569
 5484SOL    HW217352   6.041   6.799   4.305 -1.8653  0.2066 -0.3077
 5485SOL     OW17353   4.882   1.481   5.103 -0.8569  0.7753  0.1208
 5485SOL    HW117354   4.827   1.427   5.167  0.5796  0.9116  1.5059
 5485SOL    HW217355   4.824   1.509   5.026 -2.2947 -0.4850  0.6901
 5486SOL     OW17356   2.417   5.447   2.101  0.3538  0.0140 -0.6253
 5486SOL    HW117357   2.496   5.482   2.151 -0.3988  0.1902  0.4669
 5486SOL    HW217358   2.430   5.464   2.003  2.1877 -1.0180 -0.6002
 5487SOL     OW17359   2.193   4.921   5.450 -0.0671  0.0095 -0.1313
 5487SOL    HW117360   2.122   4.955   5.388  0.1018  0.0522 -0.3044
 5487SOL    HW217361   2.226   4.832   5.417 -0.1354 -0.0718  0.0226
 5488SOL     OW17362   4.752   3.061   5.148  0.5173 -0.6845 -0.7082
 5488SOL    HW117363   4.704   3.132   5.198 -0.1676 -1.5030 -0.1770
 5488SOL    HW217364   4.849   3.061   5.174  0.6051  0.2855 -1.0041
 5489SOL     OW17365   0.049   2.699   3.971 -0.2423  0.5065 -0.2117
 5489SOL    HW117366   0.031   2.616   4.024 -0.9889  0.3885 -0.6345
 5489SOL    HW217367  -0.004   2.696   3.886  1.7577  0.1762 -1.4948
 5490SOL     OW17368   0.914   5.171   0.892 -0.3917  0.0784 -0.1182
 5490SOL    HW117369   0.909   5.072   0.907 -0.9458  0.1864  0.4497
 5490SOL    HW217370   0.907   5.190   0.794  0.0887 -0.4619 -0.2616
 5491SOL     OW17371   1.687   2.996   5.784 -0.0900 -0.3802  0.4779
 5491SOL    HW117372   1.626   2.918   5.771  1.5668 -1.9608  1.6026
 5491SOL    HW217373   1.665   3.042   5.871 -1.7250  1.1255 -0.6553
 5492SOL     OW17374   2.642   4.222   0.454 -0.4330  0.8283  0.1962
 5492SOL    HW117375   2.578   4.146   0.444 -1.4733  1.6569  0.4059
 5492SOL    HW217376   2.717   4.195   0.514 -0.4735 -0.2213 -0.2079
 5493SOL     OW17377   4.544   3.562   5.648 -0.5618 -0.2129  0.2936
 5493SOL    HW117378   4.445   3.576   5.654 -0.8012 -0.6393 -1.8111
 5493SOL    HW217379   4.572   3.490   5.711 -1.1748  1.4762  2.6274
 5494SOL     OW17380   5.360   1.579   4.913  0.1120 -0.1707 -0.3245
 5494SOL    HW117381   5.273   1.597   4.959  0.3274 -0.3189  0.1488
 5494SOL    HW217382   5.393   1.664   4.872  0.2583  0.1300  0.3968
 5495SOL     OW17383   5.793   0.991   0.906 -0.2317  0.6959  0.6088
 5495SOL    HW117384   5.806   1.014   0.810  0.9350 -4.8981 -0.9023
 5495SOL    HW217385   5.880   1.001   0.955  0.4096 -0.8408 -0.1596
 5496SOL     OW17386   4.803   6.050   5.609 -0.1400  0.1638  0.2804
 5496SOL    HW117387   4.765   5.958   5.619 -0.2526  0.0895 -0.7706
 5496SOL    HW217388   4.732   6.117   5.630 -0.2416  0.0218  0.3994
 5497SOL     OW17389   0.836   6.826   5.795 -0.2620  0.4824 -0.4016
 5497SOL    HW117390   0.905   6.832   5.867  1.4345 -1.4406 -1.7721
 5497SOL    HW217391   0.776   6.748   5.814 -2.3102  2.2329  0.8719
 5498SOL     OW17392   0.680   4.293   1.620 -0.4766  0.5434 -0.2218
 5498SOL    HW117393   0.637   4.377   1.586 -0.4147  0.9309  0.6368
 5498SOL    HW217394   0.768   4.315   1.662 -2.3037  0.7830  3.9617
 5499SOL     OW17395   2.126   6.711   4.064  0.0203 -0.2911 -0.0139
 5499SOL    HW117396   2.062   6.728   4.140 -0.9385  0.2461 -0.9251
 5499SOL    HW217397   2.199   6.779   4.066 -0.3971  0.1561 -0.0029
 5500SOL     OW17398   0.988   4.702   2.467 -0.1611 -0.3532  0.3074
 5500SOL    HW117399   1.056   4.763   2.426  0.0505 -1.1139 -0.5252
 5500SOL    HW217400   0.903   4.752   2.480  0.0333  0.1524 -0.2627
 5501SOL     OW17401   5.731   3.959   6.409 -0.3250  0.0539 -0.3217
 5501SOL    HW117402   5.763   4.013   6.487 -1.0664  0.7336 -0.4669
 5501SOL    HW217403   5.702   3.869   6.440  0.0726  0.0542  0.0669
 5502SOL     OW17404   4.625   2.727   6.420 -0.7475  0.1916  0.0952
 5502SOL    HW117405   4.667   2.693   6.505 -1.3708 -0.7323  0.0563
 5502SOL    HW217406   4.583   2.816   6.437 -0.9976 -0.0499  0.8087
 5503SOL     OW17407   6.721   3.934   1.154  0.0293 -0.1238  0.0976
 5503SOL    HW117408   6.775   3.974   1.080 -0.0012 -0.6985 -0.2436
 5503SOL    HW217409   6.671   3.854   1.119  1.0134 -1.1742  1.0423
 5504SOL     OW17410   3.391   2.494   6.545 -0.1620  0.0430 -0.3608
 5504SOL    HW117411   3.345   2.466   6.461 -1.2437 -0.6372  0.4375
 5504SOL    HW217412   3.323   2.514   6.616  0.7417 -1.1682  0.9104
 5505SOL     OW17413   2.997   5.374   1.887  0.4061  0.3519  0.2025
 5505SOL    HW117414   3.041   5.451   1.933  0.0169 -0.1588  1.4530
 5505SOL    HW217415   3.067   5.313   1.850  0.7793 -0.0168  1.4562
 5506SOL     OW17416   1.590   3.824   0.190 -0.1358 -0.3465  0.4089
 5506SOL    HW117417   1.521   3.888   0.157 -0.2781  0.0860  1.5149
 5506SOL    HW217418   1.681   3.855   0.160 -0.2491  0.1163  0.5319
 5507SOL     OW17419   3.762   0.097   6.196  0.4953  0.2689 -0.4716
 5507SOL    HW117420   3.721   0.140   6.277  1.5263 -0.0588  0.2366
 5507SOL    HW217421   3.707   0.018   6.169  0.3208  0.1820  0.1147
 5508SOL     OW17422   5.547   2.869   4.765 -0.3139 -0.0837 -0.1699
 5508SOL    HW117423   5.513   2.784   4.805 -1.1294 -1.9918 -4.3698
 5508SOL    HW217424   5.470   2.929   4.745  0.1124  0.9696  1.1845
 5509SOL     OW17425   6.524   3.498   0.325 -0.4821 -0.0101  0.0799
 5509SOL    HW117426   6.482   3.454   0.404 -0.4973  0.0942  0.1297
 5509SOL    HW217427   6.616   3.530   0.349  0.0219 -1.1081 -0.3051
 5510SOL     OW17428   5.373   0.997   1.093 -0.1529  0.2334  0.7859
 5510SOL    HW117429   5.327   0.973   1.007 -1.2852  1.2174  1.0921
 5510SOL    HW217430   5.362   0.923   1.159  1.2296 -0.7893 -0.0750
 5511SOL     OW17431   0.822   3.276   5.314 -0.2214  0.8562 -0.4401
 5511SOL    HW117432   0.859   3.187   5.288 -0.9772  0.1200  0.9336
 5511SOL    HW217433   0.842   3.342   5.242  3.2225  0.3866 -0.0606
 5512SOL     OW17434   4.754   1.388   2.078 -0.0309 -0.6663 -0.0588
 5512SOL    HW117435   4.847   1.419   2.058 -0.8405  0.5289 -2.4327
 5512SOL    HW217436   4.703   1.462   2.124 -0.4024 -0.4626 -0.7735
 5513SOL     OW17437   2.070   4.092   5.164  0.4340 -0.5706 -0.2642
 5513SOL    HW117438   2.028   4.175   5.128  1.6063 -0.7399 -2.1618
 5513SOL    HW217439   2.162   4.082   5.127  1.0618 -1.7428  1.4426
 5514SOL     OW17440   4.940   0.952   0.655 -0.1543 -0.1175 -0.3556
 5514SOL    HW117441   4.918   0.872   0.600 -1.1792  0.5536 -0.9485
 5514SOL    HW217442   4.886   0.950   0.740  0.5445 -0.5394  0.0920
 5515SOL     OW17443   4.494   4.759   2.880 -0.0899 -0.1853  0.8267
 5515SOL    HW117444   4.523   4.744   2.974 -0.3260  1.0036  1.1074
 5515SOL    HW217445   4.430   4.687   2.853  1.8695 -1.9731  0.6976
 5516SOL     OW17446   2.109   1.448   0.377 -0.3513 -0.0831  0.6435
 5516SOL    HW117447   2.203   1.427   0.348  0.2865  0.2309  2.3852
 5516SOL    HW217448   2.081   1.535   0.337  0.5325  0.3754  0.9820
 5517SOL     OW17449   1.021   1.918   3.158 -0.1287 -0.1244 -0.0724
 5517SOL    HW117450   0.950   1.988   3.151 -0.3274 -0.3322 -0.1637
 5517SOL    HW217451   1.011   1.869   3.245 -0.6036 -0.6924 -0.4389
 5518SOL     OW17452   3.626   4.090   4.679 -0.3568 -0.1146 -0.6791
 5518SOL    HW117453   3.592   3.996   4.688  0.8960 -0.5561 -0.2346
 5518SOL    HW217454   3.713   4.088   4.629  0.5851  0.5885  0.8810
 5519SOL     OW17455   5.318   3.131   6.630 -0.0056  0.0575 -0.1880
 5519SOL    HW117456   5.220   3.149   6.635  0.1074  0.6348  0.0383
 5519SOL    HW217457   5.349   3.089   6.715 -0.3240 -1.5501 -0.8295
 5520SOL     OW17458   6.540   5.053   1.280  0.6413 -0.5142 -0.2971
 5520SOL    HW117459   6.627   5.097   1.255  0.0877  1.1563  0.5569
 5520SOL    HW217460   6.547   5.015   1.372  0.3119  0.1180 -0.0045
 5521SOL     OW17461   4.307   6.632   1.935  0.1050 -0.5037  0.1148
 5521SOL    HW117462   4.263   6.678   2.012 -1.3197 -1.2226 -0.2348
 5521SOL    HW217463   4.258   6.654   1.850  1.8544  0.5515 -0.6710
 5522SOL     OW17464   5.887   0.510   6.525 -0.2742  0.3747 -0.2515
 5522SOL    HW117465   5.957   0.579   6.544 -0.4258  0.1302  1.3187
 5522SOL    HW217466   5.916   0.453   6.448  1.2200  0.3356  0.3112
 5523SOL     OW17467   6.598   0.525   2.777 -0.4852 -0.2404  0.0449
 5523SOL    HW117468   6.548   0.540   2.692 -0.9777  1.3500  0.5828
 5523SOL    HW217469   6.613   0.612   2.823 -0.4476 -1.0845  1.7248
 5524SOL     OW17470   2.905   2.169   3.392  0.3015  0.0291 -0.4030
 5524SOL    HW117471   3.004   2.157   3.383  0.2857  0.6292 -1.5868
 5524SOL    HW217472   2.872   2.113   3.467  1.4780 -0.5105 -0.2586
 5525SOL     OW17473   6.616   1.211   6.822  0.1590  0.0003 -0.6021
 5525SOL    HW117474   6.534   1.260   6.792  0.3771 -0.3478 -1.8289
 5525SOL    HW217475   6.650   1.155   6.747  0.9692 -0.6125  0.2061
 5526SOL     OW17476   5.215   5.719   2.555 -0.0563 -0.0083  0.3805
 5526SOL    HW117477   5.277   5.780   2.604  1.6746 -0.1325 -1.5491
 5526SOL    HW217478   5.254   5.627   2.553  0.3976  0.1750 -1.9526
 5527SOL     OW17479   0.036   5.761   1.797  0.0305 -0.2000  0.0172
 5527SOL    HW117480   0.134   5.763   1.776  0.2905  1.7051  1.1759
 5527SOL    HW217481  -0.008   5.844   1.764 -0.5675  0.3782  2.0925
 5528SOL     OW17482   3.980   2.354   0.191 -0.2155 -0.0995  0.1511
 5528SOL    HW117483   3.999   2.445   0.152  0.2518  0.2040  1.0369
 5528SOL    HW217484   3.901   2.360   0.253 -0.4852 -0.4037 -0.1645
 5529SOL     OW17485   4.447   1.377   2.602 -0.8224  0.1990  0.2791
 5529SOL    HW117486   4.409   1.419   2.520 -1.1417  1.3490  0.9980
 5529SOL    HW217487   4.376   1.321   2.646  0.7003 -5.3646 -3.1836
 5530SOL     OW17488   1.713   2.400   5.025 -0.5754  0.3835 -0.4250
 5530SOL    HW117489   1.773   2.332   5.067 -0.6451 -0.1854 -1.2259
 5530SOL    HW217490   1.752   2.491   5.038 -0.0133  0.1100 -0.1406
 5531SOL     OW17491   1.043   2.967   0.452  0.2707  1.2717 -0.0397
 5531SOL    HW117492   1.026   2.884   0.399 -0.1649 -0.0863  2.0931
 5531SOL    HW217493   1.134   3.002   0.430  1.6222 -1.3450  0.8663
 5532SOL     OW17494   0.133   5.556   5.527  0.3691  0.2928  0.0541
 5532SOL    HW117495   0.213   5.609   5.497  0.2661  2.1348  2.6847
 5532SOL    HW217496   0.111   5.580   5.622 -4.6565  1.5626 -1.1686
 5533SOL     OW17497   3.210   0.838   4.826 -0.1033 -0.3871 -0.7616
 5533SOL    HW117498   3.123   0.839   4.776 -1.1914  0.4361  1.0380
 5533SOL    HW217499   3.212   0.916   4.889 -0.2867 -3.1136  2.8809
 5534SOL     OW17500   0.865   6.042   3.298 -0.3059  1.1281 -0.2517
 5534SOL    HW117501   0.917   6.049   3.384  0.1311 -0.3166 -0.3713
 5534SOL    HW217502   0.778   6.090   3.308  0.1302  1.7510  0.6951
 5535SOL     OW17503   1.701   1.534   2.279  0.2388  0.2000 -0.5218
 5535SOL    HW117504   1.766   1.478   2.228  0.6986 -0.8046  1.0947
 5535SOL    HW217505   1.668   1.484   2.359 -3.4336  0.1941 -1.8186
 5536SOL     OW17506   5.993   0.392   4.182 -0.0502  0.0675  0.0620
 5536SOL    HW117507   5.933   0.463   4.221 -3.3298 -2.3696 -0.0953
 5536SOL    HW217508   6.053   0.356   4.254 -2.7901 -1.2093  1.8940
 5537SOL     OW17509   2.763   0.320   2.411  0.8030  0.3469 -0.1091
 5537SOL    HW117510   2.768   0.405   2.464  1.5117 -0.3590  1.0160
 5537SOL    HW217511   2.823   0.327   2.331  1.3751  0.6774  0.3382
 5538SOL     OW17512   3.452   6.247   4.066  0.6674  0.1070  0.3644
 5538SOL    HW117513   3.357   6.253   4.038  1.1005  1.3478 -0.9693
 5538SOL    HW217514   3.467   6.302   4.148  0.2464 -0.0401  0.5378
 5539SOL     OW17515   2.322   4.055   0.902 -0.6892  0.0682 -0.1128
 5539SOL    HW117516   2.265   4.025   0.979 -0.0772  2.8026  1.5544
 5539SOL    HW217517   2.418   4.037   0.922 -0.3807  2.2525  0.5810
 5540SOL     OW17518   4.828   4.786   0.659  0.2432  0.2251  0.7914
 5540SOL    HW117519   4.737   4.772   0.697 -0.2749  1.0697 -0.0906
 5540SOL    HW217520   4.869   4.697   0.636 -1.5541 -0.1075 -1.4838
 5541SOL     OW17521   5.573   6.009   6.702 -0.7586  0.7077 -0.3916
 5541SOL    HW117522   5.646   5.996   6.635 -1.1431  0.9422 -0.8582
 5541SOL    HW217523   5.499   6.062   6.661 -0.2632  2.3784  0.7129
 5542SOL     OW17524   5.990   2.128   0.246  0.0417  0.3185 -0.1325
 5542SOL    HW117525   5.930   2.052   0.221  1.4539 -0.6005 -0.8907
 5542SOL    HW217526   5.937   2.213   0.247 -1.2595 -0.4430 -0.7572
 5543SOL     OW17527   0.301   3.497   3.531 -0.3997 -0.4985  0.0790
 5543SOL    HW117528   0.295   3.412   3.478 -2.6043  0.8052 -1.9240
 5543SOL    HW217529   0.225   3.502   3.595 -0.8291  0.3846 -0.4876
 5544SOL     OW17530   4.434   6.458   0.792 -0.0565  0.4376 -0.0873
 5544SOL    HW117531   4.523   6.462   0.836 -0.3701  1.3811  0.5056
 5544SOL    HW217532   4.376   6.392   0.840  0.4042 -0.4052 -0.6619
 5545SOL     OW17533   2.905   1.861   1.132  0.4693  0.1142 -0.5074
 5545SOL    HW117534   2.915   1.942   1.074  0.2861 -0.6750 -1.6676
 5545SOL    HW217535   2.930   1.884   1.227 -1.3519  2.0146 -0.4240
 5546SOL     OW17536   2.069   6.752   4.383 -0.0836  0.3343  0.4811
 5546SOL    HW117537   2.000   6.679   4.377 -0.2637  0.4909  0.6502
 5546SOL    HW217538   2.095   6.766   4.479 -0.1951  0.6303  0.4676
 5547SOL     OW17539   2.982   6.183   2.292 -0.4867 -0.2832 -0.1661
 5547SOL    HW117540   3.001   6.172   2.389 -1.0111 -0.4725 -0.0781
 5547SOL    HW217541   3.064   6.212   2.244  0.0265 -1.1402  0.1780
 5548SOL     OW17542   6.869   2.960   4.305  0.0224  0.3118  0.1778
 5548SOL    HW117543   6.816   2.910   4.373 -1.3275  0.3772 -0.7945
 5548SOL    HW217544   6.960   2.980   4.343  0.1929 -1.7874  1.0345
 5549SOL     OW17545   3.772   0.117   6.882  0.5309  0.2352  0.3847
 5549SOL    HW117546   3.701   0.101   6.813 -0.2108  0.5959  1.0463
 5549SOL    HW217547   3.733   0.103   6.973  2.0476 -2.4729  0.7354
 5550SOL     OW17548   3.924   5.008   1.573 -0.3909 -0.2618  0.2434
 5550SOL    HW117549   3.896   4.931   1.630  2.0310 -0.6971  0.9895
 5550SOL    HW217550   4.003   5.054   1.615 -1.2963  2.2059 -0.5605
 5551SOL     OW17551   0.405   0.548   3.268 -0.0378 -0.0177  0.1750
 5551SOL    HW117552   0.501   0.525   3.287 -0.2411 -0.4221  0.7489
 5551SOL    HW217553   0.380   0.630   3.320 -0.4286 -0.7902  1.2395
 5552SOL     OW17554   2.207   2.652   0.909 -0.2674 -0.2290 -0.1048
 5552SOL    HW117555   2.271   2.707   0.963 -1.3131  0.4248  0.5092
 5552SOL    HW217556   2.256   2.605   0.836  0.9929 -0.1972  0.6995
 5553SOL     OW17557   0.005   0.336   2.262 -0.4633  0.1515  0.2908
 5553SOL    HW117558   0.070   0.323   2.187  0.2637 -0.3411  0.9956
 5553SOL    HW217559  -0.053   0.255   2.271 -3.0551  1.5437 -2.0382
 5554SOL     OW17560   3.414   0.307   6.924 -0.2830 -0.1144 -0.5769
 5554SOL    HW117561   3.405   0.209   6.906  0.9315 -0.3211 -0.1575
 5554SOL    HW217562   3.331   0.341   6.969 -0.0488 -1.3032  0.7974
 5555SOL     OW17563   0.050   6.950   2.339 -0.0794 -0.0118  0.0172
 5555SOL    HW117564   0.047   6.854   2.365 -0.1983  0.5690  2.4079
 5555SOL    HW217565   0.137   6.990   2.368  0.2952  0.4389 -1.6594
 5556SOL     OW17566   6.381   0.953   0.315 -0.7175  0.1233 -0.3934
 5556SOL    HW117567   6.370   1.043   0.272 -0.0441  0.4908  0.1875
 5556SOL    HW217568   6.429   0.963   0.402  1.1982 -1.0230 -1.2594
 5557SOL     OW17569   4.319   1.584   3.750 -0.8125 -0.0061 -0.7916
 5557SOL    HW117570   4.399   1.568   3.692 -0.5423  0.0004 -0.4300
 5557SOL    HW217571   4.287   1.678   3.737 -0.6774  0.0343 -0.8403
 5558SOL     OW17572   5.787   4.014   6.725 -0.6159  0.4066  0.4322
 5558SOL    HW117573   5.695   3.998   6.761 -0.6166 -0.6800 -0.0287
 5558SOL    HW217574   5.855   3.982   6.791 -0.4820  2.6817  1.5139
 5559SOL     OW17575   2.404   0.102   0.274  0.2665 -0.3391  0.0284
 5559SOL    HW117576   2.497   0.066   0.280  0.2484 -0.1862  2.2402
 5559SOL    HW217577   2.351   0.070   0.352 -0.6021  2.0889  0.5218
 5560SOL     OW17578   1.375   2.632   4.336 -0.2583  0.2247 -0.4367
 5560SOL    HW117579   1.282   2.613   4.305 -0.1235 -0.1306 -0.6201
 5560SOL    HW217580   1.434   2.554   4.316 -0.2965 -0.2921  1.2488
 5561SOL     OW17581   3.352   4.650   1.415  0.3739  0.1298  0.4399
 5561SOL    HW117582   3.287   4.592   1.464  1.2209  0.0631  1.5464
 5561SOL    HW217583   3.426   4.593   1.379  0.5628  0.3635  0.4522
 5562SOL     OW17584   5.667   3.371   6.167  0.0353  0.4511  0.2545
 5562SOL    HW117585   5.581   3.387   6.119  1.1786 -2.4897 -3.2184
 5562SOL    HW217586   5.659   3.288   6.222  0.9152 -0.5493 -1.0730
 5563SOL     OW17587   5.542   4.066   2.069 -0.1795  0.2665  0.1262
 5563SOL    HW117588   5.624   4.021   2.104 -0.2053 -0.4911 -0.7707
 5563SOL    HW217589   5.543   4.067   1.970 -1.0518  0.6308  0.1071
 5564SOL     OW17590   4.734   1.691   2.523 -0.5356  0.0738 -0.4966
 5564SOL    HW117591   4.719   1.593   2.514 -1.1744  0.0135  0.9072
 5564SOL    HW217592   4.651   1.735   2.557  0.6868  0.5489  2.2329
 5565SOL     OW17593   1.383   0.392   4.526 -0.1214  0.4244  0.1000
 5565SOL    HW117594   1.398   0.455   4.603  1.8362 -0.5087  0.5454
 5565SOL    HW217595   1.471   0.374   4.481 -0.9138 -0.7302 -1.0205
 5566SOL     OW17596   3.352   5.574   0.015 -0.2659  0.0971  0.0140
 5566SOL    HW117597   3.388   5.653   0.065 -0.6927  0.1473  0.2552
 5566SOL    HW217598   3.385   5.575  -0.079  1.7554 -0.8019  0.6647
 5567SOL     OW17599   0.947   4.563   3.931 -0.2708 -0.2946  0.0508
 5567SOL    HW117600   0.866   4.563   3.989 -0.8240 -0.5189 -0.7095
 5567SOL    HW217601   0.923   4.595   3.839  0.7932  1.0044  0.1991
 5568SOL     OW17602   5.656   3.686   2.651  0.3498 -0.3267 -0.6541
 5568SOL    HW117603   5.666   3.615   2.581 -0.6244 -2.2106  1.0322
 5568SOL    HW217604   5.743   3.733   2.663  0.8701 -0.8158 -2.2161
 5569SOL     OW17605   4.047   1.191   5.394 -0.1333 -0.1693 -0.1163
 5569SOL    HW117606   4.032   1.289   5.385 -0.2673 -0.1548  0.2602
 5569SOL    HW217607   3.988   1.143   5.329  0.9160  0.0518 -1.2613
 5570SOL     OW17608   1.689   3.136   6.565  0.5944 -0.5418  0.2977
 5570SOL    HW117609   1.685   3.226   6.608  0.7055 -0.8816  1.0291
 5570SOL    HW217610   1.768   3.085   6.599  2.1553  0.0944 -2.1595
 5571SOL     OW17611   0.486   3.788   1.165 -0.0996  0.2099  0.1519
 5571SOL    HW117612   0.550   3.753   1.233  1.5103  0.5532 -1.1023
 5571SOL    HW217613   0.392   3.767   1.192  0.5133 -0.1297  2.1684
 5572SOL     OW17614   0.246   1.182   6.337  0.3526 -0.3864  0.7065
 5572SOL    HW117615   0.232   1.222   6.428  0.3693 -0.1280  0.5972
 5572SOL    HW217616   0.204   1.242   6.268 -0.4453 -1.0265  0.6196
 5573SOL     OW17617   0.522   3.436   0.922 -0.2908  0.0491  0.3762
 5573SOL    HW117618   0.604   3.382   0.942  0.0702  0.4005 -0.1190
 5573SOL    HW217619   0.510   3.443   0.823 -0.5973  0.4838  0.4425
 5574SOL     OW17620   1.225   5.017   4.107  0.0883 -0.5984 -0.1789
 5574SOL    HW117621   1.180   4.930   4.082  1.0416 -1.0108 -0.5026
 5574SOL    HW217622   1.324   5.003   4.111  0.2352  0.4393 -0.0462
 5575SOL     OW17623   1.840   3.050   3.947  0.0521  0.1463 -0.1587
 5575SOL    HW117624   1.872   3.006   4.031  1.3798  2.0622  0.4130
 5575SOL    HW217625   1.875   3.000   3.868 -2.1894 -2.3885  0.3015
 5576SOL     OW17626   5.817   0.749   6.224  0.1967  0.0676 -0.4087
 5576SOL    HW117627   5.775   0.839   6.236 -1.2292 -0.9444  3.5348
 5576SOL    HW217628   5.902   0.744   6.277 -0.0224 -1.0605 -0.1370
 5577SOL     OW17629   1.584   4.885   4.594 -0.8240 -0.2047 -0.0854
 5577SOL    HW117630   1.522   4.949   4.642 -0.4865 -0.1354  0.2622
 5577SOL    HW217631   1.647   4.845   4.660 -1.9322 -1.9722 -0.0470
 5578SOL     OW17632   4.956   1.610   5.963 -0.2013  0.4354 -0.3331
 5578SOL    HW117633   4.926   1.583   6.054 -2.4597 -1.0088 -1.4192
 5578SOL    HW217634   4.991   1.529   5.915  1.4365  1.2754 -0.6165
 5579SOL     OW17635   5.451   6.056   2.498  0.0442  0.4431  0.0702
 5579SOL    HW117636   5.441   5.986   2.569  2.1427  0.4167  0.3956
 5579SOL    HW217637   5.390   6.133   2.518 -1.5716 -0.8218  0.2458
 5580SOL     OW17638   4.527   2.345   0.633 -0.3210 -0.8361 -0.3152
 5580SOL    HW117639   4.559   2.382   0.546 -0.2412 -0.7055 -0.2303
 5580SOL    HW217640   4.521   2.418   0.701 -1.6661 -0.6900 -0.5651
 5581SOL     OW17641   3.564   3.540   6.422 -0.0405  0.4691 -0.5608
 5581SOL    HW117642   3.488   3.492   6.377 -0.1901  1.1158 -1.0188
 5581SOL    HW217643   3.556   3.638   6.404  1.6252  0.4357 -1.7289
 5582SOL     OW17644   2.997   4.051   5.225  0.5372 -0.0015 -0.4678
 5582SOL    HW117645   3.044   3.992   5.292  2.0529 -2.3039 -3.3255
 5582SOL    HW217646   2.898   4.044   5.239  0.7762  0.5193  2.1651
 5583SOL     OW17647   3.716   2.204   0.659  0.0465 -0.0145  0.0082
 5583SOL    HW117648   3.660   2.136   0.706  0.5596 -1.2426 -1.0875
 5583SOL    HW217649   3.810   2.170   0.651 -0.0645 -0.0027 -2.0696
 5584SOL     OW17650   6.157   2.178   4.496  0.0300 -0.6051 -0.0797
 5584SOL    HW117651   6.095   2.157   4.571  0.0150 -1.5311 -0.3348
 5584SOL    HW217652   6.213   2.098   4.476  2.8003  0.8095  1.5048
 5585SOL     OW17653   0.099   2.615   4.845  0.1945 -0.2162  0.7336
 5585SOL    HW117654   0.076   2.522   4.874 -0.1998 -0.3846 -0.0887
 5585SOL    HW217655   0.194   2.635   4.871  0.8344 -1.4429 -0.5128
 5586SOL     OW17656   2.058   1.589   6.207 -0.4250  0.3791 -0.5977
 5586SOL    HW117657   2.132   1.655   6.193 -1.2416  1.0704 -1.8348
 5586SOL    HW217658   2.001   1.619   6.283  0.4986 -0.1159  0.3099
 5587SOL     OW17659   5.335   0.042   1.567 -0.5656  0.1442  0.0808
 5587SOL    HW117660   5.280   0.042   1.483  1.3736 -0.6009 -1.2661
 5587SOL    HW217661   5.288  -0.012   1.637 -2.4648  1.1884 -0.3166
 5588SOL     OW17662   5.101   4.658   1.769  0.2863  0.1081 -0.1895
 5588SOL    HW117663   5.110   4.558   1.775 -4.4382 -0.6833 -2.0228
 5588SOL    HW217664   5.097   4.696   1.861  0.0972 -1.7158  0.6124
 5589SOL     OW17665   1.831   1.441   4.040 -0.3869 -0.1253  0.0860
 5589SOL    HW117666   1.926   1.413   4.044 -0.6949 -2.4014 -3.6320
 5589SOL    HW217667   1.823   1.524   3.984 -0.5942  0.0884  0.4279
 5590SOL     OW17668   6.818   6.040   2.047  0.1925  0.5828  0.1391
 5590SOL    HW117669   6.818   6.120   2.107  1.5080 -1.0894  2.5459
 5590SOL    HW217670   6.911   6.023   2.014 -0.0523  0.0226 -0.2766
 5591SOL     OW17671   6.514   0.799   5.160  0.1711 -0.6123  0.1309
 5591SOL    HW117672   6.537   0.798   5.062  1.4806 -0.7100  0.4202
 5591SOL    HW217673   6.595   0.775   5.213 -0.8023 -1.6231  1.1990
 5592SOL     OW17674   0.810   5.445   4.345  0.2148 -0.5721  0.5885
 5592SOL    HW117675   0.762   5.524   4.382  1.0359 -1.1224  3.0044
 5592SOL    HW217676   0.794   5.366   4.405  1.0300 -1.7367 -0.6796
 5593SOL     OW17677   1.548   3.624   4.811  0.0527  0.6189 -0.3514
 5593SOL    HW117678   1.625   3.687   4.818 -0.3647  1.3393 -1.8154
 5593SOL    HW217679   1.524   3.610   4.715 -1.7175  0.5003  0.0631
 5594SOL     OW17680   1.842   0.861   6.446 -0.0191 -0.1688 -0.2496
 5594SOL    HW117681   1.929   0.886   6.489 -1.2015  2.2506  0.9321
 5594SOL    HW217682   1.810   0.774   6.483  1.2839 -0.4557  0.2303
 5595SOL     OW17683   6.057   1.963   0.708 -0.0324 -0.6629  0.0105
 5595SOL    HW117684   6.073   1.999   0.800 -0.0165 -1.3076  0.2662
 5595SOL    HW217685   6.038   2.038   0.645  0.6231 -0.1579  0.4058
 5596SOL     OW17686   6.446   5.939   5.161  0.7134  0.2148  0.5741
 5596SOL    HW117687   6.526   5.896   5.118 -0.8036  0.5237 -2.9880
 5596SOL    HW217688   6.461   6.037   5.171  0.8161  0.2706 -0.0860
 5597SOL     OW17689   6.730   3.133   5.097 -0.2185  0.2515 -0.7056
 5597SOL    HW117690   6.633   3.117   5.078 -0.1519 -0.8423 -0.2079
 5597SOL    HW217691   6.780   3.046   5.089  0.5293  0.5917  0.1457
 5598SOL     OW17692   0.393   0.901   5.110  0.8922  0.1403 -0.3472
 5598SOL    HW117693   0.327   0.863   5.175  0.5677  1.0140 -0.1541
 5598SOL    HW217694   0.410   0.997   5.132  0.4557  0.5753 -1.8130
 5599SOL     OW17695   4.798   4.075   2.320 -0.6930 -0.8262  0.4487
 5599SOL    HW117696   4.818   3.992   2.373 -2.0594 -1.3205  0.2345
 5599SOL    HW217697   4.824   4.060   2.224 -1.4881 -1.2661  0.2828
 5600SOL     OW17698   2.082   2.718   2.490 -0.1822 -0.1556  0.1259
 5600SOL    HW117699   2.145   2.728   2.414 -0.9998 -1.3880 -0.7588
 5600SOL    HW217700   2.115   2.647   2.553  0.5815  0.9806  1.0513
 5601SOL     OW17701   4.562   5.944   5.374 -0.1899 -0.2756  0.1095
 5601SOL    HW117702   4.485   5.882   5.389 -0.2374 -0.4137 -0.6453
 5601SOL    HW217703   4.647   5.892   5.376 -0.2633 -0.4581 -0.9955
 5602SOL     OW17704   4.629   6.807   1.784 -0.2116  0.4820  0.4928
 5602SOL    HW117705   4.596   6.717   1.813 -0.9509  0.4502 -0.3971
 5602SOL    HW217706   4.663   6.857   1.864 -1.5998  0.1650  1.3184
 5603SOL     OW17707   4.564   4.268   6.683  0.4425 -0.7161  0.4212
 5603SOL    HW117708   4.512   4.242   6.602  1.1101  0.0881 -0.2845
 5603SOL    HW217709   4.542   4.206   6.758 -0.5495 -1.1808 -0.2291
 5604SOL     OW17710   2.701   4.631   4.530  0.0199 -0.1274  0.8304
 5604SOL    HW117711   2.790   4.677   4.539 -0.1772  0.2761  0.7227
 5604SOL    HW217712   2.688   4.604   4.435  0.3658 -0.8775  0.9904
 5605SOL     OW17713   1.101   0.187   3.758 -0.4078  0.2000 -0.2575
 5605SOL    HW117714   1.027   0.197   3.824 -0.5212  0.5570 -0.4363
 5605SOL    HW217715   1.087   0.250   3.682 -0.7046 -0.7618 -1.0250
 5606SOL     OW17716   2.880   5.416   2.336 -0.6754  0.4780 -0.1120
 5606SOL    HW117717   2.972   5.396   2.370 -0.4696 -0.0004 -0.8922
 5606SOL    HW217718   2.837   5.485   2.393 -0.3365 -0.2504  1.0637
 5607SOL     OW17719   2.382   2.845   1.646  0.0068 -0.5543 -0.2490
 5607SOL    HW117720   2.403   2.767   1.705  1.9071  2.2982  3.2750
 5607SOL    HW217721   2.336   2.916   1.700  2.3142  2.4976 -1.9757
 5608SOL     OW17722   6.812   6.801   2.732  0.1647 -0.1331 -0.2245
 5608SOL    HW117723   6.868   6.884   2.741 -0.3733  0.4062 -1.4771
 5608SOL    HW217724   6.865   6.722   2.761  0.9813  0.5602  0.2316
 5609SOL     OW17725   0.626   2.031   5.287  0.3973  0.2423  0.2239
 5609SOL    HW117726   0.531   2.016   5.259  0.6501 -1.0202 -0.0112
 5609SOL    HW217727   0.633   2.024   5.387  0.5629 -1.7522  0.1069
 5610SOL     OW17728   5.148   4.779   0.239 -0.9488 -0.1647 -1.1758
 5610SOL    HW117729   5.239   4.795   0.201 -0.2362  0.2820  0.6082
 5610SOL    HW217730   5.087   4.853   0.210 -0.2309  0.5764 -0.8417
 5611SOL     OW17731   0.246   4.818   1.194  0.4438  0.2693 -0.1132
 5611SOL    HW117732   0.277   4.907   1.229 -0.8181  0.9221 -0.5792
 5611SOL    HW217733   0.160   4.793   1.238 -0.9950  0.9385 -2.3906
 5612SOL     OW17734   4.676   3.200   0.996 -0.0551  0.4785  0.1457
 5612SOL    HW117735   4.730   3.283   1.009  2.9568 -1.2161 -0.5997
 5612SOL    HW217736   4.609   3.215   0.923  0.1176  2.3535  0.3282
 5613SOL     OW17737   4.444   5.719   3.266 -0.4178 -0.6700 -0.0061
 5613SOL    HW117738   4.507   5.691   3.339  0.9487 -0.9876 -1.2496
 5613SOL    HW217739   4.398   5.639   3.229 -0.6728 -0.5789  0.1082
 5614SOL     OW17740   0.812   2.363   5.357  0.1756 -0.9122 -0.4137
 5614SOL    HW117741   0.893   2.378   5.299 -0.9558  0.1073 -1.7965
 5614SOL    HW217742   0.828   2.284   5.416  1.6203 -1.6608 -1.7135
 5615SOL     OW17743   2.212   3.025   3.324  0.5593 -0.1073  0.2446
 5615SOL    HW117744   2.293   2.970   3.347 -0.5158 -0.7645  2.7168
 5615SOL    HW217745   2.219   3.114   3.368 -0.3845 -0.4415  1.0834
 5616SOL     OW17746   0.459   3.149   3.158 -0.2901 -0.1586 -0.4104
 5616SOL    HW117747   0.391   3.086   3.121  1.1922 -0.3804 -2.9461
 5616SOL    HW217748   0.551   3.114   3.141  0.5525  0.6276  2.0389
 5617SOL     OW17749   0.115   4.576   6.785  0.2903 -0.2290 -0.5014
 5617SOL    HW117750   0.064   4.637   6.724  0.9792  0.4339 -0.4360
 5617SOL    HW217751   0.054   4.505   6.820 -0.0421 -0.7961 -2.1747
 5618SOL     OW17752   4.705   2.255   1.946  0.1966  0.1080  0.4450
 5618SOL    HW117753   4.756   2.281   1.864 -0.5619 -0.8422 -0.3554
 5618SOL    HW217754   4.643   2.329   1.972  0.4642  0.4265  0.1760
 5619SOL     OW17755   3.988   3.098   4.297 -0.3360  1.0024 -0.0166
 5619SOL    HW117756   3.952   3.021   4.349  1.0086 -0.0744 -0.6120
 5619SOL    HW217757   3.976   3.081   4.199  2.7291 -0.0159 -0.3385
 5620SOL     OW17758   4.567   5.917   4.153  0.0169  0.3531 -0.6323
 5620SOL    HW117759   4.621   5.879   4.227 -2.1603 -3.5295 -0.7587
 5620SOL    HW217760   4.487   5.964   4.190 -0.5884 -0.8011 -0.4056
 5621SOL     OW17761   1.491   3.798   6.306  0.2051  0.3434 -0.3020
 5621SOL    HW117762   1.546   3.878   6.332 -0.3073  0.3319  0.9045
 5621SOL    HW217763   1.506   3.777   6.210 -1.5541  3.4134 -1.3840
 5622SOL     OW17764   5.229   4.839   5.348  0.2632 -0.1350 -0.6531
 5622SOL    HW117765   5.166   4.822   5.273  2.0250 -1.5688 -1.9172
 5622SOL    HW217766   5.237   4.756   5.404 -2.1566  1.3250  2.1718
 5623SOL     OW17767   5.118   5.009   4.309 -0.5456  0.6404 -0.8182
 5623SOL    HW117768   5.172   4.926   4.297 -0.8545  0.2389  0.4870
 5623SOL    HW217769   5.102   5.025   4.406 -1.4983  1.5837 -1.1150
 5624SOL     OW17770   6.755   4.171   4.576 -0.5962  0.1856  0.2902
 5624SOL    HW117771   6.850   4.165   4.606  0.4080 -0.2455 -2.6157
 5624SOL    HW217772   6.695   4.181   4.655  1.9180  1.4490  2.1570
 5625SOL     OW17773   5.011   1.355   5.853 -0.1109  0.0141  0.2483
 5625SOL    HW117774   4.917   1.348   5.821 -0.7673  1.5252  1.6835
 5625SOL    HW217775   5.033   1.277   5.912 -1.7379  1.3510  2.8165
 5626SOL     OW17776   1.795   4.305   4.836  0.3943 -0.3177  0.2888
 5626SOL    HW117777   1.719   4.239   4.839 -0.9409  1.1622  0.3196
 5626SOL    HW217778   1.811   4.333   4.741  0.7024 -0.3939  0.3180
 5627SOL     OW17779   0.575   5.368   2.308  0.1209 -0.3742 -0.5524
 5627SOL    HW117780   0.621   5.280   2.314  1.2115  0.2176  0.2869
 5627SOL    HW217781   0.535   5.390   2.397 -0.5260 -0.2200 -0.8788
 5628SOL     OW17782   1.860   3.547   6.843  0.1434  0.1926 -0.1017
 5628SOL    HW117783   1.897   3.623   6.789 -0.0819  0.0849 -0.4092
 5628SOL    HW217784   1.865   3.570   6.940 -1.3492  1.2552 -0.2363
 5629SOL     OW17785   2.401   2.496   3.738  0.1269 -1.1509 -0.5966
 5629SOL    HW117786   2.459   2.560   3.789 -1.1889  0.0423 -0.5411
 5629SOL    HW217787   2.357   2.433   3.802  0.0488 -0.9607 -0.4609
 5630SOL     OW17788   3.339   4.806   1.051  0.2695 -0.7025 -0.3765
 5630SOL    HW117789   3.295   4.717   1.052  1.6753 -1.4371  1.2546
 5630SOL    HW217790   3.321   4.853   1.138  2.2367 -0.8541  0.1688
 5631SOL     OW17791   1.669   0.734   3.469 -0.6460  0.2579  0.6863
 5631SOL    HW117792   1.616   0.662   3.513 -0.9729  1.0115  1.5765
 5631SOL    HW217793   1.660   0.727   3.370 -2.2436  0.2346  0.8102
 5632SOL     OW17794   1.895   5.463   6.786  0.2271 -0.6186 -0.3551
 5632SOL    HW117795   1.852   5.377   6.813 -3.6979  0.4918 -2.2978
 5632SOL    HW217796   1.951   5.448   6.705  2.8951 -1.9091  1.5842
 5633SOL     OW17797   0.394   3.739   4.285  0.3615  0.0754  0.0439
 5633SOL    HW117798   0.455   3.669   4.247  1.0616  1.1761 -0.9292
 5633SOL    HW217799   0.299   3.713   4.267  0.6191 -0.5431 -0.4670
 5634SOL     OW17800   6.620   6.802   1.514  0.1848 -0.1315 -0.0832
 5634SOL    HW117801   6.576   6.846   1.436  1.2589 -0.8061 -1.1030
 5634SOL    HW217802   6.568   6.721   1.540 -1.4841  1.3702  1.4430
 5635SOL     OW17803   2.898   6.969   3.647 -0.5005  0.0713  0.3411
 5635SOL    HW117804   2.867   7.039   3.584  0.5302  1.2331  1.0685
 5635SOL    HW217805   2.932   6.889   3.596 -1.7962  0.0313 -0.4878
 5636SOL     OW17806   6.347   0.971   5.272 -0.2243 -0.2665  0.3092
 5636SOL    HW117807   6.409   0.902   5.237 -0.3614 -0.0902 -0.2987
 5636SOL    HW217808   6.300   1.016   5.195 -0.6610  0.0070  0.7279
 5637SOL     OW17809   6.163   1.233   5.364 -0.0623 -0.4607  0.0479
 5637SOL    HW117810   6.235   1.258   5.299 -0.7396 -1.7363 -1.2638
 5637SOL    HW217811   6.075   1.228   5.316 -0.9018  0.2800  1.4526
 5638SOL     OW17812   2.952   6.166   0.252 -0.0266  0.2295 -0.6466
 5638SOL    HW117813   2.972   6.241   0.189 -1.5935  0.0854 -1.3615
 5638SOL    HW217814   2.854   6.161   0.268  0.0952 -1.3397 -0.1988
 5639SOL     OW17815   3.088   0.178   1.881 -0.2150  0.1849  0.3907
 5639SOL    HW117816   3.163   0.231   1.841 -0.6092  0.5381  0.1116
 5639SOL    HW217817   3.124   0.120   1.955  0.4859 -0.3443 -0.3540
 5640SOL     OW17818   5.644   0.160   4.531  0.4242 -0.1450 -0.2636
 5640SOL    HW117819   5.655   0.158   4.431 -0.1205  2.4794 -0.4565
 5640SOL    HW217820   5.548   0.149   4.554  0.3065  0.9465 -0.1725
 5641SOL     OW17821   6.239   4.951   3.569 -0.0070 -0.2582 -0.0735
 5641SOL    HW117822   6.243   4.982   3.474  2.1400 -1.0784 -0.3128
 5641SOL    HW217823   6.270   4.856   3.575 -0.4009 -0.3260  1.4138
 5642SOL     OW17824   1.585   3.091   0.134  0.3255 -0.4515  0.5768
 5642SOL    HW117825   1.681   3.118   0.131  0.7980 -2.0119  0.7973
 5642SOL    HW217826   1.530   3.167   0.168  1.0843  1.4007 -1.9973
 5643SOL     OW17827   3.852   0.371   3.919  0.3348 -0.0456 -0.0393
 5643SOL    HW117828   3.909   0.383   4.000  2.7052 -0.4871 -1.5515
 5643SOL    HW217829   3.790   0.294   3.933  0.8546 -0.2496  1.2514
 5644SOL     OW17830   4.481   6.842   5.163  0.3624 -0.5167  0.1872
 5644SOL    HW117831   4.441   6.763   5.115  0.4204 -1.2338  1.2909
 5644SOL    HW217832   4.539   6.893   5.099  0.1127 -1.2047 -0.6171
 5645SOL     OW17833   6.279   4.981   4.464 -0.5713  0.2044 -0.4596
 5645SOL    HW117834   6.305   5.057   4.404 -1.8271  0.8431 -0.2427
 5645SOL    HW217835   6.187   4.951   4.440  0.5558 -2.5311 -1.7889
 5646SOL     OW17836   6.987   2.580   2.523  0.6000 -0.5258 -0.3150
 5646SOL    HW117837   6.939   2.522   2.457  1.9714 -1.3845 -0.5860
 5646SOL    HW217838   6.920   2.632   2.577 -0.6066 -1.3746 -0.9616
 5647SOL     OW17839   3.923   5.470   4.470  0.0294  0.0927 -0.5978
 5647SOL    HW117840   3.959   5.537   4.535  1.9765  0.6927 -2.1722
 5647SOL    HW217841   3.829   5.495   4.445  0.3954  1.7212 -0.4509
 5648SOL     OW17842   1.250   2.340   5.173 -0.3926 -0.0280 -0.1699
 5648SOL    HW117843   1.329   2.363   5.117  0.6609 -0.9339  0.8956
 5648SOL    HW217844   1.232   2.242   5.168 -0.7273 -0.0086  0.5072
 5649SOL     OW17845   5.256   0.935   6.392 -0.0313  0.0798  0.0388
 5649SOL    HW117846   5.323   0.896   6.330 -0.1736 -0.6353  0.3307
 5649SOL    HW217847   5.165   0.929   6.352 -0.0381  0.2525  0.0236
 5650SOL     OW17848   5.878   6.341   6.009  0.1236 -0.0942 -0.4524
 5650SOL    HW117849   5.799   6.291   6.045  0.1433 -0.3058 -0.7053
 5650SOL    HW217850   5.927   6.384   6.085 -0.4723  0.3851 -0.3287
 5651SOL     OW17851   5.993   0.486   2.068  0.1871 -0.0507  0.1905
 5651SOL    HW117852   5.976   0.388   2.079 -0.2549 -0.0614 -0.4766
 5651SOL    HW217853   6.062   0.500   1.997 -0.8424  0.1522 -0.8016
 5652SOL     OW17854   3.306   5.473   6.365  0.3290 -0.2656  0.1548
 5652SOL    HW117855   3.280   5.381   6.336  0.3923 -0.3987  0.5150
 5652SOL    HW217856   3.388   5.468   6.422  2.1800  0.2706 -2.2628
 5653SOL     OW17857   3.282   2.023   6.045  0.5882 -0.4076 -0.5319
 5653SOL    HW117858   3.332   2.029   6.131  0.2320 -0.1079 -0.3425
 5653SOL    HW217859   3.346   2.015   5.969  1.0079  1.3649 -0.4197
 5654SOL     OW17860   2.006   6.878   5.364 -0.4068  0.1743  0.4741
 5654SOL    HW117861   2.022   6.888   5.463  2.3010 -0.0661  0.1339
 5654SOL    HW217862   2.046   6.956   5.316 -2.5807  0.8038 -0.4381
 5655SOL     OW17863   0.271   4.845   2.214  0.6736 -0.3002 -0.1064
 5655SOL    HW117864   0.281   4.752   2.250  1.8209 -0.7747 -1.5683
 5655SOL    HW217865   0.268   4.842   2.114 -1.3364  1.0754 -0.1575
 5656SOL     OW17866   0.878   5.294   5.830  0.6015 -0.0076  0.2892
 5656SOL    HW117867   0.822   5.285   5.748 -1.8961 -1.8473  2.0169
 5656SOL    HW217868   0.897   5.390   5.848 -0.5547  0.5681 -1.3254
 5657SOL     OW17869   4.617   5.134   3.143 -0.6767 -0.2133  0.1734
 5657SOL    HW117870   4.690   5.095   3.199  0.6444 -1.2033 -2.1106
 5657SOL    HW217871   4.610   5.232   3.161  0.9153 -0.1797  0.7566
 5658SOL     OW17872   5.825   6.038   0.443  0.2657  0.1803 -0.3451
 5658SOL    HW117873   5.916   6.019   0.406  0.4488  1.0637 -0.3772
 5658SOL    HW217874   5.760   5.973   0.406  0.6878  0.2231 -1.1901
 5659SOL     OW17875   3.001   3.471   2.917 -0.1160  0.1825  0.6440
 5659SOL    HW117876   2.956   3.478   2.828 -0.6752  0.3754  0.9335
 5659SOL    HW217877   2.980   3.383   2.959  0.5309 -0.1026  0.3908
 5660SOL     OW17878   1.880   3.281   2.131  0.5319  0.0007 -0.3923
 5660SOL    HW117879   1.933   3.251   2.051  0.2651 -1.4707 -0.0570
 5660SOL    HW217880   1.939   3.333   2.193  1.5091 -1.2360 -0.2399
 5661SOL     OW17881   0.322   5.865   3.785  0.5203 -0.0138 -0.4721
 5661SOL    HW117882   0.372   5.949   3.765  0.4987 -0.0288 -0.5925
 5661SOL    HW217883   0.226   5.877   3.759  0.4181  0.0853 -0.0557
 5662SOL     OW17884   5.828   4.914   5.662 -0.5825  0.5363 -0.5502
 5662SOL    HW117885   5.749   4.858   5.689  0.3946  0.0830  1.5181
 5662SOL    HW217886   5.898   4.855   5.621 -0.2228  0.4733  0.1332
 5663SOL     OW17887   1.741   4.196   5.643 -0.6983  0.1580 -0.4957
 5663SOL    HW117888   1.755   4.104   5.679 -0.0270  0.4960  0.1279
 5663SOL    HW217889   1.735   4.191   5.543  3.4800 -0.1823 -0.9166
 5664SOL     OW17890   6.343   1.399   1.415 -0.2058  0.8630 -0.6235
 5664SOL    HW117891   6.377   1.334   1.347 -0.1501  0.5437 -0.2963
 5664SOL    HW217892   6.274   1.459   1.373 -0.7758  0.1335 -0.7478
 5665SOL     OW17893   0.073   6.927   0.721  0.2789  0.0051 -0.3452
 5665SOL    HW117894   0.129   6.936   0.804 -0.3463 -0.2412  0.1200
 5665SOL    HW217895   0.132   6.917   0.641  0.8993  0.5654  0.0315
 5666SOL     OW17896   3.896   6.030   0.369  0.1304 -0.2233 -0.3848
 5666SOL    HW117897   3.942   6.119   0.367  0.8505 -0.5622  0.4360
 5666SOL    HW217898   3.823   6.029   0.301  0.1496  0.9726 -0.4517
 5667SOL     OW17899   5.934   4.481   2.729 -0.4205 -0.3088  0.5936
 5667SOL    HW117900   5.983   4.548   2.785 -0.7651 -1.3914  2.2985
 5667SOL    HW217901   5.996   4.442   2.661  0.4303  0.0474  1.1428
 5668SOL     OW17902   6.269   4.736   5.773  0.1502  0.5691 -0.7551
 5668SOL    HW117903   6.337   4.712   5.704 -0.4198 -0.5989 -0.9379
 5668SOL    HW217904   6.302   4.712   5.864 -0.3206 -0.7805 -0.9154
 5669SOL     OW17905   0.181   2.062   6.945 -0.3644 -0.0026  0.7691
 5669SOL    HW117906   0.224   2.128   7.005  0.6644  0.3207 -0.2891
 5669SOL    HW217907   0.123   2.000   6.999 -0.9850  1.4514  1.8182
 5670SOL     OW17908   2.290   2.850   4.729 -0.0391 -0.2151  0.4056
 5670SOL    HW117909   2.375   2.889   4.764 -0.1957  0.0792  0.4602
 5670SOL    HW217910   2.249   2.790   4.798 -0.4066  0.4504  0.7799
 5671SOL     OW17911   1.043   4.143   6.454  0.2265  0.8187  0.2065
 5671SOL    HW117912   1.060   4.181   6.364  0.4976 -0.2519 -0.2011
 5671SOL    HW217913   0.945   4.149   6.474 -0.5220 -2.4296 -1.8302
 5672SOL     OW17914   4.875   4.442   5.524  0.3894  0.3699 -0.5147
 5672SOL    HW117915   4.930   4.475   5.448  1.3400  0.0671  0.0222
 5672SOL    HW217916   4.827   4.359   5.497  0.7235  0.2636 -0.7877
 5673SOL     OW17917   1.164   0.225   1.844  0.0277  0.1582  0.6523
 5673SOL    HW117918   1.156   0.128   1.865 -0.6283  0.1060  0.1984
 5673SOL    HW217919   1.144   0.240   1.747 -0.8121  0.8649  0.9213
 5674SOL     OW17920   1.124   3.278   6.780 -0.1279 -0.1563 -0.8010
 5674SOL    HW117921   1.140   3.190   6.826  1.2227  0.1005 -0.7503
 5674SOL    HW217922   1.025   3.291   6.767 -0.5130 -0.5880  1.3374
 5675SOL     OW17923   3.486   1.998   5.816 -1.1592  0.2623  0.1155
 5675SOL    HW117924   3.481   1.974   5.719  1.0273 -0.5337  0.1515
 5675SOL    HW217925   3.543   2.079   5.828 -1.0079  0.0649  0.7898
 5676SOL     OW17926   6.568   5.542   6.732  0.6293  0.1043 -0.0046
 5676SOL    HW117927   6.578   5.470   6.801 -0.9585  1.4536  1.7472
 5676SOL    HW217928   6.611   5.626   6.766  1.1131  0.4158 -1.3448
 5677SOL     OW17929   5.324   0.395   4.372 -0.0320 -0.3859  0.3347
 5677SOL    HW117930   5.241   0.442   4.343  0.5243 -0.1924 -0.9933
 5677SOL    HW217931   5.329   0.395   4.472 -1.2673  0.2126  0.4096
 5678SOL     OW17932   1.014   6.094   2.903  0.2778  0.9219 -0.2264
 5678SOL    HW117933   0.936   6.115   2.846 -0.2373 -1.1119 -0.3620
 5678SOL    HW217934   1.027   6.166   2.971 -0.1060  2.5550 -1.8109
 5679SOL     OW17935   2.943   4.885   4.058  0.5257  1.7226 -0.3699
 5679SOL    HW117936   2.872   4.836   4.008  3.3745 -2.9581 -0.4326
 5679SOL    HW217937   3.016   4.912   3.995  1.0471  1.9555  0.3236
 5680SOL     OW17938   0.328   6.017   6.472  0.0144 -0.0696 -0.3846
 5680SOL    HW117939   0.369   5.938   6.518 -0.1268  0.2044  0.2303
 5680SOL    HW217940   0.231   6.000   6.457  0.4241 -0.9604 -2.3680
 5681SOL     OW17941   2.825   4.762   6.437  0.6938 -0.3730  0.1966
 5681SOL    HW117942   2.788   4.674   6.468  2.0621 -1.1841 -0.3518
 5681SOL    HW217943   2.820   4.766   6.337 -1.4743  1.1870  0.3135
 5682SOL     OW17944   3.129   4.918   3.332 -0.5286  0.0035  0.6193
 5682SOL    HW117945   3.182   4.975   3.269 -3.3765  0.4661 -1.5868
 5682SOL    HW217946   3.067   4.975   3.386 -2.4478 -0.7605 -0.6401
 5683SOL     OW17947   3.104   3.043   4.612 -0.2144  0.0631  0.4443
 5683SOL    HW117948   3.177   2.979   4.587 -0.5980  0.7574 -2.8341
 5683SOL    HW217949   3.038   2.996   4.671  0.1869 -2.2125 -0.8001
 5684SOL     OW17950   3.199   3.002   2.698  0.4118 -0.2093 -0.2590
 5684SOL    HW117951   3.239   2.991   2.789  0.5385  1.1005 -0.1339
 5684SOL    HW217952   3.239   2.935   2.635 -1.3432 -2.7406  1.1240
 5685SOL     OW17953   6.483   6.411   1.290  0.5282 -0.0405 -0.0782
 5685SOL    HW117954   6.552   6.352   1.332  1.0214  0.2618 -0.4550
 5685SOL    HW217955   6.528   6.487   1.245 -0.1490  1.2008  1.2670
 5686SOL     OW17956   3.919   3.913   6.121  0.8615 -0.1132 -0.4168
 5686SOL    HW117957   3.875   4.002   6.104  1.7271  0.2472 -0.8222
 5686SOL    HW217958   4.018   3.925   6.122  0.9800 -1.0564 -0.2871
 5687SOL     OW17959   5.044   0.680   6.149  0.5562  0.0083  0.2801
 5687SOL    HW117960   5.096   0.670   6.233  0.7263 -2.1406 -0.0285
 5687SOL    HW217961   5.055   0.773   6.114  0.1462  1.0889  2.7987
 5688SOL     OW17962   6.091   0.514   2.570  0.0793  0.3106 -0.1383
 5688SOL    HW117963   6.110   0.611   2.588 -1.1722  0.3363  1.2527
 5688SOL    HW217964   6.080   0.501   2.472 -1.7605  2.0308 -0.2386
 5689SOL     OW17965   3.823   3.671   4.896 -0.1976 -0.1760 -0.1789
 5689SOL    HW117966   3.822   3.590   4.955  0.8665 -0.5559 -0.6608
 5689SOL    HW217967   3.841   3.643   4.802  0.0850  0.6126 -0.3668
 5690SOL     OW17968   2.653   1.930   2.962  0.2093 -0.4345  0.0809
 5690SOL    HW117969   2.580   1.973   2.909  1.0294  0.7073 -0.1483
 5690SOL    HW217970   2.736   1.985   2.956  1.6220 -2.5417 -1.0609
 5691SOL     OW17971   4.033   6.619   4.284 -0.6095 -0.3037 -0.1285
 5691SOL    HW117972   3.954   6.656   4.331  0.0073 -1.4031  1.8656
 5691SOL    HW217973   4.114   6.628   4.342  0.5822  0.0448 -1.7777
 5692SOL     OW17974   6.967   1.658   4.473  0.2133  0.3591 -0.4667
 5692SOL    HW117975   6.984   1.721   4.549  0.1285 -0.1085 -0.0555
 5692SOL    HW217976   6.958   1.710   4.388 -2.8683  1.2488  0.2594
 5693SOL     OW17977   5.167   2.971   2.504  0.2918 -0.3156 -0.0544
 5693SOL    HW117978   5.189   3.065   2.529  1.6501 -0.7209  0.3496
 5693SOL    HW217979   5.067   2.958   2.506  0.0419  1.2731 -0.7694
 5694SOL     OW17980   3.077   6.907   4.997  0.4152 -0.1996  0.7641
 5694SOL    HW117981   3.094   6.988   4.940  1.4314 -0.0258  1.2791
 5694SOL    HW217982   2.994   6.921   5.051  0.5561  0.4964  0.8138
 5695SOL     OW17983   1.258   3.026   3.063 -0.8910  0.1137  0.3430
 5695SOL    HW117984   1.202   2.959   3.014 -1.0102  0.2738  0.2613
 5695SOL    HW217985   1.269   2.996   3.158 -1.5011  0.3142  0.4824
 5696SOL     OW17986   2.931   0.374   0.126 -0.4462  0.0801 -0.0073
 5696SOL    HW117987   2.886   0.329   0.203 -0.8713  0.3119 -0.1130
 5696SOL    HW217988   2.881   0.352   0.042 -0.3800  0.3719 -0.1227
 5697SOL     OW17989   0.307   2.512   6.918 -0.8191 -0.0733 -0.0844
 5697SOL    HW117990   0.295   2.487   6.822  0.0497  2.5301 -0.9618
 5697SOL    HW217991   0.405   2.508   6.942 -1.0400 -0.8147  0.7467
 5698SOL     OW17992   1.559   4.835   3.741  0.5403  0.2045 -0.3133
 5698SOL    HW117993   1.646   4.820   3.788 -0.8789 -0.4453  2.3229
 5698SOL    HW217994   1.529   4.750   3.698  0.6918  0.1240 -0.2604
 5699SOL     OW17995   2.558   3.022   6.991  0.1228 -0.0018  0.0165
 5699SOL    HW117996   2.503   2.957   7.043 -0.0664 -0.2812 -0.5192
 5699SOL    HW217997   2.540   3.010   6.893 -0.4983  1.3727 -0.0629
 5700SOL     OW17998   2.042   4.487   4.178 -0.5982  0.4017 -0.1234
 5700SOL    HW117999   2.062   4.537   4.262  0.0815  1.5990 -0.9725
 5700SOL    HW218000   1.961   4.527   4.134 -1.9963 -1.2951  0.7899
 5701SOL     OW18001   5.242   1.359   2.971 -0.0780  0.5340 -0.1413
 5701SOL    HW118002   5.269   1.320   3.059  0.7480  2.6021  0.5994
 5701SOL    HW218003   5.321   1.360   2.909  1.4982  5.1546  1.4930
 5702SOL     OW18004   3.077   2.825   0.066  0.0515 -0.0169  0.2595
 5702SOL    HW118005   3.060   2.735   0.108 -1.9421  0.5619  0.7996
 5702SOL    HW218006   2.992   2.879   0.067  1.1116  1.7423 -0.4003
 5703SOL     OW18007   5.413   3.637   2.266  0.5797 -0.2081 -0.2481
 5703SOL    HW118008   5.340   3.689   2.223  1.2116 -0.5888 -1.8359
 5703SOL    HW218009   5.380   3.545   2.288 -0.7829  0.9325  3.2650
 5704SOL     OW18010   4.512   2.526   3.434  0.3998 -0.1111 -0.4337
 5704SOL    HW118011   4.503   2.516   3.533 -1.6044  0.7246 -0.4893
 5704SOL    HW218012   4.507   2.436   3.391 -2.0022 -0.2710  0.0520
 5705SOL     OW18013   6.164   0.236   4.849  0.0297  0.6034 -0.0851
 5705SOL    HW118014   6.105   0.310   4.882 -2.0161 -0.2280 -1.6645
 5705SOL    HW218015   6.206   0.190   4.927 -1.7699  0.9514  1.1607
 5706SOL     OW18016   0.605   2.089   6.599 -0.4528  0.0860  0.3814
 5706SOL    HW118017   0.602   2.130   6.508 -1.4631  0.3256  0.5065
 5706SOL    HW218018   0.534   2.018   6.606 -0.9668  0.6702  1.2477
 5707SOL     OW18019   6.026   0.171   2.041  0.1692 -0.4707  0.4193
 5707SOL    HW118020   5.968   0.199   1.965 -0.0677 -3.4273 -0.5928
 5707SOL    HW218021   5.969   0.144   2.119  0.3273  0.0215  0.7101
 5708SOL     OW18022   0.481   6.838   6.720 -0.0850 -0.0824  0.4411
 5708SOL    HW118023   0.556   6.901   6.738  0.3659 -0.5919  0.3614
 5708SOL    HW218024   0.459   6.841   6.622  0.7080 -0.8901  0.2278
 5709SOL     OW18025   1.858   3.382   0.840 -0.1194 -0.1462 -0.2976
 5709SOL    HW118026   1.880   3.351   0.933  1.6086  1.9420  0.0753
 5709SOL    HW218027   1.883   3.312   0.774 -0.2324 -1.1867  0.7372
 5710SOL     OW18028   2.214   6.592   6.573  0.1439 -0.3938 -0.6498
 5710SOL    HW118029   2.199   6.691   6.575  0.1372 -0.3880 -0.9014
 5710SOL    HW218030   2.309   6.572   6.598  0.8625 -0.1462 -2.9085
 5711SOL     OW18031   6.008   0.899   5.273 -0.3811 -0.1658 -0.0481
 5711SOL    HW118032   5.984   0.988   5.312  1.0769 -0.4583  1.6751
 5711SOL    HW218033   6.090   0.908   5.216 -1.2075 -0.1393 -1.2608
 5712SOL     OW18034   4.541   6.025   4.439 -0.3066 -0.2073  0.1847
 5712SOL    HW118035   4.561   6.123   4.443 -0.1514 -0.1827 -0.9255
 5712SOL    HW218036   4.501   5.996   4.526 -0.5105  0.8747  0.4688
 5713SOL     OW18037   0.169   3.515   2.817  0.2096 -0.2597  0.0401
 5713SOL    HW118038   0.267   3.532   2.807 -0.0627  0.5415 -1.4289
 5713SOL    HW218039   0.148   3.501   2.914  1.3327  2.4031  0.7620
 5714SOL     OW18040   1.413   1.777   0.722  0.1820 -0.3346  0.0296
 5714SOL    HW118041   1.336   1.746   0.667  0.9457 -0.8165 -0.8053
 5714SOL    HW218042   1.396   1.757   0.818 -0.3751 -1.2013 -0.2348
 5715SOL     OW18043   6.179   4.130   4.980  0.0380 -0.3477 -0.2115
 5715SOL    HW118044   6.153   4.055   4.919 -2.4089  0.2996 -0.0693
 5715SOL    HW218045   6.117   4.206   4.967  3.0224  2.1554 -1.0736
 5716SOL     OW18046   1.648   0.319   4.436 -0.3752 -0.4243 -0.1493
 5716SOL    HW118047   1.683   0.286   4.348  0.4665  1.8199 -0.7159
 5716SOL    HW218048   1.714   0.296   4.508 -1.0290 -2.1968 -0.0704
 5717SOL     OW18049   6.847   5.896   5.569 -0.4069 -0.6452  0.2221
 5717SOL    HW118050   6.818   5.992   5.567 -0.2933 -0.6034  0.4909
 5717SOL    HW218051   6.843   5.862   5.662  1.3831 -0.3234  0.4704
 5718SOL     OW18052   1.956   5.570   5.274  0.4877  0.0020 -0.2385
 5718SOL    HW118053   1.971   5.667   5.292  0.1515  0.2526 -1.2441
 5718SOL    HW218054   1.998   5.545   5.186  0.2691 -0.6846 -0.1562
 5719SOL     OW18055   1.498   0.409   6.150  0.1850 -0.3052 -0.3451
 5719SOL    HW118056   1.501   0.486   6.087 -0.2895  0.1450  0.1685
 5719SOL    HW218057   1.509   0.324   6.099 -0.1548  0.0486 -1.0343
 5720SOL     OW18058   2.511   5.533   1.077 -0.0268  0.0514 -0.4177
 5720SOL    HW118059   2.487   5.437   1.063 -0.5944  0.1585 -0.2261
 5720SOL    HW218060   2.596   5.539   1.128 -0.5814 -0.3610  0.5739
 5721SOL     OW18061   6.973   4.643   0.967 -1.0231 -0.0229  0.1255
 5721SOL    HW118062   6.915   4.626   0.887 -1.5430 -0.1637  0.5268
 5721SOL    HW218063   7.006   4.555   1.002  0.1891  0.1030 -0.6403
 5722SOL     OW18064   3.826   0.099   3.320 -0.1831  0.2366 -0.0028
 5722SOL    HW118065   3.926   0.097   3.324 -0.1253  0.9186 -0.8775
 5722SOL    HW218066   3.794   0.193   3.330 -0.8480 -0.1587  2.0686
 5723SOL     OW18067   5.660   4.744   2.818 -0.0854  0.6837  0.3955
 5723SOL    HW118068   5.701   4.817   2.871  1.4100  0.3406 -0.2221
 5723SOL    HW218069   5.640   4.666   2.877 -0.5628  1.1478  0.8432
 5724SOL     OW18070   4.673   2.265   4.557 -0.0726 -0.4877 -0.1169
 5724SOL    HW118071   4.617   2.348   4.555 -0.0304 -0.4627 -0.2359
 5724SOL    HW218072   4.708   2.252   4.650  1.4682  0.6597 -0.4978
 5725SOL     OW18073   6.600   0.511   0.489 -0.5053 -0.2550 -0.2120
 5725SOL    HW118074   6.664   0.435   0.504 -0.5196 -0.2404 -0.0790
 5725SOL    HW218075   6.507   0.476   0.485 -0.3845 -0.4956 -1.9728
 5726SOL     OW18076   3.052   6.985   4.462  0.0456  0.4281  0.0633
 5726SOL    HW118077   3.004   6.964   4.376 -0.6181 -0.9367  0.7345
 5726SOL    HW218078   3.134   7.037   4.441  0.3762 -0.6213 -1.5194
 5727SOL     OW18079   5.564   4.092   1.329  0.0763 -0.5637 -0.3338
 5727SOL    HW118080   5.514   4.179   1.328 -1.6823 -1.4624 -3.0198
 5727SOL    HW218081   5.632   4.093   1.256  1.6274 -0.6717  1.0623
 5728SOL     OW18082   3.988   0.151   5.902  0.4688 -0.1833 -0.0598
 5728SOL    HW118083   4.022   0.109   5.986  0.2633 -0.8649 -0.3126
 5728SOL    HW218084   4.047   0.229   5.877  0.8518 -0.3188  0.4094
 5729SOL     OW18085   4.385   1.985   3.439  0.3401  0.1325 -0.0377
 5729SOL    HW118086   4.428   1.928   3.369  0.4827  0.7467 -0.4547
 5729SOL    HW218087   4.447   1.997   3.516  0.6053  0.3673 -0.2899
 5730SOL     OW18088   4.222   6.425   0.191 -0.1555  0.1088 -0.4392
 5730SOL    HW118089   4.205   6.478   0.274 -1.5916  0.4420 -0.9296
 5730SOL    HW218090   4.205   6.481   0.111 -0.7187 -0.7948 -0.9692
 5731SOL     OW18091   1.819   0.287   6.155 -0.0592 -0.1173  0.1160
 5731SOL    HW118092   1.895   0.305   6.093  1.0713 -1.8506  0.9258
 5731SOL    HW218093   1.779   0.198   6.134 -0.8641  0.0832  0.7191
 5732SOL     OW18094   6.017   5.192   3.971 -0.1304  0.4513  0.2077
 5732SOL    HW118095   5.942   5.241   3.926 -1.4049 -0.4697  1.2528
 5732SOL    HW218096   6.090   5.174   3.904  0.0926  3.0874 -0.3784
 5733SOL     OW18097   2.053   6.050   1.442 -0.7804 -0.4107  0.2749
 5733SOL    HW118098   1.962   6.072   1.405 -0.7056  0.2372  0.4724
 5733SOL    HW218099   2.110   6.131   1.440 -0.6823 -0.4299  1.5595
 5734SOL     OW18100   0.913   1.345   6.680 -0.1780 -0.2620 -0.0877
 5734SOL    HW118101   0.937   1.328   6.775  1.1321 -1.8799 -0.6559
 5734SOL    HW218102   0.943   1.436   6.653  4.2617 -1.5730 -0.3217
 5735SOL     OW18103   6.684   2.476   0.360 -0.0063 -0.0470  0.1398
 5735SOL    HW118104   6.595   2.430   0.358  0.8771 -1.8773  0.8681
 5735SOL    HW218105   6.671   2.573   0.380 -1.9191  0.0246 -1.1911
 5736SOL     OW18106   4.850   3.730   6.155 -0.0054 -0.1975  0.1002
 5736SOL    HW118107   4.872   3.655   6.218 -2.7100 -0.4659  0.8777
 5736SOL    HW218108   4.814   3.692   6.070 -1.4208  0.1594  0.5124
 5737SOL     OW18109   3.404   5.939   2.825  0.0300 -0.1658 -0.0811
 5737SOL    HW118110   3.357   6.023   2.796 -0.2377 -0.0420  0.6703
 5737SOL    HW218111   3.379   5.864   2.764 -0.5657  0.0696 -0.1372
 5738SOL     OW18112   2.305   1.461   6.901 -0.2653  0.2860 -0.1721
 5738SOL    HW118113   2.335   1.556   6.909 -2.6338  1.2856 -2.0454
 5738SOL    HW218114   2.220   1.449   6.953  1.1065 -1.4525  1.8487
 5739SOL     OW18115   1.108   5.181   4.932  0.5657  0.5950  0.2520
 5739SOL    HW118116   1.156   5.121   4.868 -0.3574 -1.9450  1.7647
 5739SOL    HW218117   1.154   5.178   5.021  0.1482  1.7003  0.5141
 5740SOL     OW18118   5.347   1.259   2.534 -0.1923 -0.0501  0.0701
 5740SOL    HW118119   5.320   1.166   2.507 -0.6006 -0.0564  0.4824
 5740SOL    HW218120   5.395   1.255   2.622  1.9881 -0.1444 -1.0570
 5741SOL     OW18121   0.711   4.065   3.313 -0.3584 -0.6296  0.0133
 5741SOL    HW118122   0.737   3.992   3.250  0.2017  0.5564 -1.2009
 5741SOL    HW218123   0.784   4.133   3.317 -0.5530 -0.4897  1.6805
 5742SOL     OW18124   0.559   4.502   3.631  0.0231  0.5191 -0.0859
 5742SOL    HW118125   0.607   4.464   3.710  0.6112 -0.6311 -0.9454
 5742SOL    HW218126   0.488   4.438   3.602  0.5892  0.3483 -1.1715
 5743SOL     OW18127   4.702   1.371   4.433 -0.4382 -0.1968 -0.3882
 5743SOL    HW118128   4.695   1.275   4.462 -0.3884  0.3830  1.7359
 5743SOL    HW218129   4.635   1.426   4.484 -0.8535  0.8356 -1.9870
 5744SOL     OW18130   5.426   5.667   3.976  0.1351  0.4782  0.0240
 5744SOL    HW118131   5.428   5.733   4.051 -1.8412  0.3147  0.2742
 5744SOL    HW218132   5.361   5.594   3.998 -0.6150  0.5133 -1.9123
 5745SOL     OW18133   2.741   4.812   3.595  0.1016 -0.3102  0.2747
 5745SOL    HW118134   2.696   4.836   3.681 -1.0661  2.5127 -0.9686
 5745SOL    HW218135   2.808   4.883   3.573  0.1088 -0.7813 -1.3069
 5746SOL     OW18136   4.507   0.837   5.347 -0.4524  0.6088  0.4453
 5746SOL    HW118137   4.434   0.888   5.302 -1.5728 -1.1016  0.2290
 5746SOL    HW218138   4.470   0.786   5.424  0.4136 -0.6305  0.0757
 5747SOL     OW18139   0.796   0.661   1.913  0.5296  0.6292  0.3111
 5747SOL    HW118140   0.857   0.708   1.977 -0.8535  1.9936  0.6892
 5747SOL    HW218141   0.702   0.668   1.945 -0.1718  1.1059 -1.7062
 5748SOL     OW18142   4.050   1.261   6.215  0.2829  0.6167  0.9760
 5748SOL    HW118143   4.058   1.163   6.197  1.3032  0.7417  0.7124
 5748SOL    HW218144   4.028   1.309   6.130  2.9554  0.9544  0.3721
 5749SOL     OW18145   0.241   5.007   6.024  0.1212 -0.1002 -0.3770
 5749SOL    HW118146   0.253   5.099   6.062 -2.2718  0.5814 -1.0776
 5749SOL    HW218147   0.261   4.939   6.095  0.7654  0.9802  0.5184
 5750SOL     OW18148   5.325   2.650   3.843  0.2426  0.0513  0.2558
 5750SOL    HW118149   5.227   2.652   3.824  0.5586  1.1377 -1.3864
 5750SOL    HW218150   5.370   2.585   3.781  0.3574 -2.0348  2.3545
 5751SOL     OW18151   6.411   4.275   4.985 -0.0629 -0.4110  0.0255
 5751SOL    HW118152   6.351   4.199   5.008 -1.6661  1.1784  1.3935
 5751SOL    HW218153   6.368   4.331   4.914  0.9042 -0.4911 -0.6580
 5752SOL     OW18154   6.082   3.006   5.536  0.3588  0.4678 -0.2671
 5752SOL    HW118155   6.006   3.009   5.470  1.0901  1.1029 -1.1016
 5752SOL    HW218156   6.046   2.986   5.627 -0.6155 -1.0417 -0.9480
 5753SOL     OW18157   3.941   3.812   4.204 -0.3204 -0.2619 -0.0972
 5753SOL    HW118158   3.908   3.905   4.185 -0.7271 -0.5799 -0.9888
 5753SOL    HW218159   3.975   3.771   4.119  0.3078 -0.7524  0.3878
 5754SOL     OW18160   6.331   2.024   6.630  0.2601 -0.3013  0.4731
 5754SOL    HW118161   6.423   2.017   6.592  0.7686  0.4954  1.5130
 5754SOL    HW218162   6.295   2.116   6.614 -0.1926 -0.4838  0.4305
 5755SOL     OW18163   0.940   3.906   5.449  0.3047  0.4336 -0.0964
 5755SOL    HW118164   0.916   3.817   5.410  0.6760  0.5792 -0.6701
 5755SOL    HW218165   0.857   3.954   5.476  0.0382  0.2961 -0.6520
 5756SOL     OW18166   5.243   0.047   1.054  0.0432 -0.1943 -0.3295
 5756SOL    HW118167   5.147   0.021   1.069  0.6677 -0.6493  4.6228
 5756SOL    HW218168   5.301  -0.035   1.061  1.0026  0.4645 -0.3796
 5757SOL     OW18169   2.510   0.245   2.304  0.1308 -0.2411 -0.3182
 5757SOL    HW118170   2.596   0.271   2.348 -0.4354  0.0419  0.6325
 5757SOL    HW218171   2.437   0.240   2.372 -0.9987  1.2130 -1.3597
 5758SOL     OW18172   0.718   1.334   3.033 -0.0403  0.4203  0.5732
 5758SOL    HW118173   0.694   1.406   2.968  0.8293 -0.0229 -0.2535
 5758SOL    HW218174   0.662   1.253   3.016  0.1499  0.3229  0.4084
 5759SOL     OW18175   3.817   6.109   2.468  0.4751 -0.3009 -0.4592
 5759SOL    HW118176   3.877   6.107   2.388 -0.0634 -0.0073 -0.8747
 5759SOL    HW218177   3.865   6.068   2.546  2.5500  2.8978  0.1252
 5760SOL     OW18178   0.374   2.897   1.345  0.2447 -0.9179  0.4145
 5760SOL    HW118179   0.458   2.926   1.300 -0.0971 -1.4975 -0.6393
 5760SOL    HW218180   0.302   2.965   1.329 -0.4697 -2.0974 -1.7909
 5761SOL     OW18181   6.797   5.423   6.598 -0.4917 -0.3309 -0.5359
 5761SOL    HW118182   6.722   5.486   6.618  0.8469  1.1538 -0.0909
 5761SOL    HW218183   6.758   5.333   6.575 -2.4170  0.5337 -0.8829
 5762SOL     OW18184   6.552   6.465   5.603 -0.8260 -0.3356  0.5744
 5762SOL    HW118185   6.452   6.469   5.591 -1.0398 -1.7069  1.6443
 5762SOL    HW218186   6.591   6.403   5.535 -0.7729 -0.2613  0.5372
 5763SOL     OW18187   4.501   1.873   5.915  0.2799 -0.1818  0.2517
 5763SOL    HW118188   4.585   1.908   5.873 -0.9313  2.7199  0.0356
 5763SOL    HW218189   4.433   1.857   5.843 -0.4308  0.7837  0.6897
 5764SOL     OW18190   2.562   0.319   4.113  0.3061  0.0969 -0.2147
 5764SOL    HW118191   2.472   0.359   4.097  0.2714 -0.5685 -1.8563
 5764SOL    HW218192   2.629   0.362   4.053  0.9796  0.1446  0.5476
 5765SOL     OW18193   1.035   0.043   3.405  0.6277  0.1339 -0.2687
 5765SOL    HW118194   1.121   0.010   3.445  0.4440  0.1387  0.1359
 5765SOL    HW218195   0.974  -0.035   3.387  0.7561  0.1193 -0.6587
 5766SOL     OW18196   1.732   1.513   4.292 -0.2131  0.3925  0.1272
 5766SOL    HW118197   1.798   1.582   4.323  0.1526 -0.8816  2.4066
 5766SOL    HW218198   1.773   1.459   4.218  0.7569  0.5738  0.5039
 5767SOL     OW18199   6.911   0.207   0.331  0.5752  0.1620  0.5253
 5767SOL    HW118200   6.879   0.228   0.423  1.1098 -0.5919  0.8871
 5767SOL    HW218201   7.001   0.164   0.335  0.5068 -0.0866 -0.3341
 5768SOL     OW18202   1.256   6.852   4.071 -0.0459  0.1200  0.0857
 5768SOL    HW118203   1.264   6.783   4.144  1.0598  2.4823  2.3429
 5768SOL    HW218204   1.343   6.859   4.022  0.1850  0.5906  0.5495
 5769SOL     OW18205   0.439   0.832   4.831 -0.2149 -0.0923 -0.0034
 5769SOL    HW118206   0.429   0.734   4.811  0.1302  0.0826 -1.0483
 5769SOL    HW218207   0.433   0.846   4.930 -0.5063 -1.1426  0.1374
 5770SOL     OW18208   0.580   2.667   2.709  0.7259 -0.7705 -0.4151
 5770SOL    HW118209   0.575   2.764   2.737 -0.5669 -0.6958 -0.8290
 5770SOL    HW218210   0.603   2.661   2.612  0.1135 -0.8467 -0.5590
 5771SOL     OW18211   2.392   5.505   3.578  0.1371  0.6229 -0.4064
 5771SOL    HW118212   2.334   5.432   3.543  0.5296  0.4865 -0.7883
 5771SOL    HW218213   2.488   5.481   3.564  0.4009 -0.3166  2.4945
 5772SOL     OW18214   1.944   0.106   3.183 -0.4083 -0.2245  0.2362
 5772SOL    HW118215   1.892   0.149   3.257 -0.5811  1.6485 -0.9136
 5772SOL    HW218216   2.004   0.173   3.140  0.8316 -1.6458 -0.3719
 5773SOL     OW18217   5.137   0.313   1.856  0.1310 -0.2424  0.1503
 5773SOL    HW118218   5.127   0.270   1.766 -0.4580  0.8437 -0.3216
 5773SOL    HW218219   5.227   0.356   1.862  0.1780 -0.3309  0.1011
 5774SOL     OW18220   1.663   5.835   3.000  0.4775  0.1318 -0.3334
 5774SOL    HW118221   1.729   5.779   3.051  0.5053  1.3609  1.0582
 5774SOL    HW218222   1.697   5.929   2.994 -1.5909  1.1007  1.4636
 5775SOL     OW18223   6.373   4.294   3.365 -0.1844 -0.0546  0.0509
 5775SOL    HW118224   6.413   4.321   3.452 -0.6647  0.9209 -0.0214
 5775SOL    HW218225   6.444   4.291   3.295  0.4780 -2.1799  0.7212
 5776SOL     OW18226   4.450   0.328   4.011  0.1678 -0.6433  0.9240
 5776SOL    HW118227   4.421   0.276   4.091 -0.9734 -0.7024  0.4891
 5776SOL    HW218228   4.370   0.363   3.963  0.8905  1.4983  1.1699
 5777SOL     OW18229   1.682   2.792   0.681 -0.4565 -0.0089  0.1396
 5777SOL    HW118230   1.650   2.810   0.773  1.7374  1.3268  0.7042
 5777SOL    HW218231   1.743   2.712   0.682 -0.3865  0.0397 -0.1365
 5778SOL     OW18232   6.913   6.657   1.086  0.6709  0.0612 -0.3139
 5778SOL    HW118233   6.925   6.588   1.014 -0.1787  1.3980 -1.8003
 5778SOL    HW218234   6.886   6.744   1.045 -0.3441  0.7562  1.6773
 5779SOL     OW18235   6.854   0.775   1.119 -0.5619  0.0690  0.1123
 5779SOL    HW118236   6.896   0.729   1.197  0.3819 -0.6402 -0.7949
 5779SOL    HW218237   6.781   0.835   1.151  0.5851  0.6914  1.6486
 5780SOL     OW18238   4.572   6.009   6.415  0.0094 -0.5055  0.0429
 5780SOL    HW118239   4.510   6.044   6.345 -2.7575 -3.1870  0.9274
 5780SOL    HW218240   4.551   6.052   6.502  0.8223  0.0594 -0.0353
 5781SOL     OW18241   6.627   5.964   5.900 -0.1952  0.0047 -0.4009
 5781SOL    HW118242   6.680   5.903   5.841 -0.9215 -0.8449 -0.1979
 5781SOL    HW218243   6.630   5.930   5.994  0.6381  1.1355  0.0125
 5782SOL     OW18244   4.877   0.772   1.630  0.1409 -0.5406  0.4562
 5782SOL    HW118245   4.793   0.818   1.603 -1.0546 -2.3024  1.0711
 5782SOL    HW218246   4.934   0.757   1.549  1.2197  3.0988  0.3655
 5783SOL     OW18247   2.460   3.250   6.645 -0.2864 -0.2299 -0.4468
 5783SOL    HW118248   2.476   3.326   6.709  2.5515 -1.5749  0.6064
 5783SOL    HW218249   2.377   3.268   6.592 -0.4764  2.9138  0.7129
 5784SOL     OW18250   0.582   5.416   2.901 -0.2267  0.1659  0.1030
 5784SOL    HW118251   0.582   5.504   2.948 -0.5100 -0.8800  2.2416
 5784SOL    HW218252   0.518   5.354   2.948  0.2106 -1.2733 -1.1246
 5785SOL     OW18253   0.936   1.003   3.160 -0.4656 -0.1529  0.0236
 5785SOL    HW118254   0.883   1.010   3.075 -2.1696 -0.0589  1.0495
 5785SOL    HW218255   0.922   0.914   3.201  0.1034 -0.0846  0.3742
 5786SOL     OW18256   5.564   4.549   1.619 -0.2992  0.0847  0.1391
 5786SOL    HW118257   5.594   4.644   1.623 -0.3001  0.1062 -0.3444
 5786SOL    HW218258   5.628   4.495   1.565 -0.7273 -0.0204 -0.2715
 5787SOL     OW18259   2.027   1.756   5.938 -0.1022 -0.1694  0.0004
 5787SOL    HW118260   1.971   1.755   6.021 -1.0446  0.1767 -0.6135
 5787SOL    HW218261   2.056   1.850   5.919  1.3679 -0.4475  0.7405
 5788SOL     OW18262   6.329   2.653   4.964  0.4878  0.0760  0.5779
 5788SOL    HW118263   6.369   2.561   4.968  2.2144  0.7273 -0.7208
 5788SOL    HW218264   6.229   2.645   4.970  0.6623 -1.7295  2.2447
 5789SOL     OW18265   5.246   4.884   6.315 -0.4389  0.1000  0.4979
 5789SOL    HW118266   5.149   4.872   6.337 -0.7449 -0.4490 -1.0225
 5789SOL    HW218267   5.268   4.833   6.232  0.9815  0.8366  0.3907
 5790SOL     OW18268   2.310   1.895   5.680  0.4015 -0.1583 -0.8402
 5790SOL    HW118269   2.401   1.856   5.667  0.1169 -0.7158 -1.1635
 5790SOL    HW218270   2.242   1.840   5.632  0.0958  1.2241 -2.0656
 5791SOL     OW18271   1.919   2.451   3.137 -0.1203  0.1450  0.1275
 5791SOL    HW118272   1.983   2.377   3.116  0.2828  1.0169 -2.0196
 5791SOL    HW218273   1.949   2.500   3.219  1.7340  0.2534 -0.5683
 5792SOL     OW18274   6.815   1.195   3.747  0.2866  0.0631 -0.1207
 5792SOL    HW118275   6.865   1.271   3.705 -2.7154  0.3468 -3.7485
 5792SOL    HW218276   6.855   1.108   3.715  1.8087  0.0845  1.5680
 5793SOL     OW18277   5.698   0.644   5.718  0.1557 -0.1222  0.0652
 5793SOL    HW118278   5.792   0.675   5.707  0.3043  0.8885  3.1167
 5793SOL    HW218279   5.636   0.722   5.712 -0.5632 -0.7984 -2.0516
 5794SOL     OW18280   0.740   5.693   1.091 -0.5278 -0.3330  0.5096
 5794SOL    HW118281   0.801   5.765   1.058 -0.8686  0.2306  1.0928
 5794SOL    HW218282   0.747   5.613   1.031  1.4939 -0.6525  1.0976
 5795SOL     OW18283   0.659   1.976   1.341  0.1290 -0.2593 -0.4470
 5795SOL    HW118284   0.684   2.010   1.432 -0.0702  0.9301 -0.8278
 5795SOL    HW218285   0.733   1.995   1.277 -0.8351  1.4255 -1.1259
 5796SOL     OW18286   3.843   3.800   2.811 -0.5268 -0.2456  0.3526
 5796SOL    HW118287   3.928   3.754   2.785 -0.6240 -0.4460  0.3844
 5796SOL    HW218288   3.859   3.855   2.893  0.2718  1.9200 -1.1585
 5797SOL     OW18289   2.514   5.219   5.672 -0.2979  0.2221  0.0209
 5797SOL    HW118290   2.513   5.213   5.772 -0.7628  1.1519  0.0827
 5797SOL    HW218291   2.597   5.267   5.642  0.7903 -1.6725 -0.1705
 5798SOL     OW18292   4.864   4.619   4.591  0.1703  0.2262 -0.2874
 5798SOL    HW118293   4.769   4.593   4.611  0.2773  0.4981  0.6122
 5798SOL    HW218294   4.877   4.624   4.492 -1.7233  3.6061 -0.5159
 5799SOL     OW18295   5.129   0.529   3.679  0.1433 -0.8168 -0.4561
 5799SOL    HW118296   5.073   0.472   3.620 -2.1212 -0.8906  1.6350
 5799SOL    HW218297   5.131   0.491   3.771  0.7891  1.0343  0.3520
 5800SOL     OW18298   6.846   6.946   0.178  0.2627  0.2376  0.0362
 5800SOL    HW118299   6.884   7.035   0.206 -1.4327  0.7910  0.7151
 5800SOL    HW218300   6.779   6.960   0.105 -0.2668 -0.4328  0.3850
 5801SOL     OW18301   0.239   2.641   1.311 -0.4097 -0.0843 -0.3381
 5801SOL    HW118302   0.311   2.700   1.348  1.0032 -2.8722  1.6807
 5801SOL    HW218303   0.180   2.695   1.251  2.3850  2.6959 -0.8606
 5802SOL     OW18304   6.459   2.086   3.691  0.1282 -0.3036 -0.1058
 5802SOL    HW118305   6.539   2.124   3.738 -1.3764  0.7412  1.7518
 5802SOL    HW218306   6.424   2.008   3.742 -0.4285 -0.3619 -0.5665
 5803SOL     OW18307   1.261   3.786   0.758 -0.3741  0.3076  0.2433
 5803SOL    HW118308   1.189   3.807   0.825 -1.5683  0.5710 -1.0780
 5803SOL    HW218309   1.346   3.765   0.806 -0.8433  1.7846  1.8108
 5804SOL     OW18310   6.004   3.402   4.886  0.3485  0.9258  0.0805
 5804SOL    HW118311   5.912   3.420   4.851  0.7350 -0.2210 -1.6438
 5804SOL    HW218312   5.997   3.353   4.972 -0.6655  0.9500  0.0319
 5805SOL     OW18313   4.980   3.799   1.296 -0.2081  0.4824 -0.1996
 5805SOL    HW118314   5.037   3.797   1.378 -1.5521 -2.2225  0.7826
 5805SOL    HW218315   5.004   3.723   1.236  0.2588  2.0054 -2.0249
 5806SOL     OW18316   0.095   0.471   0.264 -0.4317  0.2204  0.8813
 5806SOL    HW118317   0.171   0.536   0.273 -0.2661  0.3854 -1.3471
 5806SOL    HW218318   0.133   0.378   0.255 -0.3558  0.4196 -1.4632
 5807SOL     OW18319   3.275   3.738   1.771  0.4600 -0.8591  0.4168
 5807SOL    HW118320   3.359   3.779   1.806  0.4686 -1.3593  0.9849
 5807SOL    HW218321   3.244   3.666   1.833  1.1742 -2.6660 -1.2576
 5808SOL     OW18322   5.704   1.789   2.984 -0.1651  0.0691 -0.1380
 5808SOL    HW118323   5.748   1.856   3.045  2.0835 -1.9624  0.6340
 5808SOL    HW218324   5.652   1.724   3.038  1.2934 -1.3524 -0.3803
 5809SOL     OW18325   1.033   3.376   3.013 -0.4095 -0.6735 -0.2119
 5809SOL    HW118326   1.036   3.338   3.106 -1.4859 -1.9772 -0.6798
 5809SOL    HW218327   0.938   3.391   2.987 -0.2050 -1.6827 -1.6321
 5810SOL     OW18328   5.396   0.251   2.355  0.0186  0.5621  0.4762
 5810SOL    HW118329   5.494   0.229   2.358  0.5178  2.3925 -0.6290
 5810SOL    HW218330   5.385   0.350   2.343 -1.9247  0.2146 -1.1067
 5811SOL     OW18331   3.079   6.718   1.157  0.7922  0.1545  0.3814
 5811SOL    HW118332   3.145   6.644   1.162 -0.5951 -1.0649  2.5706
 5811SOL    HW218333   3.108   6.785   1.089  2.3414 -2.1396 -1.3686
 5812SOL     OW18334   5.473   1.757   5.259  0.0545  0.2006  0.0073
 5812SOL    HW118335   5.530   1.694   5.207 -1.8499 -0.6847 -1.0976
 5812SOL    HW218336   5.449   1.715   5.347  1.0815  0.6082  0.5125
 5813SOL     OW18337   1.857   2.258   4.600 -0.1997 -0.5085  1.1042
 5813SOL    HW118338   1.929   2.313   4.644  0.7706  0.0675 -1.0604
 5813SOL    HW218339   1.787   2.235   4.667  1.2948  0.1269  2.9710
 5814SOL     OW18340   0.525   5.906   2.637 -0.5692  0.2196  0.0508
 5814SOL    HW118341   0.427   5.927   2.633 -0.9746 -1.6667 -0.9484
 5814SOL    HW218342   0.559   5.889   2.544  1.1197  2.3761  0.1772
 5815SOL     OW18343   3.933   0.247   1.094  0.2523  0.5282  0.0324
 5815SOL    HW118344   3.941   0.280   1.188 -0.3703  0.2327  0.1996
 5815SOL    HW218345   3.910   0.149   1.096  2.8706 -0.1506 -0.4455
 5816SOL     OW18346   6.271   6.727   1.241  0.3851 -0.5280 -0.7002
 5816SOL    HW118347   6.187   6.694   1.285  1.5118 -2.5266  0.1137
 5816SOL    HW218348   6.254   6.816   1.200 -2.1174 -0.8418 -0.5408
 5817SOL     OW18349   5.425   3.602   4.060  0.4913  0.2550 -0.2207
 5817SOL    HW118350   5.359   3.554   4.118  1.0345  0.4016  0.5409
 5817SOL    HW218351   5.386   3.690   4.032  0.8199  0.9381  1.3098
 5818SOL     OW18352   4.547   6.580   4.484 -0.2049  0.5629 -0.1897
 5818SOL    HW118353   4.486   6.578   4.405  0.6945  1.4524 -0.9292
 5818SOL    HW218354   4.630   6.632   4.462 -0.4460  1.8597  1.6981
 5819SOL     OW18355   5.867   0.227   1.411  0.3970 -0.5083  0.8354
 5819SOL    HW118356   5.920   0.259   1.489 -0.8645 -0.9338  1.9211
 5819SOL    HW218357   5.777   0.196   1.443 -0.9339  1.1547 -1.0294
 5820SOL     OW18358   4.857   4.683   2.260 -0.3083  0.4860  0.2455
 5820SOL    HW118359   4.878   4.586   2.273 -2.3562 -0.1122 -0.5435
 5820SOL    HW218360   4.845   4.727   2.349  0.9578  0.1148  0.6161
 5821SOL     OW18361   2.424   5.994   1.281  0.3638  0.4616 -0.5125
 5821SOL    HW118362   2.459   6.037   1.365 -1.1861  1.9474 -0.5664
 5821SOL    HW218363   2.369   6.060   1.230 -2.0471 -1.5189 -0.6942
 5822SOL     OW18364   1.952   1.392   2.172  0.2350  0.6583 -0.0410
 5822SOL    HW118365   1.985   1.475   2.128  0.9717 -0.4634 -1.7190
 5822SOL    HW218366   2.017   1.362   2.242  1.4560 -0.0204 -1.4078
 5823SOL     OW18367   6.372   3.524   3.603 -0.0004  0.3970 -0.6293
 5823SOL    HW118368   6.364   3.602   3.664  0.7652  0.6752 -0.8772
 5823SOL    HW218369   6.281   3.486   3.586 -0.1474 -0.4586  1.6730
 5824SOL     OW18370   6.717   6.904   3.485 -0.3745  0.2555 -0.5491
 5824SOL    HW118371   6.661   6.947   3.556  2.1527  0.4643  1.4362
 5824SOL    HW218372   6.732   6.808   3.509  2.6413  0.9463  0.7253
 5825SOL     OW18373   2.592   1.372   0.642  0.0599  0.0654 -0.2413
 5825SOL    HW118374   2.651   1.443   0.602 -1.9850  1.0350 -1.6938
 5825SOL    HW218375   2.605   1.286   0.593  1.2101 -0.1265  0.3473
 5826SOL     OW18376   0.213   0.761   1.314 -0.4808 -0.3496  0.5626
 5826SOL    HW118377   0.174   0.836   1.368 -0.3851  0.0714  0.0467
 5826SOL    HW218378   0.300   0.733   1.355  0.3055  0.9278 -0.1769
 5827SOL     OW18379   2.206   4.751   4.207 -0.0702  0.2585 -0.3774
 5827SOL    HW118380   2.297   4.713   4.223 -0.4837 -1.5833 -2.0083
 5827SOL    HW218381   2.142   4.713   4.275  0.0389  0.1114 -0.3561
 5828SOL     OW18382   1.280   1.828   2.439  0.6566  0.0576 -0.4767
 5828SOL    HW118383   1.365   1.784   2.412  1.2188  0.4803  0.5403
 5828SOL    HW218384   1.203   1.769   2.416  1.3726 -1.3614  0.6155
 5829SOL     OW18385   0.536   1.527   2.064 -0.4406  0.1997  0.1223
 5829SOL    HW118386   0.515   1.607   2.008 -0.8992 -0.7877 -1.1928
 5829SOL    HW218387   0.457   1.467   2.067  0.8619 -1.8104 -1.8090
 5830SOL     OW18388   1.741   2.009   0.703  0.0557  0.8220 -0.1025
 5830SOL    HW118389   1.812   1.945   0.731 -0.7656 -0.1837 -0.2794
 5830SOL    HW218390   1.673   2.017   0.776 -0.6483  0.3045 -0.6913
 5831SOL     OW18391   0.074   5.988   2.660  0.4357 -0.6519  0.0326
 5831SOL    HW118392   0.135   5.991   2.739  0.8693 -0.6165 -0.3011
 5831SOL    HW218393   0.114   6.040   2.584 -0.4902  0.2653  0.1408
 5832SOL     OW18394   4.194   2.285   6.131 -0.0167  0.6759  0.4615
 5832SOL    HW118395   4.225   2.199   6.090 -0.2667  1.3157 -1.1728
 5832SOL    HW218396   4.274   2.341   6.155  0.1440  0.5926  0.1354
 5833SOL     OW18397   4.047   3.368   3.603  0.0379 -0.5507  0.1004
 5833SOL    HW118398   4.105   3.382   3.523 -1.6341  3.7366 -0.6397
 5833SOL    HW218399   3.952   3.358   3.574 -0.3436 -1.3667  1.5145
 5834SOL     OW18400   4.805   1.935   6.134 -0.2090  0.0873  0.1017
 5834SOL    HW118401   4.855   1.865   6.184  0.7347  0.3574 -0.4277
 5834SOL    HW218402   4.834   1.934   6.038 -2.3513 -0.7692 -0.5877
 5835SOL     OW18403   6.644   3.864   4.666  0.4119 -0.1467 -0.9193
 5835SOL    HW118404   6.627   3.962   4.679 -0.6608 -0.5581  1.2372
 5835SOL    HW218405   6.666   3.846   4.570  0.3927  2.1581 -1.4039
 5836SOL     OW18406   3.007   6.155   5.123  0.1410 -0.6447  0.2751
 5836SOL    HW118407   3.047   6.233   5.171  1.2233 -0.1879 -1.3170
 5836SOL    HW218408   2.919   6.181   5.084  1.1239  0.2514 -1.4331
 5837SOL     OW18409   3.145   3.296   4.927  0.5895  0.0550  0.3883
 5837SOL    HW118410   3.126   3.297   5.025 -1.3127 -0.9657  0.0893
 5837SOL    HW218411   3.213   3.226   4.907  2.5728  1.6779  1.1689
 5838SOL     OW18412   2.195   3.278   5.971  0.3994  0.0222 -0.1505
 5838SOL    HW118413   2.099   3.261   5.994  0.5812 -0.8271  0.0268
 5838SOL    HW218414   2.220   3.223   5.891  1.1943 -1.1197  0.8353
 5839SOL     OW18415   6.132   3.092   2.583  0.0006  0.3580 -0.3202
 5839SOL    HW118416   6.133   3.014   2.521  0.9431 -1.1338  1.4690
 5839SOL    HW218417   6.214   3.149   2.567  1.1260 -0.9377  0.5903
 5840SOL     OW18418   3.683   6.695   6.727 -0.4722 -0.6745  0.5998
 5840SOL    HW118419   3.730   6.640   6.796 -1.6902 -0.3291  1.7584
 5840SOL    HW218420   3.693   6.792   6.749  2.1869 -0.2872 -1.7656
 5841SOL     OW18421   6.760   2.430   3.391 -0.0118 -0.1008  0.3547
 5841SOL    HW118422   6.674   2.396   3.352 -0.6341  0.0545  1.5450
 5841SOL    HW218423   6.764   2.529   3.383  0.1104 -0.1189  0.1921
 5842SOL     OW18424   5.027   2.187   1.037 -0.1535 -1.1060 -0.0135
 5842SOL    HW118425   4.978   2.119   1.092 -1.1670  0.1500  0.7031
 5842SOL    HW218426   4.965   2.263   1.016  1.4872  0.5803  0.9908
 5843SOL     OW18427   0.347   2.502   1.035 -0.1681  0.3573 -0.2704
 5843SOL    HW118428   0.312   2.466   1.121 -0.8269  0.0890 -0.6439
 5843SOL    HW218429   0.421   2.566   1.053  1.3534 -1.4854  0.4179
 5844SOL     OW18430   1.581   1.669   5.923 -0.0913  0.3855 -0.4456
 5844SOL    HW118431   1.633   1.711   5.850 -0.6499 -0.4936 -1.3792
 5844SOL    HW218432   1.577   1.731   6.002  2.1371  0.5697 -0.4167
 5845SOL     OW18433   1.592   6.533   3.268  0.1454 -0.1553 -0.1798
 5845SOL    HW118434   1.601   6.470   3.191  1.7943  1.5486 -1.4731
 5845SOL    HW218435   1.625   6.488   3.351 -0.8848 -1.7375 -0.5803
 5846SOL     OW18436   5.428   4.165   6.427  0.1681  0.1108 -0.3171
 5846SOL    HW118437   5.478   4.176   6.342  1.3211  1.0367  0.4392
 5846SOL    HW218438   5.471   4.221   6.498  0.1402 -1.7692  1.2563
 5847SOL     OW18439   0.811   1.607   3.634 -0.1529  0.0776 -0.1354
 5847SOL    HW118440   0.907   1.588   3.652  0.4105  0.8266 -2.0751
 5847SOL    HW218441   0.758   1.523   3.640  0.8545 -0.5828 -0.3678
 5848SOL     OW18442   1.680   2.159   4.807 -0.2541  0.4049 -0.1274
 5848SOL    HW118443   1.637   2.213   4.878  0.5040 -1.5865  1.9572
 5848SOL    HW218444   1.612   2.130   4.740 -1.6423 -0.3413  1.5486
 5849SOL     OW18445   0.505   1.960   5.562 -0.3754  0.6540 -0.3228
 5849SOL    HW118446   0.471   2.031   5.500  0.0431  0.3716 -0.8930
 5849SOL    HW218447   0.470   1.976   5.654 -0.0457  1.7746 -0.3708
 5850SOL     OW18448   7.004   6.579   3.050  0.3184 -0.1193 -0.4904
 5850SOL    HW118449   6.944   6.519   3.103  2.1633  0.6214  2.7208
 5850SOL    HW218450   6.966   6.672   3.048  0.7980  0.1152  0.6340
 5851SOL     OW18451   6.357   3.255   2.534  0.2816 -0.2743  0.2455
 5851SOL    HW118452   6.327   3.345   2.503  2.1676 -0.1590 -1.4247
 5851SOL    HW218453   6.407   3.210   2.461  0.6304 -2.0975  1.5537
 5852SOL     OW18454   5.617   5.156   2.782  0.4018  0.3190 -0.3074
 5852SOL    HW118455   5.579   5.158   2.875  1.2542  0.3981  0.0541
 5852SOL    HW218456   5.700   5.212   2.779  0.4884  0.1638 -1.0725
 5853SOL     OW18457   5.587   5.189   5.842 -0.2597  0.9822  0.0383
 5853SOL    HW118458   5.567   5.210   5.938  2.2349 -2.9969  1.7085
 5853SOL    HW218459   5.545   5.102   5.818 -1.1357  2.0735 -2.7256
 5854SOL     OW18460   0.024   1.327   1.143  0.0139  0.2791 -0.1064
 5854SOL    HW118461   0.004   1.415   1.100  1.4003  0.5351 -0.2971
 5854SOL    HW218462   0.099   1.338   1.208  2.5478 -1.2539 -2.4889
 5855SOL     OW18463   1.805   1.433   4.855  0.7199  0.0319 -0.0862
 5855SOL    HW118464   1.810   1.426   4.755 -0.3489 -2.5914 -0.0418
 5855SOL    HW218465   1.774   1.525   4.880  4.0090  1.8436 -1.9491
 5856SOL     OW18466   0.474   5.391   2.586 -0.3577  0.1021 -0.6205
 5856SOL    HW118467   0.518   5.306   2.614 -1.1314 -0.5092 -1.2098
 5856SOL    HW218468   0.492   5.462   2.654  0.1898 -0.5677 -0.0514
 5857SOL     OW18469   1.541   2.710   5.986 -0.2945 -0.3305 -0.6626
 5857SOL    HW118470   1.458   2.656   6.002 -0.7206  0.1677 -1.1606
 5857SOL    HW218471   1.526   2.773   5.910  0.7279 -0.6124 -1.1122
 5858SOL     OW18472   2.242   6.965   4.084  0.4114 -0.3413 -0.2234
 5858SOL    HW118473   2.338   6.964   4.054  0.8921 -3.6273  0.9889
 5858SOL    HW218474   2.238   6.980   4.182 -0.3066 -0.5608 -0.2155
 5859SOL     OW18475   5.400   4.523   6.719 -0.2181 -0.0268  0.1834
 5859SOL    HW118476   5.314   4.478   6.696 -0.3010  1.0932 -1.8979
 5859SOL    HW218477   5.458   4.460   6.771 -1.4029 -1.5360 -0.2583
 5860SOL     OW18478   6.658   4.423   6.843  0.2077  0.2307 -0.2375
 5860SOL    HW118479   6.573   4.457   6.882  0.7392 -0.1848  1.3776
 5860SOL    HW218480   6.645   4.328   6.814  0.6076 -0.5857  1.9858
 5861SOL     OW18481   6.147   2.210   5.739  0.5052  0.3245 -0.1990
 5861SOL    HW118482   6.184   2.303   5.735 -1.6979  1.4773  2.6260
 5861SOL    HW218483   6.063   2.205   5.685 -0.3063  0.5269  1.0041
 5862SOL     OW18484   5.285   5.818   3.375  0.0853  0.0347 -0.3000
 5862SOL    HW118485   5.345   5.785   3.448  1.6297  0.7940 -1.1787
 5862SOL    HW218486   5.282   5.918   3.377  0.8825  0.1209 -1.7942
 5863SOL     OW18487   2.633   3.396   0.365  0.1598  0.2383  0.2869
 5863SOL    HW118488   2.587   3.475   0.324  0.6748  0.8368  0.8369
 5863SOL    HW218489   2.725   3.387   0.326 -0.2629 -0.7292 -0.5353
 5864SOL     OW18490   4.574   5.665   6.900 -0.9240  0.1711 -0.5885
 5864SOL    HW118491   4.627   5.652   6.817 -0.4732  0.2238 -0.3119
 5864SOL    HW218492   4.583   5.583   6.958  3.0322  1.9923  1.7945
 5865SOL     OW18493   4.613   1.597   2.952  0.1073  0.0096  0.1767
 5865SOL    HW118494   4.638   1.517   3.007  3.8508  0.2874 -0.8479
 5865SOL    HW218495   4.677   1.672   2.971 -0.7387  1.3379 -1.8781
 5866SOL     OW18496   3.147   2.196   0.322 -0.5790  0.4081  0.3571
 5866SOL    HW118497   3.084   2.271   0.340  2.6810  2.7028  3.5346
 5866SOL    HW218498   3.198   2.214   0.238 -1.6557  0.3307 -0.3247
 5867SOL     OW18499   0.385   2.760   0.809  0.1831  0.4895 -0.3814
 5867SOL    HW118500   0.380   2.857   0.784  0.3567  0.3037 -1.1686
 5867SOL    HW218501   0.474   2.741   0.851 -0.7182  1.1490  1.9634
 5868SOL     OW18502   1.506   4.659   5.616  0.4979 -0.7471 -0.8427
 5868SOL    HW118503   1.440   4.604   5.667 -0.0771 -0.2928 -1.0822
 5868SOL    HW218504   1.537   4.735   5.673 -1.3528  0.6997 -1.6505
 5869SOL     OW18505   2.662   5.757   3.608 -0.4856  0.0174 -0.6556
 5869SOL    HW118506   2.704   5.847   3.623  2.8747 -1.7355  1.5314
 5869SOL    HW218507   2.678   5.728   3.513 -1.1294  1.4053 -1.2231
 5870SOL     OW18508   4.324   4.613   5.992  0.4649  0.4603 -0.6280
 5870SOL    HW118509   4.411   4.661   5.997  0.2785  0.7685 -0.3860
 5870SOL    HW218510   4.263   4.646   6.063 -0.7437  2.0284 -2.2972
 5871SOL     OW18511   4.001   4.772   6.788 -0.5422  0.0261  0.2798
 5871SOL    HW118512   3.951   4.856   6.811  0.8850  1.2523 -0.8599
 5871SOL    HW218513   4.060   4.790   6.709 -0.3150 -2.1210 -0.0805
 5872SOL     OW18514   4.425   6.350   5.678 -0.5936 -0.4186  0.3884
 5872SOL    HW118515   4.389   6.424   5.621  1.2827  0.2893  0.0464
 5872SOL    HW218516   4.415   6.263   5.629  0.9396  0.1696 -1.0808
 5873SOL     OW18517   3.262   4.711   0.643 -0.5191  0.1754 -0.0387
 5873SOL    HW118518   3.255   4.763   0.557 -0.9888  0.1188 -0.0362
 5873SOL    HW218519   3.197   4.635   0.641  1.3846 -1.5332 -0.8073
 5874SOL     OW18520   1.709   5.450   0.685  0.1831  0.0485 -0.2946
 5874SOL    HW118521   1.663   5.415   0.603  0.4854  1.5610 -1.1509
 5874SOL    HW218522   1.653   5.431   0.765 -0.2044 -1.3129 -0.8516
 5875SOL     OW18523   4.661   2.802   1.431 -0.3234 -0.1675  0.4629
 5875SOL    HW118524   4.673   2.776   1.526  1.9598  0.4016  0.3882
 5875SOL    HW218525   4.614   2.890   1.425  0.7325  0.4430  1.1222
 5876SOL     OW18526   4.586   3.728   5.383  0.2215 -0.3899  0.3914
 5876SOL    HW118527   4.613   3.689   5.471  2.5904  0.9312  0.3429
 5876SOL    HW218528   4.634   3.680   5.310 -1.2762 -1.0825 -0.1672
 5877SOL     OW18529   6.899   5.213   2.840  0.6329  0.1647 -0.6234
 5877SOL    HW118530   6.896   5.135   2.902  0.3260 -0.7639 -1.7847
 5877SOL    HW218531   6.943   5.290   2.887  0.6683 -0.5899  0.6429
 5878SOL     OW18532   5.027   5.259   2.529 -0.0037  0.2718 -0.3944
 5878SOL    HW118533   5.025   5.339   2.588 -0.9495  1.0156 -1.3946
 5878SOL    HW218534   5.099   5.269   2.460  0.1940  0.0385 -0.2235
 5879SOL     OW18535   3.997   6.643   0.992 -0.7558  0.6703 -0.0459
 5879SOL    HW118536   4.033   6.721   0.941 -0.0381  1.3493  1.4307
 5879SOL    HW218537   4.070   6.576   1.006 -1.2023  0.0178 -0.7358
 5880SOL     OW18538   5.003   0.846   1.856 -0.4068  0.6969  0.3468
 5880SOL    HW118539   5.056   0.767   1.887 -0.0164  1.0839  0.6797
 5880SOL    HW218540   4.963   0.826   1.766 -2.0071 -0.6298  1.3180
 5881SOL     OW18541   0.483   0.500   4.407  0.3744 -0.0050  0.2054
 5881SOL    HW118542   0.478   0.571   4.478  0.8046  0.7018 -0.4544
 5881SOL    HW218543   0.485   0.543   4.317  4.0535 -0.6306 -0.1665
 5882SOL     OW18544   0.769   4.833   4.932  0.2176 -0.1642 -0.1518
 5882SOL    HW118545   0.692   4.844   4.995 -0.3474 -0.7791 -0.7164
 5882SOL    HW218546   0.786   4.920   4.885 -0.3037 -0.0787 -0.1984
 5883SOL     OW18547   6.233   5.181   5.292 -0.2764  0.0252 -0.4093
 5883SOL    HW118548   6.300   5.254   5.308  0.9272 -0.6396 -2.1519
 5883SOL    HW218549   6.172   5.174   5.371  0.4716  1.9565  0.3927
 5884SOL     OW18550   0.997   1.401   2.067  0.1597 -0.8015  0.4541
 5884SOL    HW118551   1.019   1.418   2.163 -0.3671  2.1042  0.1484
 5884SOL    HW218552   0.904   1.364   2.060 -0.0128 -0.4741  1.0270
 5885SOL     OW18553   5.754   0.320   3.486 -0.0241 -0.8490  0.6389
 5885SOL    HW118554   5.813   0.240   3.492  3.1440  1.1356 -1.0281
 5885SOL    HW218555   5.730   0.336   3.390  2.3530  1.9737  0.3647
 5886SOL     OW18556   0.572   3.172   1.997 -0.6857  0.1806 -0.2148
 5886SOL    HW118557   0.597   3.258   2.041  0.5231  0.7466 -1.8786
 5886SOL    HW218558   0.504   3.189   1.925 -2.0512 -0.6045  0.8440
 5887SOL     OW18559   2.070   3.473   2.225  0.2051 -0.4044 -0.0850
 5887SOL    HW118560   2.146   3.466   2.160  0.0166 -1.2327 -0.2273
 5887SOL    HW218561   2.098   3.529   2.303  0.9934 -0.7640 -0.1006
 5888SOL     OW18562   3.397   6.706   1.040  0.0836  0.2727  0.0938
 5888SOL    HW118563   3.458   6.684   0.965  0.7792  0.9999  0.4356
 5888SOL    HW218564   3.324   6.767   1.008 -0.1041 -0.0900 -0.1721
 5889SOL     OW18565   2.772   0.582   1.496 -1.0082  0.3399 -0.1591
 5889SOL    HW118566   2.775   0.658   1.431 -0.9707 -0.5636 -1.2386
 5889SOL    HW218567   2.768   0.496   1.447  4.2267 -0.7851  0.8113
 5890SOL     OW18568   4.137   4.548   1.747  0.1456  0.3439 -0.7446
 5890SOL    HW118569   4.097   4.637   1.767 -0.4420 -0.1160  0.2360
 5890SOL    HW218570   4.233   4.547   1.776 -0.0729  0.4151  0.0097
 5891SOL     OW18571   1.356   4.496   5.742 -0.1297  0.6704 -0.7009
 5891SOL    HW118572   1.377   4.500   5.839 -0.2180  2.6995 -0.7109
 5891SOL    HW218573   1.300   4.416   5.722  1.0398 -0.5273  0.6557
 5892SOL     OW18574   1.875   1.860   2.808  0.0813 -0.5116  0.1071
 5892SOL    HW118575   1.777   1.860   2.791  0.0622  1.3375  0.0108
 5892SOL    HW218576   1.915   1.775   2.775 -1.2024 -0.4766 -1.6645
 5893SOL     OW18577   6.406   5.569   1.360  0.5368  0.0825 -0.2011
 5893SOL    HW118578   6.430   5.660   1.392 -0.4880 -0.2370  1.6034
 5893SOL    HW218579   6.307   5.564   1.344  0.3858 -1.0360  0.9455
 5894SOL     OW18580   3.918   6.851   0.494  0.0637  0.6818 -0.0186
 5894SOL    HW118581   3.879   6.934   0.453  0.2751  1.4783  1.3481
 5894SOL    HW218582   4.017   6.852   0.481  0.0403  0.5122 -0.2184
 5895SOL     OW18583   5.958   1.202   2.512  0.3696  1.1092  0.0898
 5895SOL    HW118584   5.937   1.153   2.428  0.2852  1.2435  0.0313
 5895SOL    HW218585   5.888   1.272   2.528  0.0371  0.6607  0.6074
 5896SOL     OW18586   4.430   1.212   0.112 -0.5755  0.6530 -0.1678
 5896SOL    HW118587   4.394   1.293   0.065 -1.1437  0.8660  0.6218
 5896SOL    HW218588   4.525   1.229   0.138 -0.0693  0.3184 -1.7149
 5897SOL     OW18589   2.114   4.225   5.963  0.1111  0.2769  0.0704
 5897SOL    HW118590   2.054   4.154   6.000  0.2904  0.1966  0.2079
 5897SOL    HW218591   2.071   4.266   5.883 -0.1511  0.2544  0.1986
 5898SOL     OW18592   4.067   5.359   6.561  0.0653  0.1605 -0.0665
 5898SOL    HW118593   4.148   5.326   6.514 -0.5574 -1.3749 -0.1222
 5898SOL    HW218594   4.093   5.395   6.651  0.8454 -0.0744 -0.1939
 5899SOL     OW18595   1.739   1.467   0.613  0.4183 -0.0961 -0.1535
 5899SOL    HW118596   1.756   1.564   0.592 -0.2743  0.4398  1.6134
 5899SOL    HW218597   1.646   1.442   0.583  0.3329 -0.0185  0.0487
 5900SOL     OW18598   4.720   1.113   0.973 -0.6842 -0.4683 -0.2353
 5900SOL    HW118599   4.690   1.080   1.062  0.8330 -0.1918  0.4108
 5900SOL    HW218600   4.741   1.036   0.914  0.0447 -0.6737  0.2785
 5901SOL     OW18601   7.014   0.939   5.844  0.0331  0.7618  0.0705
 5901SOL    HW118602   6.926   0.899   5.869  0.5072 -0.3835 -0.0407
 5901SOL    HW218603   7.087   0.873   5.860  1.2220  2.5034  2.5231
 5902SOL     OW18604   4.590   5.454   5.630  0.0040  0.4185 -0.1771
 5902SOL    HW118605   4.686   5.430   5.617 -0.0177 -0.7753  1.5233
 5902SOL    HW218606   4.532   5.387   5.582 -0.0032  1.3653 -1.5335
 5903SOL     OW18607   3.907   2.053   6.348 -0.5460  0.2496  0.3135
 5903SOL    HW118608   3.905   2.127   6.281 -0.7026 -0.4282 -0.4529
 5903SOL    HW218609   3.991   2.059   6.402  1.3297 -1.0976 -2.2035
 5904SOL     OW18610   6.393   3.918   0.366 -0.2425  0.3320 -0.8235
 5904SOL    HW118611   6.407   3.949   0.271  1.3497  0.8493 -0.4513
 5904SOL    HW218612   6.340   3.834   0.366  0.8606 -0.4135 -2.2864
 5905SOL     OW18613   5.408   0.285   6.889  0.0185  0.0182 -0.0543
 5905SOL    HW118614   5.339   0.304   6.819 -1.2589 -0.6745  0.9857
 5905SOL    HW218615   5.435   0.189   6.883  0.3172  0.0932  0.0595
 5906SOL     OW18616   5.584   1.455   5.121  0.4680 -0.1308 -0.4851
 5906SOL    HW118617   5.601   1.360   5.096 -0.0335 -0.1197 -0.8872
 5906SOL    HW218618   5.491   1.481   5.094 -0.0932 -0.0993  1.3600
 5907SOL     OW18619   2.146   2.228   6.068 -0.5198  0.1030  0.7603
 5907SOL    HW118620   2.206   2.303   6.043 -0.8653  0.6420  1.4885
 5907SOL    HW218621   2.105   2.247   6.158 -2.3892  0.1389 -0.0613
 5908SOL     OW18622   6.912   2.378   0.056  0.2832  0.1145  0.1865
 5908SOL    HW118623   6.973   2.449   0.021  1.5241 -0.6823  0.7074
 5908SOL    HW218624   6.953   2.333   0.135 -0.5603 -1.0757 -0.0210
 5909SOL     OW18625   5.159   4.951   3.703  0.0121 -0.1022  0.0381
 5909SOL    HW118626   5.247   4.992   3.728  0.2641 -0.2709 -0.5394
 5909SOL    HW218627   5.175   4.877   3.637 -0.6730  0.8950 -1.3038
 5910SOL     OW18628   1.877   4.013   3.625 -0.0221 -0.1795  0.4357
 5910SOL    HW118629   1.846   3.956   3.550  1.8016  0.7489 -1.0940
 5910SOL    HW218630   1.967   3.983   3.656  0.3906  1.0354  0.4800
 5911SOL     OW18631   5.702   1.430   4.436 -0.0416 -0.3432 -0.4330
 5911SOL    HW118632   5.659   1.432   4.345 -1.3611 -1.5173  0.1157
 5911SOL    HW218633   5.740   1.339   4.452  0.8202  0.0755 -0.0768
 5912SOL     OW18634   0.096   2.189   5.568 -0.3673  0.2088  0.1567
 5912SOL    HW118635   0.008   2.174   5.612  0.1539  0.2207  1.2552
 5912SOL    HW218636   0.123   2.108   5.516 -0.3631 -0.3563  1.0236
 5913SOL     OW18637   2.669   0.867   4.090  0.3561  0.5415 -0.0169
 5913SOL    HW118638   2.738   0.863   4.018  0.8266  1.2832  0.3773
 5913SOL    HW218639   2.694   0.803   4.163 -0.0703 -0.1398 -0.4556
 5914SOL     OW18640   0.428   4.666   1.706 -0.5276  0.2293 -0.2214
 5914SOL    HW118641   0.378   4.737   1.656  0.5468  1.1915  0.0206
 5914SOL    HW218642   0.370   4.629   1.778 -0.5303  2.1650  0.8304
 5915SOL     OW18643   5.558   2.610   6.266  0.4092 -0.3766  0.0031
 5915SOL    HW118644   5.511   2.616   6.178 -0.4929 -1.0442  0.4313
 5915SOL    HW218645   5.654   2.587   6.250  0.7846  1.5775 -0.9070
 5916SOL     OW18646   2.704   0.621   6.940  0.0537  0.1944 -0.2290
 5916SOL    HW118647   2.746   0.532   6.957 -0.6912 -0.2582 -0.6512
 5916SOL    HW218648   2.628   0.635   7.004  0.0266  0.4233 -0.3082
 5917SOL     OW18649   2.680   2.759   1.723 -0.5963  0.2956 -0.2026
 5917SOL    HW118650   2.708   2.674   1.678  2.2483  0.6103  0.7100
 5917SOL    HW218651   2.600   2.741   1.781 -0.8373 -1.4441 -1.0032
 5918SOL     OW18652   2.931   2.161   5.012 -0.1547 -0.4283  0.3697
 5918SOL    HW118653   2.901   2.182   5.105 -0.1913  0.4336  0.1753
 5918SOL    HW218654   3.026   2.191   5.000 -0.2145 -0.3588  0.0708
 5919SOL     OW18655   1.818   0.850   4.107 -0.1513  0.1579 -0.9671
 5919SOL    HW118656   1.867   0.772   4.068 -1.3098 -1.2682  0.2987
 5919SOL    HW218657   1.811   0.838   4.206 -2.5003  0.6036 -1.0231
 5920SOL     OW18658   6.284   3.168   5.489  0.1041  0.4401 -0.2653
 5920SOL    HW118659   6.214   3.099   5.507 -0.8530  1.5783  0.5516
 5920SOL    HW218660   6.374   3.128   5.503 -0.4226 -0.6857  0.0209
 5921SOL     OW18661   3.507   0.170   4.990 -0.0159 -0.1411  0.0980
 5921SOL    HW118662   3.537   0.135   5.079  1.5345  1.6968  0.3572
 5921SOL    HW218663   3.445   0.248   5.005  1.2547  0.9990 -0.3677
 5922SOL     OW18664   5.999   5.337   2.654  0.0451  0.6080 -0.7668
 5922SOL    HW118665   5.989   5.437   2.650 -3.9718  0.4028  0.3417
 5922SOL    HW218666   6.037   5.304   2.568  1.8834  3.0422 -1.0182
 5923SOL     OW18667   1.269   6.550   2.919  0.3285  1.1385 -0.1553
 5923SOL    HW118668   1.218   6.635   2.908 -0.8944  0.8173  2.3243
 5923SOL    HW218669   1.324   6.533   2.837 -1.3038  2.9910 -1.7354
 5924SOL     OW18670   5.569   1.863   4.532  0.5231 -0.6225  0.1860
 5924SOL    HW118671   5.564   1.839   4.435 -2.4477 -0.4296  0.2076
 5924SOL    HW218672   5.537   1.786   4.588  2.0475 -0.6743  1.0411
 5925SOL     OW18673   6.245   1.063   0.066  0.1189 -0.3703  0.1198
 5925SOL    HW118674   6.173   1.126   0.097  0.3177  0.3097 -0.7489
 5925SOL    HW218675   6.214   0.969   0.077 -0.0310 -0.1626  1.8320
 5926SOL     OW18676   2.156   1.979   1.850 -0.4177 -0.0751 -0.0176
 5926SOL    HW118677   2.243   1.950   1.811 -0.6725  1.3602 -1.7562
 5926SOL    HW218678   2.162   1.975   1.950  1.4251 -0.6051 -0.1117
 5927SOL     OW18679   2.861   4.943   0.678  0.2050 -0.1154 -0.2339
 5927SOL    HW118680   2.925   4.900   0.742 -0.7886 -0.0102  0.8574
 5927SOL    HW218681   2.781   4.884   0.666  0.0589  0.1970 -0.8339
 5928SOL     OW18682   0.864   1.296   2.690 -0.0693 -0.0736  0.4474
 5928SOL    HW118683   0.809   1.295   2.606  1.2665 -0.0811 -0.4608
 5928SOL    HW218684   0.901   1.204   2.706 -1.1621 -0.3388  1.6627
 5929SOL     OW18685   6.190   0.158   5.098  0.0079  0.3191 -0.2900
 5929SOL    HW118686   6.257   0.126   5.165  0.4676  2.1386  0.1639
 5929SOL    HW218687   6.129   0.225   5.140 -0.3630  0.7196 -1.4056
 5930SOL     OW18688   0.435   1.656   5.812  0.0108 -0.0041 -0.0108
 5930SOL    HW118689   0.506   1.644   5.881  2.2972  1.0471 -2.0489
 5930SOL    HW218690   0.389   1.569   5.796  0.3654 -0.5617  1.8085
 5931SOL     OW18691   0.037   3.580   0.255  0.6102 -0.2328 -0.2215
 5931SOL    HW118692  -0.013   3.513   0.310  0.8146 -0.5561 -0.4214
 5931SOL    HW218693   0.037   3.668   0.301  0.4372 -0.3997  0.1026
 5932SOL     OW18694   1.427   2.034   0.573  0.4341 -0.2063  0.5191
 5932SOL    HW118695   1.510   2.057   0.522  0.0177 -0.0594 -0.1110
 5932SOL    HW218696   1.437   1.943   0.613  0.6093 -0.5108 -0.1878
 5933SOL     OW18697   4.680   2.488   4.836  0.4389 -0.2868 -0.3706
 5933SOL    HW118698   4.621   2.526   4.907 -2.3743 -0.1287 -2.6391
 5933SOL    HW218699   4.669   2.389   4.833  0.5032 -0.2862 -0.6440
 5934SOL     OW18700   3.793   4.562   0.700 -0.0415  0.3789  0.9794
 5934SOL    HW118701   3.792   4.539   0.797 -0.2174  1.2823  1.1938
 5934SOL    HW218702   3.699   4.578   0.668  0.0090  0.0219  0.6435
 5935SOL     OW18703   4.106   3.410   2.965  0.5101 -0.4259  0.1723
 5935SOL    HW118704   4.062   3.323   2.985 -1.3124  0.3514 -0.2481
 5935SOL    HW218705   4.100   3.470   3.045 -2.5367  0.9723 -0.9590
 5936SOL     OW18706   0.585   4.757   6.713 -0.6377  0.6166  0.3623
 5936SOL    HW118707   0.547   4.805   6.634 -0.3809 -0.5592 -0.5139
 5936SOL    HW218708   0.525   4.680   6.737 -1.0003  1.2851  1.6808
 5937SOL     OW18709   6.626   2.918   6.288 -0.0734  0.1131  0.3991
 5937SOL    HW118710   6.682   2.881   6.362 -2.6165 -0.9445  1.9124
 5937SOL    HW218711   6.601   2.845   6.224  1.2386  0.8259 -1.0175
 5938SOL     OW18712   3.056   5.075   2.370 -0.2135 -0.3346 -0.3350
 5938SOL    HW118713   3.103   4.999   2.326 -0.9298  0.2162 -2.1718
 5938SOL    HW218714   3.039   5.147   2.302 -0.4214  1.0401  1.1244
 5939SOL     OW18715   1.566   5.603   2.132 -0.3962 -0.4026  0.3128
 5939SOL    HW118716   1.579   5.684   2.075  0.5214 -0.1057  0.9183
 5939SOL    HW218717   1.542   5.631   2.225 -1.7496 -0.8778  0.1279
 5940SOL     OW18718   3.986   5.309   3.259  0.4457  0.1764 -0.0945
 5940SOL    HW118719   4.008   5.288   3.355  0.3521 -1.1636 -0.3602
 5940SOL    HW218720   4.011   5.404   3.240 -0.4220  0.7658  1.5196
 5941SOL     OW18721   5.740   4.189   3.458 -0.1644 -0.1186  0.3317
 5941SOL    HW118722   5.671   4.174   3.529 -2.0758  2.3745 -0.8535
 5941SOL    HW218723   5.710   4.148   3.373  0.4481 -0.1075  0.1058
 5942SOL     OW18724   5.047   2.764   6.217  0.2124  0.4858 -0.6842
 5942SOL    HW118725   5.049   2.667   6.192 -0.0265  0.5424 -0.9236
 5942SOL    HW218726   5.076   2.774   6.313 -0.2937  0.1224 -0.4883
 5943SOL     OW18727   2.327   0.108   1.231 -0.0098  0.3558  0.2142
 5943SOL    HW118728   2.232   0.105   1.263  0.5407 -0.1777  1.9063
 5943SOL    HW218729   2.384   0.155   1.299  1.4104 -1.7556  0.5888
 5944SOL     OW18730   5.245   1.482   3.691 -0.3759  0.0333  0.8304
 5944SOL    HW118731   5.252   1.532   3.605  0.9662  1.2795  1.6172
 5944SOL    HW218732   5.234   1.384   3.672 -0.3100  0.3085 -0.7512
 5945SOL     OW18733   6.258   6.903   0.423  0.4328  0.1453 -0.1776
 5945SOL    HW118734   6.329   6.841   0.457  1.0989  0.6045 -0.7255
 5945SOL    HW218735   6.286   6.942   0.336  0.4333  1.9282  0.5811
 5946SOL     OW18736   3.569   1.715   5.906  0.1631  0.1900  0.5313
 5946SOL    HW118737   3.518   1.762   5.834  0.6677  0.2542  0.2082
 5946SOL    HW218738   3.599   1.781   5.974  0.0301  0.1870  0.5946
 5947SOL     OW18739   5.757   5.233   3.810 -0.2594 -0.1984  0.2434
 5947SOL    HW118740   5.695   5.161   3.778 -0.3029 -0.9301  1.8505
 5947SOL    HW218741   5.824   5.254   3.739 -1.2359 -0.6827 -0.8472
 5948SOL     OW18742   3.393   5.414   2.740 -0.1900 -0.7693  0.0991
 5948SOL    HW118743   3.464   5.441   2.806  0.2597 -2.1727  0.2350
 5948SOL    HW218744   3.434   5.402   2.650 -0.0576 -2.3183  0.3301
 5949SOL     OW18745   4.723   4.194   3.171 -0.0516  0.4185  0.0981
 5949SOL    HW118746   4.694   4.215   3.078 -0.8663 -0.3561  0.1587
 5949SOL    HW218747   4.653   4.226   3.236  0.8444  1.6017  0.5035
 5950SOL     OW18748   1.634   3.522   5.482 -0.3659  0.3996 -0.3690
 5950SOL    HW118749   1.631   3.613   5.439 -1.7201  0.9528  0.7909
 5950SOL    HW218750   1.639   3.452   5.412  1.9046  1.3700 -1.2821
 5951SOL     OW18751   4.076   0.708   3.790 -0.2724  0.4281 -0.1732
 5951SOL    HW118752   3.980   0.682   3.777 -0.1750 -0.2247  0.3677
 5951SOL    HW218753   4.085   0.762   3.873 -0.5552  2.7375 -1.5509
 5952SOL     OW18754   5.143   0.346   4.055  0.1834 -0.6353  0.1050
 5952SOL    HW118755   5.074   0.323   3.987  1.7336  0.1597 -1.8676
 5952SOL    HW218756   5.110   0.323   4.146 -2.8642  0.2554 -0.6707
 5953SOL     OW18757   0.516   3.631   5.700  0.0583 -0.4600  0.2313
 5953SOL    HW118758   0.607   3.590   5.708  1.7009  2.8162  0.1793
 5953SOL    HW218759   0.501   3.658   5.605 -0.1803  0.6042  0.5633
 5954SOL     OW18760   2.055   4.236   0.400  0.2505  0.1931 -0.2946
 5954SOL    HW118761   2.071   4.197   0.491 -1.2445  1.7032  0.6565
 5954SOL    HW218762   2.106   4.321   0.392 -0.7226  0.7799 -0.3284
 5955SOL     OW18763   4.162   5.738   2.094  0.7023  0.1251  0.4521
 5955SOL    HW118764   4.181   5.700   2.185 -1.2565 -0.9391  0.4499
 5955SOL    HW218765   4.168   5.666   2.026 -2.4812 -0.1864  0.3736
 5956SOL     OW18766   5.664   0.671   2.611  0.6871 -0.0643  0.6224
 5956SOL    HW118767   5.728   0.748   2.610  0.8303 -0.1800  0.8025
 5956SOL    HW218768   5.572   0.705   2.631  0.1433  0.4960 -2.3941
 5957SOL     OW18769   3.424   0.330   0.451 -0.7460 -0.3451  0.3107
 5957SOL    HW118770   3.495   0.305   0.386 -2.3221 -0.7501 -1.3234
 5957SOL    HW218771   3.389   0.421   0.431 -1.4203 -0.5711  0.4189
 5958SOL     OW18772   1.348   5.836   1.293  0.5181 -0.2584 -0.2774
 5958SOL    HW118773   1.304   5.821   1.382  0.4961  2.4813  0.2679
 5958SOL    HW218774   1.278   5.848   1.223  0.4878  0.0673 -0.1904
 5959SOL     OW18775   2.542   6.624   6.002 -0.1192 -0.4636 -0.0159
 5959SOL    HW118776   2.629   6.667   6.027 -0.4041  1.5081 -2.1112
 5959SOL    HW218777   2.558   6.559   5.928 -0.3279 -0.6060  0.0649
 5960SOL     OW18778   2.871   5.589   5.309 -0.1043  0.0382 -0.1093
 5960SOL    HW118779   2.928   5.611   5.388  1.2596  0.1088 -1.0719
 5960SOL    HW218780   2.814   5.667   5.285  1.1177  0.8312 -0.5331
 5961SOL     OW18781   4.643   0.463   5.935  0.4923  0.1495  0.0372
 5961SOL    HW118782   4.627   0.406   6.015  2.7447  0.4915  0.8238
 5961SOL    HW218783   4.581   0.542   5.937  0.7889  0.3932  1.7300
 5962SOL     OW18784   5.439   6.527   5.517  0.0597 -0.5428  0.5466
 5962SOL    HW118785   5.489   6.517   5.431  0.4226 -1.7090  0.8718
 5962SOL    HW218786   5.411   6.437   5.550 -0.1137 -0.1103  1.6313
 5963SOL     OW18787   4.991   5.535   2.590 -0.3513 -0.5179 -0.1134
 5963SOL    HW118788   5.049   5.595   2.535 -1.4138 -1.6308 -2.5993
 5963SOL    HW218789   4.895   5.546   2.563 -0.7641 -2.0852  0.5569
 5964SOL     OW18790   1.755   3.071   5.503  0.1949  0.2986  0.1160
 5964SOL    HW118791   1.700   3.152   5.525 -2.8431 -1.5341 -0.1720
 5964SOL    HW218792   1.756   3.009   5.581  2.3336  0.4416  0.2630
 5965SOL     OW18793   2.818   0.305   3.766  0.2624 -0.5011 -0.2844
 5965SOL    HW118794   2.908   0.335   3.798  0.2649 -0.3128 -0.4631
 5965SOL    HW218795   2.817   0.205   3.759  0.6505 -0.4733 -0.8454
 5966SOL     OW18796   2.409   4.475   4.021 -0.0476 -0.2895 -0.7463
 5966SOL    HW118797   2.330   4.532   3.997  0.3241  0.7043  0.3195
 5966SOL    HW218798   2.443   4.502   4.111  2.0757 -0.0923 -1.5669
 5967SOL     OW18799   5.251   4.848   0.596 -0.5226  0.1892 -0.3134
 5967SOL    HW118800   5.182   4.857   0.668  0.7721  1.6353  0.8419
 5967SOL    HW218801   5.245   4.926   0.534  0.8617  1.0596  0.5816
 5968SOL     OW18802   1.642   1.190   3.298  0.1481  0.1195 -0.4361
 5968SOL    HW118803   1.737   1.170   3.322  0.3252 -0.4993 -1.5972
 5968SOL    HW218804   1.633   1.194   3.198 -1.0749  0.0713 -0.3403
 5969SOL     OW18805   0.194   2.982   4.269 -0.5105  0.2536  0.0385
 5969SOL    HW118806   0.173   3.001   4.365 -1.7383  1.8216 -0.5091
 5969SOL    HW218807   0.164   2.890   4.246 -0.3843 -0.0640  1.0903
 5970SOL     OW18808   2.241   1.901   4.111  0.4729  0.0145  0.3085
 5970SOL    HW118809   2.257   1.991   4.152  2.1368 -0.2944  0.4127
 5970SOL    HW218810   2.273   1.830   4.173  0.1065 -0.6086 -0.2051
 5971SOL     OW18811   2.913   0.010   4.012  0.7398  0.1948  0.7664
 5971SOL    HW118812   2.923  -0.052   4.090 -1.7457 -1.8169 -0.3827
 5971SOL    HW218813   2.825  -0.007   3.967  1.5104  2.2081 -1.7124
 5972SOL     OW18814   4.894   6.898   1.357 -0.5042  0.0602  0.7330
 5972SOL    HW118815   4.928   6.823   1.300  0.8204  1.1264  0.0493
 5972SOL    HW218816   4.799   6.880   1.383 -0.8416 -0.9293 -1.0123
 5973SOL     OW18817   2.594   6.021   3.462 -0.4584  0.1033 -0.2201
 5973SOL    HW118818   2.680   6.023   3.513 -1.1678 -1.6088  1.1637
 5973SOL    HW218819   2.612   5.991   3.368  0.5059  0.1276 -0.0512
 5974SOL     OW18820   0.687   4.196   0.532  0.3529 -0.0725  0.3766
 5974SOL    HW118821   0.685   4.242   0.443  0.6071 -0.5845  0.1012
 5974SOL    HW218822   0.718   4.260   0.602 -0.9768  0.6840  0.3180
 5975SOL     OW18823   3.210   3.499   5.198 -0.4344  0.2182  0.1218
 5975SOL    HW118824   3.220   3.546   5.110 -3.0708 -0.3789 -0.5772
 5975SOL    HW218825   3.281   3.532   5.261  0.7981  1.5222 -1.8181
 5976SOL     OW18826   3.049   3.303   3.723 -0.0031  0.1974 -0.3664
 5976SOL    HW118827   3.131   3.357   3.739  0.0182 -0.2310  1.1631
 5976SOL    HW218828   3.006   3.281   3.811 -2.1113  0.9515 -1.1411
 5977SOL     OW18829   6.225   3.718   1.889 -0.5193 -0.1318  0.1918
 5977SOL    HW118830   6.314   3.734   1.933 -0.6204 -0.0561  0.3681
 5977SOL    HW218831   6.234   3.644   1.822 -0.8499 -1.7772  1.8664
 5978SOL     OW18832   5.435   4.011   3.029  0.0090  0.1506 -0.4058
 5978SOL    HW118833   5.465   3.918   3.052 -2.0523 -1.3240 -3.1090
 5978SOL    HW218834   5.511   4.061   2.986  0.4206 -1.2274 -1.3429
 5979SOL     OW18835   2.415   0.832   2.629  0.9912 -0.0258  0.0895
 5979SOL    HW118836   2.464   0.905   2.677  1.1828 -0.2545  0.2411
 5979SOL    HW218837   2.347   0.873   2.568  2.6614  0.3596 -1.5644
 5980SOL     OW18838   6.859   3.294   6.097  0.1226 -0.5538 -0.1831
 5980SOL    HW118839   6.931   3.333   6.154 -0.9601  0.3611  0.5991
 5980SOL    HW218840   6.787   3.257   6.155 -0.1858 -1.1953 -0.9607
 5981SOL     OW18841   3.865   1.469   1.226  0.2966 -0.3264  0.1532
 5981SOL    HW118842   3.799   1.456   1.300 -0.3111  1.6075  0.0141
 5981SOL    HW218843   3.958   1.469   1.263  0.1683 -1.8629  0.5242
 5982SOL     OW18844   6.826   2.339   6.727 -0.4705 -0.6177  0.0125
 5982SOL    HW118845   6.818   2.267   6.796  1.8485 -0.7171  0.2684
 5982SOL    HW218846   6.756   2.325   6.656 -2.9763 -0.4728  2.2887
 5983SOL     OW18847   0.031   0.967   4.996  0.3726 -0.0033 -0.0245
 5983SOL    HW118848  -0.050   0.938   5.048  0.4796 -0.3210 -0.0339
 5983SOL    HW218849   0.003   0.996   4.904  0.2397  0.1312  0.0568
 5984SOL     OW18850   0.091   0.169   6.152 -0.5955 -0.0068 -0.0604
 5984SOL    HW118851   0.008   0.119   6.129 -0.3784 -0.7101  0.6487
 5984SOL    HW218852   0.069   0.264   6.171 -1.1990 -0.1364 -0.1009
 5985SOL     OW18853   5.810   4.385   2.050  0.5063  0.4943  0.7307
 5985SOL    HW118854   5.740   4.442   2.007  1.4350  2.6825  1.9600
 5985SOL    HW218855   5.820   4.300   1.999 -1.0651  1.3457 -1.0958
 5986SOL     OW18856   2.935   3.214   3.066  0.0671 -0.3829  0.3203
 5986SOL    HW118857   2.892   3.268   3.138  1.0124 -1.0676  1.4284
 5986SOL    HW218858   2.957   3.123   3.101  2.9795  0.1150  0.0425
 5987SOL     OW18859   5.410   6.883   4.752 -0.4712  0.0650 -0.2848
 5987SOL    HW118860   5.315   6.857   4.734 -0.0490 -1.7509 -0.0756
 5987SOL    HW218861   5.464   6.802   4.772  0.8746  1.1894  0.8929
 5988SOL     OW18862   1.523   5.646   5.740  0.2430 -0.4024  0.4501
 5988SOL    HW118863   1.436   5.598   5.750 -0.3642  0.6834  0.5762
 5988SOL    HW218864   1.580   5.598   5.673 -1.2465 -0.0582 -1.1367
 5989SOL     OW18865   1.649   0.322   5.511 -0.5559 -0.2521  0.7107
 5989SOL    HW118866   1.630   0.374   5.593  0.0569 -0.7886  1.2008
 5989SOL    HW218867   1.650   0.383   5.432 -3.0723 -0.0032  0.8016
 5990SOL     OW18868   2.526   5.318   2.426  0.5480  0.7395 -0.9761
 5990SOL    HW118869   2.437   5.282   2.397  0.1404  0.2365  0.8009
 5990SOL    HW218870   2.598   5.272   2.375 -0.0889 -0.8994 -0.4472
 5991SOL     OW18871   3.982   5.617   5.158 -0.2976 -0.5033  0.8521
 5991SOL    HW118872   3.945   5.690   5.216 -2.4018 -1.1939  0.4624
 5991SOL    HW218873   4.064   5.578   5.202  0.3401  1.4395  1.5034
 5992SOL     OW18874   3.393   1.253   4.896  0.2185 -0.1425  0.5517
 5992SOL    HW118875   3.452   1.213   4.966 -2.3105 -1.3393  2.1383
 5992SOL    HW218876   3.375   1.186   4.824 -0.3856 -0.3105  0.8534
 5993SOL     OW18877   1.534   6.089   3.520  0.0077 -0.3981  0.1580
 5993SOL    HW118878   1.472   6.139   3.460 -0.8880 -1.4896  0.1331
 5993SOL    HW218879   1.573   6.011   3.470  1.7023  0.4570  0.0667
 5994SOL     OW18880   6.768   2.900   6.593  0.0781  0.2600  0.2138
 5994SOL    HW118881   6.697   2.837   6.624 -0.1711  0.6380  0.4004
 5994SOL    HW218882   6.778   2.975   6.658  1.2271 -0.2239  0.6375
 5995SOL     OW18883   0.856   4.938   1.097  0.0133 -0.6075  0.3424
 5995SOL    HW118884   0.944   4.911   1.134 -0.5593 -0.7666  1.6352
 5995SOL    HW218885   0.855   5.037   1.081  0.7038 -0.7276 -0.5048
 5996SOL     OW18886   2.296   1.000   6.759  0.3188 -0.0247  0.2381
 5996SOL    HW118887   2.362   1.013   6.684 -0.6352  0.5336 -0.5326
 5996SOL    HW218888   2.325   1.054   6.838  0.4082  0.8274 -0.3540
 5997SOL     OW18889   5.356   0.756   2.739 -0.7514 -0.1287  0.6239
 5997SOL    HW118890   5.301   0.710   2.809 -1.0064  0.3467  0.7372
 5997SOL    HW218891   5.378   0.848   2.769 -1.4163  0.3100 -0.2067
 5998SOL     OW18892   4.981   4.096   2.794 -0.1664 -0.1154  0.0224
 5998SOL    HW118893   5.062   4.098   2.853 -1.0819 -0.2862  1.3288
 5998SOL    HW218894   4.944   4.003   2.792 -1.5998  0.4038  1.2468
 5999SOL     OW18895   2.685   1.307   4.542  0.0684  0.1704 -0.4471
 5999SOL    HW118896   2.693   1.363   4.625  1.7040 -0.2558 -0.2847
 5999SOL    HW218897   2.776   1.287   4.506 -0.4842 -1.9179 -0.8198
 6000SOL     OW18898   5.254   6.819   2.326 -0.2511  0.0311 -0.1098
 6000SOL    HW118899   5.226   6.836   2.232  0.2570  0.2369 -0.2271
 6000SOL    HW218900   5.344   6.775   2.327  1.3315  3.0211  0.3200
 6001SOL     OW18901   4.106   1.048   6.406  0.0833 -0.1397  0.3540
 6001SOL    HW118902   4.113   1.015   6.312 -0.2389  0.5658  0.0754
 6001SOL    HW218903   4.065   1.139   6.407  0.4992  0.0533  1.1449
 6002SOL     OW18904   3.169   0.812   1.591 -0.1575  0.1463 -0.5331
 6002SOL    HW118905   3.190   0.899   1.635  0.2789 -0.1599 -0.1330
 6002SOL    HW218906   3.255   0.765   1.567 -0.3870  0.1131 -1.3130
 6003SOL     OW18907   5.434   5.634   2.793  0.2138 -0.7363  0.1216
 6003SOL    HW118908   5.390   5.576   2.725 -1.3075  0.1137  0.3430
 6003SOL    HW218909   5.507   5.583   2.838  1.4155 -1.2654 -2.2465
 6004SOL     OW18910   0.231   2.451   2.061  0.7466 -0.4233  0.1864
 6004SOL    HW118911   0.183   2.411   2.139  1.2689  0.0944  0.7826
 6004SOL    HW218912   0.285   2.380   2.015 -0.7651 -1.0725 -0.6562
 6005SOL     OW18913   1.537   6.111   2.830 -0.1680  0.4617  0.1929
 6005SOL    HW118914   1.537   6.014   2.805  0.2274  0.5496 -0.1588
 6005SOL    HW218915   1.442   6.143   2.840 -0.2892 -0.1273  0.9838
 6006SOL     OW18916   2.670   6.596   0.238  0.4679 -0.0740  0.3550
 6006SOL    HW118917   2.653   6.521   0.175 -1.0808  0.7248 -0.2310
 6006SOL    HW218918   2.612   6.586   0.319 -1.1476  1.4115 -0.5586
 6007SOL     OW18919   5.372   4.634   4.847  0.3610  0.7661 -0.0549
 6007SOL    HW118920   5.470   4.635   4.824 -0.2083  0.3484 -2.8837
 6007SOL    HW218921   5.328   4.714   4.806 -0.6964  0.3098  0.1620
 6008SOL     OW18922   5.214   5.375   3.007 -0.1036 -0.5850 -0.0326
 6008SOL    HW118923   5.149   5.435   2.962  0.9128 -0.1504 -0.9633
 6008SOL    HW218924   5.289   5.429   3.046  0.5856 -1.1991 -0.4786
 6009SOL     OW18925   2.507   1.408   5.882  0.4751 -0.5064  0.1387
 6009SOL    HW118926   2.456   1.493   5.894  0.5048 -0.4070 -0.4043
 6009SOL    HW218927   2.527   1.368   5.971  1.0157  0.3915  0.4394
 6010SOL     OW18928   1.457   5.157   2.561  0.3308 -0.3342 -0.2747
 6010SOL    HW118929   1.479   5.230   2.496  0.0488 -0.8295 -0.9321
 6010SOL    HW218930   1.451   5.196   2.653  0.8858  0.3461 -0.5187
 6011SOL     OW18931   6.531   2.194   1.990 -0.1181 -0.4324 -0.7195
 6011SOL    HW118932   6.571   2.104   1.980 -1.9751 -1.2146 -1.5459
 6011SOL    HW218933   6.498   2.206   2.084  2.2758  0.3840  0.0937
 6012SOL     OW18934   6.848   2.462   1.185 -0.1865  0.0193  0.3273
 6012SOL    HW118935   6.856   2.495   1.279 -1.1790  0.2932  0.3174
 6012SOL    HW218936   6.897   2.524   1.124  0.1095  0.0627  0.6022
 6013SOL     OW18937   5.259   1.635   2.302 -0.5128 -0.0858 -0.9421
 6013SOL    HW118938   5.165   1.661   2.323 -0.8429 -1.9937  0.1693
 6013SOL    HW218939   5.263   1.594   2.211 -0.7205  0.1013 -1.0370
 6014SOL     OW18940   5.977   2.677   6.668 -0.6210  0.6609  0.0825
 6014SOL    HW118941   5.954   2.592   6.620 -2.7526  1.6999 -0.8886
 6014SOL    HW218942   6.010   2.744   6.602 -0.2100  1.0003  0.6322
 6015SOL     OW18943   5.738   6.326   3.687  0.2374 -0.1386  0.2646
 6015SOL    HW118944   5.824   6.374   3.701  0.5033 -0.0286 -1.5713
 6015SOL    HW218945   5.662   6.383   3.718  0.6921  0.5352  0.1444
 6016SOL     OW18946   0.665   5.739   5.327  0.0154 -0.2605 -0.1145
 6016SOL    HW118947   0.569   5.727   5.303 -0.1657 -0.2071  0.5491
 6016SOL    HW218948   0.676   5.825   5.377  0.7609  0.7652 -1.9860
 6017SOL     OW18949   6.946   4.240   2.420  0.4395 -0.0859 -0.0573
 6017SOL    HW118950   6.912   4.271   2.509  0.7947  1.8474 -0.5334
 6017SOL    HW218951   6.883   4.172   2.382  0.9953 -1.9843  2.2274
 6018SOL     OW18952   4.124   5.262   3.035  0.6248  0.1491  0.7552
 6018SOL    HW118953   4.167   5.172   3.045 -1.8023 -1.0992  0.6827
 6018SOL    HW218954   4.051   5.272   3.102 -0.5043  1.2286 -0.5716
 6019SOL     OW18955   6.735   0.362   4.016  0.4259 -0.2904 -0.4514
 6019SOL    HW118956   6.796   0.337   4.091 -1.0527  1.0773  1.3082
 6019SOL    HW218957   6.654   0.304   4.017 -0.5703  1.0490  0.3804
 6020SOL     OW18958   4.448   5.089   2.116 -0.2400  0.3036 -0.6670
 6020SOL    HW118959   4.366   5.049   2.075 -0.1961  0.2933 -0.7431
 6020SOL    HW218960   4.524   5.084   2.052 -0.2766  0.6644 -0.7438
 6021SOL     OW18961   1.816   0.408   2.742 -0.3356 -0.0748 -0.2799
 6021SOL    HW118962   1.756   0.419   2.822 -1.6201 -1.3353 -1.0265
 6021SOL    HW218963   1.902   0.365   2.770  0.0631  1.2961  0.7262
 6022SOL     OW18964   1.025   2.495   0.858  0.2630 -0.1997 -0.5652
 6022SOL    HW118965   1.068   2.532   0.775  0.5044 -0.6872 -0.6573
 6022SOL    HW218966   1.092   2.444   0.911  0.4733  1.2665  0.6561
 6023SOL     OW18967   0.227   1.752   1.872 -0.1507 -0.2107  0.4602
 6023SOL    HW118968   0.217   1.819   1.945 -1.2528  0.5425 -0.3422
 6023SOL    HW218969   0.323   1.748   1.843  0.1195  0.1991  1.2733
 6024SOL     OW18970   5.928   3.465   1.699 -0.4515  0.0518 -0.2116
 6024SOL    HW118971   5.871   3.472   1.780  0.7270  0.4420  0.6229
 6024SOL    HW218972   5.916   3.546   1.642  0.4605  0.9211  0.7899
 6025SOL     OW18973   5.631   0.802   2.135  0.1756 -0.3273 -0.8522
 6025SOL    HW118974   5.617   0.881   2.195 -1.8326 -0.4174 -1.1505
 6025SOL    HW218975   5.713   0.753   2.163  0.0719  0.4540  0.9088
 6026SOL     OW18976   0.579   6.268   6.036 -0.1515 -0.5651 -0.1205
 6026SOL    HW118977   0.628   6.248   5.952 -0.4709  1.0114 -0.7021
 6026SOL    HW218978   0.630   6.335   6.090 -0.4187 -0.8464  0.5004
 6027SOL     OW18979   4.140   2.691   5.570  0.4508  0.1064  0.1414
 6027SOL    HW118980   4.090   2.721   5.652 -0.2429  1.7680 -0.8334
 6027SOL    HW218981   4.238   2.697   5.588  0.3688  2.7605  0.1692
 6028SOL     OW18982   1.026   4.793   5.034 -0.6384  0.5666 -0.1221
 6028SOL    HW118983   1.066   4.703   5.019  1.3869  1.4250 -0.2309
 6028SOL    HW218984   0.935   4.796   4.994  0.6564 -0.3303 -3.4299
 6029SOL     OW18985   0.423   4.406   2.892 -0.6419  0.0024 -0.6602
 6029SOL    HW118986   0.407   4.468   2.816 -1.4199 -0.9007 -1.2475
 6029SOL    HW218987   0.443   4.314   2.857 -1.0991 -0.4467  0.2172
 6030SOL     OW18988   2.853   0.980   2.128  0.2775  0.4343 -0.1522
 6030SOL    HW118989   2.929   1.044   2.122 -0.5183  1.4811  0.6401
 6030SOL    HW218990   2.782   1.006   2.062 -1.3332  2.2100  2.0920
 6031SOL     OW18991   3.708   0.373   4.184  0.3614  0.0523  0.3089
 6031SOL    HW118992   3.711   0.457   4.239 -0.1559 -1.1981  2.3613
 6031SOL    HW218993   3.785   0.315   4.208 -0.6534 -1.1368  0.8030
 6032SOL     OW18994   1.385   0.932   2.766 -0.1731  0.2339 -0.4506
 6032SOL    HW118995   1.376   0.994   2.688 -0.3334  1.6127  0.6286
 6032SOL    HW218996   1.396   0.985   2.850 -0.3106 -1.2111  0.5196
 6033SOL     OW18997   6.465   6.261   5.040  0.3009 -0.2630  0.0073
 6033SOL    HW118998   6.434   6.320   5.115  0.3866 -0.3690  0.1277
 6033SOL    HW218999   6.527   6.312   4.981 -1.4375  0.4903 -1.2286
 6034SOL     OW19000   1.257   5.488   5.445 -0.2393 -0.2705 -0.4102
 6034SOL    HW119001   1.231   5.580   5.475 -0.2396  0.2090 -1.7944
 6034SOL    HW219002   1.320   5.448   5.511 -1.3478  0.1510  0.9342
 6035SOL     OW19003   5.011   6.852   2.893  0.1363  0.3524 -0.1070
 6035SOL    HW119004   4.921   6.808   2.892 -1.2018  2.9060 -2.0007
 6035SOL    HW219005   5.079   6.790   2.854 -1.0135 -1.1545  0.1832
 6036SOL     OW19006   6.098   3.967   4.756  0.2308 -0.2650 -0.0945
 6036SOL    HW119007   6.026   3.898   4.753  1.1811 -1.2663 -0.1658
 6036SOL    HW219008   6.082   4.034   4.683 -1.1412  0.0718  0.4773
 6037SOL     OW19009   0.097   3.607   4.583  0.4021 -0.6045 -0.2600
 6037SOL    HW119010   0.056   3.686   4.629  0.7478 -1.0384  0.7989
 6037SOL    HW219011   0.196   3.609   4.595  0.3979 -1.3036 -0.0732
 6038SOL     OW19012   0.855   4.859   6.467  0.3918 -0.1288  0.1539
 6038SOL    HW119013   0.873   4.779   6.411 -2.6138 -1.0868  0.3946
 6038SOL    HW219014   0.896   4.940   6.424  0.2820 -1.1965 -2.0946
 6039SOL     OW19015   4.122   3.569   2.211  0.2195  0.4044 -0.2549
 6039SOL    HW119016   4.095   3.606   2.299  1.0663  0.9773 -0.2314
 6039SOL    HW219017   4.200   3.507   2.222 -1.2973 -1.6128 -0.2609
 6040SOL     OW19018   1.170   2.624   1.129 -0.2435 -0.1615  0.3346
 6040SOL    HW119019   1.102   2.695   1.113  0.9774  0.7734 -0.9427
 6040SOL    HW219020   1.242   2.659   1.188  0.1989 -0.4193 -0.0386
 6041SOL     OW19021   1.149   3.801   4.660 -0.1333  0.2229 -0.1572
 6041SOL    HW119022   1.249   3.806   4.650  0.0392 -0.0786  1.1773
 6041SOL    HW219023   1.113   3.727   4.603  0.9836 -2.6558  2.6118
 6042SOL     OW19024   6.261   6.822   3.848  0.1238  0.6106 -0.2386
 6042SOL    HW119025   6.211   6.830   3.762  0.1489  1.2092 -0.1975
 6042SOL    HW219026   6.226   6.888   3.914  1.6225  1.7776 -0.5369
 6043SOL     OW19027   6.608   3.834   3.602 -0.4351 -0.5836  0.0908
 6043SOL    HW119028   6.612   3.797   3.509  0.1739  2.1963 -1.0955
 6043SOL    HW219029   6.513   3.853   3.626 -0.5273 -0.4945 -0.3284
 6044SOL     OW19030   1.128   0.149   1.578 -0.4097 -0.1920  0.6346
 6044SOL    HW119031   1.190   0.081   1.539  0.6837  1.6322 -0.9897
 6044SOL    HW219032   1.059   0.175   1.511 -0.9513  0.1572  1.3069
 6045SOL     OW19033   6.528   2.701   6.147  0.0861 -0.3657 -0.1396
 6045SOL    HW119034   6.559   2.717   6.054 -0.9666 -1.0632 -0.6340
 6045SOL    HW219035   6.434   2.735   6.158 -0.6189 -2.2376 -0.0067
 6046SOL     OW19036   1.222   2.973   1.642  0.1307 -0.6531 -0.6245
 6046SOL    HW119037   1.240   3.064   1.604 -0.1016 -0.5335 -0.4521
 6046SOL    HW219038   1.124   2.957   1.644  0.0214  0.0512  1.5419
 6047SOL     OW19039   0.395   5.376   4.595 -0.2132  0.3337 -0.5799
 6047SOL    HW119040   0.494   5.380   4.614 -0.6229  2.3108  1.5954
 6047SOL    HW219041   0.364   5.281   4.603  1.2267 -0.0971  0.4731
 6048SOL     OW19042   4.368   5.083   2.632  0.4786 -0.1157 -0.1361
 6048SOL    HW119043   4.412   5.153   2.576 -0.6334 -0.4784 -1.5035
 6048SOL    HW219044   4.299   5.126   2.690  0.2681  0.0119 -0.4785
 6049SOL     OW19045   6.823   4.926   2.312  0.4126 -0.0879  0.5358
 6049SOL    HW119046   6.802   4.957   2.405 -0.6464  1.0835 -0.0693
 6049SOL    HW219047   6.890   4.988   2.271  0.8562 -0.5879  0.4879
 6050SOL     OW19048   5.407   3.202   0.053 -0.0067  0.2858 -0.8062
 6050SOL    HW119049   5.417   3.284  -0.004  0.2473  1.1102  0.3779
 6050SOL    HW219050   5.327   3.212   0.112  1.0989  0.5477  0.6995
 6051SOL     OW19051   4.087   1.803   3.990  0.1881 -0.2615  0.4346
 6051SOL    HW119052   4.056   1.751   3.910  1.1478 -4.2455  2.3515
 6051SOL    HW219053   4.187   1.804   3.992  0.2203  2.2190  0.2722
 6052SOL     OW19054   6.354   2.023   0.603  0.3040  0.1636  0.1328
 6052SOL    HW119055   6.375   2.075   0.686 -1.5473 -0.2844  0.9132
 6052SOL    HW219056   6.423   1.952   0.590  1.0262  0.7182  0.8548
 6053SOL     OW19057   1.324   2.089   6.519 -0.2377 -0.0089 -0.0148
 6053SOL    HW119058   1.331   2.132   6.428 -0.7905  0.0288 -0.0421
 6053SOL    HW219059   1.415   2.066   6.551  0.1409  1.6093  0.1907
 6054SOL     OW19060   2.500   4.090   0.168  0.5690 -0.3543  0.2139
 6054SOL    HW119061   2.501   4.139   0.080  1.6949 -0.0370  0.3809
 6054SOL    HW219062   2.416   4.112   0.218  1.2835  1.9110  0.5447
 6055SOL     OW19063   4.346   0.086   2.669  0.6169 -0.0326  0.0836
 6055SOL    HW119064   4.372   0.099   2.765  0.2547  0.6035  0.0989
 6055SOL    HW219065   4.310  -0.007   2.656 -1.9665  0.7337  1.1671
 6056SOL     OW19066   5.325   1.185   6.121 -0.0177 -0.2543  0.1542
 6056SOL    HW119067   5.400   1.158   6.181  1.6627 -0.6006 -1.9577
 6056SOL    HW219068   5.329   1.284   6.105  0.1989 -0.3139 -0.1835
 6057SOL     OW19069   6.190   1.538   6.727  0.0274  0.4576  0.1118
 6057SOL    HW119070   6.119   1.500   6.786 -1.1613  1.5894 -0.5232
 6057SOL    HW219071   6.220   1.626   6.764  0.8945  0.1243  0.2141
 6058SOL     OW19072   6.905   2.571   5.314  0.0621 -0.0240  0.2014
 6058SOL    HW119073   6.907   2.476   5.344 -0.2144  0.0927  0.5966
 6058SOL    HW219074   6.983   2.620   5.353  1.2700 -0.5099 -1.4717
 6059SOL     OW19075   0.518   5.351   5.107  0.1242  0.5965  0.1757
 6059SOL    HW119076   0.441   5.318   5.051  0.2276 -0.4654  0.6517
 6059SOL    HW219077   0.583   5.398   5.047 -0.8453  1.4672 -0.2490
 6060SOL     OW19078   2.535   6.118   5.457 -0.3216 -0.6731 -0.1877
 6060SOL    HW119079   2.517   6.150   5.364 -0.7312 -0.5956 -0.0843
 6060SOL    HW219080   2.476   6.167   5.521 -0.0989 -0.7838  0.1061
 6061SOL     OW19081   1.312   1.607   0.470 -0.1368  0.1561 -0.2327
 6061SOL    HW119082   1.213   1.618   0.466 -0.1997 -0.5924 -1.2924
 6061SOL    HW219083   1.356   1.671   0.407  0.2237  1.9263  1.7062
 6062SOL     OW19084   1.450   0.326   2.098  0.0730  0.1371 -0.2254
 6062SOL    HW119085   1.417   0.255   2.161 -0.2314 -0.4028 -0.9841
 6062SOL    HW219086   1.371   0.374   2.058  0.2501  0.0792 -0.6481
 6063SOL     OW19087   6.242   3.795   6.449  0.1877 -0.5835 -0.2424
 6063SOL    HW119088   6.296   3.833   6.523 -0.6717  0.0125  0.0867
 6063SOL    HW219089   6.156   3.759   6.485 -0.2323 -0.3002 -0.9440
 6064SOL     OW19090   0.280   6.018   2.432  0.5072 -0.2948 -0.1876
 6064SOL    HW119091   0.300   5.921   2.423 -0.0821 -0.5561  1.1337
 6064SOL    HW219092   0.323   6.068   2.357 -1.4478 -1.8733 -2.5229
 6065SOL     OW19093   5.106   1.847   5.957 -0.1635  0.0920  0.4619
 6065SOL    HW119094   5.040   1.778   5.930 -0.6484  0.9037 -0.4882
 6065SOL    HW219095   5.109   1.854   6.057  0.5631 -1.9138  0.6129
 6066SOL     OW19096   4.906   2.994   2.980  0.1237  0.1341 -0.1326
 6066SOL    HW119097   4.932   2.897   2.983  0.5986  0.2795  0.5432
 6066SOL    HW219098   4.880   3.025   3.071  2.6188  1.3380  0.2536
 6067SOL     OW19099   3.258   0.896   6.515 -0.2431 -0.2693  0.3089
 6067SOL    HW119100   3.284   0.983   6.476  2.7315  0.0925  2.7274
 6067SOL    HW219101   3.165   0.902   6.552  0.3822  2.3749  1.6301
 6068SOL     OW19102   6.346   6.089   5.530 -0.4447 -0.6043 -0.3869
 6068SOL    HW119103   6.286   6.096   5.610 -2.1334  0.7301 -1.6970
 6068SOL    HW219104   6.323   6.006   5.479 -0.5653 -0.5506 -0.4200
 6069SOL     OW19105   6.287   5.161   4.701 -1.3386 -0.2255 -0.1353
 6069SOL    HW119106   6.220   5.193   4.768 -1.6679 -0.9793 -0.0847
 6069SOL    HW219107   6.238   5.120   4.624 -0.9431 -0.0963 -0.4567
 6070SOL     OW19108   0.084   5.365   0.819 -0.1189 -0.0809 -0.4046
 6070SOL    HW119109   0.058   5.272   0.794  1.2678 -0.2909 -1.1494
 6070SOL    HW219110   0.010   5.407   0.871 -1.3993 -1.0742 -1.3516
 6071SOL     OW19111   5.651   1.838   5.502 -0.1576 -0.2012 -0.6916
 6071SOL    HW119112   5.588   1.791   5.439 -1.2085 -0.3256  0.4076
 6071SOL    HW219113   5.607   1.847   5.591  2.3741 -2.7263  0.9774
 6072SOL     OW19114   4.681   0.127   3.100 -0.3701  0.0671  0.3437
 6072SOL    HW119115   4.633   0.056   3.151 -0.9716  0.5591  0.4767
 6072SOL    HW219116   4.623   0.162   3.027 -0.2312  0.6900  0.5210
 6073SOL     OW19117   6.525   1.471   0.324  0.4079  0.0569 -0.3172
 6073SOL    HW119118   6.598   1.495   0.260  0.0766 -1.8686 -1.5246
 6073SOL    HW219119   6.534   1.374   0.349 -1.1221  0.0558  0.3345
 6074SOL     OW19120   1.143   2.263   6.665  0.0759 -0.6797 -0.4566
 6074SOL    HW119121   1.050   2.248   6.630 -0.0176 -1.8930  0.2590
 6074SOL    HW219122   1.208   2.208   6.613  0.3011 -0.4250 -0.4512
 6075SOL     OW19123   6.332   4.433   5.433 -0.1283  0.0699  0.3302
 6075SOL    HW119124   6.385   4.397   5.510 -0.7953 -0.6771  0.4514
 6075SOL    HW219125   6.389   4.496   5.380  1.1426 -1.3085 -0.0110
 6076SOL     OW19126   4.127   1.084   5.851  0.2185 -0.3441  0.1977
 6076SOL    HW119127   4.116   1.050   5.944 -0.0646 -1.3450 -0.1948
 6076SOL    HW219128   4.169   1.175   5.854 -1.4459  0.4440  1.3980
 6077SOL     OW19129   4.240   5.001   2.946  0.4186  0.7229 -0.4653
 6077SOL    HW119130   4.205   4.954   3.027  1.6151 -0.8560 -0.7951
 6077SOL    HW219131   4.340   5.009   2.954  0.4878  1.0068 -1.5418
 6078SOL     OW19132   3.805   6.323   6.106  0.1934  0.1000 -0.6662
 6078SOL    HW119133   3.835   6.233   6.140  2.3419  0.7536 -0.6920
 6078SOL    HW219134   3.756   6.311   6.020 -0.2043 -1.1121 -0.2886
 6079SOL     OW19135   3.425   2.949   0.320  0.4946 -0.1175 -0.4418
 6079SOL    HW119136   3.501   3.010   0.301 -0.3882  0.5132 -2.2756
 6079SOL    HW219137   3.351   2.968   0.255 -1.3133 -0.5712  1.3857
 6080SOL     OW19138   0.698   3.141   3.023  0.3791 -0.1472 -0.3752
 6080SOL    HW119139   0.762   3.064   3.024  1.7492  0.9390  0.7224
 6080SOL    HW219140   0.746   3.224   2.993 -0.3280  0.8164  1.0322
 6081SOL     OW19141   2.064   5.004   3.163 -0.0851  0.0478  0.4572
 6081SOL    HW119142   1.991   5.028   3.099 -0.2515 -3.2616 -0.7989
 6081SOL    HW219143   2.148   4.987   3.113  0.8230  0.9789  1.5922
 6082SOL     OW19144   3.832   1.741   5.033 -0.0162 -0.3167  0.3297
 6082SOL    HW119145   3.874   1.715   5.119 -0.2445 -0.1689  0.4891
 6082SOL    HW219146   3.884   1.704   4.957  1.5257  1.4392  0.4533
 6083SOL     OW19147   0.983   6.087   0.005 -0.0953  0.3575  0.1961
 6083SOL    HW119148   1.044   6.053  -0.066  0.1551  1.5040 -0.1634
 6083SOL    HW219149   1.008   6.048   0.093  1.0222  0.6413  0.0133
 6084SOL     OW19150   1.437   0.087   6.852  0.0523  0.0391 -0.6546
 6084SOL    HW119151   1.519   0.073   6.796  0.2904 -3.0507  0.2698
 6084SOL    HW219152   1.461   0.077   6.948 -1.4001 -1.0508 -0.3817
 6085SOL     OW19153   3.936   5.104   2.595  0.6003  0.5406 -0.0365
 6085SOL    HW119154   3.858   5.041   2.597 -0.2731  1.4826 -1.9631
 6085SOL    HW219155   3.904   5.198   2.603  1.9052  0.8391  2.8659
 6086SOL     OW19156   3.001   0.400   1.573 -0.1434 -0.2914 -0.7186
 6086SOL    HW119157   2.932   0.472   1.568 -1.1406 -1.1165  0.3201
 6086SOL    HW219158   2.956   0.313   1.592  1.0699 -1.1233 -1.5015
 6087SOL     OW19159   3.248   2.108   0.723  0.1125 -0.0727 -0.6132
 6087SOL    HW119160   3.271   2.194   0.768  1.7504 -0.5863 -0.3868
 6087SOL    HW219161   3.294   2.103   0.635  1.3348 -1.3474  0.0578
 6088SOL     OW19162   1.371   6.539   3.999 -0.4074 -0.6524  0.0548
 6088SOL    HW119163   1.388   6.589   4.084  0.4026 -0.7500 -0.0411
 6088SOL    HW219164   1.454   6.490   3.972 -0.1636  0.6008 -1.6230
 6089SOL     OW19165   1.158   4.167   1.050  0.3075 -0.2761  0.0991
 6089SOL    HW119166   1.136   4.071   1.030  1.6024 -0.8217  1.1481
 6089SOL    HW219167   1.252   4.173   1.083  0.9342  1.6233 -1.7845
 6090SOL     OW19168   6.910   6.836   3.126 -0.0212 -0.6945 -0.3649
 6090SOL    HW119169   6.938   6.816   3.219  0.0435 -0.7483 -0.3964
 6090SOL    HW219170   6.810   6.843   3.122  0.0286  0.3156 -0.0870
 6091SOL     OW19171   1.069   2.390   1.631 -0.0043  0.4511 -0.8948
 6091SOL    HW119172   1.089   2.327   1.705 -0.3196  0.9058 -0.4194
 6091SOL    HW219173   0.972   2.413   1.631  0.1241  1.0101 -0.9997
 6092SOL     OW19174   6.079   1.962   1.617 -0.6531 -0.6238  0.2309
 6092SOL    HW119175   6.107   2.051   1.581 -0.0316 -1.5814 -1.8246
 6092SOL    HW219176   5.995   1.972   1.670  0.5412  1.4889  1.9164
 6093SOL     OW19177   2.119   3.880   2.474  0.1070  0.4033 -0.3041
 6093SOL    HW119178   2.217   3.894   2.486 -0.1352  0.6151  1.8389
 6093SOL    HW219179   2.088   3.933   2.395  1.5508  1.0435 -0.4838
 6094SOL     OW19180   6.251   1.163   1.885  0.1704 -0.4047  0.3143
 6094SOL    HW119181   6.258   1.157   1.786 -0.5609 -0.1439  0.2465
 6094SOL    HW219182   6.242   1.258   1.913  1.9414 -0.3287  0.7508
 6095SOL     OW19183   0.079   4.577   5.542  0.4312 -0.5074  0.0825
 6095SOL    HW119184   0.003   4.535   5.592  1.3647 -1.8213  0.4472
 6095SOL    HW219185   0.057   4.672   5.523 -0.3943 -0.2604  2.0745
 6096SOL     OW19186   5.241   2.365   4.491  0.7325  0.3942 -0.0548
 6096SOL    HW119187   5.203   2.456   4.477 -2.6150 -0.3144  2.8236
 6096SOL    HW219188   5.340   2.367   4.480  0.5349  3.7792 -2.4203
 6097SOL     OW19189   3.724   1.383   2.362 -0.1563  0.1045  0.2314
 6097SOL    HW119190   3.705   1.439   2.281  1.6003  0.4837  0.0297
 6097SOL    HW219191   3.695   1.433   2.444 -0.7550  0.2826 -0.0840
 6098SOL     OW19192   1.291   0.593   1.242  0.0043  0.2615  0.0053
 6098SOL    HW119193   1.286   0.691   1.223 -0.3114  0.2108 -0.1806
 6098SOL    HW219194   1.218   0.568   1.306  1.4685  0.5577  1.8858
 6099SOL     OW19195   5.224   3.309   4.600  0.6106  0.2701 -0.0160
 6099SOL    HW119196   5.294   3.334   4.667 -1.3860  1.2354  1.8496
 6099SOL    HW219197   5.159   3.385   4.591 -1.4684 -1.4191  0.0878
 6100SOL     OW19198   6.704   2.433   6.004 -0.2000  0.0759  0.4336
 6100SOL    HW119199   6.676   2.515   5.955  1.9156  0.1233 -0.8327
 6100SOL    HW219200   6.802   2.437   6.023 -0.0081 -2.2001  0.2371
 6101SOL     OW19201   6.229   5.919   2.740 -0.0492 -0.1336 -0.0123
 6101SOL    HW119202   6.279   5.992   2.694  1.3482 -1.9760 -1.5903
 6101SOL    HW219203   6.147   5.896   2.687 -0.4281  0.2179  0.4214
 6102SOL     OW19204   3.897   0.344   6.185  0.0396 -0.2069  0.1432
 6102SOL    HW119205   3.843   0.260   6.192 -1.8688  1.0776  1.9728
 6102SOL    HW219206   3.913   0.381   6.277  0.6169  1.5646 -0.6286
 6103SOL     OW19207   5.348   3.031   4.669  0.3017  0.2369  0.1912
 6103SOL    HW119208   5.250   3.015   4.658 -0.2970  2.3411  1.7017
 6103SOL    HW219209   5.365   3.129   4.678  2.1714 -0.2112  2.7518
 6104SOL     OW19210   0.597   3.480   1.266  0.1414  0.1349 -0.1095
 6104SOL    HW119211   0.579   3.553   1.332 -1.4628 -1.0066  0.7839
 6104SOL    HW219212   0.562   3.507   1.176  2.6137  1.8269 -0.6612
 6105SOL     OW19213   1.522   6.774   5.271 -0.0783  0.4803  0.4242
 6105SOL    HW119214   1.596   6.779   5.339  0.4448  1.2605 -0.1745
 6105SOL    HW219215   1.528   6.687   5.222  1.4652  1.1708 -0.7079
 6106SOL     OW19216   1.404   4.881   3.026 -0.4135  0.4343  0.2667
 6106SOL    HW119217   1.328   4.904   2.965 -1.0715  1.3931  1.3938
 6106SOL    HW219218   1.375   4.808   3.089 -0.9540  1.7585  1.6352
 6107SOL     OW19219   0.299   3.601   5.153  0.0351 -0.4376  0.0359
 6107SOL    HW119220   0.380   3.546   5.170 -1.1082 -2.0901  0.4026
 6107SOL    HW219221   0.311   3.652   5.067  1.0373 -1.4689 -0.4644
 6108SOL     OW19222   6.435   2.780   4.719  0.1310 -0.0941  0.1729
 6108SOL    HW119223   6.508   2.836   4.680  0.6033 -1.0641 -0.3784
 6108SOL    HW219224   6.462   2.749   4.810 -1.4217  3.0628  1.8568
 6109SOL     OW19225   0.830   3.923   1.327  0.8350  0.1466 -0.1635
 6109SOL    HW119226   0.759   3.852   1.335 -0.3006  1.3530  1.2730
 6109SOL    HW219227   0.883   3.908   1.244 -0.3195 -1.5222 -0.6641
 6110SOL     OW19228   1.842   1.487   2.963  0.1834  0.4812 -0.0786
 6110SOL    HW119229   1.801   1.569   3.002 -1.6503  0.4720 -1.8033
 6110SOL    HW219230   1.876   1.506   2.871 -1.2444 -0.8680 -0.9465
 6111SOL     OW19231   0.277   4.916   3.767  0.4247 -0.6859  0.5234
 6111SOL    HW119232   0.231   4.895   3.853  0.8953  0.3935  1.0474
 6111SOL    HW219233   0.344   4.844   3.747  1.4834 -0.1353  1.9204
 6112SOL     OW19234   4.497   5.230   1.837 -0.1913  0.4209 -0.3407
 6112SOL    HW119235   4.532   5.317   1.869 -1.9952  0.7892  0.7267
 6112SOL    HW219236   4.406   5.242   1.797  0.5209 -0.6017 -2.4532
 6113SOL     OW19237   6.808   3.591   4.286  0.1137 -0.4094 -0.0626
 6113SOL    HW119238   6.781   3.569   4.192 -1.1474  1.3300 -0.1693
 6113SOL    HW219239   6.748   3.542   4.350  0.5124 -1.0510 -0.1781
 6114SOL     OW19240   3.149   4.500   1.577  0.1222  0.1478  0.5506
 6114SOL    HW119241   3.201   4.433   1.629  0.6874  1.0031  1.1004
 6114SOL    HW219242   3.052   4.474   1.577  0.6039 -1.8706 -1.1290
 6115SOL     OW19243   1.204   3.330   4.917  0.5050  0.2541  0.1206
 6115SOL    HW119244   1.300   3.325   4.888  0.4615 -1.5183  0.1532
 6115SOL    HW219245   1.162   3.411   4.877  1.7758  0.5793 -0.6497
 6116SOL     OW19246   5.566   3.723   5.964 -0.3221 -0.2379  0.7466
 6116SOL    HW119247   5.520   3.812   5.974  0.4146  0.5012 -1.6936
 6116SOL    HW219248   5.650   3.724   6.018  1.3111  1.8545 -1.5825
 6117SOL     OW19249   4.387   5.452   3.236  0.0334  0.5740 -0.2847
 6117SOL    HW119250   4.360   5.395   3.313 -0.3322  0.0354 -0.8028
 6117SOL    HW219251   4.474   5.419   3.199  0.6961  1.4218  0.4865
 6118SOL     OW19252   6.573   0.641   3.559 -0.1771 -0.1518  0.5371
 6118SOL    HW119253   6.631   0.695   3.499  1.4458 -0.4955  1.7344
 6118SOL    HW219254   6.564   0.688   3.647  2.0376 -2.1449  1.9473
 6119SOL     OW19255   0.230   4.739   5.871  0.1740  0.0652  0.5433
 6119SOL    HW119256   0.133   4.733   5.846  0.1907 -1.7428  0.7872
 6119SOL    HW219257   0.243   4.815   5.934 -1.1851  0.0063  0.9255
 6120SOL     OW19258   2.808   1.284   2.667  0.2758  0.2162 -0.9302
 6120SOL    HW119259   2.724   1.277   2.721  1.3757 -0.4861  0.7860
 6120SOL    HW219260   2.839   1.379   2.665  0.4732  0.1843  0.1166
 6121SOL     OW19261   0.980   2.686   3.556 -0.4232 -0.0232 -0.4534
 6121SOL    HW119262   0.950   2.632   3.634  1.0143  0.8224  0.7465
 6121SOL    HW219263   1.017   2.773   3.588 -0.5737  0.7104 -2.1583
 6122SOL     OW19264   3.739   5.407   2.258  0.5788 -0.1559  0.5462
 6122SOL    HW119265   3.831   5.447   2.259  0.6327 -0.1243 -1.7442
 6122SOL    HW219266   3.688   5.439   2.338  0.9207  3.8215 -0.6005
 6123SOL     OW19267   6.003   2.913   4.107 -0.3354 -0.3167  0.1173
 6123SOL    HW119268   5.914   2.910   4.061  0.4150  0.9742 -1.5401
 6123SOL    HW219269   6.063   2.843   4.068  0.3415  0.8573 -1.0199
 6124SOL     OW19270   0.926   1.102   5.193  0.2463  0.0269  0.7017
 6124SOL    HW119271   1.023   1.107   5.217  0.2467 -0.5903  0.8269
 6124SOL    HW219272   0.887   1.015   5.224 -0.7834  0.9824  2.2394
 6125SOL     OW19273   1.624   3.357   1.889  0.2870 -0.0535 -0.8945
 6125SOL    HW119274   1.585   3.265   1.893  2.8206 -1.1933 -1.0731
 6125SOL    HW219275   1.709   3.356   1.837 -0.0609  2.5935 -1.6723
 6126SOL     OW19276   3.807   1.365   3.536  0.0596  0.3608  0.7975
 6126SOL    HW119277   3.737   1.376   3.606 -0.6838  0.6476  0.0232
 6126SOL    HW219278   3.880   1.431   3.552 -0.5493  1.0470  0.7746
 6127SOL     OW19279   0.973   6.294   1.336  0.1520 -0.0132  0.2662
 6127SOL    HW119280   0.932   6.375   1.377  1.9990  0.5712  1.0674
 6127SOL    HW219281   1.003   6.314   1.243  2.8967  1.1116  1.2879
 6128SOL     OW19282   5.832   1.694   2.136 -0.3966  0.5088  0.2958
 6128SOL    HW119283   5.917   1.662   2.178 -0.9597  1.1341  1.9760
 6128SOL    HW219284   5.786   1.758   2.197 -2.3082 -0.1472 -0.3661
 6129SOL     OW19285   5.613   3.132   3.149 -0.3846 -0.0391  0.0671
 6129SOL    HW119286   5.589   3.045   3.192 -0.5634  0.2806  0.6216
 6129SOL    HW219287   5.556   3.205   3.186 -0.7646  0.1976 -0.9422
 6130SOL     OW19288   6.999   3.017   2.183 -0.3420 -0.1983 -0.6769
 6130SOL    HW119289   7.061   3.089   2.214 -0.9439  0.1670 -0.2907
 6130SOL    HW219290   6.919   3.059   2.139 -0.5190 -0.6452 -0.7841
 6131SOL     OW19291   6.248   1.449   4.091  0.3357  0.7371 -0.1022
 6131SOL    HW119292   6.309   1.423   4.016  2.4676  2.3133  0.9873
 6131SOL    HW219293   6.232   1.548   4.089 -0.1453  0.7010  1.1010
 6132SOL     OW19294   1.057   1.296   0.279  0.5164 -0.0817  0.4179
 6132SOL    HW119295   1.023   1.381   0.320  1.6703  1.2785 -1.2971
 6132SOL    HW219296   0.985   1.255   0.223 -0.0356 -0.2555  1.2304
 6133SOL     OW19297   2.471   6.622   1.491 -0.1453  0.1863  0.0416
 6133SOL    HW119298   2.411   6.583   1.421 -0.8012 -0.3658  0.8861
 6133SOL    HW219299   2.428   6.613   1.581  0.6827  0.8728  0.5233
 6134SOL     OW19300   3.332   2.521   0.144  0.1410  0.2631  0.0490
 6134SOL    HW119301   3.323   2.437   0.091 -1.6072  0.7108 -0.4266
 6134SOL    HW219302   3.410   2.574   0.110 -0.7838  0.4274 -1.9553
 6135SOL     OW19303   6.116   5.256   2.108 -0.1134 -0.6673 -0.1927
 6135SOL    HW119304   6.197   5.200   2.088  0.2392  0.5404 -2.5365
 6135SOL    HW219305   6.125   5.344   2.063 -1.1520  0.9432  2.5261
 6136SOL     OW19306   0.197   2.907   3.999  0.8268 -0.2621  0.2376
 6136SOL    HW119307   0.143   2.823   3.992  1.2361 -0.4781 -0.5231
 6136SOL    HW219308   0.204   2.935   4.094 -1.8082  0.5754  0.2465
 6137SOL     OW19309   4.710   1.317   5.815 -0.4353 -0.0553  0.4253
 6137SOL    HW119310   4.694   1.404   5.862 -3.1711 -0.3206  0.1368
 6137SOL    HW219311   4.662   1.244   5.862  1.6419 -1.4492  0.5319
 6138SOL     OW19312   4.545   7.020   3.763 -0.8030  0.2885 -0.3624
 6138SOL    HW119313   4.632   6.990   3.801 -0.7492  0.4861 -0.3245
 6138SOL    HW219314   4.523   6.967   3.681 -2.4252 -2.3258  1.6224
 6139SOL     OW19315   2.229   6.483   4.215 -0.2961  0.5856  0.4643
 6139SOL    HW119316   2.178   6.552   4.165 -0.7698  0.1960  0.4033
 6139SOL    HW219317   2.313   6.461   4.166 -0.9441 -0.0734 -0.3740
 6140SOL     OW19318   2.239   4.892   1.576 -0.3321 -0.0183  0.2170
 6140SOL    HW119319   2.294   4.809   1.584 -1.2351 -0.7235 -0.6408
 6140SOL    HW219320   2.156   4.882   1.631  0.1225  0.8390  1.1012
 6141SOL     OW19321   6.181   5.608   4.836 -0.1821 -0.2002  0.1234
 6141SOL    HW119322   6.171   5.695   4.884  0.2807 -0.7607  1.2827
 6141SOL    HW219323   6.274   5.601   4.800  0.5484 -1.1479  2.0334
 6142SOL     OW19324   6.253   4.357   4.739 -0.0259 -0.4189  0.6864
 6142SOL    HW119325   6.287   4.263   4.743  0.1211 -0.3415  1.3651
 6142SOL    HW219326   6.279   4.397   4.651  0.9420 -0.6332  0.8582
 6143SOL     OW19327   6.270   6.884   1.016  0.3595 -0.2710  0.2894
 6143SOL    HW119328   6.342   6.907   0.951  0.2740  1.2435  0.6883
 6143SOL    HW219329   6.256   6.961   1.079 -0.9222 -0.9275  0.8498
 6144SOL     OW19330   6.332   6.614   4.842  0.4619 -0.7748  0.3036
 6144SOL    HW119331   6.329   6.535   4.781 -0.0603 -0.0340 -0.6468
 6144SOL    HW219332   6.314   6.697   4.790  0.8505 -0.0366  1.3192
 6145SOL     OW19333   4.121   5.854   4.434  0.2815  0.2744 -0.3595
 6145SOL    HW119334   4.067   5.835   4.353  1.1680  0.4992 -1.0174
 6145SOL    HW219335   4.111   5.950   4.460  1.0122  0.5246 -0.9799
 6146SOL     OW19336   5.934   1.570   3.297  0.6149 -0.2632 -0.4035
 6146SOL    HW119337   5.889   1.532   3.217 -1.5167 -0.3978  0.7916
 6146SOL    HW219338   5.979   1.497   3.348  0.0362 -0.5335 -0.2779
 6147SOL     OW19339   1.972   4.824   3.989  0.0041 -0.0361 -0.3807
 6147SOL    HW119340   1.955   4.918   4.020  1.5980 -0.2016  1.1989
 6147SOL    HW219341   1.918   4.761   4.045  0.7229 -0.1698  0.1834
 6148SOL     OW19342   5.829   5.534   3.295 -0.1810 -0.6275  0.2494
 6148SOL    HW119343   5.755   5.508   3.233 -0.0519 -1.7971  0.5685
 6148SOL    HW219344   5.795   5.533   3.389  0.2357 -1.1892  0.3989
 6149SOL     OW19345   6.379   4.507   2.473  0.1704 -0.3556 -0.1653
 6149SOL    HW119346   6.295   4.481   2.521  0.1259 -0.7880 -0.4755
 6149SOL    HW219347   6.356   4.540   2.382  0.2686  0.3307  0.0497
 6150SOL     OW19348   4.740   0.164   0.508 -0.0350  0.0606  0.0674
 6150SOL    HW119349   4.762   0.116   0.593  0.9985 -1.0482 -0.7771
 6150SOL    HW219350   4.814   0.228   0.486  0.6119 -0.9651 -0.8785
 6151SOL     OW19351   3.341   0.795   5.537 -0.0615  0.6499  0.4658
 6151SOL    HW119352   3.355   0.893   5.554  0.4527  0.4998  0.9517
 6151SOL    HW219353   3.258   0.765   5.584 -0.2283  0.8587  0.3040
 6152SOL     OW19354   5.647   3.725   6.481  0.5716  0.2420  0.1863
 6152SOL    HW119355   5.548   3.725   6.498  0.3804  1.2974 -0.7762
 6152SOL    HW219356   5.694   3.684   6.559 -0.6831 -1.3474  0.1817
 6153SOL     OW19357   2.697   5.850   5.006 -0.0890  0.0654 -0.0665
 6153SOL    HW119358   2.756   5.930   4.999 -0.8534  0.5636 -1.2889
 6153SOL    HW219359   2.689   5.808   4.916 -1.5682  0.0127  0.0708
 6154SOL     OW19360   5.135   4.034   5.907 -0.2859  0.2159  0.0205
 6154SOL    HW119361   5.043   4.066   5.884 -0.4458 -0.4557 -0.3275
 6154SOL    HW219362   5.157   4.059   6.001 -2.6457 -3.4733  1.7926
 6155SOL     OW19363   3.047   6.208   5.748  0.1869  0.1077  0.2237
 6155SOL    HW119364   3.073   6.164   5.662  0.9408  2.3145 -0.7617
 6155SOL    HW219365   3.020   6.139   5.815  1.6416 -1.8302 -1.0909
 6156SOL     OW19366   4.692   0.494   4.788  0.3126  0.3381  0.7349
 6156SOL    HW119367   4.610   0.473   4.842  1.2123 -2.3802  1.1930
 6156SOL    HW219368   4.773   0.476   4.843  1.2811  2.1926  0.0033
 6157SOL     OW19369   0.629   6.734   3.943  0.0569 -0.1424  0.1125
 6157SOL    HW119370   0.554   6.744   3.878  1.1452  1.3003 -0.9890
 6157SOL    HW219371   0.701   6.800   3.922  0.9547 -0.3925  2.1149
 6158SOL     OW19372   6.522   4.300   6.372  0.3357  0.4211  0.0811
 6158SOL    HW119373   6.502   4.224   6.310 -2.2729 -0.0884  1.3825
 6158SOL    HW219374   6.619   4.302   6.393  0.5310 -2.5440 -0.0567
 6159SOL     OW19375   6.055   3.392   5.950 -0.5722 -0.1671 -0.2483
 6159SOL    HW119376   6.125   3.367   5.883  0.7094  1.5014  0.4015
 6159SOL    HW219377   5.971   3.418   5.903  0.6216  1.9946 -1.3426
 6160SOL     OW19378   4.542   3.778   0.368 -0.7265 -0.7217  0.0651
 6160SOL    HW119379   4.476   3.821   0.428  0.4316 -1.6596  2.1033
 6160SOL    HW219380   4.592   3.849   0.318 -0.9174  0.1488  1.0657
 6161SOL     OW19381   3.596   6.649   1.981 -0.4595 -0.5098 -0.0056
 6161SOL    HW119382   3.603   6.703   2.064 -1.5490 -0.1817 -0.1043
 6161SOL    HW219383   3.548   6.702   1.911 -2.1096 -1.7812  0.0865
 6162SOL     OW19384   4.304   6.677   4.013 -0.2906 -0.1615 -0.0760
 6162SOL    HW119385   4.236   6.730   3.962 -1.4061 -0.0010  1.4909
 6162SOL    HW219386   4.377   6.648   3.951 -0.4323  1.8794 -1.2749
 6163SOL     OW19387   1.442   3.493   2.951  0.2602 -0.3069 -0.1393
 6163SOL    HW119388   1.355   3.531   2.980  0.0966  1.2243 -2.3838
 6163SOL    HW219389   1.455   3.403   2.994 -2.2227 -0.4348  0.5114
 6164SOL     OW19390   5.992   2.637   6.946 -0.1185 -0.3938  0.2002
 6164SOL    HW119391   5.983   2.649   6.847 -0.2589  0.1759  0.2840
 6164SOL    HW219392   5.993   2.726   6.991 -1.9698 -0.6710  0.8833
 6165SOL     OW19393   1.713   1.446   1.811  0.2105  0.1001 -0.1963
 6165SOL    HW119394   1.782   1.443   1.738  2.0821  1.6173  1.3971
 6165SOL    HW219395   1.719   1.363   1.866  0.3559 -0.0348 -0.4129
 6166SOL     OW19396   3.234   0.357   5.894 -0.0815 -0.3440 -0.3421
 6166SOL    HW119397   3.319   0.344   5.946  0.3451 -0.8417 -1.1604
 6166SOL    HW219398   3.208   0.271   5.851 -0.3725  0.0912 -1.0429
 6167SOL     OW19399   2.016   5.328   2.865  0.9186 -0.2851  0.1639
 6167SOL    HW119400   2.096   5.376   2.900  1.7007 -1.5075  0.1302
 6167SOL    HW219401   2.010   5.238   2.909 -0.7316 -0.0170  0.5439
 6168SOL     OW19402   0.251   3.851   1.266  0.7409  0.8064 -0.2425
 6168SOL    HW119403   0.291   3.938   1.238 -0.2571  1.3847  0.0665
 6168SOL    HW219404   0.151   3.860   1.269  0.3907 -1.0649 -2.6896
 6169SOL     OW19405   1.548   3.170   1.451  0.5596 -0.2539 -0.4025
 6169SOL    HW119406   1.525   3.196   1.357  1.3962  2.1257 -0.0085
 6169SOL    HW219407   1.466   3.138   1.498 -1.5096  4.7650 -0.0353
 6170SOL     OW19408   6.224   2.870   4.544 -0.2330  0.7713 -0.2718
 6170SOL    HW119409   6.257   2.964   4.542 -0.3580  0.8070 -2.3291
 6170SOL    HW219410   6.282   2.816   4.605  0.1665  2.0335  0.5154
 6171SOL     OW19411   6.444   1.693   0.140 -0.9684 -0.9370 -0.3649
 6171SOL    HW119412   6.394   1.776   0.164 -0.5110  0.0506 -2.6138
 6171SOL    HW219413   6.508   1.670   0.214  0.2850  1.8432 -0.4793
 6172SOL     OW19414   6.500   5.668   3.328 -0.1372  0.3411 -0.7420
 6172SOL    HW119415   6.558   5.744   3.358 -1.4808  0.7107  1.1084
 6172SOL    HW219416   6.408   5.703   3.307 -0.6898 -0.7113 -0.1590
 6173SOL     OW19417   0.060   6.467   3.323  0.5804  0.2437 -0.5375
 6173SOL    HW119418   0.149   6.422   3.318  0.7448  0.4980  0.0656
 6173SOL    HW219419  -0.007   6.415   3.270  0.8475 -0.5193 -0.1290
 6174SOL     OW19420   1.121   1.485   2.659 -0.0990  0.1667  0.2109
 6174SOL    HW119421   1.067   1.417   2.610  1.3452  0.9903 -2.7666
 6174SOL    HW219422   1.064   1.562   2.685 -0.9774 -0.4290  0.0697
 6175SOL     OW19423   3.638   1.129   6.272 -0.2609 -0.1978 -0.2066
 6175SOL    HW119424   3.600   1.178   6.194  1.8523  1.0462 -0.5337
 6175SOL    HW219425   3.651   1.033   6.248 -2.8895 -0.6457 -0.1255
 6176SOL     OW19426   2.270   6.866   6.525  0.4688 -0.4511  0.0222
 6176SOL    HW119427   2.254   6.917   6.610  0.8094  2.2728 -1.4223
 6176SOL    HW219428   2.366   6.876   6.498 -0.1858  1.0199 -1.9871
 6177SOL     OW19429   6.214   5.819   1.550  0.4700  0.0817 -0.3046
 6177SOL    HW119430   6.214   5.739   1.609  1.5261  0.9817  0.9682
 6177SOL    HW219431   6.174   5.897   1.599  1.6797  0.9323 -0.6166
 6178SOL     OW19432   4.747   4.667   1.017  0.0501  0.1278 -0.3456
 6178SOL    HW119433   4.811   4.609   0.967  0.2239  1.7565 -2.1301
 6178SOL    HW219434   4.775   4.675   1.112  1.4162 -0.6904 -0.6623
 6179SOL     OW19435   3.084   5.782   4.749 -0.2581 -0.1610  0.0167
 6179SOL    HW119436   3.042   5.724   4.818 -1.5056 -2.1332 -2.2443
 6179SOL    HW219437   3.168   5.739   4.716  0.3021  0.7382  0.2339
 6180SOL     OW19438   1.857   2.258   5.221  0.8574  0.1782 -0.1465
 6180SOL    HW119439   1.893   2.297   5.306  0.5024  1.9319 -0.7565
 6180SOL    HW219440   1.905   2.173   5.201  1.4355  0.0951  1.4389
 6181SOL     OW19441   6.718   0.570   1.699  0.2295  0.1220  0.5176
 6181SOL    HW119442   6.697   0.477   1.727  0.3247 -0.2830 -0.7015
 6181SOL    HW219443   6.812   0.592   1.725  1.3510 -1.2966 -1.9461
 6182SOL     OW19444   3.048   1.565   6.005  0.0033 -0.3207  0.4008
 6182SOL    HW119445   3.095   1.492   5.956 -0.3170  0.0956 -0.5555
 6182SOL    HW219446   3.067   1.557   6.103 -0.6301 -2.1185  0.4058
 6183SOL     OW19447   0.760   4.998   6.747 -0.3221 -0.6469 -0.3920
 6183SOL    HW119448   0.702   4.923   6.780 -0.6540 -0.6735 -1.0137
 6183SOL    HW219449   0.822   4.964   6.676  0.5856 -0.6535  0.3993
 6184SOL     OW19450   3.161   0.375   6.988  0.2525 -0.2819  0.3840
 6184SOL    HW119451   3.162   0.473   6.970  1.3055 -0.3372  0.0716
 6184SOL    HW219452   3.074   0.349   7.031 -0.3091  0.6703 -0.1513
 6185SOL     OW19453   3.007   3.907   1.804  0.5358 -0.0941 -0.2728
 6185SOL    HW119454   2.960   3.854   1.875  4.7166 -0.7821  2.3335
 6185SOL    HW219455   3.047   3.844   1.737  1.2710  0.1154 -0.0386
 6186SOL     OW19456   0.993   0.755   2.090 -0.2348  0.3035 -0.2654
 6186SOL    HW119457   1.092   0.758   2.105  0.2451 -1.6510 -2.3612
 6186SOL    HW219458   0.948   0.713   2.169  1.0003 -1.3493 -0.3871
 6187SOL     OW19459   2.881   3.515   5.208 -0.1974 -0.0086 -0.3143
 6187SOL    HW119460   2.963   3.502   5.151 -0.1457 -0.5152 -0.1318
 6187SOL    HW219461   2.892   3.464   5.293 -0.7692 -0.2042 -0.3525
 6188SOL     OW19462   2.411   1.356   3.590 -0.0178  0.4432 -0.2781
 6188SOL    HW119463   2.511   1.365   3.593  0.2551 -0.6460 -2.8984
 6188SOL    HW219464   2.387   1.275   3.536 -2.3376  0.9347 -0.0844
 6189SOL     OW19465   6.609   2.936   2.488 -0.3743 -0.2910 -0.0553
 6189SOL    HW119466   6.602   3.032   2.463 -1.3022 -0.6255 -1.1014
 6189SOL    HW219467   6.681   2.892   2.434  0.1340 -0.1690  0.5093
 6190SOL     OW19468   1.571   4.157   2.335  0.2059 -0.8495 -0.1757
 6190SOL    HW119469   1.582   4.102   2.418 -1.3427 -1.2549 -0.2232
 6190SOL    HW219470   1.481   4.141   2.296  0.8779 -0.6016 -1.9081
 6191SOL     OW19471   0.860   5.551   5.293 -0.0387 -0.2838  0.0590
 6191SOL    HW119472   0.873   5.554   5.194 -1.1256  2.2477 -0.0876
 6191SOL    HW219473   0.787   5.615   5.319  0.1735 -0.9354  2.4927
 6192SOL     OW19474   2.528   1.880   2.135  0.2760 -0.1228 -0.2487
 6192SOL    HW119475   2.497   1.966   2.094  0.4119 -0.4466 -1.0568
 6192SOL    HW219476   2.622   1.890   2.166 -0.5516  0.8510  2.1718
 6193SOL     OW19477   5.371   5.104   0.726  0.6365 -0.5863  0.1709
 6193SOL    HW119478   5.278   5.088   0.692  1.1345 -1.6383 -0.7464
 6193SOL    HW219479   5.373   5.094   0.826 -0.4880  0.7667  0.3612
 6194SOL     OW19480   6.774   1.097   5.509 -0.2672  0.1112  0.1242
 6194SOL    HW119481   6.872   1.120   5.513  0.6256 -3.2023  1.0806
 6194SOL    HW219482   6.751   1.040   5.588 -2.8758  0.3212 -0.4067
 6195SOL     OW19483   5.365   6.842   6.598 -0.0785  0.0184  0.2125
 6195SOL    HW119484   5.367   6.939   6.574 -0.8769  0.8335  3.0280
 6195SOL    HW219485   5.288   6.798   6.553 -1.1173  1.2550  0.7206
 6196SOL     OW19486   1.117   3.968   2.442 -0.1144  0.2417 -0.1181
 6196SOL    HW119487   1.130   4.019   2.357  0.7136 -1.5698 -1.1297
 6196SOL    HW219488   1.022   3.939   2.449 -0.4307  1.3028  0.1230
 6197SOL     OW19489   1.521   4.962   1.978  0.3759 -0.2228  0.4342
 6197SOL    HW119490   1.431   4.952   1.936  0.8031  2.1897 -1.2773
 6197SOL    HW219491   1.586   4.901   1.935  0.4838  1.2041 -1.5554
 6198SOL     OW19492   6.435   2.442   5.449 -0.0338 -0.5324  0.0629
 6198SOL    HW119493   6.347   2.404   5.422  0.6096 -1.0627 -1.3789
 6198SOL    HW219494   6.421   2.529   5.495 -1.5110 -2.1258  2.9090
 6199SOL     OW19495   2.467   4.825   4.624  0.5751 -0.0875 -0.3141
 6199SOL    HW119496   2.386   4.868   4.666 -0.2489 -1.0824 -0.8456
 6199SOL    HW219497   2.499   4.750   4.683 -0.1177 -0.9888 -1.0616
 6200SOL     OW19498   1.671   0.003   6.727 -0.0440 -0.3156  0.2221
 6200SOL    HW119499   1.749  -0.031   6.780  0.5098  0.5741 -0.0124
 6200SOL    HW219500   1.702   0.066   6.657 -0.9823  0.0762  0.1377
 6201SOL     OW19501   2.080   4.501   2.446  0.3964 -0.5668  0.0985
 6201SOL    HW119502   2.062   4.598   2.465  0.6425 -0.3704 -0.6168
 6201SOL    HW219503   2.027   4.474   2.365 -1.6786 -1.7192  1.7313
 6202SOL     OW19504   4.594   0.640   0.667 -0.2304 -0.3473  0.0234
 6202SOL    HW119505   4.561   0.730   0.639  0.9621 -0.1260 -0.7500
 6202SOL    HW219506   4.597   0.579   0.588 -0.2130 -0.8047  0.3715
 6203SOL     OW19507   1.384   1.324   1.970 -0.0389 -0.6147  0.0545
 6203SOL    HW119508   1.407   1.325   2.068  1.6845  1.1715 -0.2923
 6203SOL    HW219509   1.367   1.418   1.939 -0.3837 -1.1352 -1.4184
 6204SOL     OW19510   6.843   5.158   5.247 -0.1909 -0.6946 -0.3141
 6204SOL    HW119511   6.829   5.138   5.150 -0.5136  2.1708 -0.9724
 6204SOL    HW219512   6.878   5.077   5.294  0.9528 -1.8832 -3.0097
 6205SOL     OW19513   2.964   5.563   2.899  0.3182 -0.3950  0.7127
 6205SOL    HW119514   2.867   5.560   2.877  0.6331  1.6884 -1.3422
 6205SOL    HW219515   2.982   5.639   2.962  0.8940  1.2456 -1.2832
 6206SOL     OW19516   4.899   1.338   2.646  0.2829 -0.2316  0.3676
 6206SOL    HW119517   4.913   1.342   2.745 -0.2134  1.0227  0.4069
 6206SOL    HW219518   4.970   1.392   2.600  0.0305 -0.1307  0.0941
 6207SOL     OW19519   1.629   6.798   3.271 -0.2279 -0.3396  0.8857
 6207SOL    HW119520   1.632   6.853   3.187  2.2180 -0.8930  0.5324
 6207SOL    HW219521   1.613   6.702   3.247  1.4681 -0.6580  0.9022
 6208SOL     OW19522   4.955   6.027   5.909  0.2375 -0.1737  0.2863
 6208SOL    HW119523   4.886   6.052   5.842 -1.2634 -2.2022  0.9817
 6208SOL    HW219524   4.938   5.934   5.942  2.2908 -0.0956  1.7756
 6209SOL     OW19525   3.012   0.710   2.152 -0.1367 -0.3472 -0.3907
 6209SOL    HW119526   2.982   0.805   2.164 -0.0946  0.0993 -3.1297
 6209SOL    HW219527   2.936   0.649   2.174 -1.1160  0.4941 -1.2998
 6210SOL     OW19528   5.659   6.864   2.831  0.3035  0.0779 -0.1563
 6210SOL    HW119529   5.664   6.964   2.832 -2.1542  0.2754  2.1732
 6210SOL    HW219530   5.750   6.826   2.845  1.0109  2.0600  1.0015
 6211SOL     OW19531   3.985   3.182   5.648 -0.1002 -0.3279 -0.6042
 6211SOL    HW119532   3.988   3.084   5.667 -0.6368 -0.1829  0.2673
 6211SOL    HW219533   3.994   3.233   5.733 -1.1647  0.3738 -0.8942
 6212SOL     OW19534   4.392   4.169   0.103 -0.1238 -0.1428 -0.1116
 6212SOL    HW119535   4.456   4.112   0.052  0.1053 -0.3923  0.4438
 6212SOL    HW219536   4.435   4.198   0.189 -1.0059 -0.9288  0.6196
 6213SOL     OW19537   4.311   5.171   0.466  0.1675 -0.1608  0.2797
 6213SOL    HW119538   4.411   5.175   0.473  0.1337  2.1713  0.1479
 6213SOL    HW219539   4.285   5.107   0.393  1.5955 -0.2128 -0.2117
 6214SOL     OW19540   0.176   3.309   5.801 -0.2352 -0.0982  0.1930
 6214SOL    HW119541   0.099   3.319   5.738 -0.6772  0.9934  0.8869
 6214SOL    HW219542   0.240   3.385   5.787  1.6606 -1.8701 -1.5844
 6215SOL     OW19543   4.790   4.608   4.931  0.1663 -0.2169  0.5538
 6215SOL    HW119544   4.717   4.610   4.999 -0.5505  0.4612 -0.2203
 6215SOL    HW219545   4.801   4.515   4.896  0.9069 -0.6931  1.9561
 6216SOL     OW19546   6.766   3.732   5.996 -0.0791  0.1205  0.7837
 6216SOL    HW119547   6.700   3.754   5.925  0.1325  0.5894  0.7290
 6216SOL    HW219548   6.725   3.748   6.086 -1.4643 -3.4097  0.9418
 6217SOL     OW19549   0.124   3.740   2.054  0.6588  0.1024  0.3833
 6217SOL    HW119550   0.077   3.803   2.116  0.5200  0.9150 -0.5399
 6217SOL    HW219551   0.057   3.696   1.995  0.8083 -0.5835  0.7082
 6218SOL     OW19552   4.853   0.727   0.522 -0.2979 -0.2348 -0.0118
 6218SOL    HW119553   4.766   0.677   0.532 -0.3980 -0.1415 -0.4217
 6218SOL    HW219554   4.860   0.764   0.430  0.0681 -0.0284  0.0980
 6219SOL     OW19555   1.568   2.793   0.944 -0.4314 -0.2459 -0.4282
 6219SOL    HW119556   1.502   2.729   0.903 -1.8091  1.2914 -0.7222
 6219SOL    HW219557   1.536   2.818   1.036 -1.0647  1.5791 -1.0952
 6220SOL     OW19558   3.555   1.071   1.932  0.7113  0.1112 -0.4076
 6220SOL    HW119559   3.575   0.981   1.892  1.9426  1.2739 -2.5978
 6220SOL    HW219560   3.563   1.141   1.861  2.2560  2.2589  1.7311
 6221SOL     OW19561   3.195   5.169   5.125  0.0729 -0.6003 -0.1624
 6221SOL    HW119562   3.265   5.198   5.190  0.8152 -2.7340  0.0900
 6221SOL    HW219563   3.194   5.230   5.046  1.3547  0.1987  0.4216
 6222SOL     OW19564   0.289   0.096   1.311 -0.3279 -0.4521 -0.2257
 6222SOL    HW119565   0.317   0.192   1.313  0.1762 -0.5779 -0.8989
 6222SOL    HW219566   0.326   0.049   1.392 -0.0049 -0.2279 -0.2387
 6223SOL     OW19567   5.708   2.483   3.386 -0.1223 -0.9446  0.8090
 6223SOL    HW119568   5.800   2.469   3.423 -0.2204 -0.6226  1.1890
 6223SOL    HW219569   5.666   2.561   3.433 -0.4831 -0.9176  0.4406
 6224SOL     OW19570   3.917   0.707   6.973 -0.6464 -0.4822 -0.5748
 6224SOL    HW119571   3.914   0.788   6.915 -0.6831  0.5916  0.8754
 6224SOL    HW219572   3.871   0.631   6.926 -2.2402  0.8120 -1.2363
 6225SOL     OW19573   4.706   5.841   4.982 -0.4499  0.0009 -0.7554
 6225SOL    HW119574   4.753   5.883   4.905 -0.8781  0.0433 -0.9984
 6225SOL    HW219575   4.664   5.912   5.039  3.4897  0.4021  2.0326
 6226SOL     OW19576   0.548   0.030   4.938  0.1680 -0.0390 -0.1244
 6226SOL    HW119577   0.537  -0.018   4.851  0.9182  0.6804 -0.6227
 6226SOL    HW219578   0.471   0.092   4.951  0.7673  0.9152 -0.9759
 6227SOL     OW19579   0.613   5.282   6.463 -1.0337  0.2578 -0.4049
 6227SOL    HW119580   0.671   5.326   6.394 -1.0939 -0.1384 -0.7149
 6227SOL    HW219581   0.562   5.351   6.514 -1.1981  0.5423 -0.9503
 6228SOL     OW19582   0.352   2.376   4.869  0.3003  0.2299 -0.4134
 6228SOL    HW119583   0.451   2.373   4.855  0.2702  0.3140 -0.6481
 6228SOL    HW219584   0.328   2.456   4.924  0.4036 -0.0167 -0.0044
 6229SOL     OW19585   0.320   5.458   3.122 -0.4662  0.2145 -0.3156
 6229SOL    HW119586   0.248   5.453   3.191  0.0203  1.8869  0.3688
 6229SOL    HW219587   0.310   5.543   3.070 -0.1523 -0.4852 -1.5675
 6230SOL     OW19588   1.962   0.221   6.955 -0.0754  0.0559  0.2000
 6230SOL    HW119589   1.909   0.138   6.944  0.7900 -0.8418  2.2689
 6230SOL    HW219590   1.904   0.301   6.936 -0.9995 -0.9529 -1.4768
 6231SOL     OW19591   5.728   4.383   4.541  0.3659  0.1285  0.5890
 6231SOL    HW119592   5.810   4.357   4.490 -0.1882 -2.5185  0.8889
 6231SOL    HW219593   5.714   4.319   4.617 -2.1455  0.2534  0.3366
 6232SOL     OW19594   5.132   0.997   0.266  0.3177  0.0544  0.1783
 6232SOL    HW119595   5.141   1.026   0.170  0.4266 -0.0278  0.1645
 6232SOL    HW219596   5.040   0.960   0.280  0.7710 -1.2926 -0.2591
 6233SOL     OW19597   5.830   4.490   0.667  0.6447 -0.0692  0.3973
 6233SOL    HW119598   5.905   4.475   0.603  1.9405 -2.1337  2.2551
 6233SOL    HW219599   5.776   4.406   0.675  0.1738  0.3271  1.5742
 6234SOL     OW19600   5.409   5.223   2.633 -0.2638  0.0924  0.0103
 6234SOL    HW119601   5.344   5.150   2.609 -2.4413  2.1975 -0.9442
 6234SOL    HW219602   5.469   5.191   2.706 -1.5303 -2.4118  0.0846
 6235SOL     OW19603   0.802   1.600   0.145  0.5235  0.0214 -0.4059
 6235SOL    HW119604   0.740   1.564   0.075 -1.1867  1.3589  0.3491
 6235SOL    HW219605   0.822   1.696   0.126  0.1087  0.3787  0.8617
 6236SOL     OW19606   6.112   6.356   1.895  0.5152 -0.2879  0.1918
 6236SOL    HW119607   6.198   6.319   1.932 -0.0684 -1.4952  0.3972
 6236SOL    HW219608   6.067   6.287   1.839  0.1914  0.7083 -0.8186
 6237SOL     OW19609   2.686   0.486   3.947 -0.7505 -0.7811  0.9093
 6237SOL    HW119610   2.734   0.439   3.873  0.9218 -0.0429  1.4821
 6237SOL    HW219611   2.619   0.549   3.908  0.6719  0.2004 -0.0492
 6238SOL     OW19612   3.784   6.494   1.877  0.1418 -0.1393  0.0037
 6238SOL    HW119613   3.704   6.550   1.901  0.1575 -0.1449  0.0691
 6238SOL    HW219614   3.826   6.460   1.960  1.2129  1.2525  0.0732
 6239SOL     OW19615   3.922   0.420   5.682 -0.0158 -0.7015 -0.0786
 6239SOL    HW119616   3.889   0.330   5.711  0.8332 -1.0234 -0.1094
 6239SOL    HW219617   3.943   0.417   5.584 -0.5771 -0.2865 -0.2204
 6240SOL     OW19618   4.361   3.405   5.409  0.1750 -0.4610  0.5672
 6240SOL    HW119619   4.265   3.426   5.429 -0.1788 -1.6534  0.2256
 6240SOL    HW219620   4.401   3.479   5.355 -0.7399 -0.2435  0.1690
 6241SOL     OW19621   1.781   0.354   2.030 -0.7503  0.1072 -0.2762
 6241SOL    HW119622   1.786   0.397   2.120 -0.9912 -1.0788  0.3319
 6241SOL    HW219623   1.727   0.411   1.969 -2.6910 -0.1895  1.0515
 6242SOL     OW19624   2.772   1.869   5.037  0.1206 -0.1598 -0.0689
 6242SOL    HW119625   2.777   1.786   4.982  0.9921  0.3995 -0.8514
 6242SOL    HW219626   2.680   1.907   5.033 -0.4942 -1.4574  0.8803
 6243SOL     OW19627   3.631   0.852   6.957  0.4813  0.2456 -0.1678
 6243SOL    HW119628   3.559   0.837   6.889  0.5679 -0.8326 -0.0328
 6243SOL    HW219629   3.717   0.874   6.910  0.2035  0.9900 -0.3454
 6244SOL     OW19630   5.748   3.050   2.244  0.2660  0.1830 -0.1155
 6244SOL    HW119631   5.668   3.102   2.274  1.5122  2.4008 -0.4639
 6244SOL    HW219632   5.719   2.958   2.217 -2.2435  1.0563 -0.7072
 6245SOL     OW19633   6.357   4.669   2.228  0.5454 -0.0902  0.2092
 6245SOL    HW119634   6.322   4.750   2.275 -1.3692  1.0330 -2.8410
 6245SOL    HW219635   6.401   4.696   2.143  0.2477 -2.2032 -0.6858
 6246SOL     OW19636   6.462   0.270   5.730 -0.1881  0.0493 -0.2810
 6246SOL    HW119637   6.556   0.276   5.764 -0.7129  0.8266  1.0976
 6246SOL    HW219638   6.446   0.179   5.692  1.3240  0.1306 -1.1995
 6247SOL     OW19639   0.206   4.664   4.370  0.3266 -0.0052  0.1490
 6247SOL    HW119640   0.166   4.597   4.307  0.6680 -0.3881  0.3318
 6247SOL    HW219641   0.208   4.754   4.327  2.0978 -0.5635 -1.0545
 6248SOL     OW19642   6.962   2.955   6.111 -0.2888 -0.0019  0.5872
 6248SOL    HW119643   7.059   2.964   6.134 -0.1841 -0.1516  0.2192
 6248SOL    HW219644   6.907   2.960   6.194 -0.2694  3.7195  0.5240
 6249SOL     OW19645   4.841   3.092   2.735  0.0625 -0.1968 -0.2790
 6249SOL    HW119646   4.849   3.011   2.678 -0.7688 -0.7835  0.4168
 6249SOL    HW219647   4.852   3.066   2.831  0.2680  0.5930 -0.0820
 6250SOL     OW19648   4.630   6.811   5.825  0.0060 -0.2194  0.1109
 6250SOL    HW119649   4.614   6.894   5.879 -1.0766 -0.1077 -0.3337
 6250SOL    HW219650   4.691   6.750   5.874 -0.8708 -0.0832  1.4323
 6251SOL     OW19651   2.664   1.086   3.727 -0.6569 -0.3951 -0.2826
 6251SOL    HW119652   2.609   1.081   3.811  0.0268 -2.1005  0.0982
 6251SOL    HW219653   2.607   1.065   3.648 -0.7161 -1.4978  0.0444
 6252SOL     OW19654   2.241   6.012   6.514  0.4195  0.1192 -0.9379
 6252SOL    HW119655   2.168   5.996   6.448 -0.2267 -0.2374 -0.1490
 6252SOL    HW219656   2.205   6.003   6.607  1.6464 -0.8692 -0.5366
 6253SOL     OW19657   5.138   1.515   6.242 -0.7269  0.3327  0.2962
 6253SOL    HW119658   5.098   1.423   6.247 -1.5655  0.6191 -0.8251
 6253SOL    HW219659   5.225   1.511   6.192 -0.4463  0.0623  0.7951
 6254SOL     OW19660   6.874   0.104   2.276  0.1847 -0.3230  0.3717
 6254SOL    HW119661   6.796   0.091   2.337  0.7679  0.4400  1.3146
 6254SOL    HW219662   6.948   0.042   2.303 -0.0871 -1.0638 -0.5371
 6255SOL     OW19663   3.100   0.597   0.210  0.2844 -0.1773 -0.2739
 6255SOL    HW119664   3.166   0.578   0.138  0.1645 -0.3662 -0.3355
 6255SOL    HW219665   3.014   0.549   0.190 -0.6248  1.7561 -1.3191
 6256SOL     OW19666   0.261   3.998   1.866  0.1764  0.0301 -0.0157
 6256SOL    HW119667   0.328   4.066   1.836  0.2218 -0.9646 -2.4064
 6256SOL    HW219668   0.303   3.936   1.933  1.4335 -0.1052 -0.8958
 6257SOL     OW19669   4.320   4.675   6.898 -0.5022 -0.5815 -0.0226
 6257SOL    HW119670   4.267   4.672   6.983 -0.9980  1.3459 -0.2230
 6257SOL    HW219671   4.330   4.582   6.862  0.5108 -1.5752  2.5775
 6258SOL     OW19672   3.640   6.867   6.160  0.5255 -0.7705 -0.0052
 6258SOL    HW119673   3.565   6.802   6.147  0.0808 -0.4651  0.9584
 6258SOL    HW219674   3.709   6.853   6.088  0.4296 -2.2818  0.1578
 6259SOL     OW19675   4.912   0.964   6.061  0.0859  0.4215  0.3802
 6259SOL    HW119676   4.949   0.980   5.970  1.3094  0.4817  0.8630
 6259SOL    HW219677   4.813   0.980   6.061 -0.1182 -0.6069 -1.1638
 6260SOL     OW19678   4.020   1.816   5.740 -0.7342 -0.4740  0.5194
 6260SOL    HW119679   3.983   1.740   5.686  1.1727 -1.1222  0.0076
 6260SOL    HW219680   4.051   1.888   5.678  0.1478 -0.5893  0.8106
 6261SOL     OW19681   5.095   6.186   0.624  0.5450  0.4068 -0.2650
 6261SOL    HW119682   4.995   6.174   0.627  0.6807 -0.7135  0.0004
 6261SOL    HW219683   5.140   6.102   0.654  1.5739  1.0629  0.0828
 6262SOL     OW19684   5.889   1.685   4.386  0.0448 -0.0530 -0.3039
 6262SOL    HW119685   5.930   1.740   4.314  0.4111  0.5741  0.3679
 6262SOL    HW219686   5.790   1.687   4.378  0.0084  1.4323  0.2110
 6263SOL     OW19687   6.821   6.676   0.126  0.3797 -0.2836  0.3025
 6263SOL    HW119688   6.866   6.662   0.038 -0.0932  1.3529 -0.2336
 6263SOL    HW219689   6.828   6.772   0.153 -0.7205 -0.4638  1.3568
 6264SOL     OW19690   1.697   6.843   2.754  0.7153  0.0740  0.1276
 6264SOL    HW119691   1.612   6.896   2.749 -0.1109 -1.1941 -0.0164
 6264SOL    HW219692   1.774   6.904   2.770 -0.0930  1.3788 -0.7263
 6265SOL     OW19693   3.329   4.934   0.120 -0.4471 -0.7062  0.9143
 6265SOL    HW119694   3.348   5.026   0.084 -0.8038 -0.7133  0.7015
 6265SOL    HW219695   3.408   4.901   0.171  0.8781 -1.4694 -1.4548
 6266SOL     OW19696   1.774   5.497   1.723 -0.2723 -0.5237 -0.6404
 6266SOL    HW119697   1.739   5.461   1.809 -0.6942  0.1734 -0.5191
 6266SOL    HW219698   1.860   5.450   1.700  0.3078 -0.1008  0.6000
 6267SOL     OW19699   7.005   6.997   2.682 -0.5522  0.2976 -0.1132
 6267SOL    HW119700   7.027   6.958   2.592 -0.5968 -0.0184  0.0122
 6267SOL    HW219701   6.984   7.094   2.671 -1.0051  0.1583 -0.5123
 6268SOL     OW19702   3.748   1.808   2.259 -0.5041  0.1028  0.0946
 6268SOL    HW119703   3.826   1.770   2.309 -0.7700 -1.0328 -0.3054
 6268SOL    HW219704   3.720   1.895   2.300  1.9100  1.3275 -0.6473
 6269SOL     OW19705   6.316   4.657   0.905 -0.1647 -0.4010 -0.7834
 6269SOL    HW119706   6.223   4.630   0.932  0.7879  0.1961  3.8679
 6269SOL    HW219707   6.316   4.753   0.877 -0.9136 -0.3720 -0.6996
 6270SOL     OW19708   1.677   4.339   0.943 -0.5060  0.4242 -0.0999
 6270SOL    HW119709   1.725   4.281   0.877 -1.6017 -0.0288 -0.5326
 6270SOL    HW219710   1.709   4.318   1.035 -0.6888 -0.6827 -0.2759
 6271SOL     OW19711   0.335   3.213   5.257  0.1205 -0.3469  0.1518
 6271SOL    HW119712   0.425   3.208   5.302  0.3340 -0.1446 -0.2547
 6271SOL    HW219713   0.271   3.262   5.317  0.0146 -1.3307  0.8729
 6272SOL     OW19714   6.729   1.031   1.248  0.5487 -0.6856 -0.3550
 6272SOL    HW119715   6.646   0.977   1.233 -0.8685  0.5333  2.4277
 6272SOL    HW219716   6.775   1.000   1.332  2.2742 -0.5202 -1.1915
 6273SOL     OW19717   1.742   4.885   3.483 -0.1640 -0.3298 -0.4375
 6273SOL    HW119718   1.689   4.880   3.567  1.7242  2.7152  1.1143
 6273SOL    HW219719   1.822   4.826   3.490 -0.4749 -0.7644 -0.5015
 6274SOL     OW19720   6.828   0.343   5.105 -0.7453 -0.1739 -0.0377
 6274SOL    HW119721   6.765   0.322   5.031 -0.1395 -0.4433 -0.4901
 6274SOL    HW219722   6.859   0.438   5.096 -2.0691  0.3721  0.9385
 6275SOL     OW19723   2.419   6.342   1.367  0.1401  0.3692  0.5471
 6275SOL    HW119724   2.498   6.338   1.429  2.4299  1.0138 -2.1247
 6275SOL    HW219725   2.438   6.406   1.293 -2.1153 -0.9529 -1.3070
 6276SOL     OW19726   2.282   4.256   4.826  0.6776 -0.7754 -0.0697
 6276SOL    HW119727   2.309   4.336   4.881  0.0778 -0.6654  0.0699
 6276SOL    HW219728   2.291   4.173   4.882  0.7497 -0.7435 -0.0334
 6277SOL     OW19729   4.532   1.608   0.945  0.2737 -0.4082 -0.4613
 6277SOL    HW119730   4.438   1.584   0.925 -0.0412  1.3845 -1.2957
 6277SOL    HW219731   4.589   1.525   0.943 -1.1020 -1.3743 -0.9002
 6278SOL     OW19732   4.135   3.396   0.569  0.3757  0.1414 -0.4331
 6278SOL    HW119733   4.192   3.381   0.650 -0.4733  0.0898  0.1592
 6278SOL    HW219734   4.094   3.487   0.573 -0.8861 -0.4293 -0.0357
 6279SOL     OW19735   2.158   4.999   1.991  0.2627  0.2575 -0.3965
 6279SOL    HW119736   2.227   5.067   2.014  1.5843 -2.1054  3.5162
 6279SOL    HW219737   2.200   4.924   1.941 -0.2120  0.2776 -0.8348
 6280SOL     OW19738   4.420   0.664   0.271  0.2790  0.0455  0.0840
 6280SOL    HW119739   4.437   0.755   0.232 -0.8284  0.2760  0.1047
 6280SOL    HW219740   4.470   0.595   0.219  0.5335  0.5894 -0.3968
 6281SOL     OW19741   5.352   5.130   6.260  0.1094 -0.1707  0.0189
 6281SOL    HW119742   5.269   5.156   6.209 -0.3164 -2.8157 -0.8154
 6281SOL    HW219743   5.329   5.057   6.324  1.8170 -1.0966 -0.3827
 6282SOL     OW19744   1.978   5.134   4.964  0.2429  0.3175 -0.3492
 6282SOL    HW119745   1.886   5.118   4.999  0.2063 -0.3966 -0.7590
 6282SOL    HW219746   2.045   5.121   5.037 -0.0235  1.7163  0.1843
 6283SOL     OW19747   1.228   5.342   1.716 -0.2797 -0.1494 -0.6432
 6283SOL    HW119748   1.291   5.414   1.687  0.4566  0.0834  1.3772
 6283SOL    HW219749   1.233   5.331   1.816 -1.5273 -1.9314 -0.7255
 6284SOL     OW19750   2.059   6.775   4.923 -0.1011 -0.0709  0.2198
 6284SOL    HW119751   1.994   6.836   4.968 -0.0809  0.1811 -0.0865
 6284SOL    HW219752   2.099   6.713   4.991 -0.9196 -0.4713  0.3422
 6285SOL     OW19753   1.415   5.791   3.087 -0.2135  0.0464  0.1688
 6285SOL    HW119754   1.504   5.788   3.042  0.2035 -0.3990  0.9994
 6285SOL    HW219755   1.353   5.848   3.033  0.4812  0.1335 -0.5711
 6286SOL     OW19756   1.782   3.853   1.348 -0.0844  0.3319  0.3078
 6286SOL    HW119757   1.817   3.812   1.264  2.0860  1.7820  0.4420
 6286SOL    HW219758   1.812   3.948   1.354 -3.3437  1.4522  0.9303
 6287SOL     OW19759   2.125   5.637   4.386 -0.2044 -0.4329  0.2209
 6287SOL    HW119760   2.083   5.728   4.394 -1.1845 -1.0149  2.5270
 6287SOL    HW219761   2.084   5.575   4.453  1.3721 -2.2473 -0.3880
 6288SOL     OW19762   3.556   4.282   5.461 -0.4696  0.6714 -0.2722
 6288SOL    HW119763   3.508   4.273   5.373 -2.9040  2.4723  0.7891
 6288SOL    HW219764   3.587   4.376   5.473  0.9544  0.1639  0.3263
 6289SOL     OW19765   0.563   4.073   6.338  0.0599  0.1917 -0.2823
 6289SOL    HW119766   0.585   3.976   6.348  2.7855  0.7282 -0.2684
 6289SOL    HW219767   0.556   4.097   6.241 -1.3767 -0.1320 -0.2770
 6290SOL     OW19768   0.050   2.064   3.810  0.2076  0.4292 -0.5115
 6290SOL    HW119769   0.093   2.094   3.725 -0.9943  0.2341 -1.2107
 6290SOL    HW219770   0.026   2.144   3.866  1.9628  0.5253  0.1706
 6291SOL     OW19771   2.643   2.598   1.335 -0.0461  0.4504  0.2789
 6291SOL    HW119772   2.551   2.569   1.306 -0.3056  1.0597  0.4693
 6291SOL    HW219773   2.660   2.567   1.428  0.2262 -0.2744 -0.0030
 6292SOL     OW19774   1.413   3.892   4.549 -0.6040 -0.0945  0.0550
 6292SOL    HW119775   1.424   3.925   4.455 -0.1767  1.4230  0.6130
 6292SOL    HW219776   1.450   3.799   4.556  2.1223  0.8406 -0.6498
 6293SOL     OW19777   2.991   1.872   6.320  0.0768  0.0153 -0.5692
 6293SOL    HW119778   3.031   1.795   6.270  0.9230 -0.1828  0.3789
 6293SOL    HW219779   2.949   1.840   6.405 -0.6216  0.4505 -0.7405
 6294SOL     OW19780   4.798   0.494   2.297 -0.3914 -0.1393  0.5135
 6294SOL    HW119781   4.751   0.569   2.344  0.7649  1.8233 -1.2911
 6294SOL    HW219782   4.894   0.493   2.324  0.0272  0.2874 -0.8598
 6295SOL     OW19783   2.866   5.062   6.095  0.4987 -0.1701  0.2860
 6295SOL    HW119784   2.901   5.113   6.017  0.1184  0.8509  0.7756
 6295SOL    HW219785   2.857   5.123   6.174  0.6112 -1.1209  1.0561
 6296SOL     OW19786   0.274   4.586   0.851 -0.3919  1.3065 -0.1549
 6296SOL    HW119787   0.283   4.565   0.949 -0.1575 -0.6329 -0.5557
 6296SOL    HW219788   0.178   4.601   0.829 -1.0314 -2.0957 -0.2614
 6297SOL     OW19789   1.460   1.227   5.991 -0.0260 -0.0628  0.5581
 6297SOL    HW119790   1.553   1.215   5.955 -0.4383  1.1905 -1.0578
 6297SOL    HW219791   1.395   1.186   5.928 -0.6213 -0.2353  1.2828
 6298SOL     OW19792   6.384   6.691   6.803  0.5782  0.0303  0.4912
 6298SOL    HW119793   6.447   6.673   6.879  0.7382  2.3568  0.9870
 6298SOL    HW219794   6.427   6.756   6.740 -1.1056  1.2740  0.5706
 6299SOL     OW19795   3.299   1.893   4.613 -0.4435  0.8438 -0.9655
 6299SOL    HW119796   3.392   1.917   4.584  0.0372  1.2797  0.8491
 6299SOL    HW219797   3.262   1.967   4.669 -0.6177 -0.7043  1.0680
 6300SOL     OW19798   1.139   3.921   7.021 -0.0328 -0.0192  0.4045
 6300SOL    HW119799   1.178   4.004   7.062  0.8347 -0.9978  1.6722
 6300SOL    HW219800   1.040   3.925   7.027 -0.2194  2.2312 -2.2866
 6301SOL     OW19801   4.095   4.287   1.500 -0.5367  0.5699 -0.2902
 6301SOL    HW119802   4.156   4.240   1.564 -3.0847 -1.4782  0.8696
 6301SOL    HW219803   4.016   4.323   1.550 -0.2881  3.2658 -1.6837
 6302SOL     OW19804   0.770   3.283   0.882 -0.6587 -0.2348  0.0016
 6302SOL    HW119805   0.758   3.306   0.785 -2.0681 -0.6024  0.0657
 6302SOL    HW219806   0.862   3.247   0.897  0.3217  1.7800 -0.7920
 6303SOL     OW19807   5.549   5.333   4.774 -0.4324  0.1107  0.0372
 6303SOL    HW119808   5.452   5.357   4.770 -0.2357  0.7563 -1.4527
 6303SOL    HW219809   5.563   5.243   4.732 -0.2770  0.4559 -0.6760
 6304SOL     OW19810   2.280   1.445   4.203 -0.1746 -0.2840 -0.4494
 6304SOL    HW119811   2.194   1.425   4.157 -0.2166  4.2121 -2.9310
 6304SOL    HW219812   2.355   1.395   4.159 -1.0929 -1.9574 -0.1890
 6305SOL     OW19813   0.115   0.221   6.613  0.1717 -0.0219 -0.2099
 6305SOL    HW119814   0.109   0.317   6.638 -2.6034 -0.5595  1.5847
 6305SOL    HW219815   0.158   0.170   6.688  0.0483 -0.4195 -0.4088
 6306SOL     OW19816   0.948   5.725   4.593  0.1628  0.0155 -0.6609
 6306SOL    HW119817   0.917   5.805   4.644 -1.7875 -0.5921 -0.8201
 6306SOL    HW219818   0.983   5.657   4.656  0.9587  0.5984 -0.4509
 6307SOL     OW19819   3.266   3.502   2.632  0.9920  0.2142  0.3743
 6307SOL    HW119820   3.277   3.406   2.606  1.7146  0.0899  1.0957
 6307SOL    HW219821   3.256   3.558   2.550  2.5162 -0.2494 -0.1572
 6308SOL     OW19822   2.006   2.084   1.238 -0.2084 -0.8065 -0.1607
 6308SOL    HW119823   2.083   2.028   1.208  0.1457 -0.4656  0.1011
 6308SOL    HW219824   2.020   2.113   1.333 -1.0136 -1.3431  0.1363
 6309SOL     OW19825   0.408   0.767   2.649  0.2011  0.9205  0.1795
 6309SOL    HW119826   0.390   0.676   2.685  1.8639 -0.6985 -2.6493
 6309SOL    HW219827   0.437   0.828   2.723 -0.0276 -1.0994  2.0293
 6310SOL     OW19828   0.275   5.998   2.893 -0.1790  1.2107  0.0554
 6310SOL    HW119829   0.228   6.077   2.931 -2.7033  0.4475 -1.2945
 6310SOL    HW219830   0.264   5.919   2.953 -0.4955  1.0609 -0.2006
 6311SOL     OW19831   5.052   0.171   5.565 -0.6291  0.1701  0.1597
 6311SOL    HW119832   5.082   0.165   5.660 -1.2076  2.0766  0.5103
 6311SOL    HW219833   5.054   0.267   5.536  1.2812 -0.5471 -2.3467
 6312SOL     OW19834   4.001   6.168   2.247 -0.0511  0.8035 -0.2739
 6312SOL    HW119835   3.933   6.239   2.230 -0.1163  0.6160 -0.8364
 6312SOL    HW219836   4.083   6.187   2.193 -0.7291 -0.4745 -1.8597
 6313SOL     OW19837   6.267   3.358   3.008  0.5134 -0.5880 -0.3973
 6313SOL    HW119838   6.316   3.289   2.954  0.4780 -1.3624  0.5316
 6313SOL    HW219839   6.327   3.391   3.081  0.8348  1.0288 -1.3396
 6314SOL     OW19840   1.908   5.124   0.215  0.0550 -0.1922 -0.0466
 6314SOL    HW119841   1.823   5.090   0.174  0.1508  0.2931 -0.6570
 6314SOL    HW219842   1.898   5.220   0.240  1.5283  1.0061 -3.4861
 6315SOL     OW19843   1.681   1.142   2.722 -0.2624 -0.3221  0.0569
 6315SOL    HW119844   1.629   1.157   2.639 -1.0414  0.2083  0.6294
 6315SOL    HW219845   1.620   1.144   2.801  0.6635  0.7965  0.7884
 6316SOL     OW19846   5.398   1.714   6.448 -0.3849 -0.4209  0.4932
 6316SOL    HW119847   5.349   1.780   6.390 -0.5443  0.0311  1.1361
 6316SOL    HW219848   5.333   1.667   6.507 -0.2840 -1.2394 -0.0372
 6317SOL     OW19849   4.517   6.245   2.043 -0.2471  0.5772 -0.2028
 6317SOL    HW119850   4.597   6.187   2.062  0.4924  1.4931 -0.4511
 6317SOL    HW219851   4.501   6.247   1.944 -0.5039  0.4901 -0.1620
 6318SOL     OW19852   6.096   0.232   0.993  0.1263  0.4788 -0.0774
 6318SOL    HW119853   6.056   0.157   1.045 -0.1901 -0.6071 -1.8057
 6318SOL    HW219854   6.038   0.251   0.913  1.1216  1.3955 -0.5983
 6319SOL     OW19855   5.719   2.662   4.115  0.1739  0.1427 -0.2569
 6319SOL    HW119856   5.731   2.751   4.071  1.0111  0.1604 -0.0047
 6319SOL    HW219857   5.763   2.662   4.204 -0.7909 -0.1665  0.2387
 6320SOL     OW19858   1.042   6.931   6.993 -0.7169 -0.1625 -0.0966
 6320SOL    HW119859   1.085   6.971   7.075 -0.4154 -4.4151  2.0852
 6320SOL    HW219860   1.097   6.954   6.913  0.4791  2.0014  1.2292
 6321SOL     OW19861   3.339   3.527   6.673  0.2629  0.0741  0.3532
 6321SOL    HW119862   3.287   3.498   6.753  0.5310  0.9355  0.8518
 6321SOL    HW219863   3.430   3.558   6.702  0.7353 -0.5696 -0.4033
 6322SOL     OW19864   2.333   0.887   0.955 -0.2245  0.0038  0.0387
 6322SOL    HW119865   2.304   0.953   1.025 -0.1265 -0.0176  0.1008
 6322SOL    HW219866   2.365   0.936   0.874  0.2376  0.0478  0.2392
 6323SOL     OW19867   2.552   0.774   0.637 -0.5413  0.6366 -0.2251
 6323SOL    HW119868   2.494   0.855   0.640 -2.8931 -0.9462 -0.6078
 6323SOL    HW219869   2.508   0.699   0.685  1.3629 -0.5710 -0.2583
 6324SOL     OW19870   6.510   5.184   3.963 -0.3765 -0.1645 -0.0399
 6324SOL    HW119871   6.451   5.115   3.922  0.2196  0.3793 -1.9164
 6324SOL    HW219872   6.454   5.261   3.994 -0.8683 -0.6815  0.3716
 6325SOL     OW19873   1.975   3.297   2.792 -0.2597  0.2703  0.5721
 6325SOL    HW119874   2.034   3.281   2.871  0.0138 -0.8222  0.1720
 6325SOL    HW219875   1.925   3.213   2.770  0.5936  0.1646 -1.1498
 6326SOL     OW19876   4.785   6.706   4.415  0.2442  0.2782  0.3219
 6326SOL    HW119877   4.840   6.659   4.483  0.4666  0.7323  0.4602
 6326SOL    HW219878   4.822   6.689   4.324 -0.0130 -0.2723  0.3207
 6327SOL     OW19879   6.034   2.138   2.659 -0.0130 -0.3414  0.3151
 6327SOL    HW119880   6.078   2.075   2.596  0.1824  0.7347 -0.6604
 6327SOL    HW219881   6.101   2.204   2.693 -0.5987  0.6339 -0.3397
 6328SOL     OW19882   4.111   3.772   3.659 -0.3299  0.4007  0.1404
 6328SOL    HW119883   4.207   3.763   3.630 -0.3644  0.0676  0.1302
 6328SOL    HW219884   4.089   3.699   3.725  0.4013  2.3955  2.7703
 6329SOL     OW19885   6.037   4.853   5.453  0.3365  0.0546 -0.1966
 6329SOL    HW119886   6.124   4.822   5.415  0.2081  0.1586 -0.5765
 6329SOL    HW219887   6.001   4.784   5.516  0.9081  0.2058  0.3018
 6330SOL     OW19888   4.479   1.638   1.635 -0.2764  0.5516 -0.4083
 6330SOL    HW119889   4.444   1.606   1.547 -0.7955  0.5327 -0.2033
 6330SOL    HW219890   4.569   1.599   1.652 -0.2278  0.4626 -0.8788
 6331SOL     OW19891   2.524   1.966   3.442 -0.4644  0.1507  0.4050
 6331SOL    HW119892   2.558   1.926   3.357 -1.9636  1.5603 -0.9272
 6331SOL    HW219893   2.522   2.066   3.433 -1.4498  0.2842  1.7894
 6332SOL     OW19894   3.963   0.298   2.044  0.5768 -0.3638  0.2614
 6332SOL    HW119895   4.036   0.281   1.978  0.4989 -1.5671  0.4524
 6332SOL    HW219896   4.002   0.329   2.130  0.9331 -1.4749  0.5229
 6333SOL     OW19897   0.989   2.688   5.304 -0.2814 -0.5630  0.3514
 6333SOL    HW119898   0.958   2.632   5.227 -0.7003  1.2433 -0.8375
 6333SOL    HW219899   0.920   2.757   5.326  0.8443  0.4481  0.8205
 6334SOL     OW19900   4.163   1.396   3.891  0.7106  0.2408  0.5000
 6334SOL    HW119901   4.222   1.459   3.840  1.2398 -1.7249 -1.4801
 6334SOL    HW219902   4.191   1.302   3.872  0.7626 -0.6689  4.3451
 6335SOL     OW19903   4.871   2.522   4.057  0.2548  0.9653 -0.0497
 6335SOL    HW119904   4.948   2.487   4.005  0.9715  2.4592 -0.0412
 6335SOL    HW219905   4.903   2.590   4.123 -0.8160  0.1682  1.3581
 6336SOL     OW19906   2.106   5.375   5.562  0.2561 -0.0834  0.5032
 6336SOL    HW119907   2.050   5.329   5.632  0.9598 -3.5884 -0.9912
 6336SOL    HW219908   2.185   5.318   5.541  1.7327  2.3644 -1.0101
 6337SOL     OW19909   0.815   5.720   5.083  0.4421  0.2738  0.0767
 6337SOL    HW119910   0.756   5.765   5.150  0.6491  0.3952  0.1790
 6337SOL    HW219911   0.759   5.673   5.015  0.2333 -0.5088  0.7744
 6338SOL     OW19912   0.911   3.038   3.907 -0.3044  0.1794 -1.0542
 6338SOL    HW119913   0.924   3.119   3.851 -0.0515  0.0950 -1.1187
 6338SOL    HW219914   0.865   3.063   3.992 -0.0962  0.4161 -1.0083
 6339SOL     OW19915   6.813   2.252   4.275 -0.4413  0.8466 -0.0349
 6339SOL    HW119916   6.823   2.329   4.211  0.3276  0.7245 -0.0716
 6339SOL    HW219917   6.845   2.279   4.365  2.0961 -0.1225 -0.5798
 6340SOL     OW19918   3.465   5.537   6.748 -0.0876 -0.3675 -0.1165
 6340SOL    HW119919   3.419   5.588   6.675  0.8672  0.2511 -0.3092
 6340SOL    HW219920   3.490   5.447   6.715 -1.1227 -0.7125 -0.0135
 6341SOL     OW19921   1.966   5.066   1.038  0.2982 -0.2478 -0.2113
 6341SOL    HW119922   1.915   5.146   1.070 -1.1332 -1.1918 -0.0247
 6341SOL    HW219923   2.042   5.095   0.980 -0.5857  1.2171 -0.6777
 6342SOL     OW19924   1.592   0.804   0.344 -0.2729 -0.4880  0.2015
 6342SOL    HW119925   1.651   0.853   0.279 -1.6800 -0.7370 -1.3331
 6342SOL    HW219926   1.521   0.867   0.378  0.6702 -0.2504  1.8641
 6343SOL     OW19927   2.859   3.135   1.430  0.7909 -0.3689  0.2362
 6343SOL    HW119928   2.943   3.090   1.398 -0.3861 -2.3396 -0.2876
 6343SOL    HW219929   2.820   3.083   1.506  0.7021  1.2523  1.3338
 6344SOL     OW19930   1.998   0.354   4.042  0.8444  0.0992 -0.1053
 6344SOL    HW119931   1.918   0.378   4.098 -0.5930 -0.2003 -1.9475
 6344SOL    HW219932   1.986   0.390   3.950  2.2430 -1.0934 -0.7872
 6345SOL     OW19933   0.579   4.170   3.954  0.1153 -0.6630 -0.2217
 6345SOL    HW119934   0.669   4.132   3.931  0.7726  1.1194 -0.7599
 6345SOL    HW219935   0.539   4.117   4.028  2.9904  0.2918  2.2295
 6346SOL     OW19936   2.486   4.455   3.368  0.0060  0.0978  0.4997
 6346SOL    HW119937   2.450   4.416   3.283 -0.0763  0.2171  0.4793
 6346SOL    HW219938   2.482   4.555   3.363 -0.8927  0.0975  1.0263
 6347SOL     OW19939   1.848   3.374   1.752  0.0592  0.2071  0.0958
 6347SOL    HW119940   1.885   3.285   1.724  1.5215  1.0850 -0.9355
 6347SOL    HW219941   1.919   3.427   1.797 -0.9249  0.7136  1.1066
 6348SOL     OW19942   2.375   3.233   0.586  0.6343  0.5038  0.3673
 6348SOL    HW119943   2.393   3.232   0.685  0.4509 -0.0739  0.3951
 6348SOL    HW219944   2.462   3.232   0.537  0.7220  0.2056  0.5235
 6349SOL     OW19945   6.671   6.264   1.382 -0.1093 -0.6511 -0.2028
 6349SOL    HW119946   6.754   6.290   1.431  0.2702  2.0809 -2.1092
 6349SOL    HW219947   6.690   6.183   1.327  0.9196 -0.7669  0.2844
 6350SOL     OW19948   6.555   6.090   2.009  0.4577 -0.2626 -0.7596
 6350SOL    HW119949   6.521   6.126   2.096  0.4766  0.2617 -0.9623
 6350SOL    HW219950   6.651   6.064   2.019  1.0924  1.7352 -1.1414
 6351SOL     OW19951   0.725   1.448   4.252  0.5716  0.0924  0.8543
 6351SOL    HW119952   0.781   1.479   4.329  0.8031  1.2191  0.2569
 6351SOL    HW219953   0.696   1.354   4.267  2.8134 -0.6147  1.0973
 6352SOL     OW19954   2.394   0.812   4.615 -0.2158 -0.2645 -0.4660
 6352SOL    HW119955   2.427   0.899   4.578  0.8624 -1.1721 -1.7110
 6352SOL    HW219956   2.415   0.808   4.713  1.4115  0.1218 -0.7684
 6353SOL     OW19957   3.805   6.879   5.933 -0.0629 -0.3759 -1.4307
 6353SOL    HW119958   3.852   6.796   5.903 -1.5281 -1.1852 -1.5935
 6353SOL    HW219959   3.866   6.958   5.922  1.2657 -1.3773 -1.5250
 6354SOL     OW19960   5.654   4.930   4.296 -0.0225 -0.1573 -0.5140
 6354SOL    HW119961   5.691   5.020   4.320 -0.0690 -0.7438  2.0465
 6354SOL    HW219962   5.705   4.859   4.343 -0.5821 -1.4426 -1.7691
 6355SOL     OW19963   5.182   6.136   1.754 -0.2402  0.6065  0.5607
 6355SOL    HW119964   5.088   6.100   1.757 -0.0682 -0.5565 -3.0661
 6355SOL    HW219965   5.200   6.172   1.662  3.7291 -1.8194  0.1785
 6356SOL     OW19966   0.358   0.364   5.679 -0.2128  0.1136 -0.1535
 6356SOL    HW119967   0.406   0.433   5.734 -2.6708  0.8778  1.1403
 6356SOL    HW219968   0.382   0.273   5.711  1.3118  0.4023 -0.3867
 6357SOL     OW19969   5.742   1.879   2.312 -0.8369  0.1646  0.1193
 6357SOL    HW119970   5.644   1.880   2.332 -0.9344  2.8962 -0.0714
 6357SOL    HW219971   5.787   1.955   2.360  0.9627 -0.2260 -0.8333
 6358SOL     OW19972   2.810   1.630   5.311 -0.1170 -0.3482 -0.1036
 6358SOL    HW119973   2.826   1.727   5.293 -0.5633 -0.1315  0.6385
 6358SOL    HW219974   2.716   1.606   5.285 -0.0850 -0.5258 -0.0567
 6359SOL     OW19975   0.048   5.401   1.183  0.4332  0.6878 -0.2073
 6359SOL    HW119976   0.123   5.457   1.217  0.5957 -0.6024  1.7096
 6359SOL    HW219977  -0.033   5.459   1.171  1.1753  1.7225 -0.4131
 6360SOL     OW19978   4.640   1.628   5.924  0.2309  0.4344  0.2445
 6360SOL    HW119979   4.580   1.701   5.955  1.1106  1.0979  0.4351
 6360SOL    HW219980   4.715   1.615   5.989 -0.6811 -1.6532  0.9811
 6361SOL     OW19981   0.155   0.767   4.727 -0.1046  0.8866  0.1678
 6361SOL    HW119982   0.224   0.816   4.781  0.4134  1.6886 -1.1823
 6361SOL    HW219983   0.066   0.773   4.773  0.8469 -1.0579  2.4970
 6362SOL     OW19984   3.307   5.515   1.255 -0.4829  0.0733 -0.0627
 6362SOL    HW119985   3.362   5.550   1.331  1.3634 -1.0482 -0.8085
 6362SOL    HW219986   3.354   5.436   1.214 -2.5340 -0.7422 -0.9542
 6363SOL     OW19987   0.196   3.293   6.608 -0.4346  0.1176 -0.8076
 6363SOL    HW119988   0.185   3.195   6.588 -0.8988 -0.7567  2.8467
 6363SOL    HW219989   0.111   3.341   6.586 -1.1204 -0.8320 -0.3408
 6364SOL     OW19990   0.512   1.378   0.997  0.0159 -0.4659 -0.0459
 6364SOL    HW119991   0.523   1.341   1.089  2.8672 -0.5380 -0.3129
 6364SOL    HW219992   0.427   1.428   0.991 -0.7515 -1.3517  2.3054
 6365SOL     OW19993   0.121   0.797   2.592 -0.9558 -0.0559  0.1165
 6365SOL    HW119994   0.087   0.810   2.686  0.3297 -1.2964  0.8005
 6365SOL    HW219995   0.220   0.812   2.591 -1.0352  0.4308 -1.1651
 6366SOL     OW19996   5.720   3.044   4.891 -0.4421 -0.3923  0.3916
 6366SOL    HW119997   5.667   2.982   4.834 -1.8904  0.4187  0.7880
 6366SOL    HW219998   5.794   3.085   4.837 -0.1656 -1.5995 -0.1601
 6367SOL     OW19999   2.164   3.350   4.087 -0.2278 -0.1367  0.3239
 6367SOL    HW120000   2.244   3.408   4.106  0.3815 -0.7186 -0.3849
 6367SOL    HW220001   2.090   3.373   4.150 -0.0158  1.4306  0.0435
 6368SOL     OW20002   5.105   3.509   3.098 -0.3357  0.6433 -0.0310
 6368SOL    HW120003   5.187   3.566   3.101 -0.8051  1.3519 -0.3056
 6368SOL    HW220004   5.039   3.549   3.035 -0.3410 -0.6877 -0.9074
 6369SOL     OW20005   3.749   3.681   0.596  0.2802 -0.7430 -0.0850
 6369SOL    HW120006   3.702   3.593   0.606 -0.5264 -0.3385 -0.2992
 6369SOL    HW220007   3.690   3.755   0.627  0.1766 -0.0786 -1.7492
 6370SOL     OW20008   5.428   3.935   5.503 -0.3299  0.2004  0.2955
 6370SOL    HW120009   5.458   3.856   5.557 -1.5596 -1.6118 -1.4935
 6370SOL    HW220010   5.351   3.980   5.550 -1.4855 -1.4338  0.0654
 6371SOL     OW20011   6.311   4.052   2.206  0.2208  0.0833  0.0903
 6371SOL    HW120012   6.365   4.074   2.288  0.0078  0.6913  0.0708
 6371SOL    HW220013   6.214   4.060   2.227  0.1508 -0.3481 -0.0609
 6372SOL     OW20014   4.424   2.157   1.608  0.1075  0.0949 -0.4729
 6372SOL    HW120015   4.495   2.098   1.569  0.5063  0.7932 -0.7999
 6372SOL    HW220016   4.439   2.252   1.581 -1.0085  0.2468 -0.6380
 6373SOL     OW20017   6.086   1.225   1.564 -0.5231  0.9522  0.2030
 6373SOL    HW120018   6.136   1.300   1.606 -0.6797  0.6076  1.0311
 6373SOL    HW220019   5.992   1.254   1.544 -0.4571  1.1054  0.1120
 6374SOL     OW20020   1.961   2.253   0.138  0.3327 -0.5854 -0.4970
 6374SOL    HW120021   2.001   2.338   0.173 -1.5932  1.7375 -3.4261
 6374SOL    HW220022   1.923   2.201   0.214  0.3154  1.8874  1.3345
 6375SOL     OW20023   4.736   2.122   1.365 -0.3087 -0.2391 -0.3604
 6375SOL    HW120024   4.699   2.213   1.351 -0.8586 -0.5849 -1.2108
 6375SOL    HW220025   4.829   2.129   1.402 -0.9098  0.6445  1.0993
 6376SOL     OW20026   2.531   6.899   6.430 -0.3094  0.1354  0.3736
 6376SOL    HW120027   2.541   6.806   6.395  0.7573  0.3786 -0.0031
 6376SOL    HW220028   2.501   6.959   6.356  0.0446  0.2858  0.3510
 6377SOL     OW20029   0.512   2.189   0.126 -0.3152  0.0829  0.2638
 6377SOL    HW120030   0.606   2.204   0.156 -0.4059  2.1883 -0.3352
 6377SOL    HW220031   0.460   2.146   0.199  0.7372  0.2687  1.1514
 6378SOL     OW20032   6.185   5.019   1.902  0.2429 -0.3108 -0.8482
 6378SOL    HW120033   6.102   5.040   1.850 -0.3645  0.9295  0.5067
 6378SOL    HW220034   6.249   4.969   1.845 -1.6619 -1.8190 -1.7726
 6379SOL     OW20035   0.788   5.173   5.069  0.1376  0.5403 -0.1655
 6379SOL    HW120036   0.880   5.171   5.108 -0.3312  1.3733  1.0371
 6379SOL    HW220037   0.770   5.264   5.033  0.4369 -0.1221 -2.0944
 6380SOL     OW20038   1.792   3.493   5.098  0.2034  0.2523  0.1019
 6380SOL    HW120039   1.793   3.577   5.043  1.7873  0.0549 -0.2180
 6380SOL    HW220040   1.749   3.511   5.186  0.7822  1.4750  0.1474
 6381SOL     OW20041   3.257   5.225   5.899 -0.7942  0.4258  0.4742
 6381SOL    HW120042   3.246   5.296   5.830 -0.8922 -0.0511 -0.0012
 6381SOL    HW220043   3.201   5.248   5.979 -2.5283 -0.1946 -0.5222
 6382SOL     OW20044   1.017   1.818   1.118  0.0901  0.4652  0.6606
 6382SOL    HW120045   1.028   1.913   1.149  0.8189 -0.2219  2.7046
 6382SOL    HW220046   0.986   1.762   1.195 -0.3990 -0.9722 -0.5323
 6383SOL     OW20047   1.656   2.687   2.271 -0.5819 -0.0078 -0.1625
 6383SOL    HW120048   1.737   2.645   2.311 -0.9174 -0.6287 -0.1035
 6383SOL    HW220049   1.599   2.615   2.230 -1.5108  0.3066  0.5424
 6384SOL     OW20050   0.551   2.466   3.497 -0.0832  0.6742  0.3473
 6384SOL    HW120051   0.573   2.558   3.530 -1.7143  0.9793  0.7016
 6384SOL    HW220052   0.623   2.403   3.525  1.1832  1.8640 -0.0899
 6385SOL     OW20053   1.421   3.231   0.956  0.1964  0.1697 -0.7021
 6385SOL    HW120054   1.347   3.166   0.941 -0.8279  1.3722 -1.0669
 6385SOL    HW220055   1.401   3.316   0.906  0.7296  1.3258  0.9501
 6386SOL     OW20056   3.326   3.636   0.261  0.4596 -0.2046 -0.4920
 6386SOL    HW120057   3.284   3.551   0.228  0.6970 -0.2193 -0.7587
 6386SOL    HW220058   3.348   3.627   0.358  1.0642 -0.6782 -0.6691
 6387SOL     OW20059   0.470   1.264   1.259 -0.2234  0.0321  0.6173
 6387SOL    HW120060   0.452   1.166   1.253 -1.4088  0.3391 -2.2283
 6387SOL    HW220061   0.393   1.309   1.305 -0.1678 -0.2363  0.9773
 6388SOL     OW20062   0.098   4.847   1.769 -0.2313 -0.4713 -0.3889
 6388SOL    HW120063   0.126   4.917   1.703 -2.6949 -0.4425 -1.5016
 6388SOL    HW220064   0.171   4.834   1.836  1.0889  1.7325 -1.2811
 6389SOL     OW20065   0.160   1.306   0.560 -0.6490  0.2806 -0.0859
 6389SOL    HW120066   0.174   1.392   0.609 -0.5216  2.5899 -3.8713
 6389SOL    HW220067   0.065   1.277   0.570 -0.5567  0.4633  1.6904
 6390SOL     OW20068   5.169   6.761   0.842  0.1601  0.8776  0.5435
 6390SOL    HW120069   5.085   6.771   0.789 -0.1091 -0.5562  0.6466
 6390SOL    HW220070   5.246   6.744   0.779 -0.0028  0.1023  0.5361
 6391SOL     OW20071   1.289   1.986   1.816 -0.2116  0.3250 -0.2091
 6391SOL    HW120072   1.314   1.986   1.719 -1.4975 -0.0848 -0.5639
 6391SOL    HW220073   1.221   2.057   1.833 -1.1434 -0.6055  0.0589
 6392SOL     OW20074   6.062   6.109   2.829 -0.4474 -0.0551 -0.5604
 6392SOL    HW120075   6.017   6.161   2.757  0.3018 -0.0713 -1.0508
 6392SOL    HW220076   6.103   6.026   2.790  0.0569 -0.0092 -0.1353
 6393SOL     OW20077   0.427   4.286   6.461 -0.5284 -0.0879  0.2602
 6393SOL    HW120078   0.331   4.295   6.435 -0.0317  1.2831 -1.2155
 6393SOL    HW220079   0.470   4.214   6.407 -0.0542  1.2517 -1.2364
 6394SOL     OW20080   1.083   5.822   1.474 -0.6759  0.5241  0.0539
 6394SOL    HW120081   1.007   5.783   1.422  0.0494  1.8626 -2.1210
 6394SOL    HW220082   1.069   5.804   1.572 -2.7064 -1.0286 -0.4549
 6395SOL     OW20083   3.564   3.193   6.267 -0.4395  0.4143 -0.8524
 6395SOL    HW120084   3.650   3.197   6.216 -0.6208 -0.9901 -1.3039
 6395SOL    HW220085   3.578   3.142   6.352 -0.7666  0.4212 -0.7946
 6396SOL     OW20086   1.527   2.130   4.549  0.6117  0.0065 -0.1540
 6396SOL    HW120087   1.587   2.147   4.471 -0.9922  1.5543 -1.1340
 6396SOL    HW220088   1.451   2.071   4.520 -0.9005  1.9216 -0.2877
 6397SOL     OW20089   1.716   4.278   2.884 -0.5610  0.3395  0.1071
 6397SOL    HW120090   1.652   4.317   2.951 -2.8284 -0.0479 -1.7262
 6397SOL    HW220091   1.770   4.352   2.843 -0.3535  0.7721  1.1218
 6398SOL     OW20092   2.942   6.835   0.740  0.2480  0.0471 -0.1963
 6398SOL    HW120093   2.876   6.770   0.777  0.8850 -0.5908 -0.1390
 6398SOL    HW220094   2.911   6.928   0.757 -0.5707 -0.2392 -0.0709
 6399SOL     OW20095   3.593   0.243   6.376  0.2249 -0.2819  0.0187
 6399SOL    HW120096   3.506   0.229   6.423 -0.0435 -0.2513 -0.4557
 6399SOL    HW220097   3.669   0.227   6.439 -0.1366  1.0661  0.8161
 6400SOL     OW20098   0.451   0.975   4.461 -0.0659 -0.6686 -0.0943
 6400SOL    HW120099   0.429   1.057   4.409 -0.4270 -0.1627  0.8331
 6400SOL    HW220100   0.366   0.929   4.488  0.1177 -0.9684 -0.0188
 6401SOL     OW20101   4.966   3.474   6.265  0.9903 -0.0141 -0.9964
 6401SOL    HW120102   5.047   3.451   6.318  0.4925 -0.1292 -0.2785
 6401SOL    HW220103   4.908   3.393   6.256  0.3164  0.3882 -0.3742
 6402SOL     OW20104   4.633   2.882   6.811  0.2665  0.6142 -0.1542
 6402SOL    HW120105   4.707   2.914   6.753 -0.2949 -0.0935 -1.3005
 6402SOL    HW220106   4.605   2.955   6.873  0.8230  1.4262 -0.8392
 6403SOL     OW20107   4.119   5.888   5.356  0.1719 -0.7937  0.3257
 6403SOL    HW120108   4.127   5.919   5.261  0.0503  0.0099  0.5752
 6403SOL    HW220109   4.028   5.911   5.391  0.4825 -0.3877  0.8848
 6404SOL     OW20110   5.417   6.530   0.837  0.2620 -0.0607 -0.2436
 6404SOL    HW120111   5.389   6.605   0.777 -0.1455 -0.0154 -0.0001
 6404SOL    HW220112   5.392   6.443   0.796 -0.2970 -0.0174  0.0041
 6405SOL     OW20113   3.301   1.616   5.179 -0.1826 -0.0754  0.1142
 6405SOL    HW120114   3.246   1.579   5.104 -0.4411  0.0915  0.2199
 6405SOL    HW220115   3.300   1.716   5.174 -1.4754  0.0059  1.2257
 6406SOL     OW20116   6.081   3.946   0.942  0.2869  0.8152 -0.0004
 6406SOL    HW120117   6.020   4.023   0.922 -0.3730  0.2085 -0.3565
 6406SOL    HW220118   6.094   3.891   0.859  0.6388  0.4532  0.2889
 6407SOL     OW20119   1.351   0.144   4.048 -0.7016  0.8654 -0.0160
 6407SOL    HW120120   1.342   0.048   4.020  0.7131  0.6409  0.2404
 6407SOL    HW220121   1.321   0.203   3.974  1.0513  0.2456 -1.2982
 6408SOL     OW20122   0.288   1.692   5.521 -0.3050 -0.2933 -0.2317
 6408SOL    HW120123   0.385   1.693   5.546  0.0489  0.4257 -1.5785
 6408SOL    HW220124   0.257   1.598   5.512 -0.0503 -0.5595  1.3133
 6409SOL     OW20125   6.045   4.767   0.183 -0.0643 -0.3763  0.0444
 6409SOL    HW120126   6.029   4.692   0.119 -0.0293 -0.4216  0.0878
 6409SOL    HW220127   5.982   4.760   0.260 -1.1750  0.5646 -0.7411
 6410SOL     OW20128   1.908   1.282   6.245 -0.2049 -0.2736  0.0775
 6410SOL    HW120129   1.864   1.355   6.193 -1.5887  0.7576  2.5315
 6410SOL    HW220130   1.861   1.196   6.226 -1.2252  0.2314  0.1883
 6411SOL     OW20131   1.529   2.688   3.318 -0.2994  0.1707  0.2100
 6411SOL    HW120132   1.471   2.609   3.299 -2.3685  1.3337  1.2263
 6411SOL    HW220133   1.572   2.677   3.408 -0.0153 -0.1156  0.0383
 6412SOL     OW20134   5.976   2.333   0.923  0.7100 -0.4097  0.0642
 6412SOL    HW120135   5.956   2.358   0.828  4.1464  1.8336 -0.2766
 6412SOL    HW220136   5.891   2.325   0.974 -1.1765  2.7137 -2.2305
 6413SOL     OW20137   3.704   5.494   4.106 -0.4467 -0.1562  0.0326
 6413SOL    HW120138   3.728   5.424   4.040  0.7398  0.9267 -0.7226
 6413SOL    HW220139   3.728   5.584   4.070 -2.8272  0.7682  0.5569
 6414SOL     OW20140   3.500   0.410   5.629 -0.0478  0.0416 -0.0499
 6414SOL    HW120141   3.551   0.484   5.584  0.9483 -1.7039 -1.9487
 6414SOL    HW220142   3.424   0.382   5.570 -1.0892  0.2170  1.1532
 6415SOL     OW20143   2.246   1.384   2.036  0.7986  1.2302 -0.0034
 6415SOL    HW120144   2.152   1.400   2.007  0.8462  1.5156 -0.0091
 6415SOL    HW220145   2.300   1.467   2.020  1.1122  0.9849 -0.2398
 6416SOL     OW20146   2.573   5.463   0.771 -0.4445 -0.2947  0.0333
 6416SOL    HW120147   2.489   5.408   0.762  0.1720 -1.1059 -0.9522
 6416SOL    HW220148   2.564   5.523   0.850 -1.0030 -2.0935  1.4253
 6417SOL     OW20149   4.498   2.490   4.429 -0.2124  0.1534 -0.6927
 6417SOL    HW120150   4.445   2.408   4.450 -0.4990  0.3485 -0.6512
 6417SOL    HW220151   4.498   2.506   4.330  0.3242 -0.2198 -0.7531
 6418SOL     OW20152   2.885   6.022   5.925  0.0297 -0.2122  0.1048
 6418SOL    HW120153   2.891   6.013   6.024 -0.5211 -2.4193  0.0032
 6418SOL    HW220154   2.937   5.948   5.882  2.1712  1.9810 -1.3512
 6419SOL     OW20155   1.420   6.298   6.581  0.1403 -0.6064  0.0524
 6419SOL    HW120156   1.477   6.380   6.582  0.4791 -0.8442  0.3937
 6419SOL    HW220157   1.342   6.310   6.643  1.1476 -1.2060  1.5021
 6420SOL     OW20158   3.291   4.868   3.578  0.4186  0.1055 -0.3772
 6420SOL    HW120159   3.250   4.959   3.591  1.0458  0.2363  0.7942
 6420SOL    HW220160   3.239   4.819   3.509  0.9077  1.8633 -2.0922
 6421SOL     OW20161   3.246   5.779   2.666  0.0587 -0.1580  0.1103
 6421SOL    HW120162   3.227   5.681   2.659 -0.5102 -0.5847  4.8382
 6421SOL    HW220163   3.179   5.830   2.611 -0.6393 -2.3152 -1.1533
 6422SOL     OW20164   0.830   0.586   6.512  0.0631  0.1900  0.7520
 6422SOL    HW120165   0.863   0.674   6.546 -0.7406  1.2806 -1.1647
 6422SOL    HW220166   0.848   0.515   6.581  2.0794  1.5473  1.7154
 6423SOL     OW20167   1.959   4.510   3.683 -0.2762 -0.1606 -0.3561
 6423SOL    HW120168   1.970   4.472   3.591  0.5349 -0.2219 -0.2460
 6423SOL    HW220169   2.014   4.457   3.747 -2.0191 -1.0753  0.4572
 6424SOL     OW20170   5.775   3.661   6.709 -0.1951  0.2566  0.5664
 6424SOL    HW120171   5.790   3.576   6.760 -0.2481 -0.7462 -1.0027
 6424SOL    HW220172   5.803   3.739   6.764 -0.9687 -0.7054  2.3962
 6425SOL     OW20173   0.955   6.846   3.136 -1.0334  0.3252 -0.0351
 6425SOL    HW120174   0.927   6.863   3.231  0.5560 -1.6012  0.8519
 6425SOL    HW220175   0.924   6.755   3.108  1.1196 -0.3852 -0.2557
 6426SOL     OW20176   1.435   5.917   4.493  0.5359 -0.2225 -0.4992
 6426SOL    HW120177   1.497   5.988   4.523 -0.8918  0.4859  0.9142
 6426SOL    HW220178   1.417   5.853   4.568 -1.4641  0.3826 -0.3823
 6427SOL     OW20179   3.823   2.954   2.557 -0.5192 -0.1340  0.0111
 6427SOL    HW120180   3.750   2.894   2.589 -0.6150  1.2420  2.7187
 6427SOL    HW220181   3.867   2.997   2.636  1.1824  1.4413 -1.6900
 6428SOL     OW20182   6.862   5.675   6.337 -0.5060  0.2033 -0.2559
 6428SOL    HW120183   6.942   5.615   6.348 -0.7857 -0.5902 -2.2746
 6428SOL    HW220184   6.857   5.738   6.416  2.2495  0.4620 -0.1844
 6429SOL     OW20185   3.137   0.625   6.629  0.0435  0.2825 -0.3982
 6429SOL    HW120186   3.176   0.568   6.556 -0.7018  0.1643 -0.7149
 6429SOL    HW220187   3.087   0.701   6.588 -1.4195 -0.4525 -0.0695
 6430SOL     OW20188   5.266   1.527   4.446 -0.2693 -0.7913 -0.0350
 6430SOL    HW120189   5.190   1.478   4.488  0.5238 -1.6499  0.4405
 6430SOL    HW220190   5.269   1.620   4.480 -0.5304 -1.0397  0.6727
 6431SOL     OW20191   3.655   6.678   2.557 -0.4955  0.2695  0.5915
 6431SOL    HW120192   3.594   6.671   2.636  1.5405 -1.6445  2.1633
 6431SOL    HW220193   3.609   6.644   2.475 -1.9905  0.2516  1.4091
 6432SOL     OW20194   1.614   4.186   6.368  0.0111  0.2874 -0.1414
 6432SOL    HW120195   1.518   4.196   6.396 -0.1137 -0.3669 -0.2965
 6432SOL    HW220196   1.619   4.180   6.269 -0.0484 -1.8422 -0.0722
 6433SOL     OW20197   4.879   5.588   0.467  0.6184 -0.3639 -0.0318
 6433SOL    HW120198   4.889   5.605   0.565  0.0797  0.6050 -0.1327
 6433SOL    HW220199   4.905   5.671   0.416 -1.1856 -0.1050 -0.6015
 6434SOL     OW20200   5.107   3.480   0.497 -0.5041 -0.8193  0.2062
 6434SOL    HW120201   5.060   3.548   0.441 -1.4525 -0.6104  1.2150
 6434SOL    HW220202   5.043   3.409   0.524 -0.0087 -1.0475  0.8074
 6435SOL     OW20203   3.982   0.481   0.562 -0.0309 -0.1161 -0.1268
 6435SOL    HW120204   3.962   0.574   0.594  0.6455  0.1453 -0.4325
 6435SOL    HW220205   4.068   0.482   0.512 -0.6675 -0.6570 -1.2732
 6436SOL     OW20206   1.418   1.780   3.151  0.4106 -0.0426 -1.0042
 6436SOL    HW120207   1.369   1.777   3.064  1.4895  1.4399 -1.6947
 6436SOL    HW220208   1.390   1.860   3.203  0.1104 -0.6730 -0.1735
 6437SOL     OW20209   2.107   2.234   4.873 -0.6024  0.3333 -0.3527
 6437SOL    HW120210   2.182   2.190   4.825 -0.2467 -0.5974  1.0040
 6437SOL    HW220211   2.123   2.333   4.876 -0.5022  0.3892 -1.8484
 6438SOL     OW20212   0.911   6.998   1.486  0.3837 -0.2548 -0.3741
 6438SOL    HW120213   0.904   7.006   1.585  0.8528 -0.1032 -0.3509
 6438SOL    HW220214   0.966   6.917   1.462 -0.5620 -0.8695 -0.5326
 6439SOL     OW20215   6.423   5.245   1.544 -0.0004  0.1544  0.9532
 6439SOL    HW120216   6.432   5.146   1.554 -0.1509  0.1351  0.9012
 6439SOL    HW220217   6.327   5.272   1.556  0.4587  0.6794  4.1396
 6440SOL     OW20218   3.662   2.401   6.599 -0.0227 -0.2468  0.1308
 6440SOL    HW120219   3.677   2.303   6.590  0.4614 -0.2576  1.0166
 6440SOL    HW220220   3.568   2.423   6.571 -0.4836 -1.1117  0.9461
 6441SOL     OW20221   6.509   2.150   1.629 -0.5791 -0.0547  0.0497
 6441SOL    HW120222   6.435   2.174   1.693 -0.8406  1.0526 -0.6414
 6441SOL    HW220223   6.470   2.097   1.553 -0.6528  0.4208 -0.2495
 6442SOL     OW20224   3.810   0.856   4.830 -0.5616 -0.1984  0.1154
 6442SOL    HW120225   3.863   0.794   4.887  1.5540 -1.7465 -3.2156
 6442SOL    HW220226   3.862   0.940   4.815 -1.6582  0.7504  1.3312
 6443SOL     OW20227   3.638   1.723   5.554  0.5266  0.3149 -0.0527
 6443SOL    HW120228   3.697   1.753   5.479  1.3557  1.2146  0.9232
 6443SOL    HW220229   3.691   1.670   5.620  0.0503  0.3882  0.3961
 6444SOL     OW20230   4.439   4.346   6.089 -0.1687 -0.2531 -0.1264
 6444SOL    HW120231   4.432   4.401   6.006  1.2697 -0.9813 -0.7748
 6444SOL    HW220232   4.486   4.399   6.160 -0.6458  0.0779 -0.0574
 6445SOL     OW20233   3.917   3.531   4.071  0.0693  0.5464  0.3191
 6445SOL    HW120234   3.973   3.548   4.152 -1.2305  2.2083  0.9272
 6445SOL    HW220235   3.838   3.475   4.097  2.1699 -3.3055 -0.8666
 6446SOL     OW20236   6.106   1.743   1.785  0.4300 -0.0901 -0.3226
 6446SOL    HW120237   6.116   1.816   1.717  1.2161 -0.5270 -0.6875
 6446SOL    HW220238   6.193   1.697   1.798  0.4518  0.3835  1.4759
 6447SOL     OW20239   6.664   3.780   4.070  0.3538 -0.0990 -0.2337
 6447SOL    HW120240   6.653   3.731   3.983  3.3077 -0.4146 -0.5234
 6447SOL    HW220241   6.694   3.874   4.052 -1.4968  0.6621  0.4309
 6448SOL     OW20242   4.809   3.141   1.673 -0.3802  0.4486  0.3051
 6448SOL    HW120243   4.809   3.086   1.757 -0.5641 -0.6927 -0.4177
 6448SOL    HW220244   4.728   3.200   1.671  0.1762  1.2765  1.4145
 6449SOL     OW20245   5.588   5.551   4.955  0.0241  0.7220 -0.4195
 6449SOL    HW120246   5.562   5.476   4.893 -1.3468  0.7951  0.0386
 6449SOL    HW220247   5.660   5.605   4.913  2.5133 -1.9986  0.0542
 6450SOL     OW20248   4.591   3.401   0.698 -0.2636 -0.4757  0.1905
 6450SOL    HW120249   4.665   3.404   0.764  0.2935  1.3077 -0.4556
 6450SOL    HW220250   4.623   3.437   0.610 -1.9468  0.5611 -0.0398
 6451SOL     OW20251   4.952   2.348   0.187  0.2778 -0.2563  1.0685
 6451SOL    HW120252   4.978   2.439   0.154 -1.4442 -0.4493 -1.0213
 6451SOL    HW220253   5.025   2.283   0.166  0.3188  0.1302 -0.0454
 6452SOL     OW20254   3.429   0.236   4.546  0.3769  0.2248  0.3039
 6452SOL    HW120255   3.424   0.181   4.630  0.9237 -0.0144  0.1794
 6452SOL    HW220256   3.517   0.281   4.541 -0.5583  2.2503  1.1008
 6453SOL     OW20257   2.296   6.278   2.106  0.0558  0.8716  0.2258
 6453SOL    HW120258   2.351   6.362   2.108 -0.9389  1.5354  1.5593
 6453SOL    HW220259   2.224   6.284   2.175 -1.1919 -0.3253 -0.9088
 6454SOL     OW20260   5.522   4.207   5.449  0.3903  0.2231 -0.8406
 6454SOL    HW120261   5.468   4.122   5.453 -0.5719  0.8644  0.5857
 6454SOL    HW220262   5.609   4.189   5.404  0.5312 -1.7120  0.1120
 6455SOL     OW20263   6.145   2.893   4.862 -0.6960  0.3296  0.2315
 6455SOL    HW120264   6.201   2.813   4.884 -0.9233  0.6025  1.9739
 6455SOL    HW220265   6.090   2.874   4.781 -0.2853 -1.0512  0.2485
 6456SOL     OW20266   4.638   2.810   1.709 -0.0068  0.1180  0.0045
 6456SOL    HW120267   4.681   2.734   1.757  2.8973  1.8354  0.3761
 6456SOL    HW220268   4.634   2.890   1.770 -1.6001  0.7188 -0.8336
 6457SOL     OW20269   1.070   0.767   3.566 -0.3193  0.3117  0.2353
 6457SOL    HW120270   1.047   0.719   3.650  0.8892 -0.0429  0.3922
 6457SOL    HW220271   1.065   0.866   3.582  3.1163  0.3865  1.8197
 6458SOL     OW20272   1.468   0.600   3.042  0.3182  0.5084  0.7544
 6458SOL    HW120273   1.428   0.608   2.951  0.1937  2.6451  0.9305
 6458SOL    HW220274   1.408   0.546   3.100 -0.5332  0.6780  0.0556
 6459SOL     OW20275   0.757   4.438   3.427  0.1622  0.4914  0.1916
 6459SOL    HW120276   0.811   4.363   3.466 -0.7151 -0.4283 -0.3143
 6459SOL    HW220277   0.691   4.470   3.495 -1.5442 -1.2854 -0.5226
 6460SOL     OW20278   1.232   5.921   0.989 -0.2173  0.0161 -0.3488
 6460SOL    HW120279   1.191   5.848   0.935  0.9693  0.9167 -2.6270
 6460SOL    HW220280   1.331   5.917   0.980 -0.0396  0.8302  0.9926
 6461SOL     OW20281   5.371   0.760   1.697 -0.0631 -0.3390 -0.1054
 6461SOL    HW120282   5.358   0.855   1.669 -0.5550 -0.0186  1.1428
 6461SOL    HW220283   5.373   0.755   1.797  4.1726 -1.0510 -0.0139
 6462SOL     OW20284   1.456   6.146   5.711 -0.2089 -0.2450 -0.2001
 6462SOL    HW120285   1.477   6.111   5.802 -1.0188 -0.3413 -0.0444
 6462SOL    HW220286   1.407   6.232   5.718  2.3308  1.3550 -0.5848
 6463SOL     OW20287   4.726   4.000   0.284 -0.3595 -0.1691 -0.0938
 6463SOL    HW120288   4.762   4.080   0.332 -0.1624 -1.1757  1.5199
 6463SOL    HW220289   4.801   3.936   0.264 -0.7386 -0.7116  0.1794
 6464SOL     OW20290   6.635   3.501   3.486  0.3988  0.6703 -0.3147
 6464SOL    HW120291   6.545   3.503   3.528  0.5631  0.1844  0.0791
 6464SOL    HW220292   6.686   3.422   3.521  1.8037  2.1501  1.1704
 6465SOL     OW20293   1.764   0.616   6.556  0.5913  0.0875 -0.3117
 6465SOL    HW120294   1.702   0.555   6.606 -0.8458  0.0986 -2.0043
 6465SOL    HW220295   1.807   0.566   6.481  0.0740  0.9254 -1.1798
 6466SOL     OW20296   5.465   5.699   5.391 -0.1120  0.1724  0.2616
 6466SOL    HW120297   5.518   5.618   5.415 -1.4990 -0.6872  0.5447
 6466SOL    HW220298   5.427   5.739   5.474  1.9127  2.1434  0.3306
 6467SOL     OW20299   2.330   3.840   5.521 -0.1024  0.5776 -0.6508
 6467SOL    HW120300   2.343   3.752   5.566 -1.9386  1.0904  0.9905
 6467SOL    HW220301   2.268   3.829   5.443 -0.0448  0.3584 -0.6660
 6468SOL     OW20302   0.222   1.347   1.411 -0.3970 -0.1037  0.1914
 6468SOL    HW120303   0.219   1.314   1.505 -1.1531  0.8079  0.4988
 6468SOL    HW220304   0.187   1.440   1.407  0.0315  0.0246 -0.9341
 6469SOL     OW20305   2.211   6.987   0.418  0.4340  0.1527  0.2838
 6469SOL    HW120306   2.179   7.020   0.330  1.4834  0.2261 -0.0914
 6469SOL    HW220307   2.151   7.020   0.491 -0.8040 -0.4353 -0.4478
 6470SOL     OW20308   5.078   1.571   0.371  0.7303  0.3576  0.2670
 6470SOL    HW120309   5.095   1.477   0.401  0.6006  0.5473  0.9481
 6470SOL    HW220310   5.011   1.571   0.297  1.1161 -0.1224 -0.0946
 6471SOL     OW20311   0.589   6.717   0.538 -0.4781 -0.1337 -0.1306
 6471SOL    HW120312   0.490   6.724   0.526 -0.5710 -0.2154  0.5848
 6471SOL    HW220313   0.635   6.775   0.470 -0.9441 -1.9254 -2.0837
 6472SOL     OW20314   0.745   6.125   0.782 -0.5251  0.5721  0.0247
 6472SOL    HW120315   0.817   6.189   0.756 -0.4960  0.7682  0.5889
 6472SOL    HW220316   0.741   6.118   0.881 -0.7556 -0.0450 -0.0289
 6473SOL     OW20317   3.757   1.083   1.031 -0.3492 -0.1090  0.2606
 6473SOL    HW120318   3.720   1.175   1.046 -1.3453 -0.3035 -0.8657
 6473SOL    HW220319   3.693   1.030   0.975  0.2560 -1.4683  0.8238
 6474SOL     OW20320   4.019   5.685   4.637  0.4003 -0.0967  0.4352
 6474SOL    HW120321   4.030   5.743   4.717  0.5843 -0.2692  0.5374
 6474SOL    HW220322   4.068   5.725   4.559 -0.3191  0.4059  0.2296
 6475SOL     OW20323   4.800   6.709   2.908  1.0214 -0.2161  0.1137
 6475SOL    HW120324   4.754   6.737   2.824  1.8100 -0.6821 -0.4801
 6475SOL    HW220325   4.798   6.609   2.916  1.3365 -0.2008  0.4189
 6476SOL     OW20326   5.302   4.795   4.213  0.1572 -0.2333 -0.0278
 6476SOL    HW120327   5.303   4.738   4.296  0.1485  0.1750  0.2584
 6476SOL    HW220328   5.244   4.753   4.144 -0.0506 -0.4451  0.2719
 6477SOL     OW20329   1.394   0.981   0.405 -1.0572 -0.4731 -0.4094
 6477SOL    HW120330   1.359   1.023   0.321 -0.3409  0.5191 -0.2238
 6477SOL    HW220331   1.395   1.049   0.479 -5.1552 -2.1456  1.5275
 6478SOL     OW20332   1.800   6.902   0.561 -0.8321 -0.3750 -0.7009
 6478SOL    HW120333   1.886   6.952   0.548 -1.1760  0.0938 -1.2141
 6478SOL    HW220334   1.781   6.846   0.481 -0.6858 -0.9813 -0.3206
 6479SOL     OW20335   5.024   5.955   4.385  0.3505  0.4993 -0.2287
 6479SOL    HW120336   5.060   6.048   4.371 -1.4957  1.3563  0.4030
 6479SOL    HW220337   5.029   5.933   4.483 -2.0691  1.2382  0.1290
 6480SOL     OW20338   1.965   1.415   5.378  0.1026 -0.1190 -0.1985
 6480SOL    HW120339   2.007   1.328   5.349 -0.0879 -0.1243 -0.4644
 6480SOL    HW220340   1.895   1.441   5.312  0.2958  0.3400 -0.2234
 6481SOL     OW20341   4.741   4.304   1.003  0.3768  0.7470  0.7164
 6481SOL    HW120342   4.743   4.209   0.973 -2.0976  0.0525  2.4608
 6481SOL    HW220343   4.662   4.350   0.963  1.1227  1.8767  0.5001
 6482SOL     OW20344   5.244   2.811   4.222 -0.1085 -0.1817  0.2451
 6482SOL    HW120345   5.287   2.728   4.187 -0.8369 -0.1277 -0.7946
 6482SOL    HW220346   5.304   2.852   4.291  0.5968 -1.1604  0.2416
 6483SOL     OW20347   2.049   4.671   4.434 -0.6469 -0.4791  0.0819
 6483SOL    HW120348   2.071   4.654   4.530  0.2224 -1.5752 -0.3005
 6483SOL    HW220349   1.953   4.700   4.427 -1.4602 -2.7063  1.0590
 6484SOL     OW20350   4.368   6.443   2.912 -0.3734 -0.5977 -0.0777
 6484SOL    HW120351   4.322   6.386   2.843  0.9768 -1.3560 -0.4061
 6484SOL    HW220352   4.377   6.392   2.997 -0.4629 -0.3215  0.0986
 6485SOL     OW20353   1.744   6.057   4.199  0.3184  0.1100  0.2472
 6485SOL    HW120354   1.791   6.095   4.278 -0.6373  0.5289  0.6288
 6485SOL    HW220355   1.736   5.958   4.209 -0.4506  0.2473  1.0397
 6486SOL     OW20356   0.397   3.698   3.896  0.7569 -0.1188  0.1232
 6486SOL    HW120357   0.408   3.669   3.801 -1.0212  1.5442 -0.6595
 6486SOL    HW220358   0.442   3.632   3.957  0.9486 -1.8355 -1.7863
 6487SOL     OW20359   4.314   5.043   4.564  0.3250  0.0240  0.2218
 6487SOL    HW120360   4.316   4.962   4.506  0.1223  0.9263 -1.0706
 6487SOL    HW220361   4.326   5.015   4.660 -0.2361 -1.5665 -0.1394
 6488SOL     OW20362   3.475   6.713   2.782 -0.2556  0.0709 -0.1100
 6488SOL    HW120363   3.388   6.763   2.778  0.3823  1.2617  0.3919
 6488SOL    HW220364   3.533   6.753   2.852  0.2327 -1.5142  0.4305
 6489SOL     OW20365   6.512   5.207   5.611  0.0449  0.0442  0.1953
 6489SOL    HW120366   6.561   5.274   5.555  0.5982  0.7199  1.4423
 6489SOL    HW220367   6.509   5.119   5.564  0.6259  0.5542 -0.8157
 6490SOL     OW20368   1.657   3.923   5.127 -0.1687 -0.4610  0.3522
 6490SOL    HW120369   1.741   3.868   5.126 -0.8432 -1.5020 -0.4304
 6490SOL    HW220370   1.663   3.994   5.056  0.1290 -0.3859  0.4487
 6491SOL     OW20371   6.600   1.095   2.242 -0.2342  0.2830 -0.3374
 6491SOL    HW120372   6.591   1.025   2.313  1.7359 -0.8313 -1.1321
 6491SOL    HW220373   6.531   1.080   2.171 -0.8080  0.0957  0.2513
 6492SOL     OW20374   4.118   3.821   2.954  0.3620  0.6357 -0.5401
 6492SOL    HW120375   4.150   3.909   2.918  0.5447  0.9598  0.3908
 6492SOL    HW220376   4.114   3.754   2.879  0.7615  1.2804 -1.1512
 6493SOL     OW20377   2.607   4.522   1.736  0.1057 -0.1425 -0.0106
 6493SOL    HW120378   2.679   4.495   1.673  0.5016 -0.0572  0.4030
 6493SOL    HW220379   2.647   4.549   1.824 -0.4764 -0.7727  0.4610
 6494SOL     OW20380   6.737   1.460   0.616  0.0119 -0.1546 -0.1039
 6494SOL    HW120381   6.700   1.420   0.533 -0.6619 -0.3595  0.2852
 6494SOL    HW220382   6.781   1.547   0.595  1.6154 -1.1359 -0.9883
 6495SOL     OW20383   6.116   5.289   2.399  0.0897 -0.3018 -0.5165
 6495SOL    HW120384   6.177   5.368   2.396 -1.0924  0.6238 -1.5263
 6495SOL    HW220385   6.091   5.262   2.306 -0.9626 -0.6865 -0.1469
 6496SOL     OW20386   3.105   1.616   0.752  0.1243 -0.5586 -0.0428
 6496SOL    HW120387   3.105   1.539   0.689 -0.5157 -0.8721  0.3300
 6496SOL    HW220388   3.113   1.702   0.700  0.9801 -0.8788 -0.4460
 6497SOL     OW20389   6.703   3.963   1.974  0.0530 -0.1191 -0.3117
 6497SOL    HW120390   6.642   4.030   2.016 -2.3313 -0.7603 -2.5225
 6497SOL    HW220391   6.796   3.999   1.974 -0.7129  2.0540  0.8373
 6498SOL     OW20392   3.679   5.021   4.158 -0.2422  0.1470  0.1004
 6498SOL    HW120393   3.777   5.025   4.181 -0.0614 -3.9877  0.8835
 6498SOL    HW220394   3.627   4.992   4.239 -1.4860 -1.6696 -1.2763
 6499SOL     OW20395   4.487   1.114   2.894 -0.1575  0.2564  0.0875
 6499SOL    HW120396   4.542   1.194   2.867  1.3287 -0.6592  0.2599
 6499SOL    HW220397   4.484   1.109   2.994  0.0187 -0.0652  0.0770
 6500SOL     OW20398   0.715   5.152   2.259 -0.2388 -0.5219 -0.0451
 6500SOL    HW120399   0.690   5.116   2.169  4.3901 -0.1982 -1.7607
 6500SOL    HW220400   0.770   5.084   2.308  0.5743  0.6956  0.8012
 6501SOL     OW20401   6.352   0.328   3.777 -0.3080 -0.3590 -0.4248
 6501SOL    HW120402   6.322   0.396   3.844 -0.2949 -1.5369  0.8158
 6501SOL    HW220403   6.298   0.338   3.694  1.1546  2.5653 -1.1443
 6502SOL     OW20404   1.563   3.611   3.955  0.0539 -0.1668  0.0533
 6502SOL    HW120405   1.482   3.574   3.909 -0.4988  1.3000 -0.2210
 6502SOL    HW220406   1.604   3.540   4.012 -1.2835 -1.0135  0.0141
 6503SOL     OW20407   2.324   2.359   6.815  0.3060 -0.1142 -0.3886
 6503SOL    HW120408   2.357   2.267   6.838  0.0932 -0.2276 -0.5267
 6503SOL    HW220409   2.359   2.385   6.725 -0.3706 -0.4381 -0.7578
 6504SOL     OW20410   4.547   6.873   0.503  0.1816 -0.4125 -0.3634
 6504SOL    HW120411   4.494   6.807   0.450  0.8074 -1.2404  0.0196
 6504SOL    HW220412   4.558   6.840   0.597  1.3387 -0.2602 -0.4267
 6505SOL     OW20413   6.683   0.907   0.806 -0.0508  0.2425 -0.6952
 6505SOL    HW120414   6.601   0.906   0.864 -0.5377  2.0275 -1.3004
 6505SOL    HW220415   6.674   0.838   0.734  0.0559 -1.2071  0.6201
 6506SOL     OW20416   2.203   3.468   0.579 -0.4603  0.1554  0.9241
 6506SOL    HW120417   2.138   3.455   0.653 -0.2281 -0.7200  0.9903
 6506SOL    HW220418   2.268   3.391   0.577  0.9460  1.2959  1.2298
 6507SOL     OW20419   4.641   0.256   0.263 -0.0989  0.1037 -0.3610
 6507SOL    HW120420   4.582   0.190   0.216  0.0436  0.5049 -1.1285
 6507SOL    HW220421   4.675   0.216   0.348 -0.6113 -0.5292 -0.4437
 6508SOL     OW20422   5.850   0.085   4.011 -0.1246 -0.1935  0.1865
 6508SOL    HW120423   5.884   0.156   3.950  1.6227  0.3321  1.7062
 6508SOL    HW220424   5.767   0.117   4.057 -0.0958  0.3384 -0.1322
 6509SOL     OW20425   3.441   2.631   0.738 -0.0331  1.0059 -0.5754
 6509SOL    HW120426   3.412   2.668   0.650 -1.4268  0.3029 -0.4429
 6509SOL    HW220427   3.526   2.581   0.727 -1.3597 -1.0904 -2.0597
 6510SOL     OW20428   2.939   5.116   5.262  0.1747 -0.0414 -0.1727
 6510SOL    HW120429   3.030   5.129   5.223 -1.1207  1.8586 -2.8700
 6510SOL    HW220430   2.898   5.033   5.223  0.1853 -0.0762 -0.1105
 6511SOL     OW20431   2.585   2.578   0.426  0.1222 -0.3910  0.0919
 6511SOL    HW120432   2.541   2.533   0.504 -0.6261  0.0834 -0.0471
 6511SOL    HW220433   2.564   2.528   0.342  0.6671 -0.7223  0.1507
 6512SOL     OW20434   5.644   6.828   2.231 -0.3675 -0.3990 -0.1688
 6512SOL    HW120435   5.737   6.855   2.208  0.3134 -1.3912  1.3140
 6512SOL    HW220436   5.580   6.871   2.167  1.0773  0.4418 -1.0889
 6513SOL     OW20437   3.127   4.330   0.936  0.1039 -0.0666 -0.0097
 6513SOL    HW120438   3.195   4.356   0.867  0.7554 -2.4786 -0.3503
 6513SOL    HW220439   3.103   4.234   0.924 -3.2588  0.6367  0.2387
 6514SOL     OW20440   3.582   0.049   6.679  0.4083  0.6339 -0.7054
 6514SOL    HW120441   3.518  -0.022   6.650 -1.2573  1.3443  1.0243
 6514SOL    HW220442   3.560   0.135   6.631  1.2465  0.4574 -1.4311
 6515SOL     OW20443   1.948   4.852   1.639 -0.4484  0.2140  0.3848
 6515SOL    HW120444   1.973   4.843   1.543  0.8378  0.4397  0.6829
 6515SOL    HW220445   1.932   4.761   1.678  0.4588  0.0170  0.3152
 6516SOL     OW20446   5.642   1.121   3.947 -0.0414  0.4823  0.4637
 6516SOL    HW120447   5.562   1.167   3.910 -0.2526 -1.0559 -1.1089
 6516SOL    HW220448   5.615   1.065   4.025 -0.1107  1.4699  1.1771
 6517SOL     OW20449   5.656   2.753   0.966 -0.3085 -0.3421 -0.2033
 6517SOL    HW120450   5.696   2.799   1.045  0.4377  0.0060 -0.7750
 6517SOL    HW220451   5.556   2.757   0.972 -0.2819 -0.8348  1.0144
 6518SOL     OW20452   1.412   2.322   1.791 -0.3372  0.0774 -0.0885
 6518SOL    HW120453   1.376   2.414   1.805  0.5713  0.7657 -1.9516
 6518SOL    HW220454   1.359   2.276   1.721  0.2164 -0.2128 -0.3199
 6519SOL     OW20455   1.536   0.366   0.700 -0.0168 -0.2832 -0.5554
 6519SOL    HW120456   1.436   0.376   0.698 -0.0742 -0.5177  0.4287
 6519SOL    HW220457   1.577   0.449   0.737 -0.1595 -1.6257  2.9369
 6520SOL     OW20458   6.840   1.895   0.865 -0.9817  0.5508 -0.0628
 6520SOL    HW120459   6.918   1.870   0.808  0.9898  0.8251  2.3606
 6520SOL    HW220460   6.802   1.812   0.907 -1.1587  0.5671 -0.1874
 6521SOL     OW20461   3.000   5.630   3.734  0.4394  0.3505  0.6923
 6521SOL    HW120462   3.012   5.728   3.718 -0.9988  0.2322 -1.4917
 6521SOL    HW220463   2.904   5.611   3.756  0.2757 -0.7603 -0.8505
 6522SOL     OW20464   0.797   3.649   4.851  0.1517  0.0573  0.5369
 6522SOL    HW120465   0.767   3.718   4.917 -0.0491 -1.4488  2.0810
 6522SOL    HW220466   0.749   3.663   4.765 -1.9664  0.1883  1.6733
 6523SOL     OW20467   5.443   6.343   0.377  0.0382  0.0269 -0.0432
 6523SOL    HW120468   5.343   6.348   0.376  0.1041  1.8532  0.1950
 6523SOL    HW220469   5.478   6.363   0.285  0.1896 -1.4082 -0.3265
 6524SOL     OW20470   3.371   0.442   1.536 -0.4677 -0.3873 -0.0381
 6524SOL    HW120471   3.338   0.457   1.443 -0.4032 -1.0199 -0.1660
 6524SOL    HW220472   3.320   0.366   1.577  0.5023 -1.0641 -0.0690
 6525SOL     OW20473   4.206   5.162   3.781 -0.4419 -0.2148 -0.6377
 6525SOL    HW120474   4.287   5.105   3.788 -0.7486 -0.9106 -2.3577
 6525SOL    HW220475   4.230   5.257   3.802  0.3992 -0.6889  0.6675
 6526SOL     OW20476   5.081   5.846   2.002 -0.4169 -0.0426  0.2431
 6526SOL    HW120477   5.132   5.760   1.998  2.0970  1.3492 -0.3197
 6526SOL    HW220478   5.109   5.897   2.084 -1.0254  0.7091 -0.0108
 6527SOL     OW20479   6.301   2.856   0.269 -0.1975 -0.2467  0.0794
 6527SOL    HW120480   6.276   2.801   0.349 -0.9331  0.9239  0.6962
 6527SOL    HW220481   6.259   2.818   0.187  0.2124 -1.2164  0.3083
 6528SOL     OW20482   4.106   0.009   5.670 -0.1387 -0.2943  0.2796
 6528SOL    HW120483   4.126   0.019   5.768  0.2491 -0.7576  0.2516
 6528SOL    HW220484   4.009  -0.013   5.658 -0.9987  2.9260  0.3631
 6529SOL     OW20485   1.316   4.310   2.149  0.1864  0.1139 -0.8040
 6529SOL    HW120486   1.350   4.376   2.216 -1.0453  2.0346 -1.9597
 6529SOL    HW220487   1.291   4.358   2.064 -1.4366 -1.7260 -1.4579
 6530SOL     OW20488   1.539   3.258   5.596 -0.4527  0.4794 -0.1969
 6530SOL    HW120489   1.527   3.243   5.694 -0.0884  2.8863  0.2606
 6530SOL    HW220490   1.552   3.355   5.578 -0.6813  0.1171 -2.6731
 6531SOL     OW20491   3.719   3.364   4.340 -0.2769  0.0929  0.9064
 6531SOL    HW120492   3.689   3.306   4.416  0.5623  0.5815  1.6229
 6531SOL    HW220493   3.721   3.310   4.256  0.0453 -0.7926  1.4700
 6532SOL     OW20494   7.017   5.316   6.486  0.6403  0.2836  0.4588
 6532SOL    HW120495   7.062   5.376   6.419  0.8986 -0.8608 -0.4168
 6532SOL    HW220496   6.941   5.365   6.529  0.4445  1.0307 -0.7038
 6533SOL     OW20497   3.580   5.467   2.953  0.4985 -0.0540  0.0931
 6533SOL    HW120498   3.513   5.517   3.008  1.3293 -0.2365  1.3208
 6533SOL    HW220499   3.635   5.409   3.013  0.8018 -1.0061 -1.0693
 6534SOL     OW20500   5.448   3.137   6.096 -0.8088  0.4516 -0.7758
 6534SOL    HW120501   5.401   3.222   6.073  0.0502  1.0798 -0.2820
 6534SOL    HW220502   5.382   3.062   6.102 -2.1768  1.7216  2.2518
 6535SOL     OW20503   0.024   3.123   6.929  0.0979 -0.3927  0.4980
 6535SOL    HW120504   0.022   3.218   6.961 -0.1747 -0.2911  0.1842
 6535SOL    HW220505  -0.057   3.075   6.963 -1.0700  0.1574 -1.3608
 6536SOL     OW20506   0.498   3.804   5.412 -0.3411 -0.6513 -0.1861
 6536SOL    HW120507   0.501   3.871   5.339  1.4335 -0.2591  0.1956
 6536SOL    HW220508   0.420   3.823   5.472 -0.1936  0.7423 -0.4009
 6537SOL     OW20509   0.970   3.579   4.573 -0.2304  0.0558 -0.0856
 6537SOL    HW120510   0.922   3.499   4.538 -0.4285 -0.8012  1.9986
 6537SOL    HW220511   0.903   3.650   4.597 -0.0182  1.1606 -2.5251
 6538SOL     OW20512   1.775   4.585   3.094 -0.2806 -0.0591  0.5944
 6538SOL    HW120513   1.775   4.684   3.079 -1.1440 -0.2718 -1.0549
 6538SOL    HW220514   1.688   4.547   3.064  0.2187 -1.3838  0.7700
 6539SOL     OW20515   5.223   5.835   6.049  0.0662  0.9043 -0.0471
 6539SOL    HW120516   5.256   5.926   6.072  0.4650  1.1010 -1.3315
 6539SOL    HW220517   5.144   5.842   5.987 -0.9649  0.3930  1.1591
 6540SOL     OW20518   2.597   2.073   4.547  0.0500  0.1376  0.0300
 6540SOL    HW120519   2.641   2.111   4.628  1.5476 -1.2196 -0.0985
 6540SOL    HW220520   2.659   2.080   4.469 -0.0880 -1.4200 -0.2565
 6541SOL     OW20521   2.175   0.690   6.423 -0.6793 -0.0990 -0.3357
 6541SOL    HW120522   2.170   0.787   6.448 -1.7741 -0.3016  0.2931
 6541SOL    HW220523   2.254   0.648   6.469 -1.0693  0.1658  0.5930
 6542SOL     OW20524   2.136   4.763   0.933 -0.5453 -0.0548 -0.1115
 6542SOL    HW120525   2.197   4.778   1.011  0.4808  0.8203 -1.0452
 6542SOL    HW220526   2.131   4.846   0.878 -1.3782 -0.6010 -0.8888
 6543SOL     OW20527   4.426   1.218   4.088 -0.1845  0.0206  0.5517
 6543SOL    HW120528   4.366   1.143   4.058  0.8645 -1.0673  1.0781
 6543SOL    HW220529   4.493   1.238   4.017 -1.4482  1.6035 -0.2582
 6544SOL     OW20530   0.566   0.285   0.247  0.2983 -0.9815  0.3740
 6544SOL    HW120531   0.592   0.335   0.164 -1.1777 -2.3041 -0.9409
 6544SOL    HW220532   0.506   0.343   0.303 -4.2000 -2.1140 -2.7414
 6545SOL     OW20533   1.059   4.817   0.358 -0.5036 -0.4885 -0.1150
 6545SOL    HW120534   1.033   4.725   0.329  1.9193 -0.4891 -2.6452
 6545SOL    HW220535   1.111   4.812   0.443 -0.6071 -1.4209 -0.1012
 6546SOL     OW20536   2.372   6.296   6.477 -0.4578 -0.7396 -0.5157
 6546SOL    HW120537   2.448   6.262   6.423  0.6379 -2.1044  1.7258
 6546SOL    HW220538   2.397   6.384   6.518 -0.8742 -0.2366 -1.3093
 6547SOL     OW20539   6.440   0.317   4.507 -0.6608  0.0778  0.5473
 6547SOL    HW120540   6.437   0.365   4.595 -0.4707  0.6918  0.2256
 6547SOL    HW220541   6.472   0.223   4.521 -0.2085  0.3070  1.0727
 6548SOL     OW20542   1.318   0.561   4.760 -0.3058  0.2485  0.0119
 6548SOL    HW120543   1.229   0.561   4.806  0.3334 -0.5714  1.2995
 6548SOL    HW220544   1.380   0.623   4.808 -0.2007  0.8944 -0.9408
 6549SOL     OW20545   2.501   2.364   1.874  0.0131  0.3115  0.1173
 6549SOL    HW120546   2.420   2.320   1.838  0.1270 -1.2821  1.6665
 6549SOL    HW220547   2.580   2.343   1.816 -0.5832  1.7511 -1.3097
 6550SOL     OW20548   5.880   0.680   2.221  0.4079  0.3785 -0.0127
 6550SOL    HW120549   5.895   0.591   2.177 -0.4577  0.8703 -1.3611
 6550SOL    HW220550   5.963   0.735   2.214  0.2241  0.5257 -1.2409
 6551SOL     OW20551   2.720   5.727   6.471  0.0635 -0.2903  0.1942
 6551SOL    HW120552   2.698   5.653   6.534  1.3773 -0.3084  0.6472
 6551SOL    HW220553   2.656   5.724   6.393  1.1657 -3.0239 -0.7284
 6552SOL     OW20554   1.836   4.840   5.289  0.2491  0.2146  0.0780
 6552SOL    HW120555   1.825   4.767   5.357 -0.3129  0.8284  0.6678
 6552SOL    HW220556   1.760   4.838   5.225  0.6348 -0.1877 -0.3810
 6553SOL     OW20557   0.296   1.058   3.991 -1.1244 -0.2056 -0.0969
 6553SOL    HW120558   0.250   1.027   4.075 -1.7741 -0.2244 -0.4501
 6553SOL    HW220559   0.379   1.004   3.976 -1.8345 -1.2713 -0.2906
 6554SOL     OW20560   1.534   2.206   2.713  0.0557  0.4376  0.2379
 6554SOL    HW120561   1.513   2.285   2.654  0.6114  0.9032  0.6548
 6554SOL    HW220562   1.589   2.140   2.662 -0.4961  0.2566 -0.1458
 6555SOL     OW20563   2.177   4.461   1.652  0.4461 -0.2294  0.2939
 6555SOL    HW120564   2.225   4.373   1.653  0.7442 -0.0740  1.4729
 6555SOL    HW220565   2.240   4.535   1.675 -0.0849  0.1276  0.6465
 6556SOL     OW20566   4.250   1.895   3.758 -0.5705 -0.4891  0.0389
 6556SOL    HW120567   4.164   1.928   3.719 -0.4909 -0.9978 -0.5625
 6556SOL    HW220568   4.324   1.959   3.734 -1.2188  1.6545  3.0451
 6557SOL     OW20569   2.184   0.295   0.888 -0.4887 -0.0341  0.1133
 6557SOL    HW120570   2.270   0.258   0.853 -0.0381  1.6433 -0.6547
 6557SOL    HW220571   2.199   0.333   0.979 -0.1868  1.0569 -0.3830
 6558SOL     OW20572   5.253   6.089   1.100 -0.2438 -0.1651 -0.0612
 6558SOL    HW120573   5.224   6.032   1.024  0.5115 -0.2549 -0.2936
 6558SOL    HW220574   5.173   6.131   1.143 -0.6930 -0.2713 -0.7727
 6559SOL     OW20575   1.073   2.752   5.580 -0.1173  0.4306  0.0141
 6559SOL    HW120576   1.067   2.669   5.524  0.8337  0.0559  0.4390
 6559SOL    HW220577   0.998   2.814   5.557  0.7291  0.6809 -2.3037
 6560SOL     OW20578   1.100   3.798   5.901  0.6726 -0.1885  0.2239
 6560SOL    HW120579   1.176   3.744   5.936  1.0726  0.4411  0.3505
 6560SOL    HW220580   1.131   3.852   5.822  0.6558  0.8890  0.9399
 6561SOL     OW20581   1.766   5.655   6.899 -0.1801  0.5176 -0.3766
 6561SOL    HW120582   1.804   5.606   6.821 -0.5083  0.9872 -0.8439
 6561SOL    HW220583   1.735   5.745   6.869 -0.7710  0.5115  0.1935
 6562SOL     OW20584   4.032   4.791   0.728  0.2435  0.0436  0.2667
 6562SOL    HW120585   3.966   4.780   0.802  0.2819  0.0244  0.2986
 6562SOL    HW220586   3.993   4.758   0.642  0.8393 -1.6914  0.6113
 6563SOL     OW20587   6.905   2.738   5.966  0.6552  0.4221 -0.0929
 6563SOL    HW120588   6.930   2.823   6.013  3.1889 -0.0217 -0.5318
 6563SOL    HW220589   6.840   2.759   5.893  0.8050  1.9051  0.1655
 6564SOL     OW20590   6.601   4.390   3.519  0.5230  0.6669  0.2633
 6564SOL    HW120591   6.605   4.323   3.593  0.1789 -0.8001 -1.0083
 6564SOL    HW220592   6.693   4.403   3.481  0.2790 -0.8671 -0.9779
 6565SOL     OW20593   6.433   3.072   0.916 -0.6417  0.5288 -0.1565
 6565SOL    HW120594   6.413   2.977   0.941  1.0465  0.1093 -0.2764
 6565SOL    HW220595   6.411   3.086   0.820 -2.0498  0.6282  0.1562
 6566SOL     OW20596   0.184   5.670   5.102 -0.1932 -0.2634  0.2882
 6566SOL    HW120597   0.272   5.631   5.131  0.5460  0.2095 -1.1980
 6566SOL    HW220598   0.179   5.670   5.002 -2.1846 -0.8863  0.3487
 6567SOL     OW20599   1.913   1.312   0.499 -0.0231 -0.3872 -0.1774
 6567SOL    HW120600   1.973   1.373   0.447 -0.9307  0.5922 -0.1167
 6567SOL    HW220601   1.832   1.363   0.529 -1.2994 -1.8698 -0.9768
 6568SOL     OW20602   4.668   1.269   1.482 -0.1197  0.3121 -0.3272
 6568SOL    HW120603   4.578   1.230   1.464  0.2484 -0.8966  0.3067
 6568SOL    HW220604   4.661   1.341   1.552 -0.6819  0.7603 -0.8383
 6569SOL     OW20605   2.358   4.754   2.343 -0.2256  0.4388  0.1755
 6569SOL    HW120606   2.278   4.741   2.283  0.0471  1.1844 -0.3689
 6569SOL    HW220607   2.420   4.677   2.332 -1.5501 -0.9278  1.7322
 6570SOL     OW20608   2.719   1.631   2.243  0.0500  0.0712  0.8995
 6570SOL    HW120609   2.778   1.557   2.212  0.0821  1.2021 -2.0292
 6570SOL    HW220610   2.768   1.718   2.233 -0.7710  0.7158  2.1855
 6571SOL     OW20611   1.694   6.711   4.081  0.5906  0.3190  0.1329
 6571SOL    HW120612   1.669   6.654   4.002  0.6604 -0.3743  0.5973
 6571SOL    HW220613   1.717   6.803   4.050 -0.5532  0.4031 -0.5293
 6572SOL     OW20614   0.238   6.935   4.417  0.5964 -0.0062  0.3713
 6572SOL    HW120615   0.265   6.887   4.334  0.4943  1.0307 -0.2732
 6572SOL    HW220616   0.319   6.977   4.459  0.7015 -0.7958  0.9870
 6573SOL     OW20617   0.717   2.893   3.371  0.2878 -0.7836 -0.0408
 6573SOL    HW120618   0.729   2.906   3.469 -2.1849 -2.3062  0.5293
 6573SOL    HW220619   0.620   2.893   3.348  0.7217 -2.3681 -2.2037
 6574SOL     OW20620   6.787   5.187   1.158 -0.3056  0.3357 -0.2830
 6574SOL    HW120621   6.783   5.239   1.073  1.9821  0.3537 -0.4279
 6574SOL    HW220622   6.816   5.247   1.233  1.1076 -0.4020 -0.2056
 6575SOL     OW20623   0.893   6.440   2.720 -0.2575  0.0553  0.3068
 6575SOL    HW120624   0.901   6.355   2.771 -2.2111 -0.2530  0.1502
 6575SOL    HW220625   0.869   6.420   2.625  0.6601  0.7457 -0.0939
 6576SOL     OW20626   3.234   0.935   3.387  0.2019  0.5023  0.8257
 6576SOL    HW120627   3.185   1.008   3.340  0.0415  0.6057  1.1501
 6576SOL    HW220628   3.325   0.967   3.415 -0.4757  1.1255  2.4250
 6577SOL     OW20629   4.441   1.858   5.486  0.0392 -0.2327  0.8130
 6577SOL    HW120630   4.419   1.805   5.404 -2.8009 -0.2924  1.5146
 6577SOL    HW220631   4.525   1.910   5.470 -0.9698  0.6371 -2.5582
 6578SOL     OW20632   2.575   5.858   0.716  0.2602  0.0687  0.0559
 6578SOL    HW120633   2.561   5.796   0.639 -1.2062  0.7695 -0.2969
 6578SOL    HW220634   2.497   5.921   0.722  0.9832  0.8942  1.3104
 6579SOL     OW20635   2.319   2.335   2.633  0.2257 -0.1137  0.2233
 6579SOL    HW120636   2.275   2.245   2.630  0.3081 -0.1460 -1.5582
 6579SOL    HW220637   2.415   2.325   2.660 -0.2896 -0.2803  2.1252
 6580SOL     OW20638   3.249   2.023   6.906  0.2443  0.5129 -0.4906
 6580SOL    HW120639   3.192   1.959   6.855 -1.2016  0.9804  0.4638
 6580SOL    HW220640   3.273   2.100   6.847 -0.7317  0.6529 -0.7369
 6581SOL     OW20641   5.404   2.544   1.729 -0.0660 -0.4260  0.1332
 6581SOL    HW120642   5.311   2.579   1.720 -0.7672 -2.5530 -1.7291
 6581SOL    HW220643   5.469   2.615   1.702 -1.2574  0.3582 -0.7707
 6582SOL     OW20644   2.290   6.529   3.675 -0.3692  0.0057  0.1639
 6582SOL    HW120645   2.262   6.476   3.595 -2.2008  0.1116  0.6927
 6582SOL    HW220646   2.211   6.545   3.734  0.8487  0.2711  1.8093
 6583SOL     OW20647   1.741   5.294   0.918  0.0251 -0.2987 -0.1192
 6583SOL    HW120648   1.734   5.259   1.011  0.8395  0.6513  0.3208
 6583SOL    HW220649   1.751   5.218   0.854  0.9670 -0.9050  0.7261
 6584SOL     OW20650   4.137   4.015   5.705 -0.4412  0.0427 -0.8255
 6584SOL    HW120651   4.060   4.026   5.642 -1.2325  0.0507  0.1129
 6584SOL    HW220652   4.133   4.086   5.775 -0.8755 -1.2747  0.5347
 6585SOL     OW20653   0.673   0.991   2.667 -0.3504  0.8513 -0.4165
 6585SOL    HW120654   0.728   1.026   2.591  0.6994 -1.2007 -0.6729
 6585SOL    HW220655   0.726   0.923   2.718 -2.1906 -0.2167  0.1674
 6586SOL     OW20656   2.250   0.489   0.182 -0.0374 -0.0188 -0.6990
 6586SOL    HW120657   2.179   0.473   0.251  0.0224  0.8839 -0.4186
 6586SOL    HW220658   2.226   0.439   0.099 -1.1460  0.4482 -0.6879
 6587SOL     OW20659   2.958   4.830   4.861 -0.1325 -0.0033  0.1785
 6587SOL    HW120660   2.920   4.745   4.898 -0.6931 -0.7280 -1.9327
 6587SOL    HW220661   3.047   4.847   4.902  0.2978 -1.9925  0.1596
 6588SOL     OW20662   4.522   2.528   1.135  0.3094  0.0214 -0.0415
 6588SOL    HW120663   4.439   2.524   1.190  1.9244 -2.2958  2.5154
 6588SOL    HW220664   4.569   2.614   1.153 -0.7214  0.6454 -0.2510
 6589SOL     OW20665   5.356   0.711   0.008 -0.1803 -0.5374  0.0434
 6589SOL    HW120666   5.422   0.642  -0.024 -0.3305 -0.2814 -0.8496
 6589SOL    HW220667   5.350   0.785  -0.060 -0.3088  0.1669  0.8064
 6590SOL     OW20668   6.053   6.844   5.331 -1.0400  0.0830  0.7044
 6590SOL    HW120669   6.092   6.931   5.362 -0.5309  0.2996 -0.4839
 6590SOL    HW220670   6.117   6.770   5.351 -0.3958  0.3180 -0.4453
 6591SOL     OW20671   5.253   3.870   4.224 -0.1762  0.1978 -0.2332
 6591SOL    HW120672   5.162   3.870   4.183 -0.5501 -1.0904  0.5413
 6591SOL    HW220673   5.318   3.915   4.161 -1.6922  3.1902  0.1551
 6592SOL     OW20674   0.390   0.224   3.779 -0.0435  0.2228  0.3353
 6592SOL    HW120675   0.329   0.193   3.706  0.7147 -0.1986 -0.1387
 6592SOL    HW220676   0.447   0.299   3.745  0.3356  0.0014  0.4796
 6593SOL     OW20677   6.835   0.215   3.005  0.6659 -0.5297  0.1014
 6593SOL    HW120678   6.841   0.163   3.089  0.3384  0.5076  0.7879
 6593SOL    HW220679   6.916   0.273   2.996 -0.5247  1.3977  1.1251
 6594SOL     OW20680   5.199   4.273   6.270  0.6332  0.1418  0.7001
 6594SOL    HW120681   5.258   4.327   6.330  0.4140  0.3816  0.7059
 6594SOL    HW220682   5.180   4.184   6.313  1.5886 -0.2334  0.3583
 6595SOL     OW20683   0.986   1.626   3.303  0.8532 -0.1928  0.5308
 6595SOL    HW120684   1.033   1.577   3.230 -0.3768  0.3171 -0.6511
 6595SOL    HW220685   0.887   1.621   3.288  0.6576  1.9521  0.8007
 6596SOL     OW20686   4.288   1.008   2.234  0.0559  0.5797  0.0906
 6596SOL    HW120687   4.307   1.067   2.155  0.3518 -0.1757 -0.4053
 6596SOL    HW220688   4.190   1.004   2.250 -0.2226 -1.1430 -1.7167
 6597SOL     OW20689   6.063   4.056   3.303  0.1890 -0.0327  0.2844
 6597SOL    HW120690   6.074   3.958   3.287 -0.7077  0.2743 -2.9651
 6597SOL    HW220691   6.041   4.102   3.216  1.2246  3.1655  1.5581
 6598SOL     OW20692   1.377   5.834   0.167 -0.0205  0.7293 -0.7964
 6598SOL    HW120693   1.396   5.829   0.069  0.8417  0.0561 -0.6134
 6598SOL    HW220694   1.372   5.741   0.204  0.0584  0.9839 -0.1341
 6599SOL     OW20695   2.443   4.877   0.838 -0.1107  0.3035 -0.3131
 6599SOL    HW120696   2.483   4.864   0.929  1.4547  0.4844 -0.9548
 6599SOL    HW220697   2.421   4.974   0.825 -1.5371  0.0952  0.3251
 6600SOL     OW20698   3.716   6.177   4.813 -0.9449  0.5815  0.3730
 6600SOL    HW120699   3.673   6.229   4.740 -1.1128  0.5607  0.4559
 6600SOL    HW220700   3.669   6.089   4.824 -0.7826  0.4916  0.3590
 6601SOL     OW20701   1.743   0.291   2.473 -0.5789  0.0564  0.1206
 6601SOL    HW120702   1.757   0.335   2.562  1.1800 -0.1598 -0.0085
 6601SOL    HW220703   1.743   0.360   2.401  0.2406  0.0350  0.0940
 6602SOL     OW20704   6.956   6.651   1.424  0.2170  0.0879  1.5343
 6602SOL    HW120705   6.869   6.638   1.376  0.0454  0.6504  1.6880
 6602SOL    HW220706   6.947   6.624   1.519 -0.4898  2.3146  2.1741
 6603SOL     OW20707   0.062   3.553   3.665 -0.0804  0.4256 -0.2678
 6603SOL    HW120708   0.026   3.482   3.606  3.0358 -0.8555 -0.8053
 6603SOL    HW220709   0.041   3.531   3.761  2.9819 -2.8237 -0.1441
 6604SOL     OW20710   1.094   3.560   2.225  0.0343 -0.1722  0.1163
 6604SOL    HW120711   1.167   3.587   2.162 -0.2986  0.0221 -0.1962
 6604SOL    HW220712   1.005   3.572   2.179 -0.1286 -2.0546 -0.1340
 6605SOL     OW20713   5.827   4.706   1.923 -0.0741  0.3318  0.1797
 6605SOL    HW120714   5.865   4.654   1.847 -0.5990 -0.2891  0.3279
 6605SOL    HW220715   5.739   4.666   1.950 -0.1616  0.8844  0.7458
 6606SOL     OW20716   2.101   4.076   2.822 -0.6142 -0.2728  0.0015
 6606SOL    HW120717   2.112   4.148   2.754 -2.2884 -0.4966 -0.5475
 6606SOL    HW220718   2.047   4.001   2.784  2.0530 -2.4650  0.1306
 6607SOL     OW20719   1.656   4.340   3.345  0.0509  0.1429  0.0447
 6607SOL    HW120720   1.722   4.265   3.343  2.2491  1.9765 -0.7805
 6607SOL    HW220721   1.586   4.321   3.414  1.5306 -1.8232  1.1031
 6608SOL     OW20722   0.685   6.610   5.884 -0.0592 -0.4647  0.5193
 6608SOL    HW120723   0.686   6.666   5.967 -1.2641 -2.0481  1.6829
 6608SOL    HW220724   0.590   6.589   5.860  0.3484 -2.6847  0.6422
 6609SOL     OW20725   1.452   2.150   1.124 -0.3282  0.1166 -0.3656
 6609SOL    HW120726   1.473   2.238   1.165 -0.1471 -0.3833  0.6443
 6609SOL    HW220727   1.490   2.146   1.032 -1.8656  1.7636 -1.1385
 6610SOL     OW20728   3.331   1.204   0.645 -0.5783  0.3475  0.2749
 6610SOL    HW120729   3.374   1.267   0.709 -0.5655  0.9967 -0.3546
 6610SOL    HW220730   3.231   1.212   0.652 -0.7215 -2.0105  2.5846
 6611SOL     OW20731   2.061   6.402   3.961  0.3285 -0.2952 -0.7877
 6611SOL    HW120732   2.058   6.500   3.940  1.9390 -0.4271 -1.7448
 6611SOL    HW220733   2.004   6.384   4.041  1.0108  1.6311  0.1951
 6612SOL     OW20734   5.187   5.458   5.791 -0.4083  0.5093 -0.1656
 6612SOL    HW120735   5.159   5.524   5.721 -0.8157  0.2978 -0.2052
 6612SOL    HW220736   5.236   5.382   5.747 -1.2138  0.0644 -0.3033
 6613SOL     OW20737   5.180   5.474   1.180  0.7167  0.3483  0.0064
 6613SOL    HW120738   5.180   5.486   1.081  0.4960  1.9239  0.1671
 6613SOL    HW220739   5.123   5.396   1.204 -1.5866  1.6334 -0.9660
 6614SOL     OW20740   6.613   5.368   1.388  0.1834  0.5910  0.0526
 6614SOL    HW120741   6.559   5.296   1.433  2.1205  0.5694  2.5674
 6614SOL    HW220742   6.555   5.446   1.368 -1.2083 -0.2380  0.7112
 6615SOL     OW20743   3.854   0.562   5.242  0.8094 -0.1600  0.5904
 6615SOL    HW120744   3.860   0.634   5.173 -0.2454 -0.9855 -0.3998
 6615SOL    HW220745   3.854   0.473   5.198 -1.4004 -0.6904  1.4863
 6616SOL     OW20746   2.643   0.832   0.298  0.3381 -0.1730  0.3258
 6616SOL    HW120747   2.617   0.750   0.246  0.1556 -1.9198  3.0111
 6616SOL    HW220748   2.561   0.874   0.337  0.7037 -0.5450  1.5247
 6617SOL     OW20749   4.717   2.129   4.321  0.1936  0.1281 -0.5366
 6617SOL    HW120750   4.715   2.161   4.416 -0.4815 -1.2506 -0.0657
 6617SOL    HW220751   4.673   2.197   4.263 -1.1476  0.1532  0.4332
 6618SOL     OW20752   6.215   3.132   3.339  0.0232 -0.6834 -0.1432
 6618SOL    HW120753   6.196   3.211   3.281  0.6039  0.1612  0.7799
 6618SOL    HW220754   6.313   3.129   3.359 -0.3390 -0.0641  1.9819
 6619SOL     OW20755   5.834   6.080   2.150 -0.5501 -0.4529  0.3739
 6619SOL    HW120756   5.911   6.144   2.152 -1.7540  1.0717 -0.1634
 6619SOL    HW220757   5.778   6.093   2.231 -2.1377  0.9589 -0.8679
 6620SOL     OW20758   2.083   1.206   4.580 -0.4261 -0.0942  0.4498
 6620SOL    HW120759   2.165   1.254   4.548  0.5358 -1.3144  1.0027
 6620SOL    HW220760   2.002   1.246   4.536  0.2817  2.1672  1.0594
 6621SOL     OW20761   4.054   3.564   3.831 -0.1085  0.8423 -0.1979
 6621SOL    HW120762   4.056   3.488   3.767  0.1864  1.0370 -0.4252
 6621SOL    HW220763   3.995   3.541   3.909  0.9683 -0.1243  0.3628
 6622SOL     OW20764   5.617   4.822   1.666 -0.3810 -0.0146 -0.1421
 6622SOL    HW120765   5.550   4.802   1.738 -0.9088  0.1187 -0.5849
 6622SOL    HW220766   5.694   4.871   1.705 -0.9265  0.5614  0.2385
 6623SOL     OW20767   3.450   4.100   3.089 -0.5999  0.1335  0.2791
 6623SOL    HW120768   3.357   4.086   3.121 -0.1250 -0.2005  1.6037
 6623SOL    HW220769   3.512   4.102   3.168  0.6307 -0.6079 -0.6262
 6624SOL     OW20770   2.847   2.001   2.570 -0.2336 -0.3854 -0.3164
 6624SOL    HW120771   2.819   1.907   2.588  0.6175 -0.6185 -0.1916
 6624SOL    HW220772   2.778   2.045   2.512 -1.1817 -0.7381  0.5082
 6625SOL     OW20773   1.596   4.859   5.104  0.3734  0.1338 -0.6544
 6625SOL    HW120774   1.531   4.918   5.152  1.1228  0.5888 -0.1598
 6625SOL    HW220775   1.549   4.808   5.032 -0.2058  1.7097 -1.4291
 6626SOL     OW20776   1.478   5.892   5.519 -0.3241  0.7171 -0.5132
 6626SOL    HW120777   1.573   5.860   5.529 -0.3543  0.8930  0.4391
 6626SOL    HW220778   1.466   5.975   5.573 -1.7391 -0.8051  1.7136
 6627SOL     OW20779   2.649   0.106   3.932 -0.2409  0.2354 -0.3201
 6627SOL    HW120780   2.581   0.034   3.925 -1.3525  1.2422 -0.2287
 6627SOL    HW220781   2.622   0.172   4.002  1.6111 -0.1266  0.8146
 6628SOL     OW20782   2.504   6.768   4.364  0.4189 -0.1980 -0.5058
 6628SOL    HW120783   2.572   6.758   4.438  0.7879  2.2397 -0.4258
 6628SOL    HW220784   2.422   6.715   4.387  0.8234 -0.1270  1.2758
 6629SOL     OW20785   4.743   6.617   5.633 -0.0390  0.6878  0.6010
 6629SOL    HW120786   4.681   6.684   5.674 -0.3584 -0.2801  1.7611
 6629SOL    HW220787   4.776   6.651   5.545 -0.5242  2.1624  0.9698
 6630SOL     OW20788   1.232   5.890   6.577 -0.0344  0.2172 -0.3048
 6630SOL    HW120789   1.199   5.963   6.517  0.6175 -0.5986 -1.7077
 6630SOL    HW220790   1.319   5.856   6.543  1.5656  1.2411  2.4079
 6631SOL     OW20791   1.902   1.609   3.559  0.4821  0.0021  0.3909
 6631SOL    HW120792   1.977   1.646   3.504  0.0508 -0.4349 -0.5010
 6631SOL    HW220793   1.847   1.547   3.503  0.9025 -1.6321  1.7172
 6632SOL     OW20794   0.583   6.328   6.437 -0.0736  0.5995 -0.6174
 6632SOL    HW120795   0.576   6.263   6.512  0.0331  1.0150 -0.2477
 6632SOL    HW220796   0.506   6.314   6.374  0.4720 -0.5432 -1.0700
 6633SOL     OW20797   4.295   0.155   6.907  0.0707 -0.0935  0.1220
 6633SOL    HW120798   4.197   0.142   6.920  0.0306  0.8229  0.8434
 6633SOL    HW220799   4.330   0.083   6.846 -0.6819 -1.5864  1.3752
 6634SOL     OW20800   1.439   2.375   5.000 -0.1152  0.1778  0.3903
 6634SOL    HW120801   1.533   2.363   5.031 -0.2321 -0.6279  0.4497
 6634SOL    HW220802   1.423   2.318   4.919 -0.2057  1.2285 -0.3632
 6635SOL     OW20803   5.462   6.314   6.936 -0.3801 -0.2646  0.0750
 6635SOL    HW120804   5.385   6.307   6.872 -0.6421 -1.5129  0.4994
 6635SOL    HW220805   5.544   6.277   6.894 -0.7675 -1.9870  0.7679
 6636SOL     OW20806   5.162   1.913   1.508  0.6596 -0.6669 -0.3750
 6636SOL    HW120807   5.117   1.828   1.479 -1.3016  0.4635 -0.7885
 6636SOL    HW220808   5.207   1.898   1.596 -1.7625 -1.5084  0.8027
 6637SOL     OW20809   2.120   4.286   0.851 -0.0599 -0.9031  0.0344
 6637SOL    HW120810   2.188   4.353   0.820 -0.3242 -0.5229  0.2622
 6637SOL    HW220811   2.128   4.273   0.950 -1.3412  0.3501  0.3450
 6638SOL     OW20812   3.941   3.212   4.654  0.5937 -0.2230  0.6410
 6638SOL    HW120813   3.932   3.124   4.701 -0.9097 -0.9921 -1.0150
 6638SOL    HW220814   4.005   3.203   4.578 -0.4510 -0.2123 -0.2510
 6639SOL     OW20815   5.694   0.798   3.712  0.3557  0.1749 -0.0252
 6639SOL    HW120816   5.743   0.880   3.742 -0.1637  0.7063 -0.5937
 6639SOL    HW220817   5.689   0.798   3.612 -0.2244 -0.2147  0.0019
 6640SOL     OW20818   1.233   2.852   2.635 -0.6609 -0.3612 -0.0156
 6640SOL    HW120819   1.263   2.944   2.611 -0.4363  0.2502  2.3990
 6640SOL    HW220820   1.152   2.829   2.580  1.1387 -0.0840 -2.9931
 6641SOL     OW20821   5.732   2.032   0.241 -0.0187 -0.2026  0.0719
 6641SOL    HW120822   5.723   1.933   0.225 -3.2453 -0.2935  1.6309
 6641SOL    HW220823   5.735   2.049   0.339 -0.6550  1.3154 -0.1560
 6642SOL     OW20824   0.151   4.540   0.296 -0.0089 -0.0774  0.2530
 6642SOL    HW120825   0.059   4.503   0.310  0.2117 -0.2857  1.2208
 6642SOL    HW220826   0.153   4.593   0.212 -1.4069  1.1086  0.9195
 6643SOL     OW20827   5.680   5.257   1.508 -0.3345 -0.1183  0.0471
 6643SOL    HW120828   5.609   5.187   1.501  0.4076 -0.9488  0.6880
 6643SOL    HW220829   5.690   5.286   1.603  1.4068 -1.3367  0.2853
 6644SOL     OW20830   2.825   7.011   1.321 -0.0112 -0.7748  0.3578
 6644SOL    HW120831   2.813   6.916   1.350  0.3654 -0.9591 -0.0902
 6644SOL    HW220832   2.741   7.043   1.277  0.3473 -1.3642 -0.7824
 6645SOL     OW20833   4.094   4.650   5.528 -0.2728 -0.1012  0.5903
 6645SOL    HW120834   4.148   4.723   5.568  0.5995 -0.4218  0.0430
 6645SOL    HW220835   4.022   4.622   5.591 -0.7001  1.3021  0.7534
 6646SOL     OW20836   5.736   2.156   7.008  0.4011 -0.0135 -0.4353
 6646SOL    HW120837   5.792   2.238   7.021  0.0462  0.1487  0.1432
 6646SOL    HW220838   5.713   2.117   7.097 -1.1937  0.4878 -0.5917
 6647SOL     OW20839   3.440   4.185   6.842  0.1045 -0.4025 -0.3449
 6647SOL    HW120840   3.369   4.114   6.837  0.3602 -0.7052  0.1725
 6647SOL    HW220841   3.407   4.268   6.797  0.1783 -1.1429 -1.8392
 6648SOL     OW20842   2.730   5.657   3.839  0.0942  0.2368  0.1554
 6648SOL    HW120843   2.669   5.597   3.891  1.1470 -0.7133  0.3365
 6648SOL    HW220844   2.683   5.690   3.757 -1.5222  1.5868  1.5573
 6649SOL     OW20845   4.937   2.542   5.208 -0.4468  0.5413 -0.0796
 6649SOL    HW120846   4.992   2.600   5.149  1.0880 -1.8470 -1.1206
 6649SOL    HW220847   4.947   2.572   5.303  4.0528 -0.6420  0.0320
 6650SOL     OW20848   0.613   2.331   1.753  0.5749 -0.1120  0.0310
 6650SOL    HW120849   0.654   2.288   1.673 -0.0224 -1.8620  0.6299
 6650SOL    HW220850   0.543   2.397   1.723  0.7042 -0.3813 -0.8903
 6651SOL     OW20851   0.071   2.053   6.275 -0.1003 -0.2009  0.0832
 6651SOL    HW120852   0.101   2.005   6.358 -0.6577 -0.6102  0.0532
 6651SOL    HW220853  -0.024   2.081   6.286 -1.4351 -3.4428 -1.7702
 6652SOL     OW20854   5.519   3.911   6.780 -0.0806 -0.2050 -0.4448
 6652SOL    HW120855   5.506   3.872   6.689 -3.1385  1.0624 -0.6905
 6652SOL    HW220856   5.463   3.993   6.789 -0.0005 -0.3711  2.6348
 6653SOL     OW20857   5.020   3.614   1.114  0.5727 -0.1327 -0.1013
 6653SOL    HW120858   5.032   3.548   1.039  1.3111  0.6737 -0.7134
 6653SOL    HW220859   5.060   3.577   1.198  0.8380 -0.5280 -0.3950
 6654SOL     OW20860   6.171   2.983   3.574  0.3750  0.2296  1.0930
 6654SOL    HW120861   6.199   3.020   3.662  1.8000  1.7655  0.0354
 6654SOL    HW220862   6.203   3.042   3.500  0.4706 -1.7568 -0.5594
 6655SOL     OW20863   0.499   5.013   0.711 -0.6150  0.2097 -0.3605
 6655SOL    HW120864   0.538   5.033   0.621  0.7388 -0.4063  0.0628
 6655SOL    HW220865   0.468   4.918   0.714 -1.3544  0.4396 -0.3992
 6656SOL     OW20866   6.971   2.313   3.879  0.5675  0.0276  0.0482
 6656SOL    HW120867   6.900   2.356   3.934 -0.7645 -2.8775  0.7584
 6656SOL    HW220868   6.957   2.335   3.782 -1.5489 -0.7318  0.1326
 6657SOL     OW20869   4.188   1.902   4.390  0.0241 -0.1328  0.5701
 6657SOL    HW120870   4.263   1.919   4.454  1.0464 -0.0736 -0.6185
 6657SOL    HW220871   4.178   1.804   4.375  0.5687 -0.0990 -0.0679
 6658SOL     OW20872   4.646   5.393   3.146 -0.4232 -0.4999  0.3301
 6658SOL    HW120873   4.705   5.464   3.184 -0.2683 -0.5323  0.1451
 6658SOL    HW220874   4.664   5.382   3.049  1.1575 -2.3588  0.7741
 6659SOL     OW20875   1.004   4.276   6.181 -0.4128 -0.4171  0.2551
 6659SOL    HW120876   1.056   4.226   6.112  0.5586 -1.1980  1.4923
 6659SOL    HW220877   1.034   4.371   6.183  0.3985 -0.6634  0.3703
 6660SOL     OW20878   1.026   0.269   4.833 -0.5325  0.2604  0.3045
 6660SOL    HW120879   0.963   0.284   4.910 -1.6135 -1.4791 -0.1785
 6660SOL    HW220880   1.024   0.172   4.807  1.6721  0.3430 -0.3586
 6661SOL     OW20881   2.973   6.712   4.476 -0.1525  0.8377  0.7844
 6661SOL    HW120882   3.017   6.644   4.534 -0.3454 -0.2434 -0.3165
 6661SOL    HW220883   2.986   6.803   4.516  2.0498  0.4198  1.1147
 6662SOL     OW20884   5.157   6.507   0.963 -0.5017 -0.0901 -0.1665
 6662SOL    HW120885   5.256   6.498   0.959 -0.4382 -0.2393  1.2913
 6662SOL    HW220886   5.130   6.597   0.927 -0.0240 -0.7293 -2.2493
 6663SOL     OW20887   1.420   5.573   4.528 -0.0730 -0.3299  0.3291
 6663SOL    HW120888   1.407   5.537   4.620  0.7260 -0.0724  0.5539
 6663SOL    HW220889   1.335   5.563   4.475 -0.7478  0.1369  1.2952
 6664SOL     OW20890   2.054   0.275   2.212 -0.4082  0.2102 -0.6219
 6664SOL    HW120891   2.106   0.200   2.253  1.0951  1.2996 -0.4171
 6664SOL    HW220892   2.050   0.264   2.113 -1.0073 -0.6071 -0.5137
 6665SOL     OW20893   2.443   0.215   6.215 -0.2064 -0.0313 -0.3558
 6665SOL    HW120894   2.514   0.286   6.210 -1.8029  1.7028  0.5473
 6665SOL    HW220895   2.410   0.207   6.309 -1.3133 -0.6953 -0.7798
 6666SOL     OW20896   0.939   1.514   5.991 -0.8036  0.8547 -0.2258
 6666SOL    HW120897   0.959   1.490   5.896  0.3503 -0.7580  0.3871
 6666SOL    HW220898   1.013   1.571   6.027  0.7346 -1.6110  0.7655
 6667SOL     OW20899   2.030   6.738   1.362  0.0292 -0.6087 -0.5334
 6667SOL    HW120900   2.106   6.780   1.412 -1.9714  0.3016  1.9850
 6667SOL    HW220901   2.006   6.795   1.284 -0.1886  0.9610  0.6263
 6668SOL     OW20902   6.526   2.232   5.584 -0.0905  0.1212 -0.1715
 6668SOL    HW120903   6.491   2.311   5.534 -1.2236 -0.6652 -0.6676
 6668SOL    HW220904   6.513   2.246   5.682 -0.0341  0.6641 -0.2426
 6669SOL     OW20905   6.042   4.244   3.526 -0.0133 -0.6244  0.6283
 6669SOL    HW120906   6.104   4.211   3.455  0.1643 -0.1135  0.5393
 6669SOL    HW220907   5.950   4.210   3.509  0.3375 -1.8267  1.0579
 6670SOL     OW20908   6.737   4.710   0.694  0.5804  0.0308  0.0597
 6670SOL    HW120909   6.706   4.743   0.784  0.8428 -0.4146  0.3138
 6670SOL    HW220910   6.740   4.787   0.630 -1.2652  0.0706 -0.0432
 6671SOL     OW20911   6.431   3.759   1.267  0.5943 -0.0801  0.2398
 6671SOL    HW120912   6.449   3.850   1.230  0.2584 -0.5275 -1.0882
 6671SOL    HW220913   6.429   3.692   1.192  0.1518 -1.0760  1.1111
 6672SOL     OW20914   1.975   2.509   2.125  0.8373  0.3755  0.7410
 6672SOL    HW120915   1.969   2.567   2.044  1.5592 -1.5378 -0.7882
 6672SOL    HW220916   2.059   2.454   2.120 -0.3888 -1.6779  1.4184
 6673SOL     OW20917   6.242   3.780   6.158  0.7757  0.3708 -0.2001
 6673SOL    HW120918   6.211   3.865   6.115 -0.9020 -0.0901  0.0296
 6673SOL    HW220919   6.246   3.791   6.257 -0.2690 -0.0536 -0.1020
 6674SOL     OW20920   4.671   2.785   5.138 -0.0587 -0.5630  0.8938
 6674SOL    HW120921   4.747   2.759   5.078 -1.5157 -0.7110 -0.9846
 6674SOL    HW220922   4.649   2.882   5.124 -1.9773 -1.1666 -0.7451
 6675SOL     OW20923   4.894   2.404   6.833  0.0027  0.2806 -0.3590
 6675SOL    HW120924   4.875   2.344   6.755 -0.2902  1.9605 -1.6254
 6675SOL    HW220925   4.829   2.384   6.906 -0.3672 -0.6532 -0.9261
 6676SOL     OW20926   1.417   3.867   5.809 -0.1295  0.1295  0.3253
 6676SOL    HW120927   1.420   3.774   5.771 -2.2839  0.0985  0.1347
 6676SOL    HW220928   1.342   3.918   5.767  0.6086  1.7604  0.9110
 6677SOL     OW20929   2.670   3.919   1.166  0.5023 -0.4588  0.1599
 6677SOL    HW120930   2.739   3.847   1.155  1.8327  0.9480 -1.2670
 6677SOL    HW220931   2.715   4.008   1.166 -1.3411  0.5241 -0.9186
 6678SOL     OW20932   2.228   4.414   5.464 -0.3520  0.2512  0.0407
 6678SOL    HW120933   2.294   4.384   5.532 -0.5187 -2.3335 -0.8079
 6678SOL    HW220934   2.220   4.344   5.392 -3.4439  0.7823 -0.2828
 6679SOL     OW20935   1.372   6.865   3.485 -0.4042 -0.4657  0.0254
 6679SOL    HW120936   1.320   6.920   3.549 -0.7425  0.2219 -0.8272
 6679SOL    HW220937   1.318   6.785   3.457  0.1958 -1.4196  1.4786
 6680SOL     OW20938   6.138   0.825   2.949 -0.1761  0.0513  1.0027
 6680SOL    HW120939   6.134   0.924   2.935 -1.1708  0.2426  2.3844
 6680SOL    HW220940   6.170   0.781   2.866  2.2638  1.6668  0.9537
 6681SOL     OW20941   3.626   6.368   0.182 -0.6875  0.0276 -0.3905
 6681SOL    HW120942   3.660   6.295   0.123 -1.0272 -1.0736  0.7461
 6681SOL    HW220943   3.670   6.454   0.157  1.3676 -0.9581 -0.3392
 6682SOL     OW20944   0.723   5.542   5.724  0.3279 -0.4074 -0.0277
 6682SOL    HW120945   0.752   5.476   5.655 -0.7426  0.3523 -1.2505
 6682SOL    HW220946   0.803   5.576   5.773  0.9303 -2.3405  0.4087
 6683SOL     OW20947   6.960   6.258   6.447  0.4574  0.0720  0.5341
 6683SOL    HW120948   7.022   6.236   6.523  1.4872  2.4911  0.4730
 6683SOL    HW220949   6.875   6.206   6.457  1.2383 -0.9458  2.3749
 6684SOL     OW20950   3.408   6.511   0.725 -0.2295  0.0062  0.2750
 6684SOL    HW120951   3.316   6.509   0.764 -0.4028  2.8015  0.2248
 6684SOL    HW220952   3.470   6.558   0.788  0.7138 -0.0885 -0.5576
 6685SOL     OW20953   3.366   3.733   7.022 -0.4290 -0.2813  0.5811
 6685SOL    HW120954   3.428   3.692   6.954  0.7854  0.0048  1.4744
 6685SOL    HW220955   3.378   3.687   7.110  3.5002  3.8511  2.5882
 6686SOL     OW20956   3.905   4.038   4.850 -0.4904 -0.0885 -0.1169
 6686SOL    HW120957   3.899   3.967   4.921 -0.3211 -0.9194 -0.9250
 6686SOL    HW220958   3.875   4.125   4.889  0.5826 -0.3011  1.2874
 6687SOL     OW20959   5.352   2.017   0.357 -0.1649 -0.2953 -0.1893
 6687SOL    HW120960   5.395   2.107   0.354  0.1354 -0.4117  0.4723
 6687SOL    HW220961   5.362   1.978   0.449 -2.0557 -0.1387  0.1224
 6688SOL     OW20962   6.050   0.300   0.293  1.1551 -0.0553  0.3482
 6688SOL    HW120963   6.026   0.216   0.245  0.5133 -0.2887  1.0552
 6688SOL    HW220964   6.043   0.378   0.231  0.1566 -0.3251  0.1109
 6689SOL     OW20965   4.489   5.239   6.172 -0.1141  0.4721  0.1428
 6689SOL    HW120966   4.557   5.310   6.150  0.5259  0.3005  1.4241
 6689SOL    HW220967   4.436   5.216   6.090  1.2531  0.7498 -0.8593
 6690SOL     OW20968   1.406   0.841   0.783  0.2575 -0.1458  0.4124
 6690SOL    HW120969   1.436   0.936   0.792  1.9371 -0.6998  1.0082
 6690SOL    HW220970   1.478   0.780   0.817 -0.5665 -1.6593 -0.4771
 6691SOL     OW20971   2.210   2.467   1.712  0.7182  0.2408  0.0477
 6691SOL    HW120972   2.210   2.369   1.731  0.0603  0.4451  1.1875
 6691SOL    HW220973   2.167   2.483   1.623  0.8588 -0.5029 -0.1618
 6692SOL     OW20974   5.694   5.857   1.526 -0.0647 -0.4731  0.2211
 6692SOL    HW120975   5.613   5.879   1.581  0.1554  0.5096  0.1660
 6692SOL    HW220976   5.771   5.839   1.587  0.4577  1.6864  0.2647
 6693SOL     OW20977   0.401   0.754   6.293  0.1252 -0.3847  0.6379
 6693SOL    HW120978   0.333   0.707   6.236 -0.3219 -2.3308  2.6369
 6693SOL    HW220979   0.359   0.832   6.339  0.6750  1.7021 -2.1002
 6694SOL     OW20980   4.801   4.653   2.900 -0.2350  0.2754  0.3812
 6694SOL    HW120981   4.703   4.651   2.879 -0.2057  0.3925  0.2319
 6694SOL    HW220982   4.814   4.662   2.999 -0.3743 -0.3683  0.4634
 6695SOL     OW20983   2.948   2.703   6.718 -0.0178 -0.4769 -0.0959
 6695SOL    HW120984   2.900   2.688   6.804  1.9367 -0.5459  1.0353
 6695SOL    HW220985   2.883   2.696   6.642 -1.5810 -1.5246  1.2702
 6696SOL     OW20986   1.151   3.934   5.657  0.6541 -0.3687 -0.4827
 6696SOL    HW120987   1.168   4.023   5.613 -0.1383  0.1044  0.1293
 6696SOL    HW220988   1.078   3.887   5.609  2.2585 -1.5207 -1.9081
 6697SOL     OW20989   3.819   1.158   2.748  0.4946  0.0633  0.2566
 6697SOL    HW120990   3.784   1.244   2.712 -0.0310 -0.7592 -1.3012
 6697SOL    HW220991   3.806   1.086   2.680 -1.7349 -1.9138  2.5720
 6698SOL     OW20992   3.215   3.385   0.198  0.0043 -0.5977 -0.7964
 6698SOL    HW120993   3.297   3.328   0.191  0.3871 -0.0888 -0.5318
 6698SOL    HW220994   3.134   3.328   0.186  0.4180 -0.9367 -2.1616
 6699SOL     OW20995   3.643   3.451   6.855 -0.4067  0.2547 -0.1414
 6699SOL    HW120996   3.721   3.430   6.913  0.1554  1.3160 -0.4826
 6699SOL    HW220997   3.671   3.449   6.759 -0.4293  1.9471 -0.2190
 6700SOL     OW20998   4.136   6.715   2.452  0.4273  0.4246 -0.5504
 6700SOL    HW120999   4.048   6.677   2.424 -0.5557  0.6019  2.0472
 6700SOL    HW221000   4.139   6.812   2.429  0.2815  0.2372 -1.3773
 6701SOL     OW21001   5.754   1.563   1.579 -0.2953  0.0861 -0.3006
 6701SOL    HW121002   5.656   1.539   1.582 -1.0290  2.4289 -2.0222
 6701SOL    HW221003   5.786   1.585   1.671 -1.8888  0.9572  0.0913
 6702SOL     OW21004   4.115   0.383   2.272 -0.2939  0.3457  0.5860
 6702SOL    HW121005   4.211   0.354   2.274 -0.7793 -1.4371  0.3002
 6702SOL    HW221006   4.099   0.451   2.344  1.3922  1.4875 -0.0580
 6703SOL     OW21007   6.349   2.432   1.725  0.7665 -0.2188  0.4467
 6703SOL    HW121008   6.258   2.393   1.729  1.3044 -1.4938  0.6573
 6703SOL    HW221009   6.372   2.454   1.630  0.1266  0.4267  0.4341
 6704SOL     OW21010   0.785   4.937   6.045 -0.3952  0.0754  0.1065
 6704SOL    HW121011   0.873   4.894   6.023 -0.0022  0.6599  0.5284
 6704SOL    HW221012   0.731   4.874   6.101 -0.8570 -0.8816 -1.3412
 6705SOL     OW21013   2.167   3.816   4.166 -0.1496 -0.2482 -0.7729
 6705SOL    HW121014   2.207   3.726   4.184  1.7270  0.4943 -0.9515
 6705SOL    HW221015   2.132   3.855   4.252  0.5428 -0.4673 -0.3852
 6706SOL     OW21016   0.119   4.026   2.963 -0.3882  0.6912 -0.2369
 6706SOL    HW121017   0.134   3.983   3.052 -0.7336 -1.5265 -1.1764
 6706SOL    HW221018   0.145   4.122   2.967 -0.0678  0.5573  2.1449
 6707SOL     OW21019   4.988   0.263   3.802 -0.1400 -0.4308 -0.3746
 6707SOL    HW121020   4.921   0.336   3.805  1.6595  1.2806  1.0904
 6707SOL    HW221021   4.985   0.218   3.713 -3.0666 -0.3425 -0.3901
 6708SOL     OW21022   0.601   2.493   0.723 -0.5730  0.0042 -0.1646
 6708SOL    HW121023   0.539   2.423   0.760 -2.0612 -0.2653 -2.8583
 6708SOL    HW221024   0.547   2.564   0.678  1.0025  1.8510  0.7506
 6709SOL     OW21025   1.484   5.053   1.309  0.5732 -0.3668  0.2999
 6709SOL    HW121026   1.525   5.109   1.380 -0.2420  1.4090 -0.5723
 6709SOL    HW221027   1.490   5.100   1.221 -2.0642 -0.5940 -0.1004
 6710SOL     OW21028   5.486   1.565   2.793  0.3192 -0.3429 -0.2914
 6710SOL    HW121029   5.529   1.629   2.730  2.5081 -2.1253 -0.7518
 6710SOL    HW221030   5.485   1.604   2.885 -0.5567  1.2450 -0.9460
 6711SOL     OW21031   4.332   6.570   5.519  0.3306  0.5412  0.3221
 6711SOL    HW121032   4.293   6.517   5.443 -1.7924 -1.0177  2.3594
 6711SOL    HW221033   4.288   6.660   5.523  0.2200  0.5084 -0.0760
 6712SOL     OW21034   3.361   3.172   1.523  0.2257 -0.5051  0.1456
 6712SOL    HW121035   3.390   3.080   1.551  0.8200 -1.1708 -2.3824
 6712SOL    HW221036   3.436   3.216   1.474 -0.6293  0.6888 -0.1175
 6713SOL     OW21037   2.479   4.743   3.357 -0.1065 -1.0307 -0.5991
 6713SOL    HW121038   2.549   4.807   3.328  1.0627 -2.1871 -0.4081
 6713SOL    HW221039   2.433   4.778   3.439 -0.3414  0.1189 -1.2053
 6714SOL     OW21040   6.474   0.991   2.710 -0.2889  0.2836 -0.0321
 6714SOL    HW121041   6.481   1.077   2.759  0.1651  0.7781 -0.9274
 6714SOL    HW221042   6.380   0.976   2.680  0.0043  1.6215 -1.8225
 6715SOL     OW21043   6.693   6.453   5.326 -0.1359  0.1275 -0.0999
 6715SOL    HW121044   6.690   6.358   5.358 -1.2507 -0.5732 -2.1430
 6715SOL    HW221045   6.607   6.476   5.280  1.1159  1.2657 -2.0032
 6716SOL     OW21046   1.605   3.734   3.031  0.3588 -0.4546 -0.3050
 6716SOL    HW121047   1.544   3.687   2.967 -1.2513  2.0792 -0.7704
 6716SOL    HW221048   1.692   3.754   2.986 -0.6988  1.1643 -1.7625
 6717SOL     OW21049   0.631   0.413   0.036  0.1645  0.5243  0.3567
 6717SOL    HW121050   0.716   0.362   0.024 -0.2471  0.1923 -1.3420
 6717SOL    HW221051   0.637   0.501  -0.011 -0.9618 -0.1525 -1.1109
 6718SOL     OW21052   3.162   1.937   0.407 -0.2576  0.0094 -0.5394
 6718SOL    HW121053   3.206   2.023   0.381 -1.4830  0.6316 -0.6320
 6718SOL    HW221054   3.174   1.869   0.335 -0.9665  0.7382 -1.3593
 6719SOL     OW21055   1.514   0.837   6.542  0.0803 -0.5648  0.4895
 6719SOL    HW121056   1.521   0.781   6.460 -1.2536 -1.0219  0.6567
 6719SOL    HW221057   1.506   0.779   6.622 -3.3646 -0.3124  0.4976
 6720SOL     OW21058   1.635   6.987   4.179 -0.0817 -1.0737  0.8445
 6720SOL    HW121059   1.731   6.985   4.204 -0.3771 -0.3065  2.0993
 6720SOL    HW221060   1.579   7.004   4.260 -1.0813  1.4702 -0.2734
 6721SOL     OW21061   6.243   4.326   0.608 -0.2617  0.2953 -0.0975
 6721SOL    HW121062   6.227   4.233   0.574  1.5111  0.1438 -0.6299
 6721SOL    HW221063   6.341   4.342   0.615 -0.5311  2.3096 -0.4584
 6722SOL     OW21064   6.404   3.214   2.822  0.4698  0.0601 -0.5333
 6722SOL    HW121065   6.489   3.163   2.821  0.3056 -0.2342  0.4208
 6722SOL    HW221066   6.375   3.232   2.727  0.9654 -0.8674 -0.8686
 6723SOL     OW21067   2.133   2.823   4.309 -0.3629 -0.1060  0.0946
 6723SOL    HW121068   2.227   2.790   4.309 -0.3917 -0.3217 -2.1858
 6723SOL    HW221069   2.106   2.845   4.403  1.5130 -1.2317  0.9651
 6724SOL     OW21070   1.738   3.719   5.314 -0.5478 -0.1698  0.1186
 6724SOL    HW121071   1.653   3.744   5.268  0.2459  1.5411 -0.4963
 6724SOL    HW221072   1.815   3.766   5.271  0.8169 -2.0954  0.3100
 6725SOL     OW21073   5.384   4.633   2.062  0.2783  0.3046  0.7446
 6725SOL    HW121074   5.454   4.651   2.132  0.4442  0.0531  0.6465
 6725SOL    HW221075   5.309   4.581   2.103  0.2869  0.3204  0.7806
 6726SOL     OW21076   1.871   2.583   2.381 -0.0725  0.2484 -0.0325
 6726SOL    HW121077   1.925   2.653   2.426  0.0051  0.8400 -1.0106
 6726SOL    HW221078   1.925   2.541   2.308 -0.3797 -0.2852  0.0472
 6727SOL     OW21079   1.708   5.552   5.521 -0.2873 -0.0592 -0.1648
 6727SOL    HW121080   1.733   5.497   5.442  2.8509 -1.6481  1.7259
 6727SOL    HW221081   1.726   5.648   5.502 -0.0918 -0.3452 -1.5332
 6728SOL     OW21082   3.367   1.506   6.485 -0.0671  0.0705 -0.3454
 6728SOL    HW121083   3.383   1.583   6.422 -0.0516  0.9787  0.7347
 6728SOL    HW221084   3.451   1.453   6.495 -0.1978 -0.3730 -1.4453
 6729SOL     OW21085   5.059   0.483   2.375  0.0665  0.1100  0.1346
 6729SOL    HW121086   5.024   0.411   2.435  0.2470  2.1308  2.8458
 6729SOL    HW221087   5.117   0.545   2.428  1.3523  1.2993 -2.4931
 6730SOL     OW21088   4.409   1.876   1.011 -0.2003  0.0299 -0.5597
 6730SOL    HW121089   4.475   1.801   1.011 -0.0366  0.1703 -1.2829
 6730SOL    HW221090   4.437   1.945   1.079  0.1423 -0.1269 -0.5402
 6731SOL     OW21091   5.790   2.284   4.667  0.8704  0.4860  0.1358
 6731SOL    HW121092   5.821   2.327   4.582  1.2091  0.0436  0.0328
 6731SOL    HW221093   5.845   2.203   4.685  0.1097 -0.0150  0.2268
 6732SOL     OW21094   6.722   5.483   5.804  0.2466  0.6554 -0.1032
 6732SOL    HW121095   6.806   5.431   5.816  0.1721  0.7120  0.6837
 6732SOL    HW221096   6.644   5.429   5.837  0.0987  1.0239  0.1507
 6733SOL     OW21097   6.887   4.154   5.306  0.1228  0.1734  0.1599
 6733SOL    HW121098   6.931   4.167   5.394  1.6026 -0.4123 -0.4662
 6733SOL    HW221099   6.856   4.060   5.298  0.3710  0.1134 -0.1073
 6734SOL     OW21100   6.009   2.901   5.977 -0.1413 -0.4950 -0.3653
 6734SOL    HW121101   5.972   2.917   5.885  0.3260  1.8285 -0.1957
 6734SOL    HW221102   6.033   2.988   6.019  2.5113 -1.6624  0.7945
 6735SOL     OW21103   6.849   3.706   6.323 -0.1995  0.2997  0.7045
 6735SOL    HW121104   6.864   3.713   6.422 -0.0032  0.7766  0.6415
 6735SOL    HW221105   6.771   3.646   6.306 -0.8127  0.9406  1.1892
 6736SOL     OW21106   3.076   3.741   0.242 -0.0649  0.1620 -0.4404
 6736SOL    HW121107   3.160   3.724   0.190 -0.8350 -0.4934 -1.5120
 6736SOL    HW221108   3.097   3.741   0.340  1.3845  1.2568 -0.7190
 6737SOL     OW21109   5.777   2.543   1.780 -0.0070 -0.5038  0.1035
 6737SOL    HW121110   5.736   2.499   1.861 -0.4209 -1.5575 -0.6527
 6737SOL    HW221111   5.714   2.610   1.743  0.2819  0.1569  0.7815
 6738SOL     OW21112   1.412   6.362   1.927 -0.4183 -0.0265  0.4828
 6738SOL    HW121113   1.345   6.311   1.981 -0.4870  1.3420  1.7358
 6738SOL    HW221114   1.493   6.380   1.982  0.6319 -0.8689 -0.7327
 6739SOL     OW21115   0.090   6.245   5.892  0.5261  0.1241  0.0304
 6739SOL    HW121116   0.103   6.339   5.861  1.5734 -0.2537 -0.7597
 6739SOL    HW221117   0.169   6.216   5.945  0.2938 -0.3755  0.1104
 6740SOL     OW21118   0.540   5.211   0.875  0.5780  0.1214  0.1084
 6740SOL    HW121119   0.456   5.259   0.900  0.7275  1.1765 -1.3021
 6740SOL    HW221120   0.521   5.145   0.802  1.2346  1.6510 -1.5247
 6741SOL     OW21121   3.476   0.061   0.547 -0.3467 -0.1874 -0.5819
 6741SOL    HW121122   3.493   0.133   0.615  0.5814 -0.3373 -0.6424
 6741SOL    HW221123   3.416   0.096   0.476 -2.1612 -0.3119  0.7989
 6742SOL     OW21124   1.936   4.948   0.637  0.2142 -0.1989 -0.1260
 6742SOL    HW121125   1.969   4.952   0.542  0.6606 -0.0179  0.0334
 6742SOL    HW221126   2.013   4.962   0.699 -0.0668 -0.3885  0.2655
 6743SOL     OW21127   3.379   5.035   1.688 -0.0781  0.3718 -0.0520
 6743SOL    HW121128   3.347   4.941   1.678  0.5317  0.0225  1.0832
 6743SOL    HW221129   3.459   5.037   1.749 -0.7528  1.7349  0.8545
 6744SOL     OW21130   6.915   0.206   6.826 -0.0001  0.2518 -0.3517
 6744SOL    HW121131   6.949   0.115   6.801  1.3741  0.3413  1.0268
 6744SOL    HW221132   6.959   0.275   6.768 -1.3078  0.0403 -1.6364
 6745SOL     OW21133   6.305   2.819   6.303  0.4997 -0.0579  0.4995
 6745SOL    HW121134   6.259   2.907   6.289  1.0923  0.5283  2.0169
 6745SOL    HW221135   6.266   2.774   6.384 -0.4861 -1.6902 -0.8119
 6746SOL     OW21136   0.781   2.751   1.799 -0.2199 -0.3629 -0.1513
 6746SOL    HW121137   0.774   2.652   1.806 -1.2215 -0.2959 -0.0442
 6746SOL    HW221138   0.804   2.789   1.889 -0.4549 -0.4606 -0.0471
 6747SOL     OW21139   6.722   0.512   6.529  0.0615  0.5540  0.2247
 6747SOL    HW121140   6.638   0.477   6.569 -0.7518  1.0626 -0.9609
 6747SOL    HW221141   6.767   0.440   6.476 -1.0336  0.9385 -1.3038
 6748SOL     OW21142   1.881   1.252   3.124  0.1884  0.0431 -0.6849
 6748SOL    HW121143   1.838   1.167   3.094 -2.0108  0.3661  1.2178
 6748SOL    HW221144   1.896   1.312   3.045 -0.2075 -1.2435 -1.7752
 6749SOL     OW21145   3.822   4.685   1.488  0.0727  0.2418 -0.0483
 6749SOL    HW121146   3.834   4.732   1.575 -1.7749 -0.2491  0.5188
 6749SOL    HW221147   3.746   4.620   1.496  2.2451 -2.5921 -0.8900
 6750SOL     OW21148   5.045   1.246   6.218 -0.2739 -0.1416 -0.1062
 6750SOL    HW121149   5.020   1.162   6.266  0.1864 -0.4991 -0.4904
 6750SOL    HW221150   5.124   1.229   6.159 -0.6771  0.3572 -0.8065
 6751SOL     OW21151   4.363   1.763   5.116 -0.1576  0.1168 -0.1393
 6751SOL    HW121152   4.403   1.854   5.118  0.0241  0.0996 -1.7336
 6751SOL    HW221153   4.280   1.761   5.171 -0.4734  1.3963 -0.5498
 6752SOL     OW21154   2.582   4.310   1.286 -0.2566 -0.0961 -0.8458
 6752SOL    HW121155   2.488   4.285   1.264 -1.0370  1.4554  0.5614
 6752SOL    HW221156   2.613   4.258   1.365 -0.2343  0.0087 -0.7850
 6753SOL     OW21157   4.331   6.053   5.865  0.4661 -0.3316 -0.1147
 6753SOL    HW121158   4.314   6.072   5.768  1.5109  2.6905  0.1869
 6753SOL    HW221159   4.429   6.050   5.881  0.3163  0.2648  1.0019
 6754SOL     OW21160   4.836   0.899   0.318 -0.0940  0.5478  0.1831
 6754SOL    HW121161   4.787   0.877   0.233  0.7035  0.9722 -0.3957
 6754SOL    HW221162   4.781   0.963   0.372 -1.8453 -1.7302  1.2803
 6755SOL     OW21163   2.121   6.848   4.631 -0.2095 -0.5631  0.0438
 6755SOL    HW121164   2.183   6.882   4.560 -0.7885  0.1074 -0.1564
 6755SOL    HW221165   2.068   6.925   4.668 -1.1423 -1.1601 -0.0117
 6756SOL     OW21166   3.911   3.744   5.296  0.1116  1.0115 -0.2995
 6756SOL    HW121167   3.931   3.646   5.287 -0.9052  0.8000 -0.4450
 6756SOL    HW221168   3.863   3.759   5.383 -0.5145  1.2348 -0.6756
 6757SOL     OW21169   4.458   0.350   1.951 -0.4260 -0.1698  0.3522
 6757SOL    HW121170   4.390   0.411   1.993 -1.1836 -0.8476  0.1546
 6757SOL    HW221171   4.550   0.379   1.977 -0.7061  1.6902 -0.5937
 6758SOL     OW21172   4.600   2.611   2.687 -0.1368  0.0064 -0.3287
 6758SOL    HW121173   4.612   2.512   2.691 -1.6734 -0.1714  0.4773
 6758SOL    HW221174   4.560   2.644   2.772 -2.4143  0.8856 -1.6516
 6759SOL     OW21175   0.330   3.309   1.375  0.7643 -0.4691  0.6969
 6759SOL    HW121176   0.257   3.342   1.315 -0.2347  0.7228  2.4525
 6759SOL    HW221177   0.414   3.358   1.354  0.4283 -0.0619  0.2676
 6760SOL     OW21178   6.106   2.174   6.381 -0.3295 -0.2557 -0.0691
 6760SOL    HW121179   6.103   2.104   6.452  1.8079  1.2004  1.5710
 6760SOL    HW221180   6.184   2.157   6.320  1.3031  1.5284  1.3906
 6761SOL     OW21181   3.082   0.545   5.421 -0.2867 -0.1051  0.3999
 6761SOL    HW121182   3.138   0.628   5.411  1.2362 -0.9756  1.3148
 6761SOL    HW221183   2.987   0.571   5.440  0.3016  1.4483  1.4356
 6762SOL     OW21184   6.964   4.415   6.911 -0.0827  0.0444 -0.1762
 6762SOL    HW121185   6.965   4.315   6.917  2.3599 -0.0859 -1.6556
 6762SOL    HW221186   6.881   4.450   6.957 -0.4762 -2.5506  1.3045
 6763SOL     OW21187   5.165   0.056   3.005 -0.6993  0.3429 -0.0173
 6763SOL    HW121188   5.086  -0.001   2.985 -0.4553 -0.3527  0.9544
 6763SOL    HW221189   5.143   0.120   3.079 -0.5178  0.5096 -0.1058
 6764SOL     OW21190   1.236   4.697   2.113 -0.4101  0.6206  0.0278
 6764SOL    HW121191   1.220   4.679   2.016 -0.6321  0.3960  0.1060
 6764SOL    HW221192   1.323   4.657   2.141 -1.5758 -1.7162  0.5671
 6765SOL     OW21193   1.348   3.939   2.569 -0.2286 -0.7792 -0.0687
 6765SOL    HW121194   1.404   3.878   2.512  1.4291 -0.0147  0.6645
 6765SOL    HW221195   1.259   3.952   2.526  1.8761  2.2084 -4.2951
 6766SOL     OW21196   4.747   6.932   0.938 -0.0838 -0.5240 -0.3716
 6766SOL    HW121197   4.741   6.841   0.980 -0.6353 -0.1727  0.3405
 6766SOL    HW221198   4.747   7.002   1.010  2.0868  0.0067 -0.8189
 6767SOL     OW21199   2.582   0.006   2.576 -0.4110 -0.6944 -0.5739
 6767SOL    HW121200   2.610   0.101   2.565 -0.1042 -0.8000 -0.7474
 6767SOL    HW221201   2.646  -0.041   2.637 -1.8217 -0.2464  1.3481
 6768SOL     OW21202   1.852   5.455   5.826  0.2296 -0.5507 -0.1905
 6768SOL    HW121203   1.844   5.475   5.729 -0.1335  0.2961  0.0041
 6768SOL    HW221204   1.870   5.539   5.876 -0.8883 -0.7563  0.6089
 6769SOL     OW21205   6.301   2.489   2.420 -0.2919  0.1620  0.1445
 6769SOL    HW121206   6.290   2.439   2.505 -2.6159  0.4205  0.0618
 6769SOL    HW221207   6.383   2.547   2.425  1.5736 -2.3807  0.8203
 6770SOL     OW21208   5.875   1.301   2.201  0.3414  0.0078  0.0092
 6770SOL    HW121209   5.835   1.391   2.185 -0.9348 -0.7125 -1.0923
 6770SOL    HW221210   5.858   1.242   2.122  1.0611 -1.2357  0.7399
 6771SOL     OW21211   2.959   6.891   6.123 -0.4586  0.1097  0.1466
 6771SOL    HW121212   2.976   6.886   6.025  0.6257  1.1472  0.2477
 6771SOL    HW221213   2.861   6.892   6.141 -0.6812  1.0520 -1.0112
 6772SOL     OW21214   2.357   1.215   5.686  0.5845  0.3195  0.0075
 6772SOL    HW121215   2.274   1.194   5.739  0.3433 -0.5560 -0.6803
 6772SOL    HW221216   2.408   1.288   5.730  0.1081 -0.0203  1.1556
 6773SOL     OW21217   0.793   1.964   2.743 -0.1001  0.7542 -0.2065
 6773SOL    HW121218   0.798   2.049   2.795 -0.6319  0.6745 -0.0245
 6773SOL    HW221219   0.703   1.922   2.755  0.8350 -0.9158  1.3875
 6774SOL     OW21220   1.217   0.614   6.813 -0.5281 -0.2738 -0.0469
 6774SOL    HW121221   1.119   0.604   6.795 -0.7060  0.5350  0.4205
 6774SOL    HW221222   1.241   0.563   6.896 -0.4734 -0.7826 -0.3702
 6775SOL     OW21223   0.413   3.850   6.585 -0.1057 -0.0052 -0.0314
 6775SOL    HW121224   0.355   3.768   6.583  0.5937 -0.4974 -0.4105
 6775SOL    HW221225   0.379   3.913   6.654 -1.3162 -0.1261 -0.4866
 6776SOL     OW21226   5.268   5.929   6.395  0.0870  0.0482  0.5055
 6776SOL    HW121227   5.247   5.836   6.365 -0.1081  0.8702 -2.2160
 6776SOL    HW221228   5.229   5.994   6.331  1.8427  1.9683  1.2610
 6777SOL     OW21229   5.050   6.044   6.814  0.5398 -0.0065  0.3371
 6777SOL    HW121230   5.018   6.132   6.780 -0.7372 -0.4340  0.3890
 6777SOL    HW221231   5.137   6.057   6.862  1.2287  0.9477 -1.1021
 6778SOL     OW21232   0.021   5.174   2.602  0.1627  0.2211 -0.2296
 6778SOL    HW121233   0.086   5.249   2.594 -0.7942  1.0107 -0.8664
 6778SOL    HW221234  -0.017   5.173   2.694  0.8193 -0.0255  0.0390
 6779SOL     OW21235   3.642   3.128   0.221 -0.2877 -0.6183  0.1419
 6779SOL    HW121236   3.736   3.109   0.247  0.6633  2.5360 -0.4814
 6779SOL    HW221237   3.621   3.082   0.135  2.1698  1.6412 -1.8602
 6780SOL     OW21238   0.942   2.382   0.020  0.2540 -0.0379  0.7581
 6780SOL    HW121239   1.040   2.363   0.017  0.1796 -0.4408 -2.3639
 6780SOL    HW221240   0.926   2.479   0.007  0.2968 -0.4345 -3.8189
 6781SOL     OW21241   5.002   3.471   4.877  0.5229  0.2390 -0.6078
 6781SOL    HW121242   4.932   3.518   4.931  0.5574 -0.7191  0.2968
 6781SOL    HW221243   5.023   3.526   4.796  0.7202  1.8764  0.4975
 6782SOL     OW21244   6.573   0.998   3.632  0.1692  0.0508 -0.8204
 6782SOL    HW121245   6.597   1.076   3.690  1.9037 -0.1224 -1.2505
 6782SOL    HW221246   6.496   0.948   3.673  2.3353 -1.0283  2.2921
 6783SOL     OW21247   0.958   6.784   0.312  0.2649  0.2314  0.5145
 6783SOL    HW121248   0.858   6.789   0.316  0.3259  1.7611  0.7539
 6783SOL    HW221249   0.994   6.764   0.404  0.1605 -1.0313  0.2902
 6784SOL     OW21250   3.410   4.786   5.763  0.3290  0.1082 -0.5826
 6784SOL    HW121251   3.413   4.789   5.663  0.3995 -1.8420 -0.6727
 6784SOL    HW221252   3.364   4.702   5.792  0.8889  0.3374  1.0205
 6785SOL     OW21253   4.481   0.102   0.078  0.1214  0.3567  0.4617
 6785SOL    HW121254   4.411   0.138   0.016  1.2309  2.9830  0.5869
 6785SOL    HW221255   4.500   0.007   0.056 -2.8703 -0.1970 -0.0999
 6786SOL     OW21256   2.458   1.452   4.669  0.5462  0.6089  0.2421
 6786SOL    HW121257   2.487   1.547   4.683  0.3987  0.5531  1.0052
 6786SOL    HW221258   2.539   1.395   4.653  0.6411  0.8484 -0.1526
 6787SOL     OW21259   2.419   5.061   3.249  0.3020  0.3789  0.0533
 6787SOL    HW121260   2.398   5.061   3.347  0.3687  1.4782  0.0754
 6787SOL    HW221261   2.347   5.012   3.200 -0.0812  0.4068  0.5767
 6788SOL     OW21262   3.271   3.975   1.044  0.6207  0.4767  0.6118
 6788SOL    HW121263   3.311   4.041   1.107 -0.0447  0.2397  1.2998
 6788SOL    HW221264   3.278   3.883   1.083 -1.0125  0.4825  0.9734
 6789SOL     OW21265   3.092   4.905   0.866  0.3717 -0.1369  0.1196
 6789SOL    HW121266   3.023   4.892   0.938  0.3582  0.8732  0.2940
 6789SOL    HW221267   3.173   4.850   0.888 -0.2151 -1.0262  0.1169
 6790SOL     OW21268   0.980   5.000   2.253 -0.1855  0.2936 -0.2724
 6790SOL    HW121269   0.976   4.902   2.232 -0.1070  0.0023  0.9849
 6790SOL    HW221270   1.020   5.049   2.176  1.8647 -0.9511 -0.0725
 6791SOL     OW21271   4.993   3.445   5.793  0.0749  0.1848 -0.1576
 6791SOL    HW121272   5.033   3.360   5.759  0.1903 -0.2051  0.8994
 6791SOL    HW221273   5.054   3.485   5.862 -0.6650  0.3416  0.4219
 6792SOL     OW21274   0.676   5.458   0.911 -0.5716 -0.5107 -0.5336
 6792SOL    HW121275   0.652   5.361   0.914 -1.6217 -0.2634 -0.5244
 6792SOL    HW221276   0.620   5.503   0.841 -0.0212  0.0753 -0.6036
 6793SOL     OW21277   4.977   2.117   1.472  0.0191 -0.1513 -0.6095
 6793SOL    HW121278   5.021   2.029   1.489  0.5537 -0.0189 -1.2629
 6793SOL    HW221279   5.047   2.184   1.446 -0.6251 -0.1329 -2.4452
 6794SOL     OW21280   3.030   6.881   5.396 -0.2221 -0.0480  0.4465
 6794SOL    HW121281   3.089   6.800   5.407  0.4883  0.2557 -0.8921
 6794SOL    HW221282   2.996   6.885   5.302 -1.0867  0.6673  0.7766
 6795SOL     OW21283   5.407   5.812   0.246  0.4193 -0.0294 -0.1482
 6795SOL    HW121284   5.502   5.797   0.273  1.0519  2.7984 -0.4204
 6795SOL    HW221285   5.395   5.908   0.222 -2.6320 -0.2181  0.2586
 6796SOL     OW21286   3.245   0.608   4.108  0.0198  0.2778  0.0361
 6796SOL    HW121287   3.267   0.671   4.033 -0.0146 -0.6400 -0.7689
 6796SOL    HW221288   3.300   0.525   4.098 -0.9902 -0.4252  0.2395
 6797SOL     OW21289   0.939   1.989   2.493 -0.5154 -0.0232 -0.2043
 6797SOL    HW121290   1.023   2.040   2.510 -0.2471 -0.0876 -1.2645
 6797SOL    HW221291   0.889   1.976   2.579  0.9550 -0.6833  0.5901
 6798SOL     OW21292   6.427   0.616   1.682 -0.2612  0.4485  0.2321
 6798SOL    HW121293   6.389   0.562   1.606 -1.2328  2.9852 -1.2151
 6798SOL    HW221294   6.527   0.608   1.682 -0.2362  0.3952 -1.3741
 6799SOL     OW21295   5.659   6.500   2.069  0.2545 -0.2061  0.1732
 6799SOL    HW121296   5.691   6.409   2.042 -0.0311 -1.0133  2.3518
 6799SOL    HW221297   5.559   6.502   2.071  0.1906  0.8103 -1.8044
 6800SOL     OW21298   2.089   5.153   6.784 -0.3027 -0.1595  0.0503
 6800SOL    HW121299   2.083   5.174   6.882 -2.6789 -1.8340  0.3356
 6800SOL    HW221300   2.133   5.064   6.772 -0.3918 -0.1468 -0.3819
 6801SOL     OW21301   0.092   3.369   3.904  0.2122 -0.4118  0.0254
 6801SOL    HW121302   0.008   3.379   3.956  0.7231  0.4511  0.6990
 6801SOL    HW221303   0.171   3.377   3.965  0.8600  1.7106 -0.9830
 6802SOL     OW21304   5.989   4.676   3.365  0.0167 -0.0739 -0.1735
 6802SOL    HW121305   6.023   4.667   3.271  0.1235 -0.6438 -0.0882
 6802SOL    HW221306   6.064   4.657   3.428 -0.2874 -0.6792  0.0190
 6803SOL     OW21307   6.638   4.361   2.156  0.3043  0.0261  0.1784
 6803SOL    HW121308   6.709   4.406   2.209  1.8659  0.6763 -2.2786
 6803SOL    HW221309   6.620   4.414   2.073 -1.7418 -1.1026 -0.1600
 6804SOL     OW21310   1.820   5.059   2.567  0.0778  0.9287 -0.3333
 6804SOL    HW121311   1.738   5.098   2.609 -0.2095 -0.5798  0.5852
 6804SOL    HW221312   1.835   4.966   2.602  0.7966  0.2344 -2.3445
 6805SOL     OW21313   6.181   0.815   5.462 -0.1058 -0.4827 -0.3804
 6805SOL    HW121314   6.091   0.809   5.418 -0.6711 -0.3918  0.7388
 6805SOL    HW221315   6.244   0.863   5.401 -1.6009  2.1293  0.0007
 6806SOL     OW21316   3.187   6.876   5.692  0.2358 -0.5485 -0.3564
 6806SOL    HW121317   3.095   6.853   5.723  1.3102 -0.0443  3.7745
 6806SOL    HW221318   3.186   6.966   5.649 -1.1037 -0.3240  0.0985
 6807SOL     OW21319   5.151   3.460   0.158 -0.0855  0.3160  0.5755
 6807SOL    HW121320   5.178   3.380   0.211 -0.3408  0.9586  1.7102
 6807SOL    HW221321   5.056   3.450   0.129  0.1601 -0.1964 -0.1044
 6808SOL     OW21322   2.228   4.349   4.569 -0.2985  0.0608  0.7172
 6808SOL    HW121323   2.303   4.415   4.564 -0.4595  0.3572  1.8510
 6808SOL    HW221324   2.221   4.314   4.663 -0.9760 -0.6793  0.4058
 6809SOL     OW21325   2.160   3.981   4.781  0.0628 -0.4613 -0.0546
 6809SOL    HW121326   2.194   3.981   4.875 -1.9726  0.4928  0.7545
 6809SOL    HW221327   2.199   4.057   4.730  2.0295 -1.6162 -0.3776
 6810SOL     OW21328   6.351   1.291   3.048  0.9514 -0.2923 -0.2338
 6810SOL    HW121329   6.342   1.389   3.034  1.0399 -0.1094  0.8496
 6810SOL    HW221330   6.404   1.250   2.974  1.2789  0.5436 -0.4662
 6811SOL     OW21331   6.281   6.763   1.733  0.4742 -0.2602 -0.3485
 6811SOL    HW121332   6.215   6.824   1.690 -0.2945  0.5672  1.8527
 6811SOL    HW221333   6.321   6.703   1.664 -1.1236  0.5387 -2.0578
 6812SOL     OW21334   3.916   3.327   2.757  0.1559  0.1116 -0.3611
 6812SOL    HW121335   3.956   3.388   2.826 -0.6269 -1.5960  1.7045
 6812SOL    HW221336   3.842   3.375   2.709  1.1345  1.5394 -0.5152
 6813SOL     OW21337   5.878   4.232   1.713 -0.1489  0.4107 -0.5029
 6813SOL    HW121338   5.789   4.201   1.682 -0.0577 -0.4324  0.0427
 6813SOL    HW221339   5.911   4.171   1.786 -0.9624  2.9879  2.2352
 6814SOL     OW21340   1.334   2.764   1.309  0.5235  0.3110 -0.5154
 6814SOL    HW121341   1.365   2.738   1.401  1.9093 -1.7011 -1.4663
 6814SOL    HW221342   1.387   2.842   1.277  1.0461  0.1256 -0.1272
 6815SOL     OW21343   0.670   5.885   0.719  0.2516  0.6571  0.4677
 6815SOL    HW121344   0.571   5.894   0.711  0.4235  0.7939 -2.1815
 6815SOL    HW221345   0.708   5.967   0.762 -0.6984  0.9306  0.8064
 6816SOL     OW21346   5.743   6.244   0.624 -0.0782 -0.0959  0.4387
 6816SOL    HW121347   5.798   6.182   0.567  0.3003  0.8442 -0.2582
 6816SOL    HW221348   5.801   6.283   0.696  0.7472  2.2769 -1.3685
 6817SOL     OW21349   2.678   1.954   5.768  0.6860 -0.0017 -0.3544
 6817SOL    HW121350   2.726   2.028   5.721  1.6479 -0.6273 -0.3976
 6817SOL    HW221351   2.732   1.925   5.847  0.2384 -0.5397 -0.2433
 6818SOL     OW21352   4.967   6.536   1.951 -0.6136 -0.5911  0.8113
 6818SOL    HW121353   4.931   6.611   2.006 -1.6359 -0.7384  0.3609
 6818SOL    HW221354   4.893   6.472   1.929 -0.6679  0.3894 -2.2820
 6819SOL     OW21355   1.929   5.685   2.023 -0.4982 -0.4469 -0.3906
 6819SOL    HW121356   1.908   5.602   2.074 -1.7845 -0.2945 -0.6368
 6819SOL    HW221357   1.960   5.661   1.931 -0.2666 -0.6698 -0.2547
 6820SOL     OW21358   1.194   5.462   3.483  0.2320  0.0535 -0.2455
 6820SOL    HW121359   1.110   5.442   3.432  1.4882 -0.3567 -2.2835
 6820SOL    HW221360   1.234   5.547   3.448 -0.5694  1.6312  2.4258
 6821SOL     OW21361   2.281   0.491   2.835  0.5923 -0.1444  0.7301
 6821SOL    HW121362   2.357   0.490   2.769  0.8936 -1.4522  1.0747
 6821SOL    HW221363   2.316   0.469   2.926  0.2122  1.8193  1.4111
 6822SOL     OW21364   4.346   0.636   4.690  0.1155 -0.4355  0.4876
 6822SOL    HW121365   4.391   0.622   4.603 -0.5447  0.0523  0.0559
 6822SOL    HW221366   4.411   0.622   4.765  1.8425  3.0992 -0.1241
 6823SOL     OW21367   4.026   3.057   2.374 -0.3676 -0.3252  0.2929
 6823SOL    HW121368   3.958   3.017   2.435  0.2449  2.3687  2.9769
 6823SOL    HW221369   4.106   2.998   2.369 -0.5824 -0.7787  1.8267
 6824SOL     OW21370   1.154   4.915   4.713 -0.1048 -0.4514  0.2700
 6824SOL    HW121371   1.232   4.866   4.752 -0.0968 -0.8035 -0.1784
 6824SOL    HW221372   1.075   4.854   4.709 -0.0783 -0.4544 -0.3469
 6825SOL     OW21373   6.623   5.876   2.864  0.1523 -0.3541 -0.0381
 6825SOL    HW121374   6.688   5.852   2.791  1.2559 -2.0096  1.4142
 6825SOL    HW221375   6.595   5.793   2.912 -1.3798  0.5861  0.7821
 6826SOL     OW21376   0.305   1.307   4.158 -0.4148  0.4633 -0.3683
 6826SOL    HW121377   0.360   1.270   4.082  2.2838 -1.9608  2.4793
 6826SOL    HW221378   0.233   1.242   4.182  0.2428  0.0509  0.5630
 6827SOL     OW21379   0.106   5.593   5.790 -0.1974 -0.3385 -0.0320
 6827SOL    HW121380   0.175   5.555   5.852 -1.9023 -1.6453  1.1646
 6827SOL    HW221381   0.055   5.665   5.838 -1.6110 -1.4454  0.1774
 6828SOL     OW21382   0.426   4.155   1.612 -0.1330  0.1593 -0.1217
 6828SOL    HW121383   0.337   4.200   1.608 -0.1340  0.0853 -3.0392
 6828SOL    HW221384   0.498   4.223   1.602  0.0225 -0.0323 -0.3131
 6829SOL     OW21385   4.881   3.298   4.629  0.0723  0.2456  0.8413
 6829SOL    HW121386   4.894   3.265   4.722  1.4787 -0.5012  0.4005
 6829SOL    HW221387   4.925   3.387   4.618  0.7692 -0.1224  0.6269
 6830SOL     OW21388   2.643   0.638   4.234 -0.3993  0.2793 -0.3747
 6830SOL    HW121389   2.685   0.583   4.162  0.3336 -1.3936  1.2578
 6830SOL    HW221390   2.544   0.632   4.227 -0.3323 -0.3757 -0.8700
 6831SOL     OW21391   0.473   0.537   0.889 -0.2084 -0.1429 -0.1833
 6831SOL    HW121392   0.564   0.547   0.849  0.8461  0.2221  2.1324
 6831SOL    HW221393   0.420   0.472   0.835  1.6700 -0.9273 -1.1809
 6832SOL     OW21394   3.149   3.029   3.137 -0.1654  0.1387  0.1393
 6832SOL    HW121395   3.207   3.006   3.058 -1.2066 -2.1528 -0.0416
 6832SOL    HW221396   3.202   3.021   3.221  1.0010  2.7537 -0.2329
 6833SOL     OW21397   6.474   6.863   6.570 -0.2626 -0.1625 -0.4831
 6833SOL    HW121398   6.377   6.881   6.552 -0.1900  0.6831 -0.0619
 6833SOL    HW221399   6.523   6.949   6.579  0.2953 -0.5693  0.5891
 6834SOL     OW21400   2.302   3.520   1.435  0.3766  0.0790 -0.7685
 6834SOL    HW121401   2.211   3.532   1.396 -0.1242 -0.1651  0.3093
 6834SOL    HW221402   2.335   3.428   1.414 -0.2322 -0.3365  0.0603
 6835SOL     OW21403   3.618   6.085   3.440 -0.0486  0.9174 -0.3704
 6835SOL    HW121404   3.607   6.040   3.529  0.3678  1.6559  0.0600
 6835SOL    HW221405   3.617   6.015   3.368  0.9132  0.1649  0.3130
 6836SOL     OW21406   4.384   5.317   1.051  0.7050  0.5951 -0.3891
 6836SOL    HW121407   4.400   5.379   0.974 -1.8034  1.1927 -0.4875
 6836SOL    HW221408   4.348   5.369   1.129 -2.6491 -0.8078 -0.8695
 6837SOL     OW21409   0.693   4.582   4.066  0.1391  0.0959  0.6357
 6837SOL    HW121410   0.716   4.680   4.071  0.8917 -0.1036  1.3099
 6837SOL    HW221411   0.664   4.550   4.156  0.0797 -0.3497  0.4603
 6838SOL     OW21412   2.394   3.231   0.879  0.2516 -0.2051 -0.3257
 6838SOL    HW121413   2.400   3.330   0.862  1.6425  0.0388  1.2745
 6838SOL    HW221414   2.373   3.215   0.975 -1.3248 -1.4960 -0.8488
 6839SOL     OW21415   3.135   0.411   1.303  0.2096 -0.5823 -0.0998
 6839SOL    HW121416   3.142   0.322   1.260 -1.1394  0.4562 -2.7030
 6839SOL    HW221417   3.087   0.403   1.390 -0.0710 -2.3659 -0.3918
 6840SOL     OW21418   0.344   0.832   6.631  0.0500 -0.0875 -0.4714
 6840SOL    HW121419   0.301   0.786   6.708 -0.5638 -0.2261 -0.8880
 6840SOL    HW221420   0.434   0.792   6.613  0.3343  0.1551  0.3615
 6841SOL     OW21421   0.329   1.893   6.096  0.6118  0.2498 -0.3286
 6841SOL    HW121422   0.324   1.910   5.998 -1.7847  0.0210 -0.2845
 6841SOL    HW221423   0.306   1.976   6.146  0.4705  0.0015  0.0240
 6842SOL     OW21424   2.849   4.090   1.688 -0.0081  0.4564 -0.0120
 6842SOL    HW121425   2.775   4.054   1.631 -0.1242  1.0806 -0.2654
 6842SOL    HW221426   2.894   4.015   1.736  1.3981 -0.3687 -2.4656
 6843SOL     OW21427   3.539   6.100   1.797 -0.1333  0.1328 -0.4656
 6843SOL    HW121428   3.533   6.146   1.708  1.5364  1.4883  0.0755
 6843SOL    HW221429   3.553   6.002   1.783  2.1058  0.5738 -1.7675
 6844SOL     OW21430   5.099   6.850   4.854 -0.0443  0.3691  0.4787
 6844SOL    HW121431   5.037   6.884   4.926 -2.3405  0.8739 -1.6193
 6844SOL    HW221432   5.100   6.750   4.856 -2.7713  0.2128 -0.7685
 6845SOL     OW21433   5.268   4.603   5.478 -0.1702  0.2672 -0.4708
 6845SOL    HW121434   5.218   4.615   5.565 -0.4616  1.5256 -0.7867
 6845SOL    HW221435   5.235   4.520   5.432 -1.4059  0.6318 -0.2859
 6846SOL     OW21436   1.355   4.277   1.829  0.1688 -0.4920 -0.0225
 6846SOL    HW121437   1.264   4.276   1.787 -1.1198  1.0503  2.4850
 6846SOL    HW221438   1.381   4.184   1.852 -1.6295 -0.8368  0.8327
 6847SOL     OW21439   0.145   2.547   2.815 -0.0618  0.5361 -0.1099
 6847SOL    HW121440   0.236   2.505   2.816 -0.5514 -0.6895 -2.0072
 6847SOL    HW221441   0.105   2.543   2.906  1.3527  0.1480  0.5212
 6848SOL     OW21442   3.093   5.668   3.341 -0.0103  0.1348  0.4652
 6848SOL    HW121443   3.151   5.749   3.350 -0.5753  0.5102  0.7320
 6848SOL    HW221444   3.064   5.638   3.432  1.0677 -1.0056  0.4524
 6849SOL     OW21445   4.319   3.676   5.365  0.0343  0.2459  0.1386
 6849SOL    HW121446   4.408   3.714   5.390  0.3194  0.0714 -0.5828
 6849SOL    HW221447   4.255   3.750   5.344  0.3511  0.3460 -0.4728
 6850SOL     OW21448   5.445   0.717   4.106 -0.2351  0.2915  0.0192
 6850SOL    HW121449   5.359   0.716   4.056 -0.4308  1.5779  0.3094
 6850SOL    HW221450   5.500   0.638   4.079 -0.5276  0.7007 -1.8750
 6851SOL     OW21451   1.585   3.886   4.176 -0.9088 -0.4436  0.2269
 6851SOL    HW121452   1.593   3.788   4.156 -1.0673 -0.8706  2.0683
 6851SOL    HW221453   1.674   3.929   4.168 -1.1494 -0.2833 -2.5244
 6852SOL     OW21454   4.596   2.526   0.841 -0.0089 -0.2116  0.5204
 6852SOL    HW121455   4.693   2.503   0.833 -0.1072 -0.0770 -1.6052
 6852SOL    HW221456   4.573   2.539   0.938  2.0830 -0.1988  1.0696
 6853SOL     OW21457   5.873   6.320   5.240 -0.5063  0.7256 -0.5101
 6853SOL    HW121458   5.941   6.247   5.250 -1.6662 -0.5647 -1.4554
 6853SOL    HW221459   5.812   6.320   5.320  0.3390  1.6199  0.1515
 6854SOL     OW21460   5.990   4.517   3.996 -0.0293  0.2401  0.4902
 6854SOL    HW121461   5.913   4.582   4.002  1.0435  1.4646  2.0824
 6854SOL    HW221462   6.045   4.538   3.916 -0.0745  0.8726  0.6174
 6855SOL     OW21463   3.386   6.245   5.174 -0.4866 -0.5443  0.1357
 6855SOL    HW121464   3.300   6.263   5.221  0.7030 -0.2487  2.3021
 6855SOL    HW221465   3.393   6.147   5.153 -1.1566 -0.6342  0.3197
 6856SOL     OW21466   7.010   3.289   1.030 -0.6576 -0.2170 -0.0283
 6856SOL    HW121467   6.920   3.248   1.048 -1.2827  0.5954 -1.1809
 6856SOL    HW221468   7.075   3.217   1.007 -1.3079 -0.7138 -0.3429
 6857SOL     OW21469   6.021   5.027   6.174 -0.0348 -0.2574  0.0185
 6857SOL    HW121470   6.094   5.094   6.159  4.1199 -3.7594  2.2539
 6857SOL    HW221471   5.997   4.983   6.088  0.6164  0.8237 -0.7452
 6858SOL     OW21472   1.762   4.084   1.801 -0.5173  0.4942 -0.4768
 6858SOL    HW121473   1.812   4.002   1.828 -2.0217 -0.3506 -0.1675
 6858SOL    HW221474   1.664   4.070   1.815 -0.8067  2.3973 -0.2904
 6859SOL     OW21475   3.403   4.180   0.707 -0.0146 -0.1433  0.1437
 6859SOL    HW121476   3.332   4.123   0.748 -0.7983  1.0710  0.5283
 6859SOL    HW221477   3.381   4.196   0.611  2.0294 -3.3244 -1.0359
 6860SOL     OW21478   6.537   6.848   1.269  0.7640  0.6332  0.2706
 6860SOL    HW121479   6.558   6.943   1.245 -0.7509  1.0654  0.5933
 6860SOL    HW221480   6.447   6.823   1.234  1.7121 -1.1819 -1.0730
 6861SOL     OW21481   6.662   3.526   1.628 -0.5323  0.3809 -0.1431
 6861SOL    HW121482   6.593   3.595   1.610  0.3468  0.9267 -1.5965
 6861SOL    HW221483   6.750   3.570   1.647 -0.6826 -0.2774  2.3835
 6862SOL     OW21484   0.852   5.488   3.149 -0.3253  0.5073  0.1620
 6862SOL    HW121485   0.884   5.540   3.229  0.1199 -0.3031  0.5247
 6862SOL    HW221486   0.891   5.397   3.152 -1.7815 -0.1469  0.0073
 6863SOL     OW21487   6.465   1.357   5.675 -0.3741 -0.2821 -0.2606
 6863SOL    HW121488   6.440   1.261   5.665  0.9998 -0.4781 -2.2055
 6863SOL    HW221489   6.537   1.381   5.610  0.8539  1.5432  1.6175
 6864SOL     OW21490   0.076   2.963   4.536 -0.0508 -0.4580  0.9855
 6864SOL    HW121491   0.002   3.022   4.569 -0.1143 -0.7115  1.2976
 6864SOL    HW221492   0.158   2.978   4.591  0.4754  0.6351 -0.0584
 6865SOL     OW21493   2.072   0.064   1.337  0.1767 -1.1133  0.9110
 6865SOL    HW121494   2.086  -0.009   1.404 -2.5341 -1.7273  0.9276
 6865SOL    HW221495   2.016   0.030   1.262  0.5144  0.4468 -0.0978
 6866SOL     OW21496   6.875   5.418   5.158  0.1460 -0.5220  0.2792
 6866SOL    HW121497   6.892   5.338   5.216 -0.4571 -0.8074  0.0732
 6866SOL    HW221498   6.953   5.433   5.098  0.4939 -0.6278  0.6985
 6867SOL     OW21499   2.508   2.384   0.611  0.3516 -0.2562  0.0660
 6867SOL    HW121500   2.431   2.400   0.673 -0.6634 -0.3582 -1.1363
 6867SOL    HW221501   2.516   2.286   0.592 -0.6287 -0.0604 -1.5248
 6868SOL     OW21502   5.412   4.431   2.700 -0.5250  0.1340  0.0189
 6868SOL    HW121503   5.325   4.397   2.738 -0.5430  1.6344  1.4488
 6868SOL    HW221504   5.403   4.528   2.680  0.3993 -0.0194 -1.2419
 6869SOL     OW21505   1.201   6.634   6.502  0.0620 -0.2811  0.4832
 6869SOL    HW121506   1.199   6.734   6.513  1.0747 -0.1400 -0.4163
 6869SOL    HW221507   1.247   6.611   6.416 -1.5818 -1.4874 -0.1206
 6870SOL     OW21508   0.176   1.567   0.201 -0.0217  0.2435 -1.2531
 6870SOL    HW121509   0.220   1.573   0.111  1.8590  0.1277 -0.3854
 6870SOL    HW221510   0.217   1.493   0.253  0.2995  1.5364  0.4127
 6871SOL     OW21511   6.877   3.760   5.035  0.2037  0.9098  0.6530
 6871SOL    HW121512   6.951   3.824   5.058 -0.0922  0.9695  1.4967
 6871SOL    HW221513   6.791   3.809   5.027  0.3974  0.9884 -1.3403
 6872SOL     OW21514   2.277   3.646   1.721 -0.1210 -0.0522  0.0067
 6872SOL    HW121515   2.310   3.568   1.773  1.0874 -0.0343 -0.6781
 6872SOL    HW221516   2.203   3.618   1.660  1.0664 -0.9662 -1.0838
 6873SOL     OW21517   0.806   3.079   2.219  0.2127 -0.4752 -0.3283
 6873SOL    HW121518   0.733   3.125   2.169  0.4412 -0.3503 -0.5496
 6873SOL    HW221519   0.878   3.145   2.241  1.0384 -0.9194 -1.5658
 6874SOL     OW21520   4.133   5.424   1.721 -0.4464  0.1066 -0.3418
 6874SOL    HW121521   4.069   5.475   1.663  0.7330 -0.0636 -1.8729
 6874SOL    HW221522   4.210   5.392   1.665  2.1415  2.1214  1.7433
 6875SOL     OW21523   3.692   1.004   5.636  0.2278 -0.3589  0.1260
 6875SOL    HW121524   3.791   1.020   5.638  0.0386  1.0926 -0.5176
 6875SOL    HW221525   3.655   1.012   5.728  0.8701 -2.1755  0.5656
 6876SOL     OW21526   5.762   5.401   1.845 -0.5164  0.5138 -0.3909
 6876SOL    HW121527   5.674   5.381   1.803  0.4403 -1.0101 -1.7652
 6876SOL    HW221528   5.748   5.421   1.942 -2.2842 -0.6918 -0.3445
 6877SOL     OW21529   0.360   3.653   2.311 -0.2253 -0.5032 -1.0859
 6877SOL    HW121530   0.283   3.658   2.375  0.5661 -0.4625 -0.1074
 6877SOL    HW221531   0.341   3.584   2.241  0.0758 -2.7003  0.8755
 6878SOL     OW21532   0.054   6.964   2.056 -0.0056  0.0592  0.4254
 6878SOL    HW121533   0.044   6.979   2.155 -0.2804 -0.2506  0.4441
 6878SOL    HW221534  -0.022   6.909   2.023  0.6498 -0.7591  0.2393
 6879SOL     OW21535   1.502   0.012   6.329 -0.2134 -0.0562  0.2647
 6879SOL    HW121536   1.507  -0.067   6.390  0.7478 -0.3975 -0.2293
 6879SOL    HW221537   1.406   0.034   6.311 -0.4971 -0.8581  0.7353
 6880SOL     OW21538   3.109   0.199   6.673  0.1118  0.1516 -0.4910
 6880SOL    HW121539   3.151   0.226   6.760 -0.0947 -0.3736 -0.2247
 6880SOL    HW221540   3.040   0.129   6.690 -1.9374  2.0291 -0.7596
 6881SOL     OW21541   0.197   5.080   2.314 -0.1782 -0.2426 -0.3108
 6881SOL    HW121542   0.181   5.067   2.412 -0.3700 -0.6750 -0.3983
 6881SOL    HW221543   0.229   4.994   2.274  1.3271  0.3080 -0.3507
 6882SOL     OW21544   1.618   6.103   6.515 -0.2791  0.3318  0.9126
 6882SOL    HW121545   1.553   6.163   6.562 -0.3810  1.5349 -0.6603
 6882SOL    HW221546   1.707   6.148   6.511 -0.0617 -0.1146  0.6961
 6883SOL     OW21547   6.407   5.878   1.938 -0.4614  0.1308  0.0885
 6883SOL    HW121548   6.475   5.814   1.903 -1.2441 -0.6497 -0.0316
 6883SOL    HW221549   6.452   5.966   1.958  0.2789  0.1603 -1.5046
 6884SOL     OW21550   1.967   5.862   3.507 -0.1638 -0.2421  0.8954
 6884SOL    HW121551   2.025   5.935   3.471  0.0177  0.6122  2.8044
 6884SOL    HW221552   1.992   5.775   3.463  0.8059  0.5237 -0.1439
 6885SOL     OW21553   6.709   4.971   2.697 -0.0969  0.0697 -0.1266
 6885SOL    HW121554   6.708   4.881   2.740  0.7965 -0.0655 -0.3595
 6885SOL    HW221555   6.775   5.030   2.744  0.5957  0.0445 -1.0237
 6886SOL     OW21556   0.325   3.906   0.676  0.0401  0.2248  0.2090
 6886SOL    HW121557   0.356   3.988   0.725 -0.9771  0.3772  0.6294
 6886SOL    HW221558   0.254   3.932   0.610 -1.9223 -0.5786  1.9142
 6887SOL     OW21559   6.673   6.642   4.922  0.1636 -0.5375 -0.3156
 6887SOL    HW121560   6.584   6.656   4.965  0.2335 -2.2010  0.4384
 6887SOL    HW221561   6.743   6.689   4.975 -0.2066  0.5259 -0.7424
 6888SOL     OW21562   6.855   2.759   1.699 -0.2543  0.7545  0.1244
 6888SOL    HW121563   6.889   2.791   1.787  1.6354 -0.6700 -0.0261
 6888SOL    HW221564   6.912   2.796   1.625 -0.3481  0.0379 -0.3149
 6889SOL     OW21565   0.939   2.486   4.390 -0.2352 -0.2009 -0.0092
 6889SOL    HW121566   0.914   2.401   4.344 -0.3252  0.6699 -1.6400
 6889SOL    HW221567   1.011   2.531   4.337 -0.7898  1.1488  0.3713
 6890SOL     OW21568   5.103   4.825   3.960  0.7622 -0.2508 -0.3001
 6890SOL    HW121569   5.103   4.860   3.867 -0.2108 -2.6908 -1.3024
 6890SOL    HW221570   5.037   4.875   4.015  1.1334  1.0218 -0.9838
 6891SOL     OW21571   0.994   6.907   5.443 -0.0107  0.3232  0.3699
 6891SOL    HW121572   1.063   6.947   5.503 -1.4078  1.7169  1.1191
 6891SOL    HW221573   0.917   6.970   5.433  0.2114  0.2422 -3.0634
 6892SOL     OW21574   0.289   4.778   6.472 -0.2455 -0.2647  0.0211
 6892SOL    HW121575   0.388   4.789   6.468  0.2129 -3.7832 -1.1455
 6892SOL    HW221576   0.255   4.811   6.560  2.0368  0.3364  0.7354
 6893SOL     OW21577   6.257   3.482   6.958  0.1561 -0.3189  0.0913
 6893SOL    HW121578   6.352   3.512   6.954  0.4857 -1.3488 -0.0692
 6893SOL    HW221579   6.223   3.465   6.866  0.5492 -2.1318  0.2512
 6894SOL     OW21580   6.391   5.161   6.888  0.1965 -0.1478 -0.1809
 6894SOL    HW121581   6.345   5.199   6.968  0.4842  0.5564 -0.3498
 6894SOL    HW221582   6.345   5.190   6.805  0.5219 -0.0215 -0.3187
 6895SOL     OW21583   2.647   4.784   0.679  0.1131  0.8571 -0.3989
 6895SOL    HW121584   2.656   4.687   0.656 -1.1572  0.7445 -0.4870
 6895SOL    HW221585   2.578   4.795   0.750  0.1424  1.7100 -0.4927
 6896SOL     OW21586   3.773   0.986   5.350 -0.5216  0.1533  0.0311
 6896SOL    HW121587   3.703   1.053   5.324  0.5499  1.5796  0.6392
 6896SOL    HW221588   3.787   0.989   5.449 -1.4196 -2.0137  0.2810
 6897SOL     OW21589   4.047   1.519   2.884 -0.2365  0.2177 -0.1018
 6897SOL    HW121590   4.008   1.436   2.923 -0.1314  0.0836 -0.2848
 6897SOL    HW221591   4.143   1.527   2.912 -0.1636  0.1263 -0.3262
 6898SOL     OW21592   2.171   6.465   1.043 -0.0926  0.1307  0.0629
 6898SOL    HW121593   2.156   6.441   0.947 -1.6482 -3.0641  0.9350
 6898SOL    HW221594   2.085   6.460   1.092  0.7227  1.4217  1.7149
 6899SOL     OW21595   6.026   5.046   2.934 -0.3434  0.0615  0.4675
 6899SOL    HW121596   6.077   5.128   2.908 -0.7210  0.6837  1.6113
 6899SOL    HW221597   6.085   4.966   2.928 -0.7492 -0.1373 -3.6798
 6900SOL     OW21598   0.814   5.497   4.018 -0.7264 -0.0545  0.1905
 6900SOL    HW121599   0.818   5.424   3.950 -3.9506 -2.2609  2.1248
 6900SOL    HW221600   0.728   5.547   4.009 -0.8387  0.1679  2.0149
 6901SOL     OW21601   6.961   4.758   6.646  0.5946  0.0193  0.5074
 6901SOL    HW121602   6.879   4.734   6.699  0.7099  1.3911  1.3466
 6901SOL    HW221603   6.939   4.755   6.548 -0.7487  1.2385  0.7323
 6902SOL     OW21604   5.772   5.932   5.037 -0.1648 -0.1082 -0.0438
 6902SOL    HW121605   5.753   6.015   4.985 -2.7184 -1.1457 -0.9138
 6902SOL    HW221606   5.714   5.929   5.118  0.1679 -0.8500  0.1741
 6903SOL     OW21607   6.303   6.688   5.361 -0.9340  0.1799 -0.1681
 6903SOL    HW121608   6.360   6.673   5.442 -0.3704 -0.6970 -0.7171
 6903SOL    HW221609   6.350   6.654   5.280 -0.6662  2.7490 -1.1674
 6904SOL     OW21610   0.497   7.010   0.287  0.0600 -0.4260  0.0757
 6904SOL    HW121611   0.471   7.002   0.383  3.1513 -2.3927  0.8657
 6904SOL    HW221612   0.501   7.106   0.261  1.5215  0.2658  2.6440
 6905SOL     OW21613   3.088   0.171   5.745 -0.2940 -0.7833  0.1346
 6905SOL    HW121614   3.080   0.139   5.650 -2.2030 -0.2301  0.0758
 6905SOL    HW221615   3.005   0.147   5.795 -0.2639  0.9228  1.0558
 6906SOL     OW21616   2.758   1.717   4.312  0.2816  0.3858 -0.3042
 6906SOL    HW121617   2.811   1.715   4.397 -1.6934  0.8824  1.0061
 6906SOL    HW221618   2.769   1.630   4.263  0.1877 -0.5547  1.2831
 6907SOL     OW21619   0.361   1.280   0.008 -0.5690 -0.2303 -0.4108
 6907SOL    HW121620   0.337   1.334  -0.073  0.5312 -0.3237 -0.8228
 6907SOL    HW221621   0.351   1.183  -0.012 -0.7481 -0.2380 -0.2831
 6908SOL     OW21622   2.126   5.619   6.424  0.0209  0.0890 -0.3947
 6908SOL    HW121623   2.058   5.678   6.467 -0.0170 -1.4259  1.8092
 6908SOL    HW221624   2.218   5.653   6.444 -0.0245 -0.0914  0.1571
 6909SOL     OW21625   5.397   4.274   2.452 -0.0153 -0.0061  0.1643
 6909SOL    HW121626   5.298   4.263   2.445  0.2026 -1.2817 -1.7096
 6909SOL    HW221627   5.418   4.344   2.520 -2.1595 -0.1768  1.0935
 6910SOL     OW21628   1.702   2.344   1.409  0.8603 -0.2968  0.0441
 6910SOL    HW121629   1.640   2.376   1.481  2.3740  0.2120  1.1714
 6910SOL    HW221630   1.745   2.258   1.438  0.1888 -1.0208 -1.0337
 6911SOL     OW21631   1.754   6.845   4.646  0.0582 -0.4943 -0.3173
 6911SOL    HW121632   1.825   6.913   4.662  0.1941 -0.0098 -2.6695
 6911SOL    HW221633   1.682   6.856   4.714  1.8128 -0.4921  1.6462
 6912SOL     OW21634   1.076   4.180   5.261  0.4901 -0.0698 -0.0055
 6912SOL    HW121635   1.043   4.141   5.175  0.6466 -0.6171  0.1757
 6912SOL    HW221636   1.175   4.169   5.267  0.5606  0.5513 -0.0437
 6913SOL     OW21637   3.431   4.133   5.666  0.2951  0.2677  0.5868
 6913SOL    HW121638   3.361   4.087   5.611  1.0253  0.3515 -0.4224
 6913SOL    HW221639   3.492   4.185   5.607  0.4881  1.1999  1.5734
 6914SOL     OW21640   2.997   1.480   2.981  0.2825  0.1852  0.4526
 6914SOL    HW121641   3.055   1.403   2.956 -1.1822 -1.5998  2.1662
 6914SOL    HW221642   3.005   1.497   3.080 -0.6055  1.1729  0.3733
 6915SOL     OW21643   6.618   3.500   3.896  0.1314 -0.6216 -0.3682
 6915SOL    HW121644   6.550   3.517   3.968  1.8329 -0.0921  1.1913
 6915SOL    HW221645   6.641   3.586   3.851  1.7423 -0.2676  1.0162
 6916SOL     OW21646   4.703   0.062   5.430 -0.0649  0.2104 -0.0125
 6916SOL    HW121647   4.692  -0.033   5.402  0.8352  0.0706  0.0714
 6916SOL    HW221648   4.780   0.103   5.381  0.4666  0.4655  0.9896
 6917SOL     OW21649   3.623   3.859   0.145  0.4239  0.3839 -0.2840
 6917SOL    HW121650   3.598   3.946   0.101 -0.7061  0.1303 -0.1749
 6917SOL    HW221651   3.672   3.878   0.230 -2.6453  1.0963  1.5128
 6918SOL     OW21652   1.851   3.856   0.308 -0.4045 -0.0086 -0.4871
 6918SOL    HW121653   1.846   3.813   0.398  0.2743  0.0443 -0.4260
 6918SOL    HW221654   1.910   3.802   0.248 -1.6295 -0.5923 -1.2106
 6919SOL     OW21655   4.740   4.556   2.628 -0.1831 -0.5541  0.3480
 6919SOL    HW121656   4.713   4.460   2.624  0.5602 -0.8063  0.9693
 6919SOL    HW221657   4.830   4.563   2.672  0.9745  0.2089 -2.0005
 6920SOL     OW21658   6.670   3.102   5.459 -0.1850 -0.1865  0.4271
 6920SOL    HW121659   6.602   3.048   5.409  0.4824 -0.6382 -0.0067
 6920SOL    HW221660   6.760   3.060   5.450  0.3195  0.8868  0.2523
 6921SOL     OW21661   4.971   1.811   5.691  0.0528 -0.5922 -0.3994
 6921SOL    HW121662   4.914   1.794   5.611 -1.7303  0.6123  0.5488
 6921SOL    HW221663   5.043   1.877   5.667 -0.8654  0.2627 -0.8786
 6922SOL     OW21664   3.073   5.590   6.283 -0.1281 -0.2234  0.3929
 6922SOL    HW121665   3.000   5.539   6.237 -0.4500  0.6967 -0.1436
 6922SOL    HW221666   3.147   5.528   6.306 -0.0578 -0.7640 -1.1659
 6923SOL     OW21667   5.473   6.629   2.257 -0.0684  0.2369  0.1117
 6923SOL    HW121668   5.443   6.643   2.163 -0.6018  0.6440  0.3373
 6923SOL    HW221669   5.548   6.691   2.278  1.6361 -1.4199 -0.7465
 6924SOL     OW21670   3.398   4.157   1.219  0.0791  0.1582  0.2669
 6924SOL    HW121671   3.472   4.166   1.153 -1.4162 -1.9133 -1.8841
 6924SOL    HW221672   3.430   4.109   1.300  1.1465 -0.5158 -0.5376
 6925SOL     OW21673   5.464   0.392   5.364  0.3889 -0.3279  0.2106
 6925SOL    HW121674   5.459   0.393   5.265  0.5283  0.8638  0.1978
 6925SOL    HW221675   5.450   0.299   5.398 -0.0942 -0.6671 -0.8933
 6926SOL     OW21676   2.207   3.923   6.856 -0.2193 -0.1431  0.3639
 6926SOL    HW121677   2.196   3.939   6.954  0.5924 -1.5786  0.7110
 6926SOL    HW221678   2.118   3.904   6.815 -0.3567 -1.2670  1.1564
 6927SOL     OW21679   3.587   1.152   5.049  0.3810  0.4021  0.0762
 6927SOL    HW121680   3.685   1.142   5.034  0.3699  2.6351 -2.1539
 6927SOL    HW221681   3.569   1.162   5.147  2.1897 -1.2082  0.6260
 6928SOL     OW21682   4.574   5.190   0.466 -0.3652  0.1007  0.5103
 6928SOL    HW121683   4.638   5.155   0.534 -1.8456 -1.4449  1.1706
 6928SOL    HW221684   4.621   5.199   0.378  0.6852 -1.3129  0.8934
 6929SOL     OW21685   4.029   5.913   5.754  0.1216 -0.3245 -0.9141
 6929SOL    HW121686   3.969   5.840   5.720 -0.3338  0.0743 -0.9849
 6929SOL    HW221687   4.085   5.946   5.679  3.5687 -3.5459 -0.0572
 6930SOL     OW21688   6.451   6.699   5.090 -0.5513  0.1823  0.1279
 6930SOL    HW121689   6.446   6.797   5.106  0.5100 -0.0602  2.3532
 6930SOL    HW221690   6.378   6.671   5.028 -0.5360  2.4250 -0.9926
 6931SOL     OW21691   3.232   3.819   6.455  0.3316 -0.1418 -0.2591
 6931SOL    HW121692   3.314   3.829   6.511 -1.0613  0.5467  1.7770
 6931SOL    HW221693   3.162   3.768   6.507 -1.5122  1.7104 -0.7910
 6932SOL     OW21694   6.120   2.167   0.494  0.2017 -0.3254  0.8760
 6932SOL    HW121695   6.096   2.133   0.403  0.6051 -3.0283  1.7057
 6932SOL    HW221696   6.218   2.155   0.510  0.3542  1.1951  1.2926
 6933SOL     OW21697   3.290   6.859   5.205  0.0378 -0.6367 -0.3047
 6933SOL    HW121698   3.272   6.766   5.238  0.0928 -0.6797 -0.3930
 6933SOL    HW221699   3.228   6.880   5.129 -1.0878 -0.0031  0.7584
 6934SOL     OW21700   2.963   0.888   6.598 -0.3291  0.5228  0.6068
 6934SOL    HW121701   2.883   0.832   6.620 -0.7214  0.4916 -0.7819
 6934SOL    HW221702   2.948   0.934   6.511  1.5498 -0.2555 -0.1914
 6935SOL     OW21703   4.972   5.019   1.643 -0.1574  0.4464  0.6590
 6935SOL    HW121704   4.937   4.957   1.573  0.3321 -1.2650  1.8420
 6935SOL    HW221705   4.924   5.106   1.638 -1.9538 -0.5352 -0.1336
 6936SOL     OW21706   0.918   0.852   6.497  0.2997 -0.3844 -0.1165
 6936SOL    HW121707   0.938   0.872   6.593 -0.6568 -0.3748  0.0942
 6936SOL    HW221708   0.987   0.896   6.439  0.0517  0.8817  0.4979
 6937SOL     OW21709   0.566   3.133   0.527  0.3366  0.4850 -0.1314
 6937SOL    HW121710   0.659   3.097   0.521  0.0160 -0.3978  0.0202
 6937SOL    HW221711   0.508   3.087   0.460 -0.1994  0.3586  0.4063
 6938SOL     OW21712   2.446   6.154   4.776 -0.1244 -0.5095 -0.2445
 6938SOL    HW121713   2.397   6.241   4.771 -1.7012 -1.4177 -1.4022
 6938SOL    HW221714   2.418   6.095   4.700 -1.1083 -3.0388  1.9262
 6939SOL     OW21715   1.802   4.011   3.922 -0.0784 -0.2413  0.2025
 6939SOL    HW121716   1.823   3.994   4.018  1.1515 -0.8616 -0.1550
 6939SOL    HW221717   1.824   4.106   3.899 -1.1988  0.1667  0.7208
 6940SOL     OW21718   0.503   5.778   1.366  0.8436  0.0776  0.1897
 6940SOL    HW121719   0.592   5.767   1.410  0.9502 -2.9394 -0.5343
 6940SOL    HW221720   0.484   5.697   1.310 -1.8948  1.1233 -0.5282
 6941SOL     OW21721   3.003   3.820   2.315  0.5048 -0.2238 -0.3824
 6941SOL    HW121722   2.945   3.895   2.285 -0.6964 -1.2120 -0.5993
 6941SOL    HW221723   3.013   3.754   2.241 -1.6685 -2.1916  0.9513
 6942SOL     OW21724   1.650   4.757   2.217  0.1235  0.0628 -0.1843
 6942SOL    HW121725   1.669   4.771   2.120 -1.8714 -0.3160 -0.6859
 6942SOL    HW221726   1.633   4.845   2.261  1.5779  0.2832 -0.0253
 6943SOL     OW21727   4.048   5.028   5.063  0.3811 -0.3477 -0.2280
 6943SOL    HW121728   4.085   4.981   4.983 -1.8610  1.8758 -2.7606
 6943SOL    HW221729   3.951   5.004   5.074 -0.3656  2.1931 -0.5792
 6944SOL     OW21730   6.987   4.211   5.557  0.2119 -0.4831  0.2208
 6944SOL    HW121731   7.067   4.203   5.616 -0.3527 -0.9251  0.9387
 6944SOL    HW221732   6.940   4.297   5.576 -0.2544 -0.8586  0.7812
 6945SOL     OW21733   3.170   1.623   2.524 -0.1436  0.2642  0.4719
 6945SOL    HW121734   3.234   1.648   2.452 -0.3279  0.7966  0.4914
 6945SOL    HW221735   3.132   1.705   2.567 -2.1961  0.0304 -0.7434
 6946SOL     OW21736   4.032   5.431   3.530 -0.4463  0.2926 -0.7849
 6946SOL    HW121737   4.008   5.415   3.626  1.2887 -0.3725 -0.4379
 6946SOL    HW221738   4.036   5.529   3.513  0.3576  0.4326  0.1375
 6947SOL     OW21739   2.110   2.190   3.868 -0.0023  0.9528  0.0807
 6947SOL    HW121740   2.176   2.174   3.795 -1.4515 -0.2772 -1.0366
 6947SOL    HW221741   2.037   2.121   3.862 -0.1591  0.8122  2.7129
 6948SOL     OW21742   0.859   3.170   0.448  0.2916  0.5518  0.6222
 6948SOL    HW121743   0.911   3.256   0.444  0.8249  0.2685  1.3213
 6948SOL    HW221744   0.922   3.093   0.459  0.0083 -0.1897 -2.1310
 6949SOL     OW21745   1.052   2.260   3.487 -0.0487  0.2106 -0.1762
 6949SOL    HW121746   1.058   2.319   3.567 -0.8739  0.9384 -0.6284
 6949SOL    HW221747   1.028   2.167   3.516  3.4606 -0.5238  0.7408
 6950SOL     OW21748   0.874   1.861   3.782 -0.1296  0.3059 -0.1670
 6950SOL    HW121749   0.839   1.775   3.747  1.5344 -0.2091 -0.6552
 6950SOL    HW221750   0.843   1.874   3.877 -0.1863 -0.9540 -0.0008
 6951SOL     OW21751   1.400   1.350   5.338 -0.6245 -0.1800  0.4686
 6951SOL    HW121752   1.451   1.428   5.301 -1.6738  0.6729  0.7535
 6951SOL    HW221753   1.420   1.269   5.283  1.2097  0.0429  0.7272
 6952SOL     OW21754   3.569   4.181   6.237 -0.0743  0.1515 -0.1077
 6952SOL    HW121755   3.497   4.153   6.301  3.4617 -2.5084  3.1584
 6952SOL    HW221756   3.612   4.265   6.270 -1.2255  1.5034 -1.8282
 6953SOL     OW21757   1.494   2.395   1.241  0.0281 -0.2954 -0.7296
 6953SOL    HW121758   1.564   2.379   1.310 -1.9094 -1.9272  0.9964
 6953SOL    HW221759   1.422   2.453   1.279 -1.1139 -1.2777 -1.3241
 6954SOL     OW21760   6.768   4.146   5.844  0.3199 -0.5671 -0.5307
 6954SOL    HW121761   6.809   4.141   5.753 -1.6851  3.1637 -1.8938
 6954SOL    HW221762   6.802   4.227   5.892  0.8666 -2.1261  1.8515
 6955SOL     OW21763   4.034   6.356   4.776  0.7244 -0.5715 -0.3483
 6955SOL    HW121764   3.983   6.389   4.856 -0.4261 -1.0785 -0.8472
 6955SOL    HW221765   4.123   6.402   4.772 -0.1589  1.2677 -0.1263
 6956SOL     OW21766   0.047   4.733   3.059  0.0155 -0.3228 -0.2986
 6956SOL    HW121767   0.136   4.760   3.094  0.5290 -1.1669 -0.9193
 6956SOL    HW221768   0.039   4.633   3.062 -1.8171 -0.2029  1.9264
 6957SOL     OW21769   5.249   5.038   6.652 -0.0688  0.2946  0.2966
 6957SOL    HW121770   5.184   4.963   6.665 -0.5309  0.7623  0.7435
 6957SOL    HW221771   5.341   5.001   6.641 -0.2717 -0.3338  0.6731
 6958SOL     OW21772   3.499   3.283   1.931  0.2596  0.9785 -0.1207
 6958SOL    HW121773   3.441   3.202   1.938  0.4877  0.7664 -0.6326
 6958SOL    HW221774   3.454   3.360   1.977 -0.1954  0.6919 -0.0788
 6959SOL     OW21775   2.181   2.556   2.682 -0.2329  0.1537 -0.3516
 6959SOL    HW121776   2.106   2.528   2.741  0.7263  2.9193  2.4030
 6959SOL    HW221777   2.235   2.475   2.657 -3.0363 -1.6827 -1.1171
 6960SOL     OW21778   6.734   4.736   1.353 -0.1131 -0.1092 -0.3133
 6960SOL    HW121779   6.748   4.775   1.262  0.3096 -1.0253 -0.6578
 6960SOL    HW221780   6.651   4.680   1.353 -1.8816  2.3571  0.7334
 6961SOL     OW21781   4.607   1.435   4.188 -0.4301 -0.1284  0.2233
 6961SOL    HW121782   4.658   1.422   4.273  0.2945  0.5203 -0.0993
 6961SOL    HW221783   4.533   1.368   4.183  0.5132 -1.2399  0.6164
 6962SOL     OW21784   2.420   1.586   6.449 -0.3522 -0.3108 -0.2375
 6962SOL    HW121785   2.487   1.576   6.375 -1.0963  0.0361 -0.9852
 6962SOL    HW221786   2.422   1.680   6.483 -0.2491 -0.3812 -0.0467
 6963SOL     OW21787   6.185   6.352   0.454 -0.0571 -0.1298 -0.1098
 6963SOL    HW121788   6.228   6.333   0.365  0.0044  0.2594 -0.1632
 6963SOL    HW221789   6.087   6.331   0.448 -0.0437 -0.1563 -0.2535
 6964SOL     OW21790   1.818   0.786   2.932  1.0563 -0.3023 -0.0743
 6964SOL    HW121791   1.914   0.811   2.917  0.7591  0.4302 -0.8350
 6964SOL    HW221792   1.782   0.744   2.848  0.3335  0.6751 -0.2599
 6965SOL     OW21793   0.540   1.708   0.906  0.2071 -0.3382 -0.1213
 6965SOL    HW121794   0.609   1.778   0.922  0.2193 -0.3252 -0.2312
 6965SOL    HW221795   0.576   1.637   0.845  0.1473 -0.3666 -0.1244
 6966SOL     OW21796   0.478   5.838   1.052 -0.5068  0.1168  0.1156
 6966SOL    HW121797   0.381   5.814   1.054 -0.3951 -0.3305  0.1823
 6966SOL    HW221798   0.530   5.769   1.103 -0.0357 -0.2008 -0.7882
 6967SOL     OW21799   3.548   2.024   0.277 -0.0035 -0.3222  0.1843
 6967SOL    HW121800   3.504   1.934   0.267 -1.5643  0.3775  0.5593
 6967SOL    HW221801   3.527   2.062   0.367 -1.5519  1.5537 -0.9115
 6968SOL     OW21802   3.441   5.943   0.369 -0.1285 -0.2597  0.2157
 6968SOL    HW121803   3.385   6.019   0.405 -2.2700 -0.7311 -1.9055
 6968SOL    HW221804   3.436   5.866   0.432  2.0376  1.2198  2.3877
 6969SOL     OW21805   0.866   2.936   3.000 -0.0664  0.0877  0.2909
 6969SOL    HW121806   0.958   2.935   3.041  0.0980 -1.8189 -0.0056
 6969SOL    HW221807   0.874   2.935   2.901 -0.3459 -1.4145  0.2540
 6970SOL     OW21808   0.957   5.080   6.366 -0.5256 -0.2798 -0.2653
 6970SOL    HW121809   1.045   5.117   6.396 -0.4582 -0.0203 -0.7646
 6970SOL    HW221810   0.914   5.145   6.304 -0.9067 -0.5658 -0.2997
 6971SOL     OW21811   6.053   3.770   0.716  0.2989  0.5746 -0.3092
 6971SOL    HW121812   6.083   3.684   0.674 -1.4068  0.2132 -0.8712
 6971SOL    HW221813   5.999   3.822   0.650  0.7157  1.7676  0.2618
 6972SOL     OW21814   6.988   3.434   6.533  0.2468  0.3852 -0.0515
 6972SOL    HW121815   6.994   3.496   6.611 -1.9124 -0.3021  0.7354
 6972SOL    HW221816   6.894   3.433   6.499  0.5310 -1.4602 -0.8674
 6973SOL     OW21817   1.924   2.892   1.893  0.2597  0.0058  0.4498
 6973SOL    HW121818   1.832   2.877   1.930 -0.1426  1.3851  0.0849
 6973SOL    HW221819   1.971   2.805   1.884 -1.0054 -0.7261  0.6683
 6974SOL     OW21820   3.452   3.817   2.686  0.4944  0.1306  0.3696
 6974SOL    HW121821   3.506   3.810   2.770  0.0484  0.0088  0.6483
 6974SOL    HW221822   3.356   3.830   2.709  0.4390  0.6113 -0.1284
 6975SOL     OW21823   2.348   5.751   6.514 -0.5535 -1.1304 -0.0765
 6975SOL    HW121824   2.391   5.679   6.568  3.0708  0.6123 -0.2572
 6975SOL    HW221825   2.321   5.826   6.574  0.7110 -0.4526 -0.3086
 6976SOL     OW21826   2.884   5.475   5.776  0.4057  0.0270 -0.0307
 6976SOL    HW121827   2.815   5.547   5.772 -0.0765 -0.4087  0.2045
 6976SOL    HW221828   2.849   5.393   5.730  0.6750 -0.2762  0.2997
 6977SOL     OW21829   3.213   5.211   1.528  0.1504  0.3197  0.1941
 6977SOL    HW121830   3.116   5.232   1.540  0.3211  1.5933 -0.3789
 6977SOL    HW221831   3.233   5.120   1.563 -1.3995 -0.2626 -0.3537
 6978SOL     OW21832   6.652   3.407   6.705  0.7520  0.1733  0.0678
 6978SOL    HW121833   6.637   3.310   6.720  1.5688  0.0302 -0.0116
 6978SOL    HW221834   6.687   3.449   6.789  1.6403  0.1332 -0.2683
 6979SOL     OW21835   1.235   3.415   2.645 -0.4602 -0.2775 -0.1135
 6979SOL    HW121836   1.283   3.477   2.706 -1.9578  0.4101  0.4049
 6979SOL    HW221837   1.295   3.337   2.623  0.4729 -0.0240  1.3839
 6980SOL     OW21838   2.787   4.604   1.510  0.4965  0.1984 -0.0523
 6980SOL    HW121839   2.831   4.520   1.544 -1.1163 -0.7547 -0.2393
 6980SOL    HW221840   2.819   4.682   1.564  1.4603 -0.6232  0.6150
 6981SOL     OW21841   3.486   2.232   0.930 -0.2037 -0.3314 -0.4606
 6981SOL    HW121842   3.577   2.272   0.942  0.0304 -1.0907  0.5035
 6981SOL    HW221843   3.421   2.303   0.906 -0.1840  1.0679  3.0009
 6982SOL     OW21844   0.631   6.486   3.632  0.4104  0.0496  0.2548
 6982SOL    HW121845   0.678   6.402   3.606  0.4833 -0.3891  1.7040
 6982SOL    HW221846   0.532   6.470   3.634  0.3502  0.3126 -0.5329
 6983SOL     OW21847   6.484   6.199   2.240  0.0814  0.2893  0.1985
 6983SOL    HW121848   6.537   6.284   2.236  0.4757  0.0543  0.2744
 6983SOL    HW221849   6.391   6.218   2.269 -0.0699  0.8054 -0.5966
 6984SOL     OW21850   2.305   4.353   3.187 -0.0041  0.3924 -0.1122
 6984SOL    HW121851   2.305   4.254   3.174  0.3209  0.0824  1.8681
 6984SOL    HW221852   2.230   4.394   3.136 -0.7183 -0.9961 -0.2180
 6985SOL     OW21853   0.045   1.895   0.719 -0.0671 -0.4219  0.0202
 6985SOL    HW121854   0.120   1.911   0.784 -0.1825 -0.5128  0.1751
 6985SOL    HW221855   0.040   1.972   0.655  0.2518 -0.4831 -0.0802
 6986SOL     OW21856   3.437   5.733   5.557 -0.8893  0.0463  0.2684
 6986SOL    HW121857   3.520   5.787   5.544 -1.1183  0.2735 -0.2929
 6986SOL    HW221858   3.455   5.638   5.533 -1.0447  0.2781 -0.8013
 6987SOL     OW21859   2.340   2.108   0.090 -0.4896 -0.5491  0.3486
 6987SOL    HW121860   2.272   2.138   0.022 -0.4283 -1.7928 -0.2854
 6987SOL    HW221861   2.369   2.015   0.069 -0.0549 -0.7546  1.7861
 6988SOL     OW21862   1.576   6.532   6.625 -0.7930 -0.3976  0.0055
 6988SOL    HW121863   1.669   6.569   6.622  0.7183 -3.8037 -0.0834
 6988SOL    HW221864   1.510   6.607   6.621  1.8976  2.2576  1.4009
 6989SOL     OW21865   6.094   2.618   2.269 -0.3124  0.2863 -0.5578
 6989SOL    HW121866   6.186   2.579   2.268  0.7414  2.5927 -0.6073
 6989SOL    HW221867   6.061   2.628   2.176 -0.6944 -0.6601 -0.5351
 6990SOL     OW21868   3.490   5.158   6.199  0.1377  0.0191 -0.0599
 6990SOL    HW121869   3.391   5.155   6.206  0.1725 -0.7334  0.1522
 6990SOL    HW221870   3.516   5.204   6.114 -0.3781  0.6824  0.1273
 6991SOL     OW21871   6.861   6.122   4.522  0.3289  0.4594  0.3898
 6991SOL    HW121872   6.777   6.126   4.469  0.3362  0.9412  0.4117
 6991SOL    HW221873   6.839   6.102   4.618  0.0285  2.7537  0.8570
 6992SOL     OW21874   6.102   4.996   5.100 -0.0497 -0.3640 -0.2211
 6992SOL    HW121875   6.158   5.038   5.171 -2.0287  0.3176  1.0008
 6992SOL    HW221876   6.023   4.951   5.141  0.6535 -3.2204 -1.6894
 6993SOL     OW21877   5.380   2.596   2.006  0.5341  0.0610  0.2814
 6993SOL    HW121878   5.392   2.527   2.077 -1.2394 -0.2881  0.2866
 6993SOL    HW221879   5.424   2.566   1.922  0.8601 -0.4839  0.6456
 6994SOL     OW21880   3.822   0.159   2.404 -0.3859 -0.1224 -0.4883
 6994SOL    HW121881   3.900   0.109   2.441 -0.0517  0.6447 -0.1482
 6994SOL    HW221882   3.776   0.209   2.477 -1.3910 -0.8028 -0.6254
 6995SOL     OW21883   5.109   5.477   6.052 -0.8213  0.3467 -0.1725
 6995SOL    HW121884   5.100   5.379   6.063  2.0386 -0.1621 -1.4593
 6995SOL    HW221885   5.151   5.497   5.963 -1.2019  2.7209  0.1123
 6996SOL     OW21886   1.194   0.719   0.923 -0.1880  0.0316  0.2787
 6996SOL    HW121887   1.234   0.654   0.988  1.5020  0.3603 -0.3694
 6996SOL    HW221888   1.268   0.768   0.876 -1.3863  2.4022  0.7205
 6997SOL     OW21889   6.145   6.374   5.302  0.6181 -0.0054  0.0119
 6997SOL    HW121890   6.074   6.410   5.362  0.7688  3.4712 -1.6219
 6997SOL    HW221891   6.146   6.274   5.307 -2.1713 -0.0424  2.4847
 6998SOL     OW21892   6.265   1.229   6.865 -0.3584 -0.3703 -0.2576
 6998SOL    HW121893   6.235   1.157   6.928 -1.5534 -0.7425 -1.1973
 6998SOL    HW221894   6.307   1.303   6.916  0.8065 -1.6850  0.7475
 6999SOL     OW21895   0.566   2.837   0.188  0.3947 -0.0743  0.6576
 6999SOL    HW121896   0.475   2.847   0.147  1.5819 -1.1323 -2.6283
 6999SOL    HW221897   0.617   2.922   0.177  0.4594 -0.1224  0.5782
 7000SOL     OW21898   2.936   4.617   1.260  1.0819 -0.7962 -0.1284
 7000SOL    HW121899   2.878   4.621   1.341  0.5117  2.2086 -0.5804
 7000SOL    HW221900   3.009   4.685   1.268  0.4889  0.1862 -2.5026
 7001SOL     OW21901   0.900   0.492   4.384 -0.5557 -0.0575 -0.1225
 7001SOL    HW121902   0.892   0.407   4.436  1.2664 -1.0677 -1.3607
 7001SOL    HW221903   0.844   0.562   4.426 -0.2687 -1.1951  2.3520
 7002SOL     OW21904   0.118   4.064   2.506  0.3439 -0.1381  0.0511
 7002SOL    HW121905   0.085   3.969   2.500  1.2206 -0.4167 -0.6040
 7002SOL    HW221906   0.069   4.120   2.439 -0.6700  0.0375  0.9145
 7003SOL     OW21907   0.677   4.637   0.765 -0.1091  0.4495 -0.2651
 7003SOL    HW121908   0.593   4.691   0.773 -0.1793  0.3068 -0.0129
 7003SOL    HW221909   0.733   4.650   0.847 -0.5973 -0.6502  0.2661
 7004SOL     OW21910   1.172   1.409   0.784 -0.2556  0.3054 -0.1965
 7004SOL    HW121911   1.187   1.405   0.883 -2.1405 -0.9610  0.0979
 7004SOL    HW221912   1.096   1.471   0.764 -1.2046 -0.9511 -0.6298
 7005SOL     OW21913   2.911   4.446   1.047  0.1554  0.1472  0.1373
 7005SOL    HW121914   3.005   4.417   1.024  0.5086  2.0042 -0.9874
 7005SOL    HW221915   2.913   4.503   1.128  0.0559  0.4902 -0.1000
 7006SOL     OW21916   2.821   1.673   3.502  0.0874  0.0795  0.3202
 7006SOL    HW121917   2.853   1.710   3.415  0.4814  0.9341  0.8082
 7006SOL    HW221918   2.818   1.747   3.570 -0.6976 -0.4701  0.8962
 7007SOL     OW21919   0.097   6.860   6.526 -0.4477  0.2263 -0.5685
 7007SOL    HW121920   0.150   6.944   6.511 -0.1490  0.0081 -0.7376
 7007SOL    HW221921  -0.001   6.882   6.528 -0.3877  0.5394 -0.9107
 7008SOL     OW21922   5.764   2.333   1.079  0.5155  0.0745  0.8482
 7008SOL    HW121923   5.794   2.416   1.126 -2.0690  0.5124  1.8993
 7008SOL    HW221924   5.754   2.259   1.145 -1.4589  0.2076  0.7675
 7009SOL     OW21925   5.772   5.197   2.362  0.4176  0.3490  0.5174
 7009SOL    HW121926   5.865   5.162   2.373 -0.2819 -0.9412  3.1644
 7009SOL    HW221927   5.773   5.297   2.371  1.6919  0.5004 -0.9456
 7010SOL     OW21928   4.814   1.214   3.310  0.0157 -0.1196  0.3751
 7010SOL    HW121929   4.878   1.247   3.379  0.4952 -0.6511  0.1945
 7010SOL    HW221930   4.849   1.129   3.270 -0.0055  0.4369 -0.8832
 7011SOL     OW21931   1.056   5.276   0.346  0.1467  0.6140 -0.6915
 7011SOL    HW121932   0.997   5.313   0.274 -0.1073  0.6808 -0.4483
 7011SOL    HW221933   1.056   5.176   0.341 -0.2526  0.6038 -0.4766
 7012SOL     OW21934   2.911   4.758   6.983  0.5865 -0.2247  0.5609
 7012SOL    HW121935   2.992   4.814   6.967 -1.8690  3.7901  0.7994
 7012SOL    HW221936   2.878   4.773   7.076 -1.9934  0.5815 -0.4019
 7013SOL     OW21937   1.344   3.008   6.454 -0.5496 -0.1664 -0.2277
 7013SOL    HW121938   1.435   2.970   6.471  0.3045  0.9036 -2.1109
 7013SOL    HW221939   1.274   2.941   6.480  0.8095 -1.5936 -0.1267
 7014SOL     OW21940   0.147   3.948   1.591 -0.0591  0.7228  0.2182
 7014SOL    HW121941   0.120   3.860   1.552  2.5907  0.0594 -0.2840
 7014SOL    HW221942   0.179   3.934   1.685 -0.8596  1.3981  0.6065
 7015SOL     OW21943   6.777   1.790   1.621  0.3994 -0.3854 -0.0146
 7015SOL    HW121944   6.809   1.842   1.542 -0.2673 -0.4347 -0.3233
 7015SOL    HW221945   6.855   1.755   1.672  0.8441  0.2739 -0.2317
 7016SOL     OW21946   3.211   5.657   0.994 -0.3957  0.6351 -0.1440
 7016SOL    HW121947   3.271   5.714   1.049 -0.5288  0.3693  0.2878
 7016SOL    HW221948   3.206   5.692   0.901  1.6224 -0.2065 -0.6108
 7017SOL     OW21949   6.485   4.460   0.646 -0.1467 -0.2932 -0.2587
 7017SOL    HW121950   6.578   4.431   0.669  0.5971  1.3931 -0.9766
 7017SOL    HW221951   6.455   4.528   0.713  0.2307  1.1911 -1.5469
 7018SOL     OW21952   0.524   3.470   4.531 -0.4572  0.4091  0.3954
 7018SOL    HW121953   0.439   3.426   4.502 -0.8799  1.6039 -0.2506
 7018SOL    HW221954   0.593   3.459   4.460  0.0078 -0.7121  0.9943
 7019SOL     OW21955   3.630   6.796   2.209  0.6096  0.7108 -0.6993
 7019SOL    HW121956   3.720   6.785   2.165  1.6252  0.6107  1.3080
 7019SOL    HW221957   3.630   6.877   2.267  0.8114 -1.3457  2.4094
 7020SOL     OW21958   6.372   3.029   6.606  0.2237 -0.3128 -0.0518
 7020SOL    HW121959   6.299   3.009   6.671 -1.4992  1.6014 -1.2835
 7020SOL    HW221960   6.391   2.948   6.551 -0.9575 -0.8592  0.3217
 7021SOL     OW21961   1.229   3.285   3.846 -0.3314 -0.7372  0.3230
 7021SOL    HW121962   1.132   3.271   3.828 -0.4185  1.4071 -1.2439
 7021SOL    HW221963   1.252   3.381   3.832  2.0181 -1.1719  0.7792
 7022SOL     OW21964   1.038   3.504   1.606  0.0270 -0.1911  0.1440
 7022SOL    HW121965   1.069   3.540   1.694 -0.7885  1.4830 -0.2144
 7022SOL    HW221966   0.996   3.414   1.619 -1.5513  0.7207  1.7459
 7023SOL     OW21967   0.283   1.914   0.502 -0.1450 -0.5456 -0.2081
 7023SOL    HW121968   0.206   1.856   0.473 -0.6252 -0.1236  0.2124
 7023SOL    HW221969   0.249   1.989   0.557  0.3898  0.5190 -1.2752
 7024SOL     OW21970   2.633   5.227   4.944 -0.5077  0.1255  0.3841
 7024SOL    HW121971   2.609   5.306   5.001 -1.7859 -0.3473  0.5440
 7024SOL    HW221972   2.600   5.143   4.988  0.8811 -0.5245  0.2478
 7025SOL     OW21973   3.596   1.907   1.558  0.3406 -0.2188  0.1447
 7025SOL    HW121974   3.629   1.850   1.633  1.2916 -1.0092 -0.8302
 7025SOL    HW221975   3.524   1.858   1.508  1.2038 -0.6249 -0.7350
 7026SOL     OW21976   3.443   3.539   1.314 -0.2035 -0.1869  0.1769
 7026SOL    HW121977   3.357   3.498   1.342 -1.2380  0.5596 -1.7238
 7026SOL    HW221978   3.480   3.594   1.389 -0.9922 -1.0841  1.2574
 7027SOL     OW21979   4.126   5.211   6.162 -0.2853 -0.0244 -0.3775
 7027SOL    HW121980   4.158   5.190   6.255 -0.7161 -1.5623 -0.5572
 7027SOL    HW221981   4.029   5.191   6.155  0.2238 -2.2510 -1.7984
 7028SOL     OW21982   2.749   0.386   1.249 -0.0133  0.1602 -0.2731
 7028SOL    HW121983   2.796   0.377   1.162 -0.4945  0.5832 -0.5803
 7028SOL    HW221984   2.701   0.300   1.270  0.4174 -0.0717 -0.2358
 7029SOL     OW21985   3.890   4.050   4.572  0.7951  0.7542 -0.8501
 7029SOL    HW121986   3.890   4.064   4.671  0.2056  0.4081 -0.7959
 7029SOL    HW221987   3.934   3.963   4.550 -1.0332 -0.2636 -0.7042
 7030SOL     OW21988   6.616   5.709   0.071  0.3938  0.6982 -0.5409
 7030SOL    HW121989   6.615   5.724  -0.028  3.6986  1.3969 -0.5944
 7030SOL    HW221990   6.629   5.612   0.090 -1.8026  0.3309 -0.6882
 7031SOL     OW21991   5.147   3.567   1.347 -0.2236  0.3581  0.1783
 7031SOL    HW121992   5.090   3.492   1.383 -0.1739 -1.2979 -2.8266
 7031SOL    HW221993   5.243   3.540   1.352 -0.1674  0.4436 -0.4227
 7032SOL     OW21994   3.363   5.673   4.656 -0.4362 -0.1311 -0.1473
 7032SOL    HW121995   3.370   5.703   4.561 -0.5301  1.7627  0.3865
 7032SOL    HW221996   3.452   5.683   4.701 -0.3910 -1.0222 -0.0187
 7033SOL     OW21997   1.829   0.552   6.034 -0.6306 -0.1284 -0.3893
 7033SOL    HW121998   1.783   0.475   6.079 -1.1879  0.1881 -0.4056
 7033SOL    HW221999   1.913   0.574   6.084 -2.2681  1.5780  1.8651
 7034SOL     OW22000   6.339   2.757   3.543 -0.6145 -0.1131  0.2069
 7034SOL    HW122001   6.381   2.752   3.633 -1.4474 -1.1901  0.5643
 7034SOL    HW222002   6.273   2.832   3.540 -0.3025  0.1650  0.3676
 7035SOL     OW22003   3.374   4.428   6.723 -0.3476  0.1569  0.1759
 7035SOL    HW122004   3.323   4.514   6.712 -1.8420 -0.8367 -1.1983
 7035SOL    HW222005   3.419   4.405   6.636  1.7913  0.5545  1.1181
 7036SOL     OW22006   6.801   2.836   2.328 -0.3251  0.4353 -0.0315
 7036SOL    HW122007   6.805   2.901   2.252 -2.0856  1.1354  0.4402
 7036SOL    HW222008   6.882   2.848   2.386 -0.0222  1.3683 -0.6238
 7037SOL     OW22009   1.308   1.373   4.229  0.0765 -0.0495 -0.4439
 7037SOL    HW122010   1.325   1.304   4.158 -0.2949  0.5728 -1.1598
 7037SOL    HW222011   1.321   1.464   4.190  0.4347  0.2938  0.4581
 7038SOL     OW22012   2.004   4.041   2.290  0.0801 -0.6774 -0.7651
 7038SOL    HW122013   1.953   4.125   2.309  0.8907  0.2251 -2.3023
 7038SOL    HW222014   1.941   3.971   2.256 -0.7174 -0.9761  1.2063
 7039SOL     OW22015   0.007   6.598   2.724 -0.1695  0.2993 -0.1198
 7039SOL    HW122016   0.095   6.638   2.750  0.7653 -0.8517 -1.3590
 7039SOL    HW222017   0.016   6.499   2.718 -1.8944  0.0326  0.9053
 7040SOL     OW22018   4.904   2.646   4.807  0.0626  0.3384  0.1902
 7040SOL    HW122019   4.864   2.738   4.813  1.1196  0.8485 -0.2382
 7040SOL    HW222020   4.833   2.578   4.822 -0.8418  1.2178  0.0588
 7041SOL     OW22021   2.618   6.904   1.962 -0.0669  0.1156  0.0035
 7041SOL    HW122022   2.677   6.896   1.882 -1.2655  0.3724 -0.9317
 7041SOL    HW222023   2.669   6.946   2.037  0.9592  0.2374 -0.7413
 7042SOL     OW22024   5.821   6.339   0.172 -0.4217  0.3233  0.1249
 7042SOL    HW122025   5.730   6.313   0.139 -0.2391  1.0510 -0.9676
 7042SOL    HW222026   5.883   6.261   0.163 -0.3486  0.5328 -1.3677
 7043SOL     OW22027   1.739   6.960   0.136  0.8046  0.1231 -0.2807
 7043SOL    HW122028   1.785   6.976   0.223  0.5197  1.6353 -0.3867
 7043SOL    HW222029   1.716   6.863   0.128 -0.6291  0.1899  2.0738
 7044SOL     OW22030   5.161   6.632   6.748  0.3842  0.1654  0.7873
 7044SOL    HW122031   5.170   6.678   6.660  0.2571 -1.8916 -0.3680
 7044SOL    HW222032   5.245   6.644   6.801  1.0087  0.2656 -0.2102
 7045SOL     OW22033   0.302   0.087   0.617 -0.0845 -0.0479 -0.2884
 7045SOL    HW122034   0.367   0.018   0.585 -1.6696 -0.7520 -2.1650
 7045SOL    HW222035   0.240   0.111   0.543 -1.5425  1.1136  1.2410
 7046SOL     OW22036   3.244   2.143   2.999  0.0497 -0.4579  0.1634
 7046SOL    HW122037   3.168   2.191   2.955 -0.6434  1.2297  2.9018
 7046SOL    HW222038   3.322   2.139   2.937 -0.9167  1.5320 -1.2937
 7047SOL     OW22039   0.907   0.437   1.597 -0.4975  0.2278  0.4719
 7047SOL    HW122040   0.843   0.366   1.627 -1.0221  0.0504 -1.0083
 7047SOL    HW222041   0.925   0.427   1.500  2.7253 -0.4250  1.0316
 7048SOL     OW22042   6.077   5.843   6.468 -0.4594 -0.7199  0.2600
 7048SOL    HW122043   6.027   5.845   6.381  1.1602 -0.1111 -0.7052
 7048SOL    HW222044   6.056   5.758   6.517 -0.6935 -1.5102 -1.1577
 7049SOL     OW22045   0.957   5.659   2.958 -0.3037 -0.2500  0.0745
 7049SOL    HW122046   0.899   5.599   3.013  2.5290 -2.5842  0.7613
 7049SOL    HW222047   1.004   5.724   3.017  0.5160 -0.8280  0.0858
 7050SOL     OW22048   3.878   4.581   1.138 -0.0574  0.3582  0.2233
 7050SOL    HW122049   3.813   4.566   1.063  0.8367  1.1857 -0.7477
 7050SOL    HW222050   3.844   4.654   1.198  0.4603  1.5536 -0.8985
 7051SOL     OW22051   2.512   1.449   6.694  0.2249 -0.7896  0.1756
 7051SOL    HW122052   2.494   1.483   6.602 -0.6779 -0.6484  0.3933
 7051SOL    HW222053   2.428   1.455   6.749  0.7085 -1.0206  0.9582
 7052SOL     OW22054   5.797   1.056   3.747 -0.0636 -0.4026  0.2662
 7052SOL    HW122055   5.881   1.111   3.757  0.1916 -0.8485  0.5852
 7052SOL    HW222056   5.735   1.077   3.822 -0.3285  0.0646 -0.0689
 7053SOL     OW22057   1.086   5.120   2.740 -0.4648 -0.7512 -0.5441
 7053SOL    HW122058   1.095   5.216   2.713  0.5920 -1.3952 -2.7182
 7053SOL    HW222059   1.048   5.067   2.664 -0.5088 -2.1429  0.4131
 7054SOL     OW22060   4.098   5.487   1.985 -0.5098 -0.1862  0.3125
 7054SOL    HW122061   4.095   5.443   1.896 -0.3204 -0.0832  0.2553
 7054SOL    HW222062   4.089   5.418   2.057 -1.2844 -0.2038  0.2048
 7055SOL     OW22063   3.724   1.387   0.343 -0.0229  0.3705 -0.9406
 7055SOL    HW122064   3.630   1.361   0.365 -0.1858  2.7162  1.6474
 7055SOL    HW222065   3.787   1.330   0.396  0.1721 -1.6555 -3.1623
 7056SOL     OW22066   0.058   4.602   0.653  0.0249 -0.1955 -0.4305
 7056SOL    HW122067   0.114   4.552   0.587 -0.3792 -1.2256 -0.0091
 7056SOL    HW222068  -0.007   4.540   0.696 -0.0890  0.5714  0.5502
 7057SOL     OW22069   1.710   5.843   3.452  0.6687  0.2750  0.5294
 7057SOL    HW122070   1.710   5.807   3.359  1.2486  1.2713  0.1204
 7057SOL    HW222071   1.804   5.841   3.488  0.3005 -1.0717  1.5050
 7058SOL     OW22072   6.761   3.862   4.387 -0.0506  0.3998 -0.0114
 7058SOL    HW122073   6.861   3.865   4.390  0.0029 -0.4525 -0.6930
 7058SOL    HW222074   6.731   3.780   4.339 -1.1053 -0.3804  1.8856
 7059SOL     OW22075   0.800   6.738   2.534 -0.2134 -0.4612  0.2704
 7059SOL    HW122076   0.739   6.793   2.478  0.2596 -0.0586  0.1534
 7059SOL    HW222077   0.745   6.675   2.590 -0.6702 -1.1680 -0.9344
 7060SOL     OW22078   4.593   3.907   0.065 -0.2430  0.1291  0.1924
 7060SOL    HW122079   4.509   3.864   0.098 -0.2605 -0.3071 -0.4093
 7060SOL    HW222080   4.628   3.969   0.135 -1.8022  1.3570 -0.0530
 7061SOL     OW22081   1.633   0.403   6.675 -0.5073  0.4709 -0.4297
 7061SOL    HW122082   1.686   0.359   6.747 -0.3986  0.6218 -0.4177
 7061SOL    HW222083   1.581   0.334   6.625 -1.8506  0.5072  0.8294
 7062SOL     OW22084   4.398   0.220   5.759  0.5877  0.0605  0.3042
 7062SOL    HW122085   4.389   0.137   5.705 -2.5969  0.4325  0.0423
 7062SOL    HW222086   4.444   0.290   5.705  0.2959 -0.5402 -0.7490
 7063SOL     OW22087   0.032   0.527   6.952  0.1160 -0.5081 -0.2765
 7063SOL    HW122088   0.022   0.484   7.042  1.5761 -1.5008 -0.5497
 7063SOL    HW222089  -0.056   0.525   6.905 -0.5065 -0.6079  0.8585
 7064SOL     OW22090   2.534   1.995   4.979 -0.0761  0.1196 -0.0904
 7064SOL    HW122091   2.521   2.068   4.912  0.8430 -0.8073 -1.3207
 7064SOL    HW222092   2.445   1.966   5.014 -0.5342  0.9936 -0.4822
 7065SOL     OW22093   2.399   5.795   3.531  0.2973  0.0215  0.4976
 7065SOL    HW122094   2.402   5.702   3.565  0.1651  0.2306  1.1011
 7065SOL    HW222095   2.478   5.846   3.564 -0.2815  0.4688  1.2412
 7066SOL     OW22096   4.556   0.533   1.065 -0.5497  0.2627 -0.5223
 7066SOL    HW122097   4.489   0.484   1.121 -1.6004  0.4003 -1.5850
 7066SOL    HW222098   4.648   0.508   1.092 -0.9900  0.8238  1.6773
 7067SOL     OW22099   2.511   4.553   6.719  0.0490  0.3202 -0.1218
 7067SOL    HW122100   2.506   4.600   6.631 -0.5454 -0.1116 -0.3223
 7067SOL    HW222101   2.507   4.454   6.705  0.4934  0.2299  0.3546
 7068SOL     OW22102   5.808   4.891   3.258  0.0058  0.4211  0.2654
 7068SOL    HW122103   5.853   4.811   3.299  0.7910 -0.0631 -1.4470
 7068SOL    HW222104   5.866   4.971   3.269  0.4206  0.2002 -0.2543
 7069SOL     OW22105   3.585   6.825   1.211 -0.0037 -0.1167 -0.4715
 7069SOL    HW122106   3.514   6.775   1.161 -0.3304 -0.7976  0.6527
 7069SOL    HW222107   3.672   6.777   1.200  0.3118  0.7345 -1.8754
 7070SOL     OW22108   1.621   1.862   5.623  0.4022 -0.2716  0.9684
 7070SOL    HW122109   1.686   1.805   5.672  1.5206 -0.0259 -0.1832
 7070SOL    HW222110   1.667   1.907   5.546 -0.5547  1.7606  1.5047
 7071SOL     OW22111   5.275   5.534   0.282  0.2078  0.0481  0.2497
 7071SOL    HW122112   5.349   5.470   0.261  0.3220  0.0916  0.5145
 7071SOL    HW222113   5.291   5.620   0.233 -1.0103 -0.7968 -1.7211
 7072SOL     OW22114   0.047   1.754   0.406  0.4879  0.4880 -0.0709
 7072SOL    HW122115   0.020   1.844   0.371 -0.0204  1.1783  1.9467
 7072SOL    HW222116   0.085   1.699   0.331  0.1700  2.1122 -1.4947
 7073SOL     OW22117   4.934   0.494   4.965 -0.1355 -0.2276  0.2163
 7073SOL    HW122118   4.898   0.524   5.054  0.9789 -0.2046  0.6725
 7073SOL    HW222119   5.033   0.495   4.968 -0.0774 -1.8318 -0.4927
 7074SOL     OW22120   6.448   1.939   3.464 -0.1810  0.4555 -0.0395
 7074SOL    HW122121   6.479   1.998   3.538  0.0167 -0.6626  0.8008
 7074SOL    HW222122   6.519   1.872   3.443 -0.7987 -0.1449 -0.2571
 7075SOL     OW22123   2.213   4.554   3.430  0.0775  0.1420 -0.3540
 7075SOL    HW122124   2.246   4.460   3.415 -0.1315  0.0015  0.0386
 7075SOL    HW222125   2.273   4.600   3.496 -1.3662 -0.6434  1.6221
 7076SOL     OW22126   6.905   2.398   2.336  0.2675  0.2351 -0.3276
 7076SOL    HW122127   6.980   2.355   2.286 -0.4251 -0.4371 -0.8068
 7076SOL    HW222128   6.854   2.328   2.386  1.3513  0.9665  1.9142
 7077SOL     OW22129   4.368   6.884   1.662  1.0825  0.5763 -0.1541
 7077SOL    HW122130   4.444   6.835   1.704  0.1491 -0.9856 -0.2328
 7077SOL    HW222131   4.361   6.860   1.565  0.9580  1.3261 -0.3434
 7078SOL     OW22132   1.285   2.857   5.466 -0.5593 -0.2978  0.1071
 7078SOL    HW122133   1.274   2.946   5.422 -0.6676 -0.1890  0.3491
 7078SOL    HW222134   1.202   2.837   5.519  0.4158  0.5940  2.0904
 7079SOL     OW22135   2.979   5.681   4.972  0.3698 -0.3551 -0.6393
 7079SOL    HW122136   2.886   5.691   4.935 -0.8341 -0.0892  2.1737
 7079SOL    HW222137   2.993   5.749   5.044  2.1383 -1.4836  0.1337
 7080SOL     OW22138   5.495   2.229   0.933  0.2718  0.2974 -0.1428
 7080SOL    HW122139   5.583   2.193   0.902 -0.4334  0.2181 -2.1402
 7080SOL    HW222140   5.450   2.160   0.991  0.5509 -0.5608 -0.9246
 7081SOL     OW22141   3.205   6.438   6.552  0.0127 -0.1584  0.3605
 7081SOL    HW122142   3.260   6.399   6.478  0.2387  0.4177  0.2212
 7081SOL    HW222143   3.262   6.454   6.632  0.0090  0.2447  0.2862
 7082SOL     OW22144   2.631   4.655   2.967 -0.0496 -0.2051  0.0964
 7082SOL    HW122145   2.606   4.749   2.945 -0.9455 -0.0400  1.7260
 7082SOL    HW222146   2.712   4.654   3.025 -2.0922 -0.1682  3.1361
 7083SOL     OW22147   5.639   2.954   2.588 -0.3695 -0.3152  0.4013
 7083SOL    HW122148   5.579   2.986   2.661 -0.8474 -0.7877  0.2192
 7083SOL    HW222149   5.585   2.911   2.516  0.1689 -0.5909  0.1523
 7084SOL     OW22150   3.577   5.658   1.362  0.4348 -0.4233 -0.6734
 7084SOL    HW122151   3.613   5.575   1.404 -0.3431 -1.1364 -1.3655
 7084SOL    HW222152   3.616   5.668   1.270  1.7707  0.8708 -0.0128
 7085SOL     OW22153   0.808   1.869   1.793  0.0801  0.7611 -0.1312
 7085SOL    HW122154   0.830   1.772   1.805  1.9693  0.9324 -1.6837
 7085SOL    HW222155   0.847   1.921   1.869  0.7946  0.5105 -0.3164
 7086SOL     OW22156   3.669   0.934   2.613 -0.0282 -0.0040 -0.7040
 7086SOL    HW122157   3.629   0.977   2.533 -0.2061 -0.7699 -1.0410
 7086SOL    HW222158   3.622   0.847   2.631  0.3533 -0.0911 -0.0813
 7087SOL     OW22159   5.963   3.731   4.103  0.1713 -0.5049  0.6093
 7087SOL    HW122160   6.059   3.718   4.080  0.5302  0.8290  1.2473
 7087SOL    HW222161   5.951   3.719   4.202 -0.1315  0.3088  0.6740
 7088SOL     OW22162   3.658   1.457   4.860  1.1066  0.2404 -0.1182
 7088SOL    HW122163   3.576   1.495   4.817  0.9912 -0.2293 -0.3146
 7088SOL    HW222164   3.658   1.358   4.851  2.2834  0.3002 -1.2153
 7089SOL     OW22165   4.350   0.943   1.584  0.2025  0.0841 -0.3864
 7089SOL    HW122166   4.317   0.873   1.520 -0.5264  1.0592 -1.1020
 7089SOL    HW222167   4.291   0.944   1.665  0.6135 -0.5747 -0.0751
 7090SOL     OW22168   5.481   1.278   2.803 -0.3388  0.5723  0.0401
 7090SOL    HW122169   5.532   1.260   2.887 -0.1364  2.1093  0.2735
 7090SOL    HW222170   5.489   1.375   2.779 -3.1924  0.9046  0.1168
 7091SOL     OW22171   6.194   0.094   5.944 -0.0721 -0.0125 -0.3420
 7091SOL    HW122172   6.195   0.073   5.846  0.9346 -2.0757  0.0628
 7091SOL    HW222173   6.231   0.186   5.958 -3.4797  1.7974 -2.1122
 7092SOL     OW22174   3.444   1.751   0.229  0.8003 -0.0928 -0.0582
 7092SOL    HW122175   3.393   1.683   0.281  1.0975 -1.6506 -1.6799
 7092SOL    HW222176   3.432   1.734   0.131  2.1089  1.2795 -0.5049
 7093SOL     OW22177   3.120   3.039   1.416  0.0071  0.2818  0.3033
 7093SOL    HW122178   3.163   3.047   1.326 -1.5262 -0.6411 -0.5529
 7093SOL    HW222179   3.186   3.063   1.487  1.7935 -0.6909 -0.9623
 7094SOL     OW22180   4.138   2.250   3.585  0.0388  0.6410  0.1218
 7094SOL    HW122181   4.155   2.293   3.674  0.0947  2.1029 -0.5613
 7094SOL    HW222182   4.073   2.176   3.596 -0.0258  0.8548  1.3688
 7095SOL     OW22183   3.744   5.059   2.887 -0.8237  0.0086  0.6806
 7095SOL    HW122184   3.779   4.984   2.831 -1.4351 -1.5881  2.3492
 7095SOL    HW222185   3.652   5.037   2.918 -1.0687  1.5400  1.0994
 7096SOL     OW22186   5.940   5.436   1.143  0.3330  0.4206  0.1183
 7096SOL    HW122187   5.916   5.522   1.187  0.2349  0.2974  0.3063
 7096SOL    HW222188   5.976   5.454   1.051 -0.2362  0.6237 -0.0696
 7097SOL     OW22189   3.373   2.106   3.305  0.0610  0.2531 -0.6948
 7097SOL    HW122190   3.326   2.112   3.217 -1.0592 -1.7789 -0.2919
 7097SOL    HW222191   3.307   2.119   3.379  0.7055  0.3595 -0.1325
 7098SOL     OW22192   1.039   1.699   2.987  0.3775  0.4869  0.0084
 7098SOL    HW122193   0.983   1.709   2.905  0.9754 -1.4168 -0.6776
 7098SOL    HW222194   1.037   1.785   3.039 -0.2355  1.6544 -1.8356
 7099SOL     OW22195   1.698   0.455   3.404  0.0100  0.1154 -0.0280
 7099SOL    HW122196   1.713   0.451   3.503 -2.6652  0.8882  0.5185
 7099SOL    HW222197   1.707   0.550   3.373 -0.7055  0.1467 -0.1744
 7100SOL     OW22198   6.855   5.417   1.783 -0.6594  0.1128  0.7350
 7100SOL    HW122199   6.925   5.368   1.835  1.4075  0.4246 -1.5741
 7100SOL    HW222200   6.842   5.508   1.823  1.8572  0.8560  0.0716
 7101SOL     OW22201   1.916   1.035   4.992 -0.1074  0.7727 -0.0971
 7101SOL    HW122202   1.901   0.969   4.919  0.2484 -2.6919  2.6936
 7101SOL    HW222203   1.959   1.117   4.954  0.2049 -0.8508 -3.6954
 7102SOL     OW22204   5.709   2.530   2.644  0.0203 -0.2770  0.1139
 7102SOL    HW122205   5.799   2.523   2.602  0.9944 -1.0604  2.1543
 7102SOL    HW222206   5.707   2.611   2.703 -0.2044 -0.8435  0.9038
 7103SOL     OW22207   5.803   3.706   3.288  0.0298  0.1985  0.1940
 7103SOL    HW122208   5.825   3.766   3.365 -0.3628  0.7015 -0.0744
 7103SOL    HW222209   5.833   3.613   3.308  1.1119  0.5787  0.4094
 7104SOL     OW22210   4.856   2.123   3.573 -0.0311 -0.3881 -0.0874
 7104SOL    HW122211   4.858   2.099   3.476 -0.3457  0.7923 -0.4037
 7104SOL    HW222212   4.762   2.145   3.601  0.1281 -0.2527  0.3634
 7105SOL     OW22213   3.933   4.402   1.671  0.3074  0.4068 -0.4103
 7105SOL    HW122214   3.841   4.425   1.701 -0.0294 -2.1708  0.8016
 7105SOL    HW222215   3.999   4.464   1.714 -0.7493  1.3300 -0.0954
 7106SOL     OW22216   2.102   1.691   2.312 -0.0179 -0.4019 -0.1883
 7106SOL    HW122217   2.026   1.746   2.277  0.2508  1.8317  2.4176
 7106SOL    HW222218   2.174   1.686   2.243  0.2169  3.1528 -0.3666
 7107SOL     OW22219   3.808   0.207   6.516 -0.2927 -0.1132  0.4774
 7107SOL    HW122220   3.870   0.284   6.530  1.6711 -1.4872 -0.2661
 7107SOL    HW222221   3.846   0.125   6.558 -1.7016 -0.9895  0.1295
 7108SOL     OW22222   2.328   0.625   0.978  0.0699  0.1291  0.2757
 7108SOL    HW122223   2.281   0.614   1.066 -1.0629  0.3926 -0.2732
 7108SOL    HW222224   2.349   0.721   0.963 -0.1357  0.1420  0.0647
 7109SOL     OW22225   1.699   6.487   5.047 -0.1047 -0.2306  0.1221
 7109SOL    HW122226   1.668   6.471   4.953  1.6749 -3.5165 -0.0216
 7109SOL    HW222227   1.798   6.476   5.052 -0.0971  0.4097  2.3364
 7110SOL     OW22228   1.371   5.414   5.853 -0.1268 -0.2041 -0.1704
 7110SOL    HW122229   1.408   5.390   5.763 -0.5564  0.4804 -0.5360
 7110SOL    HW222230   1.302   5.347   5.880 -1.1202  0.4190 -1.0605
 7111SOL     OW22231   5.493   1.088   4.586 -0.2485 -0.1928 -0.1171
 7111SOL    HW122232   5.403   1.114   4.622 -0.9345 -1.0167 -1.1570
 7111SOL    HW222233   5.507   1.130   4.497  0.2869 -0.2766 -0.0734
 7112SOL     OW22234   0.866   5.269   3.878  0.3185 -0.5645  0.2617
 7112SOL    HW122235   0.932   5.291   3.807 -0.4881  0.7049 -0.1392
 7112SOL    HW222236   0.797   5.206   3.842 -1.2113  1.5671 -0.7901
 7113SOL     OW22237   3.734   0.292   4.912 -0.5925  0.5806 -0.2176
 7113SOL    HW122238   3.696   0.381   4.889 -0.3360  0.5135 -0.9303
 7113SOL    HW222239   3.659   0.227   4.928 -0.8516  0.2232 -2.4852
 7114SOL     OW22240   0.696   3.541   6.586 -0.7462 -0.2167 -0.4857
 7114SOL    HW122241   0.709   3.630   6.630  0.3959 -0.7673  0.3336
 7114SOL    HW222242   0.638   3.552   6.505  1.7028  1.7844 -2.1025
 7115SOL     OW22243   5.168   3.809   0.062  0.1435 -0.0767 -0.0286
 7115SOL    HW122244   5.199   3.714   0.066 -0.1358 -0.1859 -0.4777
 7115SOL    HW222245   5.167   3.840  -0.033  2.1333  1.0054  0.2398
 7116SOL     OW22246   0.214   5.618   6.099 -0.4080 -0.1838  0.1117
 7116SOL    HW122247   0.222   5.525   6.062 -0.8395 -0.1338 -0.1081
 7116SOL    HW222248   0.287   5.675   6.061  0.4968 -0.6824  1.0361
 7117SOL     OW22249   3.428   0.214   2.865 -0.0710 -0.3068 -0.1352
 7117SOL    HW122250   3.501   0.261   2.916 -1.2133  1.0481  0.3001
 7117SOL    HW222251   3.372   0.161   2.929  0.8436 -1.8444 -0.5468
 7118SOL     OW22252   5.929   3.262   5.134 -0.2241 -0.5133 -0.2206
 7118SOL    HW122253   5.974   3.327   5.195 -2.6167 -0.2854  1.4449
 7118SOL    HW222254   5.954   3.169   5.160 -1.1705 -0.4132  1.1250
 7119SOL     OW22255   3.176   6.005   1.861  0.2694 -0.0838  0.9827
 7119SOL    HW122256   3.139   6.085   1.815 -0.2397 -2.3709 -3.1180
 7119SOL    HW222257   3.101   5.943   1.885  0.5921  0.7250  4.5951
 7120SOL     OW22258   3.593   1.749   3.304 -0.1211 -0.1933  0.4725
 7120SOL    HW122259   3.614   1.796   3.390  0.7956 -0.1173  0.2216
 7120SOL    HW222260   3.659   1.675   3.290  0.4582  0.5221 -0.7117
 7121SOL     OW22261   2.372   5.152   2.033  0.2916 -0.2044  0.1063
 7121SOL    HW122262   2.397   5.158   1.936  0.0507 -1.7261 -0.0653
 7121SOL    HW222263   2.429   5.216   2.085  0.3469  0.7269 -1.0386
 7122SOL     OW22264   2.126   2.578   5.231 -0.2580  0.3756  0.0335
 7122SOL    HW122265   2.179   2.662   5.236  3.8169 -1.9081 -0.5221
 7122SOL    HW222266   2.136   2.526   5.316  2.0634 -1.9655 -1.5173
 7123SOL     OW22267   6.581   3.132   6.747  0.0268  0.3498  0.3458
 7123SOL    HW122268   6.637   3.054   6.774 -0.3186 -0.0342 -0.0395
 7123SOL    HW222269   6.509   3.102   6.685  1.9640  1.4485 -2.7098
 7124SOL     OW22270   3.012   3.791   5.521 -0.0661  0.1693  0.2256
 7124SOL    HW122271   2.936   3.760   5.464 -0.5761 -0.8480  1.4373
 7124SOL    HW222272   3.075   3.715   5.538  0.4305  0.6268  0.4848
 7125SOL     OW22273   1.078   0.805   1.299  0.0773  0.1438 -0.6628
 7125SOL    HW122274   1.034   0.723   1.263 -0.1684  0.4998 -1.1941
 7125SOL    HW222275   1.091   0.871   1.225  0.7039  0.3959 -0.3366
 7126SOL     OW22276   4.231   5.715   6.416 -0.2974 -0.0719  0.4453
 7126SOL    HW122277   4.285   5.671   6.487 -1.1140 -0.7230  0.6788
 7126SOL    HW222278   4.139   5.677   6.416 -0.1669 -0.4759 -1.3174
 7127SOL     OW22279   7.014   6.564   5.075 -0.0107  0.3005  0.3008
 7127SOL    HW122280   6.961   6.479   5.077 -0.5253  0.5962 -0.2616
 7127SOL    HW222281   7.111   6.543   5.067 -0.2149 -0.2447 -1.0717
 7128SOL     OW22282   5.038   6.013   0.140  0.0169  0.3705  0.1016
 7128SOL    HW122283   4.961   5.996   0.078  0.8147  0.2915 -0.9065
 7128SOL    HW222284   5.116   5.956   0.112  0.0292 -0.5706  1.9327
 7129SOL     OW22285   6.783   1.657   2.053  0.4391 -0.3465 -0.4618
 7129SOL    HW122286   6.814   1.750   2.076 -0.4023 -0.3697  0.8226
 7129SOL    HW222287   6.804   1.595   2.128  0.5817 -1.1085 -1.1268
 7130SOL     OW22288   4.206   0.648   4.196 -0.0018 -0.1778  0.3224
 7130SOL    HW122289   4.127   0.685   4.148  0.4775  0.5467  0.0717
 7130SOL    HW222290   4.260   0.723   4.234  0.2019 -0.6964  1.0708
 7131SOL     OW22291   3.237   1.813   1.457  0.1303  0.0919  0.0629
 7131SOL    HW122292   3.233   1.849   1.364  1.1366 -0.0889 -0.0538
 7131SOL    HW222293   3.195   1.722   1.460  0.7678 -0.2194 -0.3712
 7132SOL     OW22294   5.584   5.389   3.154 -0.2449 -0.0298 -0.6246
 7132SOL    HW122295   5.524   5.309   3.143 -0.6968  0.1637  0.2784
 7132SOL    HW222296   5.579   5.421   3.249  1.6155 -0.2490 -0.4153
 7133SOL     OW22297   2.059   7.020   0.924  0.2180  0.0994 -0.1967
 7133SOL    HW122298   2.060   7.113   0.959 -0.9839  0.4665 -1.0471
 7133SOL    HW222299   2.152   6.989   0.907  0.6130  1.3936 -0.5090
 7134SOL     OW22300   6.810   3.255   4.263  0.0345 -0.3246 -0.1767
 7134SOL    HW122301   6.730   3.272   4.321  0.3516  1.0657 -0.1185
 7134SOL    HW222302   6.827   3.157   4.258  0.1680 -0.4919  2.3177
 7135SOL     OW22303   4.888   5.440   1.075  0.6104 -0.4993  0.1571
 7135SOL    HW122304   4.901   5.398   1.165  0.1306  1.0737  1.0108
 7135SOL    HW222305   4.912   5.537   1.080 -1.6847  0.1901 -0.7726
 7136SOL     OW22306   6.909   1.849   3.305 -0.1163  0.5636  0.3628
 7136SOL    HW122307   7.005   1.842   3.331  0.2136 -1.2188 -1.0964
 7136SOL    HW222308   6.901   1.908   3.225 -0.1657  0.3600  0.2160
 7137SOL     OW22309   1.201   0.629   3.372 -0.0797  0.0074  0.8537
 7137SOL    HW122310   1.256   0.701   3.328  0.1569  0.0636  1.2375
 7137SOL    HW222311   1.129   0.671   3.427  0.9566  0.0172  2.2718
 7138SOL     OW22312   0.290   3.687   2.606 -0.0571  0.0813 -0.1879
 7138SOL    HW122313   0.250   3.680   2.697 -0.8946 -0.1300 -0.5595
 7138SOL    HW222314   0.353   3.611   2.591 -0.1374 -0.0472  0.1126
 7139SOL     OW22315   3.728   5.867   6.293  0.1222 -0.2954 -0.0088
 7139SOL    HW122316   3.724   5.966   6.303 -0.3566 -0.3300  0.2332
 7139SOL    HW222317   3.754   5.843   6.200  1.4721  0.0552  0.2578
 7140SOL     OW22318   6.493   3.872   0.788 -0.8911  0.2909  0.3489
 7140SOL    HW122319   6.445   3.795   0.746  0.2158 -0.9968  1.3644
 7140SOL    HW222320   6.548   3.840   0.865 -0.4326  2.1151  0.8393
 7141SOL     OW22321   2.152   2.978   0.888 -0.3402 -0.5709  0.2998
 7141SOL    HW122322   2.200   3.046   0.943  0.2024  0.9279 -1.8807
 7141SOL    HW222323   2.053   2.993   0.895 -0.2107  1.0309 -0.7479
 7142SOL     OW22324   3.192   5.813   5.452 -0.1358 -0.1604  0.5492
 7142SOL    HW122325   3.123   5.741   5.454  0.4295 -0.6963  0.9399
 7142SOL    HW222326   3.270   5.787   5.508  0.7911  0.0202 -0.6015
 7143SOL     OW22327   3.657   2.979   4.385  0.8264 -0.3646 -0.3370
 7143SOL    HW122328   3.679   3.062   4.437  1.4158  0.4941 -1.9121
 7143SOL    HW222329   3.558   2.975   4.370  0.4416 -1.3273  1.9224
 7144SOL     OW22330   5.638   2.659   6.599  0.3426  0.4823 -0.3026
 7144SOL    HW122331   5.546   2.669   6.637  1.2889 -0.4467  2.4752
 7144SOL    HW222332   5.689   2.743   6.613 -0.0859  1.0803 -2.0543
 7145SOL     OW22333   2.574   3.626   1.058 -1.0175 -0.5722  0.1451
 7145SOL    HW122334   2.495   3.671   1.100 -0.1902  0.2240  0.8829
 7145SOL    HW222335   2.554   3.608   0.961 -1.8907  0.1299  0.1790
 7146SOL     OW22336   1.759   2.684   4.805 -0.0450  0.0135 -0.5609
 7146SOL    HW122337   1.807   2.657   4.888  2.3783  1.8118 -1.2797
 7146SOL    HW222338   1.812   2.753   4.757 -1.7600 -0.3943 -3.2281
 7147SOL     OW22339   6.379   0.145   5.334 -0.6459  0.1733  0.2871
 7147SOL    HW122340   6.437   0.064   5.346  0.2595  0.6940 -0.4933
 7147SOL    HW222341   6.423   0.224   5.377 -0.9663  0.4918  0.0333
 7148SOL     OW22342   0.093   6.416   6.857  0.0638  0.2450  0.0246
 7148SOL    HW122343   0.108   6.475   6.778  1.2357  1.4064  1.0660
 7148SOL    HW222344   0.181   6.399   6.902 -0.5084 -0.9030  0.7291
 7149SOL     OW22345   6.461   2.003   5.450  0.0810  0.5590  0.3241
 7149SOL    HW122346   6.365   2.011   5.424 -0.4435  0.2813  2.0384
 7149SOL    HW222347   6.491   2.087   5.494  1.3582  1.5543 -2.2446
 7150SOL     OW22348   0.967   2.392   5.618  0.3333  0.3190 -0.2970
 7150SOL    HW122349   1.046   2.371   5.560 -0.3122  2.2887 -2.0207
 7150SOL    HW222350   0.999   2.415   5.710  1.6159 -0.4731 -0.5153
 7151SOL     OW22351   6.727   3.728   0.927  0.4589  0.0618  0.1549
 7151SOL    HW122352   6.758   3.642   0.967  0.9748 -0.3853 -1.1485
 7151SOL    HW222353   6.804   3.771   0.879 -0.0137  0.8243  0.0721
 7152SOL     OW22354   5.624   0.013   3.240  0.4827  0.1316 -0.6863
 7152SOL    HW122355   5.605   0.064   3.156  2.1824  0.7672 -0.7182
 7152SOL    HW222356   5.718  -0.021   3.238 -0.0339 -1.4846  0.1491
 7153SOL     OW22357   5.167   6.298   0.303  0.2246  0.3944  0.6663
 7153SOL    HW122358   5.106   6.232   0.347 -0.9058  0.3406 -0.9028
 7153SOL    HW222359   5.112   6.371   0.262  1.4283  2.2530  2.2018
 7154SOL     OW22360   6.211   6.760   0.078 -0.4233  0.0970  0.3751
 7154SOL    HW122361   6.308   6.782   0.070  0.0927 -2.3895 -1.1671
 7154SOL    HW222362   6.157   6.839   0.050  1.2227  0.5846 -1.7276
 7155SOL     OW22363   1.758   2.097   1.506  0.4112 -0.3303 -0.1563
 7155SOL    HW122364   1.851   2.062   1.511 -0.3976 -2.5817  0.2524
 7155SOL    HW222365   1.715   2.067   1.421  0.5225  2.1003 -1.1586
 7156SOL     OW22366   1.138   3.190   5.607 -0.4986  0.2605 -0.3126
 7156SOL    HW122367   1.062   3.140   5.567 -0.1388  1.0271 -2.0646
 7156SOL    HW222368   1.219   3.179   5.549 -0.0059  1.6197  0.0845
 7157SOL     OW22369   6.607   5.487   5.145 -0.2921 -0.1116 -0.3183
 7157SOL    HW122370   6.580   5.458   5.236  0.6942  0.3206  0.1278
 7157SOL    HW222371   6.704   5.467   5.130 -0.6977 -1.2287 -1.7104
 7158SOL     OW22372   3.866   6.775   4.428  0.2425  0.0141 -0.1124
 7158SOL    HW122373   3.767   6.776   4.419  0.3907 -0.3470 -2.6521
 7158SOL    HW222374   3.899   6.866   4.454 -0.6697  0.5207 -0.6834
 7159SOL     OW22375   0.452   6.557   3.160  0.5753  0.4760  0.1100
 7159SOL    HW122376   0.526   6.492   3.180  0.0907 -0.5890 -1.4204
 7159SOL    HW222377   0.491   6.648   3.146  1.3453  0.4015  1.5459
 7160SOL     OW22378   5.688   6.712   1.826  0.3207  0.1529  0.0760
 7160SOL    HW122379   5.679   6.686   1.922  0.2431 -2.8652 -0.6197
 7160SOL    HW222380   5.706   6.630   1.772  0.0700  1.7181 -2.5428
 7161SOL     OW22381   4.577   3.981   1.718  0.6756 -0.3399 -0.3686
 7161SOL    HW122382   4.518   4.049   1.762 -1.9858 -4.1058  2.5275
 7161SOL    HW222383   4.527   3.934   1.646  1.3686 -1.2339 -0.2943
 7162SOL     OW22384   6.680   5.448   6.182 -0.3082 -0.1347  0.4753
 7162SOL    HW122385   6.771   5.406   6.192 -0.2648 -0.0718  0.3339
 7162SOL    HW222386   6.685   5.544   6.208 -0.1394  0.0977 -0.3875
 7163SOL     OW22387   6.476   3.812   2.020  0.1616 -0.1735  0.2301
 7163SOL    HW122388   6.432   3.858   2.097  0.4394 -1.0585  0.9323
 7163SOL    HW222389   6.565   3.853   2.003  0.4136 -0.4464  0.8624
 7164SOL     OW22390   1.520   6.440   5.222 -0.1679  0.2156  0.2205
 7164SOL    HW122391   1.572   6.435   5.307  1.1871  2.5024 -0.3951
 7164SOL    HW222392   1.581   6.466   5.147 -0.9361 -3.3949 -1.8973
 7165SOL     OW22393   4.996   4.760   6.252  0.2507  0.4916  0.1231
 7165SOL    HW122394   4.987   4.676   6.198 -1.5817  0.1559  0.9113
 7165SOL    HW222395   4.910   4.811   6.250  0.8494  1.5784  0.9374
 7166SOL     OW22396   6.619   1.176   5.251  0.2122  0.0357  0.4026
 7166SOL    HW122397   6.637   1.215   5.342  0.1284 -0.8007  0.7829
 7166SOL    HW222398   6.532   1.127   5.253 -0.2663  0.8256 -0.3990
 7167SOL     OW22399   0.226   3.345   5.037  0.2089  0.1016  0.5365
 7167SOL    HW122400   0.252   3.442   5.044 -1.5815  0.7537 -0.8561
 7167SOL    HW222401   0.274   3.292   5.107  3.2399  1.5286 -0.2785
 7168SOL     OW22402   6.896   2.427   2.929 -0.2933  0.3334 -0.2891
 7168SOL    HW122403   6.861   2.386   3.014  1.9922 -0.6380  0.2577
 7168SOL    HW222404   6.897   2.357   2.858 -2.2705  1.1645 -1.2212
 7169SOL     OW22405   6.528   4.740   5.556  0.0033 -0.2565 -0.3595
 7169SOL    HW122406   6.591   4.693   5.494 -0.6683  0.2111 -1.4443
 7169SOL    HW222407   6.530   4.839   5.536  0.9840  0.1373  1.4968
 7170SOL     OW22408   4.454   2.381   2.905 -0.1849  0.1952 -0.6077
 7170SOL    HW122409   4.383   2.311   2.903 -0.7399  0.7509 -1.0275
 7170SOL    HW222410   4.523   2.360   2.836  1.9953 -2.2492  2.0586
 7171SOL     OW22411   0.207   0.287   1.009  0.3653  0.5094  0.4326
 7171SOL    HW122412   0.215   0.385   1.025  1.7522  0.1707  2.0441
 7171SOL    HW222413   0.128   0.250   1.058  0.3502  0.6763  0.5314
 7172SOL     OW22414   1.329   1.747   2.882 -0.0752  0.5953  0.2150
 7172SOL    HW122415   1.311   1.837   2.841 -0.3253  1.1210  1.4283
 7172SOL    HW222416   1.243   1.701   2.900 -0.0004  0.6171  0.6524
 7173SOL     OW22417   2.136   4.709   4.688 -0.1175  0.4033 -0.1263
 7173SOL    HW122418   2.230   4.675   4.699 -0.6099 -1.2894 -0.7330
 7173SOL    HW222419   2.127   4.799   4.731  1.8362  0.7037 -0.2839
 7174SOL     OW22420   6.065   4.655   3.094  0.1866  0.0972  0.0289
 7174SOL    HW122421   6.112   4.734   3.056  0.6514 -0.6244 -0.9304
 7174SOL    HW222422   6.131   4.593   3.136  0.0740 -0.7644 -1.0327
 7175SOL     OW22423   4.868   3.134   4.412 -0.4193 -0.0496  0.6931
 7175SOL    HW122424   4.865   3.207   4.480  0.3158  1.1167 -0.4957
 7175SOL    HW222425   4.962   3.116   4.385 -0.7743  0.4023 -0.9416
 7176SOL     OW22426   5.737   0.342   5.851  0.7906 -0.3894  0.6108
 7176SOL    HW122427   5.678   0.365   5.774  1.2152  0.7239  0.5961
 7176SOL    HW222428   5.750   0.423   5.908 -0.5791 -1.4825  2.6122
 7177SOL     OW22429   6.093   4.726   4.478 -0.5579 -0.3990 -0.4125
 7177SOL    HW122430   5.995   4.717   4.462 -1.1608 -0.1506  2.5453
 7177SOL    HW222431   6.109   4.788   4.556  1.8472 -1.7428  0.2808
 7178SOL     OW22432   0.041   5.991   6.387 -0.3540  0.0852  0.0667
 7178SOL    HW122433   0.049   6.090   6.401  0.2411 -0.0200  0.5029
 7178SOL    HW222434  -0.011   5.951   6.462  0.0347 -0.0269  0.2821
 7179SOL     OW22435   5.112   5.017   4.606 -0.1536 -0.2616  0.5210
 7179SOL    HW122436   5.167   4.939   4.636  1.1451  0.3188 -0.2402
 7179SOL    HW222437   5.020   5.011   4.645  0.5276 -1.1203  2.0732
 7180SOL     OW22438   6.846   1.816   3.758 -0.0106  0.5692 -0.3286
 7180SOL    HW122439   6.810   1.724   3.773  0.9603  0.2823  0.3323
 7180SOL    HW222440   6.829   1.873   3.838 -1.2566  1.1980 -1.0177
 7181SOL     OW22441   3.994   0.618   6.684 -0.3755  0.0879 -0.2033
 7181SOL    HW122442   3.903   0.579   6.695 -0.2748 -0.4005 -1.0130
 7181SOL    HW222443   4.058   0.570   6.744 -0.5112 -0.0912 -0.2001
 7182SOL     OW22444   1.716   0.861   0.742  0.0078 -0.0888  0.1291
 7182SOL    HW122445   1.726   0.907   0.830 -3.8700 -0.7115  1.0848
 7182SOL    HW222446   1.743   0.923   0.669  1.9172  0.9681  1.6440
 7183SOL     OW22447   2.636   6.280   6.162 -0.1822 -0.3623 -0.2779
 7183SOL    HW122448   2.653   6.216   6.087  0.0224  0.6023 -1.0677
 7183SOL    HW222449   2.718   6.285   6.220  0.2475  0.1124 -0.9221
 7184SOL     OW22450   7.013   2.019   4.639  0.0317  0.2434 -0.1625
 7184SOL    HW122451   7.008   1.940   4.699 -0.1440 -0.5061 -1.1422
 7184SOL    HW222452   7.108   2.043   4.622  0.0849  0.1759  0.0441
 7185SOL     OW22453   1.568   5.493   3.750  0.1614 -0.0314  0.5807
 7185SOL    HW122454   1.596   5.589   3.744 -1.0580  0.3700  1.0413
 7185SOL    HW222455   1.538   5.462   3.660 -0.1013  0.2413  0.5699
 7186SOL     OW22456   5.610   1.825   1.635  0.0912  0.6826 -0.0838
 7186SOL    HW122457   5.692   1.768   1.649 -0.6396 -0.6980 -1.2660
 7186SOL    HW222458   5.586   1.827   1.538 -0.5172  2.1884  0.0708
 7187SOL     OW22459   4.101   3.651   3.178  0.1365  0.2938  0.4028
 7187SOL    HW122460   4.101   3.697   3.089 -1.2200 -1.3959 -0.5340
 7187SOL    HW222461   4.099   3.720   3.251 -0.5317  1.7107 -0.8953
 7188SOL     OW22462   3.961   5.350   0.720  0.2233 -0.5799 -0.4572
 7188SOL    HW122463   4.014   5.349   0.805  1.1582  1.2236 -0.9595
 7188SOL    HW222464   4.021   5.375   0.644 -1.3289  1.8053 -1.0126
 7189SOL     OW22465   5.845   1.948   5.835  0.2049 -0.1723  0.1886
 7189SOL    HW122466   5.924   1.933   5.894 -0.0994 -0.8694  0.4390
 7189SOL    HW222467   5.795   2.029   5.866  0.8820  0.3501 -0.0547
 7190SOL     OW22468   4.111   3.864   1.364  0.0208 -0.3264  1.0867
 7190SOL    HW122469   4.138   3.958   1.343  4.1049 -1.5589 -0.1738
 7190SOL    HW222470   4.097   3.854   1.462 -0.2357  1.4959  1.2693
 7191SOL     OW22471   0.453   3.473   3.228 -0.2510  0.0654 -0.4792
 7191SOL    HW122472   0.435   3.394   3.287 -1.1390  0.0256 -0.7921
 7191SOL    HW222473   0.491   3.548   3.283  2.3522 -1.1516 -0.4561
 7192SOL     OW22474   2.840   3.255   5.366 -0.3598 -0.0099 -0.1191
 7192SOL    HW122475   2.793   3.197   5.300  1.4959 -2.3292  0.4867
 7192SOL    HW222476   2.791   3.254   5.453 -1.3345  0.8923 -0.6305
 7193SOL     OW22477   5.034   2.031   6.299 -0.2547 -0.4966 -0.1132
 7193SOL    HW122478   4.956   1.972   6.277 -0.3535 -0.4712  0.1645
 7193SOL    HW222479   5.005   2.126   6.296 -1.2580 -0.5357  3.6349
 7194SOL     OW22480   3.430   2.461   5.363  0.2649 -0.7743 -0.0647
 7194SOL    HW122481   3.360   2.448   5.293 -1.0674 -0.8740  1.2442
 7194SOL    HW222482   3.464   2.372   5.394  0.9674 -0.7272 -0.6756
 7195SOL     OW22483   5.968   3.972   4.326  0.4314  0.3945  0.5275
 7195SOL    HW122484   5.928   3.882   4.342  1.6147 -0.2800 -0.2364
 7195SOL    HW222485   6.040   3.965   4.258 -0.4478  2.1759 -0.6549
 7196SOL     OW22486   2.859   3.419   1.782 -0.3777  0.2146 -0.1328
 7196SOL    HW122487   2.765   3.419   1.749  0.7345  1.0644 -3.6367
 7196SOL    HW222488   2.892   3.324   1.788 -1.4046 -0.0872  1.1367
 7197SOL     OW22489   2.741   5.751   5.837  0.2469  0.1473  0.6979
 7197SOL    HW122490   2.826   5.789   5.802 -0.3215  0.8376  0.0119
 7197SOL    HW222491   2.665   5.779   5.777 -0.3075 -1.4073  0.6416
 7198SOL     OW22492   1.718   5.809   1.913  0.1050 -0.0186  0.4864
 7198SOL    HW122493   1.804   5.790   1.960  0.5072  1.2134  0.2745
 7198SOL    HW222494   1.733   5.878   1.842 -0.9546 -0.1756  0.0960
 7199SOL     OW22495   5.522   1.115   2.173 -0.2648 -0.1493 -0.7649
 7199SOL    HW122496   5.447   1.179   2.158  0.5019  0.5465 -1.7501
 7199SOL    HW222497   5.603   1.147   2.125  0.6261 -0.9816  0.1386
 7200SOL     OW22498   0.641   4.825   7.018 -0.0830 -0.3429  0.1847
 7200SOL    HW122499   0.726   4.779   7.044 -0.3274 -0.1802  1.3457
 7200SOL    HW222500   0.563   4.777   7.059 -0.3859  0.7067  0.8692
 7201SOL     OW22501   5.170   3.750   5.692 -0.4365 -0.2115  0.1815
 7201SOL    HW122502   5.111   3.682   5.647 -0.5222 -0.0866  0.1051
 7201SOL    HW222503   5.113   3.821   5.733 -0.3645 -0.3730  0.5666
 7202SOL     OW22504   4.758   6.718   6.032  0.5360  0.1610  0.1174
 7202SOL    HW122505   4.845   6.765   6.015  1.4426 -0.7776  1.9161
 7202SOL    HW222506   4.747   6.705   6.130 -3.0174  2.7976  0.2554
 7203SOL     OW22507   0.578   2.772   1.590 -0.0927  0.1765 -0.5268
 7203SOL    HW122508   0.563   2.864   1.555 -1.4533  0.3142  0.3357
 7203SOL    HW222509   0.667   2.766   1.634  0.9214  0.4683 -2.4286
 7204SOL     OW22510   4.250   2.044   2.221 -0.7354  0.1500 -0.1487
 7204SOL    HW122511   4.194   1.980   2.168 -0.3010 -0.6872  0.3934
 7204SOL    HW222512   4.296   2.106   2.158  1.4052 -2.1170 -0.9805
 7205SOL     OW22513   3.311   1.317   6.212 -0.1873  0.5036  0.4679
 7205SOL    HW122514   3.377   1.304   6.138 -1.0782 -0.2360 -0.2166
 7205SOL    HW222515   3.335   1.399   6.264  3.1144 -1.3210  2.2019
 7206SOL     OW22516   2.029   1.059   5.266 -0.0505 -0.1482 -0.0178
 7206SOL    HW122517   1.939   1.032   5.231  0.2414 -0.4026 -0.5779
 7206SOL    HW222518   2.075   0.980   5.306  0.4215 -0.2985 -0.8278
 7207SOL     OW22519   3.825   1.426   1.975 -0.3803 -0.4994 -0.0070
 7207SOL    HW122520   3.872   1.506   1.937 -0.3714 -0.3589  0.2942
 7207SOL    HW222521   3.884   1.382   2.042 -0.1005 -1.1814 -0.6901
 7208SOL     OW22522   4.028   5.140   3.557 -0.3107  0.1861  0.5741
 7208SOL    HW122523   3.950   5.189   3.596  0.4009 -0.0276  2.3283
 7208SOL    HW222524   4.110   5.158   3.611  0.8346  0.1787 -1.0709
 7209SOL     OW22525   4.501   1.804   2.626 -0.0606  0.2826 -0.4042
 7209SOL    HW122526   4.499   1.837   2.720 -0.0462  0.9261 -0.6220
 7209SOL    HW222527   4.413   1.823   2.582 -0.1382 -0.1964 -0.4642
 7210SOL     OW22528   0.738   0.540   4.677 -0.0574 -0.3344  0.5808
 7210SOL    HW122529   0.781   0.605   4.740  1.3771 -1.5550  0.8986
 7210SOL    HW222530   0.797   0.461   4.665 -1.2356 -1.0519 -0.7420
 7211SOL     OW22531   4.385   6.515   0.512 -0.3737 -0.3904 -0.3374
 7211SOL    HW122532   4.392   6.511   0.612 -1.8461  1.3340 -0.1189
 7211SOL    HW222533   4.349   6.428   0.478 -0.7247 -0.6789  0.7387
 7212SOL     OW22534   4.491   5.694   4.871 -0.6526  0.2153  0.3977
 7212SOL    HW122535   4.560   5.727   4.936 -0.8206  0.2147  0.5806
 7212SOL    HW222536   4.415   5.653   4.922 -0.3890 -0.5692  0.1624
 7213SOL     OW22537   0.265   2.242   6.136  0.2527  0.1842  0.0394
 7213SOL    HW122538   0.187   2.193   6.176 -0.8428  1.6657 -0.2001
 7213SOL    HW222539   0.274   2.216   6.040  0.2249 -0.1851  0.1322
 7214SOL     OW22540   4.590   1.000   5.694 -0.2466  0.1075 -0.2586
 7214SOL    HW122541   4.596   1.034   5.788  0.1282  0.4636 -0.4091
 7214SOL    HW222542   4.682   0.992   5.656  0.1930 -4.7594  1.0509
 7215SOL     OW22543   0.322   1.485   4.445  0.4523 -0.4930 -0.4604
 7215SOL    HW122544   0.330   1.584   4.438  1.5231 -0.5757 -0.5831
 7215SOL    HW222545   0.309   1.446   4.354 -3.6489 -0.2321 -0.1516
 7216SOL     OW22546   3.942   0.108   4.844 -0.3374 -0.3018 -0.3316
 7216SOL    HW122547   3.887   0.030   4.815  0.7530 -0.9141 -0.8079
 7216SOL    HW222548   3.883   0.187   4.858 -1.1899 -0.5962 -2.0277
 7217SOL     OW22549   5.939   2.323   3.471  0.0844 -0.1999  0.3635
 7217SOL    HW122550   6.007   2.271   3.522 -0.1768 -1.2642 -0.3384
 7217SOL    HW222551   5.850   2.276   3.476  0.5073 -1.5962 -2.8433
 7218SOL     OW22552   0.450   2.609   4.665 -0.5307 -0.4031 -0.1517
 7218SOL    HW122553   0.369   2.621   4.608  0.1104  1.4226 -0.7567
 7218SOL    HW222554   0.511   2.541   4.625 -0.8618 -0.3492 -0.7470
 7219SOL     OW22555   3.042   0.949   0.724  0.7920 -0.0883 -0.5779
 7219SOL    HW122556   3.033   1.036   0.675 -0.5465  0.2249  0.1492
 7219SOL    HW222557   2.951   0.917   0.751  1.4302 -0.3189  1.5246
 7220SOL     OW22558   1.309   4.434   2.971  0.4198  0.6652 -0.1107
 7220SOL    HW122559   1.296   4.530   2.997  0.3804  0.6964 -0.2450
 7220SOL    HW222560   1.313   4.427   2.871 -1.1372  0.3360 -0.1673
 7221SOL     OW22561   5.338   5.718   4.485  0.2335 -0.8530 -0.0144
 7221SOL    HW122562   5.388   5.689   4.567 -0.4751  0.4594  0.9124
 7221SOL    HW222563   5.282   5.642   4.451 -0.3966 -1.0674  1.4424
 7222SOL     OW22564   4.707   4.191   4.610 -0.3549 -0.5625 -0.4277
 7222SOL    HW122565   4.715   4.093   4.590  0.4331 -0.6091  0.1097
 7222SOL    HW222566   4.772   4.242   4.554  1.0381 -0.5886  1.1078
 7223SOL     OW22567   6.050   4.583   0.973 -0.3137 -0.2054 -0.0553
 7223SOL    HW122568   6.074   4.510   0.910 -1.2842  0.5612 -1.3686
 7223SOL    HW222569   5.955   4.610   0.958 -0.7264 -0.2756  2.0524
 7224SOL     OW22570   5.858   2.418   4.415  0.7473 -0.3076  0.3523
 7224SOL    HW122571   5.858   2.518   4.423  0.8957 -0.3269  0.6132
 7224SOL    HW222572   5.932   2.390   4.354  0.1249 -0.2081 -0.4769
 7225SOL     OW22573   6.968   3.986   1.954  0.3502  0.2845  0.3333
 7225SOL    HW122574   6.954   3.924   1.877  0.0054  1.9206 -0.9639
 7225SOL    HW222575   7.046   4.045   1.936  0.8057  0.1267  1.6427
 7226SOL     OW22576   5.182   6.499   0.049 -0.2687 -0.1047 -0.1109
 7226SOL    HW122577   5.115   6.491  -0.025  1.4490 -0.0113 -1.7436
 7226SOL    HW222578   5.181   6.592   0.085  0.5596  0.5816 -1.7454
 7227SOL     OW22579   2.281   0.752   6.932  0.4097 -0.0140 -0.1948
 7227SOL    HW122580   2.247   0.790   7.018 -0.1841 -0.2109 -0.3331
 7227SOL    HW222581   2.280   0.822   6.861  0.8494  0.1343 -0.0566
 7228SOL     OW22582   6.778   3.910   5.674  0.6936  0.4210 -0.4295
 7228SOL    HW122583   6.824   3.972   5.738 -0.9853  0.1668  1.1115
 7228SOL    HW222584   6.820   3.820   5.679  1.4598  0.7578 -0.7186
 7229SOL     OW22585   5.453   0.336   5.085  0.2217  0.2731 -0.0567
 7229SOL    HW122586   5.518   0.283   5.031 -1.3731  0.3315 -2.1540
 7229SOL    HW222587   5.366   0.287   5.090 -0.6885  1.8021 -0.3876
 7230SOL     OW22588   2.401   3.894   6.179 -0.6668 -0.0505 -0.4953
 7230SOL    HW122589   2.494   3.873   6.149  0.2033  3.8576 -1.0530
 7230SOL    HW222590   2.339   3.822   6.147  1.9273 -2.2014 -1.0995
 7231SOL     OW22591   4.498   3.290   6.433  0.0549  0.1197  0.0973
 7231SOL    HW122592   4.467   3.307   6.526  0.6843 -0.4023  0.4094
 7231SOL    HW222593   4.570   3.356   6.410  1.8660 -1.4205  0.9931
 7232SOL     OW22594   4.517   5.866   2.545  0.2618  0.1064 -0.5546
 7232SOL    HW122595   4.509   5.902   2.452 -0.1510 -1.3849 -1.1187
 7232SOL    HW222596   4.587   5.795   2.548  1.6916  1.4667  0.7348
 7233SOL     OW22597   0.156   2.354   0.611  0.0094 -0.1986 -0.1081
 7233SOL    HW122598   0.069   2.404   0.617 -0.1467 -0.5357  0.5187
 7233SOL    HW222599   0.192   2.339   0.703  1.5109  1.2627 -0.4174
 7234SOL     OW22600   5.712   6.113   4.633  0.0353  0.2431 -0.4045
 7234SOL    HW122601   5.783   6.093   4.566  0.4163 -2.1747  0.6363
 7234SOL    HW222602   5.628   6.063   4.609  0.6334 -1.9290  1.6213
 7235SOL     OW22603   5.898   0.735   0.259 -0.4748  0.1828 -0.2072
 7235SOL    HW122604   5.916   0.668   0.331  1.6288 -1.3205 -1.9936
 7235SOL    HW222605   5.853   0.690   0.182 -0.5717  1.2340 -0.7750
 7236SOL     OW22606   1.628   4.734   2.883  0.9629 -0.2553 -0.3802
 7236SOL    HW122607   1.568   4.795   2.934  2.5639  0.6934  0.4727
 7236SOL    HW222608   1.649   4.773   2.794 -0.1036 -0.8561 -0.9040
 7237SOL     OW22609   4.015   1.368   6.729 -0.0725  0.3993  0.3312
 7237SOL    HW122610   4.050   1.389   6.638 -0.0768 -0.4509  0.1192
 7237SOL    HW222611   3.932   1.313   6.721 -0.6206  1.1304  0.8467
 7238SOL     OW22612   4.666   4.333   0.363  0.3280 -0.2165  0.1384
 7238SOL    HW122613   4.666   4.392   0.282 -1.2908  0.1585  0.3804
 7238SOL    HW222614   4.582   4.279   0.364 -0.1768  0.5315  2.0923
 7239SOL     OW22615   5.250   3.158   2.201 -0.6869  0.7752 -0.0487
 7239SOL    HW122616   5.264   3.174   2.103  0.8365 -0.1516 -0.0157
 7239SOL    HW222617   5.190   3.079   2.214 -1.5031  1.3568 -0.2183
 7240SOL     OW22618   0.233   2.534   0.326 -0.1094  0.6120  0.2821
 7240SOL    HW122619   0.266   2.476   0.252  1.3173  1.6271  0.0724
 7240SOL    HW222620   0.134   2.546   0.319 -0.2098 -0.6163 -0.4930
 7241SOL     OW22621   1.621   1.391   3.552 -0.5116  0.3190 -0.6425
 7241SOL    HW122622   1.663   1.322   3.611  0.9068  0.3610 -1.5402
 7241SOL    HW222623   1.633   1.365   3.457 -1.6860  0.8617 -0.9558
 7242SOL     OW22624   6.322   2.671   5.576 -0.5289 -0.3439  0.3662
 7242SOL    HW122625   6.358   2.701   5.664 -0.1984 -0.3336  0.2278
 7242SOL    HW222626   6.244   2.728   5.550  1.1773  1.6269 -0.7563
 7243SOL     OW22627   6.533   5.129   6.157 -0.0124 -0.4336  0.7880
 7243SOL    HW122628   6.442   5.138   6.197 -1.0764 -2.0512 -1.0380
 7243SOL    HW222629   6.551   5.206   6.096 -1.4940 -1.5373 -1.1491
 7244SOL     OW22630   6.357   5.658   2.617  0.0464 -0.4002 -0.1173
 7244SOL    HW122631   6.326   5.590   2.684 -0.7804  0.9447  0.9167
 7244SOL    HW222632   6.312   5.745   2.635 -0.1060  0.0321 -2.3940
 7245SOL     OW22633   2.434   2.395   6.525 -0.5109 -0.5066  0.2940
 7245SOL    HW122634   2.418   2.489   6.496 -0.0025 -0.7048 -0.6997
 7245SOL    HW222635   2.422   2.334   6.447  0.0484 -1.1636  0.7093
 7246SOL     OW22636   5.619   6.612   3.586 -0.5381 -0.3676 -0.3799
 7246SOL    HW122637   5.597   6.517   3.610 -0.1828 -0.3914 -0.1401
 7246SOL    HW222638   5.683   6.649   3.653  1.0785 -0.6681 -1.6813
 7247SOL     OW22639   3.334   3.977   5.249  0.3838  1.1207  0.2484
 7247SOL    HW122640   3.293   4.004   5.162 -0.5116  0.0060  0.3022
 7247SOL    HW222641   3.423   3.935   5.232  0.7417  1.9756 -0.0207
 7248SOL     OW22642   2.550   2.885   6.720 -0.9896  0.1088 -0.5614
 7248SOL    HW122643   2.610   2.831   6.662 -0.2066  0.6612 -0.2791
 7248SOL    HW222644   2.469   2.913   6.668 -2.2080 -2.5985 -0.3086
 7249SOL     OW22645   3.865   5.703   5.687 -0.1131  0.1911 -0.4426
 7249SOL    HW122646   3.909   5.629   5.636  0.4618  1.3017 -1.6066
 7249SOL    HW222647   3.796   5.664   5.749 -0.0603 -1.2791 -1.2618
 7250SOL     OW22648   4.517   4.536   4.838  0.5403  0.1486  0.2564
 7250SOL    HW122649   4.458   4.513   4.916  1.3497 -0.9103  0.5801
 7250SOL    HW222650   4.593   4.472   4.834  2.0049  1.8073  0.1881
 7251SOL     OW22651   0.914   5.426   1.924  0.2798  0.1642 -0.1235
 7251SOL    HW122652   0.989   5.491   1.934  0.2329  0.4536 -1.4697
 7251SOL    HW222653   0.867   5.415   2.011  1.6265  0.2876  0.6402
 7252SOL     OW22654   3.354   3.007   2.929  0.2004  0.2510 -0.6057
 7252SOL    HW122655   3.351   2.987   3.027 -3.4206 -1.4001 -0.8957
 7252SOL    HW222656   3.361   3.106   2.916 -0.1375  0.5849  1.3235
 7253SOL     OW22657   6.894   6.326   5.077 -0.0987  0.1253  0.5482
 7253SOL    HW122658   6.835   6.308   5.156 -1.8457 -1.4765 -1.0163
 7253SOL    HW222659   6.945   6.243   5.054  1.5048  0.9959  0.8258
 7254SOL     OW22660   1.227   2.589   3.466  0.6858 -0.1835 -0.4798
 7254SOL    HW122661   1.217   2.609   3.368  0.8749 -1.6188 -0.8113
 7254SOL    HW222662   1.142   2.611   3.513  1.2685  2.5990 -0.5549
 7255SOL     OW22663   5.036   3.969   2.562  0.2227  0.4641  0.0536
 7255SOL    HW122664   5.042   4.030   2.642 -0.7309 -0.1360  0.6010
 7255SOL    HW222665   5.120   3.916   2.554  1.2411  2.0949 -0.6561
 7256SOL     OW22666   3.775   6.572   3.763  0.5009  0.0995  0.0168
 7256SOL    HW122667   3.738   6.535   3.678  2.6209 -1.4059 -0.3273
 7256SOL    HW222668   3.707   6.563   3.836 -0.1795 -1.6405 -0.7886
 7257SOL     OW22669   1.005   1.959   4.254 -0.5896 -0.1264  0.4712
 7257SOL    HW122670   0.968   1.923   4.168  0.0227 -2.0055  0.9349
 7257SOL    HW222671   1.019   1.884   4.318 -0.6963  1.1963  2.1123
 7258SOL     OW22672   1.566   6.630   2.952 -0.8680 -0.4177 -0.0192
 7258SOL    HW122673   1.510   6.579   2.887  1.4770 -3.5530  0.1614
 7258SOL    HW222674   1.646   6.667   2.905 -1.0907  0.6622  0.4206
 7259SOL     OW22675   0.079   2.326   2.667 -0.3373 -0.0969  0.5064
 7259SOL    HW122676   0.010   2.351   2.598  2.6087  0.7410 -2.3708
 7259SOL    HW222677   0.129   2.407   2.696  1.8829 -1.0884 -0.3561
 7260SOL     OW22678   5.262   2.365   0.181  0.5933  0.0998  0.7516
 7260SOL    HW122679   5.278   2.352   0.083 -1.8094  3.7564 -0.3399
 7260SOL    HW222680   5.336   2.420   0.220  1.6949 -1.5905  1.1406
 7261SOL     OW22681   6.316   3.850   2.460 -0.5679 -0.4169 -0.2898
 7261SOL    HW122682   6.259   3.901   2.524 -0.7041 -1.6704  0.6232
 7261SOL    HW222683   6.259   3.811   2.387 -0.9813 -1.9827  0.8261
 7262SOL     OW22684   3.517   6.090   4.429  0.0229 -0.1031 -0.7034
 7262SOL    HW122685   3.453   6.162   4.457 -0.6463 -0.6080 -0.9094
 7262SOL    HW222686   3.497   6.063   4.335  0.6592 -0.1503 -0.8314
 7263SOL     OW22687   6.359   5.605   7.020 -0.0916  0.0484 -0.6613
 7263SOL    HW122688   6.438   5.647   7.064  0.1201  0.1847 -1.1630
 7263SOL    HW222689   6.292   5.577   7.089  0.2332  0.2657 -0.2613
 7264SOL     OW22690   4.636   0.500   0.408  0.7155 -0.2932  0.1564
 7264SOL    HW122691   4.634   0.414   0.358 -0.7382  0.5595 -1.3257
 7264SOL    HW222692   4.690   0.568   0.357 -0.0049  0.3181  0.1953
 7265SOL     OW22693   4.054   0.011   4.154 -0.3583  0.4437 -0.0656
 7265SOL    HW122694   4.088   0.034   4.246  1.7802 -1.7089 -0.2410
 7265SOL    HW222695   4.114   0.052   4.085  0.1417 -0.8571 -0.4267
 7266SOL     OW22696   1.745   6.894   1.678  0.0698 -0.0426  0.0610
 7266SOL    HW122697   1.711   6.839   1.754  0.5107  2.1656  1.9442
 7266SOL    HW222698   1.668   6.921   1.619 -0.4567 -0.6881  0.4367
 7267SOL     OW22699   5.304   4.807   4.620  0.4182 -0.2556 -0.5654
 7267SOL    HW122700   5.309   4.732   4.553 -0.8766  0.3171 -1.3233
 7267SOL    HW222701   5.363   4.882   4.591  0.3462 -0.2650 -0.7347
 7268SOL     OW22702   5.254   0.228   4.815 -0.1947  0.1487 -0.3825
 7268SOL    HW122703   5.209   0.235   4.904 -0.8621 -0.6094 -0.6481
 7268SOL    HW222704   5.203   0.165   4.757  0.5177  0.2477 -1.1326
 7269SOL     OW22705   0.608   6.717   4.454  0.3751 -0.4506 -0.0915
 7269SOL    HW122706   0.706   6.710   4.471  1.0440  0.2649 -3.0137
 7269SOL    HW222707   0.592   6.782   4.379 -2.1542 -1.9423 -0.9833
 7270SOL     OW22708   6.605   0.927   4.795 -0.1032  0.2657  0.0246
 7270SOL    HW122709   6.634   0.989   4.868 -0.1282 -0.3222  0.5406
 7270SOL    HW222710   6.609   0.975   4.707  0.7133  0.7371  0.3047
 7271SOL     OW22711   1.391   5.639   3.315 -0.0937 -0.5549  0.7392
 7271SOL    HW122712   1.484   5.604   3.316 -0.0168 -0.3567  0.5972
 7271SOL    HW222713   1.375   5.690   3.230 -0.2146 -0.2747  0.9287
 7272SOL     OW22714   0.980   5.195   1.290  0.6241  0.0571 -0.2668
 7272SOL    HW122715   0.893   5.215   1.245  0.3643 -1.5547 -0.5168
 7272SOL    HW222716   1.047   5.267   1.267 -1.1046  2.3653  1.4014
 7273SOL     OW22717   6.443   6.846   4.145 -0.2242 -0.2274 -0.2693
 7273SOL    HW122718   6.533   6.807   4.127 -0.1989  0.2313 -1.2472
 7273SOL    HW222719   6.380   6.819   4.071 -0.2085  1.5089 -0.9679
 7274SOL     OW22720   0.840   4.481   6.458  0.1951  0.1472 -0.4592
 7274SOL    HW122721   0.819   4.383   6.465  0.9733  0.0234  0.2433
 7274SOL    HW222722   0.860   4.518   6.549  0.9174  0.7290 -0.8425
 7275SOL     OW22723   1.105   4.635   2.827 -0.6981 -0.5815  0.0176
 7275SOL    HW122724   1.052   4.705   2.875  0.3116  0.2384 -0.0174
 7275SOL    HW222725   1.047   4.556   2.809 -2.6636  1.2023 -2.2445
 7276SOL     OW22726   2.649   6.359   2.472  0.1187  0.0066  0.1221
 7276SOL    HW122727   2.644   6.318   2.381 -0.5615  1.1744 -0.3758
 7276SOL    HW222728   2.695   6.295   2.534  2.5712  0.0347 -1.5203
 7277SOL     OW22729   2.672   1.520   6.294  0.1341 -0.2592  0.6708
 7277SOL    HW122730   2.663   1.588   6.221 -0.5728 -0.6383  0.3956
 7277SOL    HW222731   2.724   1.560   6.370 -0.5991  0.7265  0.6764
 7278SOL     OW22732   2.947   3.260   3.330 -0.4652  0.0813 -0.2866
 7278SOL    HW122733   3.045   3.278   3.323 -0.5188  0.5607  0.1908
 7278SOL    HW222734   2.909   3.307   3.410 -0.9154 -0.8517  0.0587
 7279SOL     OW22735   2.443   5.327   5.248 -0.3949  0.7308 -0.6711
 7279SOL    HW122736   2.539   5.346   5.268 -0.2160 -1.2837  0.6008
 7279SOL    HW222737   2.402   5.276   5.323 -2.6147  1.9221 -0.9915
 7280SOL     OW22738   4.460   6.110   6.180  0.1266 -0.6216 -0.2057
 7280SOL    HW122739   4.406   6.194   6.177 -0.8856 -1.2595 -0.2837
 7280SOL    HW222740   4.535   6.116   6.114 -0.0803  0.1191 -0.3819
 7281SOL     OW22741   5.572   0.645   0.412  0.1591  0.0266  0.8747
 7281SOL    HW122742   5.664   0.672   0.438  0.8352 -0.8856 -0.4723
 7281SOL    HW222743   5.574   0.557   0.365 -1.5211 -0.4518  1.6192
 7282SOL     OW22744   5.901   5.457   4.149 -0.1216  0.4786 -0.4129
 7282SOL    HW122745   5.975   5.467   4.083  0.4755 -0.8678  0.0386
 7282SOL    HW222746   5.882   5.360   4.165 -1.0154  0.7916  0.5541
 7283SOL     OW22747   3.324   6.958   4.183  0.2710  0.8036 -0.3760
 7283SOL    HW122748   3.309   7.051   4.216  0.1872  0.5218  0.3821
 7283SOL    HW222749   3.354   6.962   4.087 -0.3528  1.5725 -0.5493
 7284SOL     OW22750   1.415   1.502   3.168 -0.0848 -0.0522  0.4611
 7284SOL    HW122751   1.412   1.600   3.189  1.9224  0.0303  0.5250
 7284SOL    HW222752   1.361   1.484   3.087  0.0083  1.2179  0.0887
 7285SOL     OW22753   0.319   4.585   2.298 -0.0355  0.2914 -0.0259
 7285SOL    HW122754   0.414   4.560   2.312  0.2928  2.7169  2.9594
 7285SOL    HW222755   0.261   4.506   2.319  1.2245 -1.0504 -1.3643
 7286SOL     OW22756   3.351   4.330   0.407  0.1871  0.2546  0.0715
 7286SOL    HW122757   3.347   4.271   0.327 -0.0123 -0.0418  0.3001
 7286SOL    HW222758   3.422   4.400   0.394 -1.4746  1.7596 -1.4348
 7287SOL     OW22759   6.566   0.751   6.999  0.3186 -0.5116  0.4572
 7287SOL    HW122760   6.603   0.703   7.078  0.4667 -0.1869  0.5831
 7287SOL    HW222761   6.583   0.849   7.007  0.5547 -0.5038 -0.0932
 7288SOL     OW22762   5.139   0.406   6.358  0.2080  0.1130 -0.6481
 7288SOL    HW122763   5.046   0.370   6.366  0.2363  0.2901  0.8548
 7288SOL    HW222764   5.138   0.504   6.380  0.4199  0.6772 -2.8621
 7289SOL     OW22765   4.931   2.291   2.753  0.1929  0.5178 -0.1016
 7289SOL    HW122766   4.963   2.202   2.722 -0.8269  0.1336 -0.0892
 7289SOL    HW222767   4.995   2.327   2.821 -0.2294 -0.9699  1.1397
 7290SOL     OW22768   1.564   0.757   4.317 -0.2136  0.0828  0.2307
 7290SOL    HW122769   1.594   0.675   4.365  2.6441  0.8749  0.0041
 7290SOL    HW222770   1.632   0.830   4.331 -2.0133  2.0100 -0.6212
 7291SOL     OW22771   5.050   4.700   2.776 -0.2197  0.2242 -0.5137
 7291SOL    HW122772   5.086   4.623   2.828 -0.4766  0.0414 -0.6034
 7291SOL    HW222773   4.953   4.710   2.794  0.1237  1.5363  0.7434
 7292SOL     OW22774   3.641   1.232   4.689  0.1134  0.1483 -0.0483
 7292SOL    HW122775   3.559   1.176   4.695  0.7506 -1.0695 -1.9437
 7292SOL    HW222776   3.721   1.176   4.712  0.6833  0.4940 -1.1268
 7293SOL     OW22777   3.545   0.710   4.576  0.5200  0.0264  0.2490
 7293SOL    HW122778   3.456   0.671   4.550  0.3908  1.4505 -1.7392
 7293SOL    HW222779   3.545   0.732   4.673 -1.3870  0.1190  0.2678
 7294SOL     OW22780   5.277   4.376   5.796 -0.6843 -0.3970 -0.4513
 7294SOL    HW122781   5.187   4.414   5.773 -0.2494  0.1542 -1.3030
 7294SOL    HW222782   5.343   4.403   5.726  0.0129 -1.3220 -0.1677
 7295SOL     OW22783   3.808   6.505   3.029  0.0650  0.0865  0.6176
 7295SOL    HW122784   3.760   6.436   2.976  0.1868  0.0832  0.5117
 7295SOL    HW222785   3.856   6.568   2.967  0.8694 -0.3911  0.7453
 7296SOL     OW22786   4.819   4.614   1.650  0.2770 -0.0762  0.5674
 7296SOL    HW122787   4.880   4.547   1.692  1.4655  0.4109 -0.3369
 7296SOL    HW222788   4.758   4.568   1.585  1.7745 -0.1830 -0.8119
 7297SOL     OW22789   4.373   6.935   2.205 -0.3271  0.0954 -0.8538
 7297SOL    HW122790   4.415   7.022   2.181  0.0230 -0.3600 -1.9385
 7297SOL    HW222791   4.444   6.867   2.224 -0.5684  0.4373  1.6673
 7298SOL     OW22792   6.341   2.443   4.267  0.5648  0.5654 -0.1320
 7298SOL    HW122793   6.352   2.510   4.340 -0.1194 -1.0597  1.5081
 7298SOL    HW222794   6.385   2.357   4.292 -1.1122 -0.5750 -0.8743
 7299SOL     OW22795   4.836   2.929   6.082 -0.1354  0.3202 -0.3657
 7299SOL    HW122796   4.784   2.956   6.163  0.0998 -0.3070  0.0022
 7299SOL    HW222797   4.906   2.863   6.108  0.3985  0.6387 -0.9718
 7300SOL     OW22798   4.947   5.976   1.633 -0.1648  0.1986  0.0222
 7300SOL    HW122799   5.015   5.933   1.574  2.5525  0.2446  2.9148
 7300SOL    HW222800   4.913   5.909   1.699  0.7956  1.3453  1.7299
 7301SOL     OW22801   6.516   1.092   0.998  0.0415  0.2025 -0.3291
 7301SOL    HW122802   6.493   0.995   1.000 -0.3616  0.2961 -0.4006
 7301SOL    HW222803   6.486   1.135   1.083  0.4597  0.2161 -0.1814
 7302SOL     OW22804   0.968   1.190   4.696 -0.2508  0.1336 -0.1849
 7302SOL    HW122805   1.045   1.133   4.666 -0.2383  0.5882 -1.0818
 7302SOL    HW222806   0.893   1.182   4.630 -0.9013 -0.1449  0.5766
 7303SOL     OW22807   5.000   0.401   2.723 -0.4114 -0.0388 -0.6443
 7303SOL    HW122808   4.997   0.356   2.811 -3.1160  0.6839 -0.2782
 7303SOL    HW222809   4.958   0.343   2.654  0.9377 -0.2496 -1.3325
 7304SOL     OW22810   4.069   3.970   6.394 -0.1160 -0.4368  0.3831
 7304SOL    HW122811   4.005   3.924   6.456 -1.4938  1.4592  0.4811
 7304SOL    HW222812   4.030   3.972   6.302 -0.7435  1.5987  0.6409
 7305SOL     OW22813   6.944   3.835   4.703 -0.4376 -0.4685 -0.9708
 7305SOL    HW122814   6.848   3.808   4.711  0.4163 -3.5863  0.2989
 7305SOL    HW222815   6.966   3.903   4.773 -1.4733 -0.4469 -0.6538
 7306SOL     OW22816   3.792   5.519   1.154 -0.7779 -0.3119 -0.3150
 7306SOL    HW122817   3.705   5.495   1.111 -1.5082 -0.9683  1.4000
 7306SOL    HW222818   3.844   5.435   1.173 -1.1080 -0.1841  1.2792
 7307SOL     OW22819   2.776   1.069   1.754 -0.4279 -0.0849 -0.0973
 7307SOL    HW122820   2.744   1.041   1.845 -0.4170 -2.6380 -0.8138
 7307SOL    HW222821   2.817   0.991   1.708  0.6099  1.4477 -1.8934
 7308SOL     OW22822   4.700   0.898   3.962 -0.0167 -0.0668 -0.1116
 7308SOL    HW122823   4.756   0.981   3.970  0.6431 -0.4381 -0.6920
 7308SOL    HW222824   4.641   0.889   4.042 -2.1963  2.4683 -1.2839
 7309SOL     OW22825   3.932   5.816   0.055  0.4287 -0.1355 -0.0185
 7309SOL    HW122826   4.010   5.827  -0.006  0.0287  1.2084 -0.3206
 7309SOL    HW222827   3.847   5.819   0.002  0.1284 -0.7055  0.4087
 7310SOL     OW22828   1.974   5.624   2.359  0.8062 -0.1120  0.3396
 7310SOL    HW122829   1.924   5.565   2.296 -0.4093  0.0607  1.1062
 7310SOL    HW222830   1.944   5.719   2.346  0.3748 -0.1047  1.3231
 7311SOL     OW22831   3.290   2.654   1.451 -0.0569 -0.4441  0.2270
 7311SOL    HW122832   3.348   2.633   1.529 -2.0143  0.3056  1.9842
 7311SOL    HW222833   3.205   2.696   1.483 -0.5495  0.7525 -2.4006
 7312SOL     OW22834   0.870   0.918   0.601 -0.0228 -0.0394 -0.0823
 7312SOL    HW122835   0.797   0.864   0.559  0.8695 -0.9126 -0.5361
 7312SOL    HW222836   0.837   1.011   0.618 -1.0045 -0.2068 -0.9741
 7313SOL     OW22837   4.391   2.775   0.131  0.1545  0.3586  0.1200
 7313SOL    HW122838   4.402   2.699   0.066 -0.0187  0.5434 -0.1279
 7313SOL    HW222839   4.469   2.777   0.193  0.0956 -0.1097  0.2190
 7314SOL     OW22840   6.782   1.848   6.465  0.2241  0.2999  0.1608
 7314SOL    HW122841   6.817   1.877   6.375  1.3654 -1.0777  0.1279
 7314SOL    HW222842   6.832   1.767   6.495 -0.4186  0.5122  1.8787
 7315SOL     OW22843   0.365   1.845   0.156 -0.4218  0.2207 -0.3602
 7315SOL    HW122844   0.266   1.841   0.159 -0.5138  2.1859  1.1313
 7315SOL    HW222845   0.398   1.915   0.219  1.9576 -0.7380 -0.4075
 7316SOL     OW22846   3.266   3.534   2.894  0.5577  0.4283 -0.3232
 7316SOL    HW122847   3.266   3.558   2.797  0.3892 -0.2239 -0.4883
 7316SOL    HW222848   3.182   3.483   2.916  2.1210 -2.5156 -0.6247
 7317SOL     OW22849   3.999   0.229   3.737  0.4818  0.7112  0.1539
 7317SOL    HW122850   4.027   0.286   3.660 -0.9880  1.4584  0.1336
 7317SOL    HW222851   3.916   0.267   3.778  0.9131  0.0040  1.7553
 7318SOL     OW22852   0.535   1.010   1.545 -0.1259  0.0403 -0.0741
 7318SOL    HW122853   0.597   0.940   1.581  1.0220 -0.0065 -2.0015
 7318SOL    HW222854   0.447   0.969   1.524  0.0642 -0.4966  0.1478
 7319SOL     OW22855   7.007   4.380   5.907  0.2225  0.8540  0.9266
 7319SOL    HW122856   7.087   4.329   5.876  1.2949  1.9185  1.8079
 7319SOL    HW222857   7.015   4.475   5.877 -1.9743  0.4586 -1.1127
 7320SOL     OW22858   6.427   1.295   2.545 -0.3578 -0.0454  0.2729
 7320SOL    HW122859   6.382   1.381   2.521 -0.8709 -1.0826 -3.0949
 7320SOL    HW222860   6.359   1.221   2.549  0.4256 -0.8050 -0.0498
 7321SOL     OW22861   3.010   0.513   5.083  0.0354  0.2434  0.5260
 7321SOL    HW122862   2.982   0.580   5.152 -0.6205 -0.8267  1.3296
 7321SOL    HW222863   3.100   0.476   5.107 -0.7513 -1.0752  1.5604
 7322SOL     OW22864   0.929   2.719   1.030  0.0212 -0.6479  0.1545
 7322SOL    HW122865   0.977   2.647   0.980  0.1853 -1.8728  1.9445
 7322SOL    HW222866   0.845   2.744   0.982 -0.2169 -2.3054 -0.3522
 7323SOL     OW22867   3.855   4.828   2.752 -0.3600  0.2458  0.6657
 7323SOL    HW122868   3.942   4.833   2.702 -0.6138  1.1115  0.3029
 7323SOL    HW222869   3.870   4.779   2.839  0.7650  1.4337  1.1770
 7324SOL     OW22870   4.535   6.215   3.535  0.3541 -0.2554  0.1211
 7324SOL    HW122871   4.510   6.307   3.564  1.1543 -0.1074  0.3512
 7324SOL    HW222872   4.464   6.150   3.564  0.2108  0.1622  0.7074
 7325SOL     OW22873   3.065   0.954   2.413 -0.5574  0.8388 -0.5426
 7325SOL    HW122874   3.041   1.001   2.498  1.5739  0.6934  0.2096
 7325SOL    HW222875   3.094   0.860   2.434  1.2569  1.2032 -1.2105
 7326SOL     OW22876   2.024   6.571   3.206 -0.1081  0.6993 -0.4155
 7326SOL    HW122877   2.003   6.589   3.110  1.4265  1.5208 -0.6362
 7326SOL    HW222878   2.023   6.473   3.222 -0.2694  0.5419 -1.3003
 7327SOL     OW22879   1.826   1.949   6.643 -0.1214  0.1544 -0.0819
 7327SOL    HW122880   1.865   1.882   6.707 -1.3768  1.8236  2.5865
 7327SOL    HW222881   1.876   2.035   6.651 -0.3048  0.4013 -1.4004
 7328SOL     OW22882   3.064   6.819   6.501 -0.3412 -0.8837  0.3120
 7328SOL    HW122883   3.102   6.895   6.448  0.3371 -0.2029  1.7191
 7328SOL    HW222884   2.983   6.850   6.551  0.5169 -0.7688  1.6852
 7329SOL     OW22885   5.560   2.329   1.809 -0.1268 -0.0900  0.3185
 7329SOL    HW122886   5.619   2.382   1.870  0.7967 -0.9639  0.2088
 7329SOL    HW222887   5.494   2.391   1.765  1.5461  1.1762 -0.5421
 7330SOL     OW22888   4.411   3.304   1.790 -0.1760  0.2248 -0.5438
 7330SOL    HW122889   4.342   3.326   1.859 -0.4237 -1.4284 -0.2129
 7330SOL    HW222890   4.489   3.261   1.835  1.7454  3.2377 -0.7109
 7331SOL     OW22891   0.062   2.214   2.212  0.0660 -0.9767 -0.2275
 7331SOL    HW122892   0.035   2.213   2.116 -0.5590 -2.9243 -0.0594
 7331SOL    HW222893   0.056   2.122   2.250  2.4391 -0.6684  1.1149
 7332SOL     OW22894   5.276   6.644   1.210 -0.2024 -0.2262 -0.0165
 7332SOL    HW122895   5.190   6.596   1.191  0.5511 -1.6232 -0.0344
 7332SOL    HW222896   5.310   6.616   1.299 -0.7861  1.9143  0.9401
 7333SOL     OW22897   1.019   4.599   0.633 -0.6190  1.0081 -0.0689
 7333SOL    HW122898   0.963   4.676   0.604  0.7280  2.1511  0.2261
 7333SOL    HW222899   1.044   4.610   0.729 -2.7207 -1.2845  0.8315
 7334SOL     OW22900   1.447   6.950   3.878 -0.4907 -0.5649 -0.4566
 7334SOL    HW122901   1.498   6.865   3.862 -2.9028 -1.9418 -1.3927
 7334SOL    HW222902   1.497   7.027   3.841  0.8955 -1.8379 -1.3243
 7335SOL     OW22903   1.046   2.207   2.870  0.2432  0.5639 -0.1690
 7335SOL    HW122904   1.118   2.275   2.884  0.4760  0.0989  1.0010
 7335SOL    HW222905   1.043   2.145   2.949 -0.4069 -0.3733 -0.9130
 7336SOL     OW22906   0.444   6.671   6.938  0.3105 -0.3208 -0.1097
 7336SOL    HW122907   0.447   6.708   6.845 -1.2714 -1.6222 -0.7250
 7336SOL    HW222908   0.390   6.587   6.938 -0.5702  0.1977  2.1789
 7337SOL     OW22909   5.312   1.930   1.761 -0.2254 -0.5815  0.2011
 7337SOL    HW122910   5.273   1.898   1.847  0.3947  1.1307  1.1659
 7337SOL    HW222911   5.412   1.928   1.767 -0.1814  0.0814 -0.2840
 7338SOL     OW22912   1.137   2.942   1.362 -0.3263  0.3124 -0.0384
 7338SOL    HW122913   1.067   2.915   1.428 -1.5859 -0.1557 -1.4861
 7338SOL    HW222914   1.208   2.872   1.358  0.0794  0.6290  1.2072
 7339SOL     OW22915   1.923   3.241   3.679  0.0078  0.1475 -0.2104
 7339SOL    HW122916   1.952   3.270   3.770 -0.6731 -1.4173  0.5482
 7339SOL    HW222917   1.863   3.310   3.639  1.8885  1.7854 -0.3509
 7340SOL     OW22918   3.488   1.443   5.837 -0.4839 -0.0717  0.4731
 7340SOL    HW122919   3.528   1.406   5.753 -0.6533 -0.2097  0.4523
 7340SOL    HW222920   3.540   1.523   5.866 -0.9435  0.5035 -0.2478
 7341SOL     OW22921   6.901   1.578   6.545 -0.2902  0.1874  0.0563
 7341SOL    HW122922   6.853   1.492   6.526  0.1908 -0.4008  1.3841
 7341SOL    HW222923   6.931   1.579   6.641 -0.1794  1.7887  0.0313
 7342SOL     OW22924   5.811   4.478   1.159  0.2448  0.2622 -0.4443
 7342SOL    HW122925   5.809   4.536   1.077 -0.2477  0.1486 -0.5174
 7342SOL    HW222926   5.900   4.433   1.165  0.2537  0.1909 -0.9813
 7343SOL     OW22927   6.242   2.888   0.598  0.0818 -0.4422  0.4362
 7343SOL    HW122928   6.342   2.879   0.598  0.1470 -0.1757 -2.0674
 7343SOL    HW222929   6.201   2.801   0.623  0.9398 -1.3165 -1.0774
 7344SOL     OW22930   1.530   0.212   5.943 -0.8523  0.1194 -0.1749
 7344SOL    HW122931   1.490   0.276   5.878  0.2387  2.8916  1.6618
 7344SOL    HW222932   1.623   0.188   5.913 -0.3686  1.3523  0.2481
 7345SOL     OW22933   5.438   6.739   0.676  0.4384  0.2688  0.7594
 7345SOL    HW122934   5.418   6.694   0.589 -1.0408  1.3850  0.4902
 7345SOL    HW222935   5.495   6.820   0.660  1.3826 -0.3264  1.0159
 7346SOL     OW22936   4.542   4.485   2.175  0.0413  0.3631 -0.3823
 7346SOL    HW122937   4.509   4.433   2.097 -2.4607  0.4208  0.5472
 7346SOL    HW222938   4.568   4.577   2.146 -2.4170  0.9499 -1.0044
 7347SOL     OW22939   5.047   6.284   5.674  0.2543  0.8203  0.0239
 7347SOL    HW122940   5.012   6.362   5.726 -0.6118  2.0728 -2.2438
 7347SOL    HW222941   4.975   6.215   5.666  1.2514 -0.6467  2.6445
 7348SOL     OW22942   1.415   6.717   1.676 -0.2371  0.1257 -0.2272
 7348SOL    HW122943   1.349   6.644   1.658  0.7254 -0.7231 -0.4521
 7348SOL    HW222944   1.502   6.676   1.705  0.5383  1.1599 -1.0281
 7349SOL     OW22945   3.979   1.664   1.844 -0.4374 -0.4692  0.3020
 7349SOL    HW122946   4.058   1.627   1.795 -0.7633 -0.5905 -0.1352
 7349SOL    HW222947   4.011   1.721   1.920  0.0828  0.0134 -0.2635
 7350SOL     OW22948   3.193   1.718   5.750 -0.3515 -0.2191 -0.6585
 7350SOL    HW122949   3.187   1.701   5.848 -0.5834  0.7609 -0.4975
 7350SOL    HW222950   3.114   1.771   5.720  0.3841  0.6462 -1.1131
 7351SOL     OW22951   2.502   4.673   5.155 -0.4140  0.5820 -0.4978
 7351SOL    HW122952   2.578   4.609   5.148 -0.0344  1.0790 -0.9945
 7351SOL    HW222953   2.523   4.743   5.224 -0.3190  0.8528 -0.7988
 7352SOL     OW22954   5.686   3.019   4.389  0.2579  0.3206 -0.6661
 7352SOL    HW122955   5.780   2.985   4.393  0.1357  0.0887  0.9296
 7352SOL    HW222956   5.676   3.081   4.311  1.5679 -0.1285 -1.2084
 7353SOL     OW22957   6.671   1.367   5.478 -0.5846 -0.1626  0.5561
 7353SOL    HW122958   6.698   1.273   5.499 -1.1553 -0.0732  1.7521
 7353SOL    HW222959   6.743   1.430   5.508 -1.7517  0.0294  3.1867
 7354SOL     OW22960   0.814   0.405   4.126 -0.0742  0.2695  0.2237
 7354SOL    HW122961   0.770   0.477   4.073 -0.9097 -0.1903  0.2816
 7354SOL    HW222962   0.845   0.441   4.214 -2.2065  0.1507  1.0802
 7355SOL     OW22963   3.199   0.826   0.496 -0.6090 -0.0207  0.0032
 7355SOL    HW122964   3.130   0.874   0.550 -1.8982 -1.1466 -0.5925
 7355SOL    HW222965   3.171   0.827   0.400  0.7343  0.3756 -0.4017
 7356SOL     OW22966   3.376   0.245   6.532  0.3235  0.3553 -0.2071
 7356SOL    HW122967   3.315   0.218   6.607  0.1254  1.8636  0.2099
 7356SOL    HW222968   3.328   0.310   6.473  0.9781  0.2820 -0.8156
 7357SOL     OW22969   2.818   0.040   2.915  0.3742  0.6171 -0.5719
 7357SOL    HW122970   2.846  -0.032   2.978 -1.3178 -0.0843 -0.5725
 7357SOL    HW222971   2.792   0.122   2.968 -0.5084  0.2172 -0.3639
 7358SOL     OW22972   4.224   0.451   3.849  0.5611 -0.1512  0.1039
 7358SOL    HW122973   4.218   0.376   3.783  0.0971  0.3453 -0.4230
 7358SOL    HW222974   4.165   0.526   3.820  2.0153  0.9668 -0.1028
 7359SOL     OW22975   6.079   5.901   2.143  0.3455 -0.2276  0.9653
 7359SOL    HW122976   5.998   5.959   2.145 -1.2815 -2.3419  0.9194
 7359SOL    HW222977   6.089   5.863   2.051  2.4878  1.3848  0.4805
 7360SOL     OW22978   3.162   4.714   5.457  0.3613  0.3945 -0.1597
 7360SOL    HW122979   3.135   4.777   5.383  2.0154 -0.0923 -1.2345
 7360SOL    HW222980   3.220   4.642   5.419 -0.5012 -1.1144  1.2727
 7361SOL     OW22981   5.736   6.426   3.012  0.0865 -0.2577 -0.4481
 7361SOL    HW122982   5.783   6.514   3.006 -1.2941  0.4494 -1.3069
 7361SOL    HW222983   5.637   6.441   3.017 -0.3307 -1.7946 -2.7565
 7362SOL     OW22984   3.843   6.103   1.352  0.4412  0.3438  0.4562
 7362SOL    HW122985   3.869   6.175   1.417  1.4234  1.8403 -1.5101
 7362SOL    HW222986   3.915   6.094   1.283  0.1408 -2.2729  0.3866
 7363SOL     OW22987   4.583   1.341   0.956  0.5329 -0.5324  0.0261
 7363SOL    HW122988   4.547   1.364   0.866 -0.0575 -2.8619 -0.3916
 7363SOL    HW222989   4.647   1.265   0.948  0.7866 -0.5063  1.5243
 7364SOL     OW22990   5.098   5.003   1.241  0.0190 -0.4088  0.3905
 7364SOL    HW122991   5.066   5.097   1.255 -2.0754 -1.1055  0.6272
 7364SOL    HW222992   5.149   4.973   1.322  1.5634  0.7884 -0.0673
 7365SOL     OW22993   4.973   4.059   1.146 -0.6701 -0.0427  0.2923
 7365SOL    HW122994   4.937   4.136   1.199  1.9098  1.4042  0.1091
 7365SOL    HW222995   5.007   3.989   1.208  0.0950  0.5410  0.5527
 7366SOL     OW22996   3.495   6.354   3.088 -0.4920  0.0028  0.3061
 7366SOL    HW122997   3.476   6.307   3.001  0.7683 -0.8923  0.4878
 7366SOL    HW222998   3.529   6.446   3.069  0.4498 -0.4285 -0.2078
 7367SOL     OW22999   5.367   1.878   0.590  0.3836  0.3163  0.8890
 7367SOL    HW123000   5.446   1.836   0.635  0.0858 -1.5247 -0.2328
 7367SOL    HW223001   5.291   1.884   0.655  0.4722 -0.7926  1.1192
 7368SOL     OW23002   3.281   3.082   3.377 -0.1133  0.3867  0.3379
 7368SOL    HW123003   3.371   3.071   3.418 -0.5259 -2.0805  0.7538
 7368SOL    HW223004   3.211   3.050   3.442 -1.1650  0.7480 -0.5819
 7369SOL     OW23005   4.545   4.575   6.547 -0.4997 -0.8751  0.5480
 7369SOL    HW123006   4.582   4.618   6.465 -1.6253 -4.1604 -1.9083
 7369SOL    HW223007   4.619   4.535   6.601  0.1251 -0.3038  0.1143
 7370SOL     OW23008   1.283   0.322   4.925  0.0242 -0.5141  0.1901
 7370SOL    HW123009   1.194   0.290   4.894 -0.0496 -0.0549 -0.0687
 7370SOL    HW223010   1.309   0.405   4.876 -0.0839  0.2171  1.3298
 7371SOL     OW23011   5.098   5.613   3.329  0.1295  0.0980  0.2120
 7371SOL    HW123012   5.189   5.649   3.308 -0.0644 -0.2190 -1.2866
 7371SOL    HW223013   5.033   5.647   3.261 -1.0708  1.0322  1.7579
 7372SOL     OW23014   5.557   2.669   5.217 -0.1758  0.3424  0.1904
 7372SOL    HW123015   5.463   2.704   5.219 -0.9254 -1.2121 -2.7354
 7372SOL    HW223016   5.585   2.653   5.123  2.3465 -1.0660  1.0809
 7373SOL     OW23017   0.221   3.930   3.996  0.0953 -0.0559  0.0859
 7373SOL    HW123018   0.245   3.922   4.092 -0.6531 -2.0822  0.1603
 7373SOL    HW223019   0.294   3.890   3.940  1.1906  2.3605 -0.3459
 7374SOL     OW23020   0.551   4.102   5.865 -0.3769 -0.2502  0.0010
 7374SOL    HW123021   0.620   4.149   5.811  0.8807 -0.5954  1.2600
 7374SOL    HW223022   0.541   4.147   5.953 -4.0167  1.6959 -1.1940
 7375SOL     OW23023   3.524   1.745   6.654  0.6887  0.1210  0.8044
 7375SOL    HW123024   3.493   1.775   6.564 -0.1956 -1.1968  0.6516
 7375SOL    HW223025   3.615   1.783   6.672 -0.1986  2.5498  0.4870
 7376SOL     OW23026   5.671   4.134   7.012  0.7169  0.5455 -0.1526
 7376SOL    HW123027   5.767   4.135   6.983  0.9083  0.6576  0.4571
 7376SOL    HW223028   5.644   4.040   7.033  0.1120  0.2399 -2.1413
 7377SOL     OW23029   3.227   0.187   1.614 -0.7584 -0.3886 -0.1527
 7377SOL    HW123030   3.135   0.169   1.650 -0.7538  0.2725  0.2038
 7377SOL    HW223031   3.235   0.146   1.523 -1.5636 -0.0814 -0.3764
 7378SOL     OW23032   0.444   6.314   5.385  0.4543  0.1099 -0.4807
 7378SOL    HW123033   0.368   6.321   5.321  1.0476  1.2717 -1.0906
 7378SOL    HW223034   0.444   6.223   5.427 -0.1779 -0.5380 -1.8206
 7379SOL     OW23035   5.284   2.255   2.027 -0.0014 -0.3855  0.8122
 7379SOL    HW123036   5.312   2.334   2.082  1.2826  0.6508 -1.2151
 7379SOL    HW223037   5.350   2.181   2.039 -0.4593 -0.6731  1.6564
 7380SOL     OW23038   5.057   3.399   0.911  0.5523  0.2650  0.4358
 7380SOL    HW123039   5.098   3.348   0.987  0.6398 -1.1995 -0.5613
 7380SOL    HW223040   5.129   3.438   0.855  0.5527 -0.4260 -0.0579
 7381SOL     OW23041   1.945   6.389   0.257 -0.3145 -0.0748 -0.0754
 7381SOL    HW123042   2.027   6.446   0.258  0.0993 -0.6656  0.4675
 7381SOL    HW223043   1.914   6.377   0.163 -0.0388  0.5261 -0.2444
 7382SOL     OW23044   1.254   1.861   6.840  0.2817  0.1995 -0.0429
 7382SOL    HW123045   1.215   1.946   6.875  1.1747  0.2885  0.7940
 7382SOL    HW223046   1.192   1.785   6.859 -1.8494  0.9333 -3.1829
 7383SOL     OW23047   2.549   0.338   0.669  0.3759  0.5169 -0.2167
 7383SOL    HW123048   2.545   0.242   0.641  0.3652  0.7430 -1.0052
 7383SOL    HW223049   2.609   0.389   0.607  3.0232  0.4130  2.0489
 7384SOL     OW23050   0.685   0.272   1.031  0.0201  0.5788  0.1726
 7384SOL    HW123051   0.661   0.357   1.079 -0.2622  1.6018 -1.6778
 7384SOL    HW223052   0.605   0.213   1.024  0.4150 -0.2949  2.2227
 7385SOL     OW23053   7.017   4.455   3.107  0.3265  0.2211  0.5830
 7385SOL    HW123054   7.029   4.416   3.198 -1.2200  0.2988  0.8533
 7385SOL    HW223055   6.922   4.485   3.096  0.6061  0.6544 -0.8885
 7386SOL     OW23056   5.708   5.256   0.397  0.1510 -0.4788 -0.6564
 7386SOL    HW123057   5.616   5.256   0.437  0.6995  2.3307  0.9107
 7386SOL    HW223058   5.768   5.197   0.452 -0.4127 -1.2926 -0.9037
 7387SOL     OW23059   6.722   5.019   3.476 -0.5645  0.1489 -0.5311
 7387SOL    HW123060   6.772   4.934   3.454  0.4703  0.4480  0.5458
 7387SOL    HW223061   6.786   5.085   3.517 -1.8184  0.5961  0.7825
 7388SOL     OW23062   2.310   5.151   2.395 -0.4324 -0.6190 -0.4472
 7388SOL    HW123063   2.346   5.058   2.403 -0.9329 -1.0217 -2.4232
 7388SOL    HW223064   2.242   5.166   2.467 -0.7777 -2.0075 -0.4460
 7389SOL     OW23065   1.693   1.766   0.026  0.7402  0.0099  0.1342
 7389SOL    HW123066   1.659   1.688   0.078 -1.6786  1.9683  1.7405
 7389SOL    HW223067   1.636   1.779  -0.055  2.6938 -1.2695 -1.5573
 7390SOL     OW23068   3.078   2.076   3.814  0.0519  0.2325  0.2635
 7390SOL    HW123069   3.011   2.005   3.835 -0.4263  0.8863  0.9986
 7390SOL    HW223070   3.110   2.118   3.899  1.8615 -0.4771 -0.0159
 7391SOL     OW23071   1.731   3.536   1.572  0.9140 -0.6981 -0.2299
 7391SOL    HW123072   1.757   3.463   1.635  0.1873 -0.7101  0.0664
 7391SOL    HW223073   1.769   3.623   1.604 -1.4096 -0.2626  1.6042
 7392SOL     OW23074   4.884   6.769   6.727  0.3922 -0.4365 -0.0192
 7392SOL    HW123075   4.861   6.810   6.639  1.9693 -1.0714 -0.7487
 7392SOL    HW223076   4.807   6.783   6.790  0.1656  2.1166 -0.7278
 7393SOL     OW23077   4.156   4.819   4.027  0.1921  0.1001 -0.1373
 7393SOL    HW123078   4.197   4.910   4.020 -0.3227  0.2511 -1.4842
 7393SOL    HW223079   4.227   4.752   4.049  0.6441  0.7617  0.4563
 7394SOL     OW23080   2.013   1.616   0.890  0.0721 -0.3452  0.2961
 7394SOL    HW123081   2.019   1.676   0.810  1.2350  0.1363  0.7190
 7394SOL    HW223082   1.969   1.664   0.965  0.6706 -0.1309  0.5187
 7395SOL     OW23083   2.180   6.167   0.050 -0.5525 -0.1646 -0.3541
 7395SOL    HW123084   2.227   6.221   0.120  0.5100 -0.9016 -0.4813
 7395SOL    HW223085   2.145   6.083   0.090  0.2480 -0.6907 -0.7453
 7396SOL     OW23086   1.943   2.844   2.171 -0.1720 -0.4021 -0.0399
 7396SOL    HW123087   1.907   2.885   2.087 -0.1001 -0.9944 -0.3666
 7396SOL    HW223088   1.868   2.805   2.224 -0.0618 -1.4195 -0.6021
 7397SOL     OW23089   0.865   4.707   5.262 -0.0575 -0.0466  0.0169
 7397SOL    HW123090   0.926   4.668   5.331  0.2509 -1.4814 -1.0238
 7397SOL    HW223091   0.919   4.748   5.188 -0.2858 -1.8464 -1.2059
 7398SOL     OW23092   2.467   6.820   3.107  0.2234 -0.1523 -0.1745
 7398SOL    HW123093   2.490   6.887   3.036 -1.5920  1.7457  0.9381
 7398SOL    HW223094   2.412   6.748   3.067 -1.9870  1.6341 -0.5349
 7399SOL     OW23095   1.288   1.452   6.253  0.7455  0.9849 -0.2002
 7399SOL    HW123096   1.365   1.403   6.213  1.7911  1.1147  1.5825
 7399SOL    HW223097   1.321   1.520   6.318 -0.8825  0.7085  0.9792
 7400SOL     OW23098   4.661   1.976   5.423 -0.3024  0.0464  0.3268
 7400SOL    HW123099   4.713   2.056   5.454 -0.6009 -0.1536  1.3735
 7400SOL    HW223100   4.719   1.895   5.426 -0.3753  0.0010  0.5028
 7401SOL     OW23101   3.701   1.732   4.158 -0.3520 -0.0139  0.4906
 7401SOL    HW123102   3.737   1.648   4.196 -0.2809  0.2591  1.0313
 7401SOL    HW223103   3.755   1.810   4.190 -2.2434  0.5780  2.5153
 7402SOL     OW23104   3.556   6.705   5.042 -0.0713 -0.4170  0.4293
 7402SOL    HW123105   3.479   6.656   5.084 -1.6363  0.5686 -1.1575
 7402SOL    HW223106   3.575   6.788   5.094 -0.6352 -0.2441  0.3680
 7403SOL     OW23107   0.300   6.810   4.174 -0.0797 -0.4793  0.0854
 7403SOL    HW123108   0.251   6.854   4.099  0.9165  0.8075  0.1413
 7403SOL    HW223109   0.399   6.817   4.158  0.1594 -0.1476  1.5140
 7404SOL     OW23110   0.109   3.033   1.381  0.0542 -0.4326  0.4066
 7404SOL    HW123111   0.145   3.115   1.423 -1.4877  0.1118  0.7470
 7404SOL    HW223112   0.018   3.013   1.418 -0.2232 -1.4548 -0.7212
 7405SOL     OW23113   1.898   6.996   4.308  0.2115 -0.3941  0.2839
 7405SOL    HW123114   1.965   7.070   4.305 -1.1766  1.3033  4.3605
 7405SOL    HW223115   1.944   6.909   4.325  1.5247  0.5424  1.7351
 7406SOL     OW23116   0.916   1.420   3.969  0.0790 -0.7890  0.0309
 7406SOL    HW123117   0.818   1.439   3.975 -0.2490 -1.9359 -1.1353
 7406SOL    HW223118   0.931   1.321   3.971  1.0864 -0.6870 -1.2457
 7407SOL     OW23119   1.967   4.690   3.443  0.5076 -0.6739  0.0636
 7407SOL    HW123120   2.054   4.642   3.452  0.7333 -0.2087  0.3929
 7407SOL    HW223121   1.893   4.631   3.476  0.7673 -0.8493  0.3417
 7408SOL     OW23122   2.946   1.000   5.379  0.5023 -0.3429  0.4036
 7408SOL    HW123123   2.867   1.059   5.362 -0.6372 -1.5508  1.2994
 7408SOL    HW223124   2.959   0.991   5.478  1.1024 -1.0142  0.2647
 7409SOL     OW23125   5.247   3.645   0.728 -0.0163 -0.5051 -0.3984
 7409SOL    HW123126   5.263   3.743   0.742 -0.2044 -0.3081 -1.4659
 7409SOL    HW223127   5.210   3.630   0.636  1.3703 -1.7240 -0.7879
 7410SOL     OW23128   6.503   1.814   6.323 -0.2982 -0.5687 -0.0401
 7410SOL    HW123129   6.502   1.724   6.368  0.6584 -1.1591 -1.1628
 7410SOL    HW223130   6.521   1.885   6.392 -4.2692 -0.7725  1.5085
 7411SOL     OW23131   3.298   1.183   5.253 -0.3098 -0.0468 -0.4322
 7411SOL    HW123132   3.252   1.098   5.278  0.8060 -0.0203  2.0348
 7411SOL    HW223133   3.291   1.248   5.328  2.3303  0.5318 -0.5686
 7412SOL     OW23134   4.580   6.752   0.748 -0.3818  0.1316  0.2428
 7412SOL    HW123135   4.634   6.699   0.814 -1.4273 -0.5250  0.6082
 7412SOL    HW223136   4.486   6.760   0.782 -1.1658 -0.9432 -1.5319
 7413SOL     OW23137   3.985   1.208   4.494 -0.3517  0.0642  0.3200
 7413SOL    HW123138   3.919   1.283   4.497  0.6856  1.0647 -0.6153
 7413SOL    HW223139   4.072   1.243   4.460  0.6425 -1.2421  1.4639
 7414SOL     OW23140   3.929   1.571   5.543  0.0517  0.1424  0.3143
 7414SOL    HW123141   3.915   1.483   5.590 -0.2598  0.6439  1.1929
 7414SOL    HW223142   3.956   1.554   5.448 -1.9027 -0.9167 -0.1212
 7415SOL     OW23143   4.444   0.202   5.134  0.8290 -0.5303  0.0889
 7415SOL    HW123144   4.499   0.125   5.101  2.0708  0.6760 -0.7833
 7415SOL    HW223145   4.442   0.203   5.234  2.0732 -0.8359  0.1235
 7416SOL     OW23146   5.292   0.381   1.346  0.1845 -0.2569 -0.0563
 7416SOL    HW123147   5.214   0.412   1.401  0.5858  3.1988 -1.1415
 7416SOL    HW223148   5.377   0.402   1.394  0.4794 -0.3310 -0.5402
 7417SOL     OW23149   6.762   1.143   3.291 -0.3023  0.4515 -0.0661
 7417SOL    HW123150   6.673   1.142   3.245  0.0310  1.4173 -0.7600
 7417SOL    HW223151   6.749   1.141   3.390 -1.0216 -2.3586 -0.1422
 7418SOL     OW23152   0.469   3.122   6.314  0.6521  0.1276  0.7960
 7418SOL    HW123153   0.536   3.116   6.388  1.0124 -2.3260  0.3704
 7418SOL    HW223154   0.383   3.082   6.344  0.3809  0.3465  0.3189
 7419SOL     OW23155   5.642   3.276   3.738 -0.9003 -0.1560  1.1716
 7419SOL    HW123156   5.551   3.235   3.744 -0.9089 -0.1991  0.7378
 7419SOL    HW223157   5.696   3.228   3.669 -0.3301 -0.5446  1.8682
 7420SOL     OW23158   4.908   0.279   6.391 -0.7195  0.1422 -0.0579
 7420SOL    HW123159   4.888   0.281   6.293  0.0168 -2.1929 -0.3260
 7420SOL    HW223160   4.833   0.233   6.439 -0.1018 -0.6844  0.1432
 7421SOL     OW23161   6.531   5.735   0.934  0.1723 -0.1431  0.6617
 7421SOL    HW123162   6.572   5.659   0.884 -2.0872 -1.3134  0.4296
 7421SOL    HW223163   6.441   5.707   0.967 -0.3429  2.1658  1.3477
 7422SOL     OW23164   1.189   3.259   2.028  0.4271 -0.3677  0.3625
 7422SOL    HW123165   1.118   3.312   1.981 -1.2632 -2.9165 -0.1448
 7422SOL    HW223166   1.205   3.299   2.118 -1.6783  0.3127  0.4964
 7423SOL     OW23167   3.715   2.470   6.855  0.0629 -0.2694  0.3897
 7423SOL    HW123168   3.734   2.388   6.910 -0.3210  1.5669  3.4556
 7423SOL    HW223169   3.684   2.442   6.764 -0.0615 -3.5228  1.3096
 7424SOL     OW23170   1.271   1.277   3.836 -0.0769  0.0704  0.2433
 7424SOL    HW123171   1.304   1.361   3.793 -0.3910 -0.3554 -0.8564
 7424SOL    HW223172   1.322   1.262   3.921  1.9104 -0.0459 -0.8917
 7425SOL     OW23173   3.169   1.449   0.258  0.7278  0.1533  0.2293
 7425SOL    HW123174   3.238   1.443   0.331  0.3314  0.9569  0.6796
 7425SOL    HW223175   3.100   1.378   0.271  1.0206 -0.1335  0.2431
 7426SOL     OW23176   3.435   3.096   4.049  0.3510  0.4649  0.2558
 7426SOL    HW123177   3.463   3.000   4.052 -0.1025  0.3489  2.2314
 7426SOL    HW223178   3.351   3.105   3.996  1.1703  0.0260 -1.1779
 7427SOL     OW23179   3.491   6.469   1.188 -0.4153 -0.3905 -0.5498
 7427SOL    HW123180   3.413   6.502   1.242 -0.9534 -0.0075 -1.5043
 7427SOL    HW223181   3.531   6.547   1.139  0.3810 -0.6433 -0.3035
 7428SOL     OW23182   6.323   6.709   6.024  0.1453  0.0927 -0.8739
 7428SOL    HW123183   6.353   6.774   5.955 -1.5389  1.0123 -0.8069
 7428SOL    HW223184   6.225   6.692   6.012 -0.1273  0.0578  1.1009
 7429SOL     OW23185   2.635   6.795   2.379 -0.8183  0.9564  0.4733
 7429SOL    HW123186   2.610   6.844   2.462  0.2206  0.0783  1.3343
 7429SOL    HW223187   2.706   6.846   2.330  0.4156  0.2494  1.4771
 7430SOL     OW23188   6.374   2.843   1.492 -0.2688 -0.3012  0.1653
 7430SOL    HW123189   6.294   2.801   1.536 -1.1779 -0.0126 -1.1300
 7430SOL    HW223190   6.448   2.852   1.558 -1.2793 -0.6586  1.3877
 7431SOL     OW23191   1.579   1.842   3.801  0.2440 -0.4428 -0.0706
 7431SOL    HW123192   1.643   1.807   3.871 -0.0823 -1.8559 -0.4522
 7431SOL    HW223193   1.561   1.770   3.734 -2.0834 -0.2392  0.2520
 7432SOL     OW23194   6.546   2.827   1.217 -0.1533  0.0285  0.5293
 7432SOL    HW123195   6.447   2.820   1.204 -0.0309  0.1081 -0.6062
 7432SOL    HW223196   6.567   2.831   1.314 -1.2526 -0.1764  0.7896
 7433SOL     OW23197   2.925   0.311   5.554 -0.3932 -0.2109 -0.0506
 7433SOL    HW123198   2.986   0.316   5.633  1.3039  1.7358 -1.3689
 7433SOL    HW223199   2.893   0.403   5.531 -0.3642 -0.6373 -1.9702
 7434SOL     OW23200   3.221   6.112   3.188 -0.0031 -0.7028 -0.2077
 7434SOL    HW123201   3.254   6.018   3.180  0.3195 -0.4602 -2.0834
 7434SOL    HW223202   3.293   6.170   3.227 -0.3237 -1.2703  1.2805
 7435SOL     OW23203   4.812   5.615   3.233 -0.0618 -0.8783  0.1458
 7435SOL    HW123204   4.776   5.702   3.199  0.8508  0.3914  2.2063
 7435SOL    HW223205   4.794   5.607   3.331  0.6455 -2.6167  0.1730
 7436SOL     OW23206   3.904   2.923   5.688  0.2039 -0.0028 -0.2439
 7436SOL    HW123207   3.819   2.881   5.721  0.0631  1.3949  1.3110
 7436SOL    HW223208   3.912   2.907   5.589 -1.6600 -0.5106 -0.3672
 7437SOL     OW23209   4.276   0.680   1.134 -0.3877  0.2820 -0.4643
 7437SOL    HW123210   4.367   0.643   1.115 -0.6477 -0.5312 -0.1647
 7437SOL    HW223211   4.271   0.774   1.102  1.0282  0.8231  0.8058
 7438SOL     OW23212   1.085   0.269   6.312 -0.0263  0.6035 -0.2043
 7438SOL    HW123213   1.125   0.347   6.360  0.0259  0.3640  0.1447
 7438SOL    HW223214   1.092   0.283   6.213 -1.0193  1.5523 -0.1569
 7439SOL     OW23215   0.929   4.400   4.256  0.4599  0.2269 -0.0530
 7439SOL    HW123216   0.937   4.447   4.343  1.7126  1.2964 -0.7168
 7439SOL    HW223217   0.840   4.419   4.215  0.2452  0.5078  0.5441
 7440SOL     OW23218   5.633   4.781   5.396  0.5785  0.1179 -0.5433
 7440SOL    HW123219   5.716   4.821   5.356  2.3346 -1.7618  0.9657
 7440SOL    HW223220   5.614   4.694   5.350 -2.2393  1.7087 -2.7021
 7441SOL     OW23221   6.704   6.113   6.471 -0.0092  0.1920 -0.0711
 7441SOL    HW123222   6.652   6.037   6.509  2.0352 -1.0436  0.4143
 7441SOL    HW223223   6.654   6.152   6.394 -0.6585 -2.3329 -1.0283
 7442SOL     OW23224   0.457   5.006   6.868  0.1004  0.5731 -0.1660
 7442SOL    HW123225   0.407   4.949   6.802 -0.6995 -0.4320  1.2417
 7442SOL    HW223226   0.515   4.947   6.924 -1.1843  1.0275  1.7150
 7443SOL     OW23227   0.084   5.598   2.384  0.2829 -0.0320  0.1116
 7443SOL    HW123228   0.080   5.606   2.284  0.8507  2.1316  0.2126
 7443SOL    HW223229  -0.002   5.632   2.423 -1.0509 -3.3203  0.3375
 7444SOL     OW23230   6.424   4.867   6.204 -0.0944  0.4891 -0.2786
 7444SOL    HW123231   6.473   4.943   6.161 -0.4188  0.5596 -0.5228
 7444SOL    HW223232   6.373   4.900   6.283 -1.0241  0.7174 -0.9553
 7445SOL     OW23233   6.591   5.383   1.949  0.6243  0.3880  0.0859
 7445SOL    HW123234   6.617   5.370   1.854  1.0503 -1.7702  0.4394
 7445SOL    HW223235   6.492   5.371   1.959  0.5658  0.7156 -0.0898
 7446SOL     OW23236   0.010   3.451   1.438  0.0955 -1.1470  0.1163
 7446SOL    HW123237  -0.075   3.398   1.442 -0.6152 -0.1701 -1.1805
 7446SOL    HW223238   0.059   3.430   1.353  1.8953 -2.7212  1.4649
 7447SOL     OW23239   5.892   4.692   0.384 -0.4432  0.0799  0.0195
 7447SOL    HW123240   5.920   4.596   0.372  1.5437  0.6514 -0.2191
 7447SOL    HW223241   5.964   4.742   0.431 -1.2566  1.5771 -0.2815
 7448SOL     OW23242   4.653   5.461   6.128 -0.3163 -0.0318 -0.3217
 7448SOL    HW123243   4.635   5.524   6.052 -0.9391  1.2881  0.8788
 7448SOL    HW223244   4.739   5.487   6.173  1.2147 -2.1390 -1.8493
 7449SOL     OW23245   4.791   6.796   4.792 -0.4029 -0.0912 -0.7552
 7449SOL    HW123246   4.700   6.781   4.755 -0.3341 -0.8452 -0.6281
 7449SOL    HW223247   4.811   6.726   4.861 -0.0576  0.5719 -0.1685
 7450SOL     OW23248   0.124   0.848   0.953  0.1525 -0.2818 -0.1320
 7450SOL    HW123249   0.188   0.827   0.879 -0.2263 -1.9573 -0.0313
 7450SOL    HW223250   0.159   0.925   1.007  0.0198  1.5516 -2.5193
 7451SOL     OW23251   4.244   6.308   2.717 -0.2832 -0.2509  0.3132
 7451SOL    HW123252   4.265   6.318   2.619 -0.0441 -1.0226  0.2772
 7451SOL    HW223253   4.186   6.227   2.729 -0.9576  0.2906  0.7255
 7452SOL     OW23254   5.281   6.098   6.117 -0.2737 -0.2798 -0.1641
 7452SOL    HW123255   5.320   6.116   6.028 -0.1012  2.1160  0.3275
 7452SOL    HW223256   5.279   6.183   6.171 -0.3212 -1.6496  2.1293
 7453SOL     OW23257   5.042   5.157   6.956  0.3836  0.0311 -0.4638
 7453SOL    HW123258   5.055   5.178   6.859 -0.1446  1.8848 -0.1574
 7453SOL    HW223259   4.945   5.147   6.975  0.4475  0.3220  0.0109
 7454SOL     OW23260   3.194   1.255   3.099 -0.0114 -0.3395  0.5317
 7454SOL    HW123261   3.239   1.313   3.167 -0.9549  0.5299  0.4424
 7454SOL    HW223262   3.112   1.215   3.140 -2.0762  2.2631 -0.7685
 7455SOL     OW23263   5.392   0.200   2.005 -0.3906  0.1352 -0.0369
 7455SOL    HW123264   5.313   0.202   2.066 -0.8510  1.7385 -0.6306
 7455SOL    HW223265   5.468   0.249   2.047 -0.7641  1.3938 -0.7807
 7456SOL     OW23266   4.930   0.677   5.853  0.3207  0.1200 -0.2148
 7456SOL    HW123267   4.835   0.688   5.824  0.8664  2.5936 -1.3630
 7456SOL    HW223268   4.933   0.663   5.952 -1.2389 -0.7588 -0.2528
 7457SOL     OW23269   0.753   3.436   1.855 -0.1159  0.0027 -0.7150
 7457SOL    HW123270   0.685   3.475   1.793 -0.9511  0.1429  0.2585
 7457SOL    HW223271   0.728   3.458   1.950  1.5831  0.5310 -0.3488
 7458SOL     OW23272   5.777   4.941   6.646 -0.6686  0.5108  0.0596
 7458SOL    HW123273   5.864   4.970   6.606 -0.1340  2.0378  2.1300
 7458SOL    HW223274   5.790   4.926   6.744 -1.9850 -2.6779 -0.1439
 7459SOL     OW23275   5.955   6.428   2.380  0.4302 -0.6351 -1.0257
 7459SOL    HW123276   6.013   6.501   2.347  1.7114 -0.6822  0.9228
 7459SOL    HW223277   5.864   6.464   2.401  1.5925  0.9836  1.8011
 7460SOL     OW23278   6.168   0.896   1.939  0.4174 -0.1229 -0.5849
 7460SOL    HW123279   6.264   0.914   1.961 -0.9412  2.6528  4.5518
 7460SOL    HW223280   6.138   0.959   1.868  1.6806  1.2272  0.0280
 7461SOL     OW23281   6.872   5.979   5.129 -0.0808 -0.4801 -0.3987
 7461SOL    HW123282   6.882   5.888   5.170 -0.3343 -0.9372 -1.3320
 7461SOL    HW223283   6.941   5.991   5.058 -0.0642  0.0544 -0.2982
 7462SOL     OW23284   1.832   4.294   1.180  0.4276  0.1407 -0.0342
 7462SOL    HW123285   1.851   4.206   1.225  3.3325  1.2650  1.2517
 7462SOL    HW223286   1.848   4.368   1.246  0.2073  1.7022 -1.6743
 7463SOL     OW23287   4.638   5.371   6.943  0.2259 -0.0196 -0.0377
 7463SOL    HW123288   4.692   5.289   6.958 -0.4560 -0.5387 -0.3689
 7463SOL    HW223289   4.593   5.366   6.854 -1.4575 -0.2465  0.7765
 7464SOL     OW23290   5.186   5.134   5.809 -0.1468  1.3091  0.3147
 7464SOL    HW123291   5.278   5.164   5.783  0.1883  0.9902  1.1094
 7464SOL    HW223292   5.119   5.176   5.747  0.5941  0.8421 -0.8406
 7465SOL     OW23293   2.269   4.089   0.297  0.3628 -0.1674 -0.1742
 7465SOL    HW123294   2.199   4.151   0.334  1.3988  1.6719 -1.1549
 7465SOL    HW223295   2.326   4.054   0.372  0.5839  1.1428  0.2905
 7466SOL     OW23296   6.913   0.857   6.900 -0.1610 -0.0292 -0.6262
 7466SOL    HW123297   6.958   0.776   6.862 -1.1413 -1.0339  0.2873
 7466SOL    HW223298   6.825   0.870   6.855  0.5520  1.3372 -1.6956
 7467SOL     OW23299   2.275   2.535   5.456 -0.5119  0.6022  0.2568
 7467SOL    HW123300   2.299   2.632   5.459  0.1613  0.4259  2.6665
 7467SOL    HW223301   2.357   2.480   5.467 -1.2520 -0.1247  2.8224
 7468SOL     OW23302   5.818   2.599   5.881 -0.4482 -0.3178 -0.0838
 7468SOL    HW123303   5.909   2.582   5.917  0.8752  1.1793 -2.4524
 7468SOL    HW223304   5.770   2.665   5.939  1.3402  1.5071 -0.5662
 7469SOL     OW23305   0.715   2.356   0.206 -0.1989  0.3981 -0.9969
 7469SOL    HW123306   0.802   2.352   0.157 -0.1396 -0.1845 -0.8540
 7469SOL    HW223307   0.729   2.401   0.294  0.3474 -1.2350 -0.2104
 7470SOL     OW23308   5.587   2.063   2.762  0.0733  0.0805 -0.2444
 7470SOL    HW123309   5.668   2.118   2.784  0.2834 -0.4264  0.2607
 7470SOL    HW223310   5.545   2.031   2.847 -1.0196  0.8520 -0.4777
 7471SOL     OW23311   2.109   0.370   6.537  0.0366  0.1399 -0.3396
 7471SOL    HW123312   2.018   0.394   6.503 -0.0966  2.0992  1.2319
 7471SOL    HW223313   2.178   0.397   6.470 -0.4011  0.9904 -0.4620
 7472SOL     OW23314   6.037   6.651   5.997 -0.0997 -0.5978 -0.7844
 7472SOL    HW123315   6.016   6.615   5.906 -0.2650  0.1581 -1.0555
 7472SOL    HW223316   5.972   6.724   6.020 -0.3671 -1.1178  0.1527
 7473SOL     OW23317   3.389   6.715   4.001  0.1128  0.2171  0.4138
 7473SOL    HW123318   3.299   6.707   3.960  1.3343  0.6761 -2.6195
 7473SOL    HW223319   3.431   6.801   3.974  2.1105 -0.7293  0.2779
 7474SOL     OW23320   5.096   1.612   0.677  0.1559  0.3297  0.1231
 7474SOL    HW123321   5.180   1.572   0.715  0.1358  0.9994  0.8817
 7474SOL    HW223322   5.092   1.591   0.579  1.4707  0.6977 -0.0408
 7475SOL     OW23323   4.903   3.172   0.286 -0.3368  0.1523 -0.2511
 7475SOL    HW123324   4.943   3.193   0.376 -0.5170  0.3106 -0.2065
 7475SOL    HW223325   4.826   3.235   0.269  0.4036  0.8672 -1.0113
 7476SOL     OW23326   3.505   1.632   1.869 -0.2108  0.1590  0.5182
 7476SOL    HW123327   3.432   1.660   1.806 -0.1943  1.3430  1.0152
 7476SOL    HW223328   3.533   1.709   1.925  0.7407 -0.5399  1.0381
 7477SOL     OW23329   2.003   4.077   5.433  0.8671  0.2826 -0.0657
 7477SOL    HW123330   2.053   4.074   5.346  0.7783  2.7350 -0.2774
 7477SOL    HW223331   1.924   4.138   5.423 -0.0601 -0.6462  1.3178
 7478SOL     OW23332   2.493   2.530   5.772  0.1477 -0.2578  0.3950
 7478SOL    HW123333   2.511   2.515   5.675  1.5220  0.5792  0.4887
 7478SOL    HW223334   2.458   2.446   5.813  0.6549 -0.9719 -0.5877
 7479SOL     OW23335   4.733   2.123   2.203  0.3038  0.2205 -0.1480
 7479SOL    HW123336   4.661   2.161   2.261  0.2349  0.1912 -0.2148
 7479SOL    HW223337   4.726   2.162   2.112  1.8125  2.0364  0.4581
 7480SOL     OW23338   3.623   5.004   3.196 -0.0837 -0.5049 -0.5498
 7480SOL    HW123339   3.710   4.975   3.156  0.4061 -1.3869  1.0671
 7480SOL    HW223340   3.622   5.104   3.202  0.6726 -0.4681 -0.8805
 7481SOL     OW23341   0.794   2.953   1.382  0.4334  0.3093  0.0975
 7481SOL    HW123342   0.826   2.941   1.476 -1.5541  1.5428  0.9881
 7481SOL    HW223343   0.822   3.043   1.348  1.0170 -0.0736 -0.4657
 7482SOL     OW23344   5.221   2.079   4.385 -0.3258  0.4879 -0.5246
 7482SOL    HW123345   5.152   2.044   4.448 -0.3663 -0.1962 -0.9312
 7482SOL    HW223346   5.299   2.114   4.437  0.2850 -1.3890 -0.0865
 7483SOL     OW23347   6.748   5.941   0.070  0.3988 -0.7159  0.2047
 7483SOL    HW123348   6.720   5.976  -0.019  1.6842 -1.4206 -0.5026
 7483SOL    HW223349   6.732   5.843   0.074  0.4792 -0.7128  0.6987
 7484SOL     OW23350   2.615   0.766   2.883 -0.1959 -0.1677 -0.4476
 7484SOL    HW123351   2.518   0.777   2.906 -0.0693  0.5385 -0.2153
 7484SOL    HW223352   2.631   0.801   2.790 -0.1289 -0.0986 -0.4101
 7485SOL     OW23353   3.911   1.522   4.793 -0.6922  0.0775  0.3151
 7485SOL    HW123354   3.822   1.503   4.833 -0.9310 -3.1718 -1.4085
 7485SOL    HW223355   3.980   1.461   4.834  0.0780  0.3683 -0.4980
 7486SOL     OW23356   3.850   4.034   6.764  0.6336  1.2418 -0.3330
 7486SOL    HW123357   3.892   3.943   6.762 -0.7689  0.5352  0.7649
 7486SOL    HW223358   3.922   4.104   6.755  1.6149  0.0600 -2.6925
 7487SOL     OW23359   2.636   1.264   5.068  0.0659 -0.1954  0.6798
 7487SOL    HW123360   2.674   1.217   4.988  0.6311 -1.0933  1.4714
 7487SOL    HW223361   2.536   1.263   5.062  0.1042  0.4043 -0.3860
 7488SOL     OW23362   2.957   6.623   4.071  0.1140 -0.2724  0.1085
 7488SOL    HW123363   2.877   6.611   4.011  0.1670 -1.0599  0.1804
 7488SOL    HW223364   3.030   6.562   4.041 -0.6520 -2.4639  2.3186
 7489SOL     OW23365   0.449   2.399   6.374  0.1195  0.0119 -0.4286
 7489SOL    HW123366   0.499   2.473   6.419  0.5562 -0.5732  0.0686
 7489SOL    HW223367   0.356   2.429   6.354 -0.5371 -0.1198  2.0634
 7490SOL     OW23368   2.530   0.763   3.432  0.4838 -0.4072  0.2870
 7490SOL    HW123369   2.596   0.724   3.496  1.7088  1.0571  0.0032
 7490SOL    HW223370   2.531   0.710   3.347 -0.5091 -1.8348  1.1440
 7491SOL     OW23371   6.105   2.797   5.271 -0.8574 -0.1065  0.2909
 7491SOL    HW123372   6.191   2.839   5.300 -1.6151  2.1786 -0.5082
 7491SOL    HW223373   6.034   2.816   5.339 -1.3869  0.5887 -0.4387
 7492SOL     OW23374   0.875   0.795   3.298  0.3285 -0.4291 -0.1858
 7492SOL    HW123375   0.839   0.702   3.292 -0.9144  0.0144  0.0777
 7492SOL    HW223376   0.910   0.812   3.390  1.0581 -0.8008 -0.3879
 7493SOL     OW23377   5.810   3.898   2.930 -0.2578 -0.2613  0.0075
 7493SOL    HW123378   5.896   3.851   2.950  0.3771  0.7958 -0.1643
 7493SOL    HW223379   5.820   3.947   2.843 -0.3919  1.3866  0.8994
 7494SOL     OW23380   5.203   0.664   2.536 -0.0605  0.2167 -0.1311
 7494SOL    HW123381   5.244   0.695   2.622 -1.5104 -0.9935  1.0611
 7494SOL    HW223382   5.110   0.701   2.528  0.1357  0.4888 -1.2883
 7495SOL     OW23383   2.320   0.885   3.722 -0.3105  0.0406  0.0749
 7495SOL    HW123384   2.370   0.938   3.653 -0.8898 -1.3506 -1.4871
 7495SOL    HW223385   2.382   0.822   3.767 -0.0036  0.6955  0.5901
 7496SOL     OW23386   6.080   3.745   2.914  0.9333 -0.0227 -0.0573
 7496SOL    HW123387   6.147   3.815   2.890 -0.8420  0.7192 -3.5699
 7496SOL    HW223388   6.110   3.657   2.879  0.7648  0.0572 -0.4193
 7497SOL     OW23389   4.544   1.495   6.439  0.0311  0.2601  0.0608
 7497SOL    HW123390   4.603   1.436   6.383 -1.3445 -0.0586 -1.1210
 7497SOL    HW223391   4.507   1.569   6.383  0.2527  1.1709  1.0781
 7498SOL     OW23392   3.111   5.017   1.868  0.4557 -0.5166 -0.1420
 7498SOL    HW123393   3.194   4.962   1.883  1.3464  0.3914 -1.5969
 7498SOL    HW223394   3.095   5.029   1.770 -1.7145 -1.0882  0.0760
 7499SOL     OW23395   3.429   2.093   4.064 -0.7577  0.1380  0.0112
 7499SOL    HW123396   3.454   2.080   3.968 -1.0083  1.5862 -0.2587
 7499SOL    HW223397   3.341   2.140   4.070 -1.3684 -1.0611  0.9665
 7500SOL     OW23398   3.202   1.399   5.851  0.5799  0.0984  0.2126
 7500SOL    HW123399   3.140   1.361   5.783  0.6576 -0.1561  0.2810
 7500SOL    HW223400   3.277   1.447   5.805  1.5970 -1.5502  0.0372
 7501SOL     OW23401   6.403   1.682   4.719  0.4951 -0.0770 -0.0433
 7501SOL    HW123402   6.350   1.661   4.637  0.6728  0.9683 -0.4444
 7501SOL    HW223403   6.480   1.619   4.727 -0.0000 -0.7070 -0.2285
 7502SOL     OW23404   2.348   0.745   4.074  0.3635 -0.3146  0.3174
 7502SOL    HW123405   2.346   0.699   4.164 -1.2868  1.0290  1.0267
 7502SOL    HW223406   2.329   0.842   4.086  1.5182  0.1659 -1.3915
 7503SOL     OW23407   1.042   4.536   0.276  0.0952  0.0191  0.9822
 7503SOL    HW123408   1.048   4.474   0.354 -0.4766 -0.1423  0.9042
 7503SOL    HW223409   1.088   4.495   0.198 -2.0811 -1.3275  0.3045
 7504SOL     OW23410   5.744   6.157   4.909  0.7021  0.1414 -0.1295
 7504SOL    HW123411   5.746   6.132   4.812  2.0340  0.5819 -0.2363
 7504SOL    HW223412   5.772   6.252   4.920 -0.3116  0.3772  0.6298
 7505SOL     OW23413   1.276   6.466   1.642  0.5839 -0.1034 -0.7058
 7505SOL    HW123414   1.246   6.386   1.694 -0.7381  1.0304  0.3549
 7505SOL    HW223415   1.300   6.438   1.549  0.5385 -1.7781 -0.2442
 7506SOL     OW23416   4.905   1.987   4.188 -0.2417  0.8755  0.2765
 7506SOL    HW123417   4.826   2.032   4.229 -0.7052  0.1697  0.1736
 7506SOL    HW223418   4.977   2.055   4.171 -1.0152  1.6167 -0.1130
 7507SOL     OW23419   0.106   4.677   4.644 -0.5056 -0.1169  0.5376
 7507SOL    HW123420   0.152   4.669   4.556  0.7224  0.9994  1.0379
 7507SOL    HW223421   0.011   4.647   4.635 -0.0449 -1.2891 -0.8241
 7508SOL     OW23422   4.706   0.855   6.577 -0.0655 -0.0938  0.3355
 7508SOL    HW123423   4.770   0.779   6.591 -0.8157 -1.0266 -1.0554
 7508SOL    HW223424   4.613   0.819   6.569 -0.7804  1.2260  2.1146
 7509SOL     OW23425   5.964   4.131   2.752 -0.1920 -0.1608  0.0978
 7509SOL    HW123426   5.908   4.199   2.705 -1.2189 -1.3203 -0.4220
 7509SOL    HW223427   5.964   4.150   2.850 -1.2413  0.0517  0.0692
 7510SOL     OW23428   4.353   6.044   1.337 -0.5961  0.1139  0.5116
 7510SOL    HW123429   4.296   6.121   1.308 -0.7903  0.2299  1.1877
 7510SOL    HW223430   4.309   5.958   1.312 -0.1376  0.2173 -0.7053
 7511SOL     OW23431   3.322   6.683   4.300  0.1574 -0.4906 -0.0139
 7511SOL    HW123432   3.324   6.772   4.254  2.8548 -0.7300 -0.5331
 7511SOL    HW223433   3.255   6.685   4.374  0.3081  2.0523  0.1286
 7512SOL     OW23434   3.706   6.774   2.991 -0.2822  0.1845 -0.1228
 7512SOL    HW123435   3.760   6.736   2.916  1.2278 -0.2035  1.1335
 7512SOL    HW223436   3.746   6.861   3.020 -2.4476  1.7666 -1.5271
 7513SOL     OW23437   1.569   0.856   1.971  0.0910 -0.3786 -0.5935
 7513SOL    HW123438   1.501   0.917   2.010  0.6482  1.5142 -2.3734
 7513SOL    HW223439   1.561   0.857   1.871  0.9869 -2.2295 -0.7292
 7514SOL     OW23440   6.661   0.693   4.905 -0.1373 -0.0164  0.6263
 7514SOL    HW123441   6.656   0.770   4.842  0.0920  0.0990  0.7497
 7514SOL    HW223442   6.739   0.705   4.967 -0.3346 -0.1493  0.9035
 7515SOL     OW23443   4.450   5.584   5.133 -0.1431  0.4893 -0.4691
 7515SOL    HW123444   4.550   5.582   5.135 -0.1583  0.3507  0.7739
 7515SOL    HW223445   4.416   5.627   5.217 -1.0962  2.2057 -1.6720
 7516SOL     OW23446   3.064   6.242   1.728  0.1024  0.3164 -0.0800
 7516SOL    HW123447   3.014   6.252   1.814 -0.0974 -1.1514  0.0080
 7516SOL    HW223448   3.024   6.302   1.659  0.5223  1.8235  0.9321
 7517SOL     OW23449   1.729   2.984   6.861  0.4215 -0.0252 -0.0124
 7517SOL    HW123450   1.792   2.995   6.784  0.2912  0.9661  0.0127
 7517SOL    HW223451   1.709   2.887   6.874  2.0534 -0.3769  0.0791
 7518SOL     OW23452   3.938   2.072   5.887  0.2011 -0.4979 -0.0155
 7518SOL    HW123453   3.968   2.110   5.975 -1.4423 -1.4825  1.0195
 7518SOL    HW223454   3.981   1.982   5.874  1.0147 -0.0367 -0.5896
 7519SOL     OW23455   2.814   5.796   4.068  0.2320 -0.0101  0.1072
 7519SOL    HW123456   2.889   5.856   4.043  0.9294 -0.3020  1.3785
 7519SOL    HW223457   2.789   5.739   3.990  1.1264  0.3110 -0.4242
 7520SOL     OW23458   3.697   5.400   0.669  0.1090  0.3250  0.8911
 7520SOL    HW123459   3.673   5.497   0.665  0.7334  0.4604 -1.6892
 7520SOL    HW223460   3.789   5.390   0.706  0.9862  0.9979 -0.9656
 7521SOL     OW23461   3.448   2.799   5.101 -0.2466  0.2094 -0.0027
 7521SOL    HW123462   3.424   2.828   5.194  1.5500 -0.1775  0.6214
 7521SOL    HW223463   3.430   2.702   5.090  0.4928  0.0346  0.2889
 7522SOL     OW23464   1.030   4.273   4.666 -0.0986  0.4689 -0.1064
 7522SOL    HW123465   1.084   4.230   4.593 -0.5010  0.5116 -0.4330
 7522SOL    HW223466   1.002   4.364   4.637 -1.6794 -0.1506 -0.5942
 7523SOL     OW23467   6.177   2.108   7.006  0.5430  0.4722 -0.1800
 7523SOL    HW123468   6.132   2.105   7.095  0.3375  2.1102 -0.2017
 7523SOL    HW223469   6.129   2.172   6.947  1.0974 -0.0694 -1.2486
 7524SOL     OW23470   6.405   4.910   5.169 -0.5453 -0.2311  0.3867
 7524SOL    HW123471   6.421   4.844   5.095  2.1936 -0.8355  1.3872
 7524SOL    HW223472   6.352   4.987   5.134  0.3045 -0.6891 -2.1191
 7525SOL     OW23473   0.896   3.704   5.148 -0.5473 -0.5530  0.4453
 7525SOL    HW123474   0.992   3.719   5.172 -0.4591 -0.2585 -0.0758
 7525SOL    HW223475   0.853   3.792   5.129 -0.0856 -0.8745 -2.4444
 7526SOL     OW23476   0.517   3.842   2.223  0.0698 -0.0909  0.0342
 7526SOL    HW123477   0.544   3.894   2.304 -2.3268  0.4144  0.5824
 7526SOL    HW223478   0.473   3.757   2.252 -0.7744  0.0797 -0.7172
 7527SOL     OW23479   3.281   5.144   4.625  0.0453  0.3604 -0.4299
 7527SOL    HW123480   3.184   5.163   4.640  0.2068  0.6720  0.2562
 7527SOL    HW223481   3.292   5.092   4.541 -0.6900  0.6037 -0.6842
 7528SOL     OW23482   6.873   2.934   0.051  0.0017  0.6713  0.3464
 7528SOL    HW123483   6.898   2.984   0.134 -1.7137  0.1481  1.2361
 7528SOL    HW223484   6.858   2.838   0.074  1.5935  0.0577 -1.0162
 7529SOL     OW23485   4.849   1.997   3.325  0.2783 -0.2274  0.2481
 7529SOL    HW123486   4.931   1.974   3.272  0.9879 -1.0915  1.6523
 7529SOL    HW223487   4.768   1.980   3.269  0.9999 -0.9480 -0.6151
 7530SOL     OW23488   1.791   0.908   3.636  0.7227  0.2212 -0.3311
 7530SOL    HW123489   1.845   0.849   3.696  2.8639  0.1242 -2.2316
 7530SOL    HW223490   1.746   0.853   3.567 -1.3468  0.3846  0.8053
 7531SOL     OW23491   3.732   0.922   4.517 -0.0065 -0.3334  0.5174
 7531SOL    HW123492   3.678   0.839   4.520  0.6428 -0.7330  1.3390
 7531SOL    HW223493   3.745   0.950   4.421 -0.1976 -1.1799  0.2421
 7532SOL     OW23494   4.680   2.461   5.652  0.2671 -0.5645 -0.4292
 7532SOL    HW123495   4.637   2.409   5.725 -0.9015  1.7206  0.6294
 7532SOL    HW223496   4.650   2.426   5.563  0.1021 -2.0905  0.2027
 7533SOL     OW23497   4.127   4.134   1.268 -0.1398 -0.2844  0.0942
 7533SOL    HW123498   4.109   4.200   1.341 -1.0242 -0.8606  0.4200
 7533SOL    HW223499   4.073   4.157   1.187 -1.9595 -1.6321  0.8442
 7534SOL     OW23500   4.202   6.830   4.413 -0.5297 -0.4104  0.5114
 7534SOL    HW123501   4.269   6.784   4.355 -1.2043 -0.1753 -0.4787
 7534SOL    HW223502   4.211   6.929   4.402 -2.1697 -0.3664 -1.0405
 7535SOL     OW23503   7.015   0.746   5.425 -0.3698  0.0100  0.3616
 7535SOL    HW123504   7.074   0.666   5.434 -0.1370  0.3334  2.2135
 7535SOL    HW223505   6.920   0.718   5.435 -0.5267 -0.4166 -1.9499
 7536SOL     OW23506   0.121   1.594   3.907  0.7701  0.1984 -0.0113
 7536SOL    HW123507   0.100   1.669   3.844 -0.1938 -0.5290 -0.5882
 7536SOL    HW223508   0.161   1.518   3.856  2.3687  0.5375  0.6717
 7537SOL     OW23509   2.701   6.806   1.519 -0.0900  0.1412 -0.0971
 7537SOL    HW123510   2.734   6.757   1.439 -0.2369  0.4205 -0.3305
 7537SOL    HW223511   2.602   6.796   1.525  0.1843 -2.6261  1.8697
 7538SOL     OW23512   1.879   3.711   1.119 -0.3916  0.1138  0.1686
 7538SOL    HW123513   1.820   3.640   1.080 -1.9917  2.3384 -1.7453
 7538SOL    HW223514   1.909   3.772   1.046  2.4477  0.4161  1.4785
 7539SOL     OW23515   0.092   0.653   0.618 -0.0615  0.3688  0.1506
 7539SOL    HW123516   0.150   0.731   0.599  1.5561 -0.3530  1.8077
 7539SOL    HW223517   0.144   0.568   0.605 -1.2552 -0.3665  0.0105
 7540SOL     OW23518   4.726   5.604   5.122  0.3342  0.3626  0.3417
 7540SOL    HW123519   4.819   5.574   5.143  0.7731  1.0438 -0.5504
 7540SOL    HW223520   4.729   5.696   5.084 -0.5094 -0.3334 -1.5214
 7541SOL     OW23521   1.555   4.323   6.989 -0.3958 -0.5355  0.1131
 7541SOL    HW123522   1.548   4.321   7.089  1.9204  0.0904  0.3460
 7541SOL    HW223523   1.477   4.276   6.949 -1.3514 -0.8429  2.2123
 7542SOL     OW23524   6.487   1.589   5.425  0.2103 -0.5796  0.1199
 7542SOL    HW123525   6.505   1.663   5.490  0.7226 -0.3262 -0.3089
 7542SOL    HW223526   6.556   1.518   5.435  0.6202 -0.2813 -0.5245
 7543SOL     OW23527   1.525   1.697   1.004  0.7994 -0.1515 -0.1663
 7543SOL    HW123528   1.567   1.615   0.965  1.5039  0.6860 -1.2446
 7543SOL    HW223529   1.443   1.672   1.055 -0.0290 -1.3639 -1.9964
 7544SOL     OW23530   1.198   2.069   4.078  0.1888  0.1413  0.2476
 7544SOL    HW123531   1.148   2.052   3.993  1.7266 -1.1019 -0.4810
 7544SOL    HW223532   1.150   2.026   4.154 -0.9045  0.7663 -0.0699
 7545SOL     OW23533   1.315   5.663   5.194 -0.7728  0.0278  0.0784
 7545SOL    HW123534   1.312   5.644   5.292  1.3845 -0.1920  0.1661
 7545SOL    HW223535   1.231   5.707   5.165 -1.1928  0.6681  2.1600
 7546SOL     OW23536   0.927   1.517   0.369  0.1119  0.2169 -0.9101
 7546SOL    HW123537   0.896   1.549   0.280  0.0636  0.3861 -0.8331
 7546SOL    HW223538   0.924   1.593   0.435 -1.4040 -0.2901 -0.3650
 7547SOL     OW23539   3.173   1.237   6.607 -0.3019  0.8946 -0.1458
 7547SOL    HW123540   3.245   1.241   6.676  0.1227  1.6980 -0.6287
 7547SOL    HW223541   3.201   1.176   6.533 -0.9602 -0.3608  0.5858
 7548SOL     OW23542   2.829   2.080   5.491 -0.3279 -0.4795  0.4380
 7548SOL    HW123543   2.910   2.111   5.441 -0.8502  0.6735  0.2776
 7548SOL    HW223544   2.762   2.044   5.427 -0.0476 -1.2045  0.5470
 7549SOL     OW23545   5.000   5.426   3.778  0.6775 -0.1537 -0.1376
 7549SOL    HW123546   5.048   5.426   3.866  3.0848 -1.4117 -1.3585
 7549SOL    HW223547   5.048   5.486   3.714 -0.7833  0.3882 -0.7687
 7550SOL     OW23548   1.016   4.467   5.088  0.0393 -0.1113 -0.6218
 7550SOL    HW123549   1.032   4.506   4.998 -0.7616 -0.0023 -0.7231
 7550SOL    HW223550   0.918   4.461   5.105  0.1797 -0.1756  0.2213
 7551SOL     OW23551   6.441   1.964   1.446  0.7384  0.0385 -0.0280
 7551SOL    HW123552   6.420   2.048   1.396  0.9764  0.4919  0.6188
 7551SOL    HW223553   6.419   1.885   1.389  0.8229  0.5394 -0.7755
 7552SOL     OW23554   2.296   5.461   2.562 -0.4319 -0.5428  0.4381
 7552SOL    HW123555   2.324   5.371   2.528  1.6982 -0.2121  1.2112
 7552SOL    HW223556   2.269   5.518   2.484 -0.6175 -1.4419 -0.1784
 7553SOL     OW23557   6.958   6.645   6.910  0.3450  0.1583 -0.1608
 7553SOL    HW123558   6.958   6.699   6.826 -2.6148 -1.6541 -1.4643
 7553SOL    HW223559   7.014   6.563   6.897  1.2963  0.7207  0.2910
 7554SOL     OW23560   4.191   1.242   2.591  0.8473  0.2537  0.5173
 7554SOL    HW123561   4.113   1.271   2.536 -0.3571 -1.1491  1.4215
 7554SOL    HW223562   4.224   1.153   2.559  1.9708  0.7403  0.2661
 7555SOL     OW23563   4.629   5.233   4.503 -0.4123 -0.2356  0.0713
 7555SOL    HW123564   4.544   5.247   4.554 -0.5797  0.7128 -0.4321
 7555SOL    HW223565   4.703   5.283   4.548 -0.7054  1.2018 -0.9408
 7556SOL     OW23566   1.468   1.413   0.557 -0.6071 -0.4700  0.3090
 7556SOL    HW123567   1.410   1.332   0.570 -0.8980 -0.0498  1.7823
 7556SOL    HW223568   1.411   1.495   0.554 -0.2420 -0.2355 -0.2413
 7557SOL     OW23569   4.226   6.552   6.604  0.2720  0.4497  0.0553
 7557SOL    HW123570   4.263   6.488   6.536 -0.9126 -1.6254  1.2538
 7557SOL    HW223571   4.292   6.564   6.678  1.3904  2.3900 -1.1634
 7558SOL     OW23572   1.933   0.018   4.727 -0.2483  0.3133 -0.0274
 7558SOL    HW123573   1.917  -0.011   4.821 -1.1042 -0.7360 -0.4785
 7558SOL    HW223574   1.902   0.112   4.715 -1.4923 -0.0380  0.3823
 7559SOL     OW23575   0.713   0.102   3.671 -0.7317  0.3227  0.0634
 7559SOL    HW123576   0.631   0.107   3.728 -0.5882  0.2663  0.2788
 7559SOL    HW223577   0.780   0.042   3.715 -0.2698  0.9873  0.2804
 7560SOL     OW23578   1.560   1.657   3.609 -0.4159 -0.4255 -0.5293
 7560SOL    HW123579   1.581   1.722   3.536  0.4982  1.5633  1.3793
 7560SOL    HW223580   1.637   1.594   3.621 -0.0633  0.0046 -0.5097
 7561SOL     OW23581   6.257   1.206   0.919  0.0088 -0.7413  0.4291
 7561SOL    HW123582   6.272   1.294   0.874  0.7670 -2.2980 -2.6321
 7561SOL    HW223583   6.346   1.169   0.948 -0.1561 -1.0800  0.5019
 7562SOL     OW23584   1.350   5.469   4.765  0.1064  0.3601 -0.3281
 7562SOL    HW123585   1.405   5.478   4.848  0.2044  1.5822 -0.4990
 7562SOL    HW223586   1.343   5.373   4.740 -0.0001 -0.0343  1.1351
 7563SOL     OW23587   3.614   6.716   5.353  0.6179  0.1232 -0.1928
 7563SOL    HW123588   3.521   6.752   5.363  0.1063 -1.2098  0.0766
 7563SOL    HW223589   3.675   6.763   5.417 -0.2466 -0.2366  0.9341
 7564SOL     OW23590   5.389   3.586   0.455 -0.2295  0.1595  0.5911
 7564SOL    HW123591   5.351   3.501   0.492 -1.1404  0.0824 -0.4641
 7564SOL    HW223592   5.315   3.648   0.430  0.2674  0.0019 -1.5250
 7565SOL     OW23593   1.179   1.711   5.816 -0.4725 -0.1573  0.0379
 7565SOL    HW123594   1.087   1.748   5.818 -0.5102 -0.2732  0.8606
 7565SOL    HW223595   1.244   1.782   5.790 -0.5849  0.4164  1.2462
 7566SOL     OW23596   4.893   4.704   3.207 -0.0218 -0.0795  0.3353
 7566SOL    HW123597   4.887   4.604   3.206  0.1748 -0.1439  2.2369
 7566SOL    HW223598   4.984   4.732   3.238 -0.3134  0.6787  0.5382
 7567SOL     OW23599   0.928   0.927   3.935 -0.3638  0.3867 -0.5453
 7567SOL    HW123600   1.022   0.951   3.912  0.1760 -0.3444  0.7443
 7567SOL    HW223601   0.924   0.830   3.962 -1.7933 -0.0537 -2.1380
 7568SOL     OW23602   1.101   4.868   1.256 -0.0883 -0.1768  0.0192
 7568SOL    HW123603   1.124   4.933   1.328 -0.0437  0.3911 -0.5035
 7568SOL    HW223604   1.173   4.867   1.186  0.2046 -1.2299  0.3171
 7569SOL     OW23605   3.806   5.247   0.270  0.3068  0.5007 -0.7937
 7569SOL    HW123606   3.746   5.205   0.339  1.4268 -2.4534 -1.4649
 7569SOL    HW223607   3.753   5.265   0.187 -0.3582  1.0977 -0.2539
 7570SOL     OW23608   1.982   1.164   2.612 -0.3224  0.1716 -0.6271
 7570SOL    HW123609   2.044   1.088   2.596  1.6920  1.9347 -1.7578
 7570SOL    HW223610   1.890   1.130   2.631  0.8879 -2.5511  0.8844
 7571SOL     OW23611   5.292   3.191   2.612  0.0664 -0.2009 -0.9688
 7571SOL    HW123612   5.370   3.255   2.608 -0.3976  0.5427  0.9194
 7571SOL    HW223613   5.290   3.148   2.702 -1.5160 -0.4611 -1.1140
 7572SOL     OW23614   3.816   0.173   2.926 -0.2069 -0.0025  0.1621
 7572SOL    HW123615   3.803   0.094   2.985 -0.1142 -1.6503 -1.9070
 7572SOL    HW223616   3.753   0.246   2.953 -0.4918 -0.8628  1.9387
 7573SOL     OW23617   2.638   0.379   5.763  0.0125 -0.4826 -0.2750
 7573SOL    HW123618   2.569   0.414   5.699  0.8490 -0.7246 -1.3283
 7573SOL    HW223619   2.592   0.328   5.836 -1.0905  1.1615  0.2467
 7574SOL     OW23620   1.162   4.531   3.445 -0.2343 -0.2028 -0.2375
 7574SOL    HW123621   1.176   4.536   3.544  1.1191  2.0945 -0.4571
 7574SOL    HW223622   1.102   4.606   3.416 -0.1026 -0.4647 -1.2310
 7575SOL     OW23623   0.861   5.808   0.015  0.5390  0.2395  0.1030
 7575SOL    HW123624   0.917   5.832  -0.065 -1.0798  0.4281 -1.0144
 7575SOL    HW223625   0.878   5.874   0.088 -0.4752  2.1791 -1.3100
 7576SOL     OW23626   5.208   2.997   6.158 -0.6592  0.0285  0.1595
 7576SOL    HW123627   5.174   2.909   6.193 -1.2730  0.6473  1.1703
 7576SOL    HW223628   5.151   3.025   6.080 -0.8993 -0.1380  0.2694
 7577SOL     OW23629   1.094   0.060   0.196 -0.5763 -0.3406 -0.2173
 7577SOL    HW123630   1.176   0.031   0.246 -0.7918 -0.3619  0.1299
 7577SOL    HW223631   1.088   0.160   0.197 -1.4933 -0.3714  1.3228
 7578SOL     OW23632   0.148   4.875   4.072  0.5394 -0.0828  0.3135
 7578SOL    HW123633   0.118   4.941   4.141  0.6244  1.5436 -1.1077
 7578SOL    HW223634   0.071   4.818   4.044 -0.7087  2.2708 -1.4112
 7579SOL     OW23635   0.789   1.350   6.157 -0.2247  0.2063 -0.5126
 7579SOL    HW123636   0.691   1.372   6.156 -0.2841 -0.0056  0.0833
 7579SOL    HW223637   0.838   1.413   6.097 -0.7163  0.3649 -0.7551
 7580SOL     OW23638   1.580   5.180   1.777 -0.6313 -0.1667  0.7351
 7580SOL    HW123639   1.599   5.252   1.844 -1.9461  0.5874  0.3289
 7580SOL    HW223640   1.546   5.099   1.823  0.4440 -0.4006  1.1533
 7581SOL     OW23641   5.552   0.481   0.785  0.0150 -0.1687  0.6201
 7581SOL    HW123642   5.580   0.409   0.848 -0.0404  0.5955  1.5227
 7581SOL    HW223643   5.603   0.565   0.804  1.2382 -0.3745 -1.4461
 7582SOL     OW23644   0.193   6.300   5.206 -0.2641  0.1876  0.4150
 7582SOL    HW123645   0.113   6.240   5.205  1.0811 -1.7114  0.6489
 7582SOL    HW223646   0.178   6.376   5.144 -2.1641 -0.2054  0.3185
 7583SOL     OW23647   5.320   4.755   0.884  0.2905  0.6959  0.7023
 7583SOL    HW123648   5.310   4.829   0.818  0.0735  0.4605  0.4665
 7583SOL    HW223649   5.231   4.734   0.924 -0.4097 -1.8157 -1.8413
 7584SOL     OW23650   6.534   6.377   2.573  0.2478  0.0620  0.5458
 7584SOL    HW123651   6.580   6.436   2.639  0.9240  0.1162  0.0377
 7584SOL    HW223652   6.438   6.403   2.566  0.6149  1.3642  0.0561
 7585SOL     OW23653   2.198   1.293   3.799 -0.2373  0.0149  0.6582
 7585SOL    HW123654   2.128   1.358   3.769 -0.4561 -0.7828 -0.5848
 7585SOL    HW223655   2.282   1.307   3.746 -0.2114 -0.5697  0.5425
 7586SOL     OW23656   2.234   5.282   3.454  0.2888 -0.3687 -0.6303
 7586SOL    HW123657   2.266   5.315   3.366 -0.0612 -0.1730 -0.6866
 7586SOL    HW223658   2.148   5.232   3.442  0.6939 -1.1128 -0.5173
 7587SOL     OW23659   5.705   1.576   0.471  0.5081  0.2066  0.2176
 7587SOL    HW123660   5.761   1.637   0.527  0.0634  0.0782  0.8024
 7587SOL    HW223661   5.615   1.565   0.513  0.5178 -0.6981  0.0132
 7588SOL     OW23662   1.094   3.644   4.888  0.0052  0.0706 -0.0482
 7588SOL    HW123663   1.120   3.705   4.813 -0.7767 -4.3600 -4.3976
 7588SOL    HW223664   0.995   3.629   4.886  0.2240 -1.7148  0.5315
 7589SOL     OW23665   5.195   0.564   2.897  0.0880 -0.0862  0.2609
 7589SOL    HW123666   5.111   0.566   2.844 -0.4725  1.0875  1.1667
 7589SOL    HW223667   5.217   0.469   2.920 -0.3844 -0.4981 -0.8793
 7590SOL     OW23668   2.032   1.807   6.753  0.4550  0.1173 -0.7072
 7590SOL    HW123669   2.110   1.867   6.732  0.7181  0.4767  1.1330
 7590SOL    HW223670   2.053   1.714   6.722  1.5910  0.2276 -0.3287
 7591SOL     OW23671   3.208   3.710   4.072  0.0599 -0.1202 -0.6153
 7591SOL    HW123672   3.300   3.693   4.107 -0.2915  0.9945  0.9171
 7591SOL    HW223673   3.205   3.801   4.030 -0.1717 -0.4493 -1.3305
 7592SOL     OW23674   0.442   1.615   3.212  0.7555 -0.3423 -0.0453
 7592SOL    HW123675   0.393   1.700   3.233  0.2873 -0.8270  0.9074
 7592SOL    HW223676   0.537   1.636   3.188  0.1629  0.6112 -1.7832
 7593SOL     OW23677   0.477   1.755   6.645 -0.0810  0.0888 -0.2474
 7593SOL    HW123678   0.554   1.724   6.591  0.2965  2.5842 -1.2849
 7593SOL    HW223679   0.511   1.804   6.726 -0.6442 -1.9972  1.3410
 7594SOL     OW23680   0.896   2.128   5.477  0.5584  0.0683 -0.2352
 7594SOL    HW123681   0.961   2.056   5.450 -1.0642 -1.3332 -0.5677
 7594SOL    HW223682   0.903   2.144   5.576  3.5917  2.2439 -0.6734
 7595SOL     OW23683   6.688   4.613   1.659  0.7323 -0.5094 -0.4387
 7595SOL    HW123684   6.746   4.562   1.596 -1.5181 -2.4065 -1.1621
 7595SOL    HW223685   6.633   4.680   1.608  0.2416 -0.7479 -0.2372
 7596SOL     OW23686   5.077   1.866   4.915  0.4224 -0.1324  0.1899
 7596SOL    HW123687   5.147   1.928   4.880  2.3057 -1.8407  0.6868
 7596SOL    HW223688   5.005   1.918   4.960  2.5931  1.6450  1.8206
 7597SOL     OW23689   2.984   6.257   6.755  0.1658  0.2939 -0.4206
 7597SOL    HW123690   3.063   6.217   6.709  0.2434  1.8967 -1.7595
 7597SOL    HW223691   2.970   6.351   6.723 -0.8833  0.8599  1.5242
 7598SOL     OW23692   3.910   6.746   1.793 -0.1394 -0.3079 -0.2259
 7598SOL    HW123693   3.849   6.672   1.821 -2.6108  1.8869  0.6102
 7598SOL    HW223694   3.859   6.812   1.739  0.8657  2.7149  2.2365
 7599SOL     OW23695   2.030   3.575   0.766  0.3141  0.1844 -0.7053
 7599SOL    HW123696   2.099   3.577   0.839 -0.4217 -1.7616  0.0914
 7599SOL    HW223697   1.949   3.526   0.798 -0.9498  1.2798 -2.0849
 7600SOL     OW23698   6.662   6.563   2.702 -0.3143  0.2541 -0.2454
 7600SOL    HW123699   6.710   6.518   2.777 -1.0307  0.3167  0.2583
 7600SOL    HW223700   6.712   6.646   2.676 -0.4716  0.6652  0.7056
 7601SOL     OW23701   2.338   6.621   0.699 -0.3794 -0.6737 -0.0284
 7601SOL    HW123702   2.241   6.597   0.693 -0.5191 -0.2470  0.5134
 7601SOL    HW223703   2.390   6.543   0.735 -0.6525 -0.5988  0.5371
 7602SOL     OW23704   5.568   0.628   1.573  0.3360 -0.0668 -0.5299
 7602SOL    HW123705   5.481   0.655   1.613 -0.6334 -1.1677 -1.8038
 7602SOL    HW223706   5.600   0.699   1.510  0.2988  0.2572 -0.1910
 7603SOL     OW23707   4.108   5.977   1.929  0.1892  0.1239 -0.4170
 7603SOL    HW123708   4.149   5.903   1.982 -2.6649 -0.9696  0.4349
 7603SOL    HW223709   4.031   5.941   1.876 -0.2564  2.1945 -1.2647
 7604SOL     OW23710   1.413   2.972   3.588 -0.0045 -0.2954 -0.2531
 7604SOL    HW123711   1.388   3.067   3.568  0.1511  0.1823  1.6186
 7604SOL    HW223712   1.423   2.922   3.502  1.6855  1.8280 -1.4083
 7605SOL     OW23713   1.484   0.243   0.367  0.4632 -0.2827 -0.4994
 7605SOL    HW123714   1.510   0.339   0.383  0.9856 -0.1212 -2.1599
 7605SOL    HW223715   1.548   0.183   0.416 -1.1386  0.1679  2.3643
 7606SOL     OW23716   1.313   2.726   3.852  0.3741  0.0379  0.8744
 7606SOL    HW123717   1.323   2.626   3.848 -0.5191 -0.0223 -0.8268
 7606SOL    HW223718   1.354   2.767   3.770 -2.1635  0.7479 -0.1444
 7607SOL     OW23719   1.955   5.869   4.395  0.2779  0.6776 -0.1463
 7607SOL    HW123720   1.859   5.840   4.391  1.1835 -2.6175 -1.3799
 7607SOL    HW223721   1.988   5.864   4.489 -0.0388 -0.9991 -0.0994
 7608SOL     OW23722   1.212   2.062   5.193 -0.1514  0.1291 -0.0508
 7608SOL    HW123723   1.148   2.054   5.116  1.9412  2.1765 -2.1862
 7608SOL    HW223724   1.290   2.002   5.177  0.0462  0.1626  0.7908
 7609SOL     OW23725   5.285   1.327   4.927  0.2700  0.3625  0.1855
 7609SOL    HW123726   5.323   1.413   4.893  2.5227 -1.3973 -2.1443
 7609SOL    HW223727   5.350   1.283   4.989 -0.8382  0.2610  1.3214
 7610SOL     OW23728   3.007   5.400   4.041  0.0554  0.1856 -0.0232
 7610SOL    HW123729   3.014   5.351   4.128 -1.4019  0.1973  0.1280
 7610SOL    HW223730   2.933   5.468   4.046 -1.1902 -0.9384 -1.7723
 7611SOL     OW23731   5.737   0.822   1.110  0.0225  0.5024 -0.3288
 7611SOL    HW123732   5.761   0.895   1.046  1.9482  1.4250  1.3400
 7611SOL    HW223733   5.712   0.740   1.059  1.1224  1.3087 -2.2638
 7612SOL     OW23734   5.657   3.783   2.342 -0.1842  0.0237  0.0118
 7612SOL    HW123735   5.663   3.694   2.388 -0.1023 -0.6606 -1.2919
 7612SOL    HW223736   5.577   3.833   2.376  0.0672 -0.3014  1.1394
 7613SOL     OW23737   0.205   6.596   0.816  0.3340 -0.1259  0.0185
 7613SOL    HW123738   0.139   6.669   0.835 -0.5446 -0.3724 -1.7939
 7613SOL    HW223739   0.255   6.573   0.899 -2.4732 -0.5183  1.7131
 7614SOL     OW23740   4.427   5.089   6.539  0.0518 -0.1615 -0.5068
 7614SOL    HW123741   4.372   5.032   6.600  1.0360 -0.5252  0.0660
 7614SOL    HW223742   4.501   5.131   6.591 -0.9503  2.1203 -0.7856
 7615SOL     OW23743   4.585   4.715   5.916 -0.3677 -0.9412  0.0550
 7615SOL    HW123744   4.552   4.805   5.889  0.2842 -0.4929  0.6896
 7615SOL    HW223745   4.671   4.696   5.869 -1.7605 -2.3490 -2.0398
 7616SOL     OW23746   6.238   7.018   1.945 -0.4991  0.0035 -0.6854
 7616SOL    HW123747   6.199   7.001   1.854 -1.1259  0.9988 -0.6219
 7616SOL    HW223748   6.174   7.074   1.998 -1.8479 -3.4843  1.7077
 7617SOL     OW23749   6.296   6.169   3.218  0.3204 -0.2454 -0.4078
 7617SOL    HW123750   6.212   6.223   3.211  0.0339 -0.3640  1.5389
 7617SOL    HW223751   6.340   6.164   3.129 -1.2468  0.6117 -1.2715
 7618SOL     OW23752   4.069   2.535   6.321 -0.0355 -0.2420 -0.4154
 7618SOL    HW123753   4.136   2.565   6.389 -0.1549  2.0841 -1.2338
 7618SOL    HW223754   4.080   2.437   6.305  1.5107 -0.4054  1.2463
 7619SOL     OW23755   0.400   6.388   4.443 -0.2040 -0.1563 -0.3989
 7619SOL    HW123756   0.468   6.397   4.515  1.1715  0.4224 -1.7140
 7619SOL    HW223757   0.350   6.475   4.433 -0.9170 -0.4702  0.3281
 7620SOL     OW23758   2.921   4.251   5.570  0.8574  0.4822  0.4945
 7620SOL    HW123759   2.875   4.324   5.621  0.2007  0.0529  0.5413
 7620SOL    HW223760   2.947   4.285   5.480  2.0092  1.2413  1.0962
 7621SOL     OW23761   5.932   4.176   0.946  0.0794 -0.2807  0.1492
 7621SOL    HW123762   6.010   4.223   0.988  0.7470 -0.8220 -0.4427
 7621SOL    HW223763   5.926   4.203   0.849 -0.2450 -0.5192  0.1029
 7622SOL     OW23764   3.227   2.347   6.373  0.2029 -0.1662 -0.6098
 7622SOL    HW123765   3.150   2.380   6.427 -0.8188 -0.9980 -1.5007
 7622SOL    HW223766   3.195   2.322   6.281  1.7244  0.4316 -1.3460
 7623SOL     OW23767   6.812   5.068   3.115 -0.1827 -0.0545 -0.3754
 7623SOL    HW123768   6.804   5.165   3.138  0.4452  0.1436 -0.9526
 7623SOL    HW223769   6.816   5.014   3.199  0.5479  0.5102 -0.0389
 7624SOL     OW23770   1.251   1.844   1.374 -0.3697 -0.1701 -0.4640
 7624SOL    HW123771   1.302   1.782   1.434  1.3244  0.5358 -1.1106
 7624SOL    HW223772   1.268   1.820   1.279 -0.4094  0.7373 -0.7076
 7625SOL     OW23773   5.022   1.724   1.790 -0.4363 -0.1261  0.1385
 7625SOL    HW123774   4.970   1.739   1.706  0.4877 -1.9440 -0.8234
 7625SOL    HW223775   4.995   1.792   1.859 -2.0869  0.6585 -1.2061
 7626SOL     OW23776   4.311   7.018   0.509  0.3261  0.1789  0.0959
 7626SOL    HW123777   4.402   6.981   0.528  0.6989  0.8662 -0.2944
 7626SOL    HW223778   4.282   7.075   0.586 -0.2057 -0.8180  0.6529
 7627SOL     OW23779   3.375   4.361   5.985  0.3064 -0.1113  0.1472
 7627SOL    HW123780   3.409   4.392   6.073 -0.3794 -1.3754  0.8857
 7627SOL    HW223781   3.330   4.436   5.938 -1.1359  0.0970  1.7866
 7628SOL     OW23782   3.250   2.243   0.066 -0.3205 -0.4419  0.3671
 7628SOL    HW123783   3.255   2.150   0.030  0.6328 -1.1538  2.2179
 7628SOL    HW223784   3.186   2.297   0.011  0.3246 -1.7071 -1.7453
 7629SOL     OW23785   4.907   3.115   5.689 -0.2449  0.2602 -0.1620
 7629SOL    HW123786   4.851   3.151   5.614 -1.0333 -0.6372 -0.0248
 7629SOL    HW223787   5.004   3.133   5.670 -0.5325  1.3365 -0.6794
 7630SOL     OW23788   2.924   5.197   1.493  0.1244  0.0733 -0.1953
 7630SOL    HW123789   2.897   5.289   1.520 -0.8721 -0.2324 -0.1007
 7630SOL    HW223790   2.874   5.170   1.410  1.6048  0.2151 -1.1673
 7631SOL     OW23791   0.893   1.233   0.861  0.2299 -0.4184  0.5745
 7631SOL    HW123792   0.991   1.251   0.849 -0.1845  0.9117 -1.2800
 7631SOL    HW223793   0.842   1.318   0.848 -1.3226 -1.4966 -0.7632
 7632SOL     OW23794   5.488   5.820   0.911  0.8311 -0.3435  0.0526
 7632SOL    HW123795   5.419   5.877   0.954  0.0036 -0.0654 -1.5450
 7632SOL    HW223796   5.484   5.833   0.811  2.6745 -0.9037 -0.1313
 7633SOL     OW23797   3.931   0.626   1.500  0.6158  0.2096 -0.0073
 7633SOL    HW123798   3.990   0.614   1.580  0.6234  0.1657 -0.0190
 7633SOL    HW223799   3.970   0.696   1.440  1.6678 -1.1082 -0.9324
 7634SOL     OW23800   6.704   1.795   6.107  0.7829  0.2833 -0.0725
 7634SOL    HW123801   6.789   1.842   6.132  0.1518  1.1183  0.5582
 7634SOL    HW223802   6.638   1.802   6.182  0.3846 -0.9509 -0.2765
 7635SOL     OW23803   1.546   2.389   5.521 -0.6561 -0.2490  0.3709
 7635SOL    HW123804   1.453   2.424   5.529  0.0098  1.6854  0.1796
 7635SOL    HW223805   1.560   2.319   5.590 -1.7307  0.6955  1.6158
 7636SOL     OW23806   0.051   3.737   3.406 -0.4678 -0.7073  0.3465
 7636SOL    HW123807   0.007   3.802   3.468 -1.6541 -0.0313 -1.1381
 7636SOL    HW223808   0.108   3.674   3.459  0.4448  1.2822  1.8807
 7637SOL     OW23809   3.037   5.333   3.362  0.3149 -0.1988  0.2709
 7637SOL    HW123810   2.994   5.255   3.316  1.6701 -0.8115  0.0027
 7637SOL    HW223811   3.029   5.321   3.461 -1.7099  0.6202  0.2599
 7638SOL     OW23812   6.263   0.059   1.207 -0.4864  0.4901  0.3126
 7638SOL    HW123813   6.164   0.073   1.202 -0.5036  0.1880 -0.2685
 7638SOL    HW223814   6.310   0.147   1.213 -0.8675  0.6088  2.3986
 7639SOL     OW23815   0.801   5.291   1.580  0.0324 -0.4969  0.3615
 7639SOL    HW123816   0.874   5.357   1.598  0.5392 -1.4479  2.0769
 7639SOL    HW223817   0.835   5.218   1.521 -0.2568  0.2593 -0.7721
 7640SOL     OW23818   1.962   6.872   6.565 -0.3996 -0.7554  0.1394
 7640SOL    HW123819   2.050   6.832   6.592 -0.4983 -0.3404  1.1284
 7640SOL    HW223820   1.973   6.971   6.555 -0.3697 -0.8983 -1.3869
 7641SOL     OW23821   5.315   3.325   5.455 -0.6609  0.2318  0.3164
 7641SOL    HW123822   5.274   3.391   5.392 -0.9689 -0.2134  0.0441
 7641SOL    HW223823   5.378   3.373   5.517 -0.2765  0.6575 -0.3922
 7642SOL     OW23824   2.542   0.618   3.206  0.1673 -0.9010 -0.3871
 7642SOL    HW123825   2.618   0.668   3.165  0.3788 -1.8112 -1.1359
 7642SOL    HW223826   2.489   0.572   3.135 -2.7289  1.8033 -0.2034
 7643SOL     OW23827   5.142   3.490   3.874 -0.1378 -0.2978  0.1326
 7643SOL    HW123828   5.107   3.407   3.916  3.5352 -1.2199  1.7331
 7643SOL    HW223829   5.224   3.469   3.821 -0.3559  2.0241 -1.2603
 7644SOL     OW23830   4.143   4.655   1.045 -0.3236 -0.0882 -0.1980
 7644SOL    HW123831   4.205   4.690   1.115  1.0446 -0.4014 -1.2055
 7644SOL    HW223832   4.056   4.629   1.088 -1.1845  3.6785  0.7357
 7645SOL     OW23833   5.624   3.598   5.248 -0.1149 -0.2454  0.3795
 7645SOL    HW123834   5.664   3.687   5.270 -0.1886 -0.3421  0.9240
 7645SOL    HW223835   5.528   3.598   5.273 -0.9870  0.6073 -2.6231
 7646SOL     OW23836   4.676   6.141   2.895  0.2282 -0.2459 -0.0015
 7646SOL    HW123837   4.580   6.155   2.917 -0.4893 -0.7066 -2.4859
 7646SOL    HW223838   4.730   6.134   2.979 -2.0855 -1.2732  1.4748
 7647SOL     OW23839   0.339   2.133   5.855 -0.1793  0.0586 -0.6098
 7647SOL    HW123840   0.325   2.036   5.834  2.0041 -0.4198 -0.1406
 7647SOL    HW223841   0.429   2.145   5.896 -0.1920  2.3882 -1.1506
 7648SOL     OW23842   2.152   3.326   1.691 -0.1203  0.0335 -0.0184
 7648SOL    HW123843   2.105   3.271   1.761  2.3308 -1.2598  0.7229
 7648SOL    HW223844   2.226   3.378   1.734 -2.2478  4.0153 -0.7150
 7649SOL     OW23845   2.704   1.169   6.347  0.6755  0.6314  0.4190
 7649SOL    HW123846   2.640   1.216   6.287  0.6139  0.7979  0.6144
 7649SOL    HW223847   2.678   1.184   6.443 -0.4431 -1.3115  0.4602
 7650SOL     OW23848   3.743   2.387   0.988  0.3930 -0.0317  0.0928
 7650SOL    HW123849   3.823   2.448   0.982 -0.0238  0.4618 -0.5686
 7650SOL    HW223850   3.773   2.296   1.016  0.9747  0.5761  1.5733
 7651SOL     OW23851   2.244   5.603   5.554  0.4188  0.8259  0.2745
 7651SOL    HW123852   2.196   5.515   5.557 -1.0020  1.6042  1.1158
 7651SOL    HW223853   2.340   5.589   5.581  0.2865 -0.5089  0.1104
 7652SOL     OW23854   5.319   6.901   5.013  0.5870 -0.3032 -0.1879
 7652SOL    HW123855   5.223   6.874   5.014  1.3079 -3.1091  0.0696
 7652SOL    HW223856   5.339   6.949   4.927 -1.0566  0.5271 -0.1440
 7653SOL     OW23857   0.588   0.202   5.462 -0.0381 -0.3716  0.3693
 7653SOL    HW123858   0.513   0.228   5.401  0.1883 -1.0437 -0.2116
 7653SOL    HW223859   0.556   0.203   5.557 -0.3339  0.9155  0.2798
 7654SOL     OW23860   6.681   6.471   5.894  0.1474 -0.1684  0.0760
 7654SOL    HW123861   6.748   6.397   5.902 -1.3404 -1.6350 -0.3422
 7654SOL    HW223862   6.649   6.477   5.799  1.0548  1.8045 -0.1504
 7655SOL     OW23863   2.270   1.888   5.020  0.4301 -0.3261  0.1990
 7655SOL    HW123864   2.181   1.917   4.985  0.7991  0.9997  0.3390
 7655SOL    HW223865   2.275   1.788   5.018 -0.7442 -0.3854 -0.5788
 7656SOL     OW23866   0.259   3.297   1.648 -0.2600 -0.2143  0.5816
 7656SOL    HW123867   0.170   3.254   1.638 -2.0427  2.9715  1.4291
 7656SOL    HW223868   0.291   3.331   1.559  1.4690 -3.5240 -0.2225
 7657SOL     OW23869   0.796   3.352   4.509  0.3365  0.1328  0.2976
 7657SOL    HW123870   0.855   3.272   4.518 -0.7596 -0.7477 -0.2115
 7657SOL    HW223871   0.755   3.374   4.597  0.1345 -0.2551  0.2988
 7658SOL     OW23872   2.390   1.284   6.412  0.5545 -0.3703 -0.4537
 7658SOL    HW123873   2.342   1.344   6.348 -1.1100  0.4876  1.4722
 7658SOL    HW223874   2.355   1.191   6.403 -1.7349  0.2564  0.9800
 7659SOL     OW23875   6.431   5.412   4.594 -0.1396  0.2472  0.0158
 7659SOL    HW123876   6.356   5.352   4.623 -1.4345  0.9581 -1.7232
 7659SOL    HW223877   6.512   5.392   4.649 -1.3832 -1.0179  1.4920
 7660SOL     OW23878   0.914   0.220   3.960  0.6478  0.3314  0.5083
 7660SOL    HW123879   0.934   0.137   4.012 -1.5860  0.3313  1.5095
 7660SOL    HW223880   0.893   0.295   4.023 -2.5452  0.2320 -0.2324
 7661SOL     OW23881   0.467   6.213   5.770  0.6292 -0.0291 -0.5000
 7661SOL    HW123882   0.478   6.307   5.803  0.3402 -0.1869  0.0681
 7661SOL    HW223883   0.450   6.153   5.848  1.7223 -0.7046 -0.7575
 7662SOL     OW23884   0.827   5.377   2.182  0.3040 -0.0081  0.3613
 7662SOL    HW123885   0.765   5.442   2.226  0.2746  1.5623 -1.8079
 7662SOL    HW223886   0.792   5.284   2.192 -2.7680  0.8677 -1.2877
 7663SOL     OW23887   0.294   5.849   4.088  0.1092  0.2906  0.6586
 7663SOL    HW123888   0.353   5.928   4.100  1.2884 -0.6479  1.2294
 7663SOL    HW223889   0.284   5.830   3.990 -1.5257  2.0826  0.4174
 7664SOL     OW23890   5.922   1.485   3.744  0.2055 -0.0054 -0.1238
 7664SOL    HW123891   5.823   1.470   3.750  0.4262 -1.4252  0.4441
 7664SOL    HW223892   5.959   1.434   3.666  0.5267  0.2852 -0.1620
 7665SOL     OW23893   0.932   6.979   2.617 -0.7131  0.1316  0.1091
 7665SOL    HW123894   0.889   6.890   2.601 -0.8855  0.2182  0.0886
 7665SOL    HW223895   0.896   7.046   2.551 -1.4400  0.4956  0.8617
 7666SOL     OW23896   0.363   5.611   3.751 -0.4601 -0.2379 -0.1171
 7666SOL    HW123897   0.393   5.567   3.666  1.0437 -0.8969  0.7248
 7666SOL    HW223898   0.360   5.710   3.738  1.4600 -0.1914 -0.4689
 7667SOL     OW23899   4.487   5.880   0.257  0.8125 -0.6736 -0.4804
 7667SOL    HW123900   4.472   5.816   0.181 -1.7887  0.3807 -0.9735
 7667SOL    HW223901   4.500   5.828   0.341  2.8373 -1.8504 -1.4352
 7668SOL     OW23902   2.159   6.298   1.430  0.2737  0.0848 -0.6947
 7668SOL    HW123903   2.121   6.388   1.410  0.7791  0.8889  1.6985
 7668SOL    HW223904   2.255   6.295   1.403  0.0625  0.0028 -1.4504
 7669SOL     OW23905   5.361   2.578   6.067  0.3636  0.4040 -0.6726
 7669SOL    HW123906   5.355   2.658   6.008 -2.2397  0.8672  0.0931
 7669SOL    HW223907   5.283   2.517   6.048  1.1112 -0.8741  0.2487
 7670SOL     OW23908   0.855   1.592   1.879  0.5567  0.3759 -0.0832
 7670SOL    HW123909   0.795   1.528   1.830  1.1265  0.0881 -0.4152
 7670SOL    HW223910   0.924   1.540   1.930 -0.3847  0.6400  1.5367
 7671SOL     OW23911   2.157   1.382   0.876 -0.0762 -0.4111 -0.1080
 7671SOL    HW123912   2.185   1.379   0.972  0.1363 -0.1532 -0.1617
 7671SOL    HW223913   2.118   1.472   0.855 -2.9453 -1.3899  0.5227
 7672SOL     OW23914   5.410   3.399   1.723 -0.1746 -0.1401  0.0298
 7672SOL    HW123915   5.400   3.450   1.808 -0.0908  0.5733 -0.3812
 7672SOL    HW223916   5.507   3.383   1.704 -0.1453  0.5464 -0.4200
 7673SOL     OW23917   6.839   6.174   3.884 -0.0318 -0.0577  0.4807
 7673SOL    HW123918   6.897   6.230   3.825 -0.7005 -0.4394 -0.5591
 7673SOL    HW223919   6.787   6.233   3.945  0.5288  0.3480  0.5781
 7674SOL     OW23920   2.398   4.872   5.683 -0.3962  0.1802 -0.6313
 7674SOL    HW123921   2.310   4.879   5.635 -1.1655  0.6515  0.7716
 7674SOL    HW223922   2.470   4.915   5.629 -0.7466 -1.3850 -2.4247
 7675SOL     OW23923   3.705   6.877   3.736  0.4093 -0.1167  0.1319
 7675SOL    HW123924   3.724   6.871   3.638 -1.5947 -1.4078 -0.2314
 7675SOL    HW223925   3.698   6.785   3.774 -0.6501  0.3439  1.0970
 7676SOL     OW23926   2.740   4.641   6.190 -0.3541  0.1132  0.1899
 7676SOL    HW123927   2.745   4.698   6.109 -1.0589 -1.2600 -0.8662
 7676SOL    HW223928   2.808   4.568   6.184 -1.2156 -0.7200  0.2184
 7677SOL     OW23929   0.832   5.758   1.928 -0.5480 -0.2389  0.3122
 7677SOL    HW123930   0.763   5.787   1.994 -0.3981 -1.6264  1.1210
 7677SOL    HW223931   0.790   5.700   1.858 -0.0360 -2.4160  1.6852
 7678SOL     OW23932   2.157   0.671   5.812  0.1433  0.3986 -0.2253
 7678SOL    HW123933   2.194   0.741   5.752  0.4073  0.9186  0.5441
 7678SOL    HW223934   2.057   0.669   5.803  0.1475  0.7669 -0.3604
 7679SOL     OW23935   3.862   5.904   5.003  0.0142 -0.6937  0.0425
 7679SOL    HW123936   3.829   5.820   4.961 -2.5142  1.2370 -2.2830
 7679SOL    HW223937   3.784   5.957   5.037  1.3849  1.2016  0.4088
 7680SOL     OW23938   6.856   5.512   5.496  0.2506 -0.1802 -0.2377
 7680SOL    HW123939   6.952   5.522   5.469  0.2258 -0.8848 -0.6168
 7680SOL    HW223940   6.848   5.524   5.594  0.8148 -0.6073 -0.1275
 7681SOL     OW23941   0.440   2.277   0.501  0.1164 -0.3729 -0.2804
 7681SOL    HW123942   0.448   2.370   0.465  0.8620 -0.0851  0.5795
 7681SOL    HW223943   0.370   2.276   0.573  0.3944 -0.3914 -0.0119
 7682SOL     OW23944   3.896   0.132   0.726 -0.4368  0.0948  0.4350
 7682SOL    HW123945   3.845   0.181   0.655 -0.8734 -1.1183 -0.1133
 7682SOL    HW223946   3.832   0.088   0.789 -0.0952 -1.2780 -0.1499
 7683SOL     OW23947   1.600   4.084   4.602  0.1679  0.6941  0.0464
 7683SOL    HW123948   1.681   4.026   4.594  0.9665  1.8101 -0.3072
 7683SOL    HW223949   1.518   4.027   4.608  0.9708 -0.4567  0.3498
 7684SOL     OW23950   4.817   4.217   0.572  0.4019  1.0619  0.4103
 7684SOL    HW123951   4.759   4.263   0.504  1.2198 -0.8940 -1.7394
 7684SOL    HW223952   4.782   4.125   0.588  1.6493  0.6381  0.7705
 7685SOL     OW23953   1.922   0.096   3.577 -0.3795  0.1205  0.0698
 7685SOL    HW123954   1.850   0.068   3.513 -1.0065 -0.5417  1.0350
 7685SOL    HW223955   2.011   0.066   3.542 -0.5741  0.8121 -1.0614
 7686SOL     OW23956   6.146   1.397   4.898  0.0520  0.4413 -0.0925
 7686SOL    HW123957   6.077   1.395   4.826 -0.0688  1.0003  0.0049
 7686SOL    HW223958   6.102   1.415   4.986  0.0546 -1.2993  0.3105
 7687SOL     OW23959   6.336   4.144   5.406 -0.0482 -0.1302  0.3930
 7687SOL    HW123960   6.312   4.229   5.359  0.5351  0.4738  1.1470
 7687SOL    HW223961   6.424   4.111   5.372 -1.8945 -2.5046 -2.5885
 7688SOL     OW23962   6.483   3.691   4.834 -0.3559  0.2073 -0.4371
 7688SOL    HW123963   6.531   3.747   4.765  0.6346  0.3884  0.3707
 7688SOL    HW223964   6.521   3.599   4.834 -1.1431 -0.1273 -0.9099
 7689SOL     OW23965   4.451   5.013   3.769  0.4511  0.0614 -0.7958
 7689SOL    HW123966   4.488   4.939   3.825 -0.5494 -0.6190 -0.9922
 7689SOL    HW223967   4.476   5.101   3.808  0.1870 -0.3944  0.4530
 7690SOL     OW23968   6.231   2.889   2.844 -0.3768  0.4014 -0.0474
 7690SOL    HW123969   6.288   2.832   2.785  0.4297  0.8650  0.2525
 7690SOL    HW223970   6.188   2.961   2.790 -0.7118  0.0277 -0.2832
 7691SOL     OW23971   6.239   3.402   4.754 -0.3713  0.1087 -0.2331
 7691SOL    HW123972   6.302   3.351   4.813  0.7975 -1.1030 -2.3944
 7691SOL    HW223973   6.154   3.421   4.804  0.2266 -1.5890  1.5587
 7692SOL     OW23974   1.284   1.703   1.148 -0.2549 -0.3975  0.1237
 7692SOL    HW123975   1.223   1.692   1.070  0.0371 -1.8904  0.0793
 7692SOL    HW223976   1.275   1.625   1.209  1.5794 -0.6611  0.1151
 7693SOL     OW23977   3.556   2.633   0.044  0.1832 -0.8645 -0.1761
 7693SOL    HW123978   3.615   2.567  -0.002  4.5639  2.8613 -0.5776
 7693SOL    HW223979   3.511   2.691  -0.023  0.3852 -0.3256  0.1450
 7694SOL     OW23980   4.691   1.755   1.160  0.4511 -0.3097 -0.2203
 7694SOL    HW123981   4.653   1.705   1.082  1.4151 -0.5167 -0.5635
 7694SOL    HW223982   4.674   1.704   1.244 -0.1364 -0.3368 -0.3515
 7695SOL     OW23983   6.036   6.628   3.419 -0.1951  0.0451  0.4742
 7695SOL    HW123984   5.987   6.709   3.450  0.6405  1.0436 -0.7371
 7695SOL    HW223985   6.002   6.601   3.328  1.9967  1.2617 -0.7728
 7696SOL     OW23986   0.965   2.356   5.104 -0.0099 -0.3750  0.6275
 7696SOL    HW123987   1.062   2.378   5.114 -0.2978  1.3257  0.0036
 7696SOL    HW223988   0.934   2.384   5.013 -1.0750 -1.0173  0.7790
 7697SOL     OW23989   6.341   6.685   3.027 -0.3879  0.0280 -0.1927
 7697SOL    HW123990   6.269   6.753   3.032  0.0348  0.4860 -0.2557
 7697SOL    HW223991   6.369   6.672   2.932 -1.0042 -0.8128 -0.2718
 7698SOL     OW23992   5.358   1.594   2.043 -0.0671  0.0974  0.4185
 7698SOL    HW123993   5.285   1.601   1.975  1.0549 -2.8687 -1.2264
 7698SOL    HW223994   5.428   1.663   2.024 -0.8853  0.8542  0.0718
 7699SOL     OW23995   2.997   5.876   5.158  0.3238 -0.3123 -0.1865
 7699SOL    HW123996   3.018   5.860   5.254 -1.1338 -0.2632  0.1737
 7699SOL    HW223997   3.008   5.973   5.137 -0.0421 -0.1977  0.1331
 7700SOL     OW23998   6.180   4.850   2.365  0.1557 -0.2371  0.1224
 7700SOL    HW123999   6.117   4.925   2.344 -1.1868 -1.4899 -0.5303
 7700SOL    HW224000   6.130   4.764   2.368  1.3926 -0.9547  2.4239
 7701SOL     OW24001   3.389   7.005   6.218  0.7893  0.6453  0.4138
 7701SOL    HW124002   3.392   7.069   6.142 -0.6457 -0.8084 -0.9593
 7701SOL    HW224003   3.460   6.935   6.207  0.0765 -0.0221 -0.0589
 7702SOL     OW24004   6.189   1.532   5.483 -0.3755 -0.6145 -0.0083
 7702SOL    HW124005   6.288   1.526   5.477 -0.4089 -0.0565 -4.3324
 7702SOL    HW224006   6.148   1.452   5.440 -1.7722 -0.0332  0.1725
 7703SOL     OW24007   1.278   5.146   5.985 -0.1847 -0.0449  0.3563
 7703SOL    HW124008   1.369   5.129   6.022  0.7691  0.1186 -1.7708
 7703SOL    HW224009   1.261   5.084   5.909 -1.8336 -0.0174  0.6742
 7704SOL     OW24010   1.985   2.198   4.121 -0.0230  0.2652 -0.3546
 7704SOL    HW124011   1.885   2.201   4.119  0.0025  1.0395 -1.3972
 7704SOL    HW224012   2.021   2.215   4.029  1.0821  0.2648  0.0561
 7705SOL     OW24013   2.053   4.111   0.640  0.0610 -0.5446 -0.6450
 7705SOL    HW124014   2.102   4.026   0.656  0.3343 -0.2961 -0.1465
 7705SOL    HW224015   2.074   4.177   0.713 -2.3946 -1.0407  0.6538
 7706SOL     OW24016   3.994   3.053   2.747  0.1952  0.2350  0.2194
 7706SOL    HW124017   3.998   3.153   2.752  0.5094  0.2457 -0.1716
 7706SOL    HW224018   4.087   3.016   2.748  0.2384  0.1021 -2.2571
 7707SOL     OW24019   0.546   2.611   5.213 -0.5729 -0.1062 -0.2742
 7707SOL    HW124020   0.510   2.608   5.306  2.8716 -2.3203  1.1852
 7707SOL    HW224021   0.506   2.536   5.160 -1.7503  0.5168 -0.3129
 7708SOL     OW24022   0.530   0.611   3.660  0.1737 -0.0769  0.0956
 7708SOL    HW124023   0.456   0.557   3.620 -1.1834  1.3134  0.6768
 7708SOL    HW224024   0.494   0.697   3.695  2.0768  0.6419  0.3892
 7709SOL     OW24025   6.277   4.538   2.804 -0.1500  0.2596  0.4492
 7709SOL    HW124026   6.282   4.628   2.759 -1.3073 -0.3460 -0.9810
 7709SOL    HW224027   6.370   4.501   2.814  0.2373  0.9969 -0.2420
 7710SOL     OW24028   6.552   2.714   2.088  0.1597  0.4589 -0.1532
 7710SOL    HW124029   6.593   2.639   2.140 -2.8617 -0.6168  0.9191
 7710SOL    HW224030   6.536   2.684   1.994  0.0502  0.1713 -0.0459
 7711SOL     OW24031   2.356   4.730   3.629 -0.2323 -0.0850  0.1054
 7711SOL    HW124032   2.404   4.666   3.689  0.7512  0.4211 -0.1327
 7711SOL    HW224033   2.272   4.761   3.674  0.4967  0.3093  1.2236
 7712SOL     OW24034   0.363   3.844   3.213  0.1306 -0.1891 -0.1712
 7712SOL    HW124035   0.273   3.869   3.248 -0.0280 -2.0125  0.8144
 7712SOL    HW224036   0.405   3.924   3.170 -1.9991  0.6736 -0.7925
 7713SOL     OW24037   6.972   5.413   6.822 -0.3152 -0.1590  0.0396
 7713SOL    HW124038   6.985   5.317   6.845  0.3386 -0.3883 -1.2530
 7713SOL    HW224039   6.907   5.422   6.747 -0.6238  0.4346  0.3672
 7714SOL     OW24040   5.462   1.531   3.396  0.5241  0.0624  0.0884
 7714SOL    HW124041   5.458   1.481   3.309 -1.5759 -0.7573  0.5997
 7714SOL    HW224042   5.543   1.503   3.447  2.1923  1.0655 -1.8420
 7715SOL     OW24043   2.558   0.975   0.030  0.3440  0.4355  0.3909
 7715SOL    HW124044   2.641   0.964   0.085  0.3530  1.9521  0.7244
 7715SOL    HW224045   2.514   0.886   0.017  3.8175 -1.1106 -2.7380
 7716SOL     OW24046   3.740   1.290   6.712  0.3630  0.1491  0.5268
 7716SOL    HW124047   3.750   1.366   6.777 -0.5311  0.9912 -0.2837
 7716SOL    HW224048   3.738   1.204   6.762 -0.8028  0.8100  1.6707
 7717SOL     OW24049   0.629   0.040   6.578  0.5077  0.1980 -0.2195
 7717SOL    HW124050   0.725   0.064   6.565  0.4217  0.8162  0.2674
 7717SOL    HW224051   0.607  -0.038   6.519  1.2181  0.2580 -0.5845
 7718SOL     OW24052   2.060   4.935   2.239 -0.5074 -0.0025 -0.8872
 7718SOL    HW124053   2.018   5.016   2.278  0.7714  0.1118  0.3196
 7718SOL    HW224054   2.093   4.956   2.146 -2.1388  0.1797 -1.4561
 7719SOL     OW24055   0.342   0.206   4.917 -0.1834  0.2211  0.1444
 7719SOL    HW124056   0.258   0.177   4.963  0.5354 -2.4341 -0.0628
 7719SOL    HW224057   0.318   0.260   4.836 -1.5566  1.8647  1.5762
 7720SOL     OW24058   5.759   1.203   4.625  0.0100  0.5180  0.3419
 7720SOL    HW124059   5.665   1.172   4.610 -0.0467  0.3820  0.9714
 7720SOL    HW224060   5.771   1.231   4.720  0.5509  0.7452  0.2141
 7721SOL     OW24061   4.511   5.457   3.612 -0.1780 -0.5284 -0.4439
 7721SOL    HW124062   4.411   5.452   3.601 -0.0363 -0.9615 -1.7228
 7721SOL    HW224063   4.554   5.387   3.554  0.9507  0.8599 -1.3481
 7722SOL     OW24064   2.341   4.319   5.713  0.4853 -0.5959  0.1420
 7722SOL    HW124065   2.411   4.247   5.711  0.0897 -1.0372  1.5598
 7722SOL    HW224066   2.251   4.277   5.704  0.2776 -0.2222  0.5009
 7723SOL     OW24067   4.545   4.480   5.765  0.3279  0.9604 -0.5844
 7723SOL    HW124068   4.601   4.424   5.826 -0.3034 -1.3031 -1.9356
 7723SOL    HW224069   4.531   4.570   5.805  1.0797  0.0458  1.9120
 7724SOL     OW24070   2.498   3.931   5.774 -0.1297 -0.3323  0.4846
 7724SOL    HW124071   2.400   3.951   5.775  0.4560  3.2577  0.6920
 7724SOL    HW224072   2.534   3.935   5.867  0.4790  0.2496  0.2346
 7725SOL     OW24073   5.731   1.702   5.897  0.0936  0.0537  0.1412
 7725SOL    HW124074   5.801   1.659   5.953  1.3216 -1.2711 -2.2622
 7725SOL    HW224075   5.753   1.799   5.884  2.1866 -0.5762 -1.4927
 7726SOL     OW24076   1.149   2.126   1.102 -0.1634 -0.1164 -0.3665
 7726SOL    HW124077   1.130   2.223   1.119  0.2189 -0.3742  1.7761
 7726SOL    HW224078   1.241   2.116   1.065 -0.0196  0.2985 -0.1293
 7727SOL     OW24079   6.555   0.772   4.496 -0.4356  0.2681 -0.2171
 7727SOL    HW124080   6.579   0.681   4.463 -0.8859 -0.5701  1.6467
 7727SOL    HW224081   6.487   0.812   4.434 -2.2030 -1.7627  0.2605
 7728SOL     OW24082   2.319   2.342   3.960 -0.1114  0.0280 -0.0009
 7728SOL    HW124083   2.248   2.273   3.950  0.2976 -0.6223  1.3179
 7728SOL    HW224084   2.326   2.369   4.056 -1.2479  3.0142 -0.6559
 7729SOL     OW24085   1.571   1.603   2.894  0.2491 -0.3526 -0.4251
 7729SOL    HW124086   1.608   1.608   2.801  0.4377  2.0473 -0.2705
 7729SOL    HW224087   1.489   1.660   2.900 -0.4860 -1.4702  0.5947
 7730SOL     OW24088   0.438   4.330   5.171  0.4641  0.0940 -0.0863
 7730SOL    HW124089   0.507   4.259   5.176 -0.0870 -0.4222  0.3537
 7730SOL    HW224090   0.398   4.345   5.262 -0.8338 -0.4619 -0.5332
 7731SOL     OW24091   6.648   6.357   6.639  0.4533 -0.6793  0.1314
 7731SOL    HW124092   6.652   6.452   6.610  0.6761 -0.4648  0.8518
 7731SOL    HW224093   6.669   6.298   6.561 -1.2298 -0.2157 -0.7328
 7732SOL     OW24094   3.427   2.024   1.982 -0.1415  0.8050  0.0242
 7732SOL    HW124095   3.480   2.094   1.936  3.6351 -0.3839  2.1388
 7732SOL    HW224096   3.487   1.949   2.010 -3.4011 -1.7829  0.7453
 7733SOL     OW24097   6.503   6.340   1.611  0.5216  0.0460  0.5747
 7733SOL    HW124098   6.590   6.321   1.565 -0.7865 -2.0449 -1.2488
 7733SOL    HW224099   6.427   6.311   1.553 -1.3324 -0.7656  3.1768
 7734SOL     OW24100   3.475   4.170   2.818 -0.5063  0.8377  0.1571
 7734SOL    HW124101   3.384   4.132   2.801 -0.0929 -0.3077  0.4557
 7734SOL    HW224102   3.487   4.186   2.916  0.3936 -1.1043  0.4023
 7735SOL     OW24103   2.003   6.638   2.534 -0.2620  0.9758  0.5229
 7735SOL    HW124104   1.933   6.633   2.605  0.9839  0.7553  1.7784
 7735SOL    HW224105   2.081   6.691   2.568  0.1602  1.2789 -0.8698
 7736SOL     OW24106   2.751   2.774   0.624  0.3271  0.6116 -0.0424
 7736SOL    HW124107   2.795   2.685   0.615  2.1390  1.4014  0.5476
 7736SOL    HW224108   2.655   2.767   0.596 -0.0076 -1.8546  1.4879
 7737SOL     OW24109   3.806   4.394   6.288  0.1133 -0.0921 -0.0450
 7737SOL    HW124110   3.808   4.493   6.303  0.4876  0.0486 -0.9392
 7737SOL    HW224111   3.840   4.348   6.369  1.6037  0.6107 -0.2255
 7738SOL     OW24112   1.626   0.751   5.670 -0.1090  0.5170  0.2679
 7738SOL    HW124113   1.667   0.802   5.595 -1.8172  1.0246 -0.3608
 7738SOL    HW224114   1.526   0.754   5.663 -0.2990 -1.4132  1.2249
 7739SOL     OW24115   6.007   2.442   5.627  0.1315  0.5746 -0.1107
 7739SOL    HW124116   6.001   2.509   5.552  0.9691  0.5919 -0.1717
 7739SOL    HW224117   6.020   2.490   5.713  2.1942  0.4978 -0.3123
 7740SOL     OW24118   2.519   1.829   4.422  0.4666 -0.0808 -0.2261
 7740SOL    HW124119   2.531   1.913   4.475  0.1259 -0.3054  0.2041
 7740SOL    HW224120   2.609   1.790   4.401  0.6048 -1.0381  1.8591
 7741SOL     OW24121   6.785   6.075   4.807  0.0061  0.6024 -0.2764
 7741SOL    HW124122   6.717   6.014   4.849 -0.6375  0.9188 -0.8365
 7741SOL    HW224123   6.860   6.090   4.871 -1.3575  1.7438  1.1278
 7742SOL     OW24124   6.064   2.259   3.139 -0.1903 -0.1286  0.1846
 7742SOL    HW124125   6.039   2.329   3.205 -0.8237  2.0184 -2.1838
 7742SOL    HW224126   6.151   2.217   3.166  0.5767  2.0483  1.3225
 7743SOL     OW24127   4.034   1.854   5.305  0.7227  0.1612 -0.2306
 7743SOL    HW124128   3.936   1.861   5.325  1.0615  1.4502  1.1380
 7743SOL    HW224129   4.078   1.797   5.374  1.0666  0.2256 -0.3951
 7744SOL     OW24130   5.490   6.092   4.290  0.0815  0.1623  0.5018
 7744SOL    HW124131   5.476   5.999   4.255  1.9504  0.6241 -1.6563
 7744SOL    HW224132   5.588   6.114   4.288 -0.1724  1.6854  2.3705
 7745SOL     OW24133   3.133   5.261   1.254 -0.0067  0.2034 -0.4736
 7745SOL    HW124134   3.099   5.168   1.241 -0.6985  0.2409  0.9127
 7745SOL    HW224135   3.168   5.271   1.347  0.9450  1.0684 -0.9052
 7746SOL     OW24136   5.025   5.749   0.296  0.1304 -0.1427 -0.0667
 7746SOL    HW124137   5.042   5.669   0.239 -0.8938 -0.2305 -0.2674
 7746SOL    HW224138   5.017   5.830   0.237  2.4282  0.3610  0.2185
 7747SOL     OW24139   6.291   3.680   0.311  0.4589  0.0843 -0.3315
 7747SOL    HW124140   6.364   3.612   0.301  0.3187 -0.4116  1.5381
 7747SOL    HW224141   6.247   3.695   0.223  0.8573 -1.8517 -0.9165
 7748SOL     OW24142   4.303   0.487   6.342  0.0344 -0.5580  0.3184
 7748SOL    HW124143   4.239   0.420   6.302 -0.9125  0.3975  0.1911
 7748SOL    HW224144   4.310   0.471   6.441  0.0942 -1.0659  0.2356
 7749SOL     OW24145   3.863   2.923   1.861  0.4749 -0.3827 -0.1722
 7749SOL    HW124146   3.963   2.912   1.860  0.5642  0.1807  0.7446
 7749SOL    HW224147   3.840   3.012   1.901 -0.4108 -0.6939  0.0360
 7750SOL     OW24148   5.045   4.873   7.001  0.9522  0.0873  0.7513
 7750SOL    HW124149   4.961   4.821   6.993  1.7578 -1.0880 -0.4593
 7750SOL    HW224150   5.030   4.966   6.967  0.8022 -0.9036 -2.1492
 7751SOL     OW24151   0.360   1.653   3.598 -0.0320  0.1902  0.1028
 7751SOL    HW124152   0.437   1.682   3.542  0.2781  1.0753  0.9491
 7751SOL    HW224153   0.313   1.734   3.634 -0.2683 -0.3532  1.0520
 7752SOL     OW24154   6.143   4.996   0.721  0.6748 -0.0914  0.3617
 7752SOL    HW124155   6.139   5.027   0.816 -2.0735  0.1779  0.2499
 7752SOL    HW224156   6.148   5.074   0.660  0.4125 -0.1660  0.2423
 7753SOL     OW24157   2.561   1.033   6.044 -0.2489 -0.1642  0.7997
 7753SOL    HW124158   2.523   1.017   5.953  4.5981 -0.7403 -1.4977
 7753SOL    HW224159   2.543   1.128   6.071 -1.0493  0.3212 -1.2275
 7754SOL     OW24160   6.445   1.180   1.270  0.1538  0.1461 -0.2515
 7754SOL    HW124161   6.346   1.190   1.255  0.0534  1.3268  0.9532
 7754SOL    HW224162   6.461   1.125   1.352  0.4934 -0.0985 -0.4812
 7755SOL     OW24163   0.409   6.267   4.801  0.1668 -0.0445  0.1907
 7755SOL    HW124164   0.347   6.343   4.783  0.6781  0.4647  0.5546
 7755SOL    HW224165   0.486   6.271   4.737 -0.4383 -0.9908 -0.6251
 7756SOL     OW24166   0.139   0.580   4.174  0.3731  0.6541 -0.2027
 7756SOL    HW124167   0.086   0.508   4.221 -1.4098  3.7103  2.9540
 7756SOL    HW224168   0.236   0.570   4.197  0.4708 -1.6589 -1.2944
 7757SOL     OW24169   5.334   2.211   3.516 -0.1733  0.1203 -0.5409
 7757SOL    HW124170   5.420   2.171   3.483 -0.5921 -3.3018  1.9693
 7757SOL    HW224171   5.293   2.267   3.444  3.6568  1.2250 -2.1292
 7758SOL     OW24172   1.370   1.629   6.481  0.2554 -0.2734 -0.4082
 7758SOL    HW124173   1.355   1.536   6.515 -1.4348 -0.1388 -0.7038
 7758SOL    HW224174   1.464   1.656   6.500  0.3249 -1.4349  1.1579
 7759SOL     OW24175   2.390   0.756   4.887 -0.1687 -0.2793  0.2050
 7759SOL    HW124176   2.348   0.677   4.932  0.6287 -2.1535 -2.1117
 7759SOL    HW224177   2.427   0.818   4.957 -0.2170 -2.2914  2.1481
 7760SOL     OW24178   5.941   0.041   3.243 -0.0715 -0.1332  0.0625
 7760SOL    HW124179   5.946   0.130   3.198  1.5991 -0.2035  0.0722
 7760SOL    HW224180   5.945   0.054   3.343 -0.6043 -0.1775  0.0916
 7761SOL     OW24181   6.022   1.082   1.069 -0.1194 -0.6407  0.2404
 7761SOL    HW124182   6.098   1.132   1.028 -1.4243  1.0745 -0.2006
 7761SOL    HW224183   6.052   0.989   1.093  2.4141  0.3458  1.1834
 7762SOL     OW24184   3.256   2.375   0.843 -0.0879 -0.4636 -0.0741
 7762SOL    HW124185   3.271   2.456   0.787  2.4048 -1.2931 -0.7404
 7762SOL    HW224186   3.221   2.401   0.933 -0.9850  1.1611 -0.8569
 7763SOL     OW24187   2.184   3.216   0.194 -0.2948 -0.5121 -0.7594
 7763SOL    HW124188   2.143   3.131   0.160  0.4403 -1.5201  0.7811
 7763SOL    HW224189   2.244   3.254   0.123 -1.7580 -0.4479 -2.0176
 7764SOL     OW24190   3.905   3.232   3.027 -0.6101 -0.1991 -0.3123
 7764SOL    HW124191   3.931   3.234   3.124 -0.1558 -0.5681 -0.4236
 7764SOL    HW224192   3.854   3.148   3.008 -0.9413  0.0035 -0.3393
 7765SOL     OW24193   0.656   0.809   1.186 -0.1190  0.1350 -0.2399
 7765SOL    HW124194   0.615   0.829   1.096  0.5224  0.6470 -0.4176
 7765SOL    HW224195   0.669   0.894   1.236  2.1410  0.1627 -0.7981
 7766SOL     OW24196   1.053   0.917   6.720  0.1214 -0.2487  0.4315
 7766SOL    HW124197   1.083   0.939   6.813 -0.6584 -0.9116  0.8527
 7766SOL    HW224198   1.097   0.979   6.655  1.0912 -0.1303  1.1860
 7767SOL     OW24199   5.582   4.319   6.593 -0.4013  0.3137 -0.1964
 7767SOL    HW124200   5.572   4.418   6.598 -0.2491  0.2911  0.7400
 7767SOL    HW224201   5.677   4.296   6.573 -0.2205  0.3415  0.6115
 7768SOL     OW24202   4.641   5.663   0.194  0.3154 -0.9428  0.3395
 7768SOL    HW124203   4.618   5.684   0.289  0.4950  0.4596  0.0925
 7768SOL    HW224204   4.694   5.738   0.155 -2.2698 -0.0464 -1.7526
 7769SOL     OW24205   5.201   0.704   3.451  0.0036 -0.3108 -0.5535
 7769SOL    HW124206   5.198   0.644   3.530  0.8853 -0.6243 -0.7573
 7769SOL    HW224207   5.203   0.800   3.482  0.9293 -0.4420 -0.1761
 7770SOL     OW24208   3.811   6.509   0.363  0.0549  0.0173  0.1480
 7770SOL    HW124209   3.773   6.551   0.280  1.2718 -1.3947 -1.2063
 7770SOL    HW224210   3.737   6.463   0.414 -0.8618  1.6814  0.3743
 7771SOL     OW24211   0.851   0.284   3.063  0.2244 -0.1200  0.0613
 7771SOL    HW124212   0.786   0.209   3.081  0.5988 -0.6207 -0.6325
 7771SOL    HW224213   0.912   0.293   3.142  0.0887 -0.4576  0.2115
 7772SOL     OW24214   4.537   1.804   6.681  0.7108 -0.3286 -0.3045
 7772SOL    HW124215   4.453   1.752   6.693 -0.4595  1.3139 -0.9555
 7772SOL    HW224216   4.608   1.768   6.742 -1.5037  0.4658  2.9947
 7773SOL     OW24217   4.127   3.200   6.643 -0.0421  0.2115 -0.6322
 7773SOL    HW124218   4.129   3.138   6.721 -1.1389  1.3721  0.3489
 7773SOL    HW224219   4.136   3.294   6.674  1.0464  0.6070 -2.0585
 7774SOL     OW24220   5.155   1.209   1.594  0.5121 -0.4175 -0.4716
 7774SOL    HW124221   5.229   1.249   1.540  1.2065 -0.2898  0.5483
 7774SOL    HW224222   5.077   1.271   1.595 -0.5247 -1.4876 -3.3879
 7775SOL     OW24223   0.131   6.455   2.436 -0.3819  0.1395  0.5090
 7775SOL    HW124224   0.073   6.536   2.430  0.6568  0.8803  0.2887
 7775SOL    HW224225   0.099   6.397   2.511 -0.0280  1.6598  1.8962
 7776SOL     OW24226   3.091   3.681   6.652  0.2070 -0.3134 -0.1776
 7776SOL    HW124227   3.181   3.639   6.656 -0.0657 -0.9252 -0.2223
 7776SOL    HW224228   3.021   3.610   6.666 -0.2211  0.4728  2.1030
 7777SOL     OW24229   1.862   1.830   6.222  0.0150  0.0458  0.2101
 7777SOL    HW124230   1.778   1.778   6.238  0.0046  0.1467  0.4924
 7777SOL    HW224231   1.853   1.882   6.137  0.4730 -1.3121 -0.7100
 7778SOL     OW24232   6.484   4.003   3.826 -0.2117 -0.2617 -0.6320
 7778SOL    HW124233   6.414   4.051   3.774  1.9835  0.5212 -3.0848
 7778SOL    HW224234   6.491   4.043   3.918 -1.4737  1.0825 -1.0958
 7779SOL     OW24235   4.879   2.808   0.519 -0.4906 -0.4987 -0.3223
 7779SOL    HW124236   4.966   2.807   0.569 -0.3490 -1.0382 -0.5729
 7779SOL    HW224237   4.808   2.846   0.578 -0.3040 -1.0306  0.2610
 7780SOL     OW24238   3.638   0.666   3.961 -0.1336  0.1850 -0.4068
 7780SOL    HW124239   3.647   0.628   4.052  2.1639  0.9305 -0.2527
 7780SOL    HW224240   3.584   0.604   3.904 -1.6645 -0.2572  1.4349
 7781SOL     OW24241   2.242   4.667   5.356  0.0166  0.0784 -0.4649
 7781SOL    HW124242   2.235   4.573   5.390  0.8229  0.9999  2.6365
 7781SOL    HW224243   2.254   4.666   5.257  1.2943 -3.1490 -0.4021
 7782SOL     OW24244   4.795   1.964   0.838 -0.0511  0.5468 -0.3335
 7782SOL    HW124245   4.887   2.003   0.836 -0.0193  0.5799  1.0690
 7782SOL    HW224246   4.783   1.904   0.758  2.1587 -1.5758  0.8108
 7783SOL     OW24247   3.465   6.265   6.084 -0.0050 -0.1234 -0.1958
 7783SOL    HW124248   3.389   6.294   6.026 -0.3283  0.0935  0.3268
 7783SOL    HW224249   3.543   6.240   6.027  0.3376  1.8736 -0.6830
 7784SOL     OW24250   6.890   2.904   0.374 -0.2556  0.1155 -0.5911
 7784SOL    HW124251   6.946   2.915   0.456  2.0884 -1.4661 -1.8780
 7784SOL    HW224252   6.891   2.989   0.321  0.2974  0.3467 -0.2136
 7785SOL     OW24253   1.250   6.542   5.188  0.0271  0.3526 -0.7275
 7785SOL    HW124254   1.345   6.514   5.200 -0.3238 -0.5822 -0.0634
 7785SOL    HW224255   1.212   6.569   5.277 -0.2121  1.1435 -1.0565
 7786SOL     OW24256   5.171   4.431   4.918 -0.2743 -0.0197  0.1213
 7786SOL    HW124257   5.226   4.506   4.883 -1.6451  1.3516  0.8165
 7786SOL    HW224258   5.172   4.355   4.853 -1.5484  1.8638 -2.2304
 7787SOL     OW24259   5.128   2.630   5.510 -0.0533  0.5311 -0.1373
 7787SOL    HW124260   5.144   2.531   5.516  0.3189  0.6784  1.8915
 7787SOL    HW224261   5.174   2.666   5.430  0.0946 -0.8833 -0.7254
 7788SOL     OW24262   6.766   2.122   1.706  0.0967  0.0979 -0.0326
 7788SOL    HW124263   6.676   2.116   1.663 -0.4087 -0.3421  1.0608
 7788SOL    HW224264   6.772   2.205   1.760  0.1655 -0.1142  0.2877
 7789SOL     OW24265   1.265   4.974   2.820 -0.0336 -0.1060 -0.4452
 7789SOL    HW124266   1.295   4.906   2.753 -1.0653 -1.4597  0.4136
 7789SOL    HW224267   1.195   5.033   2.778 -0.8144 -1.0646 -0.5192
 7790SOL     OW24268   0.958   3.277   3.756  0.4311  0.7087 -0.2359
 7790SOL    HW124269   0.938   3.248   3.663  0.3769 -0.9062  0.2413
 7790SOL    HW224270   0.916   3.366   3.773  0.4910  1.0583 -1.7493
 7791SOL     OW24271   6.937   5.742   5.222  0.2704 -0.4435 -0.0427
 7791SOL    HW124272   6.900   5.652   5.246  2.1881 -1.4286 -0.5985
 7791SOL    HW224273   7.031   5.732   5.190  1.3080  2.0146  1.9481
 7792SOL     OW24274   0.035   6.294   6.200 -0.2637 -0.0437 -0.1169
 7792SOL    HW124275   0.015   6.276   6.296 -0.6038  0.2445 -0.1351
 7792SOL    HW224276  -0.011   6.227   6.142  3.2194 -2.9395  0.0835
 7793SOL     OW24277   1.487   4.326   4.649 -0.7075  0.6331 -0.7478
 7793SOL    HW124278   1.402   4.303   4.696  0.5505 -0.6362  1.0416
 7793SOL    HW224279   1.542   4.244   4.636  1.1003  1.6582 -0.0620
 7794SOL     OW24280   6.350   5.322   2.680  0.1335 -0.3857  0.3088
 7794SOL    HW124281   6.423   5.281   2.626 -0.8132  0.1817 -1.4798
 7794SOL    HW224282   6.279   5.253   2.697  0.2263 -0.4445  0.4629
 7795SOL     OW24283   1.070   5.934   0.214 -0.3504 -0.3702  0.5896
 7795SOL    HW124284   1.125   5.858   0.182  1.9756  1.0211  1.0580
 7795SOL    HW224285   1.076   5.940   0.314 -0.2748  0.5671  0.5369
 7796SOL     OW24286   3.635   3.811   4.751 -0.3354 -0.0092  0.4639
 7796SOL    HW124287   3.693   3.762   4.814 -0.4073  0.3777  0.8354
 7796SOL    HW224288   3.665   3.794   4.657  0.7468  0.6483  0.6742
 7797SOL     OW24289   0.298   5.464   3.967 -0.4241  0.2796  0.5995
 7797SOL    HW124290   0.225   5.532   3.973  0.5457  1.7401 -2.5016
 7797SOL    HW224291   0.358   5.485   3.890  3.0703 -1.1319  2.6976
 7798SOL     OW24292   6.172   5.685   1.278  0.6011 -0.2735  0.7786
 7798SOL    HW124293   6.072   5.679   1.277  0.4477  1.6327  0.1889
 7798SOL    HW224294   6.201   5.738   1.357  1.1309 -0.5381  0.7648
 7799SOL     OW24295   6.144   5.511   1.963  0.3812 -0.2444 -0.6831
 7799SOL    HW124296   6.199   5.585   2.001  0.2957 -1.2164  1.5048
 7799SOL    HW224297   6.048   5.539   1.960  0.1242 -0.6857  1.5315
 7800SOL     OW24298   0.499   0.423   2.414 -0.2597 -0.2017 -0.2951
 7800SOL    HW124299   0.591   0.389   2.435  0.2438  1.5376  0.4340
 7800SOL    HW224300   0.447   0.433   2.499 -1.3588 -1.7133 -0.7439
 7801SOL     OW24301   4.064   2.176   4.493  0.2904  0.0236  0.2727
 7801SOL    HW124302   3.975   2.146   4.528  0.5885 -0.3637  0.7058
 7801SOL    HW224303   4.115   2.097   4.460 -0.1729  0.4127 -1.5182
 7802SOL     OW24304   5.022   1.720   6.933  0.1439  0.5146 -0.1009
 7802SOL    HW124305   5.071   1.797   6.892  3.2394 -0.9630  0.5542
 7802SOL    HW224306   4.955   1.685   6.867  1.4252  1.3521 -1.9432
 7803SOL     OW24307   4.178   3.133   0.398  0.5971 -0.5525  0.0109
 7803SOL    HW124308   4.149   3.148   0.303  1.1295  0.2548 -0.0400
 7803SOL    HW224309   4.141   3.207   0.455 -2.5192 -2.7535  1.0896
 7804SOL     OW24310   4.792   0.411   4.312 -0.0723  0.0324  0.0869
 7804SOL    HW124311   4.768   0.317   4.287  1.4982 -0.1758 -0.7448
 7804SOL    HW224312   4.713   0.455   4.354 -1.3697 -1.1368 -1.0125
 7805SOL     OW24313   3.464   2.321   1.278 -0.2005  0.7875  0.7978
 7805SOL    HW124314   3.516   2.387   1.224 -0.3804 -0.6747 -1.2981
 7805SOL    HW224315   3.496   2.229   1.258 -1.5395  0.0607  1.8168
 7806SOL     OW24316   4.672   3.333   6.792 -0.7825 -0.5874  0.3133
 7806SOL    HW124317   4.739   3.325   6.719 -1.0200  0.7986 -0.0725
 7806SOL    HW224318   4.580   3.321   6.755 -1.0501  2.0916 -0.0252
 7807SOL     OW24319   0.203   5.042   5.030 -0.3137  0.2601 -0.1005
 7807SOL    HW124320   0.174   4.949   5.049 -1.2905  0.7196  0.7848
 7807SOL    HW224321   0.232   5.086   5.116 -0.0943  0.8374 -0.4637
 7808SOL     OW24322   6.972   0.628   5.803 -0.2555  0.3578  0.5690
 7808SOL    HW124323   7.068   0.656   5.805  0.1930 -1.0033 -0.3180
 7808SOL    HW224324   6.967   0.528   5.801 -1.5026  0.3319 -3.7349
 7809SOL     OW24325   0.380   4.481   0.037  0.3371  0.5815 -0.5347
 7809SOL    HW124326   0.320   4.402   0.051  1.2585  0.2146  1.7807
 7809SOL    HW224327   0.328   4.565   0.050  0.0722  0.2894  0.3454
 7810SOL     OW24328   3.196   2.030   6.488 -0.0263  0.3902  0.0767
 7810SOL    HW124329   3.144   2.058   6.407 -1.6287 -1.3164  0.4393
 7810SOL    HW224330   3.195   1.930   6.495  1.4500  0.4328  1.3527
 7811SOL     OW24331   6.048   5.625   6.651  0.1374  0.3735 -0.3376
 7811SOL    HW124332   5.990   5.683   6.708 -0.1335 -1.0576  0.9276
 7811SOL    HW224333   6.135   5.609   6.698 -0.6683 -2.0586  0.4624
 7812SOL     OW24334   1.757   0.188   3.364 -0.4891 -0.0847  0.5685
 7812SOL    HW124335   1.764   0.287   3.357 -0.1593 -0.2179 -2.9472
 7812SOL    HW224336   1.661   0.160   3.364 -0.5949  0.2203 -0.5620
 7813SOL     OW24337   5.707   1.739   0.243 -0.2623 -0.1501 -0.1968
 7813SOL    HW124338   5.708   1.687   0.328 -0.1144  1.8519  1.0794
 7813SOL    HW224339   5.616   1.732   0.201 -0.3386 -1.1513  0.1055
 7814SOL     OW24340   2.104   2.237   3.047 -0.0515 -0.1275 -0.5913
 7814SOL    HW124341   2.143   2.163   3.101  0.5760  1.2185  0.8589
 7814SOL    HW224342   2.071   2.201   2.960 -0.0424 -2.1487  0.2018
 7815SOL     OW24343   6.815   1.938   5.028  0.5752  0.2380  0.3382
 7815SOL    HW124344   6.766   1.995   4.962  0.7422  1.1398  0.9688
 7815SOL    HW224345   6.754   1.916   5.104  0.8803  0.6171  0.6944
 7816SOL     OW24346   6.538   4.165   6.846  0.4178  0.4910  0.0781
 7816SOL    HW124347   6.457   4.162   6.787 -1.3640 -1.9131  2.3399
 7816SOL    HW224348   6.612   4.114   6.804 -0.5710 -0.5929 -0.4152
 7817SOL     OW24349   4.469   1.210   4.986 -0.8165 -0.1892 -0.4796
 7817SOL    HW124350   4.450   1.308   4.995  0.5125  0.2214 -1.8186
 7817SOL    HW224351   4.491   1.172   5.076  3.7325  1.9108 -0.4237
 7818SOL     OW24352   5.832   2.580   3.115  0.1478  0.1580 -0.1928
 7818SOL    HW124353   5.849   2.666   3.066 -1.3472  0.6560  0.1142
 7818SOL    HW224354   5.735   2.572   3.136  0.5346 -0.7317  1.4258
 7819SOL     OW24355   1.928   1.654   6.965  0.0722 -0.3405  0.3397
 7819SOL    HW124356   1.844   1.694   7.001 -0.5052 -0.9080 -0.3380
 7819SOL    HW224357   1.974   1.720   6.906 -0.8056 -0.6104 -0.6689
 7820SOL     OW24358   5.491   0.514   6.144  0.4046 -0.1767 -0.3330
 7820SOL    HW124359   5.584   0.483   6.122  0.5502  0.1677 -0.2179
 7820SOL    HW224360   5.457   0.571   6.070 -0.5312 -1.9544 -1.3530
 7821SOL     OW24361   4.896   6.741   2.212 -0.9260 -0.5125 -0.0824
 7821SOL    HW124362   4.918   6.805   2.139  1.1906 -1.3044 -0.2200
 7821SOL    HW224363   4.806   6.762   2.249 -0.2095  2.7318  0.1067
 7822SOL     OW24364   0.472   6.849   6.447  0.3542 -0.4800  0.3402
 7822SOL    HW124365   0.383   6.831   6.405 -0.2796 -1.9148  2.1898
 7822SOL    HW224366   0.534   6.773   6.428  0.9438  0.1104 -0.1942
 7823SOL     OW24367   0.396   3.170   4.175 -0.6746  0.0898 -0.9952
 7823SOL    HW124368   0.323   3.108   4.203 -0.9601  0.2261 -1.4309
 7823SOL    HW224369   0.453   3.193   4.254 -0.7027 -0.5463 -0.7864
 7824SOL     OW24370   1.075   3.096   4.854 -0.3250  0.1676  0.2928
 7824SOL    HW124371   1.121   3.183   4.867  0.9396 -0.6123  1.3272
 7824SOL    HW224372   1.123   3.043   4.784  0.1559 -0.4928  1.1008
 7825SOL     OW24373   2.105   2.624   1.256  0.2789  0.3075 -0.8976
 7825SOL    HW124374   2.123   2.701   1.317 -0.8087 -0.5297  0.5520
 7825SOL    HW224375   2.082   2.658   1.165 -0.3725  1.7014 -0.2340
 7826SOL     OW24376   2.115   3.073   5.102 -0.0994 -0.3138 -0.9544
 7826SOL    HW124377   2.207   3.035   5.091 -0.1706 -0.0374 -2.8233
 7826SOL    HW224378   2.094   3.082   5.200  2.7906  1.8392 -0.4006
 7827SOL     OW24379   5.367   4.408   3.963 -0.4046  0.5356 -0.4623
 7827SOL    HW124380   5.373   4.332   3.899 -1.0168  0.6834 -0.7055
 7827SOL    HW224381   5.327   4.487   3.917  1.1911  1.3519 -0.5060
 7828SOL     OW24382   1.101   0.297   6.853 -0.2904 -0.0906 -0.4935
 7828SOL    HW124383   1.065   0.307   6.946 -1.2508  0.9489 -0.9630
 7828SOL    HW224384   1.201   0.307   6.855 -0.5144  2.6253  0.0929
 7829SOL     OW24385   3.754   5.414   1.897  0.4446 -0.0243 -0.3724
 7829SOL    HW124386   3.769   5.480   1.823  0.7273 -0.7104 -0.9401
 7829SOL    HW224387   3.682   5.447   1.958 -0.2833  0.2182 -1.3502
 7830SOL     OW24388   1.235   6.973   3.709  0.3287  1.0020  0.2417
 7830SOL    HW124389   1.298   6.941   3.781  1.8194  1.3657 -0.8491
 7830SOL    HW224390   1.193   7.060   3.738 -0.3939  0.3015  1.3653
 7831SOL     OW24391   0.851   1.280   1.129  0.0448 -0.1357  0.3949
 7831SOL    HW124392   0.879   1.373   1.150 -0.7838  0.3833 -0.6827
 7831SOL    HW224393   0.842   1.270   1.030 -0.4641 -1.1895  0.5344
 7832SOL     OW24394   0.441   0.214   6.420  0.4961 -0.4976  0.0278
 7832SOL    HW124395   0.477   0.159   6.495  1.0878  1.3604  1.1636
 7832SOL    HW224396   0.351   0.180   6.395  0.2486 -1.1375  1.6403
 7833SOL     OW24397   6.968   0.333   3.363 -0.3462 -0.5420  0.1256
 7833SOL    HW124398   6.935   0.427   3.360  0.1433 -0.3868 -0.5680
 7833SOL    HW224399   6.896   0.271   3.335 -0.6933 -0.3872  0.6524
 7834SOL     OW24400   2.061   2.949   4.553 -0.5725 -0.0969  0.1471
 7834SOL    HW124401   2.130   2.904   4.610 -1.2792 -1.4524 -0.0220
 7834SOL    HW224402   2.059   3.047   4.574  1.3618 -0.0272  0.1658
 7835SOL     OW24403   3.307   3.036   0.563  0.6520  0.6587  0.5917
 7835SOL    HW124404   3.344   2.983   0.486 -0.7150  0.8541 -0.2346
 7835SOL    HW224405   3.247   3.108   0.527  1.1058  1.6716  1.7890
 7836SOL     OW24406   3.454   3.496   4.843  0.1122 -0.3401  0.5278
 7836SOL    HW124407   3.515   3.565   4.805 -0.2414 -0.3803 -0.1147
 7836SOL    HW224408   3.426   3.433   4.771 -1.3266  0.1460  0.6352
 7837SOL     OW24409   6.156   3.508   2.805 -0.0683 -0.1522 -0.1189
 7837SOL    HW124410   6.253   3.499   2.826 -0.6031 -1.6409  2.0191
 7837SOL    HW224411   6.125   3.430   2.751  0.1392  1.0107 -2.0496
 7838SOL     OW24412   4.399   3.616   0.746 -0.5010  0.6176  0.0683
 7838SOL    HW124413   4.470   3.663   0.798 -0.8892  1.6017 -0.2719
 7838SOL    HW224414   4.440   3.540   0.695  0.4407  1.5828 -0.6589
 7839SOL     OW24415   5.685   3.980   4.325  0.4135 -0.4289  0.2775
 7839SOL    HW124416   5.637   4.035   4.394  1.8631  0.9076  0.2954
 7839SOL    HW224417   5.783   4.003   4.328  0.2496  1.7395 -3.9437
 7840SOL     OW24418   1.747   1.200   3.718  0.3788 -0.0085 -0.6603
 7840SOL    HW124419   1.678   1.230   3.784  0.3599  0.2400 -0.7913
 7840SOL    HW224420   1.735   1.102   3.700  2.4556 -0.9043  2.2228
 7841SOL     OW24421   3.939   2.257   6.163  0.2787  0.1873 -0.0202
 7841SOL    HW124422   3.905   2.348   6.140 -1.0460  0.5872  2.9405
 7841SOL    HW224423   4.038   2.259   6.172  0.2443  1.4261  0.2419
 7842SOL     OW24424   1.277   0.714   2.107  0.1656  0.0582 -0.2889
 7842SOL    HW124425   1.281   0.780   2.032 -1.8378 -0.2222 -0.6915
 7842SOL    HW224426   1.261   0.623   2.070  0.3853 -0.2717  0.4190
 7843SOL     OW24427   6.147   4.829   3.987 -0.3386 -0.0930 -0.1248
 7843SOL    HW124428   6.080   4.835   4.061 -0.2415  0.5190 -0.0830
 7843SOL    HW224429   6.237   4.807   4.025 -0.3232  0.0502 -0.0791
 7844SOL     OW24430   1.965   1.243   1.286 -0.3660 -0.0101  0.3011
 7844SOL    HW124431   1.981   1.159   1.336  0.9576  0.5824  0.9275
 7844SOL    HW224432   1.950   1.222   1.189 -1.0890 -1.0211  0.6175
 7845SOL     OW24433   0.925   4.671   1.311  0.3565 -0.6129  0.4047
 7845SOL    HW124434   0.986   4.744   1.282 -0.1680 -0.4062 -0.1994
 7845SOL    HW224435   0.976   4.585   1.318  0.6926 -0.4664 -0.2115
 7846SOL     OW24436   6.603   2.468   2.489  0.1698  0.0844 -0.0077
 7846SOL    HW124437   6.651   2.485   2.403 -0.6653  1.0247 -0.3192
 7846SOL    HW224438   6.570   2.373   2.491 -0.9862  0.4148 -1.3711
 7847SOL     OW24439   4.535   4.808   4.942  0.0014 -0.4693  0.0981
 7847SOL    HW124440   4.467   4.797   5.014 -0.3089  0.3336 -0.0549
 7847SOL    HW224441   4.564   4.719   4.909 -2.8398 -0.8993 -1.5748
 7848SOL     OW24442   3.808   6.538   6.291 -0.1806  0.0681  0.0141
 7848SOL    HW124443   3.791   6.462   6.228 -1.0106  0.1540  0.1217
 7848SOL    HW224444   3.861   6.505   6.369 -1.1221 -0.5649  0.4019
 7849SOL     OW24445   5.624   4.751   0.570 -0.0914  0.5481  0.1896
 7849SOL    HW124446   5.721   4.726   0.571  0.0358  1.0202 -0.1110
 7849SOL    HW224447   5.602   4.800   0.654 -0.5274 -1.2114  1.1593
 7850SOL     OW24448   5.471   6.976   3.732  0.4569 -0.4156  0.3507
 7850SOL    HW124449   5.427   6.978   3.822 -0.9252  0.9580 -0.3008
 7850SOL    HW224450   5.499   7.069   3.707  0.7435 -0.7649 -0.6844
 7851SOL     OW24451   0.962   2.852   0.742 -0.1333 -0.2917  0.2505
 7851SOL    HW124452   0.867   2.881   0.731  0.3347  1.2562  0.0966
 7851SOL    HW224453   1.022   2.919   0.700  1.0418 -1.2595  0.3408
 7852SOL     OW24454   0.271   3.702   4.908  0.5459 -0.0720 -0.2222
 7852SOL    HW124455   0.317   3.682   4.822  0.1576  0.4196 -0.5517
 7852SOL    HW224456   0.252   3.801   4.914 -2.2038 -0.4603 -1.0059
 7853SOL     OW24457   5.145   1.901   1.045 -0.5745  0.2064 -0.0794
 7853SOL    HW124458   5.134   1.939   0.953  1.3711  1.5722  0.1833
 7853SOL    HW224459   5.129   1.973   1.113 -0.9547 -0.5220  0.6209
 7854SOL     OW24460   4.248   0.055   1.007  0.3214 -0.5800 -0.7227
 7854SOL    HW124461   4.344   0.044   0.983  1.2037  1.1836  1.6891
 7854SOL    HW224462   4.198   0.090   0.928  2.1445  0.7454 -1.3486
 7855SOL     OW24463   5.411   5.183   3.015  0.5245 -0.0465  0.0128
 7855SOL    HW124464   5.335   5.248   3.011  0.0804 -0.5951 -0.9787
 7855SOL    HW224465   5.374   5.090   3.017  1.1635 -0.3117 -0.2767
 7856SOL     OW24466   0.785   5.206   6.096 -0.2156 -0.0575  0.1923
 7856SOL    HW124467   0.788   5.109   6.076 -0.2077  0.0585 -0.3791
 7856SOL    HW224468   0.770   5.258   6.012  0.6678  0.4917  0.3547
 7857SOL     OW24469   6.860   4.077   0.965 -0.0872  0.0413  0.1634
 7857SOL    HW124470   6.941   4.134   0.955 -0.2849  0.0887 -1.4029
 7857SOL    HW224471   6.874   3.990   0.918 -0.6664 -0.2532  0.5243
 7858SOL     OW24472   6.694   5.726   5.411  0.2152 -0.1681 -0.4734
 7858SOL    HW124473   6.757   5.664   5.458  0.4453 -0.0797 -0.6620
 7858SOL    HW224474   6.739   5.814   5.395  0.2922 -0.3376 -1.2407
 7859SOL     OW24475   6.679   1.215   2.488  0.1286 -0.4180 -0.0877
 7859SOL    HW124476   6.667   1.174   2.397  0.5824 -0.5385 -0.0971
 7859SOL    HW224477   6.589   1.236   2.527 -0.2581 -2.9574  0.6114
 7860SOL     OW24478   0.903   3.078   3.268 -0.4192 -0.4239  0.4372
 7860SOL    HW124479   0.981   3.038   3.317 -0.1436  1.1671  1.3573
 7860SOL    HW224480   0.824   3.017   3.277  0.3994 -1.5062  0.4588
 7861SOL     OW24481   1.620   4.851   0.355 -0.1292 -0.0073 -0.8240
 7861SOL    HW124482   1.536   4.797   0.364 -0.0498 -0.3536 -1.9919
 7861SOL    HW224483   1.597   4.948   0.351 -0.3986 -0.0439 -0.2473
 7862SOL     OW24484   0.895   5.804   0.605  0.8684  0.0364  0.2118
 7862SOL    HW124485   0.867   5.711   0.579  0.2310  0.2297  0.1809
 7862SOL    HW224486   0.817   5.851   0.646  0.9420  0.8459 -0.5517
 7863SOL     OW24487   1.601   5.463   3.317 -0.2631  0.0380 -0.5183
 7863SOL    HW124488   1.621   5.391   3.251  1.3302  0.6603 -0.7664
 7863SOL    HW224489   1.546   5.426   3.392 -0.2621 -1.1935 -1.1083
 7864SOL     OW24490   2.487   5.168   4.713  0.1119  0.2305 -0.3609
 7864SOL    HW124491   2.539   5.193   4.795 -0.4717  1.0700 -0.2316
 7864SOL    HW224492   2.525   5.084   4.674 -0.7418 -1.2890  1.8149
 7865SOL     OW24493   6.242   5.232   6.125  0.1274  0.0790 -0.1196
 7865SOL    HW124494   6.188   5.316   6.128 -0.7215 -0.4391 -0.2283
 7865SOL    HW224495   6.283   5.222   6.034 -0.1497  0.1584 -0.2571
 7866SOL     OW24496   1.207   2.143   5.940 -0.3655 -0.0628  0.2576
 7866SOL    HW124497   1.119   2.139   5.893  1.1346 -0.6402 -2.8134
 7866SOL    HW224498   1.229   2.053   5.977 -1.0815  0.0941  1.0640
 7867SOL     OW24499   4.237   6.276   1.533  0.6188  0.1546  0.2181
 7867SOL    HW124500   4.138   6.288   1.538  0.5131 -0.3723 -0.5053
 7867SOL    HW224501   4.267   6.210   1.602  0.5021  0.4947  0.5974
 7868SOL     OW24502   5.506   5.398   0.210  0.3293 -0.6471 -0.2814
 7868SOL    HW124503   5.582   5.457   0.183  1.2013 -0.7858  1.6841
 7868SOL    HW224504   5.537   5.335   0.282 -0.5289 -3.5712 -2.3133
 7869SOL     OW24505   5.925   5.183   1.884 -0.8679  0.0781  0.1280
 7869SOL    HW124506   5.990   5.202   1.957  1.9787  0.4621 -2.2876
 7869SOL    HW224507   5.872   5.265   1.865 -0.1229  0.6442  0.4241
 7870SOL     OW24508   5.184   2.693   1.673  0.0787 -0.1436 -0.3339
 7870SOL    HW124509   5.262   2.756   1.669  1.1128 -1.0828  2.5251
 7870SOL    HW224510   5.100   2.746   1.684  0.6110  0.8194 -0.7383
 7871SOL     OW24511   2.317   6.953   0.881 -0.3667  0.6418  0.4439
 7871SOL    HW124512   2.369   7.035   0.907  0.7221  0.2869 -0.5221
 7871SOL    HW224513   2.358   6.913   0.799 -1.7243 -0.1000  0.1070
 7872SOL     OW24514   5.952   4.883   4.171  0.0315 -0.3140  0.3117
 7872SOL    HW124515   5.981   4.977   4.187 -0.8385  0.1792 -0.8375
 7872SOL    HW224516   5.912   4.845   4.255 -1.3138  1.0017  0.3039
 7873SOL     OW24517   5.950   2.123   6.652  0.6150 -0.5626 -0.1300
 7873SOL    HW124518   5.855   2.129   6.680  0.3334 -1.0148 -0.9582
 7873SOL    HW224519   5.964   2.040   6.597  1.2920 -0.0618 -0.7423
 7874SOL     OW24520   5.909   1.984   1.835  0.8240  0.5977  0.0912
 7874SOL    HW124521   5.947   1.897   1.868  0.8548  0.6092  0.0859
 7874SOL    HW224522   5.816   1.994   1.870  0.4721  0.1209 -0.6750
 7875SOL     OW24523   1.917   4.107   1.365  0.0137  0.5825  0.3100
 7875SOL    HW124524   1.858   4.121   1.444 -0.8509  0.3545 -0.2720
 7875SOL    HW224525   2.008   4.145   1.383 -0.7288  2.2716  0.6891
 7876SOL     OW24526   1.425   5.547   1.342  0.1567 -0.2211  0.2842
 7876SOL    HW124527   1.432   5.639   1.304 -2.7071 -0.3027 -0.6510
 7876SOL    HW224528   1.411   5.554   1.441 -0.4738  0.4139  0.1657
 7877SOL     OW24529   1.701   2.778   2.012  0.3097 -0.1518  0.3270
 7877SOL    HW124530   1.616   2.818   1.979 -0.1573 -0.0053  1.6648
 7877SOL    HW224531   1.683   2.724   2.094  1.2735 -1.3625 -0.2266
 7878SOL     OW24532   3.957   1.280   2.449  0.4233 -0.2230 -0.2339
 7878SOL    HW124533   3.956   1.342   2.528  1.3713 -1.9234  1.1690
 7878SOL    HW224534   3.887   1.309   2.384  0.4750  1.9984  0.6062
 7879SOL     OW24535   2.560   5.163   1.811 -0.4335  0.3931  0.1249
 7879SOL    HW124536   2.606   5.077   1.790  0.4618  1.6330 -3.8699
 7879SOL    HW224537   2.626   5.228   1.850 -0.1402  0.4589 -0.4739
 7880SOL     OW24538   1.382   3.807   1.745  0.4169 -0.6008 -0.0556
 7880SOL    HW124539   1.455   3.829   1.681  1.7212 -0.2458  1.4951
 7880SOL    HW224540   1.383   3.709   1.764  0.3694 -0.6260 -0.1842
 7881SOL     OW24541   6.233   4.496   3.269  0.3492 -0.6373 -0.1343
 7881SOL    HW124542   6.279   4.571   3.317 -1.1284  0.6615 -0.6640
 7881SOL    HW224543   6.256   4.409   3.313  0.9403  0.2676  1.4289
 7882SOL     OW24544   0.498   3.753   6.941  0.5474  0.0294  0.2488
 7882SOL    HW124545   0.422   3.813   6.914  0.0578 -0.9682 -0.6946
 7882SOL    HW224546   0.474   3.658   6.919  1.6406 -0.4183  0.9416
 7883SOL     OW24547   6.597   7.001   5.384 -0.1527  0.3522  0.4837
 7883SOL    HW124548   6.657   7.081   5.384  0.5188 -0.1330 -0.4985
 7883SOL    HW224549   6.636   6.930   5.325 -0.9839 -0.5178  0.9599
 7884SOL     OW24550   1.733   1.671   3.167  0.0200  0.1496 -0.2841
 7884SOL    HW124551   1.708   1.726   3.247  0.1866 -0.0543 -0.0889
 7884SOL    HW224552   1.651   1.631   3.127 -0.0480  0.1112 -0.1096
 7885SOL     OW24553   6.299   5.565   6.752  0.0478 -0.4407  0.0883
 7885SOL    HW124554   6.310   5.587   6.849  1.4883 -0.8702  0.0453
 7885SOL    HW224555   6.388   5.538   6.714 -0.4532 -0.0501 -1.4085
 7886SOL     OW24556   5.138   2.523   6.795 -0.2329 -0.0391  0.1381
 7886SOL    HW124557   5.152   2.495   6.700  0.7019  0.1674  0.2057
 7886SOL    HW224558   5.052   2.486   6.828 -0.8314  0.3333 -0.9555
 7887SOL     OW24559   3.802   1.615   0.602  0.0511  0.1285 -0.4758
 7887SOL    HW124560   3.747   1.603   0.519 -0.6970  0.6028 -0.0543
 7887SOL    HW224561   3.853   1.700   0.596  0.5904 -0.2082 -0.7735
 7888SOL     OW24562   3.042   4.778   5.220  0.0857  0.5070  0.5570
 7888SOL    HW124563   3.063   4.845   5.149  1.1904  0.6110  0.9640
 7888SOL    HW224564   2.975   4.713   5.185  0.4850  0.6490 -0.5236
 7889SOL     OW24565   5.604   4.544   1.905  0.4588  0.7761 -0.3724
 7889SOL    HW124566   5.587   4.529   1.808  2.2044 -0.4272 -0.5573
 7889SOL    HW224567   5.518   4.552   1.954 -0.4638  0.5602 -1.9093
 7890SOL     OW24568   2.963   5.446   4.599  0.7801 -0.5162 -0.3822
 7890SOL    HW124569   2.975   5.419   4.695  1.9522  3.0964  0.6401
 7890SOL    HW224570   3.052   5.466   4.559  0.1775 -0.5838 -1.8012
 7891SOL     OW24571   0.883   4.285   3.232  0.1956 -0.1338 -0.5132
 7891SOL    HW124572   0.827   4.354   3.278 -0.6579  0.0393 -1.7583
 7891SOL    HW224573   0.976   4.319   3.220  0.2386  0.0968  0.4280
 7892SOL     OW24574   3.320   1.734   3.284  0.2371  0.2082 -0.1495
 7892SOL    HW124575   3.289   1.828   3.269  0.4595  0.2415 -0.4021
 7892SOL    HW224576   3.416   1.734   3.312  0.2650  0.0518 -0.2438
 7893SOL     OW24577   4.959   4.794   2.012  0.0110 -0.5046  0.8477
 7893SOL    HW124578   4.920   4.752   2.094  0.0201 -1.4864  0.3609
 7893SOL    HW224579   4.890   4.795   1.940  0.4842 -1.1081  0.3752
 7894SOL     OW24580   5.209   6.644   1.787 -0.3026  0.1119 -0.4518
 7894SOL    HW124581   5.123   6.617   1.831 -1.2774  0.3697 -2.1012
 7894SOL    HW224582   5.206   6.741   1.764  1.1296  0.5296  0.9028
 7895SOL     OW24583   6.566   3.447   4.865  0.1962  0.1058 -0.3065
 7895SOL    HW124584   6.657   3.459   4.903 -0.6953  0.6304  1.8205
 7895SOL    HW224585   6.512   3.388   4.925 -1.4827  1.4547 -0.3868
 7896SOL     OW24586   3.544   0.808   4.841 -0.5366  1.0877  0.4208
 7896SOL    HW124587   3.636   0.846   4.852  0.2993 -0.6805 -0.1563
 7896SOL    HW224588   3.530   0.733   4.905 -0.4218 -0.6386 -1.4498
 7897SOL     OW24589   2.672   4.872   5.403 -0.5963 -0.6539  0.4233
 7897SOL    HW124590   2.687   4.924   5.319 -0.9753 -1.6984 -0.3182
 7897SOL    HW224591   2.759   4.834   5.434 -0.5292 -0.6675  0.2213
 7898SOL     OW24592   0.305   5.821   4.577 -0.0006  0.1875 -0.1247
 7898SOL    HW124593   0.381   5.884   4.560 -1.2474  1.5258 -0.9602
 7898SOL    HW224594   0.287   5.768   4.494  0.6327 -0.8501  0.3798
 7899SOL     OW24595   3.772   0.289   0.547  0.6258  0.0265 -0.1464
 7899SOL    HW124596   3.850   0.350   0.539 -1.9969  3.5754 -1.2659
 7899SOL    HW224597   3.714   0.318   0.624 -0.3874 -1.4792 -0.2974
 7900SOL     OW24598   6.591   5.313   2.818  0.0026  0.0737 -0.0635
 7900SOL    HW124599   6.497   5.341   2.796 -0.2098  0.4374  1.2629
 7900SOL    HW224600   6.647   5.394   2.834  0.4794 -0.1526 -0.5381
 7901SOL     OW24601   5.660   4.650   3.588 -0.1006  0.3417  0.1427
 7901SOL    HW124602   5.685   4.726   3.647  1.6393  0.3369 -0.5424
 7901SOL    HW224603   5.739   4.589   3.576 -1.3363 -1.3680  0.3650
 7902SOL     OW24604   2.370   6.254   5.280 -0.0485 -0.0318 -0.3072
 7902SOL    HW124605   2.370   6.353   5.295 -1.4658 -0.0531 -0.0271
 7902SOL    HW224606   2.388   6.235   5.184 -0.7229  0.5575 -0.5611
 7903SOL     OW24607   0.901   2.051   1.969  0.1866  0.4824  0.4728
 7903SOL    HW124608   0.942   2.050   2.061 -0.1302  0.7919  0.6204
 7903SOL    HW224609   0.802   2.061   1.978  0.0017 -0.8387  0.1449
 7904SOL     OW24610   4.836   1.206   3.796  0.6727 -0.2557 -0.0074
 7904SOL    HW124611   4.857   1.166   3.707  1.8992  1.9008 -0.7691
 7904SOL    HW224612   4.899   1.168   3.864  0.0522 -1.5533 -0.1285
 7905SOL     OW24613   2.930   3.791   0.840  0.5616  0.4824 -0.1465
 7905SOL    HW124614   2.996   3.728   0.799 -2.1377 -2.3360 -0.5369
 7905SOL    HW224615   2.940   3.789   0.940  0.9758 -0.0515 -0.1911
 7906SOL     OW24616   2.633   3.883   0.293  0.3495  0.1752  0.3771
 7906SOL    HW124617   2.631   3.866   0.391  0.5956  1.3375  0.5956
 7906SOL    HW224618   2.591   3.971   0.273  1.3105  0.4680 -0.4319
 7907SOL     OW24619   0.611   2.421   4.488  0.1293 -0.2919 -0.1361
 7907SOL    HW124620   0.572   2.330   4.471 -1.3394  0.8044 -3.5767
 7907SOL    HW224621   0.622   2.469   4.401  0.5847  2.9726  1.5618
 7908SOL     OW24622   6.767   0.287   3.767  0.2106 -0.5647 -0.2427
 7908SOL    HW124623   6.699   0.329   3.708 -1.8853 -1.7506  1.1902
 7908SOL    HW224624   6.751   0.314   3.862  0.4579 -2.4312  0.3790
 7909SOL     OW24625   2.559   5.485   4.993  0.3461 -0.3881  0.4480
 7909SOL    HW124626   2.516   5.497   4.904 -1.1973 -0.8986  1.0899
 7909SOL    HW224627   2.498   5.518   5.064  0.8128 -1.5654  1.4388
 7910SOL     OW24628   0.411   4.944   5.523  0.4339  0.7658  0.1706
 7910SOL    HW124629   0.430   4.882   5.600  1.3637 -0.0465 -0.6930
 7910SOL    HW224630   0.323   4.919   5.482  0.9105 -0.1737 -0.3243
 7911SOL     OW24631   5.376   4.789   6.745 -0.1984 -0.0642  0.2116
 7911SOL    HW124632   5.405   4.694   6.733 -0.8143 -0.4463  1.5848
 7911SOL    HW224633   5.282   4.791   6.779  1.0702  0.8370  4.1252
 7912SOL     OW24634   0.071   6.300   4.534  0.1117 -0.1993 -0.1261
 7912SOL    HW124635   0.158   6.258   4.509 -0.8164 -1.5950 -1.1557
 7912SOL    HW224636   0.002   6.229   4.549 -0.7256  0.8513  1.2350
 7913SOL     OW24637   2.026   0.774   0.838 -0.5384 -0.2328 -0.6349
 7913SOL    HW124638   2.029   0.727   0.927  1.3026  0.7205 -0.1565
 7913SOL    HW224639   1.977   0.716   0.773 -0.4552 -1.7309  0.5509
 7914SOL     OW24640   6.281   3.931   2.914  0.7140  0.1823 -0.8026
 7914SOL    HW124641   6.355   3.870   2.941 -0.5594 -0.3430  1.9340
 7914SOL    HW224642   6.304   4.025   2.941 -0.3096 -0.2590  1.9946
 7915SOL     OW24643   3.910   0.618   3.161  0.0072  0.3128 -0.2436
 7915SOL    HW124644   3.961   0.606   3.076  1.3472 -0.0359  0.5784
 7915SOL    HW224645   3.895   0.716   3.178 -0.9239  0.3549 -1.2385
 7916SOL     OW24646   3.820   4.060   3.271  0.5113  0.1743  1.0100
 7916SOL    HW124647   3.876   4.106   3.341 -1.8082  3.1321  1.1258
 7916SOL    HW224648   3.723   4.073   3.292 -0.3041 -2.6056 -0.5195
 7917SOL     OW24649   3.633   4.110   3.630 -0.0580 -0.4272  0.0039
 7917SOL    HW124650   3.588   4.123   3.719  0.5636  1.4915  0.0903
 7917SOL    HW224651   3.725   4.075   3.644 -0.5920 -1.9090 -0.0245
 7918SOL     OW24652   0.310   1.771   1.504  0.0242 -0.3752  0.6602
 7918SOL    HW124653   0.296   1.807   1.412  0.1344 -0.0025  0.7875
 7918SOL    HW224654   0.240   1.702   1.524  0.7237 -1.3507 -0.1520
 7919SOL     OW24655   5.888   3.461   3.383 -0.0125 -0.2791  0.3184
 7919SOL    HW124656   5.965   3.420   3.431 -0.5508 -2.4006 -0.5306
 7919SOL    HW224657   5.814   3.394   3.374 -0.2166  0.2060 -2.8227
 7920SOL     OW24658   5.823   5.134   0.184  0.0511  0.1212 -0.0817
 7920SOL    HW124659   5.785   5.042   0.182  0.3300  0.0159 -1.2510
 7920SOL    HW224660   5.785   5.185   0.262 -1.9302 -0.1979 -0.7847
 7921SOL     OW24661   5.321   6.430   2.363  0.6891  0.5873  0.1867
 7921SOL    HW124662   5.230   6.425   2.322  0.5525 -3.3679  0.5691
 7921SOL    HW224663   5.369   6.510   2.328 -0.7312 -0.3953 -4.8806
 7922SOL     OW24664   2.663   2.046   3.823  0.7598 -0.2670 -0.0588
 7922SOL    HW124665   2.585   1.997   3.862 -1.1330  0.9425 -2.0291
 7922SOL    HW224666   2.694   2.116   3.887  1.1728 -1.6533  1.3154
 7923SOL     OW24667   2.198   2.984   3.050  0.0805 -0.0027 -0.1212
 7923SOL    HW124668   2.270   2.915   3.040  1.7700  1.4208  1.3196
 7923SOL    HW224669   2.170   2.989   3.145 -2.5941 -1.0608 -0.7777
 7924SOL     OW24670   3.509   1.213   4.394  0.2907  0.5204 -0.2388
 7924SOL    HW124671   3.516   1.127   4.345  1.1245  0.6182 -0.3175
 7924SOL    HW224672   3.528   1.198   4.491  1.8136  0.7958 -0.4562
 7925SOL     OW24673   2.452   4.010   0.488  0.2112 -0.4264 -0.1077
 7925SOL    HW124674   2.424   3.915   0.504  1.5778 -0.6259  1.3924
 7925SOL    HW224675   2.432   4.065   0.569 -1.4579  0.8296 -1.3179
 7926SOL     OW24676   1.703   0.419   2.984 -0.0198 -0.1499 -0.3558
 7926SOL    HW124677   1.769   0.431   3.058  2.0904  0.0727 -2.1438
 7926SOL    HW224678   1.650   0.504   2.973  0.7002  0.3537 -0.0398
 7927SOL     OW24679   3.552   5.421   4.922  0.1051  0.4516  0.1327
 7927SOL    HW124680   3.461   5.448   4.954 -0.5722 -0.4719 -0.9143
 7927SOL    HW224681   3.545   5.387   4.828  1.5610  0.4641  0.0006
 7928SOL     OW24682   0.332   4.110   1.240 -0.5618 -0.1452 -0.0336
 7928SOL    HW124683   0.316   4.172   1.317  0.1381 -0.3096  0.2498
 7928SOL    HW224684   0.423   4.126   1.202 -2.0356  2.2281 -2.9762
 7929SOL     OW24685   3.739   3.775   4.510  0.2003  0.1976  0.0758
 7929SOL    HW124686   3.829   3.807   4.482  0.3673 -0.3341 -0.0060
 7929SOL    HW224687   3.687   3.747   4.429  0.4120 -0.6453  0.2257
 7930SOL     OW24688   2.735   0.970   3.020  0.3405 -0.5321 -0.2124
 7930SOL    HW124689   2.652   1.025   3.029  0.9869  0.2401  1.3743
 7930SOL    HW224690   2.714   0.886   2.969 -1.4273 -0.3955  0.2272
 7931SOL     OW24691   3.010   1.980   5.692  0.0403  0.6822 -0.4381
 7931SOL    HW124692   3.096   2.024   5.663  1.1646 -0.8568  0.4161
 7931SOL    HW224693   2.933   2.026   5.648  1.2972  2.0508 -1.3179
 7932SOL     OW24694   2.983   1.164   0.574 -1.0709 -0.1349 -0.1773
 7932SOL    HW124695   2.966   1.133   0.481 -0.8441  0.3865 -0.3998
 7932SOL    HW224696   2.979   1.264   0.576  1.1286 -0.0126 -0.0764
 7933SOL     OW24697   0.988   6.407   6.415 -0.1934  0.0128 -0.3907
 7933SOL    HW124698   0.987   6.477   6.344  0.1398 -2.3749 -2.8872
 7933SOL    HW224699   1.035   6.325   6.382  2.4684 -0.3543  3.5554
 7934SOL     OW24700   6.065   4.482   5.393  0.5844  0.6555  0.7300
 7934SOL    HW124701   6.149   4.444   5.433  1.0372  2.1079  1.2030
 7934SOL    HW224702   6.087   4.524   5.305 -0.2571 -1.7816 -0.7259
 7935SOL     OW24703   5.452   4.742   3.432  0.5616 -0.4237  0.0074
 7935SOL    HW124704   5.516   4.708   3.501  0.1965  0.2317  0.6919
 7935SOL    HW224705   5.497   4.813   3.377  0.4896 -0.0915  0.3704
 7936SOL     OW24706   6.315   6.150   2.638 -0.1188 -0.1031  0.0172
 7936SOL    HW124707   6.406   6.137   2.600 -0.1898 -0.6771  0.0352
 7936SOL    HW224708   6.271   6.228   2.594  0.1662 -0.1686 -0.3854
 7937SOL     OW24709   6.335   2.299   6.562  0.0405 -0.0836  0.1218
 7937SOL    HW124710   6.299   2.379   6.514 -0.5888  0.3239  1.2194
 7937SOL    HW224711   6.390   2.330   6.640 -2.6739 -0.6288  2.3993
 7938SOL     OW24712   5.189   4.055   6.403 -0.4438 -0.3562  0.4426
 7938SOL    HW124713   5.287   4.073   6.401 -0.1748 -1.7226  0.3836
 7938SOL    HW224714   5.167   3.981   6.339 -1.9870  2.0117 -1.9507
 7939SOL     OW24715   4.752   5.146   5.522 -0.1458  0.1798  0.3761
 7939SOL    HW124716   4.671   5.091   5.500  1.1274 -0.8575 -2.1269
 7939SOL    HW224717   4.752   5.229   5.466  1.4064 -0.7651 -1.1164
 7940SOL     OW24718   1.773   6.082   1.359  1.0966  0.3807 -0.4057
 7940SOL    HW124719   1.673   6.086   1.365  0.9314 -2.0242 -0.2872
 7940SOL    HW224720   1.805   6.146   1.289 -0.3781  2.1074  0.4262
 7941SOL     OW24721   0.864   0.318   0.567 -0.0366 -0.3582 -0.1625
 7941SOL    HW124722   0.846   0.272   0.480 -1.4405  2.0954 -1.2713
 7941SOL    HW224723   0.956   0.356   0.566 -0.3988  0.5482 -1.0600
 7942SOL     OW24724   0.369   1.004   1.272 -0.4577 -0.7236 -0.4378
 7942SOL    HW124725   0.327   0.949   1.345  0.4103  1.6420  2.0429
 7942SOL    HW224726   0.306   1.009   1.194 -2.2589 -1.9145  0.8452
 7943SOL     OW24727   0.052   2.491   5.618  0.5314  0.1539 -0.0362
 7943SOL    HW124728   0.005   2.403   5.631  1.6618 -0.8028 -1.9940
 7943SOL    HW224729   0.085   2.524   5.707 -4.0790  1.1483  1.6073
 7944SOL     OW24730   0.651   3.148   6.504 -0.6530 -0.5416  0.2023
 7944SOL    HW124731   0.743   3.181   6.483 -1.1937  0.3624 -0.8515
 7944SOL    HW224732   0.657   3.061   6.553  0.7780  0.1822  1.3784
 7945SOL     OW24733   4.758   4.284   1.863  0.1387  0.3160 -0.0498
 7945SOL    HW124734   4.673   4.307   1.910 -0.9484  0.5646 -2.0183
 7945SOL    HW224735   4.739   4.269   1.765  2.8489  4.3077 -1.4558
 7946SOL     OW24736   0.569   2.739   6.808 -0.6617 -0.1875  0.0195
 7946SOL    HW124737   0.667   2.753   6.814 -0.7375  0.5476 -0.3117
 7946SOL    HW224738   0.547   2.644   6.830 -0.0786  0.1215  2.1853
 7947SOL     OW24739   3.990   6.153   6.685 -0.6113 -0.2877  0.1320
 7947SOL    HW124740   4.012   6.150   6.782 -1.4990  0.6464  0.3740
 7947SOL    HW224741   3.892   6.168   6.673 -0.4650 -0.0980 -0.9057
 7948SOL     OW24742   3.274   5.528   3.996 -0.2364  0.0991  0.3248
 7948SOL    HW124743   3.261   5.432   4.021 -1.2866  0.2099  0.2445
 7948SOL    HW224744   3.217   5.550   3.917 -0.2081  0.8609  0.5063
 7949SOL     OW24745   1.901   2.616   5.055  0.1958  0.1898  0.0744
 7949SOL    HW124746   1.977   2.587   5.113  0.7164  1.3678  0.0249
 7949SOL    HW224747   1.887   2.715   5.066  0.0122  0.3645 -1.4595
 7950SOL     OW24748   3.617   6.510   6.491  0.1361 -0.5396  0.0815
 7950SOL    HW124749   3.655   6.546   6.576 -0.6187  1.9228 -0.5652
 7950SOL    HW224750   3.681   6.528   6.416 -1.1438  1.4761 -0.6011
 7951SOL     OW24751   1.740   3.013   0.544 -0.0673  0.8687  0.0312
 7951SOL    HW124752   1.715   2.928   0.589  0.5152  1.1155  0.8414
 7951SOL    HW224753   1.698   3.090   0.592  2.8964  1.3900  2.0468
 7952SOL     OW24754   5.978   4.107   0.043  0.4488  0.1575  0.3783
 7952SOL    HW124755   5.918   4.142   0.115  0.8008  1.0826  0.2472
 7952SOL    HW224756   6.060   4.164   0.038  1.8861 -1.7349  1.2948
 7953SOL     OW24757   1.831   4.118   2.560  0.2920 -0.3205 -0.5602
 7953SOL    HW124758   1.865   4.043   2.618 -0.5004 -0.3855 -0.1579
 7953SOL    HW224759   1.740   4.145   2.592  0.2604  0.3124 -1.1749
 7954SOL     OW24760   6.613   6.198   3.643  0.0311  0.6256  0.1214
 7954SOL    HW124761   6.680   6.272   3.641 -0.1677  0.8073  0.1338
 7954SOL    HW224762   6.543   6.215   3.574 -0.7454  1.1312  1.0247
 7955SOL     OW24763   2.620   4.881   6.588  0.1722  0.1631  0.1114
 7955SOL    HW124764   2.533   4.855   6.544 -0.6431 -0.2500  1.8819
 7955SOL    HW224765   2.696   4.844   6.534 -0.7171  0.6024 -1.5263
 7956SOL     OW24766   4.974   5.046   2.896 -0.0333 -0.2449  0.2570
 7956SOL    HW124767   4.981   5.062   2.995  0.0287  0.0930  0.2001
 7956SOL    HW224768   5.048   4.986   2.866 -0.1381 -0.4667  0.4397
 7957SOL     OW24769   0.164   2.563   3.087 -0.0094  0.7944 -0.0224
 7957SOL    HW124770   0.209   2.487   3.134 -0.5283  0.3827 -0.1895
 7957SOL    HW224771   0.138   2.633   3.154  0.6937  0.9485  0.1020
 7958SOL     OW24772   3.814   4.879   3.649 -0.1312 -0.0179 -0.2513
 7958SOL    HW124773   3.812   4.867   3.748  0.1368  0.8313 -0.1340
 7958SOL    HW224774   3.721   4.868   3.613 -0.2203 -0.3877  0.0825
 7959SOL     OW24775   3.981   4.088   0.065 -0.1531 -0.0367 -1.1039
 7959SOL    HW124776   3.920   4.163   0.094  0.8460  0.5721 -0.5341
 7959SOL    HW224777   4.024   4.112  -0.021  1.5057  0.8674 -0.0791
 7960SOL     OW24778   2.738   2.319   1.766 -0.3938  0.5359 -0.0665
 7960SOL    HW124779   2.785   2.362   1.843  1.1329  0.2499 -0.7847
 7960SOL    HW224780   2.773   2.225   1.755  0.5670  1.0640 -2.0026
 7961SOL     OW24781   1.821   6.463   6.426 -0.4832 -0.2748 -0.0338
 7961SOL    HW124782   1.822   6.542   6.488  0.0618 -0.1647 -0.1790
 7961SOL    HW224783   1.878   6.391   6.465 -0.7128 -0.4745 -0.0660
 7962SOL     OW24784   0.159   0.058   1.628  0.3222  0.3977  0.2907
 7962SOL    HW124785   0.088   0.029   1.564 -0.2756  1.3781  0.4837
 7962SOL    HW224786   0.248   0.030   1.595 -0.1572 -1.0096  0.1199
 7963SOL     OW24787   6.249   4.338   4.414 -0.3894 -0.1174 -0.4793
 7963SOL    HW124788   6.254   4.238   4.418  0.2743 -0.0589  0.2499
 7963SOL    HW224789   6.201   4.365   4.330  0.8147 -1.0134 -1.5019
 7964SOL     OW24790   6.339   4.075   4.692  0.3086 -0.0365  0.0618
 7964SOL    HW124791   6.255   4.033   4.725 -0.9408  0.9180 -1.7483
 7964SOL    HW224792   6.349   4.058   4.594  1.6306  0.8385  0.0182
 7965SOL     OW24793   4.331   2.067   0.497 -0.2293  0.0331 -0.4395
 7965SOL    HW124794   4.289   2.105   0.414  2.0714 -1.1174 -2.2432
 7965SOL    HW224795   4.356   1.971   0.481  2.0091  0.3184  0.8700
 7966SOL     OW24796   0.598   3.166   4.365  0.4289  0.1933 -0.0390
 7966SOL    HW124797   0.561   3.108   4.438 -0.1148 -0.0861 -0.5310
 7966SOL    HW224798   0.669   3.226   4.403 -0.2739  0.4934  0.8516
 7967SOL     OW24799   1.880   5.594   2.805 -0.9251  0.3888  0.3657
 7967SOL    HW124800   1.907   5.501   2.830 -2.3984 -0.4685 -1.0097
 7967SOL    HW224801   1.956   5.639   2.758 -1.1381 -1.2549 -1.6965
 7968SOL     OW24802   0.612   2.633   6.453 -0.4561 -0.3461  0.4385
 7968SOL    HW124803   0.711   2.649   6.459 -0.4802  0.2049 -0.4000
 7968SOL    HW224804   0.565   2.721   6.456 -0.7936 -0.4362 -1.1989
 7969SOL     OW24805   4.766   1.864   4.693  0.1065  0.3271  0.1886
 7969SOL    HW124806   4.708   1.911   4.759 -0.4283 -0.5201  0.3424
 7969SOL    HW224807   4.725   1.870   4.602  0.6885  1.2324 -0.0324
 7970SOL     OW24808   0.614   5.072   3.218 -0.7486 -0.4005  0.3399
 7970SOL    HW124809   0.653   5.048   3.129  1.2543 -2.1320  1.5955
 7970SOL    HW224810   0.677   5.133   3.266 -1.3439 -0.2938  0.9958
 7971SOL     OW24811   3.465   1.867   3.691  0.1267 -0.6718 -0.6616
 7971SOL    HW124812   3.547   1.810   3.690  0.4448 -0.2452  0.4091
 7971SOL    HW224813   3.384   1.809   3.691  0.4430 -1.1857  1.6492
 7972SOL     OW24814   4.337   4.591   0.581  0.5714  0.1758  0.4255
 7972SOL    HW124815   4.275   4.581   0.658 -0.6136 -0.6979 -0.6046
 7972SOL    HW224816   4.408   4.520   0.585  1.3971  1.0169  1.4589
 7973SOL     OW24817   4.371   1.444   2.119  0.1277 -0.8577 -0.5216
 7973SOL    HW124818   4.461   1.488   2.115 -0.9089  2.0530  3.0638
 7973SOL    HW224819   4.300   1.514   2.112 -1.7280 -2.4473  1.3361
 7974SOL     OW24820   4.019   0.667   6.198  0.4728 -0.4628 -0.3016
 7974SOL    HW124821   3.934   0.622   6.171  0.0875  0.1018 -0.0428
 7974SOL    HW224822   4.009   0.705   6.290  0.5620  0.7137 -0.7595
 7975SOL     OW24823   2.347   1.738   6.911 -0.1823  0.4476  0.3288
 7975SOL    HW124824   2.338   1.754   7.009  1.5168 -1.8082  0.9445
 7975SOL    HW224825   2.342   1.825   6.862 -1.3397  1.5903  2.3660
 7976SOL     OW24826   4.649   6.264   0.673  0.0491 -0.0084 -0.1095
 7976SOL    HW124827   4.558   6.234   0.644 -0.0359  0.2374 -0.1032
 7976SOL    HW224828   4.718   6.227   0.611  0.0950 -1.4898  0.7904
 7977SOL     OW24829   5.563   6.933   1.339 -0.0231  1.0297 -0.2069
 7977SOL    HW124830   5.598   6.859   1.397 -1.3809  0.1736 -0.4128
 7977SOL    HW224831   5.614   7.017   1.357  0.4150  0.4817  1.3113
 7978SOL     OW24832   1.612   1.482   0.875  0.2114  0.1705 -0.2945
 7978SOL    HW124833   1.594   1.426   0.794  0.3008  1.9351 -1.6077
 7978SOL    HW224834   1.707   1.470   0.902  0.5136  0.4420 -1.1915
 7979SOL     OW24835   5.336   6.242   3.087 -0.4237  0.1845 -0.6622
 7979SOL    HW124836   5.390   6.322   3.065  1.0012 -0.4677  0.3333
 7979SOL    HW224837   5.396   6.163   3.097 -1.5391 -0.5270  0.6689
 7980SOL     OW24838   3.166   6.964   2.057 -0.4798  0.7604  0.4073
 7980SOL    HW124839   3.250   6.913   2.076  0.3079  1.2061 -1.6090
 7980SOL    HW224840   3.102   6.953   2.133 -0.0070 -2.5016  0.4814
 7981SOL     OW24841   6.943   6.047   3.212  0.2348  0.1861 -0.3856
 7981SOL    HW124842   6.951   6.011   3.305  0.0021  1.1285  0.0161
 7981SOL    HW224843   6.912   5.975   3.150  1.0264 -0.6218  0.1414
 7982SOL     OW24844   0.212   1.762   6.303  0.3828 -0.4713  0.2473
 7982SOL    HW124845   0.193   1.820   6.383 -0.6017  0.1913 -0.4478
 7982SOL    HW224846   0.263   1.815   6.236  0.7502 -0.8670  0.2133
 7983SOL     OW24847   5.309   1.370   1.414  0.0026 -0.1737 -0.0840
 7983SOL    HW124848   5.360   1.320   1.343  0.6612 -1.7065  1.3859
 7983SOL    HW224849   5.239   1.426   1.372 -0.0306 -1.5072 -1.9140
 7984SOL     OW24850   5.172   2.016   5.656  0.0138  0.1278 -0.1590
 7984SOL    HW124851   5.113   2.092   5.629 -0.6574 -0.0692  0.7205
 7984SOL    HW224852   5.245   2.050   5.715  0.2751  0.2335 -0.5384
 7985SOL     OW24853   6.819   1.729   0.543  0.7623 -0.0735 -0.2583
 7985SOL    HW124854   6.794   1.738   0.447  1.7052  0.6326 -0.4449
 7985SOL    HW224855   6.914   1.756   0.556  0.2715  1.1354  1.0925
 7986SOL     OW24856   6.350   1.989   0.250  0.1726  0.4319  0.3540
 7986SOL    HW124857   6.276   1.938   0.207 -0.0673  1.2341 -0.2139
 7986SOL    HW224858   6.332   1.999   0.348  0.4771 -0.9840  0.5790
 7987SOL     OW24859   1.668   2.497   4.541  0.0458 -0.5695  0.9326
 7987SOL    HW124860   1.596   2.491   4.610 -1.4669 -0.3570 -0.5553
 7987SOL    HW224861   1.745   2.437   4.567 -0.6256 -0.7590  2.5854
 7988SOL     OW24862   1.753   1.024   3.068  0.3452 -0.0752 -0.3195
 7988SOL    HW124863   1.754   0.940   3.014  1.2591 -0.5385  0.4074
 7988SOL    HW224864   1.780   1.004   3.162 -0.4064  0.8680  0.1147
 7989SOL     OW24865   2.498   5.117   6.141  0.0254  0.4050 -0.3748
 7989SOL    HW124866   2.491   5.018   6.147 -0.4786  0.4428 -0.2672
 7989SOL    HW224867   2.529   5.154   6.229 -0.0115  0.3602 -0.3429
 7990SOL     OW24868   2.235   2.147   4.286 -0.7620 -0.3353  0.0648
 7990SOL    HW124869   2.200   2.110   4.372 -1.5979 -2.1554 -0.9876
 7990SOL    HW224870   2.160   2.154   4.220 -0.0661  0.6624 -0.6451
 7991SOL     OW24871   3.480   1.931   5.518 -0.4285  0.5483 -0.1914
 7991SOL    HW124872   3.507   1.986   5.439  0.3435  0.1938 -0.1802
 7991SOL    HW224873   3.540   1.851   5.526 -2.2583 -0.9574 -0.8922
 7992SOL     OW24874   2.566   0.926   1.064 -0.6160  0.0167 -0.4431
 7992SOL    HW124875   2.548   0.905   1.160 -1.9555 -0.1352 -0.7033
 7992SOL    HW224876   2.486   0.900   1.009 -0.1467  0.7565 -1.5050
 7993SOL     OW24877   4.013   6.130   0.892  0.6667  0.4439  0.3058
 7993SOL    HW124878   4.111   6.150   0.886  0.5840  1.2997  1.5071
 7993SOL    HW224879   3.963   6.186   0.827  0.9705 -0.0387 -0.3535
 7994SOL     OW24880   5.132   0.614   4.444  0.3654  0.5074  0.3199
 7994SOL    HW124881   5.160   0.543   4.508 -0.7553  1.4332  1.9117
 7994SOL    HW224882   5.058   0.668   4.484  0.3817  1.8362 -1.3175
 7995SOL     OW24883   4.274   4.688   2.312  0.4611 -0.4106  0.0674
 7995SOL    HW124884   4.300   4.784   2.316 -0.0045 -0.1107 -2.4649
 7995SOL    HW224885   4.350   4.631   2.344  0.7862  0.7555  1.4745
 7996SOL     OW24886   5.750   3.484   4.819 -0.2171 -0.3704  0.1535
 7996SOL    HW124887   5.668   3.500   4.874 -0.2004 -1.7131  0.5956
 7996SOL    HW224888   5.746   3.541   4.737 -0.2718  1.6027  1.4664
 7997SOL     OW24889   6.403   3.618   0.699 -0.0574  0.6029  0.1420
 7997SOL    HW124890   6.322   3.594   0.645 -0.0173  3.5366 -1.4359
 7997SOL    HW224891   6.483   3.576   0.659 -0.4817 -0.2124  0.1365
 7998SOL     OW24892   1.188   0.314   0.641  0.3424  0.0535  0.5892
 7998SOL    HW124893   1.183   0.235   0.579 -2.2706  0.4413  0.1689
 7998SOL    HW224894   1.195   0.282   0.735  0.2528 -0.6728  0.3554
 7999SOL     OW24895   3.376   2.316   6.017 -0.1492  0.0924  0.1996
 7999SOL    HW124896   3.399   2.408   6.049  0.8510  0.3188 -1.1009
 7999SOL    HW224897   3.325   2.267   6.088 -2.4723  2.3191  0.2266
 8000SOL     OW24898   4.812   6.480   4.103 -0.2231  0.3323 -0.4699
 8000SOL    HW124899   4.725   6.530   4.097 -1.0081 -1.1260 -2.7544
 8000SOL    HW224900   4.795   6.383   4.085  1.9057  0.0131 -1.0101
 8001SOL     OW24901   3.697   4.241   1.392  0.4399 -0.7772 -0.2775
 8001SOL    HW124902   3.680   4.145   1.368  1.0438 -0.7190 -0.9585
 8001SOL    HW224903   3.783   4.249   1.441  0.2772 -0.6080 -0.0157
 8002SOL     OW24904   3.921   2.359   5.322 -0.4616 -0.1498 -0.1060
 8002SOL    HW124905   3.983   2.414   5.267 -1.1763  0.6257 -0.1568
 8002SOL    HW224906   3.931   2.384   5.418 -0.2812 -0.4473 -0.0446
 8003SOL     OW24907   4.667   5.932   3.496  0.7240  0.8425  0.3034
 8003SOL    HW124908   4.609   5.988   3.555 -1.9840 -2.2368  0.8731
 8003SOL    HW224909   4.726   5.874   3.553  1.6659  1.2745 -0.2046
 8004SOL     OW24910   3.042   4.818   2.900  0.3151 -0.1322  0.0942
 8004SOL    HW124911   3.131   4.859   2.878  0.4331 -0.3933  0.0771
 8004SOL    HW224912   2.992   4.799   2.815 -0.4736  1.5599  0.1488
 8005SOL     OW24913   3.626   2.067   2.291 -0.0042  0.4204 -0.2323
 8005SOL    HW124914   3.653   2.123   2.213 -0.8996  2.8722  1.1176
 8005SOL    HW224915   3.532   2.036   2.278  0.3439 -0.4301 -0.7798
 8006SOL     OW24916   4.750   5.050   2.694 -0.2755  0.1339 -0.4551
 8006SOL    HW124917   4.827   5.067   2.755 -0.6669  0.3311 -0.0131
 8006SOL    HW224918   4.777   5.072   2.600  0.3287 -0.1753 -0.3647
 8007SOL     OW24919   0.387   1.908   3.722  0.2289  0.0812 -0.5028
 8007SOL    HW124920   0.377   1.978   3.793 -0.8909 -0.6499  0.1030
 8007SOL    HW224921   0.463   1.931   3.662  1.8897  0.2328  1.5321
 8008SOL     OW24922   5.507   2.451   0.185  0.3808 -0.6971  0.0821
 8008SOL    HW124923   5.555   2.513   0.247 -1.1593  0.3640  0.2929
 8008SOL    HW224924   5.564   2.433   0.104  0.5983  1.6472 -0.3596
 8009SOL     OW24925   0.034   5.384   2.987 -0.3701 -0.1324  0.5515
 8009SOL    HW124926   0.027   5.430   3.075 -1.1494  0.4777  0.1852
 8009SOL    HW224927   0.061   5.451   2.917  1.6798 -0.8953  0.5608
 8010SOL     OW24928   1.379   3.615   1.381 -0.4191  0.4916 -0.1730
 8010SOL    HW124929   1.419   3.548   1.443  0.1538  0.7925 -0.2125
 8010SOL    HW224930   1.367   3.703   1.428 -1.2870  0.3342 -0.0828
 8011SOL     OW24931   1.059   4.371   1.322  0.2553 -0.2650 -0.7205
 8011SOL    HW124932   1.120   4.293   1.315 -0.1790 -0.6375 -0.4486
 8011SOL    HW224933   0.964   4.338   1.324  0.0493  0.2983 -1.1107
 8012SOL     OW24934   0.613   4.568   2.161  0.1529  0.5538 -0.3161
 8012SOL    HW124935   0.610   4.668   2.165 -0.1447  0.5803 -1.1311
 8012SOL    HW224936   0.556   4.536   2.086 -2.1736 -0.3869  1.7174
 8013SOL     OW24937   0.213   0.328   3.290  0.1751  0.1598  0.1857
 8013SOL    HW124938   0.124   0.334   3.334  1.2282  0.1786  2.4700
 8013SOL    HW224939   0.252   0.420   3.280  0.0492  0.1355 -0.6123
 8014SOL     OW24940   3.743   0.662   0.731  0.6146 -0.4812  0.0871
 8014SOL    HW124941   3.794   0.673   0.816  1.6434  0.9532 -0.6821
 8014SOL    HW224942   3.696   0.573   0.731  1.0530 -0.7361  1.8869
 8015SOL     OW24943   2.268   2.876   1.222  0.3809  0.4986  0.2567
 8015SOL    HW124944   2.231   2.960   1.181  2.3877  0.0929 -2.7728
 8015SOL    HW224945   2.336   2.900   1.291  0.1016  1.3452  0.2536
 8016SOL     OW24946   6.569   4.133   6.180  0.3236  0.6273 -0.1266
 8016SOL    HW124947   6.533   4.042   6.200  0.8245  0.5282  0.3403
 8016SOL    HW224948   6.585   4.142   6.082 -0.2341  0.4036 -0.2441
 8017SOL     OW24949   6.273   0.817   6.099  0.1792  0.2952  0.4012
 8017SOL    HW124950   6.332   0.888   6.059 -1.5344  2.1089  0.9410
 8017SOL    HW224951   6.191   0.806   6.043  0.3570 -1.2262  0.3958
 8018SOL     OW24952   5.397   3.989   3.301 -0.4008  0.0005 -0.1935
 8018SOL    HW124953   5.371   4.082   3.324 -2.0076 -0.7281  1.1969
 8018SOL    HW224954   5.414   3.981   3.203 -1.3193  1.5069 -0.4906
 8019SOL     OW24955   4.822   4.689   1.272  0.0643 -0.1182 -0.0967
 8019SOL    HW124956   4.875   4.745   1.337  0.0812 -0.4667  0.1937
 8019SOL    HW224957   4.784   4.610   1.320 -0.9867  0.2879 -0.2250
 8020SOL     OW24958   5.717   6.733   1.456  0.2021 -0.5786  0.1398
 8020SOL    HW124959   5.690   6.678   1.535 -0.7962 -0.1699  0.0938
 8020SOL    HW224960   5.755   6.673   1.385  0.2296 -1.0618  0.5573
 8021SOL     OW24961   5.455   0.136   3.009  0.1238 -0.0546 -0.1106
 8021SOL    HW124962   5.404   0.051   2.997 -0.5673  0.5892 -2.2635
 8021SOL    HW224963   5.392   0.212   3.026  0.7011  0.1419  1.3136
 8022SOL     OW24964   4.372   4.980   4.242 -0.3899 -0.3487  0.3164
 8022SOL    HW124965   4.432   5.061   4.242 -1.7864  0.7211  1.0501
 8022SOL    HW224966   4.407   4.913   4.177  1.3923  0.3968  0.4527
 8023SOL     OW24967   1.530   3.518   2.680  0.0258  0.2134  0.1756
 8023SOL    HW124968   1.508   3.615   2.672 -0.2413  0.1693  0.3856
 8023SOL    HW224969   1.551   3.496   2.776  0.9596  0.2515 -0.0058
 8024SOL     OW24970   5.998   0.268   3.114  0.1789  0.1405 -0.2148
 8024SOL    HW124971   6.082   0.322   3.120  0.8861 -0.8857 -0.5678
 8024SOL    HW224972   5.991   0.228   3.022 -0.0063 -0.8447  0.2121
 8025SOL     OW24973   2.160   5.941   6.028  0.0272  0.2086 -0.0009
 8025SOL    HW124974   2.185   5.994   6.109 -1.9082  1.3939 -0.1051
 8025SOL    HW224975   2.151   5.844   6.053 -3.8135  0.9068  2.1934
 8026SOL     OW24976   2.878   2.343   0.989 -0.1231 -0.4736  0.0664
 8026SOL    HW124977   2.860   2.425   1.043  0.3751 -0.0234 -0.4315
 8026SOL    HW224978   2.895   2.369   0.894 -1.4846 -1.2892 -0.4326
 8027SOL     OW24979   3.817   3.488   5.875 -0.5909 -0.3644 -0.0716
 8027SOL    HW124980   3.734   3.438   5.850 -0.2838 -1.0646  0.2767
 8027SOL    HW224981   3.796   3.555   5.945 -1.1278  0.4299 -0.9704
 8028SOL     OW24982   6.026   4.991   1.397 -0.0971 -0.8315 -0.0332
 8028SOL    HW124983   6.054   5.048   1.320 -2.7616  0.9112  0.1793
 8028SOL    HW224984   5.955   4.927   1.367 -2.0659  0.6987  1.1204
 8029SOL     OW24985   2.307   2.955   6.880 -0.0193 -0.6046 -0.4015
 8029SOL    HW124986   2.323   2.944   6.978 -0.7159 -1.0171 -0.3298
 8029SOL    HW224987   2.273   3.047   6.861 -1.0105 -0.8984 -0.1019
 8030SOL     OW24988   1.143   5.075   1.699  0.0456 -0.6572 -0.3828
 8030SOL    HW124989   1.162   5.173   1.693  0.4726 -0.6305  1.0398
 8030SOL    HW224990   1.166   5.031   1.613  1.4073  0.2384 -0.5054
 8031SOL     OW24991   3.654   0.447   5.892  0.1685  0.8872 -0.2307
 8031SOL    HW124992   3.602   0.461   5.808 -1.0294 -0.8804  0.1551
 8031SOL    HW224993   3.606   0.489   5.969  1.1181  2.2564 -0.3598
 8032SOL     OW24994   5.032   3.553   4.601 -0.3679  0.0622 -0.1588
 8032SOL    HW124995   4.973   3.617   4.649 -1.4585 -0.0911 -1.2521
 8032SOL    HW224996   5.028   3.571   4.502  0.2383 -0.9178 -0.3790
 8033SOL     OW24997   3.293   0.109   2.604  0.7052  0.0802  0.5309
 8033SOL    HW124998   3.289   0.139   2.699  2.1673  0.3237  0.5341
 8033SOL    HW224999   3.364   0.160   2.555 -1.5425  1.6349 -1.3323
 8034SOL     OW25000   6.288   3.632   4.648  0.2234  0.1519 -0.2828
 8034SOL    HW125001   6.344   3.682   4.714 -1.5399  1.0737  0.5899
 8034SOL    HW225002   6.273   3.538   4.680  0.6499  0.1242 -0.1619
 8035SOL     OW25003   5.523   4.561   0.358 -0.1085 -0.5208 -0.4077
 8035SOL    HW125004   5.583   4.615   0.417 -0.1349  0.6200 -1.3932
 8035SOL    HW225005   5.428   4.572   0.387 -0.1499  0.2677 -0.8318
 8036SOL     OW25006   6.873   4.453   1.502 -0.1613  0.0859  0.1125
 8036SOL    HW125007   6.961   4.480   1.541 -1.1310 -1.3801  3.7694
 8036SOL    HW225008   6.852   4.358   1.529 -1.9375 -0.3688 -2.4927
 8037SOL     OW25009   3.837   2.697   0.854 -0.3682 -0.2999 -0.6468
 8037SOL    HW125010   3.828   2.791   0.823 -1.2671 -0.5077 -1.0425
 8037SOL    HW225011   3.763   2.642   0.817 -0.7150 -0.8447  0.7767
 8038SOL     OW25012   5.010   1.059   2.018 -0.2850 -0.0653 -0.6788
 8038SOL    HW125013   4.993   1.148   1.975  1.3170  0.3612 -0.5281
 8038SOL    HW225014   5.008   0.988   1.948 -0.2272  0.2817 -1.0424
 8039SOL     OW25015   0.844   6.152   2.702 -0.4761  0.0981  0.0643
 8039SOL    HW125016   0.876   6.104   2.620  0.9622 -0.3856  0.8549
 8039SOL    HW225017   0.746   6.167   2.697 -0.6820 -1.4232 -0.9897
 8040SOL     OW25018   6.804   4.415   6.062  0.6877  0.6535 -1.0641
 8040SOL    HW125019   6.872   4.414   5.990  0.0566  0.6733 -1.6732
 8040SOL    HW225020   6.714   4.436   6.023  0.1392 -0.4499 -0.4622
 8041SOL     OW25021   1.604   4.005   0.628  0.1548  0.4349  0.2491
 8041SOL    HW125022   1.569   3.940   0.560 -0.2606 -1.3963  2.1166
 8041SOL    HW225023   1.625   4.092   0.583  2.2005 -1.3885 -2.7162
 8042SOL     OW25024   3.313   2.728   5.930  0.9362 -0.3448  0.4640
 8042SOL    HW125025   3.344   2.792   5.860 -1.6651 -1.5942 -2.0290
 8042SOL    HW225026   3.224   2.757   5.965  1.3083 -0.8138  1.9026
 8043SOL     OW25027   2.893   1.320   1.658  0.0197 -0.5883 -0.1759
 8043SOL    HW125028   2.926   1.364   1.742 -1.0678  0.2284 -0.1507
 8043SOL    HW225029   2.853   1.231   1.680 -0.3068 -0.3559  0.1983
 8044SOL     OW25030   3.801   2.300   0.412 -0.4675 -0.1521 -0.6360
 8044SOL    HW125031   3.748   2.262   0.488  0.3878 -1.0758 -0.4845
 8044SOL    HW225032   3.829   2.394   0.434 -0.8970 -0.1351 -0.1503
 8045SOL     OW25033   5.104   1.737   3.575  0.2503 -0.5627 -0.8536
 8045SOL    HW125034   5.082   1.835   3.579  0.7130 -0.4649 -0.6232
 8045SOL    HW225035   5.202   1.726   3.563  0.2482 -1.0061 -0.4856
 8046SOL     OW25036   0.222   5.795   1.532 -0.2105  0.1077  0.2361
 8046SOL    HW125037   0.264   5.819   1.620  0.2412  1.2930 -0.2863
 8046SOL    HW225038   0.293   5.784   1.463 -0.6508  0.6532 -0.3149
 8047SOL     OW25039   3.705   0.626   4.353  1.2219  0.1093  0.0270
 8047SOL    HW125040   3.642   0.586   4.419  0.5406 -0.9279 -1.2136
 8047SOL    HW225041   3.794   0.641   4.397  2.0770 -4.2295  0.2996
 8048SOL     OW25042   4.867   0.056   2.883  0.1266 -0.3726 -0.4314
 8048SOL    HW125043   4.860   0.065   2.983  2.5905  1.1251 -0.3183
 8048SOL    HW225044   4.902  -0.035   2.860  2.4256  0.2541  0.3300
 8049SOL     OW25045   1.245   6.031   6.849 -0.2572  0.4546 -0.3933
 8049SOL    HW125046   1.281   6.037   6.756  1.2465 -1.7489 -0.0198
 8049SOL    HW225047   1.193   5.946   6.859  1.7817 -0.6526  1.4399
 8050SOL     OW25048   0.403   4.201   2.184 -0.4301  0.4521 -0.8795
 8050SOL    HW125049   0.403   4.136   2.260  1.6079  0.2860 -0.9655
 8050SOL    HW225050   0.316   4.250   2.182 -1.1462 -0.6926  0.5457
 8051SOL     OW25051   1.089   3.184   2.813  0.0127 -0.4330  1.0025
 8051SOL    HW125052   1.172   3.133   2.789  1.3733  1.5177  1.2774
 8051SOL    HW225053   1.114   3.264   2.869 -2.2892 -0.9100  2.8880
 8052SOL     OW25054   2.796   0.831   2.552  0.2106 -0.3797 -0.4522
 8052SOL    HW125055   2.755   0.893   2.485  0.9014 -0.4199 -0.9158
 8052SOL    HW225056   2.876   0.874   2.594 -1.6424  0.7019  2.2554
 8053SOL     OW25057   5.194   2.295   0.863 -0.0374 -0.1194 -0.3719
 8053SOL    HW125058   5.287   2.258   0.872  0.0581  0.2847  0.3544
 8053SOL    HW225059   5.131   2.237   0.915 -0.2483 -0.5829 -1.1348
 8054SOL     OW25060   5.545   0.897   5.190 -0.3142  0.4392  0.1809
 8054SOL    HW125061   5.637   0.927   5.166  0.0383  0.1269  1.1036
 8054SOL    HW225062   5.538   0.798   5.176 -0.8944  0.6247 -1.0347
 8055SOL     OW25063   2.080   0.264   6.053 -0.1348 -0.0256 -0.0718
 8055SOL    HW125064   2.108   0.183   6.104 -0.6762 -1.1232 -1.4639
 8055SOL    HW225065   2.157   0.299   6.000 -0.2033 -0.3318 -0.3750
 8056SOL     OW25066   4.210   0.789   2.019  0.0105  0.3440  0.4698
 8056SOL    HW125067   4.265   0.837   1.951 -1.5453 -0.5011 -1.4696
 8056SOL    HW225068   4.116   0.823   2.016 -0.6688 -1.4239  0.4035
 8057SOL     OW25069   3.104   1.311   2.776 -0.1412 -0.0104  0.0241
 8057SOL    HW125070   3.200   1.290   2.792  0.8999  3.2839 -1.0885
 8057SOL    HW225071   3.047   1.234   2.807  2.8206 -2.3416  0.0913
 8058SOL     OW25072   2.375   2.512   1.258  0.2701  0.2085  1.0274
 8058SOL    HW125073   2.381   2.501   1.159 -0.9561  0.5271  0.9085
 8058SOL    HW225074   2.283   2.543   1.283  0.4937 -0.0962  2.2853
 8059SOL     OW25075   0.928   6.565   3.019 -0.2098 -0.2804  0.2850
 8059SOL    HW125076   0.967   6.582   2.929 -0.7070  0.2713  0.1717
 8059SOL    HW225077   0.993   6.513   3.074  0.7304  0.6937  0.1304
 8060SOL     OW25078   1.097   0.361   3.544 -0.5952 -0.8815 -0.0480
 8060SOL    HW125079   1.196   0.355   3.529 -0.3251  2.3159 -0.1447
 8060SOL    HW225080   1.050   0.356   3.456 -0.0483  2.7258 -0.7004
 8061SOL     OW25081   5.460   0.316   2.635 -0.1154  0.5897  0.0265
 8061SOL    HW125082   5.452   0.272   2.546 -0.8177  2.7702 -1.0825
 8061SOL    HW225083   5.392   0.277   2.698  0.3783 -0.9646 -0.3746
 8062SOL     OW25084   1.565   2.681   0.434 -0.6630  0.2696 -0.4765
 8062SOL    HW125085   1.593   2.745   0.506  0.9600  0.7012 -1.4453
 8062SOL    HW225086   1.557   2.589   0.473 -1.6402  0.8017  0.6297
 8063SOL     OW25087   2.669   1.501   3.937  0.6428 -0.0683  0.1983
 8063SOL    HW125088   2.734   1.535   3.868 -0.3115 -0.2214 -0.8127
 8063SOL    HW225089   2.618   1.578   3.974  0.8619 -0.0337  0.4323
 8064SOL     OW25090   5.832   2.368   5.206  0.4391  0.3906  0.5044
 8064SOL    HW125091   5.903   2.438   5.204  0.5563  0.2598 -0.2570
 8064SOL    HW225092   5.775   2.381   5.288  1.0720  0.7514  0.8965
 8065SOL     OW25093   5.678   0.871   5.494  0.0210  0.3457  0.0219
 8065SOL    HW125094   5.745   0.930   5.539  0.4719 -0.2133  0.0818
 8065SOL    HW225095   5.720   0.825   5.416  1.1927 -3.6598  2.6911
 8066SOL     OW25096   0.950   1.264   3.244 -0.3138 -0.2882  0.4457
 8066SOL    HW125097   0.966   1.174   3.203 -3.1579 -0.7403  0.1905
 8066SOL    HW225098   0.920   1.328   3.173  2.2380  1.1162  0.5123
 8067SOL     OW25099   4.577   1.349   2.837  0.1521 -0.1947  0.3590
 8067SOL    HW125100   4.620   1.433   2.869 -0.0528  0.1183 -0.1829
 8067SOL    HW225101   4.561   1.354   2.739 -2.7692  0.4615  0.7810
 8068SOL     OW25102   6.659   4.172   3.695  0.3203 -0.3634  0.4230
 8068SOL    HW125103   6.751   4.134   3.702 -0.3432 -1.8002  1.9424
 8068SOL    HW225104   6.594   4.111   3.740 -1.1241  1.5148  1.0081
 8069SOL     OW25105   0.080   4.901   2.548  0.7494 -0.2059  0.2040
 8069SOL    HW125106   0.040   4.991   2.568  0.4600 -0.4576  0.7818
 8069SOL    HW225107   0.107   4.857   2.634 -0.2067 -1.1700  0.0316
 8070SOL     OW25108   3.411   0.703   1.553 -0.1127  0.7127  0.6023
 8070SOL    HW125109   3.401   0.604   1.544 -1.6243  0.9591 -1.0284
 8070SOL    HW225110   3.507   0.728   1.537 -0.2036 -0.2661 -2.0717
 8071SOL     OW25111   0.029   4.339   6.208 -0.0280  0.2242 -0.7169
 8071SOL    HW125112  -0.060   4.362   6.166 -0.3221  0.6892  0.1377
 8071SOL    HW225113   0.076   4.424   6.233  0.3709 -0.0400 -0.5715
 8072SOL     OW25114   1.033   1.040   3.536 -0.3152 -0.1667 -0.4872
 8072SOL    HW125115   1.083   1.126   3.540 -0.4059 -0.1473  1.2308
 8072SOL    HW225116   0.935   1.059   3.527 -0.2051 -0.1585 -1.8701
 8073SOL     OW25117   5.557   0.128   6.294 -0.1620  0.5491 -0.6672
 8073SOL    HW125118   5.600   0.082   6.216  0.4172 -1.9667  0.9940
 8073SOL    HW225119   5.472   0.172   6.265  0.3894  0.2719 -2.8248
 8074SOL     OW25120   3.931   6.473   6.521  0.0986  0.4402  0.3950
 8074SOL    HW125121   4.017   6.493   6.568  0.5832  0.1821 -0.3608
 8074SOL    HW225122   3.913   6.375   6.526  0.7595  0.2237 -0.9250
 8075SOL     OW25123   6.446   1.903   3.051  0.9497 -0.3909  0.0316
 8075SOL    HW125124   6.520   1.969   3.067  0.0168  0.9145 -0.7517
 8075SOL    HW225125   6.443   1.837   3.125  1.6285  0.7611  1.1293
 8076SOL     OW25126   5.889   2.914   5.720  0.1288  0.4518 -0.1102
 8076SOL    HW125127   5.855   2.871   5.636 -0.1158  2.1589 -0.9323
 8076SOL    HW225128   5.826   2.986   5.748  0.2135 -0.0914  1.5619
 8077SOL     OW25129   0.144   6.989   1.037 -0.6004  0.5997 -0.0146
 8077SOL    HW125130   0.168   6.902   1.079 -1.0024 -0.6413 -2.1845
 8077SOL    HW225131   0.209   7.059   1.065 -0.9427 -0.0830  2.6742
 8078SOL     OW25132   6.835   3.134   0.744  0.1658  0.0716  0.0684
 8078SOL    HW125133   6.825   3.098   0.836 -1.0591  1.7439  0.6274
 8078SOL    HW225134   6.875   3.225   0.748 -1.8760  1.0716 -0.8407
 8079SOL     OW25135   1.937   3.048   6.636  0.1963  0.1947  0.4528
 8079SOL    HW125136   1.977   3.039   6.545 -0.6992  1.0764 -0.0451
 8079SOL    HW225137   1.968   3.134   6.677 -0.0857  0.2145  0.6243
 8080SOL     OW25138   2.979   5.278   0.476 -0.2194  0.4499 -0.6460
 8080SOL    HW125139   3.024   5.352   0.425  0.7690 -0.0586 -0.5132
 8080SOL    HW225140   2.896   5.250   0.426 -1.4938  2.6785  0.0752
 8081SOL     OW25141   5.070   3.229   2.921 -0.0048  0.4127 -0.0159
 8081SOL    HW125142   5.060   3.138   2.962  0.2451 -0.0679 -0.9775
 8081SOL    HW225143   4.981   3.273   2.914 -0.0787  0.4169  0.8236
 8082SOL     OW25144   2.042   4.793   5.949  0.2527  0.0761  0.5504
 8082SOL    HW125145   2.028   4.809   5.852  0.0463  2.6752  0.9480
 8082SOL    HW225146   1.979   4.722   5.981 -1.1739  0.7021 -0.7747
 8083SOL     OW25147   6.482   1.014   0.570 -0.8258  0.4980 -0.6992
 8083SOL    HW125148   6.517   0.921   0.583  1.6755  1.7056  2.5568
 8083SOL    HW225149   6.387   1.019   0.602 -0.0625 -0.4048  1.9419
 8084SOL     OW25150   6.637   0.699   6.355 -0.0746 -0.2406 -0.1108
 8084SOL    HW125151   6.662   0.647   6.437  1.9447  0.6764 -0.0793
 8084SOL    HW225152   6.700   0.675   6.280 -0.3582  0.6935 -0.6686
 8085SOL     OW25153   2.440   2.191   1.199 -0.3486  0.9592 -0.4346
 8085SOL    HW125154   2.413   2.287   1.194 -0.4356  1.0968  1.6585
 8085SOL    HW225155   2.540   2.184   1.200 -0.3259  1.1639  0.5842
 8086SOL     OW25156   2.273   6.074   6.224 -0.7910 -0.1619  0.4410
 8086SOL    HW125157   2.336   6.066   6.301  0.5120 -0.4808 -0.6160
 8086SOL    HW225158   2.282   6.166   6.184  0.5749 -0.8453 -0.9588
 8087SOL     OW25159   0.947   4.759   2.110 -0.6491  0.1553 -0.0670
 8087SOL    HW125160   0.926   4.790   2.017  1.3467  2.4462  0.1270
 8087SOL    HW225161   1.035   4.712   2.109 -0.9756 -0.4697  0.5559
 8088SOL     OW25162   5.009   6.801   3.290  0.3722  0.3612 -0.1361
 8088SOL    HW125163   5.043   6.736   3.222  2.4301  0.4406  0.7665
 8088SOL    HW225164   4.971   6.881   3.243  1.4681  0.2767 -1.2149
 8089SOL     OW25165   1.552   2.911   1.246 -0.0429  0.0787 -0.7634
 8089SOL    HW125166   1.551   3.011   1.255 -0.6009  0.1850 -1.8103
 8089SOL    HW225167   1.634   2.875   1.289 -0.3340  0.8895  0.5356
 8090SOL     OW25168   4.562   0.817   4.203  0.3697  0.5540 -0.3653
 8090SOL    HW125169   4.609   0.784   4.285 -1.5565 -0.4054  0.4276
 8090SOL    HW225170   4.538   0.739   4.145 -0.5560  0.9557 -0.5417
 8091SOL     OW25171   0.238   4.132   5.190 -0.5998  0.4167 -0.5159
 8091SOL    HW125172   0.232   4.218   5.140 -0.1128 -0.2220 -1.7011
 8091SOL    HW225173   0.262   4.151   5.285  3.0605  1.4299 -1.4951
 8092SOL     OW25174   5.765   4.096   5.277  0.1546 -0.0535 -0.3222
 8092SOL    HW125175   5.854   4.050   5.268  0.4690  0.7525 -1.5133
 8092SOL    HW225176   5.774   4.192   5.249 -0.1128  1.2817  3.5523
 8093SOL     OW25177   5.958   2.854   0.063 -0.5189  0.4537  0.4689
 8093SOL    HW125178   6.005   2.940   0.045 -0.3378  0.6747  1.8749
 8093SOL    HW225179   5.949   2.841   0.162 -0.7792 -1.0172  0.2767
 8094SOL     OW25180   0.160   2.670   4.572 -0.2212 -0.1386  0.0220
 8094SOL    HW125181   0.127   2.637   4.660  0.4513 -1.2608 -0.1242
 8094SOL    HW225182   0.147   2.769   4.566 -0.9700 -0.1628  1.0652
 8095SOL     OW25183   4.162   2.201   6.820  0.3291 -0.2697 -0.5545
 8095SOL    HW125184   4.208   2.192   6.732 -1.3755 -1.9744 -1.3429
 8095SOL    HW225185   4.063   2.212   6.805 -0.2269 -2.3078  1.1137
 8096SOL     OW25186   3.573   1.153   1.669 -0.2353  0.1747  0.4582
 8096SOL    HW125187   3.667   1.168   1.701  0.3307 -0.8519 -0.6237
 8096SOL    HW225188   3.575   1.121   1.574 -1.7047  0.4212  0.3185
 8097SOL     OW25189   5.148   2.628   2.222  0.0363 -0.0107  0.8464
 8097SOL    HW125190   5.235   2.603   2.178 -0.1687  0.3412  0.2311
 8097SOL    HW225191   5.100   2.545   2.251  1.5312 -0.1932  3.1285
 8098SOL     OW25192   1.588   1.588   6.724 -0.3349  0.1723 -0.3733
 8098SOL    HW125193   1.605   1.513   6.787  1.0126 -2.2375 -3.3285
 8098SOL    HW225194   1.553   1.667   6.774  0.0836 -1.7081  3.1894
 8099SOL     OW25195   3.282   0.354   4.980 -0.4175  0.1961  0.2851
 8099SOL    HW125196   3.280   0.330   4.883  0.0310  1.0616  0.0498
 8099SOL    HW225197   3.268   0.452   4.990 -1.2688 -0.0002  1.1586
 8100SOL     OW25198   6.025   6.691   0.489 -0.4638 -0.1501  0.3478
 8100SOL    HW125199   5.988   6.618   0.430 -0.9862  0.4306 -0.0572
 8100SOL    HW225200   6.054   6.768   0.432  2.4201 -0.9892  0.5576
 8101SOL     OW25201   0.945   6.454   3.370  0.1496 -0.2818  0.1820
 8101SOL    HW125202   0.963   6.404   3.455  1.2328 -0.3384 -0.0676
 8101SOL    HW225203   1.031   6.468   3.321 -0.3291  0.6437 -0.4137
 8102SOL     OW25204   6.008   5.343   6.616 -0.4821 -0.4080  0.1912
 8102SOL    HW125205   5.940   5.322   6.545  0.0907 -2.5630  0.2210
 8102SOL    HW225206   6.020   5.442   6.621 -1.3849 -0.1191 -1.9254
 8103SOL     OW25207   1.280   2.363   2.976 -0.0555  0.1461 -0.1678
 8103SOL    HW125208   1.289   2.409   3.065  0.3668  0.8773 -0.5774
 8103SOL    HW225209   1.326   2.275   2.979  0.9431  0.6579  0.0006
 8104SOL     OW25210   2.187   1.006   0.376  0.2349 -0.1458  0.0274
 8104SOL    HW125211   2.148   1.047   0.458 -1.0139 -0.7717 -0.2285
 8104SOL    HW225212   2.162   1.061   0.296  0.3213 -0.2581 -0.0772
 8105SOL     OW25213   2.290   2.420   4.248 -0.2936  1.0988  0.1525
 8105SOL    HW125214   2.292   2.336   4.302  0.5136  1.1518  0.2138
 8105SOL    HW225215   2.198   2.460   4.252 -1.2476 -0.7382 -1.3509
 8106SOL     OW25216   0.905   5.030   0.403 -0.4621 -0.3685  0.6699
 8106SOL    HW125217   0.947   4.941   0.383 -0.7757 -0.3447 -0.0826
 8106SOL    HW225218   0.826   5.045   0.344  0.7130  1.2516 -0.5851
 8107SOL     OW25219   1.267   4.196   3.660  0.0246 -0.1481 -0.5075
 8107SOL    HW125220   1.234   4.170   3.569 -0.9347 -1.3476  0.1569
 8107SOL    HW225221   1.199   4.255   3.703  0.4414  0.3499 -0.5220
 8108SOL     OW25222   0.802   3.037   5.756 -0.0575  0.5737 -0.2842
 8108SOL    HW125223   0.835   3.126   5.789  0.3263 -0.4389  2.2933
 8108SOL    HW225224   0.711   3.019   5.795 -0.5283  0.1900 -1.5067
 8109SOL     OW25225   6.238   5.431   5.080 -0.0478 -0.4534 -0.4277
 8109SOL    HW125226   6.330   5.408   5.111 -0.9084 -0.9607  2.0182
 8109SOL    HW225227   6.240   5.517   5.030  2.0120 -1.4619 -2.2383
 8110SOL     OW25228   2.404   5.960   0.964 -0.8391  0.1302  0.6579
 8110SOL    HW125229   2.357   6.047   0.980 -2.0036 -0.4156  0.3764
 8110SOL    HW225230   2.463   5.939   1.042  0.5815  1.8354  0.1120
 8111SOL     OW25231   2.698   6.929   3.294  0.1624  0.1392  0.7326
 8111SOL    HW125232   2.772   6.920   3.227 -0.1112 -0.6231  0.5233
 8111SOL    HW225233   2.615   6.888   3.258 -0.1314  0.2011  1.3244
 8112SOL     OW25234   4.071   2.214   4.178 -0.5932  0.5047 -0.7673
 8112SOL    HW125235   4.154   2.207   4.233 -0.5592 -0.5871 -0.9270
 8112SOL    HW225236   3.995   2.245   4.236 -0.6163 -0.8594 -0.0195
 8113SOL     OW25237   3.961   1.641   6.721 -0.1606  0.4827 -0.2921
 8113SOL    HW125238   4.016   1.703   6.778 -1.5188  0.2795  1.3286
 8113SOL    HW225239   3.933   1.562   6.776  0.3213 -0.8826 -1.9147
 8114SOL     OW25240   2.501   2.548   2.837  0.4558 -0.4139 -0.3863
 8114SOL    HW125241   2.556   2.536   2.919  1.0196 -0.6297 -0.7914
 8114SOL    HW225242   2.469   2.643   2.831  1.0547 -0.2059 -0.3129
 8115SOL     OW25243   3.750   2.980   1.560  0.6962  0.6517  0.0459
 8115SOL    HW125244   3.669   2.984   1.502  0.5084  0.4136  0.2898
 8115SOL    HW225245   3.726   2.943   1.650  1.2061 -0.0424 -0.0990
 8116SOL     OW25246   6.207   0.145   0.509 -0.3575  0.1273  0.3974
 8116SOL    HW125247   6.205   0.046   0.502  0.8017  0.0407  1.0183
 8116SOL    HW225248   6.187   0.186   0.420  0.8339 -0.6921 -0.2608
 8117SOL     OW25249   3.346   4.110   4.557 -0.0942  0.1733  0.4982
 8117SOL    HW125250   3.291   4.047   4.611  0.3542 -0.1195  0.6109
 8117SOL    HW225251   3.438   4.118   4.597 -0.0448  0.6468  0.3003
 8118SOL     OW25252   6.779   1.274   4.025 -0.0137  0.0338  0.2394
 8118SOL    HW125253   6.734   1.363   4.018 -1.1589 -0.4706  0.9133
 8118SOL    HW225254   6.810   1.245   3.934 -0.8579  0.5030 -0.2124
 8119SOL     OW25255   2.389   0.717   1.886  0.1302  0.2961  0.7005
 8119SOL    HW125256   2.363   0.792   1.826  0.6538 -1.5481 -2.0163
 8119SOL    HW225257   2.461   0.662   1.842 -0.0117 -1.6410  2.6828
 8120SOL     OW25258   4.955   3.498   2.318 -0.0517 -0.6908 -0.2501
 8120SOL    HW125259   4.898   3.422   2.348  0.7198 -1.4858 -0.7447
 8120SOL    HW225260   4.942   3.576   2.379 -1.1450 -1.0868  0.0356
 8121SOL     OW25261   7.015   0.633   3.024 -0.1508 -0.3551 -0.1887
 8121SOL    HW125262   7.099   0.688   3.028 -1.0300  1.1207 -1.0294
 8121SOL    HW225263   6.964   0.657   2.941 -0.2295 -3.0188 -1.0348
 8122SOL     OW25264   1.012   5.136   2.019  0.0228 -0.5052 -0.4418
 8122SOL    HW125265   0.959   5.216   1.991 -1.6019 -1.2230  0.4923
 8122SOL    HW225266   0.996   5.061   1.955 -0.7883 -0.9925  0.3175
 8123SOL     OW25267   0.682   6.039   1.034  0.2382 -0.0407 -0.1760
 8123SOL    HW125268   0.625   5.959   1.053 -0.0532 -0.2730 -1.9132
 8123SOL    HW225269   0.709   6.082   1.121 -3.7310  0.9547  0.7499
 8124SOL     OW25270   6.937   5.722   0.799 -0.4670 -0.0408 -0.1276
 8124SOL    HW125271   6.902   5.794   0.858 -1.5745  0.8963 -1.8570
 8124SOL    HW225272   6.906   5.633   0.834 -2.1778  0.5751  0.0294
 8125SOL     OW25273   6.026   6.489   3.166  0.3040 -0.0410  0.2657
 8125SOL    HW125274   6.068   6.491   3.075 -0.2182 -1.0737 -0.0198
 8125SOL    HW225275   6.008   6.394   3.192  0.8960  0.2109  1.6675
 8126SOL     OW25276   0.463   4.665   3.814  0.1605  0.0342 -0.3458
 8126SOL    HW125277   0.484   4.616   3.730 -0.1564  0.8860 -0.9350
 8126SOL    HW225278   0.536   4.731   3.833 -0.3494  0.6849 -0.6124
 8127SOL     OW25279   4.276   5.657   6.895  0.4394 -0.7325 -0.3289
 8127SOL    HW125280   4.373   5.683   6.886 -0.4571  2.9522 -1.3169
 8127SOL    HW225281   4.257   5.632   6.989  2.0294  0.3361  0.3398
 8128SOL     OW25282   4.002   3.813   4.465 -0.5316 -0.0226  0.2927
 8128SOL    HW125283   4.013   3.805   4.365 -0.7458  1.5541  0.1237
 8128SOL    HW225284   4.062   3.746   4.510  0.4406  0.0198 -0.8752
 8129SOL     OW25285   3.688   5.883   5.564  0.3956 -0.3389 -0.8165
 8129SOL    HW125286   3.769   5.839   5.603  1.2087  0.1445 -1.8860
 8129SOL    HW225287   3.690   5.981   5.587 -1.2671 -0.7451  1.3440
 8130SOL     OW25288   0.350   1.684   1.101  0.2349  0.4507 -0.5504
 8130SOL    HW125289   0.363   1.762   1.163  0.7030  0.0010 -0.0713
 8130SOL    HW225290   0.432   1.671   1.046  0.1829  0.2592 -0.5834
 8131SOL     OW25291   2.579   3.005   0.876 -0.4384  0.5546  0.3444
 8131SOL    HW125292   2.674   2.998   0.846 -0.4216 -0.3064  0.5628
 8131SOL    HW225293   2.541   3.092   0.845  0.3749  0.8547  0.1373
 8132SOL     OW25294   5.450   2.461   3.194  0.0907 -0.0982 -0.2517
 8132SOL    HW125295   5.537   2.452   3.242 -0.4487  0.9507  0.9544
 8132SOL    HW225296   5.382   2.401   3.236 -0.0071 -0.2863 -0.6646
 8133SOL     OW25297   2.384   5.443   3.228  0.0175  0.1305  0.0866
 8133SOL    HW125298   2.465   5.387   3.212 -1.0117 -1.1543 -0.8495
 8133SOL    HW225299   2.408   5.540   3.225  0.8153  0.0247 -4.9191
 8134SOL     OW25300   5.285   3.896   2.196 -0.4265 -0.2951  0.0802
 8134SOL    HW125301   5.310   3.963   2.265 -0.5458 -1.1716  1.0020
 8134SOL    HW225302   5.332   3.917   2.110  1.7459 -0.5972  1.1143
 8135SOL     OW25303   3.776   5.722   3.568  0.2656 -0.1832  0.4537
 8135SOL    HW125304   3.747   5.649   3.630  2.7201 -1.4972  0.2056
 8135SOL    HW225305   3.696   5.766   3.528 -1.4099 -3.6089 -0.3918
 8136SOL     OW25306   1.889   6.149   6.555 -0.5432  0.4450 -0.5709
 8136SOL    HW125307   1.959   6.218   6.541 -0.0988  0.2278  0.4738
 8136SOL    HW225308   1.914   6.065   6.507  0.1378  0.2292  0.1434
 8137SOL     OW25309   3.761   4.911   4.566  0.1646 -0.8523  0.5806
 8137SOL    HW125310   3.849   4.872   4.537  0.1923 -0.9495  0.7951
 8137SOL    HW225311   3.758   4.916   4.666  0.2685 -0.0596  0.5487
 8138SOL     OW25312   2.641   6.221   3.171 -0.5254 -0.0314 -0.6083
 8138SOL    HW125313   2.666   6.207   3.266 -1.5616 -0.2422 -0.3600
 8138SOL    HW225314   2.713   6.273   3.125 -0.5726  1.1674  0.6062
 8139SOL     OW25315   2.772   3.676   6.827  0.5254  0.4944  0.4415
 8139SOL    HW125316   2.825   3.618   6.765 -1.2799 -1.1115  0.2917
 8139SOL    HW225317   2.747   3.624   6.908 -1.1449  1.0365  0.3149
 8140SOL     OW25318   5.049   2.518   1.293 -0.0811  0.0330  0.6807
 8140SOL    HW125319   4.995   2.576   1.231 -1.0651  0.4222  1.8527
 8140SOL    HW225320   5.141   2.508   1.257  0.1067  2.2960  0.3822
 8141SOL     OW25321   6.444   1.356   4.906  0.1193  0.1580  0.2067
 8141SOL    HW125322   6.348   1.381   4.893 -0.2879 -1.2449  0.3002
 8141SOL    HW225323   6.456   1.260   4.882  1.2853  0.0286  1.2281
 8142SOL     OW25324   4.261   5.528   1.230 -0.2191 -0.0053 -0.1253
 8142SOL    HW125325   4.359   5.543   1.246  0.1389 -0.5015 -1.6435
 8142SOL    HW225326   4.232   5.582   1.151 -0.9042 -0.7358 -0.3840
 8143SOL     OW25327   5.388   4.547   0.133 -0.1402 -0.6887 -0.1383
 8143SOL    HW125328   5.420   4.592   0.217 -0.5777 -0.1369 -0.2629
 8143SOL    HW225329   5.435   4.459   0.123 -0.7511 -1.1823  1.1545
 8144SOL     OW25330   1.389   4.830   6.406  0.5239  0.5254  0.7280
 8144SOL    HW125331   1.459   4.764   6.379  0.9530  1.2393  0.0554
 8144SOL    HW225332   1.428   4.895   6.471 -0.5366 -1.2652  3.3661
 8145SOL     OW25333   4.815   4.642   5.806  0.2547 -0.0151 -0.2080
 8145SOL    HW125334   4.741   4.625   5.742  0.9095  1.2029 -1.3477
 8145SOL    HW225335   4.877   4.563   5.808  0.0844 -0.1690 -0.8842
 8146SOL     OW25336   6.138   0.933   6.595  0.2157  0.3217 -0.2373
 8146SOL    HW125337   6.231   0.942   6.630 -0.1730  0.2005  0.8579
 8146SOL    HW225338   6.094   1.023   6.595  0.4486  0.4434 -1.1125
 8147SOL     OW25339   1.190   0.826   5.096 -0.3376  0.3688 -0.4987
 8147SOL    HW125340   1.210   0.924   5.101  1.2300  0.0655 -0.2816
 8147SOL    HW225341   1.232   0.780   5.174  0.0404 -0.6378 -1.2762
 8148SOL     OW25342   3.331   3.925   6.834  0.2276 -0.5540  0.2739
 8148SOL    HW125343   3.235   3.939   6.810  0.5899  0.6561 -0.5757
 8148SOL    HW225344   3.337   3.868   6.916 -1.3248  1.7489  2.1101
 8149SOL     OW25345   6.902   5.022   6.097 -0.8109  0.0780  0.1310
 8149SOL    HW125346   6.915   5.011   6.196  1.5140 -1.8697 -0.2826
 8149SOL    HW225347   6.922   5.116   6.071  0.5611  0.1566  1.3113
 8150SOL     OW25348   1.381   3.852   6.705  0.7703  0.3507  0.0319
 8150SOL    HW125349   1.432   3.890   6.782 -1.0459 -0.3503  1.6533
 8150SOL    HW225350   1.309   3.916   6.677  0.1338 -0.2478  0.2660
 8151SOL     OW25351   5.814   3.286   2.444  0.2506  0.8526  0.1529
 8151SOL    HW125352   5.793   3.198   2.402  1.0225  0.7342 -0.0163
 8151SOL    HW225353   5.777   3.289   2.537 -1.6555  1.1974 -0.5711
 8152SOL     OW25354   6.255   2.000   5.282 -0.2186  0.4451  0.5304
 8152SOL    HW125355   6.205   1.918   5.313 -0.3377  0.4393  0.3205
 8152SOL    HW225356   6.287   1.986   5.188  1.9882 -0.4063  1.3308
 8153SOL     OW25357   1.529   2.131   6.911 -0.5743 -0.1740 -1.0366
 8153SOL    HW125358   1.500   2.218   6.870 -0.8934 -0.5842 -1.7074
 8153SOL    HW225359   1.484   2.119   6.999 -1.4129 -0.1848 -1.4620
 8154SOL     OW25360   5.446   6.536   6.296 -0.1527  0.2671  0.0865
 8154SOL    HW125361   5.483   6.479   6.368 -0.6573 -1.3759 -0.9054
 8154SOL    HW225362   5.517   6.599   6.263  0.3932  0.2619  1.2158
 8155SOL     OW25363   0.811   2.605   5.108  0.4244 -0.2450 -0.5821
 8155SOL    HW125364   0.718   2.624   5.140  1.1789  1.1059  0.9820
 8155SOL    HW225365   0.818   2.509   5.082 -1.6779 -0.1233 -1.8093
 8156SOL     OW25366   2.889   3.242   5.976  0.0525 -0.7393 -0.1405
 8156SOL    HW125367   2.890   3.342   5.966 -0.7235 -0.7239 -0.1170
 8156SOL    HW225368   2.982   3.209   5.989  0.3146 -0.0140 -0.1350
 8157SOL     OW25369   0.659   4.078   4.455  0.5645 -0.0579 -0.5465
 8157SOL    HW125370   0.681   4.029   4.371  2.8768  0.7387 -0.4630
 8157SOL    HW225371   0.602   4.157   4.434  0.2480 -0.4561 -1.2089
 8158SOL     OW25372   0.333   4.632   0.472  0.3812 -0.0604  0.5091
 8158SOL    HW125373   0.396   4.685   0.415  1.0917 -1.1604  0.2424
 8158SOL    HW225374   0.268   4.583   0.414 -0.9545  1.2730  0.7856
 8159SOL     OW25375   3.433   5.746   4.410 -0.0510 -0.6104  0.1093
 8159SOL    HW125376   3.350   5.720   4.361 -0.0793  0.6174 -0.5151
 8159SOL    HW225377   3.498   5.786   4.346 -0.3144  1.5712  1.1280
 8160SOL     OW25378   4.901   3.297   3.427 -0.2063  0.0947 -0.0217
 8160SOL    HW125379   4.989   3.284   3.472 -0.3517 -0.7383  0.0455
 8160SOL    HW225380   4.907   3.372   3.361  0.7966 -0.5229 -0.6537
 8161SOL     OW25381   7.022   2.123   0.544 -0.9849 -0.1675 -0.7372
 8161SOL    HW125382   7.014   2.087   0.451 -1.1783  2.3287 -1.7891
 8161SOL    HW225383   7.088   2.199   0.545 -0.9000 -0.2159  1.2018
 8162SOL     OW25384   6.562   5.969   0.497 -0.4538 -0.1361 -0.3077
 8162SOL    HW125385   6.650   5.979   0.545 -0.1604 -0.8317 -0.6903
 8162SOL    HW225386   6.534   6.058   0.461 -1.3161  0.7014  2.2332
 8163SOL     OW25387   3.008   4.311   5.326 -0.4054  0.3107 -0.3293
 8163SOL    HW125388   2.954   4.378   5.276 -0.1044  0.4042 -0.5258
 8163SOL    HW225389   2.992   4.220   5.287 -1.6242  0.1023  0.5942
 8164SOL     OW25390   0.308   2.388   5.648 -0.0553 -0.0968 -0.6996
 8164SOL    HW125391   0.338   2.359   5.739 -0.1290  1.1399 -0.2615
 8164SOL    HW225392   0.213   2.360   5.633  0.2008 -0.9896 -0.7236
 8165SOL     OW25393   1.377   2.365   6.821 -0.1439  0.0674 -0.2652
 8165SOL    HW125394   1.364   2.445   6.879 -3.1314 -1.0379  0.7784
 8165SOL    HW225395   1.290   2.338   6.779  1.0847 -1.6870 -1.8961
 8166SOL     OW25396   2.690   2.103   5.256 -0.2514  0.3548 -0.2577
 8166SOL    HW125397   2.632   2.030   5.291 -0.1197  0.3049 -0.1419
 8166SOL    HW225398   2.697   2.096   5.157  3.2458 -2.4202  0.0062
 8167SOL     OW25399   0.041   2.354   1.477 -0.4762 -0.0092  0.0459
 8167SOL    HW125400  -0.013   2.438   1.486 -1.8062 -1.0428  2.4808
 8167SOL    HW225401   0.112   2.353   1.547  0.1519 -0.5040 -0.5820
 8168SOL     OW25402   1.970   6.160   3.398  0.4538 -0.4169  0.3833
 8168SOL    HW125403   1.947   6.224   3.325  0.1619 -0.8998  0.0426
 8168SOL    HW225404   2.060   6.120   3.381  1.0168  0.5263  1.0465
 8169SOL     OW25405   6.409   3.870   6.647 -0.3037  0.4997  0.2163
 8169SOL    HW125406   6.392   3.929   6.726 -0.7395 -0.7722  1.0984
 8169SOL    HW225407   6.402   3.775   6.675  2.3839 -0.0540 -0.7087
 8170SOL     OW25408   0.004   5.428   4.929  0.4997  0.2083 -0.3402
 8170SOL    HW125409   0.097   5.460   4.910 -0.6886  3.8636 -0.6818
 8170SOL    HW225410  -0.062   5.493   4.892 -2.1931 -1.1018  1.8003
 8171SOL     OW25411   6.392   1.805   2.807 -0.1130  0.5324 -0.3247
 8171SOL    HW125412   6.403   1.845   2.898  0.5226  0.6854 -0.4699
 8171SOL    HW225413   6.296   1.814   2.779 -0.4514 -0.0540  0.5800
 8172SOL     OW25414   2.265   4.615   5.861 -0.7241  0.2593  0.3381
 8172SOL    HW125415   2.193   4.680   5.886  0.0786  1.1115  0.4676
 8172SOL    HW225416   2.246   4.577   5.770  0.0423  2.5111 -0.8243
 8173SOL     OW25417   4.562   2.022   2.467  0.3011 -0.3731 -1.0440
 8173SOL    HW125418   4.498   1.964   2.518  2.7496 -1.4236  1.0414
 8173SOL    HW225419   4.511   2.080   2.403 -2.7097 -1.0161  0.5947
 8174SOL     OW25420   2.380   6.796   3.716 -0.4374  0.2231 -0.3205
 8174SOL    HW125421   2.478   6.789   3.696 -0.3265 -1.0936  0.5639
 8174SOL    HW225422   2.335   6.710   3.692 -0.8874 -0.1655  1.7592
 8175SOL     OW25423   2.499   3.481   6.758  0.1833 -0.7979  0.6597
 8175SOL    HW125424   2.517   3.499   6.855  1.6087  0.8898  0.1291
 8175SOL    HW225425   2.564   3.531   6.702 -1.2662 -0.9085 -1.2311
 8176SOL     OW25426   3.892   4.680   0.444  0.4674  0.2974 -0.2731
 8176SOL    HW125427   3.872   4.628   0.527  0.4284 -0.4258 -0.7251
 8176SOL    HW225428   3.898   4.777   0.466  1.0478  0.0568  0.6809
 8177SOL     OW25429   3.526   2.550   1.062 -0.4544  0.0290 -0.5888
 8177SOL    HW125430   3.491   2.571   0.970  1.9027  0.0650 -1.5566
 8177SOL    HW225431   3.605   2.490   1.054 -0.9704 -1.0218  1.5476
 8178SOL     OW25432   3.117   6.395   1.089 -0.2554 -0.3185 -0.5052
 8178SOL    HW125433   3.093   6.298   1.091  1.2654 -0.7121  0.4510
 8178SOL    HW225434   3.161   6.420   1.175 -0.6811  1.2535 -0.7095
 8179SOL     OW25435   6.486   5.081   3.387 -0.1139  0.1403  0.5058
 8179SOL    HW125436   6.498   5.180   3.378  0.8331 -0.0379 -0.3528
 8179SOL    HW225437   6.572   5.041   3.420 -0.5044 -0.4000  0.8814
 8180SOL     OW25438   2.771   4.458   0.471  0.2767 -0.0715 -0.1000
 8180SOL    HW125439   2.732   4.502   0.551  0.3144 -2.2297  1.1766
 8180SOL    HW225440   2.733   4.366   0.461  2.0043 -0.7173 -1.1987
 8181SOL     OW25441   4.935   0.653   6.607  0.5000 -0.4437 -0.4571
 8181SOL    HW125442   4.950   0.632   6.703  0.4815  0.9896 -0.1225
 8181SOL    HW225443   4.864   0.592   6.570  1.1682 -1.6437  0.1560
 8182SOL     OW25444   3.876   3.584   1.571 -0.1338  0.4956  0.2321
 8182SOL    HW125445   3.836   3.668   1.605 -0.3056  1.0288 -1.2345
 8182SOL    HW225446   3.971   3.577   1.602  0.1020  1.5858 -0.2084
 8183SOL     OW25447   0.141   1.317   4.603  0.0203  0.4178  0.6284
 8183SOL    HW125448   0.200   1.390   4.567  0.5223  0.0810  0.7639
 8183SOL    HW225449   0.195   1.256   4.661 -0.0975 -0.8142 -0.5021
 8184SOL     OW25450   5.536   6.666   5.903 -0.4234 -0.0611  0.1076
 8184SOL    HW125451   5.556   6.753   5.948  0.1247  0.1291 -0.4935
 8184SOL    HW225452   5.466   6.680   5.833  1.6365  0.5086 -1.9609
 8185SOL     OW25453   6.866   0.599   2.553  0.5408  0.5232  0.4012
 8185SOL    HW125454   6.829   0.635   2.467  1.5524  2.1968  0.6084
 8185SOL    HW225455   6.965   0.613   2.554  0.7679 -1.0368  1.1371
 8186SOL     OW25456   6.523   6.288   0.671  0.4338  0.1657 -0.6493
 8186SOL    HW125457   6.603   6.343   0.648 -0.0319  1.0260 -0.2868
 8186SOL    HW225458   6.445   6.349   0.686 -0.6487 -0.7158 -2.3726
 8187SOL     OW25459   1.894   5.870   2.225  0.0537 -0.5430  0.0763
 8187SOL    HW125460   1.894   5.953   2.169 -0.0495 -0.1028  0.7243
 8187SOL    HW225461   1.885   5.790   2.165 -1.5672 -0.0138 -0.4441
 8188SOL     OW25462   1.871   1.474   3.311  0.6110 -0.1854  0.2679
 8188SOL    HW125463   1.856   1.391   3.257  0.4246 -1.5044  2.2273
 8188SOL    HW225464   1.850   1.554   3.256 -1.2592 -1.5118 -1.0601
 8189SOL     OW25465   0.237   3.418   4.147  0.4587  0.0095 -0.0056
 8189SOL    HW125466   0.162   3.435   4.211  1.2858  2.5221  0.4129
 8189SOL    HW225467   0.265   3.323   4.153 -0.5924 -0.2218  2.1504
 8190SOL     OW25468   5.736   4.213   2.567 -0.2235 -0.4754 -0.2931
 8190SOL    HW125469   5.772   4.141   2.508  1.2726  2.1902 -2.8324
 8190SOL    HW225470   5.646   4.242   2.533 -1.4061 -1.8387  1.4565
 8191SOL     OW25471   2.738   3.862   0.572 -0.4837 -0.4779 -0.5300
 8191SOL    HW125472   2.757   3.958   0.594 -0.0318 -0.1377 -2.2725
 8191SOL    HW225473   2.784   3.803   0.639  1.4899  0.4781 -0.9635
 8192SOL     OW25474   5.669   4.439   1.402  0.0006 -0.0863 -0.4104
 8192SOL    HW125475   5.640   4.381   1.326  0.7360 -0.7629 -0.1844
 8192SOL    HW225476   5.769   4.440   1.408 -0.0110  0.8519 -0.1322
 8193SOL     OW25477   0.554   6.791   5.234 -0.4164 -0.3833 -0.5062
 8193SOL    HW125478   0.461   6.762   5.213  0.1375 -1.5881 -1.3798
 8193SOL    HW225479   0.557   6.891   5.238 -2.2739 -0.3086  2.1436
 8194SOL     OW25480   0.186   5.464   0.544  0.0364  0.3699  0.0356
 8194SOL    HW125481   0.101   5.455   0.492 -0.5917  0.8503  0.9526
 8194SOL    HW225482   0.170   5.435   0.639  0.4121  2.1204  0.6759
 8195SOL     OW25483   0.239   1.427   2.532 -0.6194  0.2756 -0.1550
 8195SOL    HW125484   0.176   1.355   2.505 -0.6694  0.4830 -0.6081
 8195SOL    HW225485   0.279   1.406   2.621 -1.0309 -0.0479 -0.0483
 8196SOL     OW25486   5.523   1.003   3.213  0.4850  0.8574  0.1283
 8196SOL    HW125487   5.545   1.058   3.132  1.1240  1.7698  0.9015
 8196SOL    HW225488   5.515   0.907   3.186 -0.4792  1.2778 -1.2237
 8197SOL     OW25489   2.684   6.904   6.095  0.4907 -0.1929  0.6527
 8197SOL    HW125490   2.698   6.958   6.012  1.4096  0.5870  1.2926
 8197SOL    HW225491   2.590   6.914   6.126  0.6222  0.9694  0.7000
 8198SOL     OW25492   0.914   5.922   4.778 -0.4279 -0.1084  0.0648
 8198SOL    HW125493   0.987   5.913   4.845 -0.8853 -1.7041  0.4140
 8198SOL    HW225494   0.835   5.967   4.820  0.6902  2.6532 -0.6406
 8199SOL     OW25495   6.675   3.792   0.274  0.0414 -0.0319  0.3641
 8199SOL    HW125496   6.628   3.825   0.355  0.5324  2.4302 -0.2749
 8199SOL    HW225497   6.774   3.806   0.284  0.1745 -0.3451 -0.3847
 8200SOL     OW25498   4.731   4.611   6.162 -0.3225  0.4962 -0.2829
 8200SOL    HW125499   4.788   4.532   6.185  1.6241  1.8884 -0.0960
 8200SOL    HW225500   4.735   4.627   6.063 -0.6204  0.4283 -0.3061
 8201SOL     OW25501   4.662   2.972   0.312  0.3612 -0.0392 -0.1713
 8201SOL    HW125502   4.566   2.989   0.332 -0.3404 -3.2217 -0.3170
 8201SOL    HW225503   4.719   3.029   0.370 -1.6127  0.9025  0.9150
 8202SOL     OW25504   5.440   0.625   4.745 -0.3785  0.1810 -0.1507
 8202SOL    HW125505   5.505   0.676   4.689  1.5627  0.1914  1.9861
 8202SOL    HW225506   5.384   0.690   4.798  0.7385  0.1679  1.0865
 8203SOL     OW25507   1.682   3.854   6.684  0.5682  0.4626 -0.3162
 8203SOL    HW125508   1.658   3.910   6.763 -0.0379  0.6557 -0.6335
 8203SOL    HW225509   1.631   3.768   6.686 -0.1293  0.8443 -0.9537
 8204SOL     OW25510   3.101   2.812   5.576 -0.0045  0.1916 -0.5011
 8204SOL    HW125511   3.081   2.784   5.482 -1.2000  1.0214 -0.5177
 8204SOL    HW225512   3.024   2.865   5.612  0.2793 -0.4111  1.0754
 8205SOL     OW25513   0.177   4.923   5.366  0.2321 -0.4658 -0.1032
 8205SOL    HW125514   0.146   4.888   5.278 -0.8905 -0.1155  0.1355
 8205SOL    HW225515   0.201   5.020   5.357 -0.8375 -0.1657  0.1827
 8206SOL     OW25516   0.776   6.467   0.944  0.0788 -0.0709  0.0119
 8206SOL    HW125517   0.701   6.523   0.908  0.0062 -0.3442 -0.2667
 8206SOL    HW225518   0.817   6.414   0.870  0.7356  0.2925  0.1191
 8207SOL     OW25519   3.136   3.071   3.983 -0.1673 -0.2777  0.0785
 8207SOL    HW125520   3.123   3.027   4.072 -1.8154  1.3640  0.7282
 8207SOL    HW225521   3.051   3.116   3.956  0.2344 -0.9002 -2.4562
 8208SOL     OW25522   3.372   5.871   3.972 -0.1523 -0.5156 -0.3942
 8208SOL    HW125523   3.450   5.902   4.025  0.8595 -3.5292  0.0773
 8208SOL    HW225524   3.401   5.805   3.903 -1.5547  2.5141 -4.3040
 8209SOL     OW25525   4.790   4.769   3.856  0.6349  0.1085  0.0202
 8209SOL    HW125526   4.867   4.713   3.886  0.0021  0.0731  1.6744
 8209SOL    HW225527   4.803   4.863   3.884 -0.8941 -0.2909  2.3679
 8210SOL     OW25528   1.272   1.012   4.806 -0.8480 -0.3973  0.3420
 8210SOL    HW125529   1.361   1.058   4.804 -1.4167  0.9134  2.4077
 8210SOL    HW225530   1.245   0.989   4.713  1.1650  0.0948 -0.4280
 8211SOL     OW25531   4.485   4.098   0.609 -0.4091  0.2444 -0.0399
 8211SOL    HW125532   4.471   4.014   0.557 -1.0729 -1.3864  2.5757
 8211SOL    HW225533   4.437   4.091   0.696  1.0506  2.6063  1.0404
 8212SOL     OW25534   1.478   3.132   2.375 -0.1440 -0.0894 -0.0539
 8212SOL    HW125535   1.524   3.048   2.405 -0.2956  0.1877  0.9876
 8212SOL    HW225536   1.516   3.161   2.287  0.2790 -0.9537 -0.1687
 8213SOL     OW25537   6.419   4.058   1.178 -0.7687  0.4474 -0.6296
 8213SOL    HW125538   6.427   4.095   1.086 -1.4398 -0.5771 -1.1146
 8213SOL    HW225539   6.375   4.126   1.237 -0.7595  0.9373 -1.1742
 8214SOL     OW25540   4.585   1.136   3.458 -0.7320  0.4267 -0.1240
 8214SOL    HW125541   4.662   1.156   3.397 -0.4026 -0.4937 -0.0266
 8214SOL    HW225542   4.576   1.209   3.525  0.5222  0.1935  0.3236
 8215SOL     OW25543   3.243   4.052   2.769  0.2758 -0.1763  0.0027
 8215SOL    HW125544   3.209   4.065   2.676  1.6847 -2.4773 -0.9244
 8215SOL    HW225545   3.173   4.006   2.824 -0.8538  1.8650  0.3870
 8216SOL     OW25546   5.324   4.630   4.426 -0.2441  0.2049 -0.2642
 8216SOL    HW125547   5.265   4.549   4.432  1.4919 -1.0417  3.7844
 8216SOL    HW225548   5.420   4.602   4.430  0.4338  2.3847  0.3363
 8217SOL     OW25549   2.100   5.669   6.142  0.2143  0.1711 -0.4612
 8217SOL    HW125550   2.159   5.601   6.098  0.8142  1.3284 -1.5089
 8217SOL    HW225551   2.109   5.661   6.241  1.5112 -0.2189 -0.5829
 8218SOL     OW25552   5.277   2.406   1.171  0.4846  0.1485 -0.0832
 8218SOL    HW125553   5.232   2.362   1.093  0.8459  2.0343 -1.4128
 8218SOL    HW225554   5.359   2.454   1.139  2.5954 -1.7718  1.9927
 8219SOL     OW25555   5.077   2.652   0.356  0.2149  0.2208 -0.3610
 8219SOL    HW125556   4.993   2.689   0.394  0.4108  1.1795 -0.8207
 8219SOL    HW225557   5.067   2.640   0.257  1.2967  2.4359 -0.8074
 8220SOL     OW25558   4.406   2.986   0.417 -0.1346 -0.1825  0.0778
 8220SOL    HW125559   4.325   3.041   0.432 -0.5595 -0.4330 -1.1886
 8220SOL    HW225560   4.400   2.902   0.472  0.8208  1.2498  2.5245
 8221SOL     OW25561   6.793   3.470   2.816  0.1397 -0.6397  0.2802
 8221SOL    HW125562   6.722   3.521   2.766  0.2280  0.9604  1.6820
 8221SOL    HW225563   6.837   3.531   2.882  1.0480 -2.2868  1.2563
 8222SOL     OW25564   2.214   2.690   3.645 -0.4289  0.1670  0.1426
 8222SOL    HW125565   2.209   2.721   3.550  0.6031 -2.1147 -0.7384
 8222SOL    HW225566   2.306   2.655   3.663 -1.1099 -1.0332  1.4404
 8223SOL     OW25567   1.264   3.382   0.008 -0.1271 -0.1767  0.0563
 8223SOL    HW125568   1.278   3.364  -0.090 -0.3384 -0.7504  0.1268
 8223SOL    HW225569   1.246   3.479   0.022  1.4249  0.1893 -0.3064
 8224SOL     OW25570   0.496   2.038   2.636 -0.2584  0.0294  0.0079
 8224SOL    HW125571   0.549   2.115   2.599  0.6015 -0.8242 -0.6235
 8224SOL    HW225572   0.449   2.066   2.719  1.2361  0.8398  0.6250
 8225SOL     OW25573   5.582   1.795   0.969  0.5277 -0.5447 -0.3080
 8225SOL    HW125574   5.583   1.886   1.011  1.3249 -0.3023 -0.8259
 8225SOL    HW225575   5.655   1.739   1.010  2.0200  0.0349 -2.0591
 8226SOL     OW25576   3.267   0.929   1.108  0.0369  0.0268 -0.1740
 8226SOL    HW125577   3.247   0.854   1.170 -0.2223  0.8507  0.7752
 8226SOL    HW225578   3.311   1.003   1.160 -0.5049  0.8715 -0.9015
 8227SOL     OW25579   6.193   3.640   4.005  0.4342 -0.3886 -0.2690
 8227SOL    HW125580   6.280   3.673   4.043  0.5812  1.6540 -2.1622
 8227SOL    HW225581   6.190   3.661   3.908 -2.6879  0.7403 -0.0241
 8228SOL     OW25582   6.678   1.772   3.405 -0.0373 -0.0299 -0.1525
 8228SOL    HW125583   6.756   1.792   3.345  0.9134 -0.5165  0.8841
 8228SOL    HW225584   6.696   1.687   3.455 -1.3829 -0.3174 -0.1245
 8229SOL     OW25585   0.301   4.804   6.179  0.2136  0.2485  0.0963
 8229SOL    HW125586   0.249   4.749   6.245 -0.8953 -0.9090 -1.6513
 8229SOL    HW225587   0.393   4.767   6.169 -0.6518 -1.6628 -1.3801
 8230SOL     OW25588   3.522   5.255   3.589  0.6718 -0.4025 -0.2542
 8230SOL    HW125589   3.462   5.273   3.668  0.3818 -0.7633 -0.3917
 8230SOL    HW225590   3.471   5.267   3.505  0.0314 -3.2711 -0.3498
 8231SOL     OW25591   4.388   6.281   0.368  0.7590  0.1824 -0.2529
 8231SOL    HW125592   4.347   6.321   0.287  1.3056  1.5012  0.0998
 8231SOL    HW225593   4.455   6.212   0.341  0.8988  0.5750 -0.9234
 8232SOL     OW25594   3.217   3.816   1.509  0.1893 -1.0313 -0.6466
 8232SOL    HW125595   3.239   3.780   1.600  1.3701 -1.5217 -1.1053
 8232SOL    HW225596   3.129   3.863   1.512  0.1776 -1.1053  0.7317
 8233SOL     OW25597   1.086   5.553   4.752 -1.0693  0.5274  0.3021
 8233SOL    HW125598   1.035   5.471   4.725 -1.1097  1.1120 -1.5672
 8233SOL    HW225599   1.180   5.527   4.773 -0.7884  0.0911 -1.3331
 8234SOL     OW25600   1.329   4.260   6.853  0.2673 -0.0804  0.2002
 8234SOL    HW125601   1.291   4.183   6.802  0.8125 -0.8851  0.9749
 8234SOL    HW225602   1.338   4.339   6.792 -1.2464 -0.3032 -0.3557
 8235SOL     OW25603   4.654   2.595   6.183  0.2050  0.1758 -0.0422
 8235SOL    HW125604   4.635   2.649   6.100  0.7008  2.1176  1.0550
 8235SOL    HW225605   4.644   2.653   6.263  1.9189 -1.0766  1.1387
 8236SOL     OW25606   0.285   2.101   0.712 -0.2050 -0.4375 -0.1461
 8236SOL    HW125607   0.335   2.176   0.756 -0.0705  0.1042 -1.1761
 8236SOL    HW225608   0.276   2.025   0.776  0.9212 -0.0993  0.4477
 8237SOL     OW25609   5.052   0.438   5.434  0.3832 -0.2121 -0.2950
 8237SOL    HW125610   5.064   0.500   5.512 -0.2665 -0.3537 -0.0786
 8237SOL    HW225611   5.108   0.470   5.357  1.0908 -0.1166  0.2490
 8238SOL     OW25612   6.640   0.204   0.301 -0.3546  0.9237 -0.1584
 8238SOL    HW125613   6.739   0.193   0.290 -0.4662 -0.4025  0.0363
 8238SOL    HW225614   6.622   0.284   0.357  0.5468  2.0396 -1.3790
 8239SOL     OW25615   5.643   2.237   4.305 -0.1547 -0.7624 -0.4055
 8239SOL    HW125616   5.576   2.191   4.363 -0.7710 -1.2486 -1.4643
 8239SOL    HW225617   5.692   2.305   4.359 -0.6506 -1.2417  0.6921
 8240SOL     OW25618   3.539   3.751   2.165  0.2790 -0.9490 -0.2783
 8240SOL    HW125619   3.615   3.740   2.228  1.8549  2.0922 -1.4358
 8240SOL    HW225620   3.462   3.793   2.212  1.3403  1.0277 -0.2070
 8241SOL     OW25621   3.248   0.504   2.189  0.3902  0.4694  0.2959
 8241SOL    HW125622   3.170   0.556   2.223 -0.2327 -0.2765  0.0433
 8241SOL    HW225623   3.323   0.566   2.167 -0.1794  1.2070  0.4097
 8242SOL     OW25624   1.140   4.993   5.213  0.3009  0.3450  0.0810
 8242SOL    HW125625   1.096   4.916   5.166  1.4137 -0.7640  0.7908
 8242SOL    HW225626   1.079   5.028   5.284 -0.0824 -0.1192 -0.0088
 8243SOL     OW25627   5.013   5.849   4.651 -0.4716 -0.2852  0.1613
 8243SOL    HW125628   5.098   5.868   4.700 -1.0846  1.4553  0.6067
 8243SOL    HW225629   4.987   5.753   4.664 -0.9580  0.2180  3.8183
 8244SOL     OW25630   2.448   4.859   6.182 -0.0409 -0.4078 -0.6217
 8244SOL    HW125631   2.433   4.773   6.231 -0.7848  0.2946  0.4468
 8244SOL    HW225632   2.461   4.841   6.085  0.5940 -1.7814 -0.3035
 8245SOL     OW25633   4.099   3.710   0.261  0.4842  0.3067 -0.4031
 8245SOL    HW125634   4.023   3.729   0.198  0.9798 -0.4612 -1.2548
 8245SOL    HW225635   4.065   3.712   0.355 -0.9004 -1.2445 -0.8130
 8246SOL     OW25636   0.275   2.878   5.634 -0.3714  0.4371 -0.1733
 8246SOL    HW125637   0.241   2.943   5.703  0.2612 -0.5063  1.0580
 8246SOL    HW225638   0.363   2.841   5.663  0.5952  1.0198 -2.1540
 8247SOL     OW25639   6.703   5.766   6.833  0.0122  0.4058 -0.4747
 8247SOL    HW125640   6.702   5.855   6.787  1.6216  0.3881 -0.6034
 8247SOL    HW225641   6.795   5.748   6.868 -0.0231 -1.6575 -1.3125
 8248SOL     OW25642   6.022   3.174   3.819  0.1275  0.1815  0.3781
 8248SOL    HW125643   5.939   3.163   3.764  0.8952 -1.0375 -0.5851
 8248SOL    HW225644   6.036   3.092   3.874  1.1228  0.0375 -0.0781
 8249SOL     OW25645   0.402   6.093   4.149  0.1817  0.5863  0.2629
 8249SOL    HW125646   0.486   6.130   4.109  0.3839  0.5950  0.6878
 8249SOL    HW225647   0.328   6.160   4.139  0.1623  0.4742 -0.3383
 8250SOL     OW25648   3.158   3.321   1.623  0.0644 -0.3108 -0.4532
 8250SOL    HW125649   3.065   3.287   1.616  0.4518 -1.8195  0.8314
 8250SOL    HW225650   3.221   3.254   1.582  0.7250 -0.4345  0.6997
 8251SOL     OW25651   6.623   2.608   4.882 -0.7008  0.1837 -0.2659
 8251SOL    HW125652   6.618   2.525   4.827 -0.3792  0.4040 -0.6318
 8251SOL    HW225653   6.699   2.664   4.851 -0.8797  0.5880  0.0171
 8252SOL     OW25654   2.216   2.459   4.915 -0.0157 -0.1207  0.0738
 8252SOL    HW125655   2.297   2.502   4.954 -0.6590 -1.6082  3.3549
 8252SOL    HW225656   2.137   2.519   4.925  0.1539  0.2525 -0.7268
 8253SOL     OW25657   3.122   2.896   6.611  0.2955 -0.3395  0.5345
 8253SOL    HW125658   3.220   2.909   6.595  0.2204 -1.2617 -0.8788
 8253SOL    HW225659   3.099   2.799   6.605 -0.9564 -0.0081 -1.0038
 8254SOL     OW25660   6.669   3.894   2.749 -0.2957 -0.1564 -0.2305
 8254SOL    HW125661   6.757   3.941   2.752 -0.0528 -0.4723 -1.6762
 8254SOL    HW225662   6.622   3.916   2.663 -0.7808 -1.4891 -0.3307
 8255SOL     OW25663   3.092   3.255   5.201 -0.8941  0.2898 -0.2413
 8255SOL    HW125664   3.162   3.325   5.217 -1.5272  1.4980 -2.3065
 8255SOL    HW225665   3.003   3.287   5.233 -1.3660  0.9276 -2.0308
 8256SOL     OW25666   5.751   6.955   3.700  0.8047 -0.3006  0.3093
 8256SOL    HW125667   5.801   6.964   3.786  1.5673 -0.4290 -0.1140
 8256SOL    HW225668   5.654   6.940   3.720  0.9221 -0.0417  1.1397
 8257SOL     OW25669   6.049   6.013   5.016 -0.2594  0.0382 -0.0909
 8257SOL    HW125670   6.046   6.111   4.996 -2.0809 -0.1648 -1.1021
 8257SOL    HW225671   5.955   5.976   5.015  0.3907 -1.7334  0.1509
 8258SOL     OW25672   4.686   3.349   0.262 -0.3326  0.3000  0.4571
 8258SOL    HW125673   4.654   3.396   0.344 -0.0363  0.7025  0.3414
 8258SOL    HW225674   4.612   3.293   0.225 -0.0718 -1.0364  1.8109
 8259SOL     OW25675   3.868   5.912   1.779  0.2859 -0.6155 -0.1520
 8259SOL    HW125676   3.863   5.846   1.854 -0.8045  0.0508  0.3866
 8259SOL    HW225677   3.863   5.863   1.691  1.6086 -1.4004  0.1829
 8260SOL     OW25678   3.538   6.272   5.540  0.0894  0.0997  0.2641
 8260SOL    HW125679   3.583   6.351   5.499 -0.5474  0.3108 -0.0558
 8260SOL    HW225680   3.605   6.201   5.559  0.2584 -0.5950 -2.5142
 8261SOL     OW25681   5.761   1.625   1.857 -0.3994 -0.0250 -0.4448
 8261SOL    HW125682   5.663   1.607   1.858 -1.1086  3.0458 -2.4081
 8261SOL    HW225683   5.796   1.628   1.951 -1.8081 -2.5765  0.2415
 8262SOL     OW25684   5.035   0.898   1.043 -0.8179  0.2404  0.0691
 8262SOL    HW125685   5.091   0.934   0.968 -0.7375 -0.4058 -0.1911
 8262SOL    HW225686   5.039   0.960   1.121 -0.5772  0.7211 -0.3212
 8263SOL     OW25687   5.837   1.322   1.513 -0.1513 -0.0113 -0.2216
 8263SOL    HW125688   5.815   1.420   1.513 -2.3398 -0.4679 -0.3841
 8263SOL    HW225689   5.791   1.277   1.437  1.7822 -1.0246 -0.8746
 8264SOL     OW25690   1.832   2.816   2.670 -0.1046 -0.5945  0.0599
 8264SOL    HW125691   1.767   2.749   2.704  0.0768 -1.7564 -1.7264
 8264SOL    HW225692   1.925   2.783   2.687 -0.0118 -0.6106 -0.4667
 8265SOL     OW25693   2.468   1.631   2.354 -0.3525  0.0863 -0.3137
 8265SOL    HW125694   2.554   1.610   2.307 -0.5310  0.2444 -0.7087
 8265SOL    HW225695   2.393   1.631   2.289 -0.6091  0.2724 -0.0225
 8266SOL     OW25696   3.777   0.042   2.139 -0.0860  0.3551 -0.1761
 8266SOL    HW125697   3.744   0.095   2.217  1.4171 -0.8006  1.3375
 8266SOL    HW225698   3.856   0.089   2.098 -0.6341  0.7667 -0.7813
 8267SOL     OW25699   5.941   4.515   1.785 -0.2257 -0.8860 -0.3024
 8267SOL    HW125700   6.041   4.512   1.783 -0.0983  1.1668  0.2143
 8267SOL    HW225701   5.904   4.423   1.771  1.6752 -1.4153 -2.3547
 8268SOL     OW25702   0.238   5.533   1.336  0.0746  0.2426  0.5399
 8268SOL    HW125703   0.338   5.538   1.330  0.0208  1.7589  0.5021
 8268SOL    HW225704   0.210   5.546   1.431 -0.1049  0.1736  0.4966
 8269SOL     OW25705   3.910   2.715   6.827  0.2647 -0.2596  0.1247
 8269SOL    HW125706   3.842   2.645   6.851  0.2389  0.2268  1.5143
 8269SOL    HW225707   3.973   2.677   6.759  0.0960 -1.5467  0.6549
 8270SOL     OW25708   6.483   5.556   4.912  0.5728 -0.2815  0.3142
 8270SOL    HW125709   6.465   5.654   4.917  0.4547 -0.2170 -1.0314
 8270SOL    HW225710   6.531   5.527   4.995 -0.5913  0.6420  1.3525
 8271SOL     OW25711   1.171   1.028   3.832 -0.3382 -0.1118  0.7693
 8271SOL    HW125712   1.139   1.011   3.739 -1.1690 -1.4479  1.2723
 8271SOL    HW225713   1.208   1.121   3.838  3.1001 -1.1192 -1.8065
 8272SOL     OW25714   3.925   0.553   3.481  0.1843  0.4925 -0.4140
 8272SOL    HW125715   3.906   0.568   3.578 -0.8603  0.3073 -0.5805
 8272SOL    HW225716   3.939   0.641   3.435  0.7358  0.5760 -0.0868
 8273SOL     OW25717   2.055   0.330   0.633  0.3042  0.4225  0.1575
 8273SOL    HW125718   2.018   0.421   0.615 -0.4043  0.2176  0.5444
 8273SOL    HW225719   2.104   0.330   0.720  1.0857  0.6500 -0.2717
 8274SOL     OW25720   4.939   3.676   3.786 -0.7118 -0.5506 -0.3590
 8274SOL    HW125721   5.021   3.630   3.818  0.7713  1.9462 -0.3055
 8274SOL    HW225722   4.914   3.642   3.696  0.5966 -1.0990 -0.5358
 8275SOL     OW25723   6.133   1.561   1.293  0.3785 -0.3993 -0.2208
 8275SOL    HW125724   6.088   1.479   1.258 -0.5494 -1.2486  2.6997
 8275SOL    HW225725   6.066   1.634   1.304  0.4787 -0.4151  0.5202
 8276SOL     OW25726   2.144   6.941   3.594  0.4577 -0.1547 -0.4568
 8276SOL    HW125727   2.221   6.934   3.657  1.1377  2.4973 -0.8682
 8276SOL    HW225728   2.064   6.895   3.633  1.9095 -2.0361  0.4673
 8277SOL     OW25729   6.540   1.458   2.289 -0.2326  0.0189  0.0191
 8277SOL    HW125730   6.502   1.398   2.219 -1.0337  0.0050  0.4499
 8277SOL    HW225731   6.530   1.414   2.379  1.6934 -0.4189  0.0652
 8278SOL     OW25732   1.628   3.200   0.767 -0.2692  0.4048 -0.3319
 8278SOL    HW125733   1.608   3.287   0.723 -0.2796  0.0436 -1.0451
 8278SOL    HW225734   1.553   3.176   0.829 -0.0970  1.0737  0.1437
 8279SOL     OW25735   6.994   6.232   2.152 -0.3918 -0.0097 -0.1608
 8279SOL    HW125736   7.061   6.292   2.197 -1.0834  1.0007 -0.4547
 8279SOL    HW225737   7.028   6.137   2.155  0.9680  0.4493 -0.1659
 8280SOL     OW25738   3.336   3.906   0.366 -0.4112 -0.0042  0.3106
 8280SOL    HW125739   3.299   3.987   0.321  0.2614  0.4042  0.4791
 8280SOL    HW225740   3.337   3.829   0.301 -0.7668  0.2004  0.0605
 8281SOL     OW25741   3.350   4.894   2.509 -0.1539  1.0700 -0.0065
 8281SOL    HW125742   3.412   4.965   2.476  0.8611 -0.4599 -1.5707
 8281SOL    HW225743   3.297   4.858   2.433  1.2429 -1.5858  0.1630
 8282SOL     OW25744   0.788   1.770   6.899  0.2151 -0.0876  0.6473
 8282SOL    HW125745   0.799   1.870   6.896  0.6199 -0.1331 -2.0146
 8282SOL    HW225746   0.691   1.747   6.894  0.1427  0.1672  0.8639
 8283SOL     OW25747   1.543   2.903   4.826  0.7148  0.1623 -0.1881
 8283SOL    HW125748   1.602   2.903   4.745  1.6564 -1.2077  0.4546
 8283SOL    HW225749   1.566   2.825   4.884  1.0952  1.8710  2.1349
 8284SOL     OW25750   6.010   3.271   1.228 -0.7358  0.2364 -0.5767
 8284SOL    HW125751   5.992   3.267   1.130  0.8260  0.3902 -0.9057
 8284SOL    HW225752   6.107   3.292   1.243 -1.2624  1.8004  1.0013
 8285SOL     OW25753   3.543   2.848   2.593 -0.0078 -0.2827  0.0499
 8285SOL    HW125754   3.578   2.789   2.520  1.3739  2.4580 -1.6534
 8285SOL    HW225755   3.467   2.903   2.559 -1.2373 -0.9323  1.5949
 8286SOL     OW25756   6.270   2.599   6.530  0.0300  0.1717 -0.4712
 8286SOL    HW125757   6.192   2.554   6.487  0.9312 -0.3990 -1.5592
 8286SOL    HW225758   6.355   2.558   6.497  0.7943  0.1717  1.3453
 8287SOL     OW25759   3.134   6.987   6.303 -0.0994  0.6736  0.3152
 8287SOL    HW125760   3.222   6.987   6.257  0.5722 -3.5026  1.1883
 8287SOL    HW225761   3.065   6.946   6.244 -0.0512 -1.3840  1.5847
 8288SOL     OW25762   1.564   1.992   2.282 -0.0400 -0.0315 -0.4712
 8288SOL    HW125763   1.474   2.034   2.276 -0.2124 -0.5863 -2.0690
 8288SOL    HW225764   1.617   2.013   2.200  0.1732 -2.1959 -0.9484
 8289SOL     OW25765   0.399   5.925   0.789  0.1257  0.2253 -0.6685
 8289SOL    HW125766   0.425   5.892   0.880  0.5201 -1.3284 -1.3176
 8289SOL    HW225767   0.402   6.025   0.788  1.8219  0.2270  0.5252
 8290SOL     OW25768   5.099   2.226   1.827 -0.2502  0.8752 -0.4588
 8290SOL    HW125769   5.144   2.232   1.738 -0.0062  2.3778 -0.2571
 8290SOL    HW225770   5.167   2.224   1.900 -0.3738 -2.0219 -0.3034
 8291SOL     OW25771   3.816   0.536   0.289  0.3362 -0.5632  0.1390
 8291SOL    HW125772   3.815   0.557   0.386 -1.0512  1.3016 -0.2198
 8291SOL    HW225773   3.890   0.588   0.245  0.6648 -1.0434  0.1181
 8292SOL     OW25774   4.385   6.771   6.934 -0.0878  0.3517  0.0337
 8292SOL    HW125775   4.401   6.675   6.907 -1.9201  0.6078 -2.3164
 8292SOL    HW225776   4.325   6.774   7.014  2.2945 -0.4126  1.9781
 8293SOL     OW25777   5.098   4.321   0.104  0.6796 -0.5801 -0.4627
 8293SOL    HW125778   5.166   4.374   0.154 -0.3467 -0.4644  0.8524
 8293SOL    HW225779   5.079   4.365   0.016  1.2048  0.1814 -0.2029
 8294SOL     OW25780   0.628   1.125   6.872  0.8040  1.0025 -0.1370
 8294SOL    HW125781   0.592   1.114   6.779  1.1328  3.0918 -0.5734
 8294SOL    HW225782   0.554   1.112   6.938  0.5332 -0.3572 -0.6782
 8295SOL     OW25783   4.145   4.722   0.363  0.3419  0.1179  0.6047
 8295SOL    HW125784   4.214   4.671   0.413  0.4108  1.9665  2.5588
 8295SOL    HW225785   4.054   4.701   0.399  0.3487  1.0895  1.2513
 8296SOL     OW25786   6.536   4.872   4.515  0.0260 -0.1968  0.3186
 8296SOL    HW125787   6.446   4.894   4.478  0.6209  1.4606 -0.2498
 8296SOL    HW225788   6.542   4.902   4.610 -0.3614 -1.2955  0.7009
 8297SOL     OW25789   2.066   4.461   2.808 -0.7237 -0.1366 -0.0881
 8297SOL    HW125790   1.971   4.488   2.792 -0.0182  2.9378  0.3105
 8297SOL    HW225791   2.075   4.430   2.903 -1.2451 -0.1500 -0.0365
 8298SOL     OW25792   3.776   1.693   1.078  0.1401  0.4266  0.0248
 8298SOL    HW125793   3.694   1.721   1.128 -0.5037  0.8873 -1.2346
 8298SOL    HW225794   3.817   1.613   1.123 -0.9431  0.2527  0.7405
 8299SOL     OW25795   3.605   1.366   6.481  0.3452 -0.6367 -0.1864
 8299SOL    HW125796   3.639   1.339   6.572  0.3430 -0.5650 -0.1651
 8299SOL    HW225797   3.640   1.302   6.413  0.7995 -0.3623 -0.2106
 8300SOL     OW25798   0.483   4.923   4.823  0.4717  0.4321  0.1603
 8300SOL    HW125799   0.569   4.918   4.771  0.3014 -0.1464 -0.0712
 8300SOL    HW225800   0.481   4.849   4.890 -0.1390  0.0423 -0.2823
 8301SOL     OW25801   5.284   1.831   4.223  0.0123 -0.8261 -0.1355
 8301SOL    HW125802   5.288   1.920   4.269  1.8206 -0.3409 -1.1362
 8301SOL    HW225803   5.194   1.789   4.240 -0.7443  0.9955  0.6770
 8302SOL     OW25804   6.664   6.103   0.812 -0.1738  0.4524 -0.1664
 8302SOL    HW125805   6.623   6.103   0.720  0.4085 -0.3679 -0.4423
 8302SOL    HW225806   6.603   6.149   0.876  0.0693  2.4009 -1.2415
 8303SOL     OW25807   6.899   0.917   6.516 -0.2160  0.3303 -0.0716
 8303SOL    HW125808   6.988   0.913   6.561  0.3043 -0.2637 -1.1167
 8303SOL    HW225809   6.908   0.886   6.421 -1.5821  0.0378 -0.1262
 8304SOL     OW25810   6.560   1.849   0.585  0.0956  0.4094 -0.3615
 8304SOL    HW125811   6.631   1.830   0.517  0.1326 -2.4923  0.3672
 8304SOL    HW225812   6.596   1.833   0.676 -1.5909 -1.8884  0.0013
 8305SOL     OW25813   5.005   6.048   2.205  0.0066 -0.7901  0.3974
 8305SOL    HW125814   5.089   6.020   2.252  0.2766 -2.3049 -0.9161
 8305SOL    HW225815   4.927   6.032   2.265  0.4318 -1.8517  0.7035
 8306SOL     OW25816   3.573   1.397   4.206 -0.7790 -0.8177 -0.1554
 8306SOL    HW125817   3.529   1.343   4.277 -3.6073  1.9996  0.4673
 8306SOL    HW225818   3.652   1.445   4.244 -0.9721 -1.0044  0.4911
 8307SOL     OW25819   4.486   4.834   1.577  0.3490 -0.4932 -0.6230
 8307SOL    HW125820   4.461   4.742   1.549  0.9647 -1.3559  1.4554
 8307SOL    HW225821   4.409   4.896   1.563 -1.3956 -2.1055  1.3654
 8308SOL     OW25822   4.057   1.707   1.431  0.5131 -0.1781 -0.1182
 8308SOL    HW125823   4.090   1.765   1.506  0.6196 -1.9240  1.2443
 8308SOL    HW225824   4.135   1.670   1.381  0.5202 -0.9464  0.4510
 8309SOL     OW25825   6.817   5.177   1.985  0.0979 -0.2961 -0.4896
 8309SOL    HW125826   6.746   5.241   2.015  0.1161 -0.8807  0.9010
 8309SOL    HW225827   6.894   5.180   2.049  1.5697  0.6440 -2.2031
 8310SOL     OW25828   6.276   5.208   0.108  0.2090 -0.4282  0.5119
 8310SOL    HW125829   6.216   5.134   0.139 -0.1747 -0.1451  0.4480
 8310SOL    HW225830   6.331   5.240   0.186 -0.0374 -0.3931  0.6739
 8311SOL     OW25831   6.326   0.004   0.186  0.2682 -0.0596  0.1316
 8311SOL    HW125832   6.346   0.102   0.183  0.3947 -0.0669 -2.7435
 8311SOL    HW225833   6.378  -0.042   0.114 -3.1148 -1.4679 -1.6700
 8312SOL     OW25834   5.487   0.056   0.721  0.4437 -0.5717 -0.1742
 8312SOL    HW125835   5.387   0.052   0.723  0.4727 -1.6108 -0.2960
 8312SOL    HW225836   5.524   0.004   0.799  0.8803  0.9923  0.7045
 8313SOL     OW25837   3.370   1.988   2.542  0.0107  0.1269  0.1870
 8313SOL    HW125838   3.457   1.939   2.532 -0.2810 -0.3456 -0.0253
 8313SOL    HW225839   3.347   2.033   2.455 -0.2266 -0.1913  0.0860
 8314SOL     OW25840   0.517   0.865   3.989 -0.1022 -0.1333 -0.8018
 8314SOL    HW125841   0.587   0.926   4.025  2.9229 -4.0172  0.5324
 8314SOL    HW225842   0.470   0.820   4.065 -0.8087 -1.0006 -1.7347
 8315SOL     OW25843   4.179   4.647   0.110 -0.3597 -0.0150  0.5317
 8315SOL    HW125844   4.126   4.563   0.098  0.9255 -1.2719  2.8789
 8315SOL    HW225845   4.173   4.677   0.206  1.7556  0.7214  0.4883
 8316SOL     OW25846   1.208   5.417   6.777 -0.2752  0.0348 -0.3507
 8316SOL    HW125847   1.178   5.485   6.710  0.6513  1.0318  0.2175
 8316SOL    HW225848   1.231   5.332   6.730 -0.8489  0.3063 -1.1461
 8317SOL     OW25849   4.866   3.464   0.095  0.1897 -1.1381 -0.1620
 8317SOL    HW125850   4.791   3.443   0.157  0.1175  1.5854  0.8077
 8317SOL    HW225851   4.835   3.530   0.026  1.4450 -0.6233 -0.2690
 8318SOL     OW25852   2.824   2.073   6.261  0.1587  0.0883  0.8542
 8318SOL    HW125853   2.846   2.161   6.218 -0.4838 -0.0667  0.1786
 8318SOL    HW225854   2.908   2.019   6.270  0.2994  0.0715 -0.3629
 8319SOL     OW25855   2.374   0.580   4.266  0.8392 -0.2205 -0.6761
 8319SOL    HW125856   2.411   0.532   4.345  1.0073 -1.1574 -1.3141
 8319SOL    HW225857   2.337   0.514   4.201  2.7277  0.3549 -2.4280
 8320SOL     OW25858   4.591   4.789   2.556 -0.2510 -0.3616 -0.0803
 8320SOL    HW125859   4.657   4.714   2.564 -0.0098 -0.2332 -0.8360
 8320SOL    HW225860   4.532   4.774   2.477 -0.0903  0.3310 -0.3386
 8321SOL     OW25861   6.881   5.139   0.506  0.3886 -0.8334  0.2719
 8321SOL    HW125862   6.791   5.157   0.544 -0.8066 -0.6171 -2.4390
 8321SOL    HW225863   6.892   5.040   0.490  0.6337 -0.8588  0.5850
 8322SOL     OW25864   5.672   0.407   1.707  0.2569  0.5465 -0.1982
 8322SOL    HW125865   5.599   0.339   1.694  0.4637  0.1693  0.5343
 8322SOL    HW225866   5.655   0.486   1.648 -0.6511  0.3840 -0.1730
 8323SOL     OW25867   6.625   0.061   1.191  1.0317 -0.2942  0.0177
 8323SOL    HW125868   6.714   0.038   1.152  1.3328 -0.2163  0.6335
 8323SOL    HW225869   6.589   0.144   1.147  0.7417 -0.9425 -1.0020
 8324SOL     OW25870   1.291   2.056   3.664 -0.0481  0.2546 -0.4918
 8324SOL    HW125871   1.317   1.963   3.691  1.3964  0.7520 -0.0481
 8324SOL    HW225872   1.219   2.090   3.725  0.7567  0.1095  0.5736
 8325SOL     OW25873   3.709   5.610   0.186  0.0296  0.0638 -0.1397
 8325SOL    HW125874   3.792   5.609   0.242  0.2592 -0.4523 -0.4775
 8325SOL    HW225875   3.679   5.516   0.170 -0.0746  0.2049 -0.8152
 8326SOL     OW25876   3.932   4.539   5.718 -0.0190  0.5956  0.1202
 8326SOL    HW125877   3.881   4.607   5.770  1.6754  1.5278  0.6407
 8326SOL    HW225878   3.885   4.451   5.722 -1.4713  1.3771  0.6995
 8327SOL     OW25879   5.818   2.515   6.256 -0.4517  0.6017  0.3239
 8327SOL    HW125880   5.782   2.428   6.291 -0.6794  1.5917  2.7137
 8327SOL    HW225881   5.912   2.501   6.225 -1.0857 -0.8725 -1.0827
 8328SOL     OW25882   2.334   2.217   5.072  0.2139  0.5117  0.5360
 8328SOL    HW125883   2.297   2.145   5.131  0.9187  0.4078  0.8675
 8328SOL    HW225884   2.261   2.255   5.015 -0.1059 -0.7072  0.1007
 8329SOL     OW25885   0.645   3.564   6.298 -0.2552  0.4413 -0.5749
 8329SOL    HW125886   0.742   3.543   6.312 -0.6437 -0.8013  0.4979
 8329SOL    HW225887   0.624   3.562   6.201  0.5407 -0.5458 -0.7389
 8330SOL     OW25888   3.061   6.487   5.611  0.0800 -0.1736 -0.8529
 8330SOL    HW125889   3.155   6.474   5.642 -0.2508  0.0029  0.2546
 8330SOL    HW225890   2.999   6.433   5.668 -0.4748 -0.5246 -1.7645
 8331SOL     OW25891   0.264   6.507   0.170  0.4393 -0.2716 -0.0583
 8331SOL    HW125892   0.166   6.490   0.165  0.7830 -2.1594 -1.9697
 8331SOL    HW225893   0.295   6.495   0.264 -1.0545 -0.1778  0.4748
 8332SOL     OW25894   4.287   5.756   3.970 -0.7202  0.2103 -0.3534
 8332SOL    HW125895   4.322   5.681   3.914  0.0717  0.2587  0.0657
 8332SOL    HW225896   4.361   5.819   3.991 -0.9583  0.0976  0.9104
 8333SOL     OW25897   1.919   4.528   6.010 -0.2058 -0.2724 -0.3177
 8333SOL    HW125898   1.923   4.471   5.928  1.1098 -0.5173 -0.1196
 8333SOL    HW225899   1.924   4.469   6.091 -1.4680 -0.0297 -0.0591
 8334SOL     OW25900   6.354   2.118   3.264 -0.2420 -0.2730 -0.5230
 8334SOL    HW125901   6.356   2.085   3.170  0.3143 -2.1637  0.0898
 8334SOL    HW225902   6.379   2.043   3.326 -1.3614  0.6924  1.1969
 8335SOL     OW25903   6.148   0.346   5.693 -0.4759 -0.4479 -0.0579
 8335SOL    HW125904   6.182   0.439   5.684 -0.0264 -0.4552  1.2950
 8335SOL    HW225905   6.224   0.284   5.715 -0.3290 -1.5945 -3.2091
 8336SOL     OW25906   1.643   0.009   3.116  0.3656  0.6796 -0.0911
 8336SOL    HW125907   1.729   0.050   3.149 -0.1691  2.8945 -1.2852
 8336SOL    HW225908   1.631   0.030   3.020 -0.4777 -1.5502 -0.5331
 8337SOL     OW25909   4.728   6.211   4.079 -0.2222  0.3246 -0.0014
 8337SOL    HW125910   4.629   6.215   4.090 -0.1811  0.7743  0.2117
 8337SOL    HW225911   4.753   6.128   4.028 -0.6936  0.1375  0.0727
 8338SOL     OW25912   3.295   6.610   0.167  0.0356  0.3664  0.0812
 8338SOL    HW125913   3.334   6.692   0.209  0.1511 -0.5180  1.7633
 8338SOL    HW225914   3.255   6.634   0.078  0.0951  2.2208  0.5170
 8339SOL     OW25915   5.759   0.904   2.991  0.0564 -0.1294  0.3110
 8339SOL    HW125916   5.819   0.902   3.071  0.5681 -0.5016 -0.0731
 8339SOL    HW225917   5.702   0.822   2.990  1.3656 -1.0599 -0.6798
 8340SOL     OW25918   5.280   3.518   1.980 -0.4928  0.4941  0.7763
 8340SOL    HW125919   5.187   3.516   2.014 -1.4070  0.4758 -1.5375
 8340SOL    HW225920   5.291   3.596   1.918  1.2848  0.9673  1.6141
 8341SOL     OW25921   6.310   0.164   1.577  0.3929  0.6403  0.9517
 8341SOL    HW125922   6.297   0.171   1.676  0.3125  1.6770  0.8796
 8341SOL    HW225923   6.255   0.088   1.541  1.3465 -0.5296  1.8539
 8342SOL     OW25924   0.568   6.029   0.195  0.2879 -0.3909  0.5547
 8342SOL    HW125925   0.514   6.058   0.274 -1.0334 -0.1013 -0.4242
 8342SOL    HW225926   0.651   5.984   0.227  0.3389  0.7107  2.1086
 8343SOL     OW25927   4.907   5.545   6.214 -0.0112  0.3909  0.0901
 8343SOL    HW125928   4.928   5.598   6.297 -0.4752  0.2300  0.3153
 8343SOL    HW225929   4.991   5.528   6.163  0.2711  0.5390  0.5010
 8344SOL     OW25930   1.220   1.065   5.892  0.0963  0.4621 -0.4799
 8344SOL    HW125931   1.264   1.051   5.804  1.5920 -2.4131  0.6060
 8344SOL    HW225932   1.140   1.124   5.880 -0.0162 -0.1778 -3.7952
 8345SOL     OW25933   1.159   2.153   2.622  0.3323 -0.6991  0.0546
 8345SOL    HW125934   1.116   2.208   2.693 -1.1730 -0.4843 -0.9764
 8345SOL    HW225935   1.233   2.099   2.662  2.0197  2.1449  1.0973
 8346SOL     OW25936   3.742   4.565   0.208  0.2653  0.0119  0.0749
 8346SOL    HW125937   3.800   4.633   0.251  2.3739 -0.4740 -1.7875
 8346SOL    HW225938   3.689   4.607   0.134 -1.2624  0.2888  1.2607
 8347SOL     OW25939   3.151   6.325   3.017 -0.5336  0.6843 -0.0071
 8347SOL    HW125940   3.149   6.304   2.919 -0.7653 -0.4656  0.2307
 8347SOL    HW225941   3.169   6.241   3.069  0.4470  1.4355  0.8971
 8348SOL     OW25942   1.184   1.427   1.308  0.2312 -0.1798  0.0786
 8348SOL    HW125943   1.138   1.408   1.394 -0.9606 -0.3103 -0.5609
 8348SOL    HW225944   1.274   1.384   1.308  0.9217  1.1283  1.8528
 8349SOL     OW25945   0.095   3.932   3.212  0.0315  0.3173  0.0077
 8349SOL    HW125946   0.076   3.848   3.262  1.9212 -0.1896 -0.0676
 8349SOL    HW225947   0.041   4.007   3.251 -1.3012 -0.8114  0.3879
 8350SOL     OW25948   6.228   1.541   6.314 -0.5528 -0.6586  0.2515
 8350SOL    HW125949   6.219   1.585   6.225 -0.1203 -0.6947  0.1878
 8350SOL    HW225950   6.322   1.552   6.347 -1.0075  0.4258  1.2597
 8351SOL     OW25951   2.814   6.931   1.738 -0.2421  0.0866  0.6819
 8351SOL    HW125952   2.762   6.884   1.666 -0.4470 -0.3025  1.0793
 8351SOL    HW225953   2.898   6.881   1.757 -0.0592  0.3328  0.5342
 8352SOL     OW25954   6.792   6.600   3.415 -0.2375  0.9492 -0.1428
 8352SOL    HW125955   6.868   6.653   3.376 -0.8804  0.0225 -2.8630
 8352SOL    HW225956   6.754   6.540   3.345 -2.1981 -0.1087  1.7217
 8353SOL     OW25957   0.157   3.433   0.641  0.9256  0.2004  0.2633
 8353SOL    HW125958   0.192   3.410   0.732  0.1462 -0.4501  0.4173
 8353SOL    HW225959   0.227   3.414   0.573  1.4654  0.5525  0.7111
 8354SOL     OW25960   3.860   6.744   1.199  0.2121  0.1907  0.4283
 8354SOL    HW125961   3.867   6.844   1.194 -0.3249  0.2711  1.0925
 8354SOL    HW225962   3.908   6.703   1.122 -0.0759  0.9831 -0.1856
 8355SOL     OW25963   2.540   3.720   0.749  0.3433  0.1306 -0.7110
 8355SOL    HW125964   2.567   3.809   0.786  3.3192 -0.7136 -0.5706
 8355SOL    HW225965   2.560   3.717   0.651 -0.3475 -0.1760 -0.8496
 8356SOL     OW25966   2.972   4.347   6.456 -0.4126 -0.0970  0.2143
 8356SOL    HW125967   2.879   4.355   6.494 -1.2530 -1.6731 -1.3460
 8356SOL    HW225968   3.016   4.266   6.495 -0.0679  0.0849  0.2013
 8357SOL     OW25969   5.161   0.175   2.426  0.3910 -0.1858 -0.1723
 8357SOL    HW125970   5.193   0.110   2.494  0.6133 -0.7507 -0.8009
 8357SOL    HW225971   5.239   0.210   2.373  0.3378  0.9914  0.4884
 8358SOL     OW25972   1.969   1.500   6.738  0.9028 -0.2214 -0.4922
 8358SOL    HW125973   1.960   1.537   6.830  0.2387  0.5881 -0.8615
 8358SOL    HW225974   2.065   1.489   6.715  1.1478  1.6921 -0.5073
 8359SOL     OW25975   2.667   4.718   4.824  0.0933  0.0344 -0.1500
 8359SOL    HW125976   2.684   4.688   4.730 -0.7197 -1.2055  0.0869
 8359SOL    HW225977   2.743   4.689   4.882 -0.4105 -1.1075 -0.0347
 8360SOL     OW25978   3.872   1.343   3.014 -0.1515  0.3801  0.8719
 8360SOL    HW125979   3.944   1.328   3.082 -0.1776  0.4461  0.9139
 8360SOL    HW225980   3.849   1.256   2.970 -0.4233  0.2670  1.2345
 8361SOL     OW25981   1.806   2.047   3.545 -0.1286 -0.5260 -0.0497
 8361SOL    HW125982   1.747   2.118   3.508  0.4833  0.0945  0.1455
 8361SOL    HW225983   1.785   2.033   3.642 -0.7125 -1.1018 -0.2507
 8362SOL     OW25984   4.340   3.890   0.495 -0.2788 -0.1949  0.3919
 8362SOL    HW125985   4.309   3.805   0.537  0.5899 -1.3710 -1.2295
 8362SOL    HW225986   4.282   3.912   0.417 -1.3060  1.4721  1.5360
 8363SOL     OW25987   0.639   2.495   2.203  0.2609 -0.2394 -0.2062
 8363SOL    HW125988   0.712   2.436   2.169  0.0861  0.0203 -1.0644
 8363SOL    HW225989   0.553   2.445   2.206  0.0096  0.0903 -1.4107
 8364SOL     OW25990   6.644   4.533   2.586  0.1655  0.8626  0.3666
 8364SOL    HW125991   6.715   4.550   2.518 -0.3228  0.6150 -0.2041
 8364SOL    HW225992   6.554   4.546   2.545 -0.1406  0.3034  0.8508
 8365SOL     OW25993   2.207   2.770   4.976  0.2943 -0.1158 -0.3543
 8365SOL    HW125994   2.135   2.776   5.046  1.7186  0.7739  1.0951
 8365SOL    HW225995   2.277   2.839   4.994  1.6850 -1.1513 -1.5423
 8366SOL     OW25996   3.843   6.203   1.787  0.1671  0.0971  0.2075
 8366SOL    HW125997   3.815   6.111   1.759 -0.3968  0.5692 -0.8296
 8366SOL    HW225998   3.761   6.257   1.809  0.4903  0.3790  0.7283
 8367SOL     OW25999   6.179   5.456   3.361 -0.1247  0.2701  0.3973
 8367SOL    HW126000   6.118   5.408   3.299 -1.1276  0.8431  0.9195
 8367SOL    HW226001   6.139   5.457   3.453  0.5505  0.8701  0.6957
 8368SOL     OW26002   2.115   5.061   6.319  0.0966 -0.0547 -0.4474
 8368SOL    HW126003   2.128   5.119   6.239 -0.6977  1.7356  0.6663
 8368SOL    HW226004   2.022   5.025   6.319  0.7004 -1.7747 -1.3489
 8369SOL     OW26005   1.740   0.752   1.106  0.1916  0.3024 -0.7132
 8369SOL    HW126006   1.840   0.752   1.105  0.2055  0.0116 -2.3732
 8369SOL    HW226007   1.706   0.842   1.078 -0.0575  0.7322  0.8371
 8370SOL     OW26008   2.514   1.926   0.942 -0.2451 -0.1481 -0.6276
 8370SOL    HW126009   2.435   1.866   0.928 -1.2171 -0.0929  3.2695
 8370SOL    HW226010   2.598   1.872   0.938 -0.6232 -0.6549 -2.5216
 8371SOL     OW26011   0.106   4.014   6.465  0.4643  0.2017  0.9109
 8371SOL    HW126012   0.161   3.964   6.398 -2.5276 -0.6470 -1.1418
 8371SOL    HW226013   0.142   4.106   6.477  4.1649 -1.2488  2.2453
 8372SOL     OW26014   6.034   6.801   6.817  0.4576 -0.4425 -0.8686
 8372SOL    HW126015   6.083   6.886   6.837  0.1305 -0.7235  1.2941
 8372SOL    HW226016   6.100   6.733   6.783  1.2687 -0.2629  0.2990
 8373SOL     OW26017   1.098   4.854   3.208 -0.0253  0.1847 -0.4835
 8373SOL    HW126018   1.150   4.927   3.250  0.0760 -0.6105  0.8310
 8373SOL    HW226019   1.042   4.809   3.277 -1.1872 -0.0560 -1.5462
 8374SOL     OW26020   0.677   6.455   0.495  0.0434  0.9387 -0.0565
 8374SOL    HW126021   0.628   6.542   0.500  0.3646  1.0858  0.6883
 8374SOL    HW226022   0.661   6.413   0.406 -0.8962  1.2928 -0.0639
 8375SOL     OW26023   3.580   1.282   5.623  0.0482 -0.3613  0.7670
 8375SOL    HW126024   3.574   1.183   5.608 -2.6588 -0.2305  0.5240
 8375SOL    HW226025   3.578   1.329   5.535  2.0781 -0.0398  0.8363
 8376SOL     OW26026   5.527   6.765   4.358  0.8396 -0.3195  0.0452
 8376SOL    HW126027   5.593   6.726   4.294  0.4774 -0.4594 -0.2507
 8376SOL    HW226028   5.552   6.741   4.452  1.2243 -0.3409 -0.0619
 8377SOL     OW26029   3.399   4.127   6.449 -0.5683  0.5358 -0.4115
 8377SOL    HW126030   3.299   4.119   6.446 -0.5357 -0.3101  0.1753
 8377SOL    HW226031   3.437   4.049   6.500  0.2354  2.0320  1.3872
 8378SOL     OW26032   5.380   3.169   3.789  0.5072 -0.3726 -0.2829
 8378SOL    HW126033   5.418   3.078   3.807 -0.9067 -1.2558 -1.5027
 8378SOL    HW226034   5.291   3.160   3.743  0.0681  1.6330  0.0687
 8379SOL     OW26035   6.002   2.974   2.212 -0.1894  0.0125  0.2850
 8379SOL    HW126036   6.065   2.954   2.287 -1.1714 -1.2607  0.7962
 8379SOL    HW226037   5.922   3.021   2.247  1.1206  3.1782 -0.5985
 8380SOL     OW26038   5.168   0.579   3.192  0.5677 -0.2935  0.2641
 8380SOL    HW126039   5.202   0.666   3.157 -0.7098  0.1957  0.1997
 8380SOL    HW226040   5.152   0.587   3.291 -0.0242 -0.2874  0.1727
 8381SOL     OW26041   1.951   3.649   4.112 -0.2116 -0.4146 -0.1324
 8381SOL    HW126042   2.024   3.715   4.130  0.4227 -1.3617  0.8802
 8381SOL    HW226043   1.913   3.666   4.020  0.2521  1.0263 -0.0919
 8382SOL     OW26044   3.098   4.947   6.944  0.4636 -0.3593 -0.0556
 8382SOL    HW126045   3.171   4.931   7.012  0.9306 -0.0697 -0.4847
 8382SOL    HW226046   3.046   5.028   6.969 -0.9161 -1.5872  1.2730
 8383SOL     OW26047   2.573   0.520   4.836  0.4262  0.1343  0.0966
 8383SOL    HW126048   2.653   0.536   4.778 -0.5740  1.2978 -1.0161
 8383SOL    HW226049   2.520   0.604   4.844 -0.6129 -0.5745  0.9456
 8384SOL     OW26050   6.153   0.827   1.036 -0.3028 -0.1553  0.3834
 8384SOL    HW126051   6.234   0.825   0.977  0.1659  0.0839  1.0089
 8384SOL    HW226052   6.096   0.748   1.017 -0.0065 -0.2373 -0.1850
 8385SOL     OW26053   5.230   0.730   0.791 -0.4116 -0.6805  0.0419
 8385SOL    HW126054   5.221   0.632   0.809 -0.7233 -0.9327 -1.4175
 8385SOL    HW226055   5.294   0.745   0.716  1.3643  0.3888  1.6813
 8386SOL     OW26056   2.081   1.336   4.042  0.5304 -0.0224 -0.1820
 8386SOL    HW126057   2.135   1.316   3.960 -0.3747  0.4472 -0.9239
 8386SOL    HW226058   2.028   1.255   4.067 -0.4272  0.3039 -1.0579
 8387SOL     OW26059   0.684   1.519   2.833 -0.3751  0.8077 -0.4790
 8387SOL    HW126060   0.688   1.608   2.877  0.4896  0.3448  0.4326
 8387SOL    HW226061   0.757   1.513   2.765  0.5066  0.3101  0.4725
 8388SOL     OW26062   1.686   1.679   2.635 -0.0106  0.1734 -0.1895
 8388SOL    HW126063   1.705   1.581   2.639  1.4979  0.4817  1.6422
 8388SOL    HW226064   1.733   1.719   2.556  0.8790 -0.2980  0.0886
 8389SOL     OW26065   0.253   2.117   4.828 -0.5456  0.0625 -0.0548
 8389SOL    HW126066   0.269   2.198   4.884  2.6514 -0.6367  0.2254
 8389SOL    HW226067   0.247   2.143   4.731  1.2133  0.6054 -0.0413
 8390SOL     OW26068   0.152   1.582   6.029  0.1553 -0.2611 -1.3286
 8390SOL    HW126069   0.189   1.623   6.113  0.7002 -3.3679  0.1266
 8390SOL    HW226070   0.126   1.654   5.965  1.8293  2.2323  0.5733
 8391SOL     OW26071   6.316   0.617   0.691 -0.1421  0.6750 -0.4569
 8391SOL    HW126072   6.384   0.597   0.762  0.4977 -0.2949 -1.3059
 8391SOL    HW226073   6.314   0.542   0.625 -1.1915  1.2558 -1.1183
 8392SOL     OW26074   4.224   4.369   6.284 -0.1338  0.2335 -0.5097
 8392SOL    HW126075   4.291   4.309   6.240 -0.1165  1.7391 -2.7085
 8392SOL    HW226076   4.176   4.421   6.214 -1.8512  1.0238  1.1864
 8393SOL     OW26077   6.403   0.851   0.878 -0.4946 -0.5472  0.2506
 8393SOL    HW126078   6.338   0.864   0.803  2.4504  0.7673 -2.2534
 8393SOL    HW226079   6.430   0.754   0.883  0.1743 -0.4508 -1.2129
 8394SOL     OW26080   4.905   3.373   4.154 -0.0426  0.2252  0.3679
 8394SOL    HW126081   4.968   3.326   4.091  0.2621  1.5592 -0.3606
 8394SOL    HW226082   4.862   3.306   4.213 -0.7259 -1.1562 -1.5889
 8395SOL     OW26083   1.997   2.315   0.857  0.2400  0.4086  0.1916
 8395SOL    HW126084   1.911   2.347   0.897 -0.4108  1.3013 -1.7510
 8395SOL    HW226085   2.069   2.316   0.926 -0.6891  2.3224  1.2164
 8396SOL     OW26086   2.301   5.890   4.547 -0.7267  0.1490  0.5430
 8396SOL    HW126087   2.348   5.803   4.559 -1.1873 -0.3564 -1.1190
 8396SOL    HW226088   2.368   5.960   4.522 -0.5760 -0.1056  0.2246
 8397SOL     OW26089   5.996   5.386   3.146 -0.2436 -0.7747 -0.3711
 8397SOL    HW126090   5.920   5.431   3.194  0.0855 -0.2852 -0.3073
 8397SOL    HW226091   6.012   5.432   3.059 -0.8802 -1.6999 -0.9927
 8398SOL     OW26092   0.298   2.815   0.170 -0.3389 -0.1180 -0.7131
 8398SOL    HW126093   0.200   2.825   0.153 -0.3664 -0.4188 -0.7346
 8398SOL    HW226094   0.313   2.735   0.229 -0.3468  1.5236  1.6492
 8399SOL     OW26095   1.192   4.506   1.554 -0.4936  0.5208 -0.1061
 8399SOL    HW126096   1.234   4.535   1.468 -0.8203  0.0495 -0.4315
 8399SOL    HW226097   1.130   4.429   1.536  0.7567 -0.7648  0.7965
 8400SOL     OW26098   6.732   0.178   5.792 -0.2202 -0.9208 -0.1762
 8400SOL    HW126099   6.680   0.117   5.733  0.5317 -2.5660  0.7909
 8400SOL    HW226100   6.799   0.125   5.844 -0.6684  0.4849  1.9618
 8401SOL     OW26101   1.455   1.127   5.187  0.0419 -0.4333  0.0281
 8401SOL    HW126102   1.449   1.033   5.221 -1.1237 -0.2696  0.3361
 8401SOL    HW226103   1.541   1.139   5.138 -1.0316 -2.5490 -2.6410
 8402SOL     OW26104   1.953   1.085   4.028  0.0873  0.7185  0.4820
 8402SOL    HW126105   1.898   1.016   3.982  1.3481  0.7675 -1.1971
 8402SOL    HW226106   1.952   1.069   4.127  0.2642 -1.6173  0.1444
 8403SOL     OW26107   6.525   3.223   4.660  0.5352  0.2285 -0.3898
 8403SOL    HW126108   6.550   3.256   4.751  0.0656 -1.0976  0.2351
 8403SOL    HW226109   6.550   3.126   4.651  0.8343  0.4068 -1.7796
 8404SOL     OW26110   0.344   1.618   7.019  0.0715 -0.5894 -0.3955
 8404SOL    HW126111   0.416   1.548   7.013 -0.0067 -0.6655 -0.4444
 8404SOL    HW226112   0.378   1.696   7.072  0.8117  0.1377 -1.8773
 8405SOL     OW26113   4.248   5.597   6.103  0.2619  0.0074  0.0939
 8405SOL    HW126114   4.317   5.594   6.030  0.0496 -0.9248 -0.0904
 8405SOL    HW226115   4.278   5.659   6.175  1.3628 -0.4819  0.0807
 8406SOL     OW26116   6.220   0.377   4.382 -0.0462 -0.0596 -0.3569
 8406SOL    HW126117   6.306   0.342   4.420  0.3438  2.0372  0.8616
 8406SOL    HW226118   6.170   0.426   4.453 -1.2479  0.5689 -1.5982
 8407SOL     OW26119   5.478   1.831   5.777 -0.2326  0.3167  0.1130
 8407SOL    HW126120   5.560   1.805   5.827 -1.3243 -1.0452  1.2803
 8407SOL    HW226121   5.440   1.915   5.816 -1.0229 -0.6844  1.5838
 8408SOL     OW26122   4.582   2.439   0.373 -0.7503 -0.0573 -0.8545
 8408SOL    HW126123   4.599   2.528   0.330  2.2501 -0.7747 -1.3952
 8408SOL    HW226124   4.499   2.399   0.334 -0.2538  1.0118 -3.1767
 8409SOL     OW26125   5.176   1.865   2.838  0.0818 -0.4527 -0.3670
 8409SOL    HW126126   5.140   1.926   2.768  0.9693 -0.7424 -1.0955
 8409SOL    HW226127   5.213   1.783   2.795  0.9348 -0.4900  0.4068
 8410SOL     OW26128   0.170   1.078   1.075  0.5861  0.1293 -0.3743
 8410SOL    HW126129   0.124   1.161   1.107 -2.0869 -0.6085 -1.9559
 8410SOL    HW226130   0.227   1.101   0.996 -2.4295  0.2387 -2.7488
 8411SOL     OW26131   0.163   5.132   1.753 -0.6261 -0.2696 -0.3830
 8411SOL    HW126132   0.135   5.195   1.826 -0.4256  0.4188 -0.8890
 8411SOL    HW226133   0.151   5.177   1.665  0.5067 -0.5661 -0.6998
 8412SOL     OW26134   3.585   3.302   5.841  0.1885  0.5694 -0.4150
 8412SOL    HW126135   3.505   3.263   5.886 -1.2619  1.6689 -1.9143
 8412SOL    HW226136   3.606   3.251   5.758  0.9011  0.4431 -0.1679
 8413SOL     OW26137   3.568   0.653   5.514  0.1875 -0.6505  0.1316
 8413SOL    HW126138   3.621   0.643   5.430 -1.3949 -1.4407 -0.8261
 8413SOL    HW226139   3.484   0.704   5.495 -0.4396 -1.2670  1.1059
 8414SOL     OW26140   1.733   0.378   0.460  0.2816  0.2346 -0.5006
 8414SOL    HW126141   1.660   0.447   0.464 -0.2381 -0.3554  1.1064
 8414SOL    HW226142   1.744   0.336   0.550  1.2257 -1.1411 -1.2157
 8415SOL     OW26143   2.205   2.153   0.327  0.1088 -0.5366 -0.4651
 8415SOL    HW126144   2.266   2.155   0.248 -0.0188 -0.3422 -0.5570
 8415SOL    HW226145   2.233   2.079   0.388  1.3303  0.4633  0.2171
 8416SOL     OW26146   1.340   1.796   4.286  0.6231 -0.3312 -0.9634
 8416SOL    HW126147   1.334   1.738   4.205  1.0731  0.1622 -1.3568
 8416SOL    HW226148   1.407   1.869   4.270  1.7087 -1.0071  0.3518
 8417SOL     OW26149   2.517   3.617   0.222  0.2388 -0.0161  0.1601
 8417SOL    HW126150   2.566   3.702   0.242 -0.6609  0.6110 -0.2321
 8417SOL    HW226151   2.419   3.635   0.221  0.0730 -0.8958 -0.7427
 8418SOL     OW26152   6.490   0.119   1.838 -0.3014  0.1274 -0.0734
 8418SOL    HW126153   6.441   0.045   1.883  1.4415 -1.5976 -0.9029
 8418SOL    HW226154   6.585   0.092   1.820  0.6974  2.9080  0.4321
 8419SOL     OW26155   3.497   0.742   4.239  0.1188 -0.1437 -0.0031
 8419SOL    HW126156   3.449   0.668   4.192 -1.8653 -0.3131  2.0917
 8419SOL    HW226157   3.576   0.704   4.288 -0.4985 -0.7903  0.5172
 8420SOL     OW26158   3.382   1.365   1.291 -0.2860  0.1042  0.0284
 8420SOL    HW126159   3.325   1.430   1.341 -0.0215  0.3569  0.0077
 8420SOL    HW226160   3.361   1.369   1.194 -0.7054 -0.2892  0.1017
 8421SOL     OW26161   5.544   7.003   5.614  0.1592 -0.3525  0.0852
 8421SOL    HW126162   5.492   7.022   5.697  1.3103  0.1679  0.7178
 8421SOL    HW226163   5.575   6.908   5.615 -0.4454 -0.5532 -0.1092
 8422SOL     OW26164   4.591   0.900   4.989  0.2233  0.4626  0.0611
 8422SOL    HW126165   4.610   0.957   4.908 -0.0099 -0.3870 -0.6079
 8422SOL    HW226166   4.492   0.891   4.999  0.2596  0.2891  0.2481
 8423SOL     OW26167   5.843   4.930   1.794 -0.2449 -0.3366 -0.2726
 8423SOL    HW126168   5.842   5.022   1.834  3.3846 -0.4980  0.5375
 8423SOL    HW226169   5.803   4.865   1.859  0.0631  0.2496  0.5158
 8424SOL     OW26170   1.850   1.342   4.536  0.0644  0.5038  0.1187
 8424SOL    HW126171   1.780   1.271   4.542  0.5609  0.0442  0.4685
 8424SOL    HW226172   1.817   1.415   4.475 -0.9008  0.5020  0.6121
 8425SOL     OW26173   3.149   4.039   1.985  0.6409  0.1789 -0.1662
 8425SOL    HW126174   3.093   4.116   2.015  1.3465  0.6765 -0.1073
 8425SOL    HW226175   3.101   3.988   1.913  0.0463  0.4933  0.0027
 8426SOL     OW26176   3.764   3.142   2.037 -0.4268 -0.0075  0.2741
 8426SOL    HW126177   3.673   3.182   2.042  0.3200  1.7103  0.7672
 8426SOL    HW226178   3.775   3.073   2.109 -0.9415  0.6052  0.9410
 8427SOL     OW26179   3.466   2.983   3.172 -0.4977  0.6416 -0.2727
 8427SOL    HW126180   3.404   2.966   3.248  0.1409 -0.5612  0.0049
 8427SOL    HW226181   3.559   2.960   3.199 -0.4754 -1.4612 -1.9046
 8428SOL     OW26182   5.934   3.146   6.668 -0.1693  0.4765  0.3159
 8428SOL    HW126183   5.859   3.146   6.602 -0.3064  0.7649  0.4705
 8428SOL    HW226184   5.981   3.233   6.665 -0.0903  0.4407  0.5028
 8429SOL     OW26185   2.915   0.982   6.363 -0.1810 -1.0532  0.0106
 8429SOL    HW126186   2.841   1.048   6.373  0.6736  0.0641 -0.7508
 8429SOL    HW226187   2.880   0.897   6.323 -0.6587  0.3657 -2.8068
 8430SOL     OW26188   4.214   0.355   4.968 -0.4765  0.0314 -0.3701
 8430SOL    HW126189   4.153   0.276   4.963 -1.1410  0.3336  1.9250
 8430SOL    HW226190   4.299   0.328   5.013  0.3958  0.0485 -1.9321
 8431SOL     OW26191   0.494   1.350   5.177  0.0251  0.0965 -0.3253
 8431SOL    HW126192   0.554   1.429   5.181  0.3428 -0.1168 -0.7758
 8431SOL    HW226193   0.529   1.285   5.109 -0.1338 -0.5120  0.1707
 8432SOL     OW26194   0.123   4.808   5.121 -0.0002  0.5857 -0.0262
 8432SOL    HW126195   0.052   4.753   5.078 -0.6490  0.1672  1.4926
 8432SOL    HW226196   0.196   4.748   5.154 -0.6606  0.6078  1.5448
 8433SOL     OW26197   6.579   4.953   6.959  0.4470  0.7735 -0.2547
 8433SOL    HW126198   6.496   4.989   6.915  0.1579  1.2758  0.6816
 8433SOL    HW226199   6.582   4.984   7.054  0.7144 -0.8656  0.2951
 8434SOL     OW26200   2.548   4.936   5.001 -0.5674 -0.1992  0.3602
 8434SOL    HW126201   2.587   4.875   4.932 -0.6078  1.8321 -1.5710
 8434SOL    HW226202   2.449   4.942   4.988 -0.6123  0.0088  0.7831
 8435SOL     OW26203   6.726   2.166   3.801 -0.1615 -0.3295 -0.0618
 8435SOL    HW126204   6.709   2.240   3.866  0.2244 -1.0696  0.8942
 8435SOL    HW226205   6.764   2.204   3.716 -5.0598  1.3559 -1.9137
 8436SOL     OW26206   3.043   5.187   2.123 -0.0798 -0.0879  0.3086
 8436SOL    HW126207   3.031   5.284   2.104  1.7457  0.3652  1.1950
 8436SOL    HW226208   3.066   5.138   2.039  2.5995  0.9383  0.3421
 8437SOL     OW26209   2.155   5.591   0.697 -0.0825 -0.3841 -0.3483
 8437SOL    HW126210   2.062   5.561   0.718  0.1651 -0.8779  0.0611
 8437SOL    HW226211   2.178   5.668   0.756  0.8863 -2.2443  1.8660
 8438SOL     OW26212   2.425   5.154   0.841 -0.0627  0.2380 -0.1679
 8438SOL    HW126213   2.354   5.223   0.831  0.2642  0.6724  0.4628
 8438SOL    HW226214   2.484   5.154   0.760 -1.6203 -1.1175 -1.3648
 8439SOL     OW26215   6.638   5.599   2.645  0.0421  0.3533  0.2093
 8439SOL    HW126216   6.684   5.617   2.731  0.7846  0.1046 -0.1270
 8439SOL    HW226217   6.547   5.640   2.646 -0.0116  0.2179  1.1629
 8440SOL     OW26218   2.822   1.882   2.177  0.1069 -0.1390  0.0719
 8440SOL    HW126219   2.849   1.964   2.227  0.7003 -0.2804 -0.0111
 8440SOL    HW226220   2.822   1.901   2.079 -1.2613  0.1986  0.1207
 8441SOL     OW26221   0.316   3.304   4.785 -0.3539 -0.2294 -0.3183
 8441SOL    HW126222   0.251   3.303   4.861 -2.0694  0.0153 -1.7398
 8441SOL    HW226223   0.368   3.390   4.787 -1.0875  0.2137  0.0055
 8442SOL     OW26224   4.288   2.703   0.970  0.2509 -0.6533  0.7733
 8442SOL    HW126225   4.277   2.750   1.058  2.4498 -1.3689  1.4933
 8442SOL    HW226226   4.347   2.624   0.982  4.3949  1.6265 -2.0787
 8443SOL     OW26227   2.861   5.083   4.803 -0.2381 -0.4619 -0.5024
 8443SOL    HW126228   2.890   5.001   4.851 -0.4784  0.5037  1.3781
 8443SOL    HW226229   2.817   5.146   4.867  0.1824  1.2638 -1.8230
 8444SOL     OW26230   4.274   6.827   4.695 -0.2991 -0.4060  0.0041
 8444SOL    HW126231   4.209   6.844   4.769  0.0762  1.1197  0.0157
 8444SOL    HW226232   4.224   6.801   4.612 -0.8348 -0.4678  0.3397
 8445SOL     OW26233   0.601   5.077   0.470 -0.2028 -0.0315  0.0907
 8445SOL    HW126234   0.638   5.041   0.384  0.7947  0.6402  0.2157
 8445SOL    HW226235   0.532   5.147   0.449  0.5247  0.6191 -0.1871
 8446SOL     OW26236   5.082   6.346   4.553  0.3955  0.5221  0.3105
 8446SOL    HW126237   5.119   6.292   4.478 -0.4453 -0.0259  0.2732
 8446SOL    HW226238   5.146   6.420   4.576  1.2261 -0.0484 -0.1157
 8447SOL     OW26239   2.108   2.081   4.519 -0.3074  0.4446 -0.3088
 8447SOL    HW126240   2.025   2.124   4.555 -1.3631 -1.0613 -0.8410
 8447SOL    HW226241   2.169   2.057   4.594 -0.1324  1.9433  0.0576
 8448SOL     OW26242   3.833   5.804   1.513  0.0326  0.0727 -0.0932
 8448SOL    HW126243   3.736   5.788   1.498 -0.3778  0.4347  1.8399
 8448SOL    HW226244   3.859   5.893   1.476 -0.6213  0.4142  0.2570
 8449SOL     OW26245   6.970   3.030   3.311  0.6674  0.4933  0.2936
 8449SOL    HW126246   7.009   3.061   3.224  0.8624  2.5098  1.0425
 8449SOL    HW226247   6.882   2.985   3.295  1.3214 -0.3653 -1.0381
 8450SOL     OW26248   6.112   1.720   0.573  0.3550  0.4404  0.0445
 8450SOL    HW126249   6.203   1.710   0.534  0.4483 -0.3505  0.4384
 8450SOL    HW226250   6.110   1.800   0.634  0.1355  1.8330 -1.7069
 8451SOL     OW26251   3.980   2.572   1.045  0.2172  0.1297  0.4698
 8451SOL    HW126252   3.922   2.607   0.971  0.4371 -0.7098 -0.1175
 8451SOL    HW226253   3.950   2.611   1.132 -1.2727 -0.3323  0.1962
 8452SOL     OW26254   4.040   6.734   6.200  0.2023 -0.5702  0.6375
 8452SOL    HW126255   3.976   6.657   6.202  0.2711 -0.6191  0.9428
 8452SOL    HW226256   4.127   6.705   6.160 -0.4510 -0.1326 -1.2086
 8453SOL     OW26257   0.466   5.809   6.621 -0.5137 -0.2254  0.1277
 8453SOL    HW126258   0.485   5.818   6.718 -2.4910 -3.0980  0.8859
 8453SOL    HW226259   0.553   5.809   6.570  0.7041 -0.8843  2.1118
 8454SOL     OW26260   0.451   5.215   1.239  0.6548 -0.2704  0.4457
 8454SOL    HW126261   0.463   5.116   1.246  0.7501 -0.3633 -0.8884
 8454SOL    HW226262   0.386   5.236   1.166  0.7454  0.6611  0.6183
 8455SOL     OW26263   6.189   1.081   4.385  0.6309  0.3345  0.3213
 8455SOL    HW126264   6.133   1.132   4.320  0.3427 -1.4106 -0.8620
 8455SOL    HW226265   6.132   1.054   4.463 -0.3367 -1.5947 -0.9613
 8456SOL     OW26266   5.705   0.065   2.019  0.0053  0.7810  0.3088
 8456SOL    HW126267   5.690   0.161   2.041 -2.2742  1.1973 -2.4703
 8456SOL    HW226268   5.616   0.018   2.016  0.7481 -0.6125 -1.4941
 8457SOL     OW26269   6.190   0.750   4.920  0.2966 -0.2355  0.0953
 8457SOL    HW126270   6.268   0.730   4.860 -0.8004  0.2042 -1.5320
 8457SOL    HW226271   6.105   0.724   4.874 -0.5998  0.2775  1.4160
 8458SOL     OW26272   1.965   6.889   1.143  0.3430  0.0178 -0.4359
 8458SOL    HW126273   1.877   6.936   1.147  0.3351  0.0629 -1.0637
 8458SOL    HW226274   1.992   6.878   1.048  1.4431  0.7788 -0.2202
 8459SOL     OW26275   0.561   1.077   3.451  0.5986  0.3288  0.7533
 8459SOL    HW126276   0.464   1.085   3.431  0.4894  0.1487  1.2173
 8459SOL    HW226277   0.591   0.984   3.433  1.0598  0.7787 -1.0200
 8460SOL     OW26278   3.264   3.300   4.184 -0.3552  0.2832 -0.3849
 8460SOL    HW126279   3.221   3.360   4.116 -0.6589  2.4300  1.5546
 8460SOL    HW226280   3.342   3.253   4.142 -0.4158  1.6416 -2.1668
 8461SOL     OW26281   0.921   3.478   4.182 -0.2201 -0.2810  0.2409
 8461SOL    HW126282   0.962   3.392   4.151 -1.7312 -1.3868  1.1603
 8461SOL    HW226283   0.986   3.527   4.239  1.1137 -0.1842 -1.2749
 8462SOL     OW26284   3.663   2.097   1.340 -0.4098 -0.0720  0.0981
 8462SOL    HW126285   3.606   2.062   1.266 -0.5423 -0.2003  0.2619
 8462SOL    HW226286   3.635   2.056   1.427  1.1977 -1.6656 -0.0715
 8463SOL     OW26287   5.625   0.112   0.338  0.4611  0.1423  0.6236
 8463SOL    HW126288   5.585   0.203   0.326  0.2203 -0.3080 -3.0298
 8463SOL    HW226289   5.551   0.045   0.349  0.6098  0.2238  2.3623
 8464SOL     OW26290   0.699   0.035   6.076 -0.6342  0.8665  0.4045
 8464SOL    HW126291   0.702   0.083   5.989 -1.1622  1.6454  0.8043
 8464SOL    HW226292   0.699   0.101   6.151 -1.6575  0.2519  0.9678
 8465SOL     OW26293   1.381   1.039   6.771 -0.4303 -0.2235 -0.4709
 8465SOL    HW126294   1.371   1.138   6.767 -1.3156 -0.1946  1.4005
 8465SOL    HW226295   1.374   1.001   6.679 -0.9465  1.3542 -1.1198
 8466SOL     OW26296   6.622   0.176   3.424  0.0910  0.5133  0.2832
 8466SOL    HW126297   6.714   0.201   3.393  0.2872  0.2445  0.6402
 8466SOL    HW226298   6.599   0.228   3.506  0.6406 -0.6938  1.2326
 8467SOL     OW26299   4.767   3.900   6.380  0.2174  0.1880  0.3713
 8467SOL    HW126300   4.823   3.982   6.389 -0.3375  0.8110 -1.4379
 8467SOL    HW226301   4.772   3.865   6.287  0.2189 -1.7082  1.0280
 8468SOL     OW26302   5.463   3.490   6.023  0.6198 -0.0693  0.3967
 8468SOL    HW126303   5.389   3.466   5.961  0.2235 -0.7085  1.1056
 8468SOL    HW226304   5.510   3.571   5.989 -0.3298  0.2738 -0.1175
 8469SOL     OW26305   5.618   3.277   4.613 -0.0377  0.1079  0.3233
 8469SOL    HW126306   5.645   3.181   4.606 -0.1039  0.1517 -0.8773
 8469SOL    HW226307   5.699   3.335   4.616  0.0360  0.0983 -0.8128
 8470SOL     OW26308   3.337   4.911   6.753  0.4602  0.0214  1.3146
 8470SOL    HW126309   3.244   4.912   6.790  0.2798 -2.0300  1.0335
 8470SOL    HW226310   3.371   4.817   6.750  2.4703  0.7033  1.1867
 8471SOL     OW26311   3.074   3.125   5.504 -0.2286  0.0397  0.0501
 8471SOL    HW126312   3.014   3.151   5.580 -1.6269 -0.9035 -0.6900
 8471SOL    HW226313   3.022   3.128   5.418  0.9363 -0.2884 -0.6846
 8472SOL     OW26314   6.194   0.039   3.975 -0.4618 -0.3382 -0.2505
 8472SOL    HW126315   6.224   0.113   3.914  0.8866 -0.6747 -0.0375
 8472SOL    HW226316   6.167   0.078   4.063  0.3291 -0.0922 -0.1096
 8473SOL     OW26317   1.370   4.610   5.135  0.4551 -0.4232 -0.0992
 8473SOL    HW126318   1.416   4.663   5.207 -1.4013  0.4970  0.4743
 8473SOL    HW226319   1.297   4.556   5.176  1.7847 -2.8829 -0.8008
 8474SOL     OW26320   2.323   5.526   6.077 -0.4377 -0.1085  0.4173
 8474SOL    HW126321   2.374   5.488   6.000 -0.2182 -0.8306  0.9010
 8474SOL    HW226322   2.377   5.596   6.122 -0.5860  0.3490 -0.1120
 8475SOL     OW26323   4.897   1.010   3.611 -0.4527 -0.0312  0.1604
 8475SOL    HW126324   4.848   0.943   3.667 -0.3551 -1.0082 -0.8808
 8475SOL    HW226325   4.883   0.989   3.514  0.2568  0.9717 -0.1768
 8476SOL     OW26326   0.629   0.592   3.957 -0.5510  0.3097  0.2067
 8476SOL    HW126327   0.565   0.592   3.880  0.7843 -0.9766 -0.9938
 8476SOL    HW226328   0.701   0.659   3.941 -0.4342  0.2548  0.4894
 8477SOL     OW26329   0.717   0.019   2.822  0.2749  0.5307  1.0968
 8477SOL    HW126330   0.811  -0.014   2.811  0.1539  0.2134  0.9872
 8477SOL    HW226331   0.700   0.041   2.918 -0.8218 -3.5106  2.0333
 8478SOL     OW26332   1.245   4.813   0.556 -0.2549  0.0167 -0.3983
 8478SOL    HW126333   1.299   4.889   0.595 -2.6945  1.3213  0.6334
 8478SOL    HW226334   1.287   4.726   0.582  0.8128  0.9524  1.2249
 8479SOL     OW26335   5.279   1.277   1.886  0.2365  0.3878 -0.1213
 8479SOL    HW126336   5.315   1.193   1.846  2.0426  0.2030  1.7079
 8479SOL    HW226337   5.322   1.292   1.975 -3.1596  1.0141  1.5684
 8480SOL     OW26338   1.994   0.884   2.561  0.1314  0.4136  0.4012
 8480SOL    HW126339   1.974   0.860   2.466  1.2946 -1.5332  0.5974
 8480SOL    HW226340   1.937   0.829   2.622  1.7218 -0.8408  0.8417
 8481SOL     OW26341   4.406   6.056   3.720 -0.1969 -0.1427 -0.6327
 8481SOL    HW126342   4.395   6.136   3.778  1.6662  0.0703 -0.5188
 8481SOL    HW226343   4.458   5.986   3.769 -0.8486 -0.9971 -1.1287
 8482SOL     OW26344   3.628   0.808   1.819  0.4302  0.6521 -0.1872
 8482SOL    HW126345   3.703   0.766   1.871 -0.3463  1.1358  1.4114
 8482SOL    HW226346   3.545   0.753   1.831  0.0941  1.1075 -0.4078
 8483SOL     OW26347   5.488   6.873   2.628 -0.0972  0.4527 -0.1324
 8483SOL    HW126348   5.532   6.919   2.552  3.3291  0.5815  1.7231
 8483SOL    HW226349   5.558   6.838   2.691 -2.6583  1.1587  3.4333
 8484SOL     OW26350   0.789   4.402   0.698 -0.2011 -0.4071  0.0199
 8484SOL    HW126351   0.738   4.477   0.742  2.1934  0.6898  1.1580
 8484SOL    HW226352   0.855   4.441   0.634  0.0104 -1.6950 -0.5668
 8485SOL     OW26353   2.527   3.214   5.735 -0.3075  0.4045 -0.0053
 8485SOL    HW126354   2.429   3.225   5.723 -0.3639  0.2138  0.2670
 8485SOL    HW226355   2.545   3.170   5.823 -0.0330 -0.6991 -0.6016
 8486SOL     OW26356   3.445   6.212   1.560  0.4387  0.5872 -0.2907
 8486SOL    HW126357   3.369   6.151   1.537  1.6208 -0.8365 -0.6111
 8486SOL    HW226358   3.503   6.224   1.480  2.1371 -0.7552  0.6634
 8487SOL     OW26359   4.191   0.287   1.883  0.5396 -0.2863  0.1933
 8487SOL    HW126360   4.183   0.206   1.825 -0.7200 -1.1645  1.4987
 8487SOL    HW226361   4.285   0.319   1.884  0.7357 -0.6968 -1.6880
 8488SOL     OW26362   1.360   4.860   5.481 -1.0037  0.1524 -0.0816
 8488SOL    HW126363   1.422   4.788   5.513 -0.5185  1.3353  1.7696
 8488SOL    HW226364   1.384   4.883   5.386  0.5244 -0.3524  0.1395
 8489SOL     OW26365   2.433   0.243   1.455 -0.0361  0.1687 -0.5147
 8489SOL    HW126366   2.367   0.314   1.479 -1.2898 -0.8410 -0.8913
 8489SOL    HW226367   2.498   0.231   1.531 -1.1863  0.1519  0.4939
 8490SOL     OW26368   5.164   6.896   1.758 -0.2954 -0.0161  0.2998
 8490SOL    HW126369   5.155   6.983   1.805 -1.2103  0.3845 -0.5893
 8490SOL    HW226370   5.075   6.866   1.724 -0.0001 -1.3080  0.6028
 8491SOL     OW26371   6.733   1.498   0.171  0.0165  0.5114  0.3674
 8491SOL    HW126372   6.726   1.444   0.087  1.9152  1.0732 -0.2085
 8491SOL    HW226373   6.804   1.460   0.230 -1.1493  0.2599  1.6331
 8492SOL     OW26374   6.700   5.113   6.391  0.0249  0.1278  0.5606
 8492SOL    HW126375   6.643   5.091   6.312  0.4478 -1.6806  0.7147
 8492SOL    HW226376   6.796   5.097   6.369  0.2421  0.6248  1.1220
 8493SOL     OW26377   3.943   4.348   6.512  0.1482  0.3840  0.0821
 8493SOL    HW126378   3.978   4.437   6.541 -0.0554  0.5049 -0.0415
 8493SOL    HW226379   3.968   4.279   6.580  0.6126  0.4707  0.0007
 8494SOL     OW26380   2.167   6.022   5.609 -0.2115 -0.0595  0.1537
 8494SOL    HW126381   2.135   6.101   5.559  0.4520  0.4397  0.4942
 8494SOL    HW226382   2.110   5.942   5.587  0.0803  0.1302 -1.4083
 8495SOL     OW26383   0.596   2.434   5.947 -0.6412 -0.3069  0.4696
 8495SOL    HW126384   0.668   2.398   6.007 -1.7781 -2.4869  0.6351
 8495SOL    HW226385   0.629   2.434   5.852  0.0744  0.1264  0.7080
 8496SOL     OW26386   2.223   3.004   3.702  0.0168 -0.2671  0.0321
 8496SOL    HW126387   2.233   3.042   3.794  2.0310 -3.1153  1.1263
 8496SOL    HW226388   2.141   2.948   3.697 -0.8426  0.9891 -0.3864
 8497SOL     OW26389   6.089   2.236   6.016 -0.1388 -0.0838  0.0801
 8497SOL    HW126390   6.099   2.233   5.917  1.8558  3.5531  0.0055
 8497SOL    HW226391   6.164   2.186   6.059  1.9325  2.3950 -0.4030
 8498SOL     OW26392   0.672   5.847   2.380  0.1642 -0.4150 -0.2587
 8498SOL    HW126393   0.741   5.776   2.398  0.2846 -0.1522  0.3549
 8498SOL    HW226394   0.621   5.824   2.298  0.6860 -0.8468 -0.4665
 8499SOL     OW26395   2.358   3.314   0.010  0.3880  0.1637 -0.2239
 8499SOL    HW126396   2.314   3.273  -0.070  1.4930 -0.7924 -0.3733
 8499SOL    HW226397   2.331   3.410   0.018 -0.4107  0.0390 -1.2328
 8500SOL     OW26398   2.015   5.217   4.423  0.4991 -0.4876 -0.2303
 8500SOL    HW126399   2.069   5.165   4.356  0.1169  0.7362 -1.5280
 8500SOL    HW226400   1.924   5.176   4.431  0.2265 -0.0842 -1.1850
 8501SOL     OW26401   2.377   3.596   5.644  0.2697  0.1004 -0.6161
 8501SOL    HW126402   2.473   3.615   5.624  0.5791 -1.9496 -1.2983
 8501SOL    HW226403   2.371   3.548   5.732 -0.0941 -0.0995 -0.7503
 8502SOL     OW26404   6.341   1.003   3.370  0.6884 -0.0504  0.3266
 8502SOL    HW126405   6.397   0.934   3.414  0.4466  1.0644  2.5417
 8502SOL    HW226406   6.400   1.074   3.331  0.9238  0.8245  2.1461
 8503SOL     OW26407   5.329   5.390   3.575 -0.0613  0.2488 -0.0457
 8503SOL    HW126408   5.283   5.342   3.500 -0.8937  0.1117  0.5326
 8503SOL    HW226409   5.292   5.482   3.582 -1.1608 -0.2468  1.1810
 8504SOL     OW26410   3.050   5.966   1.427  0.0686  0.2336 -0.5224
 8504SOL    HW126411   2.986   6.018   1.370  1.1143  0.1878 -1.7807
 8504SOL    HW226412   3.028   5.869   1.422 -2.4794  0.4622  2.5660
 8505SOL     OW26413   4.067   1.603   2.135  0.7933  0.5289 -0.1106
 8505SOL    HW126414   4.143   1.666   2.119  0.3950  0.7880 -1.0017
 8505SOL    HW226415   4.030   1.619   2.227  0.5272  1.7901 -0.4183
 8506SOL     OW26416   0.086   5.759   1.239 -0.0024  0.4839  0.0196
 8506SOL    HW126417   0.109   5.663   1.255  0.7055  0.7728  0.7615
 8506SOL    HW226418   0.103   5.812   1.322 -1.8735  1.0008  0.1208
 8507SOL     OW26419   1.617   6.738   3.546  0.3461 -0.2885  0.1749
 8507SOL    HW126420   1.522   6.761   3.524  0.6762 -0.0825 -1.1240
 8507SOL    HW226421   1.676   6.760   3.468  1.3483 -1.1902  0.6395
 8508SOL     OW26422   2.055   2.983   0.101  0.6845 -0.8315 -0.1217
 8508SOL    HW126423   2.015   3.045   0.035  0.3941  0.0709  0.8761
 8508SOL    HW226424   1.993   2.971   0.178  1.2080 -1.5015  0.2116
 8509SOL     OW26425   6.966   4.253   4.858 -0.3872  0.2199  0.0354
 8509SOL    HW126426   7.038   4.296   4.804  0.1949  2.8179  2.6966
 8509SOL    HW226427   6.891   4.317   4.872 -0.9086 -0.6690  1.5999
 8510SOL     OW26428   2.412   1.598   1.845  0.2883  0.6276 -0.9477
 8510SOL    HW126429   2.500   1.550   1.848  0.0761  0.2604  1.4707
 8510SOL    HW226430   2.367   1.580   1.758  1.0871 -2.0111 -0.8848
 8511SOL     OW26431   0.039   3.815   0.559  0.4953 -0.0340 -0.2106
 8511SOL    HW126432   0.124   3.774   0.526  0.2056  0.3478 -1.4918
 8511SOL    HW226433   0.041   3.914   0.540 -0.3886 -0.0856 -0.6136
 8512SOL     OW26434   3.540   3.001   1.396 -0.0951 -0.3067  0.2880
 8512SOL    HW126435   3.502   2.933   1.333  0.5898 -1.7862  1.4038
 8512SOL    HW226436   3.541   3.090   1.352 -1.0698 -0.9928 -1.2181
 8513SOL     OW26437   0.029   4.320   1.790 -0.5267  0.0229 -0.0306
 8513SOL    HW126438  -0.037   4.245   1.793 -1.9948  1.2878  1.0687
 8513SOL    HW226439   0.078   4.318   1.704 -2.1596 -0.8655 -0.9869
 8514SOL     OW26440   1.206   3.451   4.517 -0.1340  0.5318  0.2782
 8514SOL    HW126441   1.196   3.352   4.526 -1.0467  0.5664 -0.2598
 8514SOL    HW226442   1.120   3.496   4.540  0.1276  1.1653  0.0542
 8515SOL     OW26443   1.894   1.214   6.931  0.2482 -0.0366 -0.4057
 8515SOL    HW126444   1.910   1.135   6.990  1.6424  0.1778 -0.4719
 8515SOL    HW226445   1.884   1.184   6.836  3.2700  0.0085 -0.8158
 8516SOL     OW26446   1.657   3.322   5.301 -0.3031  0.0107  0.3601
 8516SOL    HW126447   1.688   3.232   5.272  0.6984  0.9353 -1.5912
 8516SOL    HW226448   1.570   3.344   5.257  0.6294  0.9249 -1.1228
 8517SOL     OW26449   1.558   2.861   5.406 -0.1268  0.0181  0.7932
 8517SOL    HW126450   1.466   2.879   5.439  0.1177  0.8799  1.0307
 8517SOL    HW226451   1.615   2.943   5.419  0.1686  0.1495 -1.0656
 8518SOL     OW26452   6.689   5.120   6.667  0.0653 -0.5150  0.0163
 8518SOL    HW126453   6.677   5.127   6.568  0.2537 -0.9820 -0.0470
 8518SOL    HW226454   6.629   5.049   6.702 -0.6529  0.2607  0.3753
 8519SOL     OW26455   2.444   2.832   0.643 -0.4547 -0.0672  0.0518
 8519SOL    HW126456   2.499   2.857   0.723 -0.3523  0.5164 -0.1975
 8519SOL    HW226457   2.348   2.827   0.670 -0.1457 -2.9522  0.9427
 8520SOL     OW26458   2.666   4.542   5.341  0.3229  0.1630 -0.4002
 8520SOL    HW126459   2.641   4.634   5.371 -1.3731  0.4013 -2.3213
 8520SOL    HW226460   2.752   4.545   5.290  0.8882  0.4559  0.5457
 8521SOL     OW26461   6.448   5.691   4.255 -0.4047  0.5831 -0.3125
 8521SOL    HW126462   6.364   5.639   4.239 -1.9098  1.9738  2.3937
 8521SOL    HW226463   6.499   5.650   4.331  0.8584  0.3569 -1.2553
 8522SOL     OW26464   1.296   5.793   2.033  0.3720  0.0167  0.1577
 8522SOL    HW126465   1.302   5.868   1.968 -1.4775  0.1977  0.1426
 8522SOL    HW226466   1.301   5.829   2.126  1.1708 -0.0352  0.1361
 8523SOL     OW26467   4.402   2.247   3.329  0.6499 -0.0549 -0.8772
 8523SOL    HW126468   4.310   2.280   3.309  0.8004  2.5103  1.8946
 8523SOL    HW226469   4.396   2.163   3.383 -0.1414  0.5436 -0.0036
 8524SOL     OW26470   6.975   6.356   5.498  0.0589 -0.0753  0.5351
 8524SOL    HW126471   6.928   6.294   5.435  0.0881  1.0059 -0.5888
 8524SOL    HW226472   7.027   6.424   5.445  0.2197  0.7685  1.7368
 8525SOL     OW26473   5.580   2.128   4.999  0.5921 -0.1197 -0.6886
 8525SOL    HW126474   5.515   2.051   4.997 -0.1864  0.4840  0.0835
 8525SOL    HW226475   5.657   2.104   5.059 -0.1979  0.0827  0.4585
 8526SOL     OW26476   0.489   5.441   4.316 -0.3544  0.2614 -0.2718
 8526SOL    HW126477   0.543   5.524   4.332  1.1769 -0.9741  1.2739
 8526SOL    HW226478   0.398   5.454   4.356  0.4100  0.6242  1.4348
 8527SOL     OW26479   2.059   1.413   7.003 -0.2132 -0.5355  0.2523
 8527SOL    HW126480   2.010   1.499   7.007 -1.4439 -1.2566  1.4571
 8527SOL    HW226481   2.000   1.341   6.966  0.7348 -0.9296 -0.5722
 8528SOL     OW26482   5.338   1.667   0.355  0.1885 -0.3576  0.3772
 8528SOL    HW126483   5.344   1.707   0.446 -0.5923 -1.4716  0.9448
 8528SOL    HW226484   5.259   1.606   0.350 -0.9399  1.1815 -1.6712
 8529SOL     OW26485   0.438   5.824   0.078  0.2644  0.3056 -0.0751
 8529SOL    HW126486   0.494   5.902   0.104  1.4710  0.2084 -2.1820
 8529SOL    HW226487   0.443   5.810  -0.021 -0.1678 -2.2459  0.1827
 8530SOL     OW26488   2.977   3.760   2.689  0.3470 -0.1997 -0.4697
 8530SOL    HW126489   2.997   3.780   2.594 -0.5298 -0.7962 -0.7936
 8530SOL    HW226490   2.932   3.670   2.696 -1.2379  0.6103  0.2938
 8531SOL     OW26491   0.122   5.564   3.656 -0.2762 -0.0549  0.1707
 8531SOL    HW126492   0.205   5.582   3.710  0.7019  0.9188 -1.5776
 8531SOL    HW226493   0.147   5.513   3.573 -1.2805  0.9687 -0.7931
 8532SOL     OW26494   4.433   6.512   6.832 -0.2664  0.1522  0.1055
 8532SOL    HW126495   4.509   6.462   6.789  0.4231  1.0668  0.2364
 8532SOL    HW226496   4.360   6.447   6.855 -0.1183 -0.5482 -1.2648
 8533SOL     OW26497   2.915   1.338   6.217 -0.0419 -0.4681  0.1206
 8533SOL    HW126498   2.851   1.269   6.251  0.4600  0.1105  2.3840
 8533SOL    HW226499   2.863   1.416   6.181 -0.6427 -0.3896  1.1135
 8534SOL     OW26500   1.008   3.323   3.281 -0.1447 -0.6343  0.4306
 8534SOL    HW126501   0.931   3.386   3.285  0.6862  0.5503 -1.2772
 8534SOL    HW226502   0.978   3.236   3.241 -0.5566 -0.1091 -0.4241
 8535SOL     OW26503   6.694   0.497   1.057 -0.2070 -0.2058  0.3564
 8535SOL    HW126504   6.767   0.564   1.069  0.3097 -0.7203  0.1161
 8535SOL    HW226505   6.638   0.492   1.140 -0.9258  1.3065 -0.0011
 8536SOL     OW26506   1.727   0.100   1.998 -0.3151 -0.7589 -0.1874
 8536SOL    HW126507   1.641   0.067   1.960  0.3209 -1.6037 -0.9439
 8536SOL    HW226508   1.723   0.199   2.009 -0.7489 -0.5366 -1.9608
 8537SOL     OW26509   6.314   1.574   2.985 -0.0084 -0.2026  0.4538
 8537SOL    HW126510   6.362   1.606   2.903  1.1109 -1.3547  0.6397
 8537SOL    HW226511   6.248   1.644   3.013  0.7817  0.9513 -0.4351
 8538SOL     OW26512   1.210   3.802   0.480 -0.2603  0.3779 -0.2314
 8538SOL    HW126513   1.112   3.799   0.461  0.0062 -1.2470 -1.5769
 8538SOL    HW226514   1.225   3.800   0.579 -1.5786  0.9933 -0.0053
 8539SOL     OW26515   6.718   2.916   6.870  0.7970  0.1137 -0.7038
 8539SOL    HW126516   6.661   2.834   6.875  0.4116  0.3663 -0.9084
 8539SOL    HW226517   6.768   2.927   6.956  1.7378 -0.9709 -1.0872
 8540SOL     OW26518   5.769   6.914   6.704  0.4403  0.0604 -0.0065
 8540SOL    HW126519   5.800   6.884   6.794  0.4277  4.0690  1.5797
 8540SOL    HW226520   5.839   6.972   6.662 -1.4258  2.4334 -0.1187
 8541SOL     OW26521   0.556   2.942   2.785 -0.6083 -0.0845 -0.0769
 8541SOL    HW126522   0.620   2.914   2.857  0.5941 -0.4074 -1.2162
 8541SOL    HW226523   0.598   3.014   2.729 -1.2538 -0.2757 -0.8271
 8542SOL     OW26524   2.056   3.635   6.179  0.8023  0.4454  0.2303
 8542SOL    HW126525   2.032   3.715   6.234 -0.9340 -0.1864  0.4793
 8542SOL    HW226526   2.116   3.662   6.104  1.8981  1.6039  1.4711
 8543SOL     OW26527   4.326   2.338   4.807  0.0909 -0.3739  0.1647
 8543SOL    HW126528   4.237   2.313   4.843 -0.1817 -0.0962 -0.2974
 8543SOL    HW226529   4.362   2.417   4.858  0.4147 -0.9509  0.8392
 8544SOL     OW26530   6.218   1.661   6.007  0.3711 -0.2337 -0.7918
 8544SOL    HW126531   6.249   1.749   6.044 -0.2184 -0.4994  0.3807
 8544SOL    HW226532   6.247   1.653   5.911 -0.1869  1.5424 -1.1534
 8545SOL     OW26533   5.742   0.168   5.194 -0.5913 -0.2171 -0.5337
 8545SOL    HW126534   5.749   0.145   5.291 -0.9944 -0.4313 -0.5536
 8545SOL    HW226535   5.673   0.111   5.150 -1.8987  1.2485 -0.4975
 8546SOL     OW26536   4.897   0.956   5.035 -0.4604 -0.2627 -0.1121
 8546SOL    HW126537   4.798   0.950   5.028 -0.3932 -0.0630 -1.2906
 8546SOL    HW226538   4.929   1.041   4.993  0.3992 -1.4152 -1.8935
 8547SOL     OW26539   1.124   6.884   2.387 -0.2256  0.4336 -0.6747
 8547SOL    HW126540   1.214   6.868   2.428  0.3240  0.2183 -1.9385
 8547SOL    HW226541   1.132   6.888   2.288 -1.0625  3.9566 -0.7054
 8548SOL     OW26542   5.629   1.413   6.919  0.0018 -0.4048  0.5059
 8548SOL    HW126543   5.541   1.454   6.947 -0.4415 -0.6521 -0.4835
 8548SOL    HW226544   5.697   1.485   6.907 -0.4298 -0.0720  0.0153
 8549SOL     OW26545   5.680   2.121   6.743  0.0716  0.0680 -0.2185
 8549SOL    HW126546   5.710   2.132   6.838  0.4289  0.3429 -0.3648
 8549SOL    HW226547   5.632   2.033   6.734  2.2025 -1.1524 -0.3230
 8550SOL     OW26548   0.216   5.149   4.622  0.2653 -0.6416  0.3376
 8550SOL    HW126549   0.128   5.190   4.644  0.5891  0.2572  0.0102
 8550SOL    HW226550   0.231   5.068   4.679 -1.9581 -2.4396 -1.4207
 8551SOL     OW26551   4.584   5.624   5.882 -0.0970  0.7143 -0.1789
 8551SOL    HW126552   4.503   5.683   5.880  0.5435  1.6060 -1.1932
 8551SOL    HW226553   4.583   5.564   5.802 -0.1100  0.2452  0.1749
 8552SOL     OW26554   2.611   5.767   2.405  0.1492 -0.0463 -0.7385
 8552SOL    HW126555   2.654   5.842   2.355  1.3228 -0.9723 -1.1720
 8552SOL    HW226556   2.519   5.750   2.370  0.3800  0.3245 -1.5342
 8553SOL     OW26557   5.745   6.821   0.558 -0.0795  0.5241 -0.3935
 8553SOL    HW126558   5.735   6.780   0.467 -0.7364  0.5747 -0.3490
 8553SOL    HW226559   5.743   6.920   0.550  0.8630  0.5451 -0.4295
 8554SOL     OW26560   4.455   3.525   6.236 -0.1279  0.3945  0.5008
 8554SOL    HW126561   4.409   3.498   6.321 -0.5915  1.0006  0.4528
 8554SOL    HW226562   4.553   3.505   6.243 -0.2518 -0.0982  0.9485
 8555SOL     OW26563   1.282   6.524   3.704 -0.1602  0.3351  0.2363
 8555SOL    HW126564   1.193   6.570   3.704  0.4681  1.6122 -0.7104
 8555SOL    HW226565   1.315   6.518   3.798 -1.5467 -0.8230  0.6924
 8556SOL     OW26566   5.574   0.159   4.902 -0.5839 -0.5736  0.4673
 8556SOL    HW126567   5.590   0.232   4.835  1.7769 -0.6718  0.8230
 8556SOL    HW226568   5.528   0.082   4.857  2.1257 -1.2112 -1.5162
 8557SOL     OW26569   6.493   5.824   2.356 -0.4079  0.0623  0.4503
 8557SOL    HW126570   6.475   5.744   2.413 -1.3940 -0.5246 -0.6531
 8557SOL    HW226571   6.574   5.807   2.300 -0.2664  0.0841  0.6459
 8558SOL     OW26572   2.096   3.117   2.218 -0.3441  0.3318  0.5452
 8558SOL    HW126573   2.106   3.173   2.300  1.6969  1.1622 -0.2039
 8558SOL    HW226574   2.148   3.033   2.228  0.1597  0.5686  0.0232
 8559SOL     OW26575   0.343   2.038   3.981 -0.7591 -0.4663 -0.7086
 8559SOL    HW126576   0.306   2.130   3.964 -1.8933 -1.0783 -1.6630
 8559SOL    HW226577   0.273   1.983   4.027  0.2243 -0.6065  0.6696
 8560SOL     OW26578   0.687   2.332   5.692  0.5534 -0.6888  0.5036
 8560SOL    HW126579   0.766   2.373   5.646  0.3304  0.5448  1.1719
 8560SOL    HW226580   0.612   2.323   5.627  0.8381 -0.6934  0.1730
 8561SOL     OW26581   2.834   6.604   6.379 -0.4178  0.6721  0.2929
 8561SOL    HW126582   2.898   6.579   6.306 -1.4115 -0.5899 -0.1822
 8561SOL    HW226583   2.885   6.643   6.456  0.9709 -0.5871  0.0665
 8562SOL     OW26584   3.312   0.988   5.920  0.4050  0.0956  0.0409
 8562SOL    HW126585   3.256   0.908   5.901  0.4123 -0.4742  2.1257
 8562SOL    HW226586   3.258   1.056   5.969  1.2473 -0.0890  1.2859
 8563SOL     OW26587   0.961   2.659   5.832  0.1548 -0.0774 -0.4787
 8563SOL    HW126588   0.867   2.687   5.855 -1.0060 -2.6739 -1.6140
 8563SOL    HW226589   0.977   2.673   5.735  0.5932 -0.5295 -0.4759
 8564SOL     OW26590   0.262   5.046   2.839  0.6497 -0.2239 -0.0539
 8564SOL    HW126591   0.326   5.103   2.891 -0.2738  0.8945 -0.0951
 8564SOL    HW226592   0.171   5.054   2.878  0.5354 -1.9619  0.1331
 8565SOL     OW26593   3.615   6.621   0.881 -0.0215  0.4019  0.1161
 8565SOL    HW126594   3.686   6.567   0.927 -0.4132  0.0102  0.2726
 8565SOL    HW226595   3.657   6.696   0.831  0.4085  0.8297  1.1033
 8566SOL     OW26596   0.611   6.052   4.444 -0.0602 -0.3953 -0.0528
 8566SOL    HW126597   0.618   6.111   4.363 -0.3130 -0.6021 -0.2255
 8566SOL    HW226598   0.688   5.988   4.446  1.6711  1.5568  1.4547
 8567SOL     OW26599   6.461   4.976   1.563  0.0970  0.0685 -0.3275
 8567SOL    HW126600   6.560   4.969   1.567  0.0963  0.3673  0.6937
 8567SOL    HW226601   6.424   4.973   1.656 -1.0986 -3.2892 -0.7786
 8568SOL     OW26602   3.202   0.993   6.876 -0.2813 -0.0428 -0.9470
 8568SOL    HW126603   3.269   0.923   6.853  1.5431  1.8878 -1.8866
 8568SOL    HW226604   3.234   1.082   6.844 -4.1110  0.8192 -3.0110
 8569SOL     OW26605   2.778   0.329   6.926 -0.1060  0.2006  0.2771
 8569SOL    HW126606   2.678   0.331   6.936  0.0508  2.1351  2.3226
 8569SOL    HW226607   2.805   0.386   6.848 -0.5347  0.9602  0.6762
 8570SOL     OW26608   0.423   2.970   6.885 -0.4555  0.1801  0.1894
 8570SOL    HW126609   0.481   2.889   6.887  0.8045  1.0624  0.6633
 8570SOL    HW226610   0.472   3.045   6.840 -2.6396 -0.0525 -2.9288
 8571SOL     OW26611   1.626   4.202   0.238 -0.5360 -0.2003 -0.4671
 8571SOL    HW126612   1.724   4.184   0.239 -0.4611 -0.2172 -2.6510
 8571SOL    HW226613   1.595   4.226   0.330  2.0239  2.5624 -0.1959
 8572SOL     OW26614   1.370   4.007   4.809  0.1680  0.1576  0.0038
 8572SOL    HW126615   1.325   3.959   4.884  0.8430  0.3218  0.5226
 8572SOL    HW226616   1.347   3.963   4.723 -1.4114  0.5561  0.1924
 8573SOL     OW26617   3.341   6.447   5.651  0.2684 -0.2597  0.3907
 8573SOL    HW126618   3.415   6.504   5.686 -0.8160  0.4066  1.7138
 8573SOL    HW226619   3.378   6.362   5.614  1.6281 -0.2795  1.7213
 8574SOL     OW26620   2.748   5.637   4.798  0.3915 -0.0522  0.4277
 8574SOL    HW126621   2.752   5.587   4.712 -1.6213  0.2060  0.1510
 8574SOL    HW226622   2.705   5.581   4.868 -0.3889  0.6709  0.5473
 8575SOL     OW26623   1.141   3.178   6.527  0.3720 -0.4902 -0.4522
 8575SOL    HW126624   1.225   3.124   6.517  0.9889 -0.0111  1.7180
 8575SOL    HW226625   1.151   3.243   6.602 -1.1700  1.1372 -1.5660
 8576SOL     OW26626   2.579   0.079   0.609  0.1810 -0.7201  0.2589
 8576SOL    HW126627   2.672   0.042   0.606 -0.1999 -1.6457 -0.6680
 8576SOL    HW226628   2.514   0.005   0.623 -0.3974 -0.0009  1.5983
 8577SOL     OW26629   0.412   4.244   4.269  0.2677 -0.9819  0.1066
 8577SOL    HW126630   0.341   4.258   4.200 -0.5607  1.5658  1.3380
 8577SOL    HW226631   0.369   4.235   4.359  1.4135  1.0200  0.9374
 8578SOL     OW26632   6.482   6.961   5.080  0.2947  0.2067 -0.2761
 8578SOL    HW126633   6.449   7.013   5.001  0.0095 -0.1099 -0.3685
 8578SOL    HW226634   6.576   6.988   5.100  1.1032 -1.1472 -2.0032
 8579SOL     OW26635   1.929   3.873   2.673 -0.4659 -0.2322  0.2366
 8579SOL    HW126636   1.992   3.886   2.596  1.0226 -0.8578  1.3003
 8579SOL    HW226637   1.894   3.779   2.672  0.7248 -0.7165  1.1157
 8580SOL     OW26638   6.951   5.279   6.143  0.1469  0.1022 -0.2741
 8580SOL    HW126639   6.967   5.347   6.071 -0.9448  1.2908  0.5574
 8580SOL    HW226640   7.031   5.274   6.203  1.0151 -0.8077 -1.4587
 8581SOL     OW26641   2.577   3.456   1.683 -0.4247  0.4490  0.0653
 8581SOL    HW126642   2.507   3.436   1.752 -0.2801 -1.6522 -0.3308
 8581SOL    HW226643   2.537   3.513   1.611 -2.2875 -1.9214 -0.9347
 8582SOL     OW26644   1.418   5.196   2.127 -0.0855 -0.2144 -0.8053
 8582SOL    HW126645   1.380   5.169   2.215  1.2263 -0.3756 -0.2686
 8582SOL    HW226646   1.438   5.114   2.073 -0.4681 -0.1314 -1.0767
 8583SOL     OW26647   6.546   5.072   2.962  0.0129 -0.3410 -0.3132
 8583SOL    HW126648   6.613   5.049   3.033  0.1983 -0.2557 -0.4590
 8583SOL    HW226649   6.584   5.144   2.904 -0.4761  0.1918  0.0168
 8584SOL     OW26650   3.076   5.969   0.075  0.4214 -0.4949  0.0065
 8584SOL    HW126651   3.041   6.036   0.140  0.8175 -0.0052 -0.2830
 8584SOL    HW226652   3.000   5.914   0.041  0.3139 -1.2857  1.4664
 8585SOL     OW26653   0.516   6.906   0.903  0.7509 -0.2571  0.2980
 8585SOL    HW126654   0.472   6.915   0.814 -0.6472  0.0298  0.9846
 8585SOL    HW226655   0.512   6.993   0.952  1.4788 -0.4156  0.6579
 8586SOL     OW26656   4.540   5.201   4.848 -0.2562  0.3621 -0.0183
 8586SOL    HW126657   4.601   5.128   4.880  0.1440  0.5949 -0.2422
 8586SOL    HW226658   4.500   5.248   4.926  2.1055  2.1122  0.2474
 8587SOL     OW26659   5.421   2.420   2.224  0.3963  0.1312  0.2453
 8587SOL    HW126660   5.464   2.491   2.279  3.9295 -0.2890 -1.7039
 8587SOL    HW226661   5.439   2.331   2.266  0.3391  0.0356  0.0636
 8588SOL     OW26662   5.514   2.462   4.510 -0.2082 -0.1476  0.2245
 8588SOL    HW126663   5.536   2.531   4.441  0.5822  0.5394  1.1372
 8588SOL    HW226664   5.577   2.471   4.587 -1.6285 -0.3094  1.4510
 8589SOL     OW26665   4.033   2.015   2.540  0.0568 -0.3946  0.5132
 8589SOL    HW126666   4.010   2.048   2.632  2.1647  1.6205  0.4053
 8589SOL    HW226667   4.041   2.093   2.478  1.3653 -1.4837 -0.7458
 8590SOL     OW26668   4.921   4.125   6.400  0.0634 -0.3572  0.5380
 8590SOL    HW126669   5.006   4.074   6.415 -0.5976 -1.3040  1.1543
 8590SOL    HW226670   4.926   4.213   6.447  0.2160 -0.9509  1.6563
 8591SOL     OW26671   0.261   3.061   5.838  0.2673  0.0433  0.3155
 8591SOL    HW126672   0.230   3.033   5.929  2.4041 -0.6422  0.8860
 8591SOL    HW226673   0.232   3.156   5.821 -2.8322 -0.7799  0.3599
 8592SOL     OW26674   6.262   5.629   0.966 -0.1376 -0.0488 -0.2033
 8592SOL    HW126675   6.239   5.531   0.964  1.5352 -0.4655 -0.7776
 8592SOL    HW226676   6.239   5.667   1.056 -1.5454 -0.7603 -0.2331
 8593SOL     OW26677   0.434   6.510   4.138 -0.8581 -0.5432  0.2022
 8593SOL    HW126678   0.426   6.525   4.236 -1.9465  2.2088 -0.2363
 8593SOL    HW226679   0.525   6.536   4.107 -0.3513 -1.8737  0.5145
 8594SOL     OW26680   3.709   3.009   2.291  0.6148  0.1367 -0.0034
 8594SOL    HW126681   3.652   3.078   2.336  1.2574  1.2344 -0.8248
 8594SOL    HW226682   3.777   2.975   2.356 -1.4103 -1.7995  1.2513
 8595SOL     OW26683   0.664   3.878   2.815  1.0085  0.0119  0.0985
 8595SOL    HW126684   0.604   3.893   2.737  0.3717  1.4128  0.8287
 8595SOL    HW226685   0.685   3.780   2.822 -0.0912 -0.3275 -0.9519
 8596SOL     OW26686   6.714   2.952   4.065  0.1959  0.0927  0.2885
 8596SOL    HW126687   6.764   2.975   4.148 -0.2487  2.7157 -0.0905
 8596SOL    HW226688   6.618   2.978   4.075  0.0814  0.2324 -0.9532
 8597SOL     OW26689   2.754   2.183   1.171  0.0926 -0.4061 -0.0650
 8597SOL    HW126690   2.813   2.128   1.230  1.2048  0.3841 -0.4171
 8597SOL    HW226691   2.810   2.242   1.113 -1.0568  0.5971 -0.1912
 8598SOL     OW26692   5.737   2.935   4.022  0.0748 -0.3403 -0.1252
 8598SOL    HW126693   5.740   3.018   4.078  0.2706 -0.6815  0.3789
 8598SOL    HW226694   5.698   2.957   3.932 -1.6516 -0.0759  0.6492
 8599SOL     OW26695   6.727   3.397   6.399  0.1200 -0.1301  0.2573
 8599SOL    HW126696   6.662   3.395   6.475  0.5799  0.8725  0.6994
 8599SOL    HW226697   6.708   3.321   6.336 -1.2554 -0.0538  0.5511
 8600SOL     OW26698   6.707   2.141   6.929  0.0432  0.4278  0.1306
 8600SOL    HW126699   6.624   2.093   6.957  0.7210  0.5034  2.4775
 8600SOL    HW226700   6.730   2.210   6.997  1.1560  1.5523 -1.3134
 8601SOL     OW26701   6.923   1.450   3.625 -0.1345  0.5432 -0.0140
 8601SOL    HW126702   7.019   1.470   3.642 -0.2515  1.3728 -0.2473
 8601SOL    HW226703   6.897   1.484   3.534 -0.7794  0.8516  0.2727
 8602SOL     OW26704   1.423   5.548   1.644  0.4756 -0.0256 -0.4339
 8602SOL    HW126705   1.424   5.627   1.705 -0.5978 -0.7924  0.6299
 8602SOL    HW226706   1.510   5.499   1.652  0.4754  0.0745  0.2267
 8603SOL     OW26707   4.604   4.397   3.018 -0.2200 -0.4850  0.2315
 8603SOL    HW126708   4.560   4.466   2.961 -1.3333 -1.3010  0.0557
 8603SOL    HW226709   4.676   4.351   2.966  0.7928  0.7628  0.4703
 8604SOL     OW26710   0.311   3.497   2.086  0.2249 -0.0241  0.2482
 8604SOL    HW126711   0.304   3.423   2.019  0.4153  0.5851 -0.4420
 8604SOL    HW226712   0.228   3.551   2.085  0.9887  1.1836 -0.9164
 8605SOL     OW26713   0.663   4.844   2.157  0.4653 -0.5420  0.0779
 8605SOL    HW126714   0.762   4.835   2.150  0.4144 -0.4507 -0.9038
 8605SOL    HW226715   0.629   4.897   2.079 -0.2109  0.5926  1.1024
 8606SOL     OW26716   4.290   4.819   6.251 -0.2389  0.0908 -0.1476
 8606SOL    HW126717   4.285   4.783   6.344 -0.0367 -0.4523 -0.3460
 8606SOL    HW226718   4.377   4.868   6.239 -0.2153  0.0645 -0.0859
 8607SOL     OW26719   2.669   6.995   6.641  0.2663  0.0700  0.4149
 8607SOL    HW126720   2.612   7.050   6.702 -1.0331 -0.2991 -0.4093
 8607SOL    HW226721   2.616   6.971   6.559  1.3763 -0.9384 -0.0407
 8608SOL     OW26722   0.441   5.521   3.527 -0.2048  0.2066 -0.3620
 8608SOL    HW126723   0.508   5.446   3.533 -1.1242 -0.6197 -0.0753
 8608SOL    HW226724   0.355   5.486   3.489 -0.4469  1.2761 -0.8389
 8609SOL     OW26725   5.008   5.242   5.615 -0.0915  0.1518  0.1505
 8609SOL    HW126726   5.032   5.306   5.542  0.0299  0.0791  0.1265
 8609SOL    HW226727   4.919   5.201   5.595  0.3939 -0.6242 -0.4720
 8610SOL     OW26728   6.309   0.341   5.955 -0.1110  0.3201 -0.8130
 8610SOL    HW126729   6.386   0.324   5.895 -1.2880  1.4805 -2.7757
 8610SOL    HW226730   6.302   0.439   5.974 -0.2464  0.0681  0.5963
 8611SOL     OW26731   1.863   3.823   1.881 -0.4151  0.1525  0.2734
 8611SOL    HW126732   1.787   3.840   1.944 -0.4914 -1.7335  0.7545
 8611SOL    HW226733   1.898   3.730   1.895  1.2309  0.5688 -0.7460
 8612SOL     OW26734   4.791   2.852   4.379 -0.0918 -0.0427 -0.2212
 8612SOL    HW126735   4.785   2.939   4.429 -1.6555 -0.1672 -0.1247
 8612SOL    HW226736   4.747   2.780   4.432 -0.5382 -0.4761 -1.1563
 8613SOL     OW26737   1.033   6.338   1.046  0.1862  0.3887 -0.0321
 8613SOL    HW126738   0.954   6.392   1.015  0.0079 -0.3425 -0.8885
 8613SOL    HW226739   1.062   6.276   0.973  0.5238 -0.5286  0.8619
 8614SOL     OW26740   2.392   1.419   3.218 -0.0055  0.2765  0.5727
 8614SOL    HW126741   2.411   1.515   3.239 -0.6840  0.5365  0.0584
 8614SOL    HW226742   2.293   1.406   3.211  0.1016 -0.3681  0.1927
 8615SOL     OW26743   4.333   2.133   4.263  0.0845  0.3603 -0.4799
 8615SOL    HW126744   4.277   2.051   4.257 -0.5179  0.8540 -2.0667
 8615SOL    HW226745   4.350   2.155   4.359  1.8513 -2.6646  0.0174
 8616SOL     OW26746   1.299   3.041   0.386 -0.0410  0.3435 -0.2760
 8616SOL    HW126747   1.374   2.993   0.341 -0.3820  0.5704 -1.0939
 8616SOL    HW226748   1.311   3.140   0.376 -1.0343  0.3697 -1.4053
 8617SOL     OW26749   6.076   3.565   0.916  0.4659 -0.0129  0.4108
 8617SOL    HW126750   6.063   3.653   0.870  0.0671 -0.5230 -0.4776
 8617SOL    HW226751   6.170   3.557   0.948  0.9597  0.0551 -0.9698
 8618SOL     OW26752   3.635   1.296   3.323 -0.4743  0.0294  0.7632
 8618SOL    HW126753   3.612   1.388   3.292  1.0517  0.2183  0.0951
 8618SOL    HW226754   3.715   1.300   3.383 -0.4185 -0.8553  0.7543
 8619SOL     OW26755   5.936   5.508   1.690  0.5107 -0.1242 -0.6009
 8619SOL    HW126756   5.992   5.438   1.647  1.4631 -1.1867  2.1460
 8619SOL    HW226757   5.862   5.465   1.741 -3.2059  1.2370 -4.2847
 8620SOL     OW26758   5.555   5.403   3.426  0.4517 -0.3826 -0.2146
 8620SOL    HW126759   5.468   5.397   3.474  1.4266 -1.7553  1.4982
 8620SOL    HW226760   5.604   5.486   3.456 -0.6748  1.0362 -2.0478
 8621SOL     OW26761   4.632   6.773   2.651 -0.0466  0.5155 -0.0844
 8621SOL    HW126762   4.725   6.765   2.616 -0.3720  0.0314 -0.8440
 8621SOL    HW226763   4.581   6.689   2.633 -1.3243  1.5871 -1.7531
 8622SOL     OW26764   4.113   6.041   6.082  0.0753 -0.2679  0.1735
 8622SOL    HW126765   4.141   6.005   6.171 -0.0087  0.2397  0.4106
 8622SOL    HW226766   4.181   6.016   6.013 -0.4906 -1.7661  0.1131
 8623SOL     OW26767   6.131   1.114   3.515 -0.1647 -0.0852 -0.8489
 8623SOL    HW126768   6.200   1.068   3.458 -0.4333 -2.0494  0.3150
 8623SOL    HW226769   6.163   1.116   3.610 -1.6429 -0.9222 -0.3130
 8624SOL     OW26770   0.222   4.343   1.587 -0.0582 -0.0317 -0.2051
 8624SOL    HW126771   0.284   4.401   1.534 -1.4434  0.7956 -0.9426
 8624SOL    HW226772   0.171   4.283   1.526  0.1727 -0.8869  0.4209
 8625SOL     OW26773   4.219   2.396   6.997 -0.4680  0.0430  0.1531
 8625SOL    HW126774   4.197   2.330   6.924  1.3890 -2.1682  1.4327
 8625SOL    HW226775   4.150   2.467   6.999 -1.6357 -0.8610 -2.5047
 8626SOL     OW26776   2.432   3.815   1.219 -0.3653  0.1044  0.7658
 8626SOL    HW126777   2.448   3.790   1.314 -0.0494 -1.0054  0.4309
 8626SOL    HW226778   2.515   3.855   1.179 -0.7079  1.2358  1.1427
 8627SOL     OW26779   1.893   6.536   4.436  0.6697  0.0682  0.2011
 8627SOL    HW126780   1.964   6.546   4.506  1.0124 -1.1350  0.0521
 8627SOL    HW226781   1.803   6.538   4.479  0.8686 -0.4167  0.6520
 8628SOL     OW26782   5.863   6.726   2.610 -0.4827 -0.4143 -0.0855
 8628SOL    HW126783   5.878   6.820   2.578 -1.1305 -0.2222  0.1701
 8628SOL    HW226784   5.950   6.676   2.608 -0.4074 -0.2933 -1.7781
 8629SOL     OW26785   0.652   6.245   1.789 -0.1081 -0.5873  0.0736
 8629SOL    HW126786   0.727   6.203   1.737 -0.2748 -0.9237  0.1005
 8629SOL    HW226787   0.600   6.305   1.728  1.3823  1.2555  0.5302
 8630SOL     OW26788   6.289   6.205   4.008 -0.0769  0.0489 -0.7738
 8630SOL    HW126789   6.262   6.250   4.093 -1.3290 -2.3329  0.1746
 8630SOL    HW226790   6.224   6.227   3.935  0.6845  1.6302 -1.0366
 8631SOL     OW26791   4.869   2.324   3.132  0.5361  0.6824  0.0922
 8631SOL    HW126792   4.773   2.313   3.155  0.2724 -0.1430 -1.3396
 8631SOL    HW226793   4.878   2.370   3.044  1.4501  0.6196  0.1353
 8632SOL     OW26794   2.221   1.431   1.542  0.1839 -0.1230  0.0735
 8632SOL    HW126795   2.167   1.425   1.458  0.8920  3.5797 -0.7924
 8632SOL    HW226796   2.292   1.500   1.532  1.7949 -1.1734  2.9833
 8633SOL     OW26797   0.183   1.019   1.820 -0.4487 -0.5401 -0.1397
 8633SOL    HW126798   0.140   1.029   1.909 -0.4168 -0.1136 -0.1666
 8633SOL    HW226799   0.282   1.009   1.831  0.1453  3.4392 -0.2129
 8634SOL     OW26800   5.202   6.850   2.066 -0.0256 -0.0044 -0.5256
 8634SOL    HW126801   5.173   6.944   2.050  0.7973 -0.0102 -2.2408
 8634SOL    HW226802   5.152   6.789   2.005  0.1349 -0.5773 -0.0978
 8635SOL     OW26803   0.051   3.993   4.874 -0.3235  0.0194  0.3790
 8635SOL    HW126804   0.050   3.971   4.971 -1.8713 -1.8450 -0.0033
 8635SOL    HW226805   0.008   4.083   4.860  0.2762  0.4840  1.4315
 8636SOL     OW26806   0.513   4.075   3.047 -0.4372 -0.2086 -0.0138
 8636SOL    HW126807   0.526   4.142   3.120 -1.7532 -1.1157  1.1110
 8636SOL    HW226808   0.468   4.119   2.969 -0.6124  0.3892  0.4143
 8637SOL     OW26809   1.467   2.031   3.378  0.0710  0.2550  0.2328
 8637SOL    HW126810   1.414   2.056   3.460 -1.3741 -1.5418 -0.0889
 8637SOL    HW226811   1.427   2.077   3.298 -0.3195 -0.2221  0.1491
 8638SOL     OW26812   6.887   4.885   2.921  0.6850  0.2594 -0.0116
 8638SOL    HW126813   6.950   4.835   2.980  0.9002  1.2412  0.6282
 8638SOL    HW226814   6.830   4.945   2.978 -0.8373 -0.6116 -0.5707
 8639SOL     OW26815   5.433   2.889   3.845  0.1084  0.7929 -0.6783
 8639SOL    HW126816   5.528   2.865   3.823  0.8307  0.6880  2.2047
 8639SOL    HW226817   5.376   2.807   3.840  0.8277  0.1842  0.6113
 8640SOL     OW26818   4.871   4.509   0.639 -0.0016 -0.3973 -0.2012
 8640SOL    HW126819   4.829   4.425   0.604  0.7025 -0.7671 -0.1961
 8640SOL    HW226820   4.969   4.507   0.619  0.6220 -1.0478  2.5313
 8641SOL     OW26821   3.940   6.115   5.906 -0.1370 -0.1489  0.1847
 8641SOL    HW126822   3.967   6.050   5.835  1.6693  1.8320 -1.0609
 8641SOL    HW226823   3.978   6.085   5.994 -0.1893 -1.2786 -0.1572
 8642SOL     OW26824   3.612   1.496   2.589 -0.3881  0.1112 -0.1221
 8642SOL    HW126825   3.520   1.459   2.579  0.1886 -1.3758 -0.1282
 8642SOL    HW226826   3.637   1.497   2.685  0.8531 -2.8571 -0.2959
 8643SOL     OW26827   4.687   0.809   6.953 -0.8870 -0.3879  0.5204
 8643SOL    HW126828   4.742   0.871   6.897 -0.8633  1.4865  2.5120
 8643SOL    HW226829   4.590   0.819   6.930 -0.9132  0.6593  1.0447
 8644SOL     OW26830   6.190   3.981   4.158 -0.0481 -0.0137 -0.3282
 8644SOL    HW126831   6.156   4.029   4.077 -0.0696 -0.3558 -0.5237
 8644SOL    HW226832   6.275   3.932   4.136 -0.2344 -0.3852 -0.2374
 8645SOL     OW26833   6.809   2.174   2.481  0.2979 -0.0177  0.2843
 8645SOL    HW126834   6.798   2.081   2.445  2.1106 -0.1148 -0.1546
 8645SOL    HW226835   6.820   2.170   2.580  0.6674 -0.3105  0.2345
 8646SOL     OW26836   4.122   0.084   1.308  0.0049 -0.4078 -0.6415
 8646SOL    HW126837   4.149   0.110   1.216 -2.2960  2.5525 -0.6398
 8646SOL    HW226838   4.182   0.131   1.374 -0.8963  0.8403 -0.6723
 8647SOL     OW26839   3.212   5.269   0.958 -0.3536 -0.2305 -0.5377
 8647SOL    HW126840   3.162   5.196   1.004  1.2371 -0.0699  1.5694
 8647SOL    HW226841   3.235   5.240   0.865  0.9964 -2.8206  0.5177
 8648SOL     OW26842   1.263   6.205   6.001 -0.5073  0.0728  0.0040
 8648SOL    HW126843   1.334   6.135   5.997 -0.4000  0.0898  1.1617
 8648SOL    HW226844   1.294   6.287   5.952  0.3061  0.0958  0.5265
 8649SOL     OW26845   6.502   2.798   5.145  0.0689 -0.2172  0.2028
 8649SOL    HW126846   6.465   2.724   5.089 -0.9345 -2.2350  3.3120
 8649SOL    HW226847   6.601   2.790   5.149  0.1635 -0.0408 -1.1887
 8650SOL     OW26848   0.680   3.791   1.965 -0.2666 -0.1917 -0.2563
 8650SOL    HW126849   0.609   3.732   1.927  0.6721 -3.0319  2.0571
 8650SOL    HW226850   0.637   3.860   2.024 -1.2416 -0.2230 -0.9118
 8651SOL     OW26851   6.190   3.107   0.476  0.2353 -0.4723  0.0628
 8651SOL    HW126852   6.209   3.018   0.516 -1.7684 -0.8081  0.4127
 8651SOL    HW226853   6.166   3.096   0.379  1.2660 -0.1433 -0.2351
 8652SOL     OW26854   0.953   3.722   3.608 -0.4113  0.1138  0.8861
 8652SOL    HW126855   0.907   3.811   3.610 -0.0100  0.4141 -1.4395
 8652SOL    HW226856   1.032   3.726   3.548 -0.6987 -1.9757  0.2886
 8653SOL     OW26857   4.698   3.444   6.319  0.2284 -0.8601  0.6621
 8653SOL    HW126858   4.772   3.501   6.353  0.0243 -1.1086  1.5406
 8653SOL    HW226859   4.736   3.358   6.283  0.4295 -0.6692  0.4183
 8654SOL     OW26860   2.963   4.773   3.155 -0.4624 -0.3959 -0.5369
 8654SOL    HW126861   2.990   4.764   3.059 -1.9165  2.4108 -1.3105
 8654SOL    HW226862   3.035   4.822   3.205  0.7038 -2.6132  0.1342
 8655SOL     OW26863   6.604   1.409   3.667 -0.1687  0.1633  0.0472
 8655SOL    HW126864   6.697   1.383   3.641  0.8254  1.3623  2.1748
 8655SOL    HW226865   6.607   1.490   3.725 -2.4378 -0.6350  1.4010
 8656SOL     OW26866   6.837   6.832   1.675 -1.0510 -0.0445 -0.7770
 8656SOL    HW126867   6.760   6.828   1.612 -0.5655 -1.6989 -1.3207
 8656SOL    HW226868   6.874   6.740   1.687 -0.8357  0.2898  1.5658
 8657SOL     OW26869   3.776   5.007   6.619 -0.0297 -0.1346 -0.3340
 8657SOL    HW126870   3.717   5.082   6.648  1.1337  0.6066  0.2008
 8657SOL    HW226871   3.831   5.037   6.541 -0.2980 -0.7965 -0.7850
 8658SOL     OW26872   0.870   5.009   0.015  0.1744  0.1469 -0.3409
 8658SOL    HW126873   0.823   4.999  -0.072  1.4201  0.4715 -1.0894
 8658SOL    HW226874   0.931   5.089   0.011  1.3103 -0.6496  0.3079
 8659SOL     OW26875   1.873   6.416   2.955  0.6134  0.2734 -0.4799
 8659SOL    HW126876   1.891   6.497   2.899 -0.9498  0.5859 -0.5877
 8659SOL    HW226877   1.777   6.390   2.945  0.6237 -0.4414  1.0614
 8660SOL     OW26878   5.024   3.523   2.057  0.3422 -0.2409  0.4650
 8660SOL    HW126879   5.008   3.433   2.016 -0.7434  0.2787 -0.2824
 8660SOL    HW226880   4.993   3.523   2.151  1.7505 -1.0858  0.9652
 8661SOL     OW26881   5.124   2.308   0.431 -0.7542  0.2034 -0.1153
 8661SOL    HW126882   5.090   2.370   0.501  0.0631  1.1082 -0.4958
 8661SOL    HW226883   5.141   2.359   0.346  0.2466 -0.4670 -0.3368
 8662SOL     OW26884   1.216   0.255   1.275  0.2256 -0.0414 -0.9466
 8662SOL    HW126885   1.120   0.234   1.293 -0.1774 -0.9826 -3.7225
 8662SOL    HW226886   1.237   0.346   1.312 -1.7585  0.2492 -0.3858
 8663SOL     OW26887   1.764   5.859   0.389  0.4973  0.1771 -0.5158
 8663SOL    HW126888   1.780   5.803   0.470  0.7724  0.9623 -0.0199
 8663SOL    HW226889   1.812   5.946   0.398 -1.6564  1.4137 -0.2945
 8664SOL     OW26890   4.278   4.642   2.711 -0.0526  0.6330  0.5439
 8664SOL    HW126891   4.232   4.723   2.749 -0.5652  1.1269 -1.0654
 8664SOL    HW226892   4.241   4.622   2.621  0.3292 -1.2105  0.7611
 8665SOL     OW26893   0.546   4.577   3.074  0.2231  0.0834 -0.6000
 8665SOL    HW126894   0.524   4.675   3.071  2.5387  0.6880  0.3125
 8665SOL    HW226895   0.494   4.529   3.003 -1.4534  1.8431 -0.6397
 8666SOL     OW26896   6.721   4.052   6.711  0.0396  0.3697  0.1198
 8666SOL    HW126897   6.757   4.052   6.617 -1.7909 -1.0206 -0.6479
 8666SOL    HW226898   6.723   3.958   6.747  0.5844  0.8666  1.4295
 8667SOL     OW26899   5.994   2.736   2.914  0.2206 -0.5398 -0.7181
 8667SOL    HW126900   6.058   2.813   2.917  0.4764 -0.7644  1.2542
 8667SOL    HW226901   6.042   2.654   2.883  0.5502 -0.3996 -0.5843
 8668SOL     OW26902   4.360   1.473   5.048 -1.3073  0.5435  0.4885
 8668SOL    HW126903   4.318   1.449   5.135  0.2168  1.3378  1.4788
 8668SOL    HW226904   4.365   1.572   5.040  0.5638  0.4803  0.5188
 8669SOL     OW26905   2.298   5.765   6.984 -0.8171  0.1506  0.1170
 8669SOL    HW126906   2.361   5.788   7.058 -0.8233  0.8085 -0.0724
 8669SOL    HW226907   2.220   5.715   7.021 -0.2803 -0.5037  0.3807
 8670SOL     OW26908   4.911   4.967   4.105  0.3991  0.6652 -0.1505
 8670SOL    HW126909   4.856   5.049   4.091  1.5815  1.2875 -1.3402
 8670SOL    HW226910   4.986   4.987   4.167  0.8442  0.5593 -0.6497
 8671SOL     OW26911   6.019   5.562   0.646 -0.5399 -0.4173  0.0325
 8671SOL    HW126912   6.088   5.627   0.677  1.9853 -3.3320  1.0535
 8671SOL    HW226913   5.963   5.534   0.724  0.0581 -1.2946  0.1601
 8672SOL     OW26914   3.543   5.184   5.948 -0.0913  0.2344  0.1219
 8672SOL    HW126915   3.562   5.086   5.944 -0.6203  0.1444 -0.1997
 8672SOL    HW226916   3.450   5.202   5.916 -0.1148  0.8076  0.4990
 8673SOL     OW26917   4.717   1.921   7.003  0.7140 -0.4257  0.5307
 8673SOL    HW126918   4.803   1.964   7.031  0.5601 -0.3527  0.8989
 8673SOL    HW226919   4.674   1.976   6.931  0.5081  0.0442  1.0152
 8674SOL     OW26920   0.819   5.228   3.441 -0.3265  0.8497  0.3204
 8674SOL    HW126921   0.895   5.279   3.402  0.7417 -2.2972 -2.0905
 8674SOL    HW226922   0.853   5.144   3.484 -2.3667 -1.1422 -1.6649
 8675SOL     OW26923   3.234   2.429   1.315  0.6535  0.3863  0.2463
 8675SOL    HW126924   3.255   2.516   1.360  1.2389  0.5455 -0.3159
 8675SOL    HW226925   3.319   2.378   1.301  0.4747  0.3264 -0.6484
 8676SOL     OW26926   4.532   1.790   3.258 -0.4983 -0.3016 -0.2583
 8676SOL    HW126927   4.598   1.725   3.295  0.4720  0.4637 -0.5980
 8676SOL    HW226928   4.580   1.861   3.206 -1.3967  1.2820  0.9586
 8677SOL     OW26929   1.590   4.008   5.379 -0.0756 -0.3396  0.0629
 8677SOL    HW126930   1.603   3.993   5.281  0.5777  0.9503 -0.0753
 8677SOL    HW226931   1.529   3.938   5.416 -0.7371 -0.5547 -1.3654
 8678SOL     OW26932   0.738   1.775   0.401 -0.5373  0.0235 -0.1293
 8678SOL    HW126933   0.699   1.698   0.351  0.8383 -2.1681  1.9201
 8678SOL    HW226934   0.669   1.816   0.460 -1.3359  0.5428 -1.3926
 8679SOL     OW26935   5.610   1.442   4.176  0.1574  0.2762 -0.4868
 8679SOL    HW126936   5.649   1.354   4.200  0.8030  0.6848  0.0144
 8679SOL    HW226937   5.513   1.432   4.157 -0.8986  0.0686  3.9135
 8680SOL     OW26938   6.503   2.245   5.862 -0.1325 -0.0523 -0.4565
 8680SOL    HW126939   6.443   2.325   5.874  0.8090  1.1782 -3.1014
 8680SOL    HW226940   6.589   2.260   5.910  0.2888  0.9001 -1.4415
 8681SOL     OW26941   4.157   3.773   1.842  0.1271  0.0162 -0.4173
 8681SOL    HW126942   4.205   3.836   1.904 -0.7827  0.1275  0.1825
 8681SOL    HW226943   4.091   3.719   1.893  0.8998 -1.4568 -0.9260
 8682SOL     OW26944   1.173   6.173   0.875  0.0088  0.0334 -0.2942
 8682SOL    HW126945   1.191   6.081   0.910 -3.8009 -0.6804  0.2125
 8682SOL    HW226946   1.171   6.170   0.775 -2.7323 -1.2001 -0.2997
 8683SOL     OW26947   3.815   4.292   0.197  0.0908 -0.4203  0.1572
 8683SOL    HW126948   3.781   4.386   0.207 -2.1019 -1.2364  1.0331
 8683SOL    HW226949   3.835   4.255   0.287  0.7621 -0.8674 -0.1719
 8684SOL     OW26950   6.298   2.465   5.778 -0.2543  0.4336 -0.2486
 8684SOL    HW126951   6.287   2.531   5.853 -2.3356  0.1133 -0.2150
 8684SOL    HW226952   6.328   2.512   5.696  0.4489  1.0463  0.3396
 8685SOL     OW26953   6.539   1.110   6.358 -0.1027 -0.0923  0.8019
 8685SOL    HW126954   6.442   1.132   6.347  0.2712  1.0048 -0.5658
 8685SOL    HW226955   6.577   1.081   6.269  1.0760  0.5916  1.0568
 8686SOL     OW26956   5.634   2.437   5.735  0.5381  0.4061 -0.3425
 8686SOL    HW126957   5.643   2.476   5.643  0.8279 -0.2116 -0.5845
 8686SOL    HW226958   5.716   2.460   5.788  0.7044  0.1393 -0.4815
 8687SOL     OW26959   3.837   0.610   3.758  0.2077  0.3582  0.4700
 8687SOL    HW126960   3.826   0.522   3.803  0.6021  0.4861  0.8234
 8687SOL    HW226961   3.747   0.643   3.727  0.2836 -1.1071 -1.5043
 8688SOL     OW26962   0.111   6.964   7.013  0.2137 -0.5404  0.5005
 8688SOL    HW126963   0.025   6.913   6.999  0.8254 -1.2822 -0.7767
 8688SOL    HW226964   0.090   7.061   7.026 -0.9378 -0.9745  2.3401
 8689SOL     OW26965   6.274   5.012   3.263 -0.4419 -0.1833 -0.4474
 8689SOL    HW126966   6.363   5.031   3.304  0.2862 -2.2891 -0.9306
 8689SOL    HW226967   6.271   5.049   3.170 -0.8167  1.5412  0.2064
 8690SOL     OW26968   1.577   6.728   2.343 -0.3501  0.0771 -0.2713
 8690SOL    HW126969   1.514   6.655   2.368 -1.0376  0.8298  0.2562
 8690SOL    HW226970   1.662   6.689   2.307 -1.6832 -0.9757 -2.4797
 8691SOL     OW26971   6.216   0.991   0.717  0.2424  0.3436  0.0973
 8691SOL    HW126972   6.214   1.055   0.794  0.6505  1.2367 -0.6246
 8691SOL    HW226973   6.128   0.991   0.671 -0.1475 -0.5205  0.8136
 8692SOL     OW26974   1.587   0.976   1.364  0.1428  0.3277 -0.0230
 8692SOL    HW126975   1.526   1.018   1.298 -0.6439 -0.4975  0.1609
 8692SOL    HW226976   1.535   0.920   1.428  1.1708 -1.3040 -0.5378
 8693SOL     OW26977   4.576   3.192   5.350  0.1651  0.1522  0.0009
 8693SOL    HW126978   4.499   3.255   5.343  0.5372  0.4465 -2.8474
 8693SOL    HW226979   4.547   3.110   5.399 -1.1772  1.2865  1.2183
 8694SOL     OW26980   1.809   1.358   6.556 -0.2748  0.2843  0.2975
 8694SOL    HW126981   1.840   1.391   6.467 -0.9947 -0.9587 -0.4386
 8694SOL    HW226982   1.864   1.400   6.628 -0.4567  2.2429 -0.6373
 8695SOL     OW26983   3.171   3.924   4.712 -0.2641  0.6415  0.5278
 8695SOL    HW126984   3.079   3.911   4.676 -0.2485  1.4750  0.1489
 8695SOL    HW226985   3.166   3.963   4.804 -0.2981 -1.0801  1.2863
 8696SOL     OW26986   2.514   0.430   1.110  0.2500  0.7479 -0.4700
 8696SOL    HW126987   2.469   0.519   1.117 -0.3341  0.3793  0.9283
 8696SOL    HW226988   2.603   0.434   1.155 -0.2773  0.3395  0.6452
 8697SOL     OW26989   6.051   6.804   0.822 -0.2409 -0.0596 -0.4885
 8697SOL    HW126990   6.128   6.820   0.884 -0.5399  0.2026 -0.1854
 8697SOL    HW226991   6.043   6.880   0.758  0.8835 -0.9253 -1.7268
 8698SOL     OW26992   0.870   4.336   6.849 -0.6960 -0.1470  0.1672
 8698SOL    HW126993   0.771   4.319   6.855 -0.4440 -1.3951  1.0135
 8698SOL    HW226994   0.886   4.435   6.843 -1.9050  0.2308  2.1962
 8699SOL     OW26995   2.711   1.065   3.364  0.3713  0.3456 -0.5714
 8699SOL    HW126996   2.730   1.162   3.383  1.4942  0.2527 -1.1370
 8699SOL    HW226997   2.660   1.026   3.441 -1.0418  1.6416 -0.8026
 8700SOL     OW26998   2.176   1.524   5.779 -0.4595  0.8435  0.2657
 8700SOL    HW126999   2.124   1.607   5.803  2.0364  2.3063  0.9921
 8700SOL    HW227000   2.192   1.522   5.681 -0.1738  1.4704  0.2951
 8701SOL     OW27001   6.630   6.814   3.142 -0.4425 -0.1157  0.4985
 8701SOL    HW127002   6.582   6.879   3.201 -0.7345 -1.4680  1.8112
 8701SOL    HW227003   6.588   6.815   3.051 -0.1499  1.8235  0.3420
 8702SOL     OW27004   3.514   1.216   6.044 -0.0005 -0.2501 -0.0977
 8702SOL    HW127005   3.528   1.141   5.979  0.5433  1.2143 -1.7541
 8702SOL    HW227006   3.493   1.299   5.994  0.6358  1.0012  1.6240
 8703SOL     OW27007   2.226   3.888   1.475  0.2955  0.2150  0.2157
 8703SOL    HW127008   2.188   3.878   1.567 -1.1912 -1.4956 -0.5157
 8703SOL    HW227009   2.314   3.840   1.470 -0.2191 -0.7641  0.4234
 8704SOL     OW27010   2.038   3.618   1.577  0.1264  0.2423  0.5057
 8704SOL    HW127011   1.999   3.528   1.557 -3.3553  0.8007  3.6180
 8704SOL    HW227012   2.033   3.676   1.496 -0.9883 -1.2698 -0.5500
 8705SOL     OW27013   4.921   4.894   5.772 -0.5358 -0.2542 -0.4917
 8705SOL    HW127014   4.876   4.805   5.773 -0.5653 -0.3837  3.4170
 8705SOL    HW227015   5.011   4.887   5.816 -0.4252  1.5663 -0.3312
 8706SOL     OW27016   6.486   5.634   6.496  0.1564  0.3844 -0.0017
 8706SOL    HW127017   6.507   5.611   6.591 -0.2934  0.6261  0.1583
 8706SOL    HW227018   6.470   5.550   6.444 -0.9214  0.2962  0.4513
 8707SOL     OW27019   4.314   0.801   6.247 -0.3558 -0.2467  0.8236
 8707SOL    HW127020   4.264   0.715   6.251 -1.1416 -0.0270 -1.9824
 8707SOL    HW227021   4.413   0.781   6.244 -0.5381 -1.1235 -0.2828
 8708SOL     OW27022   4.305   2.136   2.847 -0.2378 -0.7509  0.2387
 8708SOL    HW127023   4.233   2.175   2.904 -0.4578  0.7129 -0.9813
 8708SOL    HW227024   4.283   2.149   2.750  1.2807 -0.9910 -0.1763
 8709SOL     OW27025   6.057   2.891   6.472 -0.7203 -0.2900  0.4036
 8709SOL    HW127026   5.983   2.879   6.407 -0.8308  0.0700  0.4608
 8709SOL    HW227027   6.057   2.985   6.506 -0.1579 -0.2496  0.3059
 8710SOL     OW27028   5.799   3.683   5.738 -0.8570 -0.0661  0.0105
 8710SOL    HW127029   5.899   3.683   5.743 -0.9249  0.1351  1.7057
 8710SOL    HW227030   5.768   3.767   5.694 -0.3033  0.1621  0.0495
 8711SOL     OW27031   1.296   2.160   5.578  0.0062  0.1069  0.1269
 8711SOL    HW127032   1.255   2.251   5.574 -0.6825 -0.2454 -1.2847
 8711SOL    HW227033   1.369   2.153   5.510 -1.7511 -1.2081 -1.7767
 8712SOL     OW27034   2.315   0.148   5.570  0.1245 -0.1093  0.3115
 8712SOL    HW127035   2.393   0.109   5.520 -1.0550 -2.7074  0.3501
 8712SOL    HW227036   2.327   0.132   5.668  0.2515  0.9164  0.4806
 8713SOL     OW27037   6.009   3.276   2.753 -0.9188 -0.4901 -0.0385
 8713SOL    HW127038   6.043   3.200   2.697  1.0677  0.6013 -0.4253
 8713SOL    HW227039   5.920   3.306   2.718 -2.2380 -3.1737  0.7128
 8714SOL     OW27040   1.403   0.624   2.778 -0.1068 -0.1270 -0.0893
 8714SOL    HW127041   1.418   0.723   2.777 -0.7707 -0.0143  0.2118
 8714SOL    HW227042   1.305   0.606   2.791 -0.2739 -0.8145 -2.0913
 8715SOL     OW27043   5.294   0.364   3.131 -0.1049 -0.2175  0.6444
 8715SOL    HW127044   5.272   0.452   3.173 -0.3191 -0.6549  1.4726
 8715SOL    HW227045   5.389   0.366   3.098 -1.6407  2.3331 -4.6401
 8716SOL     OW27046   2.188   6.357   2.705  0.0082  0.1306  1.2475
 8716SOL    HW127047   2.278   6.388   2.676 -0.1798  1.2071  1.7553
 8716SOL    HW227048   2.126   6.436   2.711 -0.8413 -0.5332  1.3207
 8717SOL     OW27049   5.601   3.584   2.022 -1.1698 -0.3862 -0.6115
 8717SOL    HW127050   5.565   3.650   2.088 -1.1559 -0.8318 -0.1561
 8717SOL    HW227051   5.562   3.602   1.932 -0.7568  0.5862 -0.6055
 8718SOL     OW27052   0.489   4.148   4.762 -0.2496 -0.5852 -0.2604
 8718SOL    HW127053   0.584   4.126   4.783 -0.2266 -1.2643 -1.0726
 8718SOL    HW227054   0.485   4.206   4.681 -0.5500 -0.8768 -0.4581
 8719SOL     OW27055   6.491   6.850   0.073  0.4155  0.0739 -0.2627
 8719SOL    HW127056   6.543   6.786   0.015 -0.7495 -0.8712 -0.2989
 8719SOL    HW227057   6.511   6.831   0.169  1.5883  0.9929 -0.2970
 8720SOL     OW27058   4.749   1.108   6.454 -0.5180  0.5197 -0.3635
 8720SOL    HW127059   4.816   1.147   6.518  1.7976  0.4438 -2.5725
 8720SOL    HW227060   4.739   1.010   6.473 -1.4126  0.8546  1.0877
 8721SOL     OW27061   6.736   2.021   4.670 -0.7007  0.4455  0.9118
 8721SOL    HW127062   6.828   2.030   4.632 -0.9114 -0.1415  0.2357
 8721SOL    HW227063   6.726   2.082   4.748 -0.0468  1.2149  0.4068
 8722SOL     OW27064   4.855   2.973   6.675 -0.3704  0.2338 -0.5221
 8722SOL    HW127065   4.910   2.891   6.691 -2.7950 -1.2932  0.6357
 8722SOL    HW227066   4.910   3.054   6.696  1.5751 -1.1510  0.0593
 8723SOL     OW27067   6.816   5.255   0.819 -0.0728  0.0018 -0.3196
 8723SOL    HW127068   6.891   5.197   0.787  0.4206  0.4592 -0.0056
 8723SOL    HW227069   6.733   5.233   0.767 -0.5546 -2.6691  1.3872
 8724SOL     OW27070   3.571   6.935   5.787  0.0299 -0.4145  0.2868
 8724SOL    HW127071   3.511   7.012   5.765 -0.7572 -0.7743  1.1220
 8724SOL    HW227072   3.621   6.954   5.871  0.9838 -0.1840 -0.3196
 8725SOL     OW27073   4.018   0.865   1.401  0.4557 -0.2878 -0.4818
 8725SOL    HW127074   4.019   0.934   1.329  0.9380  0.7928  0.5310
 8725SOL    HW227075   4.110   0.829   1.414  0.2294 -1.0481 -0.9188
 8726SOL     OW27076   0.709   5.631   1.731 -0.4192 -0.0843  0.6097
 8726SOL    HW127077   0.762   5.583   1.661  0.2322 -3.0188  2.9529
 8726SOL    HW227078   0.615   5.596   1.731 -0.5882  0.3649  0.8214
 8727SOL     OW27079   4.450   0.450   1.629 -0.0379 -0.2138  0.3071
 8727SOL    HW127080   4.372   0.497   1.590  1.1700  1.6514  0.0123
 8727SOL    HW227081   4.469   0.487   1.720  1.5975  0.7431 -0.3731
 8728SOL     OW27082   0.594   5.302   4.106 -0.1389 -0.1319  0.0212
 8728SOL    HW127083   0.692   5.317   4.092 -0.0288 -1.6976 -1.1105
 8728SOL    HW227084   0.559   5.371   4.170  1.9621 -0.3160  1.4959
 8729SOL     OW27085   5.276   6.447   3.980  0.1219  0.4103  0.4415
 8729SOL    HW127086   5.214   6.371   3.997 -0.8131  0.9410 -0.4589
 8729SOL    HW227087   5.226   6.523   3.938  0.6600  2.1885  2.7842
 8730SOL     OW27088   5.672   5.295   0.830 -0.4370 -0.1196 -0.1208
 8730SOL    HW127089   5.590   5.336   0.791 -0.9357  0.9870  1.9531
 8730SOL    HW227090   5.646   5.226   0.897  0.4009 -2.2064 -1.8001
 8731SOL     OW27091   6.855   1.024   3.040  0.1105  0.3157  0.0408
 8731SOL    HW127092   6.761   1.024   3.074  0.5939 -1.2359  1.5142
 8731SOL    HW227093   6.918   1.040   3.116  1.0425  2.0819 -1.0475
 8732SOL     OW27094   1.767   1.260   2.018 -0.0443 -0.1811 -0.1429
 8732SOL    HW127095   1.830   1.303   2.082 -0.7032 -1.0817  1.1509
 8732SOL    HW227096   1.810   1.179   1.977 -0.3024 -0.7288  0.6524
 8733SOL     OW27097   5.892   1.232   0.712 -0.8060  0.9304  0.0989
 8733SOL    HW127098   5.923   1.143   0.676 -0.5399  0.3300  1.7257
 8733SOL    HW227099   5.925   1.305   0.652  1.1514  0.0947  0.0629
 8734SOL     OW27100   5.268   0.957   2.144 -0.1569  0.1590 -0.0636
 8734SOL    HW127101   5.192   1.013   2.109  0.0729 -0.0258 -0.8741
 8734SOL    HW227102   5.347   1.016   2.162  0.2965  0.0314 -1.5238
 8735SOL     OW27103   0.945   2.932   4.282  0.1461 -0.1070  0.7048
 8735SOL    HW127104   1.028   2.919   4.228  0.1778 -0.1198  0.7568
 8735SOL    HW227105   0.875   2.978   4.227 -0.3771 -1.5419  0.1254
 8736SOL     OW27106   0.475   5.458   6.629 -0.1494  0.7671  0.2643
 8736SOL    HW127107   0.391   5.510   6.642 -1.0530 -0.9453  1.8277
 8736SOL    HW227108   0.530   5.462   6.712  0.9296  1.2009 -0.4587
 8737SOL     OW27109   3.764   0.221   5.777 -0.2679 -0.2762  0.4029
 8737SOL    HW127110   3.848   0.198   5.827  1.3185  2.6373 -0.6396
 8737SOL    HW227111   3.722   0.302   5.818 -1.9057 -0.9544  0.1311
 8738SOL     OW27112   1.811   1.944   4.240  0.8895 -0.0070 -0.3823
 8738SOL    HW127113   1.839   2.034   4.206 -0.8242  2.2483  3.5443
 8738SOL    HW227114   1.717   1.925   4.210  0.6167  0.3540  0.2397
 8739SOL     OW27115   2.004   3.409   5.307  0.2072  0.0698  0.3853
 8739SOL    HW127116   1.923   3.358   5.279 -0.3194  0.9676  0.2390
 8739SOL    HW227117   1.990   3.447   5.398 -0.9588  3.0766 -0.9384
 8740SOL     OW27118   0.560   0.919   0.962 -0.2884 -0.5329  0.3252
 8740SOL    HW127119   0.563   1.001   1.019  1.8321  0.0805 -0.5680
 8740SOL    HW227120   0.574   0.943   0.866  1.0868 -1.9651  0.1147
 8741SOL     OW27121   0.676   3.200   2.708  0.1893  0.3411  0.1731
 8741SOL    HW127122   0.765   3.226   2.670 -0.1062  2.4378  0.7822
 8741SOL    HW227123   0.681   3.202   2.808  0.1203 -2.1203  0.3040
 8742SOL     OW27124   5.736   4.606   3.111  0.0016  0.0443  0.2055
 8742SOL    HW127125   5.799   4.678   3.082  0.4265 -0.5190 -0.2926
 8742SOL    HW227126   5.766   4.570   3.199  0.1675  0.0269  0.1429
 8743SOL     OW27127   3.368   4.939   4.085 -0.1297 -0.2882 -0.3617
 8743SOL    HW127128   3.410   4.918   4.173 -1.6223 -0.8005  0.2650
 8743SOL    HW227129   3.430   4.913   4.011  0.7573 -0.7386  0.5208
 8744SOL     OW27130   1.901   3.994   4.893  0.1994 -0.6998  0.4830
 8744SOL    HW127131   1.866   4.086   4.875 -0.8128 -1.2443 -0.4831
 8744SOL    HW227132   1.990   3.984   4.850 -0.4034 -0.6646 -0.8331
 8745SOL     OW27133   5.143   2.423   6.006 -0.3198 -0.0428  0.7120
 8745SOL    HW127134   5.146   2.328   6.038  0.6597 -0.6282 -0.9952
 8745SOL    HW227135   5.048   2.455   6.004 -1.3932 -2.7368 -3.3770
 8746SOL     OW27136   6.073   2.546   5.176  0.3426  0.4452  0.1484
 8746SOL    HW127137   6.080   2.640   5.212 -0.1877  0.8522 -0.7808
 8746SOL    HW227138   6.064   2.549   5.077  1.2601 -0.6481  0.0178
 8747SOL     OW27139   0.623   2.124   5.829  0.0313 -0.2108 -0.0555
 8747SOL    HW127140   0.656   2.215   5.804  0.5527  0.0648  1.5301
 8747SOL    HW227141   0.653   2.058   5.760  1.4963  0.4854 -0.1326
 8748SOL     OW27142   1.803   2.279   6.946  0.3683 -1.0597 -0.0659
 8748SOL    HW127143   1.736   2.205   6.942  0.0032 -0.9501  2.4721
 8748SOL    HW227144   1.857   2.271   7.029  1.6566  0.4350 -0.6979
 8749SOL     OW27145   3.536   0.265   3.727 -0.4340  0.2154 -0.4310
 8749SOL    HW127146   3.438   0.254   3.742 -0.2274 -0.2913  0.6553
 8749SOL    HW227147   3.586   0.205   3.789  0.6198  2.1514  0.7100
 8750SOL     OW27148   3.108   7.019   3.809  0.2961  0.0694  0.1054
 8750SOL    HW127149   3.021   7.004   3.762  0.3112 -0.3763  0.2166
 8750SOL    HW227150   3.091   7.037   3.905  0.2974  0.4772  0.0308
 8751SOL     OW27151   1.238   5.922   2.908 -0.2015  0.8498  0.5202
 8751SOL    HW127152   1.274   5.985   2.839  0.2784 -0.7406 -0.7333
 8751SOL    HW227153   1.145   5.950   2.933  0.8503  3.4982  1.9073
 8752SOL     OW27154   3.661   5.895   0.202  0.7968 -0.4275  0.7954
 8752SOL    HW127155   3.698   5.802   0.198 -0.6340 -0.9793 -1.1070
 8752SOL    HW227156   3.589   5.899   0.272  1.6395 -0.4153  1.6825
 8753SOL     OW27157   5.986   3.496   5.420  0.2611 -0.3260 -0.1484
 8753SOL    HW127158   6.057   3.496   5.350 -0.1683  0.8568 -0.5917
 8753SOL    HW227159   6.022   3.538   5.504  0.8545 -1.9553  0.4778
 8754SOL     OW27160   0.897   6.494   4.744 -0.3258 -0.2480  0.0186
 8754SOL    HW127161   0.943   6.583   4.750  0.2727 -0.5725  0.2345
 8754SOL    HW227162   0.847   6.477   4.828 -1.5509  0.4807 -0.5326
 8755SOL     OW27163   0.642   2.246   2.564 -0.0739 -0.1277 -0.8244
 8755SOL    HW127164   0.709   2.256   2.637  1.0518 -0.3231 -1.8004
 8755SOL    HW227165   0.611   2.336   2.534 -0.2387 -0.0370 -0.3791
 8756SOL     OW27166   1.123   5.804   4.138 -0.3433  0.3446  0.0601
 8756SOL    HW127167   1.106   5.797   4.236 -1.9249  3.2869  0.1205
 8756SOL    HW227168   1.209   5.851   4.122 -0.0739 -0.1564  0.0323
 8757SOL     OW27169   3.626   5.713   2.520  0.0926 -0.0441 -0.6141
 8757SOL    HW127170   3.585   5.793   2.475 -1.0694 -0.6891 -0.7325
 8757SOL    HW227171   3.695   5.744   2.586 -2.2439  1.2615  1.3882
 8758SOL     OW27172   4.651   5.638   2.080  0.1896 -0.2579 -0.2477
 8758SOL    HW127173   4.720   5.704   2.109  0.9034 -0.7964 -0.6830
 8758SOL    HW227174   4.582   5.628   2.152  0.7350  0.0487  0.3297
 8759SOL     OW27175   5.539   0.594   5.075 -0.2941  0.2620  0.1087
 8759SOL    HW127176   5.627   0.611   5.118  0.6813  0.3611 -1.8208
 8759SOL    HW227177   5.520   0.496   5.075  0.2819  0.1467 -0.3129
 8760SOL     OW27178   0.554   3.484   1.664  0.4857  0.8335  0.4025
 8760SOL    HW127179   0.519   3.392   1.648  2.0376 -0.0794  1.9614
 8760SOL    HW227180   0.477   3.546   1.681 -0.5757 -0.1714 -0.5216
 8761SOL     OW27181   4.543   5.485   1.320 -1.2030 -0.2388 -0.3486
 8761SOL    HW127182   4.601   5.499   1.400 -1.1389  0.3781 -0.5024
 8761SOL    HW227183   4.568   5.399   1.275 -0.7387 -0.2160 -0.1339
 8762SOL     OW27184   1.911   5.022   1.906 -0.4472  0.0903 -0.1722
 8762SOL    HW127185   1.913   4.986   1.813  0.5708  1.1261 -0.5797
 8762SOL    HW227186   2.003   5.017   1.946 -1.0128 -1.0611  1.0937
 8763SOL     OW27187   1.166   0.054   1.105  0.4531  0.5091 -0.0484
 8763SOL    HW127188   1.179   0.121   1.179 -0.1201 -1.3814  1.8635
 8763SOL    HW227189   1.072   0.021   1.107  0.1645  1.0134 -2.2462
 8764SOL     OW27190   1.906   2.395   6.716  0.0630 -0.1168  0.6697
 8764SOL    HW127191   1.816   2.403   6.672  0.1920  0.3869  0.4844
 8764SOL    HW227192   1.895   2.355   6.807 -0.1400 -1.7133 -0.0320
 8765SOL     OW27193   5.587   1.350   6.038 -0.1152  0.3467 -0.1262
 8765SOL    HW127194   5.672   1.381   6.081 -0.0052 -0.3316  0.1674
 8765SOL    HW227195   5.596   1.253   6.014 -0.6344  0.3976 -0.5388
 8766SOL     OW27196   2.366   4.308   3.571 -0.1404 -0.1966 -0.4002
 8766SOL    HW127197   2.390   4.310   3.668 -0.2629 -2.1661 -0.2896
 8766SOL    HW227198   2.444   4.337   3.516  0.6694 -1.1303  0.2141
 8767SOL     OW27199   6.981   1.498   5.413  0.0402  0.3312  0.0340
 8767SOL    HW127200   7.021   1.565   5.351  0.9725  0.4144  0.6975
 8767SOL    HW227201   7.031   1.412   5.406 -1.7378 -0.6513 -1.5089
 8768SOL     OW27202   0.835   6.356   0.698 -0.3450 -0.4474  0.0267
 8768SOL    HW127203   0.927   6.375   0.664  0.0235  1.0398  1.6722
 8768SOL    HW227204   0.769   6.375   0.626  0.5498 -0.1873 -0.7563
 8769SOL     OW27205   2.024   6.263   5.506 -0.0811 -0.3922 -0.1705
 8769SOL    HW127206   1.930   6.248   5.536 -0.2830 -0.3317 -0.7665
 8769SOL    HW227207   2.064   6.338   5.559 -0.0968 -0.9493  0.6468
 8770SOL     OW27208   6.201   3.476   1.725  0.4893  0.0913  0.8240
 8770SOL    HW127209   6.102   3.472   1.714  0.5396 -0.1683  0.4406
 8770SOL    HW227210   6.239   3.384   1.717  0.7365  0.1573  1.2133
 8771SOL     OW27211   2.536   2.963   0.396 -0.8820 -0.0022  0.0325
 8771SOL    HW127212   2.587   3.029   0.451  0.1975  0.5583 -1.5633
 8771SOL    HW227213   2.470   2.915   0.454 -1.4045  2.1508  1.3391
 8772SOL     OW27214   6.129   5.920   0.856  0.0045 -0.4307  0.3391
 8772SOL    HW127215   6.179   5.842   0.895 -1.1436 -1.1654  0.3865
 8772SOL    HW227216   6.137   5.917   0.756 -0.8141 -1.1574  0.2892
 8773SOL     OW27217   2.260   1.386   1.132  0.4661  0.1897  0.5175
 8773SOL    HW127218   2.359   1.373   1.145  0.2682 -1.1390  0.8635
 8773SOL    HW227219   2.220   1.423   1.215  0.6792  0.8099  0.3481
 8774SOL     OW27220   0.543   1.383   6.554 -0.2979 -0.5509  0.9645
 8774SOL    HW127221   0.455   1.422   6.524 -0.1795 -0.1057  1.1798
 8774SOL    HW227222   0.529   1.289   6.583 -0.0743 -1.6952 -2.2818
 8775SOL     OW27223   4.975   0.103   6.675  0.0668  0.1685  0.3063
 8775SOL    HW127224   4.937   0.075   6.763  2.6233  1.3771  1.9040
 8775SOL    HW227225   4.968   0.202   6.665  0.0604  0.0762 -0.7202
 8776SOL     OW27226   4.434   3.816   6.161 -0.0537 -0.3555 -0.1450
 8776SOL    HW127227   4.360   3.834   6.096 -0.2859 -0.1265  0.1770
 8776SOL    HW227228   4.457   3.719   6.159  0.7533 -0.1618 -1.4223
 8777SOL     OW27229   6.283   5.460   3.088  0.1109 -0.4738 -0.3980
 8777SOL    HW127230   6.296   5.547   3.040 -1.6938 -0.0466 -0.1825
 8777SOL    HW227231   6.221   5.474   3.165  0.6918 -1.7430  0.3163
 8778SOL     OW27232   5.209   2.158   2.955 -0.4983  0.4021  0.1579
 8778SOL    HW127233   5.298   2.152   2.999  0.0350  0.0037 -0.9500
 8778SOL    HW227234   5.183   2.069   2.919 -1.2649  0.5563  0.3091
 8779SOL     OW27235   3.207   4.824   0.354  0.6385  0.3137  0.1789
 8779SOL    HW127236   3.250   4.858   0.271  0.8145 -1.0703 -0.3159
 8779SOL    HW227237   3.108   4.833   0.346  0.7042  1.3046  0.3383
 8780SOL     OW27238   1.195   5.863   5.819 -0.1502 -0.0056  0.1694
 8780SOL    HW127239   1.207   5.777   5.869 -0.3308 -1.1194 -1.6143
 8780SOL    HW227240   1.283   5.910   5.812  0.6385 -1.5860 -1.4330
 8781SOL     OW27241   6.410   3.435   4.214  0.4477 -0.1510  0.1766
 8781SOL    HW127242   6.317   3.425   4.180  0.4541  0.1182  0.0794
 8781SOL    HW227243   6.440   3.349   4.256  0.5412 -0.5768 -0.7306
 8782SOL     OW27244   6.047   2.607   3.776  0.4147  0.0208  0.4540
 8782SOL    HW127245   6.104   2.556   3.713 -0.2809 -0.6466  0.3445
 8782SOL    HW227246   5.966   2.641   3.728 -1.0659 -2.0606  1.3191
 8783SOL     OW27247   1.207   2.966   6.771  0.5828  0.2828  0.0887
 8783SOL    HW127248   1.226   2.896   6.840  0.2884 -2.0737 -2.0722
 8783SOL    HW227249   1.293   3.008   6.743  0.7545  0.9337  1.5042
 8784SOL     OW27250   6.052   3.957   5.776  0.2283  0.1497 -0.2506
 8784SOL    HW127251   5.955   3.979   5.778  0.1135 -0.2421 -1.0472
 8784SOL    HW227252   6.100   4.022   5.717  0.4595  0.3742  0.1836
 8785SOL     OW27253   5.034   6.880   6.969 -0.5316  0.2297  0.2148
 8785SOL    HW127254   5.000   6.830   6.890  0.6711 -1.7698  0.8778
 8785SOL    HW227255   5.118   6.928   6.945 -0.5042  0.1339  0.1196
 8786SOL     OW27256   1.370   6.212   5.161 -0.4502 -0.4653  0.0241
 8786SOL    HW127257   1.278   6.246   5.179  0.2497  1.6538 -0.0188
 8786SOL    HW227258   1.437   6.282   5.187  1.2648 -2.5121  1.4883
 8787SOL     OW27259   2.468   0.564   0.344  0.3260 -0.2802 -0.5105
 8787SOL    HW127260   2.538   0.573   0.415 -0.0756  1.1461 -0.2718
 8787SOL    HW227261   2.377   0.576   0.385  0.0282 -0.6048 -1.0708
 8788SOL     OW27262   0.566   2.323   5.202  0.2133 -0.2456 -0.0462
 8788SOL    HW127263   0.644   2.359   5.255 -0.4213  1.6510 -0.3128
 8788SOL    HW227264   0.569   2.223   5.202  1.0503 -0.2920  2.3547
 8789SOL     OW27265   0.115   1.315   6.108  0.3050 -0.6672 -0.0733
 8789SOL    HW127266   0.029   1.309   6.159 -0.2813 -0.5652 -1.0178
 8789SOL    HW227267   0.146   1.410   6.104  0.5357 -0.7243  0.3914
 8790SOL     OW27268   4.259   0.229   0.316 -0.1118  0.4176  0.4261
 8790SOL    HW127269   4.203   0.156   0.356 -0.9479  1.2153  0.7501
 8790SOL    HW227270   4.340   0.243   0.373  0.1851 -0.4163  0.2231
 8791SOL     OW27271   0.480   0.736   5.378  0.1906  0.2656  0.6316
 8791SOL    HW127272   0.443   0.800   5.310 -0.9637 -2.4892 -1.5636
 8791SOL    HW227273   0.413   0.723   5.451 -0.8342 -0.5290 -0.4148
 8792SOL     OW27274   6.893   1.388   1.612 -0.0792 -0.1959 -0.1331
 8792SOL    HW127275   6.872   1.423   1.703 -1.2024 -3.4758  1.0320
 8792SOL    HW227276   6.808   1.378   1.559  0.2441 -0.6384 -0.5812
 8793SOL     OW27277   1.251   5.676   2.535 -0.2418  0.5015 -0.3023
 8793SOL    HW127278   1.249   5.624   2.621  1.2982  1.1985  0.2032
 8793SOL    HW227279   1.185   5.637   2.471  1.0016 -2.2530 -0.0594
 8794SOL     OW27280   5.534   6.306   2.257 -0.1390 -0.5759  0.5197
 8794SOL    HW127281   5.573   6.391   2.292 -1.2851  0.6851 -1.1232
 8794SOL    HW227282   5.435   6.316   2.248 -0.1807 -1.7256 -0.6551
 8795SOL     OW27283   3.236   0.468   6.415  0.4073 -0.4910  0.1604
 8795SOL    HW127284   3.249   0.532   6.338 -1.6794  1.1740  1.1006
 8795SOL    HW227285   3.174   0.394   6.386  0.1842 -0.2549  0.0239
 8796SOL     OW27286   5.038   3.644   4.361 -0.1020 -0.3893 -0.0397
 8796SOL    HW127287   5.120   3.702   4.359  0.0531 -0.5200  1.4161
 8796SOL    HW227288   4.990   3.652   4.273  1.6882 -0.6587 -1.1104
 8797SOL     OW27289   1.473   3.753   0.899  0.0870 -0.0261 -0.3035
 8797SOL    HW127290   1.554   3.806   0.927 -0.0652  1.4106 -2.3888
 8797SOL    HW227291   1.432   3.711   0.980  0.1698  3.1382  1.5516
 8798SOL     OW27292   3.873   3.051   0.384 -0.0495 -0.6306 -0.1039
 8798SOL    HW127293   3.944   3.034   0.316  0.1268 -2.1970  0.4274
 8798SOL    HW227294   3.827   2.965   0.407 -1.4459  0.1866  0.3145
 8799SOL     OW27295   4.514   6.688   3.055 -0.1739 -0.0498 -0.4797
 8799SOL    HW127296   4.586   6.638   3.007  1.7309  2.6165 -0.6081
 8799SOL    HW227297   4.468   6.751   2.992 -0.3338  0.6522  0.3038
 8800SOL     OW27298   3.722   3.787   6.612 -0.1701 -0.1092 -0.0151
 8800SOL    HW127299   3.748   3.814   6.519 -2.3714 -0.7101 -0.8544
 8800SOL    HW227300   3.804   3.756   6.661  1.0918  0.4737 -1.6331
 8801SOL     OW27301   4.330   0.442   5.564  0.1678 -0.2782  0.3298
 8801SOL    HW127302   4.328   0.373   5.492 -0.2026 -0.0416  0.1138
 8801SOL    HW227303   4.425   0.453   5.596  0.2217 -0.9028  0.3871
 8802SOL     OW27304   6.839   0.799   2.020  0.4646 -0.2943 -0.4120
 8802SOL    HW127305   6.744   0.778   1.997  0.2685 -2.4693  1.8474
 8802SOL    HW227306   6.894   0.801   1.937 -1.3715 -0.0109 -1.6796
 8803SOL     OW27307   5.288   5.986   2.262  0.5044  0.0050 -0.0412
 8803SOL    HW127308   5.351   5.991   2.340  0.8745  1.0519 -0.3916
 8803SOL    HW227309   5.328   6.033   2.184  0.3393 -1.4186 -1.0321
 8804SOL     OW27310   2.409   6.886   0.611 -0.1504 -0.2755 -0.2747
 8804SOL    HW127311   2.376   6.913   0.520  2.0168  1.4876 -0.6127
 8804SOL    HW227312   2.371   6.796   0.634 -2.4162  0.1302 -1.9840
 8805SOL     OW27313   0.692   0.631   3.156  0.1629 -0.1819 -0.2394
 8805SOL    HW127314   0.776   0.622   3.104 -0.1992  1.0054 -1.0790
 8805SOL    HW227315   0.615   0.643   3.094 -0.0336  3.3033  0.4555
 8806SOL     OW27316   2.071   6.120   1.003  0.3429  0.2802  0.7563
 8806SOL    HW127317   2.074   6.145   0.906 -0.1559  1.1378  0.9547
 8806SOL    HW227318   2.035   6.027   1.012 -2.6882  1.3133  0.2792
 8807SOL     OW27319   0.651   4.504   0.124 -0.1620  0.6726 -0.3800
 8807SOL    HW127320   0.582   4.510   0.052  0.4473  2.2712 -0.8784
 8807SOL    HW227321   0.726   4.566   0.103  0.6305  0.2307  1.0189
 8808SOL     OW27322   4.228   0.728   2.578  0.6247  0.3245 -0.0031
 8808SOL    HW127323   4.241   0.826   2.564 -0.4511  0.6160  0.8571
 8808SOL    HW227324   4.242   0.705   2.674  0.5430 -0.3097 -0.1346
 8809SOL     OW27325   6.073   3.032   6.885 -0.2893  0.1327 -0.5250
 8809SOL    HW127326   6.104   3.106   6.945  1.0100  1.0717 -2.2447
 8809SOL    HW227327   6.015   3.070   6.813 -2.5314 -1.0976  0.5235
 8810SOL     OW27328   3.947   1.775   2.944  0.2506 -0.1016 -0.7450
 8810SOL    HW127329   3.858   1.785   2.900 -0.9878 -0.5665  1.5068
 8810SOL    HW227330   3.973   1.678   2.946  0.0365 -0.1534 -0.0376
 8811SOL     OW27331   1.325   1.645   4.067  0.7746  0.3414 -0.2613
 8811SOL    HW127332   1.234   1.614   4.094  1.0085 -0.4592 -0.3436
 8811SOL    HW227333   1.352   1.600   3.982  0.6762  1.6674 -1.0235
 8812SOL     OW27334   2.557   2.239   0.186 -0.1084  1.3492 -0.2212
 8812SOL    HW127335   2.595   2.183   0.260  1.8438  0.9378 -1.4434
 8812SOL    HW227336   2.478   2.193   0.146  0.6495  0.0765 -0.3165
 8813SOL     OW27337   0.402   6.162   2.225  0.6983  0.1330  0.0468
 8813SOL    HW127338   0.386   6.259   2.208  1.6130  0.3426  0.3289
 8813SOL    HW227339   0.470   6.127   2.161 -0.2643 -0.5469 -0.6308
 8814SOL     OW27340   6.589   0.101   6.548 -0.0127 -0.1499 -0.3584
 8814SOL    HW127341   6.604   0.181   6.606 -0.4634 -0.0627 -0.3560
 8814SOL    HW227342   6.522   0.123   6.477 -1.3526 -0.9868  0.6079
 8815SOL     OW27343   5.947   4.976   4.494 -0.1816  0.4897 -0.0991
 8815SOL    HW127344   5.933   4.981   4.593  0.8484 -1.0110  0.1551
 8815SOL    HW227345   5.888   5.044   4.449 -0.1051  1.7433  1.5675
 8816SOL     OW27346   6.382   3.995   1.662  0.3135  0.3014  0.1967
 8816SOL    HW127347   6.351   4.042   1.745  0.7722  0.4324  0.2931
 8816SOL    HW227348   6.303   3.981   1.601  0.2517  1.6845 -0.0718
 8817SOL     OW27349   2.765   6.350   4.804  0.0377 -0.0010 -0.3835
 8817SOL    HW127350   2.832   6.313   4.740  2.4237  2.0198  0.7672
 8817SOL    HW227351   2.704   6.413   4.755 -0.5153 -1.2026 -1.2871
 8818SOL     OW27352   5.139   6.233   5.281 -0.3145 -0.2420 -0.5378
 8818SOL    HW127353   5.197   6.164   5.238 -1.1631 -0.8152 -0.7894
 8818SOL    HW227354   5.069   6.188   5.337  0.4958  0.4684  1.1492
 8819SOL     OW27355   1.572   2.068   6.610 -0.4444  0.8079 -0.3420
 8819SOL    HW127356   1.590   2.166   6.606  1.0452  0.5225 -1.5288
 8819SOL    HW227357   1.659   2.018   6.615 -1.1456 -0.4817 -0.5125
 8820SOL     OW27358   6.738   2.718   3.372 -0.5544 -0.1538  0.4019
 8820SOL    HW127359   6.695   2.730   3.461  0.6112 -0.6873  1.0525
 8820SOL    HW227360   6.736   2.804   3.321 -0.0439  0.5121  1.4888
 8821SOL     OW27361   0.949   5.325   4.726 -0.5830  0.0154 -0.2202
 8821SOL    HW127362   0.955   5.256   4.654 -2.0720 -0.1357 -0.2408
 8821SOL    HW227363   0.998   5.293   4.807 -0.1495 -0.4745 -0.6741
 8822SOL     OW27364   0.311   2.919   2.652  0.1343 -0.4343  0.1754
 8822SOL    HW127365   0.385   2.926   2.719  0.7680  1.8724 -0.6786
 8822SOL    HW227366   0.344   2.944   2.562 -1.2595 -1.2502 -0.6032
 8823SOL     OW27367   0.764   6.052   5.922  0.0403  0.7966 -0.0642
 8823SOL    HW127368   0.859   6.061   5.951  0.1842 -0.3383 -0.1371
 8823SOL    HW227369   0.759   6.001   5.837 -0.6413  0.7130  0.0150
 8824SOL     OW27370   5.505   2.987   1.193  0.0067 -0.1208 -0.2459
 8824SOL    HW127371   5.457   3.055   1.137  2.3811  1.4806 -0.5168
 8824SOL    HW227372   5.600   2.979   1.161  0.9109 -0.6062  2.3011
 8825SOL     OW27373   1.220   3.822   6.371  0.1146  0.0528  0.1374
 8825SOL    HW127374   1.207   3.723   6.370 -0.8999 -0.0954 -5.4124
 8825SOL    HW227375   1.313   3.844   6.344 -0.3373  0.4841 -1.1608
 8826SOL     OW27376   4.592   1.727   0.626 -0.1753 -0.2470  0.1880
 8826SOL    HW127377   4.590   1.667   0.546  1.8877  1.2926 -1.1355
 8826SOL    HW227378   4.665   1.697   0.688 -1.4788 -1.1688  1.3299
 8827SOL     OW27379   6.159   1.733   2.684  0.0915  0.6456  0.2699
 8827SOL    HW127380   6.111   1.749   2.598  1.0939  0.2296 -0.3818
 8827SOL    HW227381   6.095   1.693   2.751 -0.1710 -1.3051 -1.0469
 8828SOL     OW27382   0.646   5.679   4.297  0.9525  0.7059  0.0147
 8828SOL    HW127383   0.717   5.749   4.309  1.4176  0.5697 -1.7552
 8828SOL    HW227384   0.630   5.662   4.200 -0.9704  0.1548  0.3687
 8829SOL     OW27385   6.530   1.048   0.012  0.9354  0.0355  0.0138
 8829SOL    HW127386   6.431   1.050   0.026  1.2131  0.7483  2.2322
 8829SOL    HW227387   6.555   1.116  -0.058 -0.1403 -0.3621 -0.7858
 8830SOL     OW27388   0.098   1.608   1.035  0.0978 -0.6551 -0.5801
 8830SOL    HW127389   0.076   1.580   0.941  0.6339 -1.1376 -0.5721
 8830SOL    HW227390   0.197   1.620   1.043  0.0640 -0.7029 -0.0497
 8831SOL     OW27391   0.307   0.668   1.666 -0.5586  0.6180 -0.0685
 8831SOL    HW127392   0.357   0.662   1.580 -0.4928 -0.1308  0.0240
 8831SOL    HW227393   0.270   0.579   1.690 -2.5492  1.2740 -0.4935
 8832SOL     OW27394   5.488   0.551   2.145  0.5888  0.3871 -0.6970
 8832SOL    HW127395   5.398   0.589   2.125  0.0818 -0.9814 -1.1233
 8832SOL    HW227396   5.545   0.620   2.190 -1.4885  0.5496  1.9315
 8833SOL     OW27397   6.186   3.538   0.526 -0.0786  0.9411 -0.4029
 8833SOL    HW127398   6.088   3.529   0.548 -0.5146 -0.6540 -2.6177
 8833SOL    HW227399   6.198   3.608   0.456  0.2578  0.6010 -0.6856
 8834SOL     OW27400   6.889   3.608   5.322 -0.3121  0.2224 -0.5593
 8834SOL    HW127401   6.877   3.620   5.224  2.0722 -2.6130 -1.3400
 8834SOL    HW227402   6.801   3.588   5.365 -1.5087  2.2433 -1.9122
 8835SOL     OW27403   1.713   2.765   0.222 -0.2030  0.3017 -0.0802
 8835SOL    HW127404   1.639   2.809   0.171 -1.5378 -1.2808  0.3878
 8835SOL    HW227405   1.674   2.709   0.296  1.3629 -1.6564 -0.6400
 8836SOL     OW27406   5.346   4.037   1.494 -0.1697 -0.8349 -0.2955
 8836SOL    HW127407   5.429   4.023   1.440 -0.1200 -1.6295 -0.0197
 8836SOL    HW227408   5.298   3.950   1.506  0.3056 -0.8734  1.7262
 8837SOL     OW27409   0.857   2.338   2.103  0.2474  0.8055 -0.7252
 8837SOL    HW127410   0.857   2.238   2.101 -1.0971  0.7881 -1.0827
 8837SOL    HW227411   0.937   2.371   2.153 -1.0640 -0.5244  2.5190
 8838SOL     OW27412   1.361   0.114   4.670  0.0052  0.1303  0.2642
 8838SOL    HW127413   1.326   0.177   4.739  0.2946  0.1467  0.3946
 8838SOL    HW227414   1.346   0.153   4.579  1.4626  1.0406  0.3882
 8839SOL     OW27415   4.731   4.995   4.963 -0.4160 -0.6408  0.2167
 8839SOL    HW127416   4.810   4.978   4.904 -0.9381  0.2678 -0.7787
 8839SOL    HW227417   4.652   4.944   4.928 -0.4558 -0.9900  0.7989
 8840SOL     OW27418   3.377   7.011   2.303  0.4316  1.0481  0.3807
 8840SOL    HW127419   3.387   7.091   2.244 -0.8151  0.8918 -0.0759
 8840SOL    HW227420   3.463   6.994   2.352  1.1931  1.7280 -0.6872
 8841SOL     OW27421   5.012   6.252   2.458 -0.8803  0.0765  0.9450
 8841SOL    HW127422   4.939   6.194   2.422  0.7412 -0.4299 -1.8332
 8841SOL    HW227423   4.995   6.347   2.434 -0.7087 -0.0185  0.4475
 8842SOL     OW27424   0.623   0.771   1.727  0.6203 -0.0505  0.4451
 8842SOL    HW127425   0.696   0.752   1.792  0.9031 -0.9586 -0.1133
 8842SOL    HW227426   0.537   0.734   1.761  0.8679 -0.9842  0.0796
 8843SOL     OW27427   6.515   2.356   6.234  0.2058 -0.5855  0.4310
 8843SOL    HW127428   6.511   2.422   6.309 -1.2615 -1.1454  0.8750
 8843SOL    HW227429   6.583   2.386   6.167  0.5712  0.6297  1.3112
 8844SOL     OW27430   5.187   2.861   6.448  0.6683 -0.1439 -0.1774
 8844SOL    HW127431   5.224   2.952   6.429 -0.5372  0.6125  0.9301
 8844SOL    HW227432   5.260   2.801   6.480  0.9948  1.3889  2.2610
 8845SOL     OW27433   5.622   4.156   6.235  0.4874  0.0774 -0.0952
 8845SOL    HW127434   5.646   4.078   6.293 -1.6181 -0.0445  0.6991
 8845SOL    HW227435   5.706   4.202   6.204  1.7266 -1.5824  0.6532
 8846SOL     OW27436   3.135   4.970   3.895 -0.0420 -0.0043  0.3864
 8846SOL    HW127437   3.137   5.023   3.810 -0.4757 -0.3536  0.1551
 8846SOL    HW227438   3.226   4.970   3.936  0.7347 -1.6006 -1.1936
 8847SOL     OW27439   1.802   0.681   2.665  0.2807  0.5813 -0.3523
 8847SOL    HW127440   1.784   0.692   2.567  2.2366  1.9710 -0.6135
 8847SOL    HW227441   1.802   0.584   2.689  0.1187  0.2058 -1.7911
 8848SOL     OW27442   5.012   1.378   4.379  0.5320 -0.5342  0.0704
 8848SOL    HW127443   5.050   1.423   4.299  0.8866 -0.8635  0.0535
 8848SOL    HW227444   4.912   1.385   4.377  0.3131 -2.9413 -1.8805
 8849SOL     OW27445   2.436   0.563   2.580 -0.1482 -0.1690 -0.2313
 8849SOL    HW127446   2.430   0.661   2.600 -2.3243 -0.1790 -0.6358
 8849SOL    HW227447   2.521   0.544   2.530  1.9514  0.9428  2.6071
 8850SOL     OW27448   5.332   1.703   1.052 -0.2977 -0.5959  0.5194
 8850SOL    HW127449   5.266   1.776   1.036 -0.7739 -1.0821  0.2592
 8850SOL    HW227450   5.424   1.737   1.033 -0.4804  0.0328  0.7219
 8851SOL     OW27451   1.857   2.256   2.520 -0.2113  0.2111 -0.5228
 8851SOL    HW127452   1.895   2.164   2.506 -0.4205  0.0467 -0.0245
 8851SOL    HW227453   1.905   2.321   2.461  1.0044  0.0498  0.2535
 8852SOL     OW27454   1.830   3.731   3.876  0.0172 -0.1263  0.0496
 8852SOL    HW127455   1.732   3.709   3.878  0.2618 -1.4185 -1.0589
 8852SOL    HW227456   1.841   3.831   3.877 -1.4076  0.1185 -2.0440
 8853SOL     OW27457   4.251   0.599   2.933  0.0284  0.1974  0.1885
 8853SOL    HW127458   4.157   0.565   2.929  0.5041 -1.1919  0.3211
 8853SOL    HW227459   4.282   0.598   3.028  0.1004  0.9179  0.1801
 8854SOL     OW27460   0.878   2.157   6.554  0.1299 -0.4506  0.0640
 8854SOL    HW127461   0.889   2.098   6.475  0.4287 -1.7525  1.0364
 8854SOL    HW227462   0.814   2.116   6.618  0.1824  0.3840  0.6743
 8855SOL     OW27463   4.751   4.475   6.693  0.5359  0.1331 -0.1153
 8855SOL    HW127464   4.764   4.520   6.781  2.2059 -0.5818  0.0548
 8855SOL    HW227465   4.686   4.399   6.702  0.0300  0.6110  0.2829
 8856SOL     OW27466   5.416   0.121   5.432 -0.4289  0.0891  0.0303
 8856SOL    HW127467   5.459   0.076   5.511  0.9058  1.0075 -0.1441
 8856SOL    HW227468   5.461   0.091   5.348  1.2380  2.4603 -0.0198
 8857SOL     OW27469   0.845   1.223   6.409 -0.5442 -0.6927 -0.0303
 8857SOL    HW127470   0.842   1.298   6.344  1.4963 -0.2419  0.3222
 8857SOL    HW227471   0.853   1.259   6.502  1.0183 -1.2944  0.1017
 8858SOL     OW27472   0.960   4.472   5.747 -0.1380  0.5926  0.2103
 8858SOL    HW127473   0.908   4.395   5.710  2.9479 -1.9954  0.8365
 8858SOL    HW227474   0.996   4.526   5.672 -0.5051  0.1106 -0.3242
 8859SOL     OW27475   1.384   5.191   3.315  0.3062 -0.3937  0.1173
 8859SOL    HW127476   1.455   5.167   3.249  0.2343  1.1302 -0.5624
 8859SOL    HW227477   1.424   5.245   3.388 -0.1556  0.6298 -0.3657
 8860SOL     OW27478   0.114   2.289   5.235 -0.5244 -0.7278 -0.2308
 8860SOL    HW127479   0.158   2.246   5.314  0.7530  1.3868  0.2925
 8860SOL    HW227480   0.156   2.379   5.218 -3.4743  0.6732 -0.8008
 8861SOL     OW27481   4.430   3.297   0.883  0.0850  0.1826  0.0655
 8861SOL    HW127482   4.394   3.369   0.942  0.1871  0.8912 -0.7172
 8861SOL    HW227483   4.464   3.337   0.798 -1.0718 -0.9234 -0.9612
 8862SOL     OW27484   5.928   5.306   4.734  0.0630  0.8426  0.0881
 8862SOL    HW127485   5.992   5.298   4.811  0.1162 -1.7298 -0.1365
 8862SOL    HW227486   5.874   5.223   4.728 -1.6817  2.0165 -1.1964
 8863SOL     OW27487   1.520   3.328   3.495  0.7843 -0.2591 -0.4307
 8863SOL    HW127488   1.580   3.405   3.518 -0.3306  0.8250 -1.0065
 8863SOL    HW227489   1.492   3.282   3.580 -0.4660  1.5100  0.1930
 8864SOL     OW27490   6.430   3.108   3.522  0.0580  0.1502  0.3686
 8864SOL    HW127491   6.441   3.151   3.611  1.7827 -0.1738  0.3311
 8864SOL    HW227492   6.500   3.039   3.509 -0.2896  0.0502 -1.1657
 8865SOL     OW27493   1.848   0.491   6.926 -0.4422  0.3360 -0.8705
 8865SOL    HW127494   1.879   0.543   7.006 -0.3895 -0.5126 -0.3315
 8865SOL    HW227495   1.871   0.542   6.843  0.8455  0.5462 -0.4146
 8866SOL     OW27496   6.141   0.673   3.508  0.2941  0.1234 -0.6631
 8866SOL    HW127497   6.204   0.704   3.580 -0.5257  0.6961 -0.1687
 8866SOL    HW227498   6.095   0.590   3.539 -0.5197  0.7156 -0.2395
 8867SOL     OW27499   5.440   2.896   4.417  0.2990  0.1052  0.0217
 8867SOL    HW127500   5.534   2.930   4.420  0.7016 -1.0448  1.4972
 8867SOL    HW227501   5.399   2.904   4.507 -0.7957 -0.0438 -0.4497
 8868SOL     OW27502   0.423   2.452   2.809  0.2408 -0.8342  0.1047
 8868SOL    HW127503   0.451   2.421   2.900  0.9157 -0.1736  0.1281
 8868SOL    HW227504   0.458   2.544   2.793 -1.2729 -0.2935 -0.1828
 8869SOL     OW27505   3.468   1.002   4.191  0.3362  0.1501  0.1690
 8869SOL    HW127506   3.537   1.042   4.131  1.3691  0.3058  1.4176
 8869SOL    HW227507   3.485   0.904   4.201  0.5400  0.2305  0.6630
 8870SOL     OW27508   1.275   2.273   0.580 -0.2009  0.2622  0.2223
 8870SOL    HW127509   1.317   2.183   0.572 -1.8626 -0.4438 -0.9521
 8870SOL    HW227510   1.248   2.289   0.675  0.1219 -0.4559  0.4402
 8871SOL     OW27511   5.902   0.156   6.916  0.3189 -0.2025  0.0497
 8871SOL    HW127512   5.915   0.249   6.948  1.5080 -0.0575 -0.7890
 8871SOL    HW227513   5.833   0.111   6.972 -0.5233  1.2779  0.2497
 8872SOL     OW27514   0.603   6.046   2.006  0.2600 -0.2089 -0.1755
 8872SOL    HW127515   0.527   6.027   1.944 -0.2757  0.5893  0.2321
 8872SOL    HW227516   0.662   6.116   1.966 -0.6091  1.0087  0.6163
 8873SOL     OW27517   1.312   2.171   2.094 -0.1557 -0.1923  0.6720
 8873SOL    HW127518   1.308   2.184   2.193  2.3257 -0.8059  0.9369
 8873SOL    HW227519   1.325   2.259   2.049  0.8056 -0.0991  1.0987
 8874SOL     OW27520   3.990   6.398   1.173  0.2448 -0.7431  0.2706
 8874SOL    HW127521   3.895   6.369   1.163 -0.2817  1.0607 -0.1120
 8874SOL    HW227522   3.995   6.478   1.233  1.8682 -2.6087  2.8714
 8875SOL     OW27523   0.264   0.520   6.553 -0.0643 -0.2399 -0.0432
 8875SOL    HW127524   0.360   0.545   6.539 -0.0789 -0.3955 -0.4528
 8875SOL    HW227525   0.254   0.468   6.637 -0.3358  2.9643  2.0896
 8876SOL     OW27526   3.629   0.622   0.086  0.1129 -0.5440 -0.2152
 8876SOL    HW127527   3.690   0.641   0.163  0.9774 -2.1024 -0.4772
 8876SOL    HW227528   3.640   0.693   0.016  1.4829 -0.6890 -0.1705
 8877SOL     OW27529   6.635   3.241   3.209 -0.1027  0.5356  0.2065
 8877SOL    HW127530   6.691   3.269   3.131 -0.4566 -0.7121 -0.5295
 8877SOL    HW227531   6.563   3.180   3.177  1.1162 -1.8892  1.7933
 8878SOL     OW27532   4.508   4.785   1.855  0.0076 -0.3282 -0.2279
 8878SOL    HW127533   4.605   4.796   1.875 -0.3485  1.0469  0.9414
 8878SOL    HW227534   4.488   4.822   1.764  0.5090 -0.2460 -0.3052
 8879SOL     OW27535   5.738   4.251   4.048 -0.1520  0.3907 -0.1385
 8879SOL    HW127536   5.773   4.274   3.957 -1.8199 -1.3734 -1.2789
 8879SOL    HW227537   5.760   4.156   4.069 -0.3440  0.5993  1.0434
 8880SOL     OW27538   2.829   0.293   3.035 -0.6250  0.0673  0.1366
 8880SOL    HW127539   2.890   0.370   3.016 -1.6443  0.5068 -1.6221
 8880SOL    HW227540   2.766   0.319   3.108 -2.9519  2.2059 -2.4022
 8881SOL     OW27541   6.591   6.502   1.954 -0.3032  0.3575  0.0038
 8881SOL    HW127542   6.646   6.444   2.013 -1.2293  0.4013  0.9283
 8881SOL    HW227543   6.507   6.530   2.001  0.4384  3.0769 -0.0869
 8882SOL     OW27544   4.133   5.960   0.233  0.7816  0.0604  0.1720
 8882SOL    HW127545   4.137   5.873   0.185  0.6630  0.0365  0.2053
 8882SOL    HW227546   4.049   5.965   0.287  0.7329  0.2436  0.0786
 8883SOL     OW27547   1.232   6.460   2.553 -0.5212  0.1525 -0.2283
 8883SOL    HW127548   1.210   6.372   2.510  0.8212  0.9927 -2.7477
 8883SOL    HW227549   1.157   6.524   2.537 -1.4674 -0.4351  1.5478
 8884SOL     OW27550   4.147   2.029   5.602  0.1929 -0.4018  0.4517
 8884SOL    HW127551   4.233   2.074   5.578 -0.2201  0.4596  0.5366
 8884SOL    HW227552   4.074   2.098   5.610 -0.5131 -1.1165  0.3484
 8885SOL     OW27553   3.874   4.201   6.082  0.0868  0.0465 -0.0945
 8885SOL    HW127554   3.856   4.270   6.152  2.0262  0.6158 -0.1001
 8885SOL    HW227555   3.829   4.228   5.997 -1.2723 -0.0290  0.5731
 8886SOL     OW27556   5.633   5.515   1.403 -0.2765  0.1146  0.3898
 8886SOL    HW127557   5.661   5.441   1.463 -0.1708 -0.2345 -0.0839
 8886SOL    HW227558   5.545   5.494   1.361 -0.7848  0.7622  1.1068
 8887SOL     OW27559   3.276   0.540   2.991  0.2627 -0.0128  0.1297
 8887SOL    HW127560   3.260   0.597   2.911  0.5354 -1.3280 -0.9142
 8887SOL    HW227561   3.330   0.590   3.058  0.3880  0.9813 -0.6965
 8888SOL     OW27562   4.174   0.907   3.008  0.3387  0.2239 -0.1728
 8888SOL    HW127563   4.173   0.936   2.913 -1.4594 -1.6789 -0.7906
 8888SOL    HW227564   4.198   0.810   3.014 -0.8293 -0.0198  1.1664
 8889SOL     OW27565   2.164   4.491   0.422  0.3051 -0.2852  0.9669
 8889SOL    HW127566   2.140   4.516   0.516  0.5534  0.2225  0.8963
 8889SOL    HW227567   2.257   4.520   0.402 -0.4502  1.5371 -0.1234
 8890SOL     OW27568   2.586   5.295   1.342 -0.0453 -0.0913 -0.2443
 8890SOL    HW127569   2.592   5.245   1.256 -1.9168  1.3824 -1.3085
 8890SOL    HW227570   2.491   5.297   1.373  0.1549  1.7567  0.3934
 8891SOL     OW27571   5.675   3.677   4.610 -0.5065  0.0007 -0.2304
 8891SOL    HW127572   5.672   3.683   4.511 -0.6231  0.4259 -0.2022
 8891SOL    HW227573   5.591   3.715   4.649  0.5403  2.0648  0.1241
 8892SOL     OW27574   2.266   4.366   5.088  0.3447 -0.1007  0.1612
 8892SOL    HW127575   2.323   4.318   5.155  0.9969  0.4671  0.0264
 8892SOL    HW227576   2.170   4.345   5.104  0.6253 -1.5949 -0.0156
 8893SOL     OW27577   5.136   3.927   3.901 -0.3611 -0.3645 -0.2257
 8893SOL    HW127578   5.094   3.941   3.991  0.4232 -1.8022  0.3957
 8893SOL    HW227579   5.067   3.943   3.830 -0.3665  3.5177  0.3951
 8894SOL     OW27580   4.137   1.864   1.096 -0.6234 -0.0814  0.1917
 8894SOL    HW127581   4.138   1.912   1.184  0.2222  0.3835 -0.0523
 8894SOL    HW227582   4.225   1.878   1.050  0.1988 -2.9863  0.6971
 8895SOL     OW27583   0.935   3.892   2.832 -0.4897  0.2108  0.2638
 8895SOL    HW127584   0.955   3.988   2.851  1.1559 -0.4072  2.0681
 8895SOL    HW227585   0.837   3.879   2.822 -0.7740  1.9977  0.5346
 8896SOL     OW27586   6.853   6.121   6.172  0.9316 -0.1657  0.0452
 8896SOL    HW127587   6.773   6.169   6.208  2.0264  2.6611 -1.0079
 8896SOL    HW227588   6.903   6.078   6.247 -0.7888 -0.8174  0.8833
 8897SOL     OW27589   1.030   3.935   4.391  0.2279  0.2575  0.0074
 8897SOL    HW127590   1.075   3.937   4.302 -0.8924 -1.3800 -0.6608
 8897SOL    HW227591   0.955   3.868   4.389 -0.5791  1.0295  1.8348
 8898SOL     OW27592   5.267   3.128   1.935 -0.4363  0.4529 -0.4056
 8898SOL    HW127593   5.181   3.099   1.892 -0.4560 -0.8897  0.4693
 8898SOL    HW227594   5.340   3.129   1.867 -1.0069  0.9945 -1.0235
 8899SOL     OW27595   4.092   5.377   0.972  0.5081 -0.3061 -0.1347
 8899SOL    HW127596   4.189   5.351   0.981  0.3901 -1.9119 -2.5987
 8899SOL    HW227597   4.042   5.347   1.054  1.5754 -2.2592 -0.1262
 8900SOL     OW27598   5.026   1.246   4.971  0.5191 -0.3729 -0.0710
 8900SOL    HW127599   4.988   1.327   5.014  0.4982 -0.7534  0.6523
 8900SOL    HW227600   5.121   1.264   4.944  0.6630 -0.2483  0.5023
 8901SOL     OW27601   3.081   5.482   0.611 -0.3093  0.1311  0.2124
 8901SOL    HW127602   3.050   5.398   0.567 -0.1266 -0.2765  0.8369
 8901SOL    HW227603   3.028   5.560   0.578  0.3080 -0.0428 -1.2527
 8902SOL     OW27604   1.488   5.118   5.502  0.0677  0.1290  0.3367
 8902SOL    HW127605   1.441   5.031   5.521 -0.4031  0.3130  0.0334
 8902SOL    HW227606   1.565   5.101   5.441 -0.6779  0.0652 -0.6157
 8903SOL     OW27607   0.386   6.781   6.051  0.0440  0.4143  0.0661
 8903SOL    HW127608   0.479   6.765   6.085  0.1911  2.4881  0.8131
 8903SOL    HW227609   0.373   6.734   5.964  2.2242  1.0758 -0.6753
 8904SOL     OW27610   4.893   0.377   3.503 -0.1444  0.4877  0.5124
 8904SOL    HW127611   4.917   0.284   3.477  0.4475 -0.0539  2.7301
 8904SOL    HW227612   4.830   0.416   3.437  0.9720 -0.8355 -1.4148
 8905SOL     OW27613   6.825   4.477   0.748  0.0879  0.1618  0.3311
 8905SOL    HW127614   6.778   4.442   0.830 -1.6220  0.1157 -0.6289
 8905SOL    HW227615   6.795   4.570   0.729  0.0384 -0.0267 -0.5588
 8906SOL     OW27616   6.257   1.959   5.754  0.2235  0.0557 -0.2455
 8906SOL    HW127617   6.344   1.962   5.803  2.0671  0.4437 -3.2919
 8906SOL    HW227618   6.219   2.051   5.748  0.0838  0.0339  0.2860
 8907SOL     OW27619   1.172   3.616   5.460  0.4851  0.3884  0.3142
 8907SOL    HW127620   1.162   3.542   5.393 -0.6922  1.4917 -0.7779
 8907SOL    HW227621   1.161   3.579   5.552  1.8840 -1.1189 -0.0784
 8908SOL     OW27622   1.151   5.616   6.586 -0.4946  0.4368  0.1133
 8908SOL    HW127623   1.173   5.709   6.556 -0.4556 -0.1964 -1.9541
 8908SOL    HW227624   1.061   5.590   6.552 -0.1397 -0.5802 -0.1037
 8909SOL     OW27625   3.223   0.925   2.178 -0.1807  0.1499 -0.2604
 8909SOL    HW127626   3.222   0.825   2.176 -0.1792  0.1492 -2.6525
 8909SOL    HW227627   3.158   0.957   2.247 -1.5530 -1.5113 -0.7008
 8910SOL     OW27628   5.875   0.133   5.729 -0.2197  0.0440  0.2865
 8910SOL    HW127629   5.794   0.184   5.760 -0.8519 -0.1961 -0.9230
 8910SOL    HW227630   5.957   0.188   5.744 -0.3798 -0.2848  2.9491
 8911SOL     OW27631   5.109   1.338   4.070  0.0760  0.1724  0.0979
 8911SOL    HW127632   5.089   1.404   3.997 -1.0380  1.3699  1.4138
 8911SOL    HW227633   5.034   1.273   4.078 -1.6518  2.2589  2.4560
 8912SOL     OW27634   3.311   3.408   3.627 -0.0347  0.0422 -0.5711
 8912SOL    HW127635   3.261   3.379   3.545 -0.2118 -1.0612 -0.0843
 8912SOL    HW227636   3.290   3.503   3.646 -1.5258 -0.2318 -0.6986
 8913SOL     OW27637   5.463   6.477   1.766 -0.7733 -0.1218  0.4741
 8913SOL    HW127638   5.397   6.549   1.746  0.1801  0.9015  0.8942
 8913SOL    HW227639   5.418   6.402   1.814 -1.7876  0.1777  0.0086
 8914SOL     OW27640   2.859   5.447   6.192  0.0137  0.0481 -0.8157
 8914SOL    HW127641   2.780   5.504   6.169  0.8301  1.5168 -0.0618
 8914SOL    HW227642   2.826   5.361   6.233 -1.2122  1.3709  1.1626
 8915SOL     OW27643   2.253   1.986   1.130 -0.3769  0.8403  0.0708
 8915SOL    HW127644   2.263   1.940   1.042  0.6166 -2.9067  1.9724
 8915SOL    HW227645   2.343   2.011   1.165 -0.8442  3.9989 -0.6034
 8916SOL     OW27646   6.501   7.020   3.265  0.1513  0.9892  0.4025
 8916SOL    HW127647   6.446   7.093   3.225 -0.2934  1.3878  1.6938
 8916SOL    HW227648   6.561   7.058   3.336  1.1097  0.3498 -0.0395
 8917SOL     OW27649   0.432   2.721   6.194 -0.0494  0.9999  0.0343
 8917SOL    HW127650   0.524   2.727   6.156 -0.5690  1.4305 -1.1874
 8917SOL    HW227651   0.394   2.630   6.174 -0.0429  0.9626  0.1891
 8918SOL     OW27652   7.022   4.332   3.383  0.2793 -0.1217 -0.4880
 8918SOL    HW127653   7.117   4.360   3.374  0.4589  0.1741  1.8204
 8918SOL    HW227654   7.017   4.237   3.412 -0.1118  0.0151 -0.0989
 8919SOL     OW27655   6.281   3.449   2.375  0.1515 -0.1332 -0.2317
 8919SOL    HW127656   6.226   3.397   2.309  1.0453  0.5157 -1.5209
 8919SOL    HW227657   6.345   3.508   2.327  1.3218 -0.1357  1.2301
 8920SOL     OW27658   1.883   1.169   1.038  0.1207 -0.4844 -0.1257
 8920SOL    HW127659   1.869   1.251   0.983 -0.9433 -0.7576 -0.2751
 8920SOL    HW227660   1.935   1.102   0.984 -0.4977 -0.5674 -0.6245
 8921SOL     OW27661   1.612   2.110   2.025 -0.1656 -0.0767 -0.4651
 8921SOL    HW127662   1.520   2.144   2.043  0.1002  1.7800 -2.3032
 8921SOL    HW227663   1.631   2.114   1.927  1.5859 -1.2391 -0.2198
 8922SOL     OW27664   3.503   5.390   2.140  0.1268  0.5722  0.6075
 8922SOL    HW127665   3.601   5.396   2.156  0.3875 -0.2308 -0.5372
 8922SOL    HW227666   3.483   5.308   2.086 -1.1610  0.7818  0.7253
 8923SOL     OW27667   4.600   1.131   4.440  0.0664  0.1451 -0.5354
 8923SOL    HW127668   4.523   1.143   4.502 -0.6670  2.1733 -1.7478
 8923SOL    HW227669   4.572   1.071   4.364 -0.3762  0.9527 -1.0224
 8924SOL     OW27670   5.820   5.953   0.063 -0.7789 -0.4122  0.1606
 8924SOL    HW127671   5.780   6.017  -0.002  1.0925  1.1009  0.4094
 8924SOL    HW227672   5.820   5.861   0.024 -2.4824 -0.1138 -0.6649
 8925SOL     OW27673   5.850   6.417   4.976 -0.3444 -0.1452 -0.2510
 8925SOL    HW127674   5.858   6.387   5.072  0.5950  0.1148 -0.2419
 8925SOL    HW227675   5.923   6.481   4.955 -1.6659  1.3071 -0.6049
 8926SOL     OW27676   6.052   3.430   6.529  0.1730  0.3777 -0.3482
 8926SOL    HW127677   5.960   3.408   6.498  0.4527  0.1507 -1.0413
 8926SOL    HW227678   6.119   3.375   6.478  0.6297 -0.3625  0.9989
 8927SOL     OW27679   1.654   0.290   6.924 -0.2975 -0.0813 -0.8123
 8927SOL    HW127680   1.695   0.373   6.962 -1.5747 -0.0335  0.5784
 8927SOL    HW227681   1.618   0.234   6.999 -0.1480 -1.5192 -1.7805
 8928SOL     OW27682   4.944   6.710   4.184 -0.0624  0.6593  0.0901
 8928SOL    HW127683   4.918   6.628   4.133 -2.4379  1.7041 -0.5036
 8928SOL    HW227684   4.973   6.782   4.121 -0.5518  1.1308  0.3924
 8929SOL     OW27685   1.102   2.388   3.719  0.0926 -0.2512 -0.5623
 8929SOL    HW127686   1.200   2.409   3.727 -0.4688  2.5100 -0.0115
 8929SOL    HW227687   1.050   2.445   3.782 -1.8330 -2.6327  0.1511
 8930SOL     OW27688   1.473   4.829   1.590 -0.1233  0.5765  0.4395
 8930SOL    HW127689   1.467   4.905   1.525  0.5673  0.9636  0.8153
 8930SOL    HW227690   1.420   4.850   1.672  0.7141  1.0227  0.8849
 8931SOL     OW27691   4.327   3.329   6.967  0.1512  0.1018  0.0507
 8931SOL    HW127692   4.307   3.384   7.048  1.6125 -1.1924  1.3216
 8931SOL    HW227693   4.245   3.278   6.941 -0.4295  0.7861  0.4840
 8932SOL     OW27694   6.799   1.995   1.243 -0.2157 -0.4380 -0.1929
 8932SOL    HW127695   6.846   2.052   1.176  0.4881 -0.6913  0.0679
 8932SOL    HW227696   6.808   2.036   1.334  0.6286 -1.1440  0.0553
 8933SOL     OW27697   5.413   1.936   5.062  0.2615 -0.5559 -0.4199
 8933SOL    HW127698   5.338   1.897   5.009 -1.4192 -0.6677  1.8945
 8933SOL    HW227699   5.438   1.873   5.136  1.9126 -0.0362 -0.4944
 8934SOL     OW27700   1.362   0.121   2.301  0.4435  0.1514 -0.8372
 8934SOL    HW127701   1.329   0.193   2.363  2.3008  0.7417 -0.4740
 8934SOL    HW227702   1.388   0.041   2.354 -0.9086 -0.5397 -1.1781
 8935SOL     OW27703   1.532   6.111   5.966 -0.4181  0.4689  0.3069
 8935SOL    HW127704   1.610   6.166   5.937  0.5151 -1.0371 -0.1453
 8935SOL    HW227705   1.536   6.095   6.065 -1.1675  1.8767  0.5970
 8936SOL     OW27706   5.933   5.193   0.793 -0.4835  0.4325  0.3370
 8936SOL    HW127707   5.855   5.242   0.834 -0.3819 -0.2883  1.4357
 8936SOL    HW227708   5.970   5.129   0.860 -2.4105 -3.3323 -1.9120
 8937SOL     OW27709   2.060   1.751   1.160  0.2459 -0.4326  0.3784
 8937SOL    HW127710   2.118   1.816   1.209  2.2866 -1.4369 -0.6025
 8937SOL    HW227711   1.965   1.784   1.162  0.9877  1.8899  1.0040
 8938SOL     OW27712   5.147   4.243   1.544  0.8669  0.1649  0.6989
 8938SOL    HW127713   5.207   4.164   1.553 -0.5941 -0.9528  1.1730
 8938SOL    HW227714   5.151   4.278   1.450  0.4993 -1.3856  0.0726
 8939SOL     OW27715   6.567   3.259   3.761 -0.1844 -0.4475 -0.3685
 8939SOL    HW127716   6.596   3.341   3.810  1.9873 -0.0011 -2.2446
 8939SOL    HW227717   6.625   3.182   3.787  0.1651 -0.5019 -1.2823
 8940SOL     OW27718   5.717   6.757   0.273  0.1691  0.4486 -0.0902
 8940SOL    HW127719   5.808   6.727   0.246 -0.0839  0.4424 -0.9687
 8940SOL    HW227720   5.663   6.777   0.191 -0.6801  0.2646  0.4169
 8941SOL     OW27721   4.801   2.256   0.655 -0.3029  0.5180 -0.4172
 8941SOL    HW127722   4.771   2.231   0.563 -1.4371  0.7999 -0.1438
 8941SOL    HW227723   4.731   2.228   0.721 -0.6913  2.5392  0.1018
 8942SOL     OW27724   0.947   1.518   4.410  0.1818 -0.6965 -0.4784
 8942SOL    HW127725   1.008   1.597   4.410 -1.5464  0.7139 -1.3349
 8942SOL    HW227726   0.884   1.526   4.487  0.4978 -1.6689 -0.1143
 8943SOL     OW27727   4.087   2.589   6.665  0.2090  0.4954 -0.1679
 8943SOL    HW127728   4.183   2.607   6.643  0.6583 -1.7156 -0.2090
 8943SOL    HW227729   4.060   2.500   6.629 -1.8645  1.0365 -0.0900
 8944SOL     OW27730   5.017   5.711   1.062 -0.2671 -0.2541 -0.0508
 8944SOL    HW127731   5.107   5.699   1.021 -0.9549 -0.4047 -1.5800
 8944SOL    HW227732   5.026   5.720   1.161  1.5096  0.7506 -0.2715
 8945SOL     OW27733   0.555   1.819   2.773  0.6074 -0.0026 -1.0574
 8945SOL    HW127734   0.529   1.894   2.713 -0.9905  1.2000  1.0227
 8945SOL    HW227735   0.482   1.750   2.774  0.4093  0.2152 -0.1428
 8946SOL     OW27736   4.710   1.681   6.884 -0.5125 -0.3969 -0.2007
 8946SOL    HW127737   4.715   1.596   6.935  1.5641  0.1922  0.6786
 8946SOL    HW227738   4.729   1.758   6.946 -0.3448  0.5373 -1.3757
 8947SOL     OW27739   1.951   3.294   3.932  0.4437 -0.0430 -0.3305
 8947SOL    HW127740   1.923   3.198   3.937 -0.6128  0.3031  0.9732
 8947SOL    HW227741   2.046   3.303   3.962  0.8361 -0.7670 -1.2921
 8948SOL     OW27742   4.796   5.589   4.343  0.2147  0.2408  0.0901
 8948SOL    HW127743   4.812   5.530   4.421 -0.3945 -0.8392 -0.5772
 8948SOL    HW227744   4.792   5.684   4.374 -0.0374 -0.1639  1.3742
 8949SOL     OW27745   2.275   6.563   6.102  0.8244  0.2582 -0.4317
 8949SOL    HW127746   2.350   6.584   6.039 -0.3087  0.1634 -1.8729
 8949SOL    HW227747   2.255   6.643   6.158  2.2180  0.1699  0.2433
 8950SOL     OW27748   6.623   3.387   5.973 -0.6530 -0.3025  0.1308
 8950SOL    HW127749   6.618   3.474   5.924  0.6618 -0.7770 -0.8789
 8950SOL    HW227750   6.709   3.380   6.023 -1.3254 -0.4746  1.3214
 8951SOL     OW27751   1.358   0.406   3.853  0.1327 -0.0542  0.6175
 8951SOL    HW127752   1.350   0.427   3.950 -0.2988  1.4443  0.2992
 8951SOL    HW227753   1.273   0.367   3.820 -0.0140  0.1993  0.6890
 8952SOL     OW27754   3.982   6.981   3.728 -0.6767 -0.2078 -0.1860
 8952SOL    HW127755   3.971   7.080   3.743 -1.3299 -0.3613  0.4224
 8952SOL    HW227756   3.892   6.938   3.730 -0.2375 -1.2935  3.0997
 8953SOL     OW27757   1.266   5.648   6.220  0.2742 -0.4585  0.3343
 8953SOL    HW127758   1.329   5.625   6.294  1.5163 -1.2513 -0.9184
 8953SOL    HW227759   1.281   5.743   6.192  0.8312 -0.5981  0.1412
 8954SOL     OW27760   0.656   0.470   5.130  0.0084  0.2162  0.0611
 8954SOL    HW127761   0.702   0.553   5.163  1.2431 -0.3899 -0.1142
 8954SOL    HW227762   0.557   0.484   5.135  0.1819  1.2078  1.3014
 8955SOL     OW27763   1.407   0.520   3.514  0.0005  0.0077 -0.1892
 8955SOL    HW127764   1.334   0.568   3.465  0.1250 -0.9368 -1.3566
 8955SOL    HW227765   1.408   0.424   3.485 -0.5691 -0.8598  2.4120
 8956SOL     OW27766   2.233   6.887   1.481  0.0552  0.2074 -0.6317
 8956SOL    HW127767   2.322   6.896   1.435  0.0647 -0.6615 -0.7861
 8956SOL    HW227768   2.247   6.891   1.580  0.5079 -1.7287 -0.5826
 8957SOL     OW27769   6.037   6.282   2.157 -0.9689 -0.4791  0.1005
 8957SOL    HW127770   6.006   6.363   2.206 -0.3519  0.4412 -0.9924
 8957SOL    HW227771   6.090   6.309   2.077  0.8569 -1.9473  0.7258
 8958SOL     OW27772   2.081   0.686   3.265 -0.5677 -0.3954 -0.4141
 8958SOL    HW127773   2.024   0.611   3.232 -0.3390 -0.7159 -0.0802
 8958SOL    HW227774   2.085   0.757   3.195 -1.5573 -0.2688 -0.3608
 8959SOL     OW27775   3.785   6.539   5.650 -0.6346  0.1101 -0.5425
 8959SOL    HW127776   3.852   6.585   5.708 -0.9539  0.8695 -0.7594
 8959SOL    HW227777   3.831   6.472   5.593 -0.1229  0.3124 -0.3754
 8960SOL     OW27778   3.786   5.486   6.884  0.2455 -0.2913 -0.2341
 8960SOL    HW127779   3.754   5.568   6.837 -2.8941  0.1360  2.2581
 8960SOL    HW227780   3.872   5.505   6.931  0.1749  1.1970 -0.6775
 8961SOL     OW27781   0.106   2.220   4.238 -0.0670  0.4594  0.6388
 8961SOL    HW127782   0.061   2.136   4.268 -1.7599  0.9140 -0.4954
 8961SOL    HW227783   0.205   2.211   4.250 -0.3631 -0.7579  2.7970
 8962SOL     OW27784   3.940   6.800   4.077 -0.0922  0.3754  0.2384
 8962SOL    HW127785   3.979   6.723   4.128  0.6018  0.1537 -0.5984
 8962SOL    HW227786   3.993   6.883   4.097  0.6013  0.1510 -0.6118
 8963SOL     OW27787   0.175   1.932   5.452 -0.3038  0.6125  0.3865
 8963SOL    HW127788   0.229   1.854   5.482 -0.5138  0.8957  1.5548
 8963SOL    HW227789   0.078   1.913   5.466 -0.4643  0.4563 -0.8583
 8964SOL     OW27790   6.730   2.932   3.221  0.1927  0.5113  0.5503
 8964SOL    HW127791   6.708   2.947   3.125  0.8384  2.4810  0.6614
 8964SOL    HW227792   6.686   3.003   3.276  3.0824  1.9395  1.2359
 8965SOL     OW27793   1.460   5.016   0.623  0.6723 -0.4315  0.0585
 8965SOL    HW127794   1.433   5.046   0.532  0.6932 -2.5523 -0.7053
 8965SOL    HW227795   1.539   5.071   0.654  1.4577 -0.4797 -1.7304
 8966SOL     OW27796   4.868   1.277   4.758  0.0959 -0.1555  0.6394
 8966SOL    HW127797   4.843   1.374   4.763 -0.7575 -0.3853  1.0666
 8966SOL    HW227798   4.918   1.251   4.841  0.9718  0.0862  0.1958
 8967SOL     OW27799   4.948   1.695   1.053 -0.0321  0.3051  0.0293
 8967SOL    HW127800   4.885   1.724   1.125 -0.4039 -0.5118  0.0419
 8967SOL    HW227801   5.034   1.746   1.062  0.2187 -0.3140  1.5246
 8968SOL     OW27802   5.964   4.122   4.564 -0.7094  0.0394 -0.2053
 8968SOL    HW127803   5.893   4.062   4.600 -0.0997 -0.9251 -0.5453
 8968SOL    HW227804   5.981   4.098   4.468  0.9620 -0.6504  0.2308
 8969SOL     OW27805   6.034   6.226   3.270  0.4235  0.1306 -0.4228
 8969SOL    HW127806   5.951   6.226   3.326  0.7476  0.2528  0.0634
 8969SOL    HW227807   6.024   6.160   3.195 -0.0738  0.0762 -0.3098
 8970SOL     OW27808   4.679   2.770   1.161 -0.1818 -0.2154  0.1017
 8970SOL    HW127809   4.642   2.860   1.137  0.7667  0.4657  1.0941
 8970SOL    HW227810   4.663   2.752   1.258  0.7583 -0.5507  0.2041
 8971SOL     OW27811   4.530   4.481   1.008  0.1676 -0.7642 -0.3758
 8971SOL    HW127812   4.498   4.445   1.096 -2.1158  0.4679 -0.6108
 8971SOL    HW227813   4.579   4.567   1.024 -0.2614 -0.5312 -0.2705
 8972SOL     OW27814   5.087   1.657   3.190  0.1037  0.4428  0.7157
 8972SOL    HW127815   5.030   1.702   3.121  1.9194  0.6530 -0.7481
 8972SOL    HW227816   5.145   1.725   3.235  0.5293 -0.0023  0.8494
 8973SOL     OW27817   2.190   3.932   0.099 -0.6091 -0.3654  0.4418
 8973SOL    HW127818   2.262   3.991   0.137 -0.6888 -0.4804  0.7759
 8973SOL    HW227819   2.101   3.966   0.127 -0.7320  0.2710 -0.6767
 8974SOL     OW27820   3.478   2.125   3.786 -0.6888 -0.0922 -0.0577
 8974SOL    HW127821   3.395   2.162   3.744 -2.2128 -1.9967  1.0535
 8974SOL    HW227822   3.492   2.031   3.755 -0.5049 -0.7169  1.7791
 8975SOL     OW27823   4.586   0.743   0.906  0.1040  0.3665  0.0965
 8975SOL    HW127824   4.586   0.691   0.820 -1.4234  0.8289 -0.1981
 8975SOL    HW227825   4.576   0.679   0.983 -0.2456  0.0967 -0.1699
 8976SOL     OW27826   6.275   5.865   4.972 -0.2835 -0.6757  0.1625
 8976SOL    HW127827   6.343   5.894   5.040  0.2512 -0.7858 -0.3150
 8976SOL    HW227828   6.193   5.921   4.981  1.2900  2.2142 -1.8263
 8977SOL     OW27829   5.479   1.898   6.647  0.4940 -0.2622  0.0360
 8977SOL    HW127830   5.440   1.846   6.571  1.1095 -2.8403  1.3885
 8977SOL    HW227831   5.425   1.884   6.730  0.1488  2.0792  0.2897
 8978SOL     OW27832   5.255   3.751   3.665  0.1492  0.4794 -0.0139
 8978SOL    HW127833   5.257   3.830   3.725  1.1038  0.3488  0.1392
 8978SOL    HW227834   5.265   3.667   3.719 -2.9203  0.0649  0.0764
 8979SOL     OW27835   0.211   0.087   6.409 -0.3366 -0.3728 -0.6255
 8979SOL    HW127836   0.150   0.087   6.329 -0.0051  2.5521 -0.9896
 8979SOL    HW227837   0.168   0.138   6.484  0.8741  0.1442 -0.2565
 8980SOL     OW27838   3.854   2.943   3.709  0.1603 -0.0091  0.5490
 8980SOL    HW127839   3.910   2.944   3.791  0.4251  0.8307  0.3710
 8980SOL    HW227840   3.759   2.926   3.733  0.0812  1.1745  1.1488
 8981SOL     OW27841   3.995   3.470   4.326  0.0732 -0.3256  0.1748
 8981SOL    HW127842   3.908   3.421   4.337  0.6421 -1.3760  0.1016
 8981SOL    HW227843   4.025   3.505   4.415 -0.7989  0.7273  0.0785
 8982SOL     OW27844   4.428   6.159   5.465 -0.1625  0.3397  0.1397
 8982SOL    HW127845   4.442   6.240   5.409 -1.3973  0.5667  0.1182
 8982SOL    HW227846   4.493   6.087   5.439  0.7834  1.2293  0.0039
 8983SOL     OW27847   5.928   5.201   1.579 -0.2887  0.1832 -0.7448
 8983SOL    HW127848   5.845   5.226   1.530 -0.0457  0.4555 -1.0196
 8983SOL    HW227849   5.962   5.113   1.545 -0.9321 -0.3529 -0.0405
 8984SOL     OW27850   2.864   0.152   1.550  0.1597 -0.1794  0.2152
 8984SOL    HW127851   2.898   0.095   1.625  1.3840 -0.3734 -0.4611
 8984SOL    HW227852   2.864   0.099   1.465 -0.6440  0.2225 -0.0491
 8985SOL     OW27853   2.714   3.538   6.372  0.6354  0.5153 -0.2487
 8985SOL    HW127854   2.715   3.439   6.371  2.6612  0.5021 -1.0428
 8985SOL    HW227855   2.787   3.573   6.314 -1.0744  2.5030 -1.3497
 8986SOL     OW27856   1.746   5.679   3.224  0.6409 -0.3235 -0.4140
 8986SOL    HW127857   1.680   5.617   3.267  0.7694 -0.1316  0.0733
 8986SOL    HW227858   1.804   5.627   3.160  0.2990 -0.5727 -0.5229
 8987SOL     OW27859   1.783   0.878   2.127  0.2612  0.4808 -0.4099
 8987SOL    HW127860   1.840   0.949   2.085 -0.4470  1.4893  0.2720
 8987SOL    HW227861   1.698   0.869   2.075  1.0031 -1.0051 -1.4136
 8988SOL     OW27862   6.483   4.996   4.779 -0.3070 -0.0822 -0.8416
 8988SOL    HW127863   6.423   5.074   4.760  1.0171  0.9851 -0.7806
 8988SOL    HW227864   6.575   5.029   4.800 -0.3241 -1.4874  1.9062
 8989SOL     OW27865   2.390   2.608   2.155  0.1944 -0.5422  0.2172
 8989SOL    HW127866   2.321   2.535   2.156 -1.2693  0.7303 -1.2912
 8989SOL    HW227867   2.479   2.569   2.178 -0.5313 -2.7992 -0.4424
 8990SOL     OW27868   5.117   5.295   4.518 -0.9063  0.4797  0.3539
 8990SOL    HW127869   5.093   5.346   4.600  1.3571  1.4752  0.4698
 8990SOL    HW227870   5.128   5.198   4.541 -2.2691  0.4129  0.7743
 8991SOL     OW27871   1.309   1.925   6.137 -0.4638 -0.0668  0.4148
 8991SOL    HW127872   1.346   2.013   6.169  1.2504 -0.9312  0.9323
 8991SOL    HW227873   1.369   1.851   6.167 -0.1095 -1.1760 -2.6881
 8992SOL     OW27874   4.584   6.564   1.929 -0.3834  0.0313 -0.0892
 8992SOL    HW127875   4.626   6.479   1.898 -0.5701 -0.2129  0.3158
 8992SOL    HW227876   4.495   6.543   1.970  0.0052  0.3063  0.9158
 8993SOL     OW27877   6.396   2.275   2.239  0.5134 -0.1688  0.3003
 8993SOL    HW127878   6.317   2.260   2.180 -0.0506 -0.7721  1.1722
 8993SOL    HW227879   6.372   2.340   2.311  1.2156  0.6175 -0.1517
 8994SOL     OW27880   2.378   5.228   4.104  0.1783 -0.0832 -0.1488
 8994SOL    HW127881   2.416   5.246   4.195  0.2116 -0.1564 -0.1480
 8994SOL    HW227882   2.292   5.179   4.113  0.7369 -1.0975 -0.1859
 8995SOL     OW27883   0.323   1.163   0.874  0.0321  0.2495 -0.5820
 8995SOL    HW127884   0.398   1.122   0.821 -0.3274 -1.7710  0.4080
 8995SOL    HW227885   0.306   1.256   0.840  0.7621 -0.4438 -3.0502
 8996SOL     OW27886   3.538   5.482   5.499 -0.4357  0.2132  0.5496
 8996SOL    HW127887   3.579   5.438   5.579  0.0288  1.4096  0.9837
 8996SOL    HW227888   3.489   5.413   5.445  1.3101 -1.0984  0.5345
 8997SOL     OW27889   5.679   0.793   4.878  0.4717  0.1283 -0.2211
 8997SOL    HW127890   5.630   0.726   4.934 -0.3363  0.1622 -0.8723
 8997SOL    HW227891   5.713   0.867   4.937 -0.7661  0.3996  0.1715
 8998SOL     OW27892   1.949   4.658   5.004 -0.2460  0.1441 -0.0490
 8998SOL    HW127893   1.951   4.671   4.905  2.0400  2.0012  0.1351
 8998SOL    HW227894   2.041   4.673   5.041 -0.7214 -1.9935  2.2208
 8999SOL     OW27895   4.267   6.274   0.964  0.2607 -0.4794 -0.5106
 8999SOL    HW127896   4.212   6.349   0.926  0.0140 -0.1382  0.4818
 8999SOL    HW227897   4.234   6.252   1.056  2.4375  0.4573  0.5735
 9000SOL     OW27898   1.446   5.374   3.523  0.1739  0.0652  0.8123
 9000SOL    HW127899   1.355   5.413   3.508  0.2411 -0.6312 -2.0677
 9000SOL    HW227900   1.440   5.295   3.584 -0.8068  1.2143  2.2439
 9001SOL     OW27901   2.099   5.499   1.144  0.7404 -0.2081  0.0818
 9001SOL    HW127902   2.150   5.583   1.158 -0.6080  0.5515  0.6238
 9001SOL    HW227903   2.104   5.443   1.227 -1.9680  1.3839  1.4482
 9002SOL     OW27904   0.922   5.374   0.117 -0.3887 -0.2270 -0.0445
 9002SOL    HW127905   0.849   5.431   0.082 -1.3801  0.4683  2.8478
 9002SOL    HW227906   0.955   5.314   0.045 -0.3619  2.8385 -2.7971
 9003SOL     OW27907   6.108   6.631   2.236 -0.0165 -0.0587  0.5468
 9003SOL    HW127908   6.126   6.589   2.147  1.1209 -1.0828  1.2325
 9003SOL    HW227909   6.161   6.716   2.245 -0.5153  0.3090  0.0665
 9004SOL     OW27910   6.015   4.643   2.391 -0.1086 -0.1959 -0.1035
 9004SOL    HW127911   5.938   4.640   2.454 -1.4024  1.4283 -1.5174
 9004SOL    HW227912   5.986   4.609   2.301  0.0727  2.5754 -1.2982
 9005SOL     OW27913   4.487   2.258   5.069 -0.1387  0.1609 -0.4375
 9005SOL    HW127914   4.571   2.303   5.098 -0.6745  0.5446  0.5323
 9005SOL    HW227915   4.490   2.244   4.969  0.6921  0.9456 -0.5336
 9006SOL     OW27916   1.778   4.215   6.583  0.5488 -0.6204 -0.1461
 9006SOL    HW127917   1.730   4.185   6.501  2.7565 -2.0194 -0.9914
 9006SOL    HW227918   1.876   4.218   6.566  0.9114  1.3569  1.7747
 9007SOL     OW27919   0.979   2.105   2.233 -0.1087 -0.4717  0.0404
 9007SOL    HW127920   1.033   2.178   2.274 -0.1093  0.0894 -0.9361
 9007SOL    HW227921   0.908   2.076   2.297  0.2229  0.0133  0.6361
 9008SOL     OW27922   6.441   4.238   2.375 -0.1795 -0.3539 -0.4879
 9008SOL    HW127923   6.478   4.321   2.333 -0.3227 -0.5056 -0.9198
 9008SOL    HW227924   6.385   4.263   2.454 -0.9791  0.0306 -1.1594
 9009SOL     OW27925   2.164   6.700   2.062  0.2207 -0.1967 -0.4193
 9009SOL    HW127926   2.107   6.671   2.138  0.3025  0.2878 -0.1630
 9009SOL    HW227927   2.152   6.799   2.047  0.7737 -0.1413 -0.5387
 9010SOL     OW27928   1.215   4.148   4.470  0.0780 -0.7815 -0.4813
 9010SOL    HW127929   1.304   4.147   4.425 -0.1694 -0.0204 -0.9879
 9010SOL    HW227930   1.167   4.062   4.450  0.8281 -1.3597  0.0935
 9011SOL     OW27931   2.352   0.668   2.166  0.7912  0.4484  0.0238
 9011SOL    HW127932   2.370   0.686   2.069 -0.4596 -1.0938 -0.5231
 9011SOL    HW227933   2.373   0.751   2.219  1.7547  1.2351 -1.5058
 9012SOL     OW27934   0.658   0.009   1.324 -0.4751  0.0192 -0.7383
 9012SOL    HW127935   0.735  -0.020   1.381 -0.9889  0.7205  0.3274
 9012SOL    HW227936   0.583   0.042   1.382 -1.2283  0.2247 -1.7954
 9013SOL     OW27937   2.010   0.447   3.420  0.4717 -0.1888  0.1663
 9013SOL    HW127938   2.087   0.386   3.440  0.3244  0.1036  1.7963
 9013SOL    HW227939   1.952   0.454   3.501 -2.1065 -1.5322 -1.4323
 9014SOL     OW27940   5.722   3.554   4.111  0.2900 -0.4532 -0.2379
 9014SOL    HW127941   5.632   3.526   4.079  1.2533 -0.7116 -3.0292
 9014SOL    HW227942   5.713   3.605   4.196 -2.6013  0.4227 -0.9541
 9015SOL     OW27943   2.986   4.183   6.246  0.3953  0.5620 -0.4819
 9015SOL    HW127944   2.949   4.248   6.311  1.5656  0.4378  0.3409
 9015SOL    HW227945   2.951   4.091   6.265  0.9800  0.4726  0.1884
 9016SOL     OW27946   4.294   3.320   5.989  0.3801 -0.2802  0.2505
 9016SOL    HW127947   4.340   3.263   6.058  0.7297 -0.9677 -0.5350
 9016SOL    HW227948   4.304   3.416   6.014  3.3753 -0.3067 -0.5188
 9017SOL     OW27949   4.493   0.578   5.221 -0.1533 -0.1002 -0.2248
 9017SOL    HW127950   4.564   0.528   5.272  0.2417 -1.1523 -1.7272
 9017SOL    HW227951   4.509   0.676   5.230  1.0623 -0.3076  0.0921
 9018SOL     OW27952   4.224   5.976   6.376  0.1323  0.1779  0.2575
 9018SOL    HW127953   4.218   6.046   6.447 -0.7986 -0.5434  0.9096
 9018SOL    HW227954   4.217   5.885   6.417  1.5382 -0.3422 -0.5517
 9019SOL     OW27955   6.338   3.828   5.346 -0.1453  0.1429  0.3927
 9019SOL    HW127956   6.380   3.761   5.407 -1.3043 -0.9750  0.0075
 9019SOL    HW227957   6.311   3.909   5.399 -0.5708 -0.5491  1.2701
 9020SOL     OW27958   5.730   5.710   2.760 -0.2120 -0.3277 -0.5426
 9020SOL    HW127959   5.688   5.630   2.803 -2.6467  0.1341 -1.8844
 9020SOL    HW227960   5.706   5.792   2.813  0.4568 -0.2249 -0.3875
 9021SOL     OW27961   6.749   1.800   5.633 -0.4358  0.5870 -0.0036
 9021SOL    HW127962   6.650   1.810   5.641 -0.4698 -0.4055  1.1089
 9021SOL    HW227963   6.774   1.704   5.649  0.6466  0.6681 -1.0449
 9022SOL     OW27964   6.104   3.137   6.110  0.1122  0.4836 -0.4227
 9022SOL    HW127965   6.198   3.137   6.146 -0.7503 -0.0409  2.0262
 9022SOL    HW227966   6.089   3.221   6.058  1.0316  2.1146  1.7833
 9023SOL     OW27967   2.589   4.995   2.122 -0.7030  0.2574 -1.1740
 9023SOL    HW127968   2.500   5.039   2.113 -1.7335 -1.4587  0.0064
 9023SOL    HW227969   2.602   4.966   2.217  0.8979  0.0333 -1.4387
 9024SOL     OW27970   1.502   5.510   5.054 -0.1372 -0.1208 -0.2118
 9024SOL    HW127971   1.415   5.555   5.075 -0.2791  0.4235 -1.8219
 9024SOL    HW227972   1.562   5.575   5.006  1.3648 -0.3382  1.2946
 9025SOL     OW27973   1.136   5.567   2.007  0.0507 -0.7449  0.1256
 9025SOL    HW127974   1.190   5.483   2.007 -0.6750 -1.2444 -1.3404
 9025SOL    HW227975   1.196   5.646   2.020  0.9294 -1.3843 -0.0202
 9026SOL     OW27976   6.462   1.553   5.949 -0.0483  0.0089 -0.4802
 9026SOL    HW127977   6.462   1.586   5.854 -0.4989 -1.8849 -1.1821
 9026SOL    HW227978   6.392   1.483   5.960 -0.7543  0.9546  1.5750
 9027SOL     OW27979   6.308   4.733   3.415  0.0631  0.3464 -0.1631
 9027SOL    HW127980   6.303   4.811   3.351 -0.8391  1.8576  1.6462
 9027SOL    HW227981   6.401   4.725   3.450  0.1152  0.7608 -0.1988
 9028SOL     OW27982   1.831   5.918   5.744  0.1009  0.2541 -0.9853
 9028SOL    HW127983   1.768   5.948   5.672  0.5767  1.5870 -0.8804
 9028SOL    HW227984   1.907   5.868   5.704 -0.6959 -0.8513 -1.1739
 9029SOL     OW27985   5.435   6.331   4.741  0.2182  0.1857 -0.4197
 9029SOL    HW127986   5.420   6.295   4.649 -0.4277  0.6298 -0.4997
 9029SOL    HW227987   5.522   6.380   4.744  0.0312  0.5594 -0.9232
 9030SOL     OW27988   3.353   1.673   2.323 -0.2166  0.5748  0.3378
 9030SOL    HW127989   3.375   1.770   2.338  1.8077 -0.2670  4.0291
 9030SOL    HW227990   3.431   1.628   2.281  0.4203 -0.0989  2.1503
 9031SOL     OW27991   3.797   0.576   4.741 -0.1712  0.1267 -0.3391
 9031SOL    HW127992   3.893   0.549   4.754  0.0669  0.4358 -1.3336
 9031SOL    HW227993   3.788   0.674   4.758 -0.5448 -0.0955  0.8365
 9032SOL     OW27994   6.630   3.106   1.492  0.1966 -0.1807  0.3420
 9032SOL    HW127995   6.554   3.121   1.430 -0.1359 -0.1676  0.7498
 9032SOL    HW227996   6.596   3.069   1.578  0.6470 -0.1436  0.5380
 9033SOL     OW27997   1.343   0.288   3.402 -0.1023 -0.1979 -0.2551
 9033SOL    HW127998   1.300   0.331   3.322  0.5564  1.0299  0.0397
 9033SOL    HW227999   1.392   0.206   3.372  0.8523  0.7068 -1.2737
 9034SOL     OW28000   4.718   5.807   5.670  0.1977  0.0875  0.5648
 9034SOL    HW128001   4.773   5.724   5.660  0.9192  0.5466  0.6524
 9034SOL    HW228002   4.627   5.791   5.631  0.0752 -0.9758  1.2445
 9035SOL     OW28003   1.917   6.578   5.354  0.0225 -0.1978 -0.4653
 9035SOL    HW128004   1.875   6.491   5.328  0.8125 -0.6991 -0.0849
 9035SOL    HW228005   1.894   6.647   5.285 -1.1592 -0.5283 -0.4266
 9036SOL     OW28006   5.630   4.585   4.797  0.0274 -0.3558  0.4070
 9036SOL    HW128007   5.639   4.489   4.824 -1.3190 -0.8745 -0.8265
 9036SOL    HW228008   5.714   4.616   4.753 -0.2055 -1.6501 -1.0675
 9037SOL     OW28009   0.188   1.125   2.157  0.2745 -0.3845 -0.0021
 9037SOL    HW128010   0.128   1.047   2.139  1.7242 -1.6909  0.6137
 9037SOL    HW228011   0.279   1.092   2.182  1.4417  1.5432 -1.4657
 9038SOL     OW28012   2.821   3.736   5.860 -0.2897  0.3218  0.0214
 9038SOL    HW128013   2.848   3.829   5.884 -2.5808  1.2580 -0.7274
 9038SOL    HW228014   2.743   3.740   5.797 -1.1418 -2.1034  0.8318
 9039SOL     OW28015   2.321   5.103   6.505 -0.2135 -0.1911 -0.6330
 9039SOL    HW128016   2.260   5.079   6.430  0.7800 -1.2690 -1.1258
 9039SOL    HW228017   2.311   5.037   6.579 -0.9574  0.6833  0.0663
 9040SOL     OW28018   2.747   2.784   0.318 -0.5195  0.1017  0.5768
 9040SOL    HW128019   2.719   2.689   0.328  0.7053 -0.1937  1.3464
 9040SOL    HW228020   2.672   2.844   0.345 -1.0289 -0.6400  0.8443
 9041SOL     OW28021   6.163   3.453   3.358  0.3505 -0.1463  0.7497
 9041SOL    HW128022   6.247   3.433   3.309 -1.2086 -1.5632 -1.5292
 9041SOL    HW228023   6.145   3.551   3.356  1.8404  0.1618  1.1906
 9042SOL     OW28024   5.091   5.419   0.440 -0.3365  0.0511  0.0823
 9042SOL    HW128025   4.998   5.444   0.413  0.4696 -1.0318 -4.3778
 9042SOL    HW228026   5.157   5.463   0.380  1.9358 -1.2435  1.4571
 9043SOL     OW28027   6.724   2.579   2.268  0.0646  0.2113  1.2639
 9043SOL    HW128028   6.798   2.513   2.278 -1.2252 -1.1642  1.8905
 9043SOL    HW228029   6.758   2.670   2.293  2.2073  0.0815 -0.7734
 9044SOL     OW28030   6.951   1.371   0.291  0.4736  0.0597  0.0857
 9044SOL    HW128031   6.970   1.310   0.368  2.8541  0.6300  0.0088
 9044SOL    HW228032   7.020   1.443   0.288  0.1955  0.2805 -2.3444
 9045SOL     OW28033   3.102   0.821   5.839  0.1940  0.3082 -0.2976
 9045SOL    HW128034   3.054   0.792   5.922 -0.9145  0.6043 -0.8079
 9045SOL    HW228035   3.127   0.740   5.786 -1.5766  0.1754 -1.0009
 9046SOL     OW28036   4.126   5.253   2.745 -0.5165 -0.2089 -0.4367
 9046SOL    HW128037   4.132   5.236   2.843 -0.4693 -0.2839 -0.4520
 9046SOL    HW228038   4.046   5.206   2.708  0.4833 -1.7488 -0.7529
 9047SOL     OW28039   0.430   4.260   6.058  0.0621  0.1242  0.0428
 9047SOL    HW128040   0.369   4.339   6.049 -0.3807 -0.3259 -1.1048
 9047SOL    HW228041   0.376   4.178   6.081  0.2219 -0.2762 -0.9691
 9048SOL     OW28042   6.182   4.461   4.169  0.2548 -0.1836 -0.3476
 9048SOL    HW128043   6.109   4.453   4.100  0.2091  0.2999 -0.3567
 9048SOL    HW228044   6.268   4.430   4.130  0.0922 -0.5784 -0.3985
 9049SOL     OW28045   1.212   6.090   4.799  0.3675  0.1957  0.3845
 9049SOL    HW128046   1.228   5.993   4.777 -0.5284  0.1547 -0.1275
 9049SOL    HW228047   1.289   6.125   4.853  1.4734 -0.3801 -0.7484
 9050SOL     OW28048   0.618   5.007   5.191  0.3473 -0.4918  0.0887
 9050SOL    HW128049   0.686   5.030   5.122  0.4095 -0.6525  0.0964
 9050SOL    HW228050   0.663   4.997   5.280  0.3720 -0.9833  0.0228
 9051SOL     OW28051   2.816   1.581   1.104  0.1453 -0.5868  0.1075
 9051SOL    HW128052   2.815   1.522   1.184  0.2605  0.8444  1.2096
 9051SOL    HW228053   2.843   1.674   1.131 -0.2410  0.0372 -1.5129
 9052SOL     OW28054   1.792   3.323   0.107 -0.3083  0.0366 -0.4658
 9052SOL    HW128055   1.795   3.357   0.201  0.8134  0.3750 -0.6118
 9052SOL    HW228056   1.741   3.387   0.050 -2.6400 -1.0766  0.2392
 9053SOL     OW28057   0.397   6.703   1.507  0.3508 -0.0076 -0.5574
 9053SOL    HW128058   0.482   6.657   1.483  0.3942  0.1519 -0.7138
 9053SOL    HW228059   0.320   6.652   1.470  0.4331  0.3936 -1.2935
 9054SOL     OW28060   2.255   5.429   3.001 -0.4281 -0.3739 -0.4584
 9054SOL    HW128061   2.294   5.351   2.952 -1.7693 -1.4587  0.1425
 9054SOL    HW228062   2.299   5.436   3.091 -0.0742 -0.2349 -0.6418
 9055SOL     OW28063   1.912   2.618   0.367 -0.1696  0.6482  0.2812
 9055SOL    HW128064   1.928   2.634   0.464 -0.3030 -1.2006  0.6448
 9055SOL    HW228065   1.828   2.664   0.339  0.8025  2.7149  0.5605
 9056SOL     OW28066   6.232   1.446   1.654 -0.2521  0.0847  0.0497
 9056SOL    HW128067   6.266   1.526   1.703 -0.4988  0.9320 -1.1136
 9056SOL    HW228068   6.283   1.434   1.569 -1.6391  0.3200 -0.8516
 9057SOL     OW28069   3.585   6.741   4.487  0.4471  0.1319 -0.0016
 9057SOL    HW128070   3.517   6.787   4.544 -1.2762 -0.1556 -1.7491
 9057SOL    HW228071   3.543   6.711   4.401  2.6575 -0.5560 -0.9187
 9058SOL     OW28072   0.323   6.058   4.983 -0.3984  0.4296 -0.0385
 9058SOL    HW128073   0.361   6.089   5.070  0.5745  0.4955 -0.4740
 9058SOL    HW228074   0.348   6.122   4.911 -1.1944  0.3747 -0.3763
 9059SOL     OW28075   2.308   2.840   4.044  0.8658  0.1981  0.1980
 9059SOL    HW128076   2.247   2.773   4.003 -0.5887  0.4422  1.8412
 9059SOL    HW228077   2.295   2.929   3.999  0.9552 -0.0321 -0.2940
 9060SOL     OW28078   5.827   1.580   4.069 -0.0258  0.4782  0.0593
 9060SOL    HW128079   5.846   1.551   3.975  1.4885  1.1593  0.1388
 9060SOL    HW228080   5.750   1.527   4.105 -0.2165 -0.2362 -1.3356
 9061SOL     OW28081   1.841   4.031   4.205 -0.1032  0.6402 -0.1951
 9061SOL    HW128082   1.896   4.110   4.177 -0.4882  0.7963 -0.5305
 9061SOL    HW228083   1.858   4.011   4.301  1.8133 -0.3646 -0.6827
 9062SOL     OW28084   0.854   6.107   1.710  0.1187 -0.0075 -0.3084
 9062SOL    HW128085   0.907   6.126   1.793  0.4119  0.8445 -0.6818
 9062SOL    HW228086   0.917   6.089   1.635 -0.1478 -0.6569 -0.3798
 9063SOL     OW28087   2.423   2.681   1.848  0.2109  0.1597  0.0472
 9063SOL    HW128088   2.371   2.602   1.815  0.8332 -0.2957  0.1202
 9063SOL    HW228089   2.469   2.656   1.933  0.2463  0.6753  0.1804
 9064SOL     OW28090   3.869   3.507   0.007 -0.1856 -0.4219 -0.1670
 9064SOL    HW128091   3.896   3.602   0.016 -1.4326 -0.0149 -0.3974
 9064SOL    HW228092   3.883   3.459   0.093 -0.8845  0.3526  0.4010
 9065SOL     OW28093   2.938   1.675   1.689 -0.4775 -0.4475  0.4657
 9065SOL    HW128094   3.015   1.645   1.633  0.6743  1.5845  0.8310
 9065SOL    HW228095   2.944   1.632   1.779  0.0122 -0.6175  0.3568
 9066SOL     OW28096   3.448   5.872   1.473 -0.3922 -0.3646  0.2444
 9066SOL    HW128097   3.408   5.928   1.401  2.3240  0.2324 -0.8968
 9066SOL    HW228098   3.483   5.787   1.434  0.6678 -0.2572  0.9282
 9067SOL     OW28099   0.394   2.284   1.903  0.0585  0.3519  0.1352
 9067SOL    HW128100   0.483   2.281   1.859  0.5247 -0.6430  1.0926
 9067SOL    HW228101   0.323   2.255   1.838  0.7311 -1.1230  0.0289
 9068SOL     OW28102   1.343   4.378   0.391 -0.4067 -0.0369 -0.2925
 9068SOL    HW128103   1.252   4.370   0.431 -0.7729 -1.1363 -1.2707
 9068SOL    HW228104   1.350   4.315   0.313  1.0893  0.2589 -0.4172
 9069SOL     OW28105   1.565   0.623   4.047  0.0201 -0.1012 -0.3585
 9069SOL    HW128106   1.572   0.651   3.951 -2.0826  0.0425 -0.5138
 9069SOL    HW228107   1.553   0.705   4.104  0.0331 -0.2753 -0.1067
 9070SOL     OW28108   5.847   3.784   4.831  0.3332  0.1675  0.2940
 9070SOL    HW128109   5.906   3.752   4.905 -0.1757  0.4270  0.8262
 9070SOL    HW228110   5.765   3.728   4.827 -0.0802  0.7376  0.5546
 9071SOL     OW28111   4.251   6.325   1.255 -0.1835  0.1966  0.4025
 9071SOL    HW128112   4.253   6.311   1.354  0.5619  1.6480  0.6254
 9071SOL    HW228113   4.157   6.334   1.224 -0.4166 -0.1181  1.0116
 9072SOL     OW28114   4.163   5.097   1.658 -0.1038  0.1030 -0.4102
 9072SOL    HW128115   4.169   5.102   1.757 -1.7528  0.6579 -0.2964
 9072SOL    HW228116   4.220   5.168   1.617 -0.8294  1.0874  0.2370
 9073SOL     OW28117   1.022   1.018   2.767  0.2764 -0.4062 -0.3667
 9073SOL    HW128118   1.077   1.017   2.684  0.0699  0.1465 -0.5155
 9073SOL    HW228119   0.966   0.935   2.772 -1.1917  0.4367 -1.7831
 9074SOL     OW28120   0.829   2.583   0.411 -0.8825 -0.0473  0.3855
 9074SOL    HW128121   0.759   2.650   0.435 -0.7836  0.9724 -1.8794
 9074SOL    HW228122   0.853   2.530   0.492  0.1346  3.6087  2.7420
 9075SOL     OW28123   5.751   6.687   0.921  0.2241 -0.1207 -0.7549
 9075SOL    HW128124   5.669   6.652   0.967  0.0360  0.8786 -0.3083
 9075SOL    HW228125   5.829   6.681   0.983  0.4530 -0.8756 -1.1077
 9076SOL     OW28126   3.569   2.698   5.710 -0.3597 -0.2760 -0.3174
 9076SOL    HW128127   3.560   2.686   5.611  0.4864  1.6789 -0.6738
 9076SOL    HW228128   3.498   2.759   5.744  1.3245  1.8059 -0.3444
 9077SOL     OW28129   5.470   3.332   2.065 -0.2366 -0.5055 -1.2407
 9077SOL    HW128130   5.509   3.424   2.069 -1.0412 -0.1337  2.8370
 9077SOL    HW228131   5.370   3.337   2.067 -0.4654 -1.1146  3.9199
 9078SOL     OW28132   4.848   3.225   5.442 -0.4516  0.1238 -0.4545
 9078SOL    HW128133   4.749   3.218   5.427 -0.3129 -0.5540 -1.0575
 9078SOL    HW228134   4.883   3.305   5.393 -0.7976  0.7744  0.3196
 9079SOL     OW28135   2.025   0.042   0.624 -0.1552 -0.1039 -0.0545
 9079SOL    HW128136   2.001   0.018   0.718 -0.7149  0.2120 -0.1144
 9079SOL    HW228137   2.009   0.140   0.609 -0.2682 -0.1916 -0.5355
 9080SOL     OW28138   4.171   0.079   1.668 -0.2622 -0.5138 -0.7450
 9080SOL    HW128139   4.219   0.135   1.600  0.9334 -0.1799  0.3361
 9080SOL    HW228140   4.229   0.002   1.695  0.0099  0.2926  1.1193
 9081SOL     OW28141   3.886   6.497   4.980  0.3038  0.4911 -0.2153
 9081SOL    HW128142   3.869   6.414   5.035  0.7328  0.3989 -0.2133
 9081SOL    HW228143   3.805   6.555   4.981  0.2219  0.3763  0.3241
 9082SOL     OW28144   1.601   6.426   0.673  0.7176  0.1888 -0.0874
 9082SOL    HW128145   1.525   6.425   0.738  1.0943 -0.7666  0.3571
 9082SOL    HW228146   1.677   6.372   0.709  0.8884 -0.4766 -1.3644
 9083SOL     OW28147   4.463   4.927   3.297  0.4024  0.3226 -0.1059
 9083SOL    HW128148   4.506   5.016   3.283  0.1547  0.6845  1.2897
 9083SOL    HW228149   4.395   4.935   3.370 -0.4864 -0.7388 -0.7903
 9084SOL     OW28150   4.596   3.239   1.292 -0.3037 -0.4654 -0.4972
 9084SOL    HW128151   4.520   3.304   1.284 -0.1142 -0.2051 -0.1852
 9084SOL    HW228152   4.674   3.272   1.240  0.0226 -0.1027  0.2093
 9085SOL     OW28153   3.458   2.053   1.157 -0.4495  0.2964 -0.4536
 9085SOL    HW128154   3.460   2.113   1.077 -1.9050 -1.1532 -1.6620
 9085SOL    HW228155   3.371   2.003   1.159  1.1040 -2.6264 -0.1793
 9086SOL     OW28156   0.377   3.149   1.111 -0.3790  0.3095 -0.4421
 9086SOL    HW128157   0.449   3.123   1.046  0.3253 -1.0967  0.8351
 9086SOL    HW228158   0.415   3.150   1.203 -1.5503  1.5174  0.0547
 9087SOL     OW28159   5.796   3.673   1.565  0.5488  0.4184 -0.1565
 9087SOL    HW128160   5.813   3.748   1.628 -0.6749  0.4098  0.2165
 9087SOL    HW228161   5.828   3.698   1.474 -0.3691  1.6580 -0.1684
 9088SOL     OW28162   0.310   4.749   2.799 -0.0624  0.9115  0.5218
 9088SOL    HW128163   0.315   4.848   2.813  0.3312  0.8007  1.2521
 9088SOL    HW228164   0.386   4.719   2.741 -1.5206  1.3348 -1.7194
 9089SOL     OW28165   5.558   1.376   6.438  0.0025 -0.8173  0.5869
 9089SOL    HW128166   5.556   1.472   6.408  0.6675 -1.4435 -1.6092
 9089SOL    HW228167   5.652   1.352   6.464  0.0349 -1.1508  0.1625
 9090SOL     OW28168   6.382   0.889   4.321 -0.4141  0.8524 -0.2906
 9090SOL    HW128169   6.324   0.835   4.259 -0.5206  3.3715 -2.5665
 9090SOL    HW228170   6.326   0.959   4.365  0.2978  1.2147  0.0450
 9091SOL     OW28171   3.787   3.911   6.373  0.1801 -0.2252  0.2858
 9091SOL    HW128172   3.689   3.916   6.352  0.2191  0.4809  0.2674
 9091SOL    HW228173   3.836   3.877   6.292  0.0142 -0.0688  0.1169
 9092SOL     OW28174   1.202   2.464   6.455 -0.1384  0.1090 -0.3841
 9092SOL    HW128175   1.290   2.435   6.493 -0.4975  2.0888  2.2496
 9092SOL    HW228176   1.128   2.434   6.516 -1.2296 -0.6273 -2.0212
 9093SOL     OW28177   1.611   1.319   5.674  0.4117 -0.0663 -0.1863
 9093SOL    HW128178   1.581   1.246   5.613  1.2443 -0.2112 -0.4288
 9093SOL    HW228179   1.532   1.375   5.700  0.2645  0.9916 -2.7072
 9094SOL     OW28180   2.548   4.741   1.448  0.3936  0.6891  0.9662
 9094SOL    HW128181   2.622   4.676   1.469  1.9114  2.2117  0.5290
 9094SOL    HW228182   2.467   4.690   1.419  1.4187 -1.0235  0.9523
 9095SOL     OW28183   1.575   0.572   5.377  0.2802  0.2582  0.5751
 9095SOL    HW128184   1.522   0.636   5.431 -1.0489 -0.9597  0.7681
 9095SOL    HW228185   1.554   0.585   5.280  0.1385  0.2383  0.6025
 9096SOL     OW28186   5.818   4.696   4.344 -0.5492 -0.2493  0.0936
 9096SOL    HW128187   5.817   4.601   4.313 -1.7645 -0.3298  0.3191
 9096SOL    HW228188   5.753   4.707   4.419  0.9463  0.3630  1.3463
 9097SOL     OW28189   0.133   3.938   6.740  0.0414  0.0311  0.5608
 9097SOL    HW128190   0.215   3.983   6.775  1.3750 -1.0403 -1.0748
 9097SOL    HW228191   0.114   3.971   6.648 -0.0793 -1.3163  0.0879
 9098SOL     OW28192   3.221   6.669   3.193 -0.1670  0.2933 -0.0050
 9098SOL    HW128193   3.318   6.693   3.182 -0.3760  0.8110 -0.8532
 9098SOL    HW228194   3.211   6.605   3.269  0.8386  0.2442  0.1047
 9099SOL     OW28195   1.717   6.217   5.578  0.1847  0.2258  0.1855
 9099SOL    HW128196   1.723   6.278   5.499  0.8443  1.0588  0.8611
 9099SOL    HW228197   1.623   6.185   5.588 -0.5436  2.3776  0.7197
 9100SOL     OW28198   1.719   5.910   4.744  0.3503 -0.7441 -0.0065
 9100SOL    HW128199   1.663   5.970   4.686 -1.3198 -1.8917  0.3259
 9100SOL    HW228200   1.762   5.964   4.815 -1.5122  0.0532  0.5925
 9101SOL     OW28201   4.490   2.281   2.345 -0.2000  0.2633 -0.3174
 9101SOL    HW128202   4.419   2.283   2.274  1.1096  2.2703 -1.7110
 9101SOL    HW228203   4.455   2.323   2.428 -0.7239  1.0853 -0.9316
 9102SOL     OW28204   4.594   2.304   3.137 -0.1206  0.0544  0.5055
 9102SOL    HW128205   4.541   2.315   3.221  1.6135  1.2243  1.5097
 9102SOL    HW228206   4.537   2.327   3.058 -2.0270 -1.8289  1.2390
 9103SOL     OW28207   6.054   1.295   6.375  0.4550 -0.0901  0.6034
 9103SOL    HW128208   6.093   1.386   6.362  2.1120 -0.7564  0.7593
 9103SOL    HW228209   5.955   1.299   6.361  0.8359  1.1428 -2.4744
 9104SOL     OW28210   6.298   3.518   5.785  0.1348  0.3590  0.1649
 9104SOL    HW128211   6.298   3.526   5.885  1.9212 -2.2533  0.4742
 9104SOL    HW228212   6.278   3.423   5.760  5.0055 -0.4623 -1.6339
 9105SOL     OW28213   0.863   2.125   0.630  0.3547  0.3102 -0.2135
 9105SOL    HW128214   0.854   2.223   0.613  2.5892  0.6901  0.4663
 9105SOL    HW228215   0.860   2.075   0.543 -1.9969  0.8083 -0.4786
 9106SOL     OW28216   1.865   0.695   5.376  0.4369  0.1055  0.4007
 9106SOL    HW128217   1.932   0.627   5.345  2.6591  1.7909  1.2570
 9106SOL    HW228218   1.773   0.656   5.368  1.3619 -1.9466 -1.8470
 9107SOL     OW28219   4.919   0.090   6.999 -0.6263 -0.3136  0.1791
 9107SOL    HW128220   4.997   0.153   7.002 -1.3205  0.5372  0.5362
 9107SOL    HW228221   4.953  -0.004   7.011  0.3108  0.0681  0.6628
 9108SOL     OW28222   4.510   6.791   5.455  0.0567  0.5088  0.2021
 9108SOL    HW128223   4.502   6.693   5.471 -1.1119  0.4586 -0.5757
 9108SOL    HW228224   4.490   6.811   5.359  0.0695  1.5312  0.4011
 9109SOL     OW28225   5.230   3.326   3.305  0.3624 -0.0509  0.3215
 9109SOL    HW128226   5.190   3.379   3.230 -1.4531  0.3663  1.5179
 9109SOL    HW228227   5.217   3.375   3.391  2.8016 -0.3035  0.9067
 9110SOL     OW28228   0.767   5.347   2.544  0.2574 -0.2949  0.7237
 9110SOL    HW128229   0.787   5.374   2.639 -1.4006  0.8864  0.7881
 9110SOL    HW228230   0.765   5.247   2.538  3.2186 -0.4807  1.2510
 9111SOL     OW28231   6.246   3.539   6.065  0.3312  0.3105  0.0124
 9111SOL    HW128232   6.162   3.489   6.046  1.4579 -1.3506 -0.8447
 9111SOL    HW228233   6.224   3.628   6.105 -1.8206  0.0603 -0.5138
 9112SOL     OW28234   1.197   5.905   2.365  0.3931 -0.0519  0.1605
 9112SOL    HW128235   1.287   5.928   2.328 -0.1675  1.7553 -0.1524
 9112SOL    HW228236   1.204   5.821   2.418  2.0905 -0.3961 -0.5250
 9113SOL     OW28237   6.610   6.307   4.765 -0.1941 -0.0781 -0.0993
 9113SOL    HW128238   6.659   6.221   4.777  0.4144  0.4773  1.6186
 9113SOL    HW228239   6.674   6.383   4.762 -0.8528  0.6475  2.0521
 9114SOL     OW28240   6.664   0.599   0.220  0.0324  0.1501  0.4928
 9114SOL    HW128241   6.751   0.636   0.253  0.2460  1.4340 -1.3596
 9114SOL    HW228242   6.603   0.584   0.298  1.4771  0.3526  1.7200
 9115SOL     OW28243   5.788   4.712   4.021  0.0970 -0.4192 -0.1527
 9115SOL    HW128244   5.719   4.663   4.074 -0.6535  0.8135  0.0570
 9115SOL    HW228245   5.857   4.751   4.082  0.4735 -0.8629 -0.2860
 9116SOL     OW28246   6.484   4.726   1.998  0.2001  0.2852  0.0701
 9116SOL    HW128247   6.520   4.634   1.980 -1.5318 -0.3485 -0.4411
 9116SOL    HW228248   6.436   4.759   1.916 -2.1202  0.1722  1.2789
 9117SOL     OW28249   1.871   0.447   6.383  0.1531 -0.0828 -0.2227
 9117SOL    HW128250   1.952   0.478   6.334  0.7658 -2.0235 -0.5273
 9117SOL    HW228251   1.823   0.378   6.329 -1.0730  0.2037  0.4594
 9118SOL     OW28252   1.502   5.921   0.491 -0.8290 -0.0946  0.2795
 9118SOL    HW128253   1.580   5.904   0.430 -1.6970 -2.1894 -0.3526
 9118SOL    HW228254   1.420   5.939   0.437 -1.4364 -1.1322  0.8195
 9119SOL     OW28255   4.611   1.585   2.237  0.2830 -0.4174  0.4411
 9119SOL    HW128256   4.620   1.561   2.334  1.4696 -1.6728  0.0638
 9119SOL    HW228257   4.601   1.684   2.227 -2.4163 -0.4268  1.9714
 9120SOL     OW28258   5.506   5.816   4.254 -0.4354 -0.0286 -0.0652
 9120SOL    HW128259   5.442   5.786   4.325 -1.7572 -1.6272 -1.8539
 9120SOL    HW228260   5.576   5.747   4.240  1.4861  1.4697  1.4827
 9121SOL     OW28261   4.329   0.935   5.134  0.2478 -0.6602 -0.7950
 9121SOL    HW128262   4.268   0.865   5.170  1.2089 -1.3013 -0.3802
 9121SOL    HW228263   4.275   1.011   5.098 -0.7921 -0.4564  1.0556
 9122SOL     OW28264   6.099   1.954   3.543  0.1059  0.5671  0.2471
 9122SOL    HW128265   6.085   1.888   3.617  1.9580  0.1574  0.2549
 9122SOL    HW228266   6.100   2.047   3.582  0.7220  0.3786  0.6907
 9123SOL     OW28267   0.663   6.058   3.081 -0.2588  0.2160  0.4270
 9123SOL    HW128268   0.596   6.047   3.154 -0.1791 -1.8587  0.2468
 9123SOL    HW228269   0.747   6.010   3.105  0.1633  0.4368 -0.5461
 9124SOL     OW28270   3.834   5.421   6.437  0.0660  0.3532 -0.2909
 9124SOL    HW128271   3.821   5.518   6.416 -0.4357  1.4548  4.1012
 9124SOL    HW228272   3.925   5.407   6.476  0.1326 -0.9784 -0.8735
 9125SOL     OW28273   0.059   0.477   2.696 -0.3099 -0.3962 -0.1564
 9125SOL    HW128274   0.084   0.391   2.741 -3.2861  0.1592  2.9796
 9125SOL    HW228275  -0.032   0.469   2.657 -1.7321  1.8580  2.3520
 9126SOL     OW28276   4.174   5.703   0.357  0.0024  0.0655  0.3167
 9126SOL    HW128277   4.178   5.707   0.457 -2.2790 -2.6302  0.6451
 9126SOL    HW228278   4.081   5.681   0.328  0.8400 -0.3300 -2.3601
 9127SOL     OW28279   0.360   4.042   6.861  0.4814 -0.1777  0.1470
 9127SOL    HW128280   0.398   4.045   6.953  1.1005  1.0349 -0.1325
 9127SOL    HW228281   0.363   4.133   6.821  0.3099 -0.7132 -1.1161
 9128SOL     OW28282   5.076   2.612   0.109  0.0844  0.2182 -0.1181
 9128SOL    HW128283   5.029   2.637   0.025  2.4982 -2.5107 -2.4935
 9128SOL    HW228284   5.166   2.654   0.112  0.6462 -0.9558  0.2758
 9129SOL     OW28285   2.688   3.907   0.865  0.2536 -0.2821  0.4307
 9129SOL    HW128286   2.776   3.867   0.838 -0.3706 -0.9746 -0.6588
 9129SOL    HW228287   2.694   3.941   0.959  2.3432  1.6774 -0.3148
 9130SOL     OW28288   4.011   2.313   6.553  0.5482 -0.3585 -0.9942
 9130SOL    HW128289   3.913   2.295   6.559  0.3405  0.9330 -0.0766
 9130SOL    HW228290   4.054   2.245   6.494 -0.8932 -0.9518 -1.4013
 9131SOL     OW28291   6.632   2.031   0.244 -0.4211  0.4427  0.3145
 9131SOL    HW128292   6.537   2.013   0.221 -0.5542 -0.5088  1.4908
 9131SOL    HW228293   6.636   2.107   0.310 -0.5651 -0.7961  1.8069
 9132SOL     OW28294   1.552   4.382   3.064  0.5546  0.4971 -0.1356
 9132SOL    HW128295   1.550   4.333   3.151  0.2774  0.8528  0.0629
 9132SOL    HW228296   1.459   4.395   3.031  0.7172 -0.8706 -1.1993
 9133SOL     OW28297   5.600   6.726   5.628  0.0039 -0.0281 -0.2074
 9133SOL    HW128298   5.643   6.688   5.710  2.0655  0.6687 -0.9075
 9133SOL    HW228299   5.559   6.653   5.574 -0.3568 -0.6222  0.8353
 9134SOL     OW28300   4.051   5.184   5.834 -0.2315  0.1258 -0.3222
 9134SOL    HW128301   4.015   5.095   5.862 -0.2705 -0.6821 -2.7025
 9134SOL    HW228302   4.017   5.206   5.743  0.7290  2.0618 -0.2608
 9135SOL     OW28303   1.273   4.279   4.092 -0.1480 -0.1728  0.0755
 9135SOL    HW128304   1.358   4.330   4.081 -0.1531 -0.4641 -1.4742
 9135SOL    HW228305   1.294   4.181   4.099 -0.3809 -0.2796 -0.7022
 9136SOL     OW28306   1.002   5.847   1.110 -0.5139  0.4470 -0.5989
 9136SOL    HW128307   1.018   5.795   1.026  1.2558 -1.5138  0.8546
 9136SOL    HW228308   1.066   5.923   1.115 -0.1088  0.1108 -0.6634
 9137SOL     OW28309   5.766   5.907   6.559  0.6836  0.6645  0.4174
 9137SOL    HW128310   5.712   5.833   6.520 -1.1599  1.7171  0.8584
 9137SOL    HW228311   5.830   5.942   6.490 -0.0928  0.2213 -0.5406
 9138SOL     OW28312   1.844   4.303   3.917 -0.6807 -0.3589  0.1497
 9138SOL    HW128313   1.802   4.359   3.845 -0.6813 -0.0628  0.3775
 9138SOL    HW228314   1.942   4.322   3.920 -0.7661  0.0472  0.5930
 9139SOL     OW28315   0.208   6.337   0.957  0.0407  0.1613  0.2819
 9139SOL    HW128316   0.280   6.393   0.997  1.5746 -0.2475 -1.7705
 9139SOL    HW228317   0.235   6.241   0.958 -1.2231 -0.2185  0.9596
 9140SOL     OW28318   1.841   4.838   1.126 -0.0742  0.5324  0.5285
 9140SOL    HW128319   1.897   4.764   1.088 -1.8336 -0.4845 -0.1952
 9140SOL    HW228320   1.873   4.925   1.090  0.2141 -0.1505 -0.9480
 9141SOL     OW28321   5.403   5.264   4.443  0.1742  0.3583  0.0291
 9141SOL    HW128322   5.304   5.280   4.449 -0.1401 -1.7752  3.3974
 9141SOL    HW228323   5.452   5.344   4.479 -0.5275  0.2865  1.2207
 9142SOL     OW28324   3.140   5.104   3.642  0.2021  0.0351 -0.4368
 9142SOL    HW128325   3.153   5.199   3.669  0.2913  0.2226 -1.1052
 9142SOL    HW228326   3.044   5.078   3.654  0.0868  0.3492 -0.6754
 9143SOL     OW28327   4.967   2.513   2.556 -0.6490  0.4809 -0.1940
 9143SOL    HW128328   4.959   2.436   2.620 -1.6061  1.0040  0.3378
 9143SOL    HW228329   4.974   2.477   2.462 -1.2658 -0.2610  0.0264
 9144SOL     OW28330   1.693   2.998   4.590 -0.3388 -0.4036 -0.3308
 9144SOL    HW128331   1.787   2.978   4.616 -0.7521 -2.1941 -0.0685
 9144SOL    HW228332   1.654   2.919   4.541 -1.4978  0.5532 -1.0257
 9145SOL     OW28333   4.119   6.441   2.010 -0.0778 -0.3495  0.1583
 9145SOL    HW128334   4.184   6.512   1.983  1.4608 -1.6925  0.1471
 9145SOL    HW228335   4.101   6.382   1.931 -0.2101 -0.8117  0.5339
 9146SOL     OW28336   5.972   1.517   5.720 -0.2546  0.2590 -0.0313
 9146SOL    HW128337   5.945   1.604   5.677 -3.2511  0.1100  1.3220
 9146SOL    HW228338   5.891   1.464   5.743  1.3228 -1.2609  2.5953
 9147SOL     OW28339   4.314   1.097   6.583 -0.4624 -0.1981 -0.0802
 9147SOL    HW128340   4.342   1.191   6.600 -2.0932  0.0013  2.0180
 9147SOL    HW228341   4.236   1.096   6.521 -1.5234  0.0253  1.2045
 9148SOL     OW28342   3.260   5.813   1.668 -0.1343 -0.2986  0.7547
 9148SOL    HW128343   3.257   5.875   1.746 -0.4052  1.0245 -0.2670
 9148SOL    HW228344   3.319   5.851   1.597 -1.1406 -0.6843 -0.3189
 9149SOL     OW28345   0.545   3.259   2.470  0.3268 -0.3216 -0.3890
 9149SOL    HW128346   0.471   3.194   2.451 -0.0146 -0.0967  0.1539
 9149SOL    HW228347   0.586   3.237   2.559  0.6371 -0.1874 -0.4987
 9150SOL     OW28348   3.748   2.582   1.418 -0.3706 -0.2930  0.8810
 9150SOL    HW128349   3.736   2.574   1.517  1.2049 -0.7851  1.0573
 9150SOL    HW228350   3.782   2.496   1.382 -1.4198 -0.2792 -0.1888
 9151SOL     OW28351   0.889   4.009   3.619 -0.5166  0.0650  0.0807
 9151SOL    HW128352   0.981   4.007   3.581 -0.4350 -1.4945  0.2895
 9151SOL    HW228353   0.881   4.084   3.684  0.1327  1.1465 -1.0402
 9152SOL     OW28354   2.394   4.805   1.922 -0.3032 -0.0285  0.1960
 9152SOL    HW128355   2.376   4.741   1.997  0.0502 -1.7210 -1.1110
 9152SOL    HW228356   2.485   4.845   1.935  0.0330 -0.8132  0.3391
 9153SOL     OW28357   5.665   4.100   1.604 -0.3056 -0.2920 -0.7991
 9153SOL    HW128358   5.589   4.113   1.667  1.1783 -0.5676  1.1230
 9153SOL    HW228359   5.630   4.079   1.513 -2.5144  0.6646 -0.2112
 9154SOL     OW28360   5.876   5.805   1.743 -0.4033 -0.3317 -0.4936
 9154SOL    HW128361   5.912   5.712   1.737 -0.4012 -0.2831 -1.5028
 9154SOL    HW228362   5.949   5.870   1.721 -0.3169 -0.0632  0.5379
 9155SOL     OW28363   0.317   1.370   2.104  0.1482 -0.2649 -0.0326
 9155SOL    HW128364   0.257   1.448   2.088  1.0934  0.6324  0.6824
 9155SOL    HW228365   0.264   1.285   2.094 -0.6030  0.3797 -2.0776
 9156SOL     OW28366   0.563   3.832   4.931 -0.2645  0.3341  0.6802
 9156SOL    HW128367   0.622   3.891   4.875  0.3966  1.5656  2.5638
 9156SOL    HW228368   0.468   3.856   4.915 -0.0376  1.3935  0.8183
 9157SOL     OW28369   2.440   4.552   4.897 -0.0953 -0.1109  0.7873
 9157SOL    HW128370   2.424   4.498   4.979  4.0761 -0.0263  1.8747
 9157SOL    HW228371   2.507   4.624   4.917 -1.4607  2.0998 -1.9233
 9158SOL     OW28372   6.333   2.466   3.994 -0.5879  0.2183  0.1260
 9158SOL    HW128373   6.319   2.473   4.093 -0.7900 -0.0547  0.1199
 9158SOL    HW228374   6.262   2.407   3.955  0.8087 -1.5351  0.1357
 9159SOL     OW28375   0.381   0.401   3.555 -0.4409 -0.3152  0.0235
 9159SOL    HW128376   0.294   0.447   3.538 -0.0633  0.2028 -0.5518
 9159SOL    HW228377   0.390   0.322   3.494 -0.7178 -0.6676  0.4291
 9160SOL     OW28378   0.691   2.416   6.648  0.2786  0.8605 -0.2879
 9160SOL    HW128379   0.680   2.477   6.570  0.6785 -1.1994 -2.0580
 9160SOL    HW228380   0.604   2.368   6.665  0.7449 -0.2158 -0.8474
 9161SOL     OW28381   1.413   4.461   2.475  0.1644 -0.2906 -0.1871
 9161SOL    HW128382   1.439   4.480   2.381 -0.2271 -1.6116 -0.5826
 9161SOL    HW228383   1.317   4.489   2.489  0.1555 -0.2955 -0.2376
 9162SOL     OW28384   5.306   1.279   1.066  0.0018  0.0064 -0.0083
 9162SOL    HW128385   5.291   1.181   1.069 -0.7673  0.0868  3.4589
 9162SOL    HW228386   5.245   1.321   0.998  0.4620 -1.8443 -1.6430
 9163SOL     OW28387   1.746   5.078   2.123 -0.1386 -0.5083 -0.6773
 9163SOL    HW128388   1.814   5.044   2.058 -1.6914 -1.3301 -1.9595
 9163SOL    HW228389   1.657   5.085   2.077 -1.1679 -0.5235  1.2126
 9164SOL     OW28390   3.334   1.321   1.628 -0.5435  0.1194  0.1317
 9164SOL    HW128391   3.282   1.252   1.577 -1.9124  1.1136  0.1327
 9164SOL    HW228392   3.407   1.276   1.679 -0.8637 -1.2216 -0.5360
 9165SOL     OW28393   6.229   6.105   0.637  0.2106 -0.2674  0.3577
 9165SOL    HW128394   6.256   6.197   0.611 -1.0736  0.5065  1.5672
 9165SOL    HW228395   6.268   6.083   0.726 -2.1848  0.5169  1.6985
 9166SOL     OW28396   5.829   5.469   2.341 -0.2550 -0.0981  0.3862
 9166SOL    HW128397   5.906   5.519   2.301 -0.3141 -0.0360  0.3509
 9166SOL    HW228398   5.793   5.521   2.419  0.9351 -1.0137  1.5920
 9167SOL     OW28399   1.518   3.527   4.331 -0.3146  0.6694  0.6091
 9167SOL    HW128400   1.549   3.432   4.334 -0.6818  0.5598  1.0996
 9167SOL    HW228401   1.428   3.530   4.287 -0.3631  0.7751  0.7177
 9168SOL     OW28402   5.221   0.185   5.096  0.4211 -0.0469  0.1244
 9168SOL    HW128403   5.232   0.088   5.117  0.4539 -0.4740 -1.6777
 9168SOL    HW228404   5.151   0.225   5.154 -2.3232 -2.0785 -1.5612
 9169SOL     OW28405   5.917   5.448   0.410 -0.0998  0.6812 -0.1659
 9169SOL    HW128406   5.943   5.454   0.506 -0.3376 -1.4350  0.0712
 9169SOL    HW228407   5.820   5.424   0.403  0.1453 -0.1670 -0.8954
 9170SOL     OW28408   0.796   0.456   5.712 -0.3370 -0.3603  0.2712
 9170SOL    HW128409   0.862   0.449   5.636 -0.5940 -1.1784  0.1145
 9170SOL    HW228410   0.840   0.427   5.797 -0.4583 -0.8188  0.1821
 9171SOL     OW28411   4.745   0.526   6.459  0.1230  0.0089 -0.5522
 9171SOL    HW128412   4.780   0.437   6.488 -0.4068  0.1107  0.4675
 9171SOL    HW228413   4.754   0.535   6.360  1.8261 -0.4395 -0.4648
 9172SOL     OW28414   5.227   1.393   0.780 -0.5794  0.2493  0.3286
 9172SOL    HW128415   5.210   1.340   0.697  0.1591  0.8580 -0.2250
 9172SOL    HW228416   5.322   1.422   0.782 -0.5986  0.2730  1.3805
 9173SOL     OW28417   4.506   5.464   0.582 -0.5076 -0.0695  0.6515
 9173SOL    HW128418   4.503   5.381   0.526  2.2943 -0.5686  1.0778
 9173SOL    HW228419   4.534   5.541   0.525 -0.9375  0.1353  0.7123
 9174SOL     OW28420   6.835   4.474   6.604 -0.2988  0.0548 -0.2915
 9174SOL    HW128421   6.757   4.477   6.667 -0.4893 -0.0856 -0.5184
 9174SOL    HW228422   6.912   4.429   6.648 -1.7389 -4.1791 -1.5510
 9175SOL     OW28423   4.109   6.238   1.817 -0.6567 -0.4679 -0.4968
 9175SOL    HW128424   4.012   6.239   1.791 -0.8618 -1.4729  0.1632
 9175SOL    HW228425   4.129   6.155   1.869  0.7532 -0.6760 -1.3125
 9176SOL     OW28426   2.883   0.624   3.256  0.4068  0.1663 -0.2707
 9176SOL    HW128427   2.935   0.633   3.341  1.5837  1.7427 -1.1107
 9176SOL    HW228428   2.821   0.546   3.263  1.4521 -0.5593  1.5119
 9177SOL     OW28429   1.370   6.900   2.489 -0.5026 -0.2062  0.8849
 9177SOL    HW128430   1.410   6.937   2.572 -1.3405 -1.0321  1.6693
 9177SOL    HW228431   1.437   6.843   2.442  0.2840  1.0084  0.4760
 9178SOL     OW28432   1.078   2.685   2.242  0.3391  0.1698 -0.1152
 9178SOL    HW128433   1.177   2.675   2.231  0.0868 -1.5379 -1.1754
 9178SOL    HW228434   1.032   2.668   2.155 -0.9444  0.0877  0.5490
 9179SOL     OW28435   4.122   5.568   2.352  0.1007 -0.2944 -0.4305
 9179SOL    HW128436   4.072   5.503   2.294  1.7245 -0.9002 -1.2372
 9179SOL    HW228437   4.105   5.547   2.448 -1.4584 -0.2380 -0.6713
 9180SOL     OW28438   5.070   1.023   3.003 -0.3961 -0.1159  0.1280
 9180SOL    HW128439   5.103   1.013   2.909 -0.0769  0.9114  0.1257
 9180SOL    HW228440   5.070   1.119   3.029  1.4783 -0.5022  1.8816
 9181SOL     OW28441   3.138   2.285   1.761 -0.0247  0.0824 -0.3193
 9181SOL    HW128442   3.081   2.327   1.831 -2.3773  0.7493 -2.4711
 9181SOL    HW228443   3.181   2.356   1.705 -2.6867 -0.1728 -2.9343
 9182SOL     OW28444   0.365   1.076   2.577 -0.7239  0.1848  0.2736
 9182SOL    HW128445   0.401   1.002   2.520 -2.0731  0.0446 -0.4582
 9182SOL    HW228446   0.334   1.151   2.519  0.7328  1.4063  1.0190
 9183SOL     OW28447   2.891   3.491   6.672 -0.6943  0.2459 -0.2666
 9183SOL    HW128448   2.859   3.414   6.726  0.2803 -1.0057 -1.4005
 9183SOL    HW228449   2.857   3.482   6.578 -0.9310  1.4469 -0.3144
 9184SOL     OW28450   2.225   4.948   0.029  0.3828  0.5860  0.0526
 9184SOL    HW128451   2.312   4.989   0.002  0.2309  1.0512  0.2639
 9184SOL    HW228452   2.233   4.848   0.027  0.7412  0.6229 -0.5031
 9185SOL     OW28453   5.820   1.550   4.796  0.0995  0.1389  0.0085
 9185SOL    HW128454   5.854   1.599   4.716  0.7440 -0.7644 -0.2865
 9185SOL    HW228455   5.759   1.476   4.766 -0.2748  0.2819  0.4031
 9186SOL     OW28456   4.874   4.671   0.255  0.0231  0.5191 -0.3171
 9186SOL    HW128457   4.859   4.748   0.317 -1.4777 -0.5810  0.7647
 9186SOL    HW228458   4.970   4.668   0.227  0.3835  1.9750  0.6996
 9187SOL     OW28459   4.776   2.741   7.012  0.4457 -0.2262  0.4316
 9187SOL    HW128460   4.780   2.794   7.097  1.3607 -1.3054  1.0779
 9187SOL    HW228461   4.709   2.783   6.950 -0.5627  0.3275  1.8460
 9188SOL     OW28462   2.569   0.596   1.702 -0.4113 -0.4873 -0.3356
 9188SOL    HW128463   2.632   0.554   1.636  0.5877 -0.7132  0.7213
 9188SOL    HW228464   2.616   0.606   1.790 -1.0583  1.6248 -0.1833
 9189SOL     OW28465   3.431   1.796   6.957  0.3125  0.5732  0.0800
 9189SOL    HW128466   3.361   1.866   6.941 -2.9066 -1.9958  1.7666
 9189SOL    HW228467   3.417   1.720   6.894  1.0727 -0.3332  0.9678
 9190SOL     OW28468   1.865   6.963   5.003 -0.0433  0.3376 -0.2064
 9190SOL    HW128469   1.769   6.950   5.028 -0.4552  1.0975 -1.3347
 9190SOL    HW228470   1.903   7.040   5.055  0.1507 -0.3281  0.6761
 9191SOL     OW28471   3.469   0.798   2.436 -0.3558  0.0586  0.0677
 9191SOL    HW128472   3.562   0.764   2.420 -0.0911  0.4222  0.7810
 9191SOL    HW228473   3.410   0.772   2.359  0.5613  0.6644 -0.8747
 9192SOL     OW28474   3.018   5.167   4.617 -0.4753 -0.2893 -0.4979
 9192SOL    HW128475   2.971   5.231   4.557  1.4105  1.2545 -0.4320
 9192SOL    HW228476   2.967   5.156   4.702 -1.5389  0.0003 -1.0893
 9193SOL     OW28477   3.165   4.442   0.579  0.1991  0.0667 -0.2035
 9193SOL    HW128478   3.132   4.354   0.613  0.2616 -0.4116 -1.3448
 9193SOL    HW228479   3.255   4.430   0.537 -0.2968  0.4383 -1.4022
 9194SOL     OW28480   4.139   4.688   3.359  0.3866 -0.3399  0.2436
 9194SOL    HW128481   4.133   4.610   3.421 -0.4373 -0.8169 -0.4277
 9194SOL    HW228482   4.084   4.764   3.394  1.7451  0.2079  1.2585
 9195SOL     OW28483   0.349   2.451   4.172 -0.2144  0.1718 -0.1383
 9195SOL    HW128484   0.442   2.424   4.196 -0.2772  0.5955  0.6153
 9195SOL    HW228485   0.296   2.465   4.255 -0.3376  2.0208 -0.4720
 9196SOL     OW28486   6.296   5.191   3.012 -0.0464  0.1599 -0.2316
 9196SOL    HW128487   6.308   5.288   3.033 -0.6860  0.3252 -0.6049
 9196SOL    HW228488   6.385   5.150   2.989  0.2909  0.5476  0.3767
 9197SOL     OW28489   2.773   2.145   6.535 -0.2727 -0.6639  0.0493
 9197SOL    HW128490   2.776   2.071   6.602  2.1819  0.9060  1.8257
 9197SOL    HW228491   2.803   2.110   6.446 -3.1462 -2.6742 -0.2679
 9198SOL     OW28492   6.854   3.477   4.958 -0.6326  0.4187  0.1614
 9198SOL    HW128493   6.864   3.565   5.003 -1.7915  0.4474  0.3953
 9198SOL    HW228494   6.838   3.406   5.027  0.1511  0.0387 -0.0330
 9199SOL     OW28495   2.233   3.726   5.988 -0.3127  0.2219  0.4058
 9199SOL    HW128496   2.235   3.817   5.945  0.7604  0.7817  1.5768
 9199SOL    HW228497   2.297   3.666   5.941  0.6059  0.7300  0.9793
 9200SOL     OW28498   3.892   6.206   3.059  0.1450  0.9011  0.0505
 9200SOL    HW128499   3.885   6.106   3.056 -1.3321  1.0119 -1.0390
 9200SOL    HW228500   3.832   6.246   2.990 -0.4813  2.5998  1.4925
 9201SOL     OW28501   0.225   2.519   2.444  0.0906 -0.2073 -0.2416
 9201SOL    HW128502   0.134   2.522   2.486  0.0143 -1.5313 -0.2552
 9201SOL    HW228503   0.222   2.565   2.355 -1.0741 -1.8298 -1.0954
 9202SOL     OW28504   3.262   6.493   1.333  0.6553 -0.5021  0.0695
 9202SOL    HW128505   3.289   6.408   1.378  2.4789  0.3562  0.7071
 9202SOL    HW228506   3.205   6.547   1.395  1.7739 -0.0733  0.7675
 9203SOL     OW28507   0.242   0.985   0.279 -0.0235 -0.0569 -0.5816
 9203SOL    HW128508   0.272   0.923   0.206 -2.5750 -0.0756 -1.7160
 9203SOL    HW228509   0.165   1.040   0.246  0.4986  1.8957  1.2531
 9204SOL     OW28510   5.611   4.215   2.294  0.3118  0.3167 -0.1073
 9204SOL    HW128511   5.560   4.196   2.210 -0.0544  0.5174  0.0634
 9204SOL    HW228512   5.547   4.243   2.366  0.6114  0.0443  0.2692
 9205SOL     OW28513   4.908   3.043   1.021  0.3667  0.1959  0.0417
 9205SOL    HW128514   4.945   3.072   1.109  0.1665 -1.4308  0.7118
 9205SOL    HW228515   4.820   3.088   1.005  0.7576  1.0670  0.3168
 9206SOL     OW28516   6.417   0.071   4.250  0.0429  0.0901  0.7252
 9206SOL    HW128517   6.434   0.130   4.172  0.7572  1.6322  1.9879
 9206SOL    HW228518   6.442  -0.023   4.227  0.3108  0.5215 -0.8534
 9207SOL     OW28519   5.219   6.880   0.493  0.6025 -0.5300  0.0154
 9207SOL    HW128520   5.313   6.844   0.492  1.2323  1.0629 -0.2878
 9207SOL    HW228521   5.213   6.954   0.559 -0.4563 -0.5980  0.0039
 9208SOL     OW28522   6.894   1.916   2.722 -0.3026 -0.4285  0.2777
 9208SOL    HW128523   6.979   1.961   2.693 -0.1717  0.3009  1.7089
 9208SOL    HW228524   6.895   1.821   2.690  0.3299 -0.0070 -1.0690
 9209SOL     OW28525   0.208   6.878   3.902 -0.2465 -0.4535 -0.5538
 9209SOL    HW128526   0.118   6.835   3.896  0.0367 -0.9319 -1.7471
 9209SOL    HW228527   0.279   6.811   3.882  0.4269 -0.1913  0.8104
 9210SOL     OW28528   1.330   6.635   2.204  0.3294 -0.4935  0.2978
 9210SOL    HW128529   1.240   6.593   2.188  0.3099  0.2122 -1.7605
 9210SOL    HW228530   1.390   6.568   2.249  0.0436 -2.5312 -2.0981
 9211SOL     OW28531   5.000   0.983   5.802 -0.0023 -0.0069  0.5388
 9211SOL    HW128532   5.084   1.037   5.808 -0.0588  0.2668 -0.7795
 9211SOL    HW228533   5.023   0.886   5.795  0.2727  0.1250 -0.7112
 9212SOL     OW28534   5.750   3.983   0.721  0.5898 -0.1096  0.1880
 9212SOL    HW128535   5.757   4.082   0.712 -0.7426 -0.0579 -0.6072
 9212SOL    HW228536   5.665   3.959   0.768  0.6851 -0.8841 -0.0069
 9213SOL     OW28537   5.283   0.795   4.896 -0.1059  0.2880  0.0549
 9213SOL    HW128538   5.213   0.861   4.870  0.0739  0.3747 -0.2157
 9213SOL    HW228539   5.242   0.722   4.951 -0.2011  0.9349  0.8593
 9214SOL     OW28540   1.498   1.131   4.867  0.7833  0.3200 -0.4239
 9214SOL    HW128541   1.574   1.126   4.932 -0.4034  0.1478  0.9768
 9214SOL    HW228542   1.431   1.197   4.899 -1.1066 -1.6762 -0.0705
 9215SOL     OW28543   6.038   4.395   2.193  0.6030  0.4658 -0.3331
 9215SOL    HW128544   6.113   4.445   2.149  0.2571  0.3538 -1.0691
 9215SOL    HW228545   5.956   4.401   2.136  0.2201  0.0832  0.1711
 9216SOL     OW28546   2.725   0.776   1.333  0.0082 -0.2488  0.1893
 9216SOL    HW128547   2.722   0.868   1.371  2.0622 -0.1725  0.2564
 9216SOL    HW228548   2.768   0.778   1.243  1.6823 -1.3220  0.9089
 9217SOL     OW28549   5.514   1.467   1.099  0.0923  0.5685 -0.3869
 9217SOL    HW128550   5.433   1.518   1.070 -1.3604 -0.8145  1.0331
 9217SOL    HW228551   5.516   1.378   1.052 -1.3333 -0.9556  2.1885
 9218SOL     OW28552   5.363   5.534   6.731 -0.0445  0.1845  0.1059
 9218SOL    HW128553   5.447   5.525   6.677 -1.1458 -1.8904 -1.4048
 9218SOL    HW228554   5.370   5.479   6.814  0.3484  0.6247  0.3715
 9219SOL     OW28555   4.102   3.582   6.259  0.0744  0.3035  0.3097
 9219SOL    HW128556   4.183   3.581   6.317 -1.9272 -0.5660  3.3527
 9219SOL    HW228557   4.128   3.598   6.164  3.7230  0.1990  1.1728
 9220SOL     OW28558   1.077   6.998   1.885  0.2748 -0.3276  0.6490
 9220SOL    HW128559   1.132   6.968   1.963  0.9747 -1.6262 -0.3039
 9220SOL    HW228560   1.119   6.967   1.800 -0.8369  0.4609 -0.2265
 9221SOL     OW28561   4.438   1.861   2.889  0.5134 -0.5878  0.2263
 9221SOL    HW128562   4.412   1.789   2.955 -0.8587 -1.6176 -1.3460
 9221SOL    HW228563   4.381   1.942   2.905  0.4049 -0.7148  0.5011
 9222SOL     OW28564   3.509   0.526   3.761 -0.0735 -0.7871  0.1768
 9222SOL    HW128565   3.466   0.562   3.679  0.6201 -1.0106 -0.2941
 9222SOL    HW228566   3.518   0.427   3.753 -0.1210 -0.8267  0.5835
 9223SOL     OW28567   4.281   4.725   4.654 -0.2801 -0.1817  0.0542
 9223SOL    HW128568   4.369   4.695   4.692  0.6109  1.1729 -0.8305
 9223SOL    HW228569   4.259   4.669   4.574  1.4234  1.4206 -1.6546
 9224SOL     OW28570   3.298   0.395   2.663  0.1531 -0.3521  0.1705
 9224SOL    HW128571   3.361   0.367   2.591 -1.2636 -0.4173 -1.0923
 9224SOL    HW228572   3.337   0.372   2.753  1.3928 -1.4257 -0.6083
 9225SOL     OW28573   2.623   6.864   0.905 -0.1577 -0.8637 -0.4645
 9225SOL    HW128574   2.552   6.814   0.954  0.8889 -1.5105  0.4563
 9225SOL    HW228575   2.658   6.808   0.830  1.0397 -1.5994  0.5890
 9226SOL     OW28576   6.745   0.053   5.121  0.4622  0.0112  0.1786
 9226SOL    HW128577   6.768   0.091   5.210 -2.4472  0.6019  0.8062
 9226SOL    HW228578   6.770   0.118   5.049  3.0118 -0.5579  0.4780
 9227SOL     OW28579   5.922   3.643   0.415  0.1289  0.0864  0.4959
 9227SOL    HW128580   5.828   3.625   0.444 -0.1257 -2.6277 -1.6399
 9227SOL    HW228581   5.923   3.718   0.349 -0.3433  0.9172  1.4133
 9228SOL     OW28582   3.524   2.974   3.511 -0.3209  0.3892  0.0263
 9228SOL    HW128583   3.601   2.951   3.451  1.1734  3.9767  0.3321
 9228SOL    HW228584   3.536   2.930   3.600  1.0172  0.3243 -0.1734
 9229SOL     OW28585   0.598   5.072   2.001 -0.1279  0.4893 -0.5437
 9229SOL    HW128586   0.525   5.127   2.040 -1.2126 -1.3162  0.0845
 9229SOL    HW228587   0.651   5.128   1.937 -1.0316  2.2838  0.1993
 9230SOL     OW28588   2.145   6.282   4.416 -0.4880 -0.1085  0.4769
 9230SOL    HW128589   2.169   6.361   4.359 -0.7786 -0.1433  0.3070
 9230SOL    HW228590   2.128   6.203   4.358 -1.0785 -0.0680  0.5961
 9231SOL     OW28591   6.004   6.002   1.617  0.3699 -0.7315 -0.7614
 9231SOL    HW128592   5.962   6.070   1.677 -1.8718 -2.7214  0.0726
 9231SOL    HW228593   6.000   6.033   1.522 -0.5998  0.2865 -0.4005
 9232SOL     OW28594   1.570   4.780   1.225 -0.1980 -0.0949 -0.1737
 9232SOL    HW128595   1.669   4.790   1.209  0.6617 -1.3844  3.3730
 9232SOL    HW228596   1.534   4.865   1.265  0.6029 -0.9727  2.6861
 9233SOL     OW28597   1.383   1.503   5.772 -0.3092  0.1652  0.1281
 9233SOL    HW128598   1.450   1.484   5.845 -0.0403 -0.7907 -0.3448
 9233SOL    HW228599   1.319   1.573   5.803  0.5611  0.6806  0.8120
 9234SOL     OW28600   4.029   4.237   1.002 -0.9433 -0.1619  0.4395
 9234SOL    HW128601   3.959   4.166   1.014  1.3869 -2.4277  1.9559
 9234SOL    HW228602   4.012   4.312   1.066 -2.9659  0.2921 -0.5489
 9235SOL     OW28603   0.449   2.885   3.343  0.1726  0.0860  0.4143
 9235SOL    HW128604   0.471   2.835   3.427  1.8953  0.6852  0.3675
 9235SOL    HW228605   0.361   2.930   3.354  0.4078  0.2409  1.9592
 9236SOL     OW28606   2.382   5.345   4.441 -0.3198  0.2504 -0.0902
 9236SOL    HW128607   2.450   5.400   4.391  1.2322 -0.7235  0.8408
 9236SOL    HW228608   2.414   5.251   4.445 -1.5151 -0.1295  0.8311
 9237SOL     OW28609   6.677   6.690   4.646  0.0477  0.4956  0.2180
 9237SOL    HW128610   6.648   6.681   4.741  0.0289 -1.1997  0.0648
 9237SOL    HW228611   6.628   6.767   4.604 -1.1074  0.2918  1.1388
 9238SOL     OW28612   1.977   0.937   4.579 -0.2592 -0.3996 -0.0809
 9238SOL    HW128613   1.989   1.032   4.606 -1.6708 -0.1817 -0.1601
 9238SOL    HW228614   2.056   0.907   4.524  0.5645  0.4646  0.6153
 9239SOL     OW28615   1.447   0.364   6.414  0.0294  0.1587  0.0375
 9239SOL    HW128616   1.352   0.387   6.432  0.1863  0.8636  0.0342
 9239SOL    HW228617   1.465   0.371   6.315  0.0930  0.0830  0.0437
 9240SOL     OW28618   2.409   1.500   5.427 -0.2863  0.1461 -0.3290
 9240SOL    HW128619   2.476   1.457   5.487  0.7996 -0.3565 -1.8674
 9240SOL    HW228620   2.319   1.495   5.470  0.1020 -2.0531  0.3527
 9241SOL     OW28621   4.382   4.388   6.939  0.0339 -0.3588  0.1292
 9241SOL    HW128622   4.336   4.346   7.018  0.9934 -1.0073  0.3560
 9241SOL    HW228623   4.481   4.377   6.948  0.2478  0.8913 -0.4250
 9242SOL     OW28624   2.215   3.208   6.808  0.1844  0.1011 -0.0266
 9242SOL    HW128625   2.288   3.236   6.746 -1.2968 -0.1369 -1.9471
 9242SOL    HW228626   2.128   3.247   6.778 -0.6879 -0.4448  1.6266
 9243SOL     OW28627   1.264   6.619   6.783 -0.3435 -0.0346  0.7748
 9243SOL    HW128628   1.223   6.632   6.693  0.2091 -0.8838  0.3850
 9243SOL    HW228629   1.211   6.553   6.836  0.1168 -0.6165  0.5262
 9244SOL     OW28630   3.348   5.013   1.269  0.0723  0.3264 -0.8100
 9244SOL    HW128631   3.336   5.110   1.289 -0.1692  0.5912 -2.1399
 9244SOL    HW228632   3.430   4.979   1.315 -0.1992  0.9880  0.1911
 9245SOL     OW28633   6.365   5.391   4.043 -0.3317  0.2701 -0.3237
 9245SOL    HW128634   6.413   5.459   4.098 -0.0527 -1.0768  1.1573
 9245SOL    HW228635   6.276   5.427   4.017  0.2509  1.6285 -0.5359
 9246SOL     OW28636   3.091   1.816   6.817 -0.1477 -0.0611 -0.0958
 9246SOL    HW128637   3.123   1.752   6.887 -2.1602 -2.5594 -1.3397
 9246SOL    HW228638   3.112   1.780   6.727  1.0413  2.4043 -0.9060
 9247SOL     OW28639   2.696   5.607   1.635 -0.7280 -0.8233  0.3940
 9247SOL    HW128640   2.620   5.542   1.640 -2.0856  0.6532 -0.3710
 9247SOL    HW228641   2.720   5.638   1.727  0.1296 -2.5671  0.7966
 9248SOL     OW28642   2.358   0.226   6.475 -0.1403 -0.4291  0.0903
 9248SOL    HW128643   2.315   0.175   6.549 -0.5208 -0.8255 -0.3929
 9248SOL    HW228644   2.356   0.324   6.494 -0.8544 -0.4814  0.2733
 9249SOL     OW28645   2.013   2.077   2.816  0.2374  0.1159  0.0916
 9249SOL    HW128646   1.956   1.995   2.824  0.0108  0.3959  1.5649
 9249SOL    HW228647   1.956   2.152   2.781  0.7374 -0.6044 -2.4919
 9250SOL     OW28648   0.503   4.004   4.154 -0.1197 -0.0836 -0.0383
 9250SOL    HW128649   0.462   4.086   4.193  0.6963 -0.4946  1.7936
 9250SOL    HW228650   0.476   3.925   4.208  2.2546 -0.4757  0.6714
 9251SOL     OW28651   4.191   1.442   0.222 -0.7593  0.8201  0.0654
 9251SOL    HW128652   4.149   1.482   0.304  0.3010 -0.8496  1.5241
 9251SOL    HW228653   4.120   1.411   0.159 -1.6365  1.2060  0.8474
 9252SOL     OW28654   6.376   1.111   4.777 -0.5101  0.0285  0.5799
 9252SOL    HW128655   6.441   1.040   4.806 -0.0049  0.6226  0.9218
 9252SOL    HW228656   6.285   1.071   4.767 -0.0210 -0.9097 -0.2987
 9253SOL     OW28657   0.754   5.021   4.281 -0.2802  0.0568  0.2808
 9253SOL    HW128658   0.840   5.073   4.281 -0.6676  0.8007  2.2192
 9253SOL    HW228659   0.745   4.970   4.196  2.4121 -0.5907  0.3206
 9254SOL     OW28660   6.121   7.012   1.458 -0.3526  0.1265  0.0375
 9254SOL    HW128661   6.193   6.989   1.392 -0.2504  1.8715 -0.5039
 9254SOL    HW228662   6.058   7.077   1.417 -0.1751  1.4092  1.7021
 9255SOL     OW28663   1.070   2.385   2.315 -0.1133  0.1367 -0.3439
 9255SOL    HW128664   1.167   2.370   2.334 -0.5751 -0.3992  1.7703
 9255SOL    HW228665   1.048   2.482   2.330 -0.2322 -0.0588  0.7742
 9256SOL     OW28666   1.106   5.329   0.999  0.1534  0.2038  0.7751
 9256SOL    HW128667   1.192   5.287   0.972  0.1143 -0.9783  2.3716
 9256SOL    HW228668   1.030   5.281   0.954  0.2603  0.7654 -0.0374
 9257SOL     OW28669   5.853   2.187   4.145  0.9945 -0.3217 -0.0211
 9257SOL    HW128670   5.781   2.206   4.212  1.2116 -0.1461  0.1605
 9257SOL    HW228671   5.939   2.228   4.175  1.4455 -1.4776  0.3252
 9258SOL     OW28672   4.767   5.107   3.753 -0.1522  0.3471  0.6254
 9258SOL    HW128673   4.858   5.134   3.720 -0.9171  2.3889  0.0087
 9258SOL    HW228674   4.745   5.160   3.835 -1.1628  0.6284  0.1842
 9259SOL     OW28675   0.069   2.172   5.875 -0.7756 -0.0823  0.1521
 9259SOL    HW128676   0.165   2.156   5.850 -0.9489  0.8115 -1.1987
 9259SOL    HW228677   0.020   2.085   5.873  0.3249 -0.8442  2.5405
 9260SOL     OW28678   5.186   5.806   4.996 -0.3776 -0.0200  0.3522
 9260SOL    HW128679   5.252   5.745   5.039  1.4268  3.1587  2.5417
 9260SOL    HW228680   5.213   5.822   4.901 -0.1854 -1.6074  0.1149
 9261SOL     OW28681   1.843   3.161   1.382 -0.2704  0.1052  0.6162
 9261SOL    HW128682   1.858   3.077   1.433 -1.1332 -1.0600 -0.9629
 9261SOL    HW228683   1.749   3.192   1.394  0.3860  1.6290  2.2439
 9262SOL     OW28684   5.458   6.192   6.546 -0.2674 -0.2608  0.5057
 9262SOL    HW128685   5.371   6.187   6.497 -0.6913 -1.4784  1.3548
 9262SOL    HW228686   5.500   6.281   6.528  1.0167 -1.5360 -4.4327
 9263SOL     OW28687   1.879   5.301   1.948  0.0766  0.2616 -0.0076
 9263SOL    HW128688   1.893   5.202   1.947  0.0556  0.2429 -1.3354
 9263SOL    HW228689   1.968   5.347   1.958  0.0447  0.1222  1.0208
 9264SOL     OW28690   0.243   3.868   5.528  0.2212  0.2000 -0.1274
 9264SOL    HW128691   0.181   3.831   5.597  1.0673 -1.0250  0.0117
 9264SOL    HW228692   0.210   3.843   5.437  0.1523  0.1378 -0.0856
 9265SOL     OW28693   3.341   6.753   6.939 -0.0382 -0.9948  0.0899
 9265SOL    HW128694   3.306   6.806   7.016  0.6330 -0.5121  0.0747
 9265SOL    HW228695   3.295   6.782   6.855  0.3394 -0.4123  0.0779
 9266SOL     OW28696   6.950   5.408   0.456 -0.2259  0.4166  0.1652
 9266SOL    HW128697   6.879   5.462   0.502 -0.4717 -0.2111  0.5390
 9266SOL    HW228698   6.932   5.310   0.470 -0.9804  0.1328 -2.2446
 9267SOL     OW28699   5.783   0.443   3.153 -0.1881  0.3692 -0.4033
 9267SOL    HW128700   5.830   0.527   3.126 -0.0293  0.4902  0.2283
 9267SOL    HW228701   5.845   0.366   3.145  0.2534  0.5754  0.7564
 9268SOL     OW28702   6.110   0.662   6.614  0.3600 -0.1589 -0.4270
 9268SOL    HW128703   6.100   0.761   6.615  1.4854  0.0127  2.2560
 9268SOL    HW228704   6.206   0.638   6.607  0.4386 -0.8985  2.0779
 9269SOL     OW28705   3.860   6.340   0.748  0.4731 -0.4743  0.3826
 9269SOL    HW128706   3.844   6.432   0.713 -1.6123  0.5115  3.4680
 9269SOL    HW228707   3.814   6.274   0.689 -1.6759  0.9198  0.3500
 9270SOL     OW28708   1.488   6.706   4.272 -0.3952  0.2416 -0.4413
 9270SOL    HW128709   1.562   6.715   4.206 -0.5507  1.0695 -0.5066
 9270SOL    HW228710   1.485   6.788   4.329  1.2155 -1.3405  2.1396
 9271SOL     OW28711   0.847   4.790   5.600 -0.3605 -0.0866 -0.1282
 9271SOL    HW128712   0.787   4.823   5.673 -0.5341  2.2025 -1.2056
 9271SOL    HW228713   0.941   4.816   5.619 -0.2912 -0.1809 -0.3370
 9272SOL     OW28714   5.783   6.374   5.572  0.1864 -0.1056  0.4473
 9272SOL    HW128715   5.802   6.277   5.564 -0.7428 -0.2225 -0.5510
 9272SOL    HW228716   5.701   6.388   5.627 -0.4114  0.0231 -0.4510
 9273SOL     OW28717   6.852   4.813   3.272 -0.7154 -0.0174 -0.3608
 9273SOL    HW128718   6.787   4.737   3.285  0.1267 -0.8412 -0.8363
 9273SOL    HW228719   6.939   4.777   3.240 -0.2125  1.1453 -0.3531
 9274SOL     OW28720   5.709   3.231   0.965  0.0240 -0.1896 -0.0114
 9274SOL    HW128721   5.698   3.244   0.867  1.0858  0.0832 -0.1012
 9274SOL    HW228722   5.689   3.316   1.013 -1.7178 -0.6424  0.1310
 9275SOL     OW28723   6.455   4.257   1.598 -0.6482 -0.5590 -0.0986
 9275SOL    HW128724   6.536   4.266   1.656  0.0817 -0.6227 -1.0757
 9275SOL    HW228725   6.415   4.166   1.611 -1.5903  0.0564  1.6429
 9276SOL     OW28726   1.953   2.908   6.203 -0.4809 -0.4387 -0.1087
 9276SOL    HW128727   1.984   2.879   6.113  1.5343 -0.5939  0.5782
 9276SOL    HW228728   1.943   2.829   6.263 -2.3709 -0.3989 -0.3066
 9277SOL     OW28729   4.339   4.700   3.134  1.1828  0.0812 -0.2114
 9277SOL    HW128730   4.421   4.740   3.176  0.7441  0.2642  0.4943
 9277SOL    HW228731   4.302   4.630   3.195 -0.3940  1.4825  0.4960
 9278SOL     OW28732   1.015   4.277   2.576  0.4085  0.4033  0.2517
 9278SOL    HW128733   1.095   4.227   2.610  0.3117  1.1223  1.6036
 9278SOL    HW228734   1.045   4.361   2.532  0.4031  0.6476  0.7122
 9279SOL     OW28735   3.593   6.329   2.590  0.1996  0.1398 -0.0982
 9279SOL    HW128736   3.569   6.398   2.522  0.3418  1.8636  1.5280
 9279SOL    HW228737   3.672   6.277   2.558  2.0205  2.7566 -0.1041
 9280SOL     OW28738   1.619   5.159   1.507 -0.6530 -0.0304  0.9683
 9280SOL    HW128739   1.605   5.170   1.605  1.0741  2.3877  1.0222
 9280SOL    HW228740   1.713   5.132   1.489 -0.3906  1.4499 -0.0718
 9281SOL     OW28741   1.223   5.472   3.150 -0.1452  0.7696 -0.8116
 9281SOL    HW128742   1.267   5.523   3.225  0.4274  0.1571 -0.7211
 9281SOL    HW228743   1.149   5.527   3.112 -0.8259  0.8694  0.5726
 9282SOL     OW28744   3.563   2.033   3.492  0.6161 -0.9516 -0.7406
 9282SOL    HW128745   3.485   2.076   3.447 -0.3128 -1.1113  0.6446
 9282SOL    HW228746   3.531   1.981   3.572  2.2216 -0.2968  0.3816
 9283SOL     OW28747   0.409   4.272   6.737 -0.1393  0.2312  1.1408
 9283SOL    HW128748   0.409   4.256   6.638  1.9439 -1.1931  1.3067
 9283SOL    HW228749   0.404   4.370   6.755  0.5077  0.5797 -0.4138
 9284SOL     OW28750   3.978   5.702   6.179  0.2017  0.0721 -0.2231
 9284SOL    HW128751   3.963   5.720   6.276 -0.6804  0.3823 -0.4137
 9284SOL    HW228752   4.065   5.654   6.168 -0.1064 -0.7584  0.8007
 9285SOL     OW28753   0.756   5.014   2.991 -0.3726  0.0529 -0.1216
 9285SOL    HW128754   0.853   5.000   2.973 -0.0724  1.5106  0.2524
 9285SOL    HW228755   0.708   5.036   2.906 -0.1518  0.4965 -0.1336
 9286SOL     OW28756   4.616   4.737   2.118  0.3663 -0.0145  0.0521
 9286SOL    HW128757   4.631   4.831   2.089 -1.3325  0.9226  1.9266
 9286SOL    HW228758   4.699   4.701   2.161  0.8033  0.8962 -0.0284
 9287SOL     OW28759   5.697   5.336   6.851 -0.2065  0.0458  0.0276
 9287SOL    HW128760   5.702   5.400   6.774 -0.4536  0.7318  0.5707
 9287SOL    HW228761   5.604   5.303   6.861 -0.7004  1.6738  1.3670
 9288SOL     OW28762   2.476   6.869   4.950  0.5593 -0.2695  0.1919
 9288SOL    HW128763   2.440   6.820   4.872  1.2517 -1.1603  0.4137
 9288SOL    HW228764   2.491   6.965   4.926 -2.9557  0.4760  0.4046
 9289SOL     OW28765   3.294   6.226   3.652 -0.6008 -0.0036 -0.1539
 9289SOL    HW128766   3.372   6.235   3.592  0.4405 -0.6381  1.0504
 9289SOL    HW228767   3.222   6.290   3.624  0.4127  0.7297 -1.1596
 9290SOL     OW28768   4.524   6.741   4.710 -0.2162 -0.1515  0.4287
 9290SOL    HW128769   4.436   6.786   4.725 -0.4308 -0.3794 -0.1161
 9290SOL    HW228770   4.514   6.673   4.637  0.6058  0.3849 -0.1931
 9291SOL     OW28771   5.859   5.314   5.858 -0.0701  0.5742  0.0643
 9291SOL    HW128772   5.764   5.282   5.847  0.0846  0.5307 -1.4114
 9291SOL    HW228773   5.921   5.240   5.831  0.3074  1.7178 -2.5177
 9292SOL     OW28774   3.092   2.634   1.736  0.1923 -0.0577  0.1923
 9292SOL    HW128775   3.038   2.565   1.784  0.7883  0.6654  1.9876
 9292SOL    HW228776   3.031   2.701   1.693 -0.4601  1.1787  2.8313
 9293SOL     OW28777   4.842   2.009   0.391  0.0564 -0.5415 -0.3669
 9293SOL    HW128778   4.820   2.104   0.370 -0.5574 -0.7775 -0.7983
 9293SOL    HW228779   4.941   2.000   0.403  0.0391  0.3208  0.5470
 9294SOL     OW28780   5.071   5.495   6.712  0.4149 -0.7680 -0.2081
 9294SOL    HW128781   5.166   5.508   6.740  1.2009 -1.8192 -2.2247
 9294SOL    HW228782   5.013   5.558   6.763  2.3223  0.6946  0.2780
 9295SOL     OW28783   4.379   0.583   2.103  0.5729  0.4418  0.0118
 9295SOL    HW128784   4.451   0.605   2.038 -0.7946  0.4819 -1.5630
 9295SOL    HW228785   4.297   0.637   2.083  0.3738  1.1556  2.3870
 9296SOL     OW28786   3.358   2.889   5.713 -0.6311  0.5546 -0.1282
 9296SOL    HW128787   3.381   2.978   5.674  0.8581  0.1160 -0.2915
 9296SOL    HW228788   3.287   2.845   5.657 -0.4874  1.1092 -0.7468
 9297SOL     OW28789   1.267   5.112   2.348  0.0583  0.0048 -0.3399
 9297SOL    HW128790   1.298   5.126   2.442 -0.6833 -0.3546 -0.0318
 9297SOL    HW228791   1.187   5.170   2.330  0.7136  0.7290 -1.0393
 9298SOL     OW28792   4.998   3.163   0.551  0.1178  0.2633  0.3336
 9298SOL    HW128793   4.934   3.094   0.585 -0.1566 -1.7138 -3.6359
 9298SOL    HW228794   5.078   3.167   0.611 -1.3184 -1.0757  2.4675
 9299SOL     OW28795   1.183   0.773   4.042  0.3740 -0.1780  0.1581
 9299SOL    HW128796   1.269   0.735   4.008  0.3922  0.2509 -0.2838
 9299SOL    HW228797   1.170   0.865   4.005  0.3544  0.2730  1.2512
 9300SOL     OW28798   1.816   6.189   4.407 -0.7651  0.1418  0.5349
 9300SOL    HW128799   1.909   6.180   4.443 -0.3746 -0.2791 -0.5140
 9300SOL    HW228800   1.799   6.283   4.380  0.3122 -0.1971 -1.6055
 9301SOL     OW28801   5.645   3.865   5.333  0.5154 -0.2376  0.4366
 9301SOL    HW128802   5.558   3.866   5.384  1.3129 -1.9712  1.9721
 9301SOL    HW228803   5.667   3.957   5.302 -1.8338  0.2576  0.0508
 9302SOL     OW28804   2.564   6.360   3.451  0.1705 -0.7413  0.6105
 9302SOL    HW128805   2.581   6.448   3.407  0.3336  0.3105  2.6428
 9302SOL    HW228806   2.466   6.342   3.453  0.0487 -0.0967  1.0440
 9303SOL     OW28807   0.952   3.819   4.130  0.5299  0.2079 -0.0377
 9303SOL    HW128808   1.045   3.782   4.119 -0.7150 -2.5848 -3.3024
 9303SOL    HW228809   0.928   3.871   4.048 -1.4903 -1.1854 -0.4118
 9304SOL     OW28810   4.982   4.389   6.519  0.9506 -0.3656  0.0577
 9304SOL    HW128811   4.901   4.429   6.563  2.3597  0.2347  2.2645
 9304SOL    HW228812   5.038   4.462   6.480  0.7881 -0.7284 -0.8883
 9305SOL     OW28813   2.372   0.894   1.305 -0.1177 -0.5639  0.1032
 9305SOL    HW128814   2.402   0.799   1.310 -2.8883 -1.5246  0.1665
 9305SOL    HW228815   2.277   0.897   1.274 -0.0114  2.2229 -0.1564
 9306SOL     OW28816   5.146   5.600   3.616 -0.5606  0.0129 -0.4995
 9306SOL    HW128817   5.115   5.671   3.680 -1.9368 -1.1429  0.1782
 9306SOL    HW228818   5.122   5.627   3.523 -0.1545  0.8839 -0.3687
 9307SOL     OW28819   2.855   5.187   0.876 -0.0294 -0.1517  0.8168
 9307SOL    HW128820   2.901   5.100   0.858 -2.8003 -1.4869 -0.2770
 9307SOL    HW228821   2.852   5.241   0.791 -1.7838 -0.7777  0.4477
 9308SOL     OW28822   2.241   4.207   2.332 -0.3085  0.4572  0.2864
 9308SOL    HW128823   2.190   4.131   2.292  0.4575 -0.1996  0.5363
 9308SOL    HW228824   2.269   4.270   2.259 -0.1152 -0.0047 -0.0417
 9309SOL     OW28825   4.868   3.865   5.110 -0.4276 -0.0454  0.3396
 9309SOL    HW128826   4.826   3.780   5.080 -0.4936  0.3066 -0.6128
 9309SOL    HW228827   4.798   3.935   5.121 -0.2516  0.1890  0.0070
 9310SOL     OW28828   6.215   1.153   5.996 -0.7610  0.2094  0.1440
 9310SOL    HW128829   6.122   1.128   6.024 -2.1347  1.6401 -2.7073
 9310SOL    HW228830   6.211   1.231   5.934  2.4970  0.9707  0.7034
 9311SOL     OW28831   5.352   4.140   0.330  0.1821 -0.1574 -0.2672
 9311SOL    HW128832   5.341   4.060   0.271 -0.2255  0.4625 -1.0547
 9311SOL    HW228833   5.264   4.166   0.368  0.3224 -0.1134  0.0266
 9312SOL     OW28834   0.002   4.853   5.557 -0.2283 -0.1982  0.4114
 9312SOL    HW128835  -0.032   4.937   5.599 -0.9564 -0.4687  0.3863
 9312SOL    HW228836   0.071   4.876   5.488  0.5837  0.2812  1.3614
 9313SOL     OW28837   0.265   0.932   1.519  0.0657  0.3131 -0.0054
 9313SOL    HW128838   0.201   1.003   1.547  2.1842  2.1917  0.3022
 9313SOL    HW228839   0.266   0.859   1.588 -1.8574  0.1137 -0.1373
 9314SOL     OW28840   5.574   3.786   1.249  0.1082  0.0296  0.0526
 9314SOL    HW128841   5.478   3.810   1.240  0.4783  0.8288 -2.3566
 9314SOL    HW228842   5.619   3.848   1.312 -0.5821  0.8113 -0.2164
 9315SOL     OW28843   3.216   5.925   5.705 -0.5584  0.0631 -0.3235
 9315SOL    HW128844   3.243   5.976   5.624 -1.2297  1.9844  0.6151
 9315SOL    HW228845   3.291   5.925   5.771 -0.6474  0.0314 -0.2222
 9316SOL     OW28846   6.049   0.700   0.682  0.2966 -0.4406  0.0565
 9316SOL    HW128847   6.001   0.677   0.767  0.7194 -0.5618  0.2663
 9316SOL    HW228848   6.146   0.679   0.693  0.5843  0.8407  0.0209
 9317SOL     OW28849   2.064   0.319   2.794  0.3787  0.0046 -0.3683
 9317SOL    HW128850   2.128   0.395   2.808 -0.7941  1.7809 -3.6228
 9317SOL    HW228851   2.084   0.275   2.706 -3.3207  1.2980 -2.0445
 9318SOL     OW28852   1.418   6.345   4.833 -0.0157 -0.3677 -0.5299
 9318SOL    HW128853   1.476   6.426   4.826  1.2344 -1.2166 -0.3289
 9318SOL    HW228854   1.334   6.360   4.781  0.1773  1.0564 -0.4719
 9319SOL     OW28855   3.108   1.573   1.269 -0.3856 -0.5554 -0.1943
 9319SOL    HW128856   3.070   1.611   1.185 -0.8169  0.9889  0.6531
 9319SOL    HW228857   3.041   1.514   1.313 -0.5067 -0.6260 -0.4769
 9320SOL     OW28858   4.877   6.912   6.450 -0.5891  0.4581  0.4434
 9320SOL    HW128859   4.846   6.997   6.492  1.4472  1.6031 -0.2092
 9320SOL    HW228860   4.928   6.933   6.366 -1.8379 -1.5658 -0.9110
 9321SOL     OW28861   1.908   2.966   4.809  1.4368 -0.1070  0.2982
 9321SOL    HW128862   1.958   3.053   4.811  2.0816 -0.4827  1.2604
 9321SOL    HW228863   1.906   2.927   4.901 -3.0786  1.2157  1.0173
 9322SOL     OW28864   0.370   2.944   0.414  0.1902 -0.1534  0.5427
 9322SOL    HW128865   0.351   2.923   0.318  2.4141 -1.9084  0.3981
 9322SOL    HW228866   0.385   2.858   0.464 -0.1167  0.7652  2.2931
 9323SOL     OW28867   5.665   3.242   5.085  0.0390  0.1631 -0.4155
 9323SOL    HW128868   5.758   3.272   5.104  0.0103  0.5529 -0.8921
 9323SOL    HW228869   5.666   3.178   5.008 -0.4099  2.6056 -2.5993
 9324SOL     OW28870   1.722   5.798   0.903  0.6474 -0.1524  0.1295
 9324SOL    HW128871   1.708   5.713   0.952  0.1396  0.6425  1.4132
 9324SOL    HW228872   1.640   5.855   0.911  0.9744  0.4509 -0.7163
 9325SOL     OW28873   6.674   2.388   4.763 -0.5400 -0.5864  0.8920
 9325SOL    HW128874   6.752   2.354   4.710 -1.0624  0.4618 -0.6293
 9325SOL    HW228875   6.591   2.342   4.731 -1.1412  1.4301 -0.6519
 9326SOL     OW28876   2.759   4.247   0.929  0.7752  0.4599 -0.4939
 9326SOL    HW128877   2.797   4.330   0.971  1.5890 -0.3217  0.3490
 9326SOL    HW228878   2.728   4.184   1.000  0.3188 -0.0513 -1.1254
 9327SOL     OW28879   2.250   2.114   3.624  0.3227 -0.1730 -0.4364
 9327SOL    HW128880   2.164   2.087   3.581  0.1756  0.6196 -0.6697
 9327SOL    HW228881   2.288   2.192   3.575  0.4873  0.3365  0.4732
 9328SOL     OW28882   1.755   0.440   4.159 -0.9440 -0.0295  0.6126
 9328SOL    HW128883   1.714   0.531   4.149  1.4240  1.1092  0.6609
 9328SOL    HW228884   1.698   0.373   4.112 -3.0906  1.3374  1.0891
 9329SOL     OW28885   2.011   4.865   1.347  0.0881  0.3122 -0.6823
 9329SOL    HW128886   2.104   4.828   1.347  0.1601  0.4786  0.2375
 9329SOL    HW228887   1.961   4.827   1.269  0.8953  0.1627 -1.1471
 9330SOL     OW28888   0.124   0.231   2.789  0.1776 -0.1172 -0.6337
 9330SOL    HW128889   0.182   0.150   2.779  0.9388  0.4634 -1.0120
 9330SOL    HW228890   0.088   0.234   2.883  1.3021 -0.1349 -0.1903
 9331SOL     OW28891   1.630   6.722   3.823 -0.1045 -0.0514 -0.5140
 9331SOL    HW128892   1.719   6.768   3.825  0.9567 -1.9546 -0.9207
 9331SOL    HW228893   1.607   6.699   3.728 -0.5285 -0.4627 -0.3128
 9332SOL     OW28894   3.282   0.082   1.372 -0.2543  0.3866  0.1348
 9332SOL    HW128895   3.378   0.076   1.345 -0.2978 -0.5021  0.1506
 9332SOL    HW228896   3.225   0.098   1.291 -0.1732  0.0434  0.0100
 9333SOL     OW28897   1.458   5.967   2.260 -0.8020  0.2609 -0.2450
 9333SOL    HW128898   1.529   5.955   2.191 -1.0835 -2.2788 -0.1938
 9333SOL    HW228899   1.480   5.912   2.340  0.0758  3.9674  2.2981
 9334SOL     OW28900   5.706   6.251   1.182 -0.2661 -0.0602  0.0633
 9334SOL    HW128901   5.645   6.220   1.109  0.1536  1.5468 -1.0381
 9334SOL    HW228902   5.797   6.270   1.143 -0.4655  2.3646  0.6030
 9335SOL     OW28903   0.418   1.945   2.338 -0.6296  0.3988 -0.1086
 9335SOL    HW128904   0.399   2.006   2.415  0.4497  0.1681  0.3567
 9335SOL    HW228905   0.417   1.998   2.253 -1.6993  0.6806  0.0666
 9336SOL     OW28906   4.962   5.631   6.463  0.0224 -0.5543 -0.1970
 9336SOL    HW128907   4.991   5.541   6.495 -1.9244 -0.8349  0.9872
 9336SOL    HW228908   4.989   5.700   6.530  0.1193 -0.4866 -0.3070
 9337SOL     OW28909   2.474   2.570   4.956  0.1092  0.3228  0.2364
 9337SOL    HW128910   2.415   2.645   4.984 -2.0082 -1.9791  2.4679
 9337SOL    HW228911   2.550   2.562   5.021 -1.3426 -1.1899  1.8538
 9338SOL     OW28912   3.872   6.788   2.118 -0.5001 -0.6051  0.3097
 9338SOL    HW128913   3.862   6.887   2.115 -0.9576 -0.6394  0.7335
 9338SOL    HW228914   3.967   6.764   2.097 -0.3011 -0.0624  0.5720
 9339SOL     OW28915   0.178   1.916   5.008 -0.3530 -0.4193  0.5334
 9339SOL    HW128916   0.085   1.887   5.034 -0.1439 -0.9091  0.7413
 9339SOL    HW228917   0.172   1.986   4.937 -0.9018  0.0587  1.0453
 9340SOL     OW28918   4.278   4.453   0.841 -1.1888 -0.1798  0.8753
 9340SOL    HW128919   4.366   4.458   0.888 -1.1438  2.1886  0.6610
 9340SOL    HW228920   4.204   4.474   0.905 -1.3077  0.8865  0.4181
 9341SOL     OW28921   5.097   4.205   2.414  0.3262  0.0500 -0.1169
 9341SOL    HW128922   5.064   4.122   2.460 -1.9998  0.4236 -1.0048
 9341SOL    HW228923   5.117   4.184   2.318 -0.6744  0.5628 -0.4562
 9342SOL     OW28924   3.972   0.778   4.065 -0.1462  0.1164  0.3242
 9342SOL    HW128925   3.915   0.704   4.100  1.7309 -0.6338  1.9844
 9342SOL    HW228926   3.917   0.861   4.055 -1.8277 -0.9566  0.4033
 9343SOL     OW28927   4.834   4.285   1.249  0.5615  0.1795 -0.0928
 9343SOL    HW128928   4.784   4.307   1.166  0.0855 -0.9951 -0.1443
 9343SOL    HW228929   4.775   4.301   1.329  0.4090 -0.2977 -0.1000
 9344SOL     OW28930   6.197   0.990   5.052  0.3761 -0.5321 -0.1104
 9344SOL    HW128931   6.141   1.054   4.999 -0.2932  0.7332  1.9928
 9344SOL    HW228932   6.190   0.899   5.012 -2.5496 -0.2713 -0.4562
 9345SOL     OW28933   6.516   4.398   2.786 -0.3867 -0.2303 -0.3129
 9345SOL    HW128934   6.558   4.428   2.700  0.1263 -1.8769 -0.6742
 9345SOL    HW228935   6.459   4.318   2.769 -2.4738  1.0002  0.4515
 9346SOL     OW28936   5.088   0.229   1.592  0.1041  0.1495  0.1411
 9346SOL    HW128937   5.090   0.176   1.507 -4.1656  1.9800 -1.3939
 9346SOL    HW228938   5.084   0.326   1.571 -0.2045  0.7049  2.5083
 9347SOL     OW28939   5.211   0.675   2.162  0.1952 -0.3339  0.1625
 9347SOL    HW128940   5.130   0.659   2.218  0.3078 -0.1962  0.3662
 9347SOL    HW228941   5.243   0.769   2.176  0.3858 -0.3858  0.0773
 9348SOL     OW28942   1.581   3.816   1.549  0.2297  0.0869 -0.3703
 9348SOL    HW128943   1.509   3.825   1.480 -0.2121 -0.6764 -0.0161
 9348SOL    HW228944   1.671   3.822   1.505  0.0039 -2.7146 -1.4201
 9349SOL     OW28945   1.961   4.417   1.492 -0.3107 -0.1803  0.2292
 9349SOL    HW128946   1.866   4.399   1.521 -0.6884  2.0864  0.6172
 9349SOL    HW228947   2.017   4.434   1.573  0.0597  0.0720 -0.0814
 9350SOL     OW28948   6.986   0.632   1.320 -0.1261 -0.0248  0.1164
 9350SOL    HW128949   6.971   0.546   1.369  2.2143  0.6815  2.3042
 9350SOL    HW228950   7.084   0.648   1.310 -0.3975  3.1741  1.3719
 9351SOL     OW28951   3.383   5.754   5.195 -0.0217  0.1289 -0.4416
 9351SOL    HW128952   3.475   5.716   5.195  0.0942  0.3652 -1.5371
 9351SOL    HW228953   3.349   5.760   5.288  0.1662 -2.1277 -0.1803
 9352SOL     OW28954   1.786   6.023   5.134  0.7899 -0.7042 -0.0294
 9352SOL    HW128955   1.721   5.950   5.157 -0.8279  1.1721  1.7224
 9352SOL    HW228956   1.745   6.085   5.067  1.5516 -0.5130 -0.3352
 9353SOL     OW28957   1.326   3.874   1.421  0.7095 -0.1473 -0.0434
 9353SOL    HW128958   1.345   3.963   1.463  0.3743 -0.7341  1.4127
 9353SOL    HW228959   1.303   3.886   1.325  2.4349  1.1655 -0.3324
 9354SOL     OW28960   5.089   2.151   2.374  0.1659 -0.5463  0.2662
 9354SOL    HW128961   5.122   2.234   2.419  1.8389 -0.4143 -1.0895
 9354SOL    HW228962   5.046   2.175   2.287 -1.4938 -0.9425  0.9328
 9355SOL     OW28963   6.132   3.361   2.172  0.0769 -0.5794  0.1387
 9355SOL    HW128964   6.140   3.281   2.113  1.3751 -1.0435  0.9053
 9355SOL    HW228965   6.041   3.402   2.161  0.6887  0.1599 -3.1629
 9356SOL     OW28966   5.433   1.811   3.237 -0.0775  0.0284  0.1420
 9356SOL    HW128967   5.353   1.828   3.294  0.1001 -1.5858  0.9132
 9356SOL    HW228968   5.516   1.815   3.294  0.3109  0.6626 -0.4509
 9357SOL     OW28969   6.592   4.061   4.347 -0.2400 -0.5282  0.3508
 9357SOL    HW128970   6.631   3.970   4.365 -0.3173 -1.0719 -1.9695
 9357SOL    HW228971   6.627   4.125   4.415  0.3188 -2.1461  1.6738
 9358SOL     OW28972   6.080   4.091   3.915  0.0005  0.0353 -0.1462
 9358SOL    HW128973   6.098   4.186   3.889  0.3787 -0.3570 -1.3444
 9358SOL    HW228974   6.122   4.029   3.849  0.8566 -1.0066  1.3169
 9359SOL     OW28975   2.526   5.617   5.616 -0.6491  0.5233 -0.0927
 9359SOL    HW128976   2.548   5.560   5.695 -1.8434 -1.2246 -0.9558
 9359SOL    HW228977   2.547   5.713   5.637 -0.0064 -0.0148  1.9542
 9360SOL     OW28978   6.960   5.664   6.915  0.2331 -0.7436  0.2383
 9360SOL    HW128979   6.956   5.571   6.877 -1.3229 -0.8991  0.7156
 9360SOL    HW228980   7.012   5.723   6.854  1.2165 -1.9103 -0.0953
 9361SOL     OW28981   1.671   2.697   3.956 -0.4298  0.1836 -0.0101
 9361SOL    HW128982   1.600   2.736   4.015 -1.0029  0.1121 -0.6374
 9361SOL    HW228983   1.667   2.741   3.866 -0.6585 -0.8552 -0.5236
 9362SOL     OW28984   6.380   1.675   3.585 -0.0465 -0.0612  0.0297
 9362SOL    HW128985   6.373   1.773   3.565  0.2974  0.0301  0.3391
 9362SOL    HW228986   6.450   1.661   3.655  1.1335 -0.6768 -1.2116
 9363SOL     OW28987   1.653   6.560   1.100  0.0117  0.8397 -0.8586
 9363SOL    HW128988   1.587   6.597   1.034 -0.3056 -0.5834 -1.3747
 9363SOL    HW228989   1.603   6.527   1.180  0.3138  1.6826 -0.3072
 9364SOL     OW28990   0.030   4.293   0.850  0.1314 -0.1190  0.5749
 9364SOL    HW128991  -0.054   4.327   0.807 -0.9435 -0.4099  2.3360
 9364SOL    HW228992   0.105   4.295   0.783 -0.8680  1.6921 -0.5876
 9365SOL     OW28993   2.731   1.064   4.870  0.0588  0.0194 -0.8157
 9365SOL    HW128994   2.742   1.018   4.782 -0.3588  1.1851 -1.5092
 9365SOL    HW228995   2.812   1.119   4.889 -1.2982  2.7905 -2.3758
 9366SOL     OW28996   2.113   2.672   1.872  0.0514  0.0218  0.1646
 9366SOL    HW128997   2.150   2.585   1.838  2.5443  0.9342  0.3557
 9366SOL    HW228998   2.186   2.725   1.914 -1.6140  1.8395  0.9036
 9367SOL     OW28999   6.135   0.479   2.287 -0.2378 -0.0808  0.5912
 9367SOL    HW129000   6.086   0.489   2.200 -0.1747 -0.3260  0.5255
 9367SOL    HW229001   6.228   0.514   2.277  1.0305 -3.3613 -0.5643
 9368SOL     OW29002   5.343   1.310   2.154  0.1680 -0.1748 -0.9984
 9368SOL    HW129003   5.246   1.317   2.175  0.3948  1.7982 -0.4315
 9368SOL    HW229004   5.380   1.400   2.133  1.9575 -0.8332 -0.9194
 9369SOL     OW29005   1.298   2.953   4.711  0.1344  0.5602 -0.4748
 9369SOL    HW129006   1.385   2.959   4.760 -0.3868  0.9697  0.4022
 9369SOL    HW229007   1.277   2.857   4.693  0.7403  0.4553 -0.6553
 9370SOL     OW29008   5.537   3.194   2.319  0.3862  0.4514  0.2378
 9370SOL    HW129009   5.479   3.226   2.394 -0.1380  1.0897 -0.4302
 9370SOL    HW229010   5.508   3.237   2.234  0.1195 -1.2602 -0.5793
 9371SOL     OW29011   1.584   0.143   0.850  0.3079  0.4406  0.6564
 9371SOL    HW129012   1.559   0.143   0.947  1.0864  1.6531  0.8800
 9371SOL    HW229013   1.578   0.236   0.814  1.8540  0.3298  0.0378
 9372SOL     OW29014   4.539   4.953   0.238 -0.9193  0.2250 -0.0270
 9372SOL    HW129015   4.629   4.992   0.254 -0.0862 -0.5970 -2.3769
 9372SOL    HW229016   4.519   4.885   0.309  0.4602  0.1507  0.3128
 9373SOL     OW29017   5.079   2.225   5.469  0.3768  0.6136  0.7602
 9373SOL    HW129018   5.096   2.144   5.412  0.5472 -0.4322  2.2276
 9373SOL    HW229019   5.147   2.295   5.448  2.7860 -1.1341  2.1095
 9374SOL     OW29020   5.461   4.449   5.592  0.0718 -0.4857  0.5360
 9374SOL    HW129021   5.403   4.508   5.536  1.1516 -0.4230 -0.5310
 9374SOL    HW229022   5.510   4.384   5.534 -1.2286 -2.6299  1.6679
 9375SOL     OW29023   5.763   5.699   4.797 -0.3073 -0.1078 -0.2590
 9375SOL    HW129024   5.781   5.768   4.868 -2.1664 -1.3180  1.5156
 9375SOL    HW229025   5.838   5.633   4.796  0.1928  0.4449 -0.0909
 9376SOL     OW29026   3.497   3.873   1.882 -0.0503  0.0343  0.4215
 9376SOL    HW129027   3.572   3.812   1.855  2.9752  3.0088  1.3508
 9376SOL    HW229028   3.497   3.884   1.981 -0.3698  1.6207  0.2793
 9377SOL     OW29029   2.407   4.410   2.467  0.2717  0.3177 -0.7063
 9377SOL    HW129030   2.341   4.374   2.401 -0.1979  0.9544 -0.5881
 9377SOL    HW229031   2.492   4.432   2.420  0.2702 -0.1279 -0.9271
 9378SOL     OW29032   4.133   5.913   6.902 -0.5220  0.0153  0.5189
 9378SOL    HW129033   4.182   5.835   6.864  0.8624  0.5880  1.0469
 9378SOL    HW229034   4.197   5.970   6.954 -1.8464  0.6085  1.5436
 9379SOL     OW29035   3.854   5.152   6.369  0.3913 -0.1373 -0.2303
 9379SOL    HW129036   3.836   5.128   6.274 -0.8474 -2.1796  0.4476
 9379SOL    HW229037   3.823   5.245   6.387  1.2966  0.5316 -1.9587
 9380SOL     OW29038   1.876   6.040   0.620  0.6150  0.3164 -0.4598
 9380SOL    HW129039   1.863   6.104   0.545  3.4485  1.7315  0.1231
 9380SOL    HW229040   1.973   6.030   0.640  0.0237 -0.1617  2.8730
 9381SOL     OW29041   3.229   2.212   6.684  0.5527 -0.0064  0.5161
 9381SOL    HW129042   3.268   2.286   6.629  1.2846 -0.3898  0.5056
 9381SOL    HW229043   3.224   2.128   6.629  0.4021 -0.1521  0.7485
 9382SOL     OW29044   4.509   6.907   2.874  0.2617  0.5361 -0.7186
 9382SOL    HW129045   4.578   6.978   2.860  0.3248  0.5191 -0.5099
 9382SOL    HW229046   4.517   6.837   2.803 -1.1436  1.7800 -2.1818
 9383SOL     OW29047   1.414   4.805   0.067 -0.5273 -0.3799  0.0340
 9383SOL    HW129048   1.462   4.729   0.022 -0.3873  0.0811 -0.6003
 9383SOL    HW229049   1.395   4.780   0.162 -1.9066 -1.8527 -0.5867
 9384SOL     OW29050   2.323   6.960   2.535  0.5429 -0.2625 -0.4631
 9384SOL    HW129051   2.407   6.968   2.589  0.5135 -1.3734 -0.2250
 9384SOL    HW229052   2.335   7.005   2.447  0.7705  1.1443  0.2497
 9385SOL     OW29053   3.381   1.614   5.581  0.1820 -0.2682  0.2294
 9385SOL    HW129054   3.453   1.684   5.580  0.5749 -0.6646 -1.6512
 9385SOL    HW229055   3.298   1.653   5.621 -0.0977  1.8143 -2.1560
 9386SOL     OW29056   3.574   0.411   5.220  0.2125  0.4369 -0.1033
 9386SOL    HW129057   3.515   0.342   5.263 -1.5625 -0.1337 -3.1416
 9386SOL    HW229058   3.670   0.384   5.231 -0.3843 -2.2103 -0.5235
 9387SOL     OW29059   5.572   5.121   1.053 -0.4910 -0.7671  0.9829
 9387SOL    HW129060   5.473   5.133   1.049 -0.2207  2.1689  1.0271
 9387SOL    HW229061   5.613   5.194   1.107  1.8865 -0.6007 -0.8492
 9388SOL     OW29062   6.549   0.761   0.595 -0.1298 -0.2826  0.2157
 9388SOL    HW129063   6.611   0.697   0.551  0.2382 -0.1992  0.6065
 9388SOL    HW229064   6.474   0.711   0.638 -0.4096 -0.3734 -0.3730
 9389SOL     OW29065   2.503   1.853   0.168  0.2408 -0.0304 -0.3653
 9389SOL    HW129066   2.425   1.798   0.200 -0.0002  0.5268  0.0145
 9389SOL    HW229067   2.570   1.862   0.241 -0.6796  1.9215  0.2908
 9390SOL     OW29068   4.285   5.141   0.755 -0.3616  0.0429  0.0158
 9390SOL    HW129069   4.378   5.123   0.788 -0.5674 -0.5805  0.2568
 9390SOL    HW229070   4.289   5.167   0.658 -0.0882 -1.7817 -0.4928
 9391SOL     OW29071   6.590   0.324   2.971 -0.6552 -0.0823  0.1943
 9391SOL    HW129072   6.597   0.395   2.900  2.4247  1.6126  1.9727
 9391SOL    HW229073   6.681   0.289   2.993 -1.9439 -3.7425  0.3836
 9392SOL     OW29074   1.093   0.586   4.945 -0.4981  0.4218 -0.4101
 9392SOL    HW129075   1.049   0.675   4.953 -3.3879 -1.0061  1.0286
 9392SOL    HW229076   1.030   0.515   4.976  1.9389 -2.0942 -0.8651
 9393SOL     OW29077   2.227   0.592   5.523 -0.1649  0.1915 -0.2178
 9393SOL    HW129078   2.204   0.616   5.617 -2.9463 -1.1096 -0.4791
 9393SOL    HW229079   2.218   0.673   5.464 -1.8846  0.2564  0.1031
 9394SOL     OW29080   0.675   0.404   3.324  0.0364 -0.3168 -0.1832
 9394SOL    HW129081   0.734   0.476   3.362  0.9567 -0.9571 -0.3543
 9394SOL    HW229082   0.660   0.420   3.227 -0.6852  0.2448  0.0146
 9395SOL     OW29083   2.623   2.630   0.946  0.4659 -0.0516  0.2281
 9395SOL    HW129084   2.681   2.628   1.027  0.5059  2.0432  0.2911
 9395SOL    HW229085   2.555   2.702   0.955  1.4145  1.2663 -2.2252
 9396SOL     OW29086   2.247   1.008   3.955  0.1063 -0.2761  0.3081
 9396SOL    HW129087   2.271   1.008   3.858  1.6904 -0.5588  0.6637
 9396SOL    HW229088   2.192   1.088   3.976  0.4269  0.2202 -0.6818
 9397SOL     OW29089   2.531   1.107   1.346 -0.0087 -0.0439  0.5830
 9397SOL    HW129090   2.543   1.158   1.432  1.4148  1.4501 -0.4316
 9397SOL    HW229091   2.472   1.029   1.362 -2.0208  1.7082  2.3347
 9398SOL     OW29092   4.114   2.013   1.331 -0.1455 -0.8155  0.7586
 9398SOL    HW129093   4.022   1.975   1.341  0.1929 -1.3410  2.1007
 9398SOL    HW229094   4.130   2.081   1.403 -0.1160  0.6449 -0.5692
 9399SOL     OW29095   0.882   0.281   4.568  0.3393 -0.6146 -0.5097
 9399SOL    HW129096   0.885   0.187   4.532 -0.0045 -1.0268  0.4856
 9399SOL    HW229097   0.931   0.284   4.655 -0.3193 -0.0440 -0.1539
 9400SOL     OW29098   2.551   0.737   5.483 -1.1928 -0.1589 -0.2750
 9400SOL    HW129099   2.529   0.807   5.416 -1.2616  0.9355  0.8568
 9400SOL    HW229100   2.502   0.653   5.461 -0.9252  0.0515 -1.7868
 9401SOL     OW29101   3.033   5.915   4.295  0.0261 -0.4359  0.2607
 9401SOL    HW129102   3.103   5.844   4.293  1.7295  1.1115  1.4875
 9401SOL    HW229103   2.965   5.892   4.366  0.1460 -1.1907  0.1376
 9402SOL     OW29104   2.631   4.298   5.446 -0.5916  0.0937  0.1116
 9402SOL    HW129105   2.632   4.378   5.386  0.0402 -0.6180 -0.8508
 9402SOL    HW229106   2.641   4.328   5.541 -0.0387  1.1373 -0.2587
 9403SOL     OW29107   6.206   0.718   4.162 -0.2811  0.1984  0.5177
 9403SOL    HW129108   6.269   0.641   4.155  0.7996  1.1428 -0.6765
 9403SOL    HW229109   6.118   0.686   4.197  0.4439 -1.3877  0.9723
 9404SOL     OW29110   1.540   5.030   3.986 -0.0840  0.0677  0.3139
 9404SOL    HW129111   1.520   4.943   3.940 -0.7943  0.0543  0.6279
 9404SOL    HW229112   1.530   5.018   4.085  1.2477  0.1406  0.4811
 9405SOL     OW29113   6.829   1.514   2.265 -0.3619 -0.2932  0.5680
 9405SOL    HW129114   6.750   1.474   2.310  0.3683 -1.4996  0.8171
 9405SOL    HW229115   6.876   1.575   2.328 -0.3614 -0.5820  0.8482
 9406SOL     OW29116   5.891   1.897   6.900 -0.5983  0.2021  0.1942
 9406SOL    HW129117   5.881   1.996   6.910  1.0068  0.6066 -1.6590
 9406SOL    HW229118   5.854   1.868   6.812  2.0414 -0.2233 -0.8896
 9407SOL     OW29119   4.102   5.339   2.210  0.1689  0.0314  0.5619
 9407SOL    HW129120   4.196   5.349   2.176 -0.4405 -0.8118 -1.5101
 9407SOL    HW229121   4.092   5.250   2.253  0.4230  0.3257  1.2552
 9408SOL     OW29122   1.859   0.912   5.998  0.1476 -0.2309 -0.0449
 9408SOL    HW129123   1.919   0.847   5.951  1.3147  0.8437 -0.0849
 9408SOL    HW229124   1.798   0.955   5.931  0.4983 -0.0979 -0.2822
 9409SOL     OW29125   0.264   3.340   4.511 -0.5992 -0.2306 -0.3263
 9409SOL    HW129126   0.169   3.333   4.483 -1.1998  0.7637  1.3461
 9409SOL    HW229127   0.278   3.291   4.597  0.3857 -0.3135 -0.5175
 9410SOL     OW29128   5.452   5.265   1.984 -0.1881 -0.4259  0.1912
 9410SOL    HW129129   5.517   5.324   2.033 -0.2346  0.2599 -0.5612
 9410SOL    HW229130   5.470   5.169   2.008  1.7178 -0.3413 -0.6934
 9411SOL     OW29131   5.160   4.291   2.677 -0.5372  0.0449  0.2274
 9411SOL    HW129132   5.109   4.312   2.594 -1.7507 -1.3198  0.5815
 9411SOL    HW229133   5.099   4.297   2.756  0.2745  0.0164  0.8701
 9412SOL     OW29134   6.185   2.328   5.334 -0.2186  0.3669  0.0309
 9412SOL    HW129135   6.148   2.395   5.269 -0.6985  0.7790  0.7103
 9412SOL    HW229136   6.205   2.243   5.287 -2.0941  0.1136 -0.3682
 9413SOL     OW29137   3.430   5.283   4.387  0.6852  0.4945 -0.1031
 9413SOL    HW129138   3.516   5.240   4.415 -0.4144 -0.7899  1.5399
 9413SOL    HW229139   3.421   5.277   4.288  1.7927 -0.7625 -0.1638
 9414SOL     OW29140   2.717   2.104   0.696  0.0811 -0.1314 -0.4914
 9414SOL    HW129141   2.809   2.142   0.698 -0.4992  1.3388  2.2032
 9414SOL    HW229142   2.666   2.134   0.776 -1.5412 -3.9770  0.1774
 9415SOL     OW29143   6.526   6.833   1.877 -0.2610  0.2583 -0.1476
 9415SOL    HW129144   6.598   6.769   1.851  1.1451  1.6993  0.0575
 9415SOL    HW229145   6.449   6.823   1.813  0.3392 -0.9154 -0.7252
 9416SOL     OW29146   0.616   1.539   3.889 -0.5199  0.4089  0.1801
 9416SOL    HW129147   0.588   1.447   3.920 -0.1942  0.0773 -0.4902
 9416SOL    HW229148   0.663   1.531   3.801 -0.2519  1.1983  0.2502
 9417SOL     OW29149   0.327   6.503   3.842  0.5648  0.6247  0.2892
 9417SOL    HW129150   0.378   6.478   3.924  1.1482  0.9084  0.0162
 9417SOL    HW229151   0.265   6.429   3.818  1.3632 -0.0302  0.2168
 9418SOL     OW29152   3.417   4.572   0.136  0.1728 -0.0472 -0.2235
 9418SOL    HW129153   3.331   4.582   0.086  0.9045  1.2391 -1.2879
 9418SOL    HW229154   3.490   4.617   0.085  1.8578 -2.6177 -0.2601
 9419SOL     OW29155   1.066   6.051   3.474  0.0618  0.0025  0.0150
 9419SOL    HW129156   1.068   5.970   3.533  0.8803  0.3901  0.5382
 9419SOL    HW229157   1.157   6.067   3.436 -0.1062  0.6585 -0.1227
 9420SOL     OW29158   1.709   2.344   0.744  0.2200  1.0078  0.1435
 9420SOL    HW129159   1.733   2.422   0.801  0.0241  1.4343 -0.3467
 9420SOL    HW229160   1.760   2.263   0.774  2.0616  1.7994 -0.6855
 9421SOL     OW29161   1.667   2.816   6.206 -0.5884  0.5152 -0.2475
 9421SOL    HW129162   1.641   2.759   6.128 -1.3473 -2.0166  1.7461
 9421SOL    HW229163   1.750   2.780   6.248 -0.1853  1.8490  0.1449
 9422SOL     OW29164   2.838   1.926   4.155 -0.4294  0.3219  0.3283
 9422SOL    HW129165   2.801   1.866   4.226  1.4088  0.8699  1.7967
 9422SOL    HW229166   2.936   1.911   4.145  0.7584  4.7753  2.6582
 9423SOL     OW29167   5.321   0.497   3.923 -0.6391  0.3643  0.4219
 9423SOL    HW129168   5.247   0.469   3.985  0.0318 -0.6653  0.7794
 9423SOL    HW229169   5.409   0.485   3.968 -0.1621  0.0709 -0.5519
 9424SOL     OW29170   5.367   5.065   3.958  0.4963 -0.1581 -0.1147
 9424SOL    HW129171   5.416   5.079   3.871 -0.5929  2.6445 -0.3825
 9424SOL    HW229172   5.424   5.011   4.020  3.2453  1.5563 -0.9832
 9425SOL     OW29173   0.280   6.917   3.572 -0.1254  0.4629 -1.0606
 9425SOL    HW129174   0.263   7.015   3.555 -0.4435  0.4919 -0.5865
 9425SOL    HW229175   0.209   6.863   3.527  0.6663  0.3845 -2.2546
 9426SOL     OW29176   5.850   6.547   6.900 -0.4198 -0.1690  1.1326
 9426SOL    HW129177   5.929   6.506   6.945  0.8474  1.7602  0.7705
 9426SOL    HW229178   5.816   6.623   6.954 -2.1696 -1.0595  1.3547
 9427SOL     OW29179   3.384   6.018   6.194  0.5048  0.7306 -0.0110
 9427SOL    HW129180   3.372   6.103   6.143 -0.6140  1.4854  1.4409
 9427SOL    HW229181   3.329   5.946   6.152  1.3192  0.7362 -1.1426
 9428SOL     OW29182   4.418   5.883   2.264  0.4189  0.3327  0.2012
 9428SOL    HW129183   4.323   5.905   2.288  0.0971  0.6380 -1.2172
 9428SOL    HW229184   4.427   5.785   2.248  0.2626  0.3400  0.0617
 9429SOL     OW29185   0.529   3.191   3.710  0.1258 -0.6450  0.1637
 9429SOL    HW129186   0.523   3.133   3.791  1.3413 -0.8917  0.0923
 9429SOL    HW229187   0.556   3.283   3.738 -2.0061  0.0010  0.3031
 9430SOL     OW29188   5.250   0.845   3.152  0.3914  0.1557  0.1052
 9430SOL    HW129189   5.215   0.925   3.102 -1.1202  1.2964  2.7681
 9430SOL    HW229190   5.200   0.836   3.238  1.7147 -2.7043  0.6656
 9431SOL     OW29191   6.776   4.128   0.357 -0.1928  0.0736  0.2411
 9431SOL    HW129192   6.761   4.070   0.437  1.5188  0.7429  1.0877
 9431SOL    HW229193   6.807   4.072   0.281 -0.2326 -0.3620  0.5390
 9432SOL     OW29194   3.752   5.665   3.185 -0.5430 -0.1300  0.6224
 9432SOL    HW129195   3.840   5.622   3.163  0.1595  0.6034  1.8860
 9432SOL    HW229196   3.695   5.600   3.235 -0.6541 -0.5514 -0.0481
 9433SOL     OW29197   2.606   5.822   4.602 -0.6323 -0.3733 -0.2444
 9433SOL    HW129198   2.557   5.824   4.515 -1.0145 -1.4286 -0.0682
 9433SOL    HW229199   2.603   5.729   4.640  0.9382 -0.3123  0.0960
 9434SOL     OW29200   4.668   5.851   3.213 -0.4713 -0.2915 -0.3612
 9434SOL    HW129201   4.584   5.801   3.230 -0.0205 -0.6134  1.0044
 9434SOL    HW229202   4.674   5.930   3.274  0.7292 -0.9040  0.3514
 9435SOL     OW29203   3.939   2.198   5.653  0.1257  0.4684 -0.1091
 9435SOL    HW129204   3.916   2.295   5.663  0.2901  0.3473  1.8159
 9435SOL    HW229205   3.928   2.152   5.741  0.0595 -1.2768 -0.9872
 9436SOL     OW29206   3.968   3.103   5.077  0.2677  0.6995  0.2156
 9436SOL    HW129207   3.920   3.028   5.122  1.1033 -0.0621 -0.1251
 9436SOL    HW229208   3.991   3.077   4.984  0.4162  1.4546  0.0283
 9437SOL     OW29209   6.015   6.177   4.714 -0.1534  0.3917 -0.7889
 9437SOL    HW129210   6.103   6.136   4.740  0.6006  1.9855 -0.7005
 9437SOL    HW229211   5.967   6.115   4.652 -0.0181 -1.5271  0.9118
 9438SOL     OW29212   1.533   5.440   1.100  0.2280 -0.1975  0.1875
 9438SOL    HW129213   1.603   5.505   1.072 -1.8956  1.6066 -1.3567
 9438SOL    HW229214   1.491   5.470   1.185 -0.1310 -0.0691 -0.0345
 9439SOL     OW29215   0.343   2.348   1.515  0.1392  0.3545  0.2182
 9439SOL    HW129216   0.410   2.360   1.442 -0.5332  2.3323 -0.1224
 9439SOL    HW229217   0.365   2.410   1.591  0.1026 -0.7717  1.1776
 9440SOL     OW29218   4.481   0.033   4.041 -0.1050 -0.6061 -0.6725
 9440SOL    HW129219   4.501   0.035   3.943  1.9041 -0.8066 -0.3136
 9440SOL    HW229220   4.560  -0.005   4.090  0.4361  2.7612  1.3457
 9441SOL     OW29221   0.532   4.488   5.690  0.0611  0.5336 -0.0862
 9441SOL    HW129222   0.619   4.504   5.643 -0.7531  1.1807 -1.4221
 9441SOL    HW229223   0.460   4.473   5.623 -0.5190 -2.0944  1.0142
 9442SOL     OW29224   0.068   4.420   1.070 -0.2315  0.0772 -0.1633
 9442SOL    HW129225   0.075   4.356   0.993 -1.4191  0.5343 -0.6817
 9442SOL    HW229226  -0.017   4.403   1.119 -0.2966  0.8870  0.0210
 9443SOL     OW29227   1.495   2.031   1.367 -0.3217  0.5406 -0.2198
 9443SOL    HW129228   1.452   1.941   1.369 -1.5668  1.1157 -0.3796
 9443SOL    HW229229   1.501   2.063   1.272  0.3603  0.5252 -0.1883
 9444SOL     OW29230   2.873   3.835   5.006 -0.0091  0.2237  0.6187
 9444SOL    HW129231   2.919   3.909   4.957 -0.3134 -0.3355 -0.5179
 9444SOL    HW229232   2.775   3.852   5.008 -0.2242 -0.7346 -0.7019
 9445SOL     OW29233   4.866   1.780   1.580 -0.0110 -0.0495  0.1746
 9445SOL    HW129234   4.908   1.729   1.505  0.7678  0.9685 -0.0993
 9445SOL    HW229235   4.817   1.859   1.543  1.3075  1.0924  0.7972
 9446SOL     OW29236   4.121   5.626   1.489  1.1868 -0.2974  0.4883
 9446SOL    HW129237   4.165   5.596   1.404  1.4478  0.0518  0.4965
 9446SOL    HW229238   4.043   5.684   1.467  1.7394  0.4672  0.4854
 9447SOL     OW29239   3.526   1.044   2.854  0.2003 -1.1402 -0.0723
 9447SOL    HW129240   3.483   1.023   2.766  1.7236 -0.1984 -1.0773
 9447SOL    HW229241   3.626   1.040   2.844  0.4766  1.4093  0.9514
 9448SOL     OW29242   6.837   5.677   1.965  0.6203  0.1224 -0.1324
 9448SOL    HW129243   6.914   5.707   1.909  1.2527 -0.9379  0.1389
 9448SOL    HW229244   6.759   5.737   1.949  1.8997  2.0690  0.6124
 9449SOL     OW29245   6.464   5.595   3.679  0.2377  0.3646  0.7130
 9449SOL    HW129246   6.504   5.505   3.665  2.6186  1.2083  1.5682
 9449SOL    HW229247   6.410   5.621   3.599  0.0643 -1.5267  0.1867
 9450SOL     OW29248   1.344   4.014   4.100 -0.5737  0.2442 -0.2787
 9450SOL    HW129249   1.408   3.988   4.172 -0.7079 -0.5685 -0.4433
 9450SOL    HW229250   1.378   3.980   4.012 -1.9855 -1.5793 -0.1719
 9451SOL     OW29251   3.552   4.060   3.382 -0.2331 -0.2941  0.2831
 9451SOL    HW129252   3.592   4.084   3.471 -0.1035 -1.1224  0.4524
 9451SOL    HW229253   3.533   3.962   3.379 -0.9000 -0.1522 -0.3444
 9452SOL     OW29254   2.974   6.537   6.670  0.1960 -0.5300  0.3192
 9452SOL    HW129255   3.049   6.528   6.605 -0.8794  1.5786 -1.3607
 9452SOL    HW229256   3.010   6.563   6.760  1.5401 -0.9412 -0.0799
 9453SOL     OW29257   3.846   5.153   6.074 -0.0532 -0.2900 -0.0926
 9453SOL    HW129258   3.770   5.181   6.016 -0.2851  1.4183  0.9751
 9453SOL    HW229259   3.864   5.055   6.061 -0.4606 -0.1075 -2.5807
 9454SOL     OW29260   1.267   3.949   5.061  0.5540  0.1529 -0.1696
 9454SOL    HW129261   1.231   3.881   5.124  0.2049 -0.3222 -0.8682
 9454SOL    HW229262   1.295   4.031   5.112 -1.5587  0.5822  0.4138
 9455SOL     OW29263   2.482   1.444   2.781 -0.6654 -0.4284 -0.4269
 9455SOL    HW129264   2.478   1.542   2.802 -1.0070  0.1406 -2.9055
 9455SOL    HW229265   2.390   1.410   2.763 -0.6223 -1.3904  0.9845
 9456SOL     OW29266   2.396   3.869   6.623 -0.8292 -0.0887 -0.6138
 9456SOL    HW129267   2.335   3.866   6.702 -1.0016  0.4590 -0.7251
 9456SOL    HW229268   2.466   3.797   6.632 -0.0148  0.8240  0.7168
 9457SOL     OW29269   6.589   3.138   0.624 -0.1622  0.0627 -0.1114
 9457SOL    HW129270   6.570   3.040   0.630  0.0736  0.0207 -0.0370
 9457SOL    HW229271   6.686   3.154   0.644  0.2134  0.1321 -1.8735
 9458SOL     OW29272   0.887   6.651   4.431 -0.1639  0.4760 -0.1392
 9458SOL    HW129273   0.983   6.653   4.458 -0.6283  1.5690  1.5847
 9458SOL    HW229274   0.847   6.562   4.454  0.4316 -0.0032 -0.9220
 9459SOL     OW29275   3.033   0.560   0.853  0.5586 -0.8048 -0.4733
 9459SOL    HW129276   3.091   0.630   0.894 -0.9082  0.6378 -0.7550
 9459SOL    HW229277   2.992   0.504   0.925  1.3049 -1.0568 -0.2275
 9460SOL     OW29278   1.946   3.272   6.119 -0.0569  0.0459 -0.2666
 9460SOL    HW129279   1.894   3.357   6.121  0.1482  0.1563  0.3185
 9460SOL    HW229280   1.893   3.199   6.162  0.6447  0.3710  1.1858
 9461SOL     OW29281   1.800   6.592   2.728  0.0031 -0.0873 -0.2383
 9461SOL    HW129282   1.752   6.680   2.721 -0.8130 -0.5832 -1.1478
 9461SOL    HW229283   1.733   6.518   2.730  0.7080 -0.7367 -0.2570
 9462SOL     OW29284   0.948   5.009   2.528 -0.6114  0.6349  0.2370
 9462SOL    HW129285   0.978   5.013   2.433 -1.5599  1.6157 -0.0400
 9462SOL    HW229286   0.865   4.954   2.535 -1.0951  1.3524  0.3226
 9463SOL     OW29287   6.017   1.213   0.082 -0.3980 -0.7843 -0.6706
 9463SOL    HW129288   5.969   1.153   0.018 -1.6333  0.1756 -0.6732
 9463SOL    HW229289   5.958   1.231   0.161  0.6218 -0.9267  0.1458
 9464SOL     OW29290   3.023   0.990   0.996  0.4887  0.3481 -0.2959
 9464SOL    HW129291   3.028   0.957   0.902  1.3352  0.1665 -0.1988
 9464SOL    HW229292   3.112   0.976   1.040 -0.4143 -1.3346  1.1243
 9465SOL     OW29293   2.267   0.528   5.017  0.3089 -0.0771 -0.5045
 9465SOL    HW129294   2.198   0.470   4.974 -0.1373  1.4083 -1.8970
 9465SOL    HW229295   2.328   0.471   5.072 -2.0953 -1.4203  0.9562
 9466SOL     OW29296   5.058   2.943   6.936  0.2960 -0.1741 -0.9792
 9466SOL    HW129297   5.068   2.880   6.859 -0.9951 -2.1509  0.3927
 9466SOL    HW229298   4.965   2.938   6.972 -0.1639  3.1921 -1.2966
 9467SOL     OW29299   0.562   4.937   1.003 -0.0736  0.5984 -0.0364
 9467SOL    HW129300   0.652   4.946   1.044  0.1468  2.3652 -0.7822
 9467SOL    HW229301   0.560   4.987   0.916 -1.5794  0.0507 -0.3518
 9468SOL     OW29302   6.785   2.785   5.144 -0.0399  0.1414  0.6857
 9468SOL    HW129303   6.837   2.719   5.198 -1.0497  1.1853  3.0713
 9468SOL    HW229304   6.807   2.774   5.047  2.1610 -1.5574  1.3086
 9469SOL     OW29305   0.319   3.248   3.371  0.6298  0.0485 -0.2924
 9469SOL    HW129306   0.330   3.184   3.448  1.0179 -0.3177 -0.6458
 9469SOL    HW229307   0.363   3.210   3.290 -0.4993  0.0470 -0.9278
 9470SOL     OW29308   5.571   3.172   1.406 -0.2153 -0.1297  0.0512
 9470SOL    HW129309   5.670   3.168   1.392 -0.2553 -2.0215  0.0427
 9470SOL    HW229310   5.527   3.102   1.350 -1.2383 -1.4496  2.3762
 9471SOL     OW29311   6.534   0.368   5.382  0.1542  0.3560  0.1246
 9471SOL    HW129312   6.627   0.403   5.376  0.1271  0.4025 -0.0314
 9471SOL    HW229313   6.473   0.425   5.327 -0.2014  1.1231  1.2870
 9472SOL     OW29314   6.540   2.592   6.422  0.0493  0.0483  0.0331
 9472SOL    HW129315   6.639   2.596   6.432  0.0047  0.5799  0.2965
 9472SOL    HW229316   6.510   2.657   6.352 -0.1261  0.0105  0.0713
 9473SOL     OW29317   2.481   4.779   5.933  0.0869  0.3170  0.0740
 9473SOL    HW129318   2.422   4.700   5.951 -1.0751  1.0935 -0.1489
 9473SOL    HW229319   2.461   4.816   5.842 -0.0972  1.4377  0.5504
 9474SOL     OW29320   3.161   4.920   5.015 -0.2609  0.1344 -0.2137
 9474SOL    HW129321   3.238   4.915   4.952  1.0711  0.8165  1.2900
 9474SOL    HW229322   3.155   5.013   5.052 -1.7195  0.0475 -0.1751
 9475SOL     OW29323   4.073   3.400   1.703 -0.4351 -0.1986  0.1866
 9475SOL    HW129324   4.118   3.333   1.763  0.4622  0.5651  0.3843
 9475SOL    HW229325   3.980   3.370   1.685 -0.6375 -0.6095  1.7327
 9476SOL     OW29326   2.265   3.705   0.254 -0.0976 -0.5968 -0.5098
 9476SOL    HW129327   2.212   3.621   0.264 -1.3361  0.3209  1.1176
 9476SOL    HW229328   2.223   3.762   0.183  0.6788 -1.2839 -1.5362
 9477SOL     OW29329   0.571   3.274   0.124 -0.2793 -0.2669  0.3178
 9477SOL    HW129330   0.618   3.362   0.135  0.1510  0.1054 -3.1820
 9477SOL    HW229331   0.631   3.200   0.154  0.5138  0.4955  0.6641
 9478SOL     OW29332   5.674   3.982   0.340  0.3791 -0.3288  0.4844
 9478SOL    HW129333   5.679   3.942   0.248 -0.9903 -0.8198  0.5976
 9478SOL    HW229334   5.578   3.999   0.363  0.6893 -0.5055  1.9610
 9479SOL     OW29335   4.750   6.795   5.160  0.2279 -0.0519  0.3204
 9479SOL    HW129336   4.762   6.723   5.091  0.6929 -0.0917  0.4335
 9479SOL    HW229337   4.653   6.805   5.182  0.0931 -0.1618 -0.2075
 9480SOL     OW29338   1.106   4.918   5.996 -0.2265  0.4395  0.5343
 9480SOL    HW129339   1.129   4.957   6.085  1.7961 -1.6526  1.0301
 9480SOL    HW229340   1.160   4.835   5.982 -2.3453 -0.6736 -1.5851
 9481SOL     OW29341   2.806   1.848   4.596 -0.2294 -0.0627 -0.0485
 9481SOL    HW129342   2.820   1.944   4.620 -1.3689  0.1790 -0.3014
 9481SOL    HW229343   2.883   1.794   4.630  0.5556  0.9704 -0.1373
 9482SOL     OW29344   4.201   6.232   2.993 -0.0653 -0.0841 -0.1376
 9482SOL    HW129345   4.144   6.182   2.927  1.0078 -1.0313 -0.3857
 9482SOL    HW229346   4.145   6.298   3.042 -0.8940  0.6883 -2.0371
 9483SOL     OW29347   0.919   2.075   1.263  0.1450 -0.0539  0.3583
 9483SOL    HW129348   0.966   2.088   1.350  0.2499  0.2110  0.2658
 9483SOL    HW229349   0.961   2.135   1.194 -0.9698  0.9430  0.5070
 9484SOL     OW29350   4.533   6.657   3.775 -0.0174  0.1523  0.1582
 9484SOL    HW129351   4.450   6.665   3.720 -0.2237 -0.6203  0.3515
 9484SOL    HW229352   4.595   6.591   3.733 -0.0888 -0.2924  0.7323
 9485SOL     OW29353   1.134   2.652   4.842 -0.6467  0.1280 -0.2359
 9485SOL    HW129354   1.049   2.645   4.789 -0.0225  0.6560 -1.3321
 9485SOL    HW229355   1.212   2.653   4.780  0.2532 -1.4994  0.8288
 9486SOL     OW29356   3.009   6.381   0.611  0.2005 -0.2929  0.3733
 9486SOL    HW129357   3.021   6.428   0.523  0.4078 -0.3501  0.3716
 9486SOL    HW229358   3.034   6.285   0.601 -0.4079 -0.4547  0.3266
 9487SOL     OW29359   3.126   3.991   4.975  0.1333  0.1292 -0.0087
 9487SOL    HW129360   3.114   3.903   5.021  2.4609 -0.4334 -0.3493
 9487SOL    HW229361   3.092   4.065   5.034 -2.0055 -0.9557  0.2094
 9488SOL     OW29362   1.562   1.222   2.467  0.6604  0.0840 -0.0364
 9488SOL    HW129363   1.553   1.227   2.368  2.5797  0.8037 -0.2216
 9488SOL    HW229364   1.474   1.244   2.510 -0.2134 -0.3133 -1.5523
 9489SOL     OW29365   3.288   4.961   6.464 -0.1934 -0.9101 -0.0619
 9489SOL    HW129366   3.279   5.000   6.556  2.4799 -0.3643  0.0491
 9489SOL    HW229367   3.385   4.943   6.445 -0.8048 -2.2240 -2.3083
 9490SOL     OW29368   4.713   2.457   0.027  0.4677  0.1777 -0.2003
 9490SOL    HW129369   4.731   2.413   0.115 -0.1703 -0.7574 -0.5241
 9490SOL    HW229370   4.746   2.552   0.030  0.5642  0.1217  0.9961
 9491SOL     OW29371   4.267   6.526   5.915 -0.4353 -0.2615  0.7575
 9491SOL    HW129372   4.212   6.455   5.870  0.4809  0.3202 -1.4036
 9491SOL    HW229373   4.240   6.616   5.880 -0.8531  0.4151  2.6868
 9492SOL     OW29374   1.842   5.474   2.167 -0.4068  0.2556 -0.4573
 9492SOL    HW129375   1.854   5.402   2.099 -0.2319 -0.0683 -0.0852
 9492SOL    HW229376   1.744   5.489   2.182 -0.4910 -1.4254  1.0343
 9493SOL     OW29377   5.591   6.052   3.648 -0.6047  0.1438  0.4029
 9493SOL    HW129378   5.600   5.999   3.732 -2.4769  0.7037  1.0078
 9493SOL    HW229379   5.575   6.148   3.670  0.7903  0.6547 -0.6450
 9494SOL     OW29380   3.401   3.409   6.246 -0.7394 -0.7521  0.1192
 9494SOL    HW129381   3.318   3.371   6.205 -0.0837 -2.7473  0.5201
 9494SOL    HW229382   3.461   3.335   6.274  1.5830  0.6137 -0.9295
 9495SOL     OW29383   6.627   0.790   6.737 -0.3701  0.4730 -0.4228
 9495SOL    HW129384   6.716   0.750   6.716  0.5084  1.9099  0.4368
 9495SOL    HW229385   6.604   0.773   6.833 -1.2774 -0.3165 -0.7593
 9496SOL     OW29386   1.449   3.609   5.681 -0.0236 -0.4900 -0.2582
 9496SOL    HW129387   1.512   3.593   5.606  0.6776  0.5276  0.0875
 9496SOL    HW229388   1.367   3.553   5.669  1.0734 -2.0967 -0.5273
 9497SOL     OW29389   1.538   6.275   0.418  0.1620  0.3134 -0.4173
 9497SOL    HW129390   1.447   6.240   0.394  0.2740  1.2204 -2.2482
 9497SOL    HW229391   1.530   6.334   0.499 -0.4049 -1.7711  1.1595
 9498SOL     OW29392   4.765   6.710   6.320 -0.3100 -0.3248 -0.2061
 9498SOL    HW129393   4.780   6.778   6.392 -0.0037 -1.0729  0.4465
 9498SOL    HW229394   4.841   6.645   6.319 -0.8193 -0.9268 -0.5243
 9499SOL     OW29395   5.701   2.717   5.630  0.5459  0.2365  0.8616
 9499SOL    HW129396   5.625   2.776   5.602  0.5128  0.3109  1.1070
 9499SOL    HW229397   5.699   2.705   5.729 -0.7485 -1.9222  0.6397
 9500SOL     OW29398   4.249   5.734   0.641 -0.0323  0.0864 -0.4209
 9500SOL    HW129399   4.316   5.659   0.647  2.2679  2.1144  1.8024
 9500SOL    HW229400   4.182   5.725   0.715  1.8484  1.5002  1.5851
 9501SOL     OW29401   3.238   1.447   5.416  0.1001  0.3244 -0.3871
 9501SOL    HW129402   3.269   1.503   5.340  1.3174 -1.3130 -1.1631
 9501SOL    HW229403   3.300   1.459   5.494  0.4403 -0.0238 -0.6000
 9502SOL     OW29404   4.106   2.121   0.295 -0.5888 -0.1130 -0.4474
 9502SOL    HW129405   4.082   2.198   0.236  2.2749  0.5186 -0.9369
 9502SOL    HW229406   4.061   2.038   0.262 -2.5954  1.0353 -0.7644
 9503SOL     OW29407   6.508   6.210   0.388 -0.3040  0.7606 -0.0089
 9503SOL    HW129408   6.482   6.253   0.475  2.8664  1.7451  0.5906
 9503SOL    HW229409   6.430   6.212   0.326 -1.9130  2.4638  1.8939
 9504SOL     OW29410   0.770   1.479   0.940  0.2747 -0.0291 -0.3814
 9504SOL    HW129411   0.679   1.453   0.971  0.6592 -0.8224  0.1229
 9504SOL    HW229412   0.830   1.492   1.019  1.1360 -1.5709 -0.7336
 9505SOL     OW29413   5.184   2.633   4.478 -1.0203  0.1905 -0.1682
 9505SOL    HW129414   5.250   2.657   4.408 -2.1731  0.8353 -1.0633
 9505SOL    HW229415   5.122   2.710   4.495 -1.6433 -0.4400  0.5404
 9506SOL     OW29416   6.953   2.363   6.369  0.0069  0.2477 -0.2433
 9506SOL    HW129417   7.044   2.391   6.399  0.4254 -1.2077 -0.1060
 9506SOL    HW229418   6.923   2.423   6.295  0.5375  1.5261  0.5285
 9507SOL     OW29419   3.284   3.312   5.509 -0.4309  0.4033  0.4875
 9507SOL    HW129420   3.350   3.339   5.439 -2.1289  1.1082 -0.9171
 9507SOL    HW229421   3.225   3.239   5.473 -0.4429 -0.2270  1.7193
 9508SOL     OW29422   3.380   2.918   0.880  0.2919 -0.2383  0.7413
 9508SOL    HW129423   3.447   2.987   0.852  0.7767 -0.1841  1.9998
 9508SOL    HW229424   3.421   2.827   0.877 -0.1354 -0.4138 -0.2260
 9509SOL     OW29425   4.576   0.741   6.173  0.0100  0.0229  0.0747
 9509SOL    HW129426   4.644   0.670   6.186  1.1723  0.8964 -1.0316
 9509SOL    HW229427   4.507   0.711   6.107 -0.1825 -0.5176  0.5179
 9510SOL     OW29428   0.730   2.931   2.430  0.0684 -0.6100 -0.0934
 9510SOL    HW129429   0.764   2.974   2.347  1.2647 -0.5921  0.3890
 9510SOL    HW229430   0.768   2.840   2.440  0.8840 -0.1748  1.0149
 9511SOL     OW29431   2.407   2.261   1.471  0.1024 -0.7439  0.1599
 9511SOL    HW129432   2.391   2.359   1.455 -1.3612 -1.0686 -0.5702
 9511SOL    HW229433   2.453   2.222   1.392 -2.1734 -1.2314 -1.0354
 9512SOL     OW29434   1.827   3.859   4.488 -0.2364 -0.0329 -0.8735
 9512SOL    HW129435   1.781   3.790   4.433 -1.3218 -0.4749  0.5097
 9512SOL    HW229436   1.924   3.862   4.466 -0.4348 -1.0413 -1.9078
 9513SOL     OW29437   2.701   6.212   0.357 -0.8773  0.1509 -0.2250
 9513SOL    HW129438   2.629   6.186   0.421  0.2850 -2.5728  0.1042
 9513SOL    HW229439   2.660   6.253   0.275 -2.9676 -2.4587 -0.6148
 9514SOL     OW29440   4.297   3.528   6.481  0.0825  0.2722 -0.3269
 9514SOL    HW129441   4.209   3.491   6.509 -0.0802  0.6216 -0.3689
 9514SOL    HW229442   4.309   3.619   6.522  1.5251 -0.7895  1.7943
 9515SOL     OW29443   1.377   5.189   6.647 -0.6790 -0.1695 -0.1049
 9515SOL    HW129444   1.325   5.183   6.562  2.2065 -1.0954 -1.9716
 9515SOL    HW229445   1.446   5.116   6.649  0.8845  1.2367  1.9170
 9516SOL     OW29446   4.988   5.636   4.881  0.1901  0.3229 -0.2749
 9516SOL    HW129447   4.987   5.653   4.980 -1.1938 -0.2685 -0.1668
 9516SOL    HW229448   4.895   5.619   4.849  0.5879  0.7780 -1.7419
 9517SOL     OW29449   0.761   6.184   2.284  0.5804  0.3415  0.3264
 9517SOL    HW129450   0.830   6.116   2.259 -0.7385 -0.2665 -1.8889
 9517SOL    HW229451   0.686   6.138   2.332  0.8343  0.7001  1.0899
 9518SOL     OW29452   0.518   3.438   5.154  0.6090  0.2242 -0.3099
 9518SOL    HW129453   0.534   3.340   5.141 -1.8986 -0.1926 -0.8030
 9518SOL    HW229454   0.548   3.487   5.072 -2.7807 -0.8287 -2.3720
 9519SOL     OW29455   3.734   4.177   4.368 -0.5632  0.1238 -0.0386
 9519SOL    HW129456   3.805   4.160   4.437 -1.9024 -0.8390  1.1806
 9519SOL    HW229457   3.694   4.267   4.384  0.4288  0.7140 -0.7964
 9520SOL     OW29458   5.279   1.646   5.775 -0.2690  1.0501 -0.2689
 9520SOL    HW129459   5.187   1.684   5.765 -1.2951 -0.9559  0.8040
 9520SOL    HW229460   5.346   1.719   5.765 -2.0088  2.8060  0.0797
 9521SOL     OW29461   3.947   1.005   1.754 -0.1886  0.1199  0.3373
 9521SOL    HW129462   3.884   1.082   1.765 -1.7063 -0.9441 -0.5407
 9521SOL    HW229463   3.971   0.994   1.657  1.4502  0.5467  0.6602
 9522SOL     OW29464   4.174   6.746   0.522  0.7056  0.7884  0.2353
 9522SOL    HW129465   4.200   6.841   0.506  0.5456  0.8879  0.5616
 9522SOL    HW229466   4.242   6.701   0.579  1.3013  0.4181 -0.7335
 9523SOL     OW29467   1.885   5.765   4.066 -0.1349  0.2966  0.1235
 9523SOL    HW129468   1.891   5.712   4.151 -0.6030 -0.1546 -0.1160
 9523SOL    HW229469   1.968   5.819   4.055  0.1421 -0.0112  0.6241
 9524SOL     OW29470   2.307   5.127   0.533 -0.0032 -0.0037 -0.7037
 9524SOL    HW129471   2.374   5.055   0.517 -1.3934 -1.9274  1.4577
 9524SOL    HW229472   2.255   5.144   0.450  0.8972 -0.9051 -1.4720
 9525SOL     OW29473   2.511   0.976   5.787  0.2532 -0.0005  0.4279
 9525SOL    HW129474   2.508   1.069   5.751  1.1197 -0.1313  0.0074
 9525SOL    HW229475   2.591   0.928   5.751  0.6608 -0.4258  1.8368
 9526SOL     OW29476   5.306   5.129   1.032  0.5776  0.4532  0.8706
 9526SOL    HW129477   5.252   5.094   1.108  1.2895  0.9080  1.5894
 9526SOL    HW229478   5.247   5.181   0.970 -0.2707 -1.0506  0.3792
 9527SOL     OW29479   1.308   6.070   4.306  0.1270 -0.2493 -0.1606
 9527SOL    HW129480   1.360   6.024   4.378  1.0952  1.5045  0.3143
 9527SOL    HW229481   1.332   6.032   4.217  2.3104  0.5391  0.0376
 9528SOL     OW29482   4.094   3.009   6.210  0.1063 -0.5362  0.0503
 9528SOL    HW129483   4.150   3.084   6.244 -2.1696  0.9895  0.6325
 9528SOL    HW229484   4.101   3.005   6.110  0.9625 -0.1540  0.0895
 9529SOL     OW29485   6.906   6.289   1.484 -0.1986 -0.1185  0.2367
 9529SOL    HW129486   6.988   6.251   1.440 -1.6569 -1.4831 -1.4350
 9529SOL    HW229487   6.885   6.235   1.566  1.4176  1.2431  1.6495
 9530SOL     OW29488   1.258   0.242   2.546  0.1825  0.2578 -0.4606
 9530SOL    HW129489   1.251   0.147   2.575  1.4126 -0.2394 -1.7068
 9530SOL    HW229490   1.315   0.293   2.611 -1.7931  0.6102  1.1297
 9531SOL     OW29491   4.367   5.360   2.133 -0.0181  0.1123 -0.0482
 9531SOL    HW129492   4.399   5.266   2.132 -0.8609 -0.1830 -0.0746
 9531SOL    HW229493   4.394   5.406   2.048 -1.3151 -0.7014 -0.9228
 9532SOL     OW29494   0.151   4.486   3.681  0.0940  0.0206  0.7386
 9532SOL    HW129495   0.199   4.407   3.643  1.0287  0.8256  0.1891
 9532SOL    HW229496   0.168   4.491   3.779  0.1756 -0.3551  0.7466
 9533SOL     OW29497   6.421   5.373   5.351 -0.6168 -0.4602 -0.3173
 9533SOL    HW129498   6.509   5.332   5.376 -0.8571 -0.5210  0.4527
 9533SOL    HW229499   6.409   5.459   5.401 -1.2180 -0.7044 -0.0427
 9534SOL     OW29500   6.240   6.884   4.785 -0.5778  0.2107  0.3422
 9534SOL    HW129501   6.166   6.911   4.723  0.3074  2.6233  0.2457
 9534SOL    HW229502   6.208   6.890   4.880 -0.8133  0.1792  0.2662
 9535SOL     OW29503   2.168   3.207   3.528  0.0804  0.4839 -0.0582
 9535SOL    HW129504   2.090   3.227   3.589  0.1040 -1.5385  0.7363
 9535SOL    HW229505   2.212   3.123   3.559  2.0480  1.1074 -1.0580
 9536SOL     OW29506   5.436   1.788   6.064  0.1783 -0.3523  0.1273
 9536SOL    HW129507   5.392   1.808   5.977  2.0743  1.4836 -0.4815
 9536SOL    HW229508   5.381   1.825   6.139  0.6411  1.9490 -0.6151
 9537SOL     OW29509   5.944   0.746   4.793  0.0749  0.4304 -0.1627
 9537SOL    HW129510   5.942   0.729   4.694 -0.8457 -0.7142  0.0216
 9537SOL    HW229511   5.850   0.746   4.828  0.3862  0.9825  0.6961
 9538SOL     OW29512   6.104   6.868   5.029 -0.1184  0.5726  0.2936
 9538SOL    HW129513   6.101   6.947   5.090 -1.5601  0.5873  0.2346
 9538SOL    HW229514   6.084   6.785   5.082 -2.3860  0.6992 -0.3018
 9539SOL     OW29515   3.644   4.033   2.088  0.0212 -0.0173 -0.3082
 9539SOL    HW129516   3.609   3.989   2.171  0.5745 -1.3660 -0.7644
 9539SOL    HW229517   3.738   4.003   2.071  1.1911  2.8591  0.4094
 9540SOL     OW29518   2.055   5.892   4.648 -0.1127  0.0072  0.8586
 9540SOL    HW129519   2.131   5.866   4.589 -0.8858 -0.9897  0.2573
 9540SOL    HW229520   2.075   5.868   4.742  0.4985  0.1671  0.7704
 9541SOL     OW29521   2.197   5.926   6.786  0.2178  0.6599 -0.2918
 9541SOL    HW129522   2.238   5.878   6.864 -0.4065 -1.2334 -1.0663
 9541SOL    HW229523   2.098   5.926   6.796  0.1441  0.5366 -0.9907
 9542SOL     OW29524   6.496   4.832   4.184  0.2794  0.4828  0.4051
 9542SOL    HW129525   6.593   4.819   4.206  0.2169  1.5815  1.4050
 9542SOL    HW229526   6.441   4.769   4.239  0.4341 -0.6373 -0.6649
 9543SOL     OW29527   2.833   2.162   6.898  0.4466 -0.5344  0.3870
 9543SOL    HW129528   2.746   2.134   6.940  0.0394  1.8008  1.2765
 9543SOL    HW229529   2.844   2.115   6.810 -3.1142  1.0065 -1.1160
 9544SOL     OW29530   4.866   3.364   2.797  0.3426 -0.3307 -0.6049
 9544SOL    HW129531   4.853   3.272   2.760  0.9551 -0.2387 -1.0715
 9544SOL    HW229532   4.838   3.431   2.729  0.0283 -0.1673 -0.3174
 9545SOL     OW29533   1.354   3.472   0.818 -0.0774  0.0741  0.3056
 9545SOL    HW129534   1.377   3.524   0.901 -0.8670  0.0035  0.5875
 9545SOL    HW229535   1.435   3.461   0.761  0.9247 -1.5047  1.9621
 9546SOL     OW29536   2.994   2.608   6.235 -0.0404  0.2296  0.5013
 9546SOL    HW129537   2.971   2.536   6.300  1.4540 -1.3889 -0.6521
 9546SOL    HW229538   3.092   2.627   6.239  0.0647  0.2079 -1.1008
 9547SOL     OW29539   3.878   6.969   3.091  0.3396 -0.0692 -0.3886
 9547SOL    HW129540   3.973   6.955   3.063  0.6194  0.2916  0.3661
 9547SOL    HW229541   3.875   7.033   3.167 -0.3179 -1.8571  1.1417
 9548SOL     OW29542   6.502   6.233   5.825  0.0805 -0.2329  0.4595
 9548SOL    HW129543   6.578   6.172   5.803 -0.5969 -0.2738 -2.1263
 9548SOL    HW229544   6.527   6.327   5.801 -1.1493 -0.4492 -1.9139
 9549SOL     OW29545   5.070   0.628   1.111  0.4323  0.4578  0.3948
 9549SOL    HW129546   5.053   0.727   1.113 -0.7246  0.2979  2.9857
 9549SOL    HW229547   5.092   0.600   1.018  1.0607  3.1837 -0.3724
 9550SOL     OW29548   5.772   6.353   2.750 -0.0430  0.0421  0.4008
 9550SOL    HW129549   5.764   6.383   2.845  2.0630  0.5271  0.4632
 9550SOL    HW229550   5.709   6.405   2.693  1.4423  2.6064  0.9603
 9551SOL     OW29551   5.841   4.371   5.235  0.0309 -0.0478 -0.7180
 9551SOL    HW129552   5.920   4.414   5.278  0.7506 -0.7241 -1.3447
 9551SOL    HW229553   5.774   4.442   5.210 -0.1469  0.4183  0.9347
 9552SOL     OW29554   3.815   2.575   6.406  0.1664  0.2164  0.3750
 9552SOL    HW129555   3.770   2.524   6.479  1.2527 -0.1141  0.8293
 9552SOL    HW229556   3.914   2.564   6.413  0.3229  0.7109 -0.7618
 9553SOL     OW29557   5.385   1.112   0.097 -0.6949  0.0190 -0.1226
 9553SOL    HW129558   5.468   1.070   0.063 -1.5661  0.6244 -3.3373
 9553SOL    HW229559   5.347   1.056   0.171  2.6135 -0.0972  1.6724
 9554SOL     OW29560   2.174   1.590   5.182  0.0078  0.0795 -0.2076
 9554SOL    HW129561   2.106   1.525   5.149 -0.4821  0.4066  0.1575
 9554SOL    HW229562   2.243   1.542   5.236  0.4244 -0.3504 -1.0972
 9555SOL     OW29563   0.394   6.769   2.526  0.0932  0.1693  0.3539
 9555SOL    HW129564   0.331   6.827   2.475 -1.5485 -1.0774  0.8791
 9555SOL    HW229565   0.342   6.707   2.585  1.7904 -1.3306  0.3595
 9556SOL     OW29566   2.548   6.596   6.322 -0.7329  0.5687 -0.1193
 9556SOL    HW129567   2.531   6.584   6.224 -0.8471  0.3742 -0.0788
 9556SOL    HW229568   2.645   6.610   6.338 -1.0642  4.2269 -0.6074
 9557SOL     OW29569   4.873   2.520   0.691 -0.1916  0.1604 -0.3789
 9557SOL    HW129570   4.858   2.426   0.661  2.5954 -0.2317 -0.8884
 9557SOL    HW229571   4.830   2.583   0.627 -1.4777 -0.7483 -0.4353
 9558SOL     OW29572   5.283   6.037   5.123 -1.3025 -0.1920  0.0614
 9558SOL    HW129573   5.254   5.947   5.092 -0.2699 -0.8121  0.8113
 9558SOL    HW229574   5.335   6.082   5.050 -0.7083 -0.7503  0.1342
 9559SOL     OW29575   1.565   5.044   0.075  0.0562  0.2547  0.2141
 9559SOL    HW129576   1.542   5.078   0.166  0.3651 -0.7397  0.6681
 9559SOL    HW229577   1.503   4.970   0.050  0.8624 -0.4362  0.2116
 9560SOL     OW29578   1.931   6.564   1.613 -0.2602 -0.1264 -0.1408
 9560SOL    HW129579   1.939   6.621   1.531  0.5821 -0.7778 -0.5259
 9560SOL    HW229580   1.854   6.500   1.601  0.7940 -1.2786 -1.1229
 9561SOL     OW29581   6.511   1.456   1.080  0.3569  0.2109 -0.8514
 9561SOL    HW129582   6.559   1.397   1.146 -0.1779  0.2571 -0.4113
 9561SOL    HW229583   6.561   1.457   0.994  1.2732  0.4393 -0.3326
 9562SOL     OW29584   4.099   0.367   3.195  0.4508  0.0483 -0.1151
 9562SOL    HW129585   4.068   0.459   3.220 -1.1719 -0.3830 -0.4280
 9562SOL    HW229586   4.124   0.317   3.278  0.2949  0.4227  0.1589
 9563SOL     OW29587   1.290   4.084   0.374  0.2953  0.5060 -0.0346
 9563SOL    HW129588   1.327   4.129   0.456 -2.3990 -0.2881  1.7636
 9563SOL    HW229589   1.280   3.986   0.393 -0.2053  0.2814 -1.4046
 9564SOL     OW29590   1.206   3.120   0.032 -0.6074  0.2469 -0.3014
 9564SOL    HW129591   1.284   3.104   0.092 -0.8252  0.7258  0.1192
 9564SOL    HW229592   1.184   3.218   0.030 -1.5754  0.0518  0.0677
 9565SOL     OW29593   2.291   0.421   4.071  0.3256  0.2475  0.6128
 9565SOL    HW129594   2.204   0.373   4.067  1.1101 -1.2279  0.5241
 9565SOL    HW229595   2.324   0.439   3.978 -0.0601  1.1506  0.6460
 9566SOL     OW29596   4.260   1.669   1.250  0.6518  0.6986  0.2615
 9566SOL    HW129597   4.311   1.594   1.207 -0.3962 -0.7483  1.4903
 9566SOL    HW229598   4.241   1.739   1.181  2.5643  0.3693 -0.6700
 9567SOL     OW29599   6.553   5.532   0.709  0.3891  0.2495 -0.6026
 9567SOL    HW129600   6.650   5.540   0.688  0.5747  1.2623  0.4920
 9567SOL    HW229601   6.499   5.559   0.629  0.9291 -2.6971 -2.0704
 9568SOL     OW29602   4.764   1.941   5.847  0.3031 -0.2325 -0.1142
 9568SOL    HW129603   4.842   1.890   5.810  0.5890  0.5420 -0.6067
 9568SOL    HW229604   4.778   2.039   5.832  0.5298  0.1409  2.2464
 9569SOL     OW29605   6.474   1.214   3.264 -0.0156 -0.2984  0.2512
 9569SOL    HW129606   6.489   1.297   3.317  0.1701  0.5007 -1.0317
 9569SOL    HW229607   6.425   1.236   3.180  0.3259 -1.4341 -0.2647
 9570SOL     OW29608   1.574   3.784   2.679  0.0707 -0.2521 -0.1316
 9570SOL    HW129609   1.493   3.841   2.665  0.6018  0.4871 -0.1972
 9570SOL    HW229610   1.656   3.841   2.681  0.5641 -0.9559  0.2886
 9571SOL     OW29611   1.786   3.107   6.253  0.4512 -0.7486 -0.1139
 9571SOL    HW129612   1.836   3.026   6.221 -1.1293 -1.5044 -0.7321
 9571SOL    HW229613   1.776   3.101   6.353  3.4718  0.5331  0.3863
 9572SOL     OW29614   2.456   4.637   4.265 -0.3471 -0.0197  0.2860
 9572SOL    HW129615   2.430   4.569   4.333  1.8002 -0.3457  0.8616
 9572SOL    HW229616   2.499   4.715   4.311 -0.4456  0.5522 -0.5687
 9573SOL     OW29617   3.957   6.724   3.245  0.1433  0.2936 -0.0332
 9573SOL    HW129618   4.016   6.794   3.204 -0.2884  0.9256  0.4240
 9573SOL    HW229619   3.891   6.693   3.177 -0.3460  1.0943  0.0597
 9574SOL     OW29620   4.796   3.463   0.878 -0.0735 -0.1826 -0.1310
 9574SOL    HW129621   4.797   3.513   0.965  1.9637  1.2011 -0.8729
 9574SOL    HW229622   4.878   3.406   0.871  0.3150  0.5085 -1.5452
 9575SOL     OW29623   4.046   1.136   4.162 -0.4218 -0.0920  0.0915
 9575SOL    HW129624   3.991   1.213   4.128  2.4580  0.9057 -2.7276
 9575SOL    HW229625   4.104   1.168   4.237 -1.4515 -0.4025  1.0558
 9576SOL     OW29626   0.668   2.085   4.853 -0.3662  0.4798 -0.9981
 9576SOL    HW129627   0.724   2.070   4.934 -0.7802  0.0342 -0.7919
 9576SOL    HW229628   0.706   2.035   4.775 -0.2873  0.4544 -0.9425
 9577SOL     OW29629   0.673   4.742   3.541 -0.0868  0.4152  0.4459
 9577SOL    HW129630   0.629   4.652   3.531 -0.3375  0.4286  1.2948
 9577SOL    HW229631   0.751   4.734   3.603  0.2428  0.6731  0.0667
 9578SOL     OW29632   3.183   6.581   2.087  0.0602  0.0192  0.2456
 9578SOL    HW129633   3.102   6.615   2.135  0.4731 -0.5381  1.3678
 9578SOL    HW229634   3.265   6.606   2.139  0.5819  0.1273 -0.6102
 9579SOL     OW29635   6.382   4.486   3.772  0.1472  0.5035  0.1416
 9579SOL    HW129636   6.429   4.459   3.688 -1.0454  0.2369 -0.4571
 9579SOL    HW229637   6.413   4.576   3.801  0.4569  0.6604 -0.6691
 9580SOL     OW29638   4.801   5.745   5.358  0.3310  0.4539  0.3820
 9580SOL    HW129639   4.760   5.665   5.314  2.5513 -1.1630  1.0746
 9580SOL    HW229640   4.865   5.788   5.295 -2.1434  2.9223 -0.6689
 9581SOL     OW29641   4.742   2.555   6.618  0.2890 -0.3285 -0.2434
 9581SOL    HW129642   4.763   2.507   6.533 -0.4308 -1.6686  0.2979
 9581SOL    HW229643   4.798   2.519   6.692 -0.8967 -1.0223  0.3569
 9582SOL     OW29644   5.690   3.873   0.097  0.0459 -0.9764  0.9887
 9582SOL    HW129645   5.780   3.845   0.129  0.6331 -0.9098 -0.5239
 9582SOL    HW229646   5.642   3.794   0.058  0.5061 -0.5319 -0.5500
 9583SOL     OW29647   3.059   4.984   1.588 -0.2630 -0.2308  0.2810
 9583SOL    HW129648   3.003   4.912   1.629 -1.3666 -0.0736 -0.8943
 9583SOL    HW229649   3.001   5.045   1.535  1.1003 -0.4241 -1.5055
 9584SOL     OW29650   2.705   5.300   3.674  0.3629  0.2665  0.0830
 9584SOL    HW129651   2.631   5.274   3.736  0.2952 -0.8477 -0.4384
 9584SOL    HW229652   2.666   5.329   3.586  0.5334 -0.3429 -0.1999
 9585SOL     OW29653   3.777   6.259   1.079 -0.3644 -0.1127 -0.6196
 9585SOL    HW129654   3.775   6.256   0.979  0.2056 -1.3768 -0.6073
 9585SOL    HW229655   3.839   6.189   1.113  0.5024  1.1972  0.5957
 9586SOL     OW29656   3.812   4.915   3.933  0.1472  0.4477 -0.2576
 9586SOL    HW129657   3.888   4.972   3.962 -0.4320 -0.0320  2.5586
 9586SOL    HW229658   3.741   4.917   4.004 -1.7022 -0.4946 -1.9889
 9587SOL     OW29659   2.800   0.796   1.069  0.0134 -0.0503 -0.5567
 9587SOL    HW129660   2.876   0.857   1.044 -0.5027  0.9301  0.1839
 9587SOL    HW229661   2.714   0.845   1.058 -0.4269 -0.6984 -0.0554
 9588SOL     OW29662   5.821   4.833   1.281  0.2879 -0.4820  0.0982
 9588SOL    HW129663   5.723   4.842   1.265  0.5142 -1.2443 -2.1608
 9588SOL    HW229664   5.846   4.736   1.285  0.9707 -0.2985  0.5640
 9589SOL     OW29665   2.163   1.526   5.522  0.1139 -0.3106  0.0741
 9589SOL    HW129666   2.086   1.491   5.469 -0.4178 -1.4828  1.5280
 9589SOL    HW229667   2.154   1.625   5.533 -0.7866 -0.3282 -0.4131
 9590SOL     OW29668   3.910   0.293   0.132 -0.4458  0.5758 -0.2267
 9590SOL    HW129669   3.921   0.374   0.190  0.6565  1.6052 -1.7803
 9590SOL    HW229670   3.827   0.303   0.078  0.1203  1.1149 -1.0286
 9591SOL     OW29671   5.350   0.278   6.221 -0.8067 -0.4024  0.1996
 9591SOL    HW129672   5.284   0.320   6.283 -1.3963  0.0890 -0.7338
 9591SOL    HW229673   5.400   0.350   6.173 -1.4337 -0.7495 -1.0108
 9592SOL     OW29674   0.994   3.998   5.029 -0.1164 -0.4298  0.4814
 9592SOL    HW129675   0.963   3.971   4.937 -0.9890  0.0961  0.6154
 9592SOL    HW229676   1.093   3.986   5.035  0.3728  1.9779 -1.3922
 9593SOL     OW29677   2.625   1.612   4.974  0.7007  0.2108  0.6039
 9593SOL    HW129678   2.584   1.662   5.049 -0.6917 -1.4917  1.0602
 9593SOL    HW229679   2.584   1.642   4.888  1.1766  1.0662  0.6607
 9594SOL     OW29680   6.991   6.729   3.890  0.0113  0.5859  0.0157
 9594SOL    HW129681   6.979   6.736   3.791  0.0238 -2.0483 -0.2493
 9594SOL    HW229682   6.906   6.752   3.936 -0.0012  1.8017 -0.5725
 9595SOL     OW29683   2.161   3.508   2.733 -0.0122  0.1812 -0.0006
 9595SOL    HW129684   2.142   3.558   2.818  1.5493 -1.0615  1.1137
 9595SOL    HW229685   2.109   3.423   2.732  0.4588 -0.1047 -0.0079
 9596SOL     OW29686   6.984   0.739   1.771 -0.0681  0.4676 -0.1943
 9596SOL    HW129687   7.040   0.808   1.725 -2.3532  0.8869 -2.5662
 9596SOL    HW229688   7.044   0.673   1.816  2.2365  2.3893 -0.2295
 9597SOL     OW29689   0.752   3.940   3.090 -0.1062  0.1307  0.8072
 9597SOL    HW129690   0.664   3.930   3.042 -0.6238 -0.0923  1.7715
 9597SOL    HW229691   0.818   3.984   3.029 -0.3938 -1.1638 -0.5152
 9598SOL     OW29692   1.159   3.732   3.801 -0.6090  0.2606  0.0918
 9598SOL    HW129693   1.194   3.825   3.789 -1.2603  0.6806  1.3000
 9598SOL    HW229694   1.068   3.725   3.762 -0.0457 -0.2490 -1.1700
 9599SOL     OW29695   5.399   6.272   4.471  0.1973 -0.1877 -0.0806
 9599SOL    HW129696   5.401   6.368   4.444  1.9386 -0.3269 -0.5507
 9599SOL    HW229697   5.423   6.215   4.393  0.0595 -0.9415  0.4173
 9600SOL     OW29698   3.638   1.322   1.085  0.4073 -0.0450 -0.3876
 9600SOL    HW129699   3.629   1.330   1.184 -0.8060 -1.6370 -0.3300
 9600SOL    HW229700   3.595   1.401   1.041 -2.3357 -1.0101  0.3115
 9601SOL     OW29701   1.052   3.120   1.167  0.2190 -0.3366  0.3003
 9601SOL    HW129702   1.125   3.188   1.180  0.3599 -0.3192 -0.5250
 9601SOL    HW229703   1.062   3.048   1.236  0.1590  0.3899  1.0966
 9602SOL     OW29704   5.454   4.976   5.739  0.1044  0.5206  0.4540
 9602SOL    HW129705   5.498   4.886   5.738  0.9267  0.9084 -0.4126
 9602SOL    HW229706   5.411   4.992   5.650 -1.6448  0.2456  1.2069
 9603SOL     OW29707   5.786   6.824   5.954  0.3576 -0.0692  0.4383
 9603SOL    HW129708   5.796   6.799   5.858 -1.6736 -1.5223  0.5450
 9603SOL    HW229709   5.774   6.923   5.961 -1.9166 -0.1573 -1.1072
 9604SOL     OW29710   5.920   0.294   0.556  0.0741  0.0748  0.1096
 9604SOL    HW129711   5.862   0.217   0.580 -0.9295  0.7688 -0.0243
 9604SOL    HW229712   5.970   0.274   0.471  1.9399 -1.4929  1.4868
 9605SOL     OW29713   5.198   5.926   0.890 -0.0608  0.1439  0.2742
 9605SOL    HW129714   5.256   5.947   0.811 -0.8118 -1.0499 -0.6395
 9605SOL    HW229715   5.116   5.877   0.859 -0.8506  0.4990  1.6987
 9606SOL     OW29716   1.541   0.564   0.417 -0.1415  0.8282 -0.3114
 9606SOL    HW129717   1.577   0.654   0.394  1.1777  0.7379  1.2675
 9606SOL    HW229718   1.471   0.573   0.487  0.7839  0.5641  0.6699
 9607SOL     OW29719   1.668   3.368   6.729  0.4738  0.3533 -0.3267
 9607SOL    HW129720   1.709   3.427   6.659  1.2351  0.2268  0.0071
 9607SOL    HW229721   1.722   3.374   6.813  1.9577 -2.5386 -0.9512
 9608SOL     OW29722   0.480   0.655   4.200 -0.2300  0.0696  0.3096
 9608SOL    HW129723   0.543   0.713   4.251 -0.0466 -1.3316  1.7749
 9608SOL    HW229724   0.522   0.626   4.114 -0.8329  3.0977 -1.1426
 9609SOL     OW29725   4.656   4.308   2.366  0.0380  0.2455 -0.1147
 9609SOL    HW129726   4.661   4.212   2.340 -3.1112  0.4487 -1.9835
 9609SOL    HW229727   4.653   4.365   2.284 -0.3404  1.7764  0.9152
 9610SOL     OW29728   1.447   5.374   3.033  0.7526  0.0358 -0.2785
 9610SOL    HW129729   1.494   5.449   2.987  2.4387  0.0072  1.2755
 9610SOL    HW229730   1.366   5.410   3.080  1.1620  0.7705 -0.1144
 9611SOL     OW29731   2.430   6.963   6.169  0.0336  0.2613 -0.2285
 9611SOL    HW129732   2.430   7.063   6.179  2.0375  0.2831 -0.0119
 9611SOL    HW229733   2.381   6.938   6.085  0.1971  1.4905 -0.7182
 9612SOL     OW29734   0.846   2.766   3.956  0.0417  0.0979  0.4032
 9612SOL    HW129735   0.829   2.858   3.920 -1.5757 -0.4991 -0.4199
 9612SOL    HW229736   0.759   2.720   3.975  0.5968 -2.6382 -2.7297
 9613SOL     OW29737   3.836   5.887   6.055  0.8815 -0.0901  0.0171
 9613SOL    HW129738   3.886   5.810   6.095  0.3153 -1.0503 -1.0668
 9613SOL    HW229739   3.857   5.894   5.958 -0.1532  0.2549 -0.1900
 9614SOL     OW29740   2.940   0.798   4.232  0.2192  0.2407 -0.4774
 9614SOL    HW129741   2.949   0.897   4.247  0.9069  0.0124  0.7645
 9614SOL    HW229742   2.971   0.776   4.140 -1.2831  1.3516 -1.2911
 9615SOL     OW29743   6.635   3.303   2.117  0.1017 -0.2241 -0.6130
 9615SOL    HW129744   6.624   3.320   2.019  2.1875  1.5316 -0.6429
 9615SOL    HW229745   6.732   3.286   2.136 -0.1053  0.5510  1.2812
 9616SOL     OW29746   2.486   6.059   6.393 -0.1720 -0.3111  0.0912
 9616SOL    HW129747   2.567   6.007   6.421 -0.8429 -0.1079  2.6867
 9616SOL    HW229748   2.419   6.058   6.467 -1.0364  2.6431 -0.5389
 9617SOL     OW29749   0.130   2.970   1.694 -0.1396 -0.1078  0.3601
 9617SOL    HW129750   0.078   3.056   1.692 -0.1674 -0.0878  1.6626
 9617SOL    HW229751   0.123   2.926   1.604 -1.2917  0.5540  0.0978
 9618SOL     OW29752   1.292   3.249   1.605  0.4603  0.3459 -0.5156
 9618SOL    HW129753   1.198   3.273   1.631  0.9097  0.2771  1.2768
 9618SOL    HW229754   1.342   3.333   1.583 -0.1320  0.3456 -1.9972
 9619SOL     OW29755   2.663   5.936   0.248  0.0847 -0.0732  0.1006
 9619SOL    HW129756   2.672   6.018   0.303  1.4784  0.0480 -0.2761
 9619SOL    HW229757   2.566   5.920   0.226 -0.2306  1.2246  0.5192
 9620SOL     OW29758   5.680   2.802   5.982 -0.0701 -0.0905 -0.1292
 9620SOL    HW129759   5.708   2.896   5.999 -0.8607  0.1643 -0.2339
 9620SOL    HW229760   5.585   2.800   5.951  0.3420 -0.8112 -1.4089
 9621SOL     OW29761   1.178   3.143   4.500 -0.4834  0.0823 -0.5532
 9621SOL    HW129762   1.089   3.101   4.519  0.2998 -0.1938  3.1837
 9621SOL    HW229763   1.249   3.098   4.554  1.3276  2.6887 -0.5660
 9622SOL     OW29764   3.335   0.616   0.063  0.6784  0.2178 -0.0977
 9622SOL    HW129765   3.329   0.557  -0.018 -0.4948  0.3216 -0.0984
 9622SOL    HW229766   3.431   0.623   0.091  1.0646 -0.1164 -1.2531
 9623SOL     OW29767   0.939   3.020   5.527  0.0383 -0.3364  0.2424
 9623SOL    HW129768   0.909   3.029   5.432  0.9973  2.1746  0.0852
 9623SOL    HW229769   0.859   3.025   5.588 -0.3239  2.4303 -0.3209
 9624SOL     OW29770   6.269   2.411   4.682  0.0542 -0.3322  0.4700
 9624SOL    HW129771   6.184   2.447   4.645  0.8962  2.1600  0.7389
 9624SOL    HW229772   6.264   2.411   4.782  1.3178  2.7713  0.6562
 9625SOL     OW29773   6.022   4.093   2.257  0.5105 -0.0263  0.1430
 9625SOL    HW129774   5.934   4.064   2.297 -0.9672  0.0660 -2.7915
 9625SOL    HW229775   6.023   4.193   2.250  0.7191 -0.0508 -0.1423
 9626SOL     OW29776   2.987   6.435   0.148 -0.4481  0.3628 -0.5625
 9626SOL    HW129777   2.911   6.436   0.212 -0.7750 -2.0122 -0.8478
 9626SOL    HW229778   3.060   6.495   0.181 -0.7212 -0.5718  1.8605
 9627SOL     OW29779   0.218   5.252   6.234 -0.1321 -0.1294  0.4835
 9627SOL    HW129780   0.308   5.278   6.200 -0.4608  1.9470  1.0006
 9627SOL    HW229781   0.225   5.171   6.291  1.1803 -0.7449 -0.4976
 9628SOL     OW29782   2.974   0.180   0.861  0.4163 -0.6793  0.2458
 9628SOL    HW129783   3.007   0.188   0.767 -1.1219 -1.5789 -0.4006
 9628SOL    HW229784   2.928   0.092   0.873 -2.1174  0.6685  0.9658
 9629SOL     OW29785   2.201   6.773   6.247  0.2725 -0.6280  0.0033
 9629SOL    HW129786   2.269   6.810   6.311  0.5251  1.4666 -1.3776
 9629SOL    HW229787   2.117   6.753   6.296  0.1369  1.8053  0.9109
 9630SOL     OW29788   2.635   3.523   7.004  0.4638 -0.4727 -0.1997
 9630SOL    HW129789   2.607   3.547   7.097 -1.1346  0.7788 -0.9562
 9630SOL    HW229790   2.650   3.424   6.998 -0.6635 -0.7478  1.0884
 9631SOL     OW29791   6.866   4.960   1.788 -0.7735 -0.2638  0.1784
 9631SOL    HW129792   6.965   4.948   1.775 -0.8016  0.6234 -1.1197
 9631SOL    HW229793   6.850   5.023   1.864 -0.2379  1.0446 -0.7364
 9632SOL     OW29794   4.168   6.931   3.524 -0.2262 -0.0880 -0.2641
 9632SOL    HW129795   4.178   6.832   3.517 -0.4221 -0.4231  2.6265
 9632SOL    HW229796   4.093   6.952   3.588  0.9680  1.8615  0.5801
 9633SOL     OW29797   0.746   6.075   1.413 -0.1218  0.2297  0.5879
 9633SOL    HW129798   0.735   5.978   1.438  1.5203 -0.4796 -1.2207
 9633SOL    HW229799   0.805   6.120   1.480  1.9260 -0.9276 -0.3593
 9634SOL     OW29800   6.285   5.634   6.069  0.6876 -0.2601 -0.0495
 9634SOL    HW129801   6.204   5.650   6.013 -0.0678 -0.1258  1.0700
 9634SOL    HW229802   6.285   5.697   6.147  2.0779  0.0164 -0.2421
 9635SOL     OW29803   4.982   4.489   6.201  0.4422 -0.8008  0.4005
 9635SOL    HW129804   4.986   4.418   6.271  0.2731 -3.0682 -1.7636
 9635SOL    HW229805   5.060   4.480   6.139  0.0301  0.4660 -0.3478
 9636SOL     OW29806   3.535   0.067   1.296 -0.0013  0.4281 -0.1346
 9636SOL    HW129807   3.599   0.090   1.369  0.6564  1.0742 -0.8978
 9636SOL    HW229808   3.561  -0.020   1.255  0.2958  0.6103 -0.3352
 9637SOL     OW29809   2.271   2.425   0.738  0.0463 -0.3967  0.0492
 9637SOL    HW129810   2.215   2.406   0.657  0.5666 -2.2043  0.0802
 9637SOL    HW229811   2.222   2.397   0.820  0.0688  0.1822  0.2658
 9638SOL     OW29812   6.298   3.705   5.104  0.3357 -0.3336  0.1820
 9638SOL    HW129813   6.374   3.706   5.039 -0.9689  1.1128 -1.4466
 9638SOL    HW229814   6.324   3.757   5.186  0.2337  2.7780 -1.5841
 9639SOL     OW29815   2.792   6.037   3.657 -0.4814 -0.5667 -0.0568
 9639SOL    HW129816   2.789   6.126   3.701 -2.1295 -0.4906 -0.2741
 9639SOL    HW229817   2.880   5.993   3.676  0.7343  1.4717 -0.6990
 9640SOL     OW29818   2.852   2.565   1.139  0.6013 -0.0977 -0.6539
 9640SOL    HW129819   2.802   2.570   1.225  2.3919  0.7350  0.3712
 9640SOL    HW229820   2.885   2.655   1.113  0.6806 -0.4515 -1.8852
 9641SOL     OW29821   4.497   6.961   1.261 -0.2632 -0.6946  0.3972
 9641SOL    HW129822   4.413   6.913   1.285  0.2968 -2.6515 -1.1737
 9641SOL    HW229823   4.550   6.904   1.197  1.2866  1.3525 -0.2509
 9642SOL     OW29824   3.018   6.688   3.586  0.5044 -0.2262 -0.2051
 9642SOL    HW129825   3.072   6.642   3.515 -0.7287 -1.8337 -0.1477
 9642SOL    HW229826   3.053   6.663   3.676  0.7957  0.2029 -0.1942
 9643SOL     OW29827   3.471   5.086   0.683 -0.1677 -0.7593  0.1899
 9643SOL    HW129828   3.384   5.122   0.716 -0.3681 -0.9307 -0.1438
 9643SOL    HW229829   3.490   4.999   0.728  0.7753  0.1814  1.7049
 9644SOL     OW29830   3.263   2.752   0.545 -0.3548 -0.3143  0.4772
 9644SOL    HW129831   3.238   2.844   0.574 -1.7976 -1.2579  2.4831
 9644SOL    HW229832   3.217   2.731   0.459  1.1165  1.2755 -0.7773
 9645SOL     OW29833   2.169   5.050   4.138  0.4851  0.5660 -0.0285
 9645SOL    HW129834   2.159   4.959   4.179  0.6068  0.2745 -0.6377
 9645SOL    HW229835   2.102   5.061   4.065 -1.8893  2.2274  2.1827
 9646SOL     OW29836   3.855   0.301   5.176  0.0755 -0.3867  0.3490
 9646SOL    HW129837   3.819   0.258   5.093  1.2231  0.5586 -0.6781
 9646SOL    HW229838   3.948   0.268   5.193 -0.4418 -1.1809  1.7368
 9647SOL     OW29839   0.584   3.195   6.052  0.0836  0.0593  0.1485
 9647SOL    HW129840   0.626   3.285   6.048  0.0899  0.0170 -1.1099
 9647SOL    HW229841   0.526   3.189   6.134 -0.4359  1.4259 -0.0927
 9648SOL     OW29842   4.057   4.829   1.868  0.3479  0.1454  0.0949
 9648SOL    HW129843   4.011   4.906   1.913  1.4028  1.6173 -1.1848
 9648SOL    HW229844   4.141   4.807   1.917 -0.5305 -0.9918  1.1195
 9649SOL     OW29845   3.182   4.297   1.369  0.3147  0.2707  0.3024
 9649SOL    HW129846   3.254   4.247   1.320  0.4679 -0.1525  0.9450
 9649SOL    HW229847   3.216   4.324   1.459 -1.3870 -3.0657  2.1664
 9650SOL     OW29848   3.239   5.945   6.752 -0.0828 -0.0972  0.3746
 9650SOL    HW129849   3.173   5.984   6.816 -1.9509 -1.7419 -0.4279
 9650SOL    HW229850   3.230   5.990   6.663  1.3251  1.0221  0.7578
 9651SOL     OW29851   6.950   1.198   0.507 -0.1744 -0.2746  0.0624
 9651SOL    HW129852   6.919   1.122   0.449  0.0694 -0.3838  0.0775
 9651SOL    HW229853   6.873   1.228   0.564 -0.2090 -0.6635  0.2252
 9652SOL     OW29854   1.683   3.424   1.205 -0.1243  0.0427 -0.4220
 9652SOL    HW129855   1.661   3.502   1.264 -2.7079 -0.6318 -0.3804
 9652SOL    HW229856   1.779   3.430   1.176  0.5947  1.5970  1.9894
 9653SOL     OW29857   0.032   6.190   4.212  0.3606  0.4298  0.0340
 9653SOL    HW129858   0.103   6.202   4.282 -0.8133  0.5164  1.2632
 9653SOL    HW229859  -0.008   6.099   4.220 -2.2486  1.6043  1.9669
 9654SOL     OW29860   2.517   2.597   3.491 -0.1358  0.0836 -0.2706
 9654SOL    HW129861   2.489   2.576   3.585 -0.3741  0.0419 -0.3500
 9654SOL    HW229862   2.579   2.527   3.458  0.0377  0.1581 -0.1045
 9655SOL     OW29863   6.139   1.779   3.068 -0.3108  0.0942  0.3442
 9655SOL    HW129864   6.145   1.776   3.168  0.1406 -0.8132  0.3027
 9655SOL    HW229865   6.081   1.855   3.040 -1.1812 -0.1783  1.3406
 9656SOL     OW29866   2.488   2.072   2.783 -0.1595 -0.1602  0.3542
 9656SOL    HW129867   2.538   2.146   2.736 -0.3127  0.9003  1.8105
 9656SOL    HW229868   2.392   2.074   2.755 -0.0803 -0.0518  0.0859
 9657SOL     OW29869   0.631   1.732   5.456 -0.1067 -0.8940  0.0749
 9657SOL    HW129870   0.585   1.821   5.450  0.6718 -0.5637 -2.4173
 9657SOL    HW229871   0.679   1.725   5.543  0.6302  1.5675 -0.0547
 9658SOL     OW29872   1.204   0.467   2.350 -0.0754  0.4431  0.0501
 9658SOL    HW129873   1.183   0.376   2.385  0.2789  0.4180  0.1957
 9658SOL    HW229874   1.269   0.512   2.410  1.1991  0.0740 -1.0193
 9659SOL     OW29875   1.001   4.795   6.848  0.6037 -0.7339 -0.4776
 9659SOL    HW129876   1.058   4.745   6.783 -0.3269 -1.1938 -0.9610
 9659SOL    HW229877   1.043   4.882   6.870  0.7634 -0.4123 -1.9695
 9660SOL     OW29878   1.826   4.065   6.986  0.1620 -0.0850 -0.0607
 9660SOL    HW129879   1.843   4.093   7.080  0.7876 -2.3596  0.5581
 9660SOL    HW229880   1.859   4.136   6.923  1.7268  0.5097  1.3800
 9661SOL     OW29881   2.030   0.079   0.178 -0.5520  0.3008  0.4283
 9661SOL    HW129882   2.058   0.152   0.241  0.8334 -0.0004  0.1922
 9661SOL    HW229883   1.989   0.120   0.097 -0.6158  0.7807  0.6929
 9662SOL     OW29884   4.973   2.436   2.303 -0.3215  0.2142  0.0819
 9662SOL    HW129885   4.879   2.443   2.269 -0.8358 -2.6485  0.6242
 9662SOL    HW229886   5.019   2.360   2.258  0.8131 -0.1642  1.7734
 9663SOL     OW29887   5.396   5.876   2.703 -0.3880  0.2288  0.7923
 9663SOL    HW129888   5.380   5.940   2.778 -0.6657  0.4615  0.5359
 9663SOL    HW229889   5.407   5.783   2.740  1.1686  0.5843  1.2662
 9664SOL     OW29890   4.277   4.166   0.829  0.2526  0.4534  0.2228
 9664SOL    HW129891   4.276   4.257   0.787 -0.7490 -0.2416 -1.3668
 9664SOL    HW229892   4.211   4.163   0.904  0.5471  1.1335  0.5167
 9665SOL     OW29893   6.094   5.316   4.381  0.0683  0.0160 -0.4624
 9665SOL    HW129894   6.002   5.334   4.416  0.2670 -0.6118  0.4383
 9665SOL    HW229895   6.095   5.227   4.335  0.5763 -0.7849  1.0176
 9666SOL     OW29896   3.109   6.464   4.617 -0.0394 -0.0626  0.0035
 9666SOL    HW129897   3.037   6.399   4.595 -0.3632  0.1485  0.4010
 9666SOL    HW229898   3.118   6.471   4.717 -1.0001  1.5368  0.0144
 9667SOL     OW29899   3.542   2.878   3.763 -0.1578  0.3852  0.7432
 9667SOL    HW129900   3.444   2.868   3.744 -0.4164  3.2965  0.0412
 9667SOL    HW229901   3.558   2.872   3.861 -1.2585  1.2150  0.9887
 9668SOL     OW29902   2.186   2.030   3.186  0.5263  0.5521 -0.4067
 9668SOL    HW129903   2.224   1.938   3.183 -1.1307 -0.1524 -1.7567
 9668SOL    HW229904   2.122   2.037   3.264  1.6126  1.0021  0.4699
 9669SOL     OW29905   6.808   0.080   1.748  0.4295  0.5598  0.0571
 9669SOL    HW129906   6.833  -0.008   1.708  1.5401  1.1103 -0.5007
 9669SOL    HW229907   6.772   0.065   1.840 -1.2855 -0.6397 -0.7521
 9670SOL     OW29908   1.225   3.668   6.992  0.9323  0.3504 -0.0562
 9670SOL    HW129909   1.185   3.619   6.915  1.9538 -0.0074 -0.3675
 9670SOL    HW229910   1.203   3.766   6.985  0.0581  0.1521 -0.1755
 9671SOL     OW29911   5.320   0.461   5.748  0.0496 -0.7505 -0.5321
 9671SOL    HW129912   5.325   0.560   5.733  1.7716 -0.6811  0.2657
 9671SOL    HW229913   5.404   0.418   5.715 -0.2378 -1.7993  0.0704
 9672SOL     OW29914   6.969   0.402   4.641 -0.0457 -0.2474 -0.1732
 9672SOL    HW129915   7.016   0.402   4.553  2.1388 -1.8211  0.8958
 9672SOL    HW229916   6.999   0.323   4.695 -0.2382  1.3856  2.5283
 9673SOL     OW29917   2.238   3.979   5.760 -0.4793  0.2860 -0.0305
 9673SOL    HW129918   2.194   4.068   5.741  0.1799  0.6341  0.0585
 9673SOL    HW229919   2.264   3.936   5.673  1.5831  1.4008 -0.0331
 9674SOL     OW29920   3.276   6.831   2.468  0.0447  0.6842  0.2226
 9674SOL    HW129921   3.268   6.857   2.564 -1.4229  0.8170  0.0838
 9674SOL    HW229922   3.307   6.910   2.415 -1.5455  1.3621  0.2425
 9675SOL     OW29923   5.678   3.088   1.695  0.6920 -0.3437  0.8258
 9675SOL    HW129924   5.628   3.080   1.781 -0.4141 -1.1282  0.1376
 9675SOL    HW229925   5.671   3.182   1.660  0.3765 -0.2552  1.1300
 9676SOL     OW29926   6.218   1.896   4.190 -0.1615  0.0254  0.5335
 9676SOL    HW129927   6.121   1.891   4.166 -0.0899 -0.9123  0.3725
 9676SOL    HW229928   6.252   1.804   4.209  1.2369  0.0068 -1.6371
 9677SOL     OW29929   1.357   4.780   4.863 -0.0727  0.5566  0.0607
 9677SOL    HW129930   1.395   4.700   4.816 -1.1612  0.0722 -0.0250
 9677SOL    HW229931   1.330   4.754   4.956 -0.8182  0.7074 -0.1079
 9678SOL     OW29932   3.536   2.846   2.129 -0.3970 -0.3758  0.2163
 9678SOL    HW129933   3.586   2.903   2.194 -0.3865 -0.7056  0.5029
 9678SOL    HW229934   3.586   2.760   2.116  1.4318  1.0053 -2.8351
 9679SOL     OW29935   1.016   3.224   1.653 -0.6067 -0.1911  0.4510
 9679SOL    HW129936   0.995   3.210   1.557 -0.3400 -2.1762  0.6425
 9679SOL    HW229937   0.966   3.157   1.708  0.3392 -0.0167  1.5587
 9680SOL     OW29938   5.238   3.785   2.919  0.1834  0.1363  0.0863
 9680SOL    HW129939   5.301   3.808   2.846 -1.1260  0.8094 -0.8639
 9680SOL    HW229940   5.290   3.750   2.998  1.7091  0.5944 -0.6737
 9681SOL     OW29941   0.570   5.632   4.015 -0.2070  0.6810  1.0023
 9681SOL    HW129942   0.523   5.718   3.994 -0.8077  0.3103  0.8139
 9681SOL    HW229943   0.503   5.558   4.020  0.3841  0.1138  0.5606
 9682SOL     OW29944   1.373   3.608   1.113  0.5801 -0.6840  0.2122
 9682SOL    HW129945   1.380   3.607   1.212  0.1062 -0.4182  0.2517
 9682SOL    HW229946   1.278   3.624   1.086  0.8789  0.4197 -0.2718
 9683SOL     OW29947   3.999   7.009   6.142  0.3100  0.3236 -0.6193
 9683SOL    HW129948   4.008   6.910   6.153  0.4463  0.2284 -1.5143
 9683SOL    HW229949   3.905   7.037   6.162  0.1972 -0.0274 -0.6562
 9684SOL     OW29950   1.702   2.788   3.108 -0.2531 -0.1214 -0.1273
 9684SOL    HW129951   1.642   2.782   3.188 -0.4081  1.2920 -0.1071
 9684SOL    HW229952   1.788   2.742   3.127 -0.3348  0.0948  0.8172
 9685SOL     OW29953   1.375   1.908   5.773  0.0348  0.0430  0.3103
 9685SOL    HW129954   1.450   1.886   5.711 -0.5324 -0.7407 -0.1164
 9685SOL    HW229955   1.352   2.005   5.765  1.3612  0.4227  0.8596
 9686SOL     OW29956   4.627   2.020   3.119  0.1451  0.4459 -0.2486
 9686SOL    HW129957   4.690   2.016   3.041  0.9146  2.3586  0.2098
 9686SOL    HW229958   4.594   2.114   3.130 -1.5098 -0.1964  0.5384
 9687SOL     OW29959   3.416   0.128   5.715 -0.2032  0.5126  0.2949
 9687SOL    HW129960   3.326   0.144   5.676  1.4367  1.0195 -3.7082
 9687SOL    HW229961   3.466   0.215   5.719  0.5428  0.0522  1.3438
 9688SOL     OW29962   4.450   3.223   0.242 -0.4137  0.2447  0.7888
 9688SOL    HW129963   4.368   3.278   0.225  0.1370  1.2334  1.2505
 9688SOL    HW229964   4.429   3.153   0.310 -1.1133 -0.1234  0.2184
 9689SOL     OW29965   1.959   5.537   4.579  0.0238 -0.2004  0.1320
 9689SOL    HW129966   1.992   5.480   4.654 -0.2174 -1.2046 -0.5216
 9689SOL    HW229967   1.877   5.587   4.608 -0.1333 -0.6732  0.4955
 9690SOL     OW29968   5.811   3.367   6.446 -0.3220  0.1212 -0.6428
 9690SOL    HW129969   5.742   3.294   6.445 -1.6572  1.2525  1.6921
 9690SOL    HW229970   5.766   3.455   6.431  0.5459  0.9100  1.1601
 9691SOL     OW29971   2.113   5.242   2.194  0.1373 -0.2519  0.3217
 9691SOL    HW129972   2.038   5.204   2.248  0.3160 -3.2431 -1.3414
 9691SOL    HW229973   2.200   5.214   2.234  0.3533  0.5624  0.4520
 9692SOL     OW29974   4.362   5.063   0.074  0.3033  0.0608 -0.2429
 9692SOL    HW129975   4.280   5.006   0.073  1.2236 -1.3687  1.1574
 9692SOL    HW229976   4.427   5.028   0.142  1.7684  1.6086 -0.7581
 9693SOL     OW29977   1.468   6.080   0.691 -0.5503  0.1759 -0.1650
 9693SOL    HW129978   1.395   6.147   0.673  0.9783  2.0620  0.3293
 9693SOL    HW229979   1.483   6.024   0.609  0.6050  2.9465 -1.9877
 9694SOL     OW29980   0.307   1.016   6.977  0.7332 -0.5939 -0.8055
 9694SOL    HW129981   0.214   1.020   7.014  0.3144 -0.4850 -1.8347
 9694SOL    HW229982   0.326   0.923   6.946  1.0309 -0.6548 -0.4399
 9695SOL     OW29983   5.764   4.880   0.261  0.3318 -0.3493 -0.2717
 9695SOL    HW129984   5.813   4.807   0.308  1.2490  0.0970 -0.5214
 9695SOL    HW229985   5.773   4.869   0.162  2.3675  1.3109 -0.3338
 9696SOL     OW29986   4.481   3.546   6.916  0.0414 -0.2888  0.1221
 9696SOL    HW129987   4.545   3.520   6.844 -1.1520 -0.6263 -0.8694
 9696SOL    HW229988   4.426   3.466   6.942  0.9478 -0.3588  1.9684
 9697SOL     OW29989   6.768   5.652   0.351 -0.2816 -0.3122 -0.3987
 9697SOL    HW129990   6.852   5.701   0.328  1.0120 -1.8078  0.8485
 9697SOL    HW229991   6.747   5.587   0.277  0.6779 -1.1406  0.0187
 9698SOL     OW29992   6.498   2.445   0.847 -0.7213  0.1108 -0.0107
 9698SOL    HW129993   6.449   2.445   0.934  0.2023  2.4976  0.5693
 9698SOL    HW229994   6.432   2.442   0.772 -1.6186  0.3087  0.7482
 9699SOL     OW29995   1.895   3.096   1.721 -0.2112 -0.0292 -0.2287
 9699SOL    HW129996   1.909   3.027   1.792  2.7065  0.4298 -0.2377
 9699SOL    HW229997   1.912   3.055   1.631  0.5238  0.4434 -0.3108
 9700SOL     OW29998   3.131   4.002   2.478  0.3841 -0.2245  0.3763
 9700SOL    HW129999   3.080   3.922   2.447 -3.8278  2.3608 -0.0826
 9700SOL    HW230000   3.200   4.027   2.410 -1.1168 -1.0477 -1.5109
 9701SOL     OW30001   3.567   4.918   4.363  0.1928 -0.6687  0.0185
 9701SOL    HW130002   3.650   4.893   4.413 -0.1430 -3.3223 -0.5769
 9701SOL    HW230003   3.487   4.891   4.416 -0.1779 -2.4179 -1.3433
 9702SOL     OW30004   6.656   1.917   5.268  0.3585  0.6296 -0.2736
 9702SOL    HW130005   6.701   1.849   5.327 -0.1447  0.5125 -0.0246
 9702SOL    HW230006   6.604   1.981   5.325  1.8203  1.9858 -0.3983
 9703SOL     OW30007   2.763   6.201   2.641 -0.2830  0.3327 -0.0008
 9703SOL    HW130008   2.848   6.152   2.660 -1.3671 -2.4354 -1.7289
 9703SOL    HW230009   2.686   6.151   2.681 -1.3686  1.2960 -0.8150
 9704SOL     OW30010   2.200   0.328   4.765  0.5137  0.2733 -0.2177
 9704SOL    HW130011   2.230   0.416   4.726  0.1071  0.4234 -0.1989
 9704SOL    HW230012   2.216   0.255   4.699  0.0723  0.4891 -0.5673
 9705SOL     OW30013   4.431   4.219   6.434 -0.3281  0.0223  0.1435
 9705SOL    HW130014   4.345   4.266   6.413 -0.1324 -0.3821 -1.7261
 9705SOL    HW230015   4.466   4.175   6.351  1.7147  0.2109  0.8602
 9706SOL     OW30016   1.267   6.951   4.988 -0.7486 -0.1352  0.2251
 9706SOL    HW130017   1.339   7.019   4.999 -1.3807  0.3614  1.4104
 9706SOL    HW230018   1.215   6.970   4.904 -0.9116  0.8370  0.5394
 9707SOL     OW30019   2.831   5.202   0.214  0.1334  0.7692  0.0592
 9707SOL    HW130020   2.748   5.152   0.239  1.5606 -1.6537  0.3213
 9707SOL    HW230021   2.810   5.268   0.142 -2.5023  2.2058  1.9614
 9708SOL     OW30022   1.368   2.324   2.327  0.2754 -0.5733  0.0913
 9708SOL    HW130023   1.452   2.327   2.382 -0.0411 -0.5742  0.5844
 9708SOL    HW230024   1.318   2.239   2.347  0.9243 -1.3442 -1.3717
 9709SOL     OW30025   2.231   4.647   3.934  0.1565 -0.1606  0.7142
 9709SOL    HW130026   2.193   4.689   3.852  1.4570 -0.6966 -0.1919
 9709SOL    HW230027   2.199   4.697   4.015  0.3442  1.5598 -0.2288
 9710SOL     OW30028   1.530   5.749   2.399 -0.1130  0.0927 -0.3965
 9710SOL    HW130029   1.615   5.703   2.425 -0.4228 -1.1800 -1.5259
 9710SOL    HW230030   1.452   5.695   2.431 -0.4947  0.3913 -0.8115
 9711SOL     OW30031   1.022   1.787   4.741  0.5057 -0.1335  0.1632
 9711SOL    HW130032   1.121   1.798   4.753  0.6770 -1.2321 -0.1426
 9711SOL    HW230033   0.982   1.758   4.827  0.3494  0.8638  0.4418
 9712SOL     OW30034   5.766   4.017   4.737  0.4995 -0.3603  0.1030
 9712SOL    HW130035   5.743   4.062   4.823 -1.7981 -2.0395  0.4451
 9712SOL    HW230036   5.805   3.927   4.756  0.0207 -0.7241 -0.6113
 9713SOL     OW30037   1.252   7.003   2.082  0.2192 -0.4304  0.6668
 9713SOL    HW130038   1.288   7.049   2.163  0.8994 -0.0743  0.1809
 9713SOL    HW230039   1.324   6.947   2.042 -0.7217 -2.2974  1.4957
 9714SOL     OW30040   0.806   1.724   2.137  0.1859  0.1628 -0.2943
 9714SOL    HW130041   0.809   1.680   2.048  0.8046  0.1560 -0.2739
 9714SOL    HW230042   0.754   1.809   2.131 -1.6390 -0.8952 -0.1827
 9715SOL     OW30043   4.838   4.702   5.265 -0.3627  0.0871  0.1401
 9715SOL    HW130044   4.911   4.638   5.288 -0.0103 -0.1034 -1.4109
 9715SOL    HW230045   4.869   4.763   5.192 -0.7911  1.8694  1.3609
 9716SOL     OW30046   2.036   0.382   5.002  0.5382 -0.3653  0.0643
 9716SOL    HW130047   1.945   0.408   4.967  0.1960  0.6084  1.5549
 9716SOL    HW230048   2.088   0.336   4.930 -0.5215  0.5532 -1.3426
 9717SOL     OW30049   0.493   4.175   2.778  0.1741  0.2818 -0.0729
 9717SOL    HW130050   0.447   4.117   2.711 -0.0101  0.6191 -0.2391
 9717SOL    HW230051   0.592   4.171   2.764  0.1722 -0.0894 -0.0025
 9718SOL     OW30052   6.913   2.105   1.471 -0.3487  0.9215 -0.1576
 9718SOL    HW130053   6.968   2.188   1.466 -0.7159  1.0757 -2.6918
 9718SOL    HW230054   6.856   2.108   1.554  0.4334  2.6631  0.3612
 9719SOL     OW30055   6.399   0.314   1.091  0.4162 -0.3963 -0.2941
 9719SOL    HW130056   6.444   0.368   1.163  1.4708  0.3617 -1.4910
 9719SOL    HW230057   6.317   0.363   1.060  0.7701 -0.0102 -0.6238
 9720SOL     OW30058   6.671   1.334   1.439 -0.1394  0.3042 -0.3598
 9720SOL    HW130059   6.658   1.238   1.467  3.2749 -0.3025 -0.4574
 9720SOL    HW230060   6.691   1.338   1.341 -2.1991  1.4058 -0.7943
 9721SOL     OW30061   1.689   1.132   4.620 -0.2635 -0.0965  0.0251
 9721SOL    HW130062   1.658   1.136   4.715 -0.3168  2.2966 -0.0475
 9721SOL    HW230063   1.622   1.080   4.567 -1.5495  0.6432  0.8491
 9722SOL     OW30064   4.967   1.959   5.249  0.0905 -0.4132 -0.1803
 9722SOL    HW130065   4.952   1.861   5.265 -0.1918 -0.1181  1.5895
 9722SOL    HW230066   5.046   1.990   5.302  0.2921  0.2992 -0.8733
 9723SOL     OW30067   6.719   0.704   5.344 -0.1726 -0.1461  0.0366
 9723SOL    HW130068   6.637   0.716   5.401 -1.1906 -0.4575 -1.2970
 9723SOL    HW230069   6.747   0.608   5.346 -1.7128 -0.6982 -1.8730
 9724SOL     OW30070   3.182   1.553   1.596  0.1248 -0.1178  0.2785
 9724SOL    HW130071   3.233   1.468   1.588 -0.0887 -0.2500  0.2921
 9724SOL    HW230072   3.232   1.618   1.653  0.1193 -0.3685  0.5714
 9725SOL     OW30073   3.764   3.999   5.835 -0.1630 -0.2361  0.0262
 9725SOL    HW130074   3.829   3.924   5.845 -0.2009 -0.1386  1.1017
 9725SOL    HW230075   3.763   4.030   5.740 -0.4416 -1.8638 -0.5331
 9726SOL     OW30076   4.999   6.162   4.996 -0.3761  0.5939 -0.3875
 9726SOL    HW130077   5.073   6.170   4.929 -1.6608  2.5839 -1.6687
 9726SOL    HW230078   5.038   6.156   5.088  1.3995  1.8021 -1.0022
 9727SOL     OW30079   0.532   1.279   0.230 -0.2030  0.0738  0.3378
 9727SOL    HW130080   0.465   1.282   0.156 -2.3260  0.3664  2.1692
 9727SOL    HW230081   0.538   1.186   0.266  1.3186 -0.2141 -0.5697
 9728SOL     OW30082   1.957   5.275   5.358  0.2905 -0.0953  0.3195
 9728SOL    HW130083   2.013   5.275   5.441  0.6587  0.6621  0.0909
 9728SOL    HW230084   1.947   5.370   5.325  0.8109 -0.4498 -0.9302
 9729SOL     OW30085   4.616   5.136   1.610 -0.2038 -0.2366  0.0823
 9729SOL    HW130086   4.577   5.153   1.700  0.0415  0.2025  0.1106
 9729SOL    HW230087   4.543   5.116   1.545 -0.4067 -0.2428  0.3105
 9730SOL     OW30088   5.591   3.587   3.690 -0.3324 -0.4413  0.1363
 9730SOL    HW130089   5.605   3.669   3.745 -3.6947 -0.3895  1.1716
 9730SOL    HW230090   5.643   3.511   3.729 -0.9105  0.1155  2.1010
 9731SOL     OW30091   6.280   2.720   1.241  0.1228  0.2373 -0.2438
 9731SOL    HW130092   6.248   2.795   1.297  0.2523  1.7484 -2.0878
 9731SOL    HW230093   6.264   2.633   1.288 -0.5339  1.3622  1.6922
 9732SOL     OW30094   7.004   6.545   4.653  0.3324  0.1900  0.2047
 9732SOL    HW130095   6.929   6.548   4.720 -0.5852  0.6484 -0.8079
 9732SOL    HW230096   7.014   6.451   4.619 -0.3323  0.2803 -0.2520
 9733SOL     OW30097   5.459   4.024   4.150 -0.2153 -0.2129 -0.2289
 9733SOL    HW130098   5.547   4.007   4.195 -0.5194 -0.9239  0.1020
 9733SOL    HW230099   5.441   4.123   4.151 -0.2130 -0.1955  1.2433
 9734SOL     OW30100   1.994   2.487   5.955  0.3166 -0.3712  0.1648
 9734SOL    HW130101   2.056   2.467   5.880  0.4851 -0.8786  0.4370
 9734SOL    HW230102   1.980   2.405   6.010 -0.4957 -0.2359  0.1792
 9735SOL     OW30103   2.626   4.833   0.021 -0.3970  0.3006 -0.1979
 9735SOL    HW130104   2.663   4.743   0.041 -0.4834 -0.0219 -1.4077
 9735SOL    HW230105   2.700   4.893  -0.012 -0.5839  0.2345 -0.7540
 9736SOL     OW30106   2.425   1.002   0.717 -0.0604  0.1990  0.4530
 9736SOL    HW130107   2.510   1.028   0.763  1.9824 -5.4796  0.6646
 9736SOL    HW230108   2.392   1.080   0.664  4.9923  2.9908  0.6985
 9737SOL     OW30109   5.015   0.077   3.602  0.3866 -0.4062  0.4330
 9737SOL    HW130110   4.982   0.026   3.523  0.1866  0.6239 -0.1664
 9737SOL    HW230111   5.106   0.115   3.581  0.6789 -0.7831  0.9931
 9738SOL     OW30112   3.371   1.945   2.252 -0.1383  0.2112 -0.0006
 9738SOL    HW130113   3.278   1.927   2.284 -0.8534 -0.3776 -2.1873
 9738SOL    HW230114   3.368   1.976   2.157  2.0212 -2.4234 -1.0638
 9739SOL     OW30115   5.586   5.756   2.286  0.3578  0.5536  0.2731
 9739SOL    HW130116   5.610   5.846   2.248  0.5286  0.5471  0.3656
 9739SOL    HW230117   5.510   5.718   2.235 -0.2151  1.0885  0.7153
 9740SOL     OW30118   6.007   3.139   3.129  0.4173 -0.4076 -0.3258
 9740SOL    HW130119   6.048   3.088   3.205 -0.1444  0.6974  0.7589
 9740SOL    HW230120   5.911   3.111   3.118  0.7539 -1.2526 -1.2801
 9741SOL     OW30121   4.043   0.985   2.441  0.0689  0.0148 -0.0195
 9741SOL    HW130122   4.136   1.005   2.472  0.6310 -1.3323 -0.7768
 9741SOL    HW230123   3.993   1.071   2.428  1.3158  0.7704  0.0572
 9742SOL     OW30124   4.370   0.423   4.464  0.5274  0.0150  0.4448
 9742SOL    HW130125   4.367   0.327   4.439  0.4594  0.6521 -2.3535
 9742SOL    HW230126   4.278   0.460   4.466  0.6216  0.2618  0.3302
 9743SOL     OW30127   2.072   1.206   6.431  0.2820 -0.3704 -0.1154
 9743SOL    HW130128   2.090   1.268   6.507  2.0019 -0.4026 -0.4521
 9743SOL    HW230129   2.021   1.255   6.360  1.4794  0.6417 -0.3137
 9744SOL     OW30130   4.033   6.088   1.165  0.2836  0.2060 -0.2496
 9744SOL    HW130131   4.089   6.006   1.176 -0.2724 -0.0714  0.5839
 9744SOL    HW230132   4.026   6.111   1.068 -1.5698 -2.1531 -0.7569
 9745SOL     OW30133   0.863   0.831   4.681 -0.1537 -0.1332 -0.0570
 9745SOL    HW130134   0.905   0.826   4.771 -0.5485 -2.0018  0.0621
 9745SOL    HW230135   0.788   0.898   4.682 -1.2389 -1.3172  1.4895
 9746SOL     OW30136   5.280   6.510   5.817  0.1239 -0.1338  0.0781
 9746SOL    HW130137   5.203   6.571   5.798  0.0314 -0.7095 -1.4779
 9746SOL    HW230138   5.248   6.415   5.816  0.9123 -0.4023 -1.0239
 9747SOL     OW30139   0.919   6.195   6.164 -0.0290 -0.8878  0.7499
 9747SOL    HW130140   0.902   6.284   6.122 -3.6262 -1.8872 -0.3099
 9747SOL    HW230141   1.004   6.156   6.128  0.7696  1.3684  0.0211
 9748SOL     OW30142   0.968   6.219   4.922  0.1921 -0.0225  0.2994
 9748SOL    HW130143   1.014   6.261   5.000  1.3971  0.0731 -0.4338
 9748SOL    HW230144   1.033   6.161   4.873 -0.5513 -0.0961 -0.6140
 9749SOL     OW30145   0.222   5.722   4.321  0.0306  0.3113 -0.4445
 9749SOL    HW130146   0.129   5.755   4.337 -0.0287  0.3721 -0.8867
 9749SOL    HW230147   0.263   5.774   4.247  0.3776  0.2090 -0.3247
 9750SOL     OW30148   2.798   4.114   0.665 -0.1369  0.4158  0.4891
 9750SOL    HW130149   2.889   4.155   0.656 -0.5629  1.1137 -0.9048
 9750SOL    HW230150   2.773   4.111   0.762  1.0694  0.8669  0.8422
 9751SOL     OW30151   1.167   1.526   0.141  0.6232  0.0175  0.0896
 9751SOL    HW130152   1.168   1.620   0.174 -0.8880 -0.1513  0.6960
 9751SOL    HW230153   1.178   1.464   0.219 -1.3200 -0.3389  0.1481
 9752SOL     OW30154   4.589   0.438   5.663 -0.2473  0.3624  0.3173
 9752SOL    HW130155   4.637   0.431   5.750  0.9752 -1.5251 -0.4329
 9752SOL    HW230156   4.655   0.429   5.588 -1.6738 -2.0054 -0.7520
 9753SOL     OW30157   2.247   0.306   6.932  0.0351  0.1886  0.9150
 9753SOL    HW130158   2.153   0.270   6.937  0.2693 -0.7472 -0.6988
 9753SOL    HW230159   2.248   0.389   6.877  0.2469 -0.1809  0.3559
 9754SOL     OW30160   0.589   2.959   1.210 -0.1557  0.1715  0.3010
 9754SOL    HW130161   0.614   2.978   1.115  0.9158 -0.2058  0.5011
 9754SOL    HW230162   0.649   3.010   1.271  0.1650 -0.7917  0.7934
 9755SOL     OW30163   3.773   6.044   4.530  0.2349 -0.1502 -0.4229
 9755SOL    HW130164   3.681   6.078   4.508 -0.2443 -0.2799  1.2252
 9755SOL    HW230165   3.801   5.977   4.462 -0.4712  0.6137 -1.5014
 9756SOL     OW30166   5.316   5.101   7.013  0.1850 -0.2070 -0.2428
 9756SOL    HW130167   5.224   5.139   7.019  0.3039  0.0897 -0.2851
 9756SOL    HW230168   5.321   5.017   7.068 -0.5625 -1.1279 -1.5269
 9757SOL     OW30169   3.636   0.431   4.559 -0.2422 -0.2313 -0.4020
 9757SOL    HW130170   3.668   0.504   4.619  0.6837  1.1613 -2.4819
 9757SOL    HW230171   3.714   0.387   4.514 -0.8913 -1.4239 -0.4129
 9758SOL     OW30172   4.177   5.872   1.177 -0.4617  0.1286 -0.2237
 9758SOL    HW130173   4.224   5.821   1.105 -1.6290  0.0311 -0.9515
 9758SOL    HW230174   4.088   5.829   1.195 -0.8163  1.0188  0.2208
 9759SOL     OW30175   2.703   5.557   2.844  0.3103 -0.4075  0.1282
 9759SOL    HW130176   2.663   5.649   2.848 -0.5508 -0.7647  0.0408
 9759SOL    HW230177   2.645   5.499   2.787  0.8845 -0.9881  0.1333
 9760SOL     OW30178   5.716   3.171   4.156 -0.5221 -0.7159  0.0404
 9760SOL    HW130179   5.658   3.212   4.085  0.6134  0.6790 -0.1285
 9760SOL    HW230180   5.794   3.231   4.174 -0.3447 -1.4472  1.9033
 9761SOL     OW30181   6.441   5.201   2.126 -0.1905 -0.4490  0.5305
 9761SOL    HW130182   6.385   5.169   2.203  1.3992 -2.2669  1.0185
 9761SOL    HW230183   6.527   5.149   2.123 -0.4167 -0.8765 -2.8374
 9762SOL     OW30184   4.796   1.953   2.623  0.1631  0.6150  0.3008
 9762SOL    HW130185   4.734   2.019   2.581  1.2393  1.2239 -0.3678
 9762SOL    HW230186   4.780   1.863   2.584  0.4076  0.9719 -0.6558
 9763SOL     OW30187   2.279   2.776   2.826 -0.7451  0.2600 -0.0975
 9763SOL    HW130188   2.214   2.701   2.813 -1.7888  0.9355  1.0290
 9763SOL    HW230189   2.248   2.856   2.774  0.8654 -0.3102 -2.0768
 9764SOL     OW30190   0.505   2.746   5.759 -0.2954 -0.3539 -0.3482
 9764SOL    HW130191   0.505   2.835   5.805  1.2541 -0.6391  0.2404
 9764SOL    HW230192   0.565   2.683   5.807  0.1576 -1.1335 -1.8762
 9765SOL     OW30193   1.226   6.907   6.533  0.7030 -0.2126 -0.4632
 9765SOL    HW130194   1.214   6.962   6.450  2.0925  0.1165 -0.4688
 9765SOL    HW230195   1.187   6.955   6.611 -1.2686 -0.8402 -0.9892
 9766SOL     OW30196   4.115   1.099   0.378 -0.1482  0.3145  0.4720
 9766SOL    HW130197   4.022   1.117   0.345  0.1887 -0.0162 -0.6821
 9766SOL    HW230198   4.123   1.004   0.406  0.1850 -0.0099 -0.6643
 9767SOL     OW30199   5.576   0.307   4.249  0.0471 -0.3148  0.2176
 9767SOL    HW130200   5.563   0.236   4.180 -1.5051  0.4852 -0.3635
 9767SOL    HW230201   5.487   0.334   4.285  0.5468  1.7896 -0.0312
 9768SOL     OW30202   4.885   1.572   3.595 -0.0702  0.0016 -0.3170
 9768SOL    HW130203   4.954   1.642   3.579  1.7344 -1.5330  0.2709
 9768SOL    HW230204   4.897   1.534   3.687 -0.6191 -1.4139 -0.7998
 9769SOL     OW30205   0.649   2.750   0.483 -0.1155  0.0070  0.4024
 9769SOL    HW130206   0.632   2.789   0.392  1.7113 -1.1039 -0.4709
 9769SOL    HW230207   0.562   2.724   0.525 -1.0382  1.0436 -0.7764
 9770SOL     OW30208   0.782   3.695   3.195 -0.0021  0.1431  0.1902
 9770SOL    HW130209   0.773   3.788   3.158 -1.0762 -0.6073 -1.5962
 9770SOL    HW230210   0.720   3.683   3.272 -0.6023  0.6199 -0.2109
 9771SOL     OW30211   0.226   6.979   4.767 -0.4546 -0.5500 -0.2332
 9771SOL    HW130212   0.322   6.977   4.739 -0.0235 -1.1839  1.2197
 9771SOL    HW230213   0.174   6.915   4.710  0.1442 -0.8582 -0.4447
 9772SOL     OW30214   6.151   6.618   1.957 -0.8628  0.1190  0.0993
 9772SOL    HW130215   6.241   6.632   1.917 -0.5381 -0.7782  0.4761
 9772SOL    HW230216   6.122   6.524   1.940 -1.7227  0.3979 -0.0063
 9773SOL     OW30217   5.387   5.485   2.569  0.0669  0.1625 -1.1684
 9773SOL    HW130218   5.480   5.516   2.552 -0.0909  0.0452 -2.3600
 9773SOL    HW230219   5.386   5.385   2.582  0.4240  0.4325  1.5237
 9774SOL     OW30220   5.517   5.949   5.248  0.2903  0.6100  0.6846
 9774SOL    HW130221   5.429   5.992   5.228 -0.2261 -0.2059  1.1689
 9774SOL    HW230222   5.502   5.856   5.281  1.1866  1.2539  3.1179
 9775SOL     OW30223   3.869   1.238   5.959  0.0055 -0.0980  0.4255
 9775SOL    HW130224   3.804   1.305   5.996 -0.3719 -0.5326  0.5640
 9775SOL    HW230225   3.848   1.147   5.997  0.4801 -0.3042  0.2038
 9776SOL     OW30226   1.063   2.833   3.774  0.6166  0.4248  0.1725
 9776SOL    HW130227   1.035   2.916   3.822 -0.9572  1.1187 -1.7781
 9776SOL    HW230228   1.142   2.792   3.820  1.0732  2.6612  1.5212
 9777SOL     OW30229   6.042   0.077   0.166  0.7388  0.1508  0.0869
 9777SOL    HW130230   5.999  -0.012   0.148  0.9579 -0.3584  1.8392
 9777SOL    HW230231   6.138   0.073   0.142  0.2720  0.6772 -2.0193
 9778SOL     OW30232   0.988   6.989   4.090  0.1982  0.8977 -0.3853
 9778SOL    HW130233   0.935   6.905   4.075  0.0279  0.3269  2.7765
 9778SOL    HW230234   1.085   6.966   4.097 -0.0274  0.5501  2.5478
 9779SOL     OW30235   0.910   2.385   4.836 -0.1725  0.3735 -0.4557
 9779SOL    HW130236   0.915   2.478   4.799 -0.9251  0.2801 -0.7975
 9779SOL    HW230237   0.816   2.364   4.861 -0.0003 -0.2956 -0.3522
 9780SOL     OW30238   1.841   2.504   1.847 -0.4337 -0.1608 -0.3887
 9780SOL    HW130239   1.767   2.477   1.908  0.7712  0.9022  1.6844
 9780SOL    HW230240   1.820   2.593   1.806 -0.3732  0.1134  0.1533
 9781SOL     OW30241   6.005   6.426   4.560 -0.3138  0.3959 -0.6949
 9781SOL    HW130242   6.091   6.470   4.586  0.1915 -0.9765  0.0556
 9781SOL    HW230243   5.990   6.345   4.617 -2.2146  0.7066 -0.6940
 9782SOL     OW30244   6.455   2.055   6.975 -0.4224  0.6366 -0.4614
 9782SOL    HW130245   6.449   1.969   6.923 -1.7573 -0.7449  1.7744
 9782SOL    HW230246   6.363   2.083   7.002  0.2491  0.1196  2.8026
 9783SOL     OW30247   6.063   0.849   3.720  0.6608 -0.3398 -0.6391
 9783SOL    HW130248   6.028   0.842   3.626  1.2636 -3.7794 -0.7307
 9783SOL    HW230249   6.014   0.784   3.778  0.3587  1.6787  1.4993
 9784SOL     OW30250   4.236   0.907   4.750 -0.3037  0.2813 -0.5712
 9784SOL    HW130251   4.174   0.920   4.672 -2.0566 -0.1259  0.6761
 9784SOL    HW230252   4.292   0.826   4.735 -0.2244  0.5147 -1.6372
 9785SOL     OW30253   1.427   2.716   6.281 -0.1121 -0.8157 -0.1630
 9785SOL    HW130254   1.509   2.752   6.236  1.4839 -2.3729  1.3216
 9785SOL    HW230255   1.397   2.780   6.352  1.4083 -1.3631  1.0203
 9786SOL     OW30256   6.962   1.387   4.434  0.2018 -0.0686 -0.3571
 9786SOL    HW130257   7.034   1.348   4.492  0.1243 -0.4876 -0.5388
 9786SOL    HW230258   6.943   1.481   4.463  0.4928 -0.1151 -0.0075
 9787SOL     OW30259   5.896   4.466   6.169 -0.5062 -0.2351 -0.1477
 9787SOL    HW130260   5.919   4.369   6.159  1.5830  0.2128 -0.1547
 9787SOL    HW230261   5.854   4.499   6.084 -0.4612 -0.9427 -0.4500
 9788SOL     OW30262   5.572   6.453   6.508  0.0612 -0.3664 -0.3902
 9788SOL    HW130263   5.660   6.423   6.471  0.6208  1.6054 -0.7400
 9788SOL    HW230264   5.575   6.551   6.527 -1.4058 -0.6459  1.5529
 9789SOL     OW30265   4.242   6.199   6.534 -0.0618  0.5270 -0.1137
 9789SOL    HW130266   4.162   6.197   6.593  0.8722  1.9702  1.2632
 9789SOL    HW230267   4.242   6.283   6.480  1.1800  1.1872  0.8812
 9790SOL     OW30268   6.728   1.550   4.066 -0.3570 -0.1119  0.3653
 9790SOL    HW130269   6.827   1.549   4.084  0.2304  2.0104 -2.1246
 9790SOL    HW230270   6.678   1.542   4.152  2.0195  0.8757  1.9346
 9791SOL     OW30271   0.084   1.456   1.873  0.1673 -0.1538  0.7462
 9791SOL    HW130272  -0.014   1.438   1.881 -0.0070  0.5493  0.1892
 9791SOL    HW230273   0.109   1.531   1.935  0.4486 -0.6474  1.2427
 9792SOL     OW30274   4.825   5.075   3.300 -0.7809  0.3741 -0.1715
 9792SOL    HW130275   4.829   4.975   3.293  0.3819  0.4528 -0.7483
 9792SOL    HW230276   4.915   5.111   3.324 -0.2426  1.5208 -3.4166
 9793SOL     OW30277   6.336   4.754   1.770 -0.3594 -0.2390 -0.1253
 9793SOL    HW130278   6.363   4.674   1.717 -0.9352  0.4678 -1.5351
 9793SOL    HW230279   6.237   4.765   1.766 -0.4101 -0.1226  1.0579
 9794SOL     OW30280   1.718   4.707   6.938 -0.2092  0.3559 -0.1492
 9794SOL    HW130281   1.798   4.663   6.898 -0.8689  0.1043 -1.2315
 9794SOL    HW230282   1.635   4.675   6.892 -1.0162  0.0869  1.4152
 9795SOL     OW30283   1.868   5.389   0.289 -0.2217  0.1290  0.2328
 9795SOL    HW130284   1.821   5.401   0.201 -0.0800 -0.7196  0.0388
 9795SOL    HW230285   1.950   5.446   0.289 -1.5004  2.0693  0.7971
 9796SOL     OW30286   3.958   6.641   5.859 -0.5640  0.2233  0.3890
 9796SOL    HW130287   4.033   6.705   5.841  0.2625  0.1389  3.0822
 9796SOL    HW230288   3.991   6.568   5.919 -2.3703 -0.8698  0.1087
 9797SOL     OW30289   5.975   4.654   5.627  0.3468 -0.2156 -0.3713
 9797SOL    HW130290   6.035   4.631   5.704  2.1267  0.8969 -1.3632
 9797SOL    HW230291   5.994   4.592   5.551  1.0084  0.8054 -1.0518
 9798SOL     OW30292   3.906   2.291   1.690  0.5737  0.4014  0.2516
 9798SOL    HW130293   3.837   2.318   1.757  0.9419  0.3201  0.6698
 9798SOL    HW230294   3.998   2.305   1.729  0.7848  0.0489 -0.1141
 9799SOL     OW30295   3.608   3.560   4.622 -0.2483  0.0429 -0.0593
 9799SOL    HW130296   3.653   3.633   4.570 -0.1394 -0.3584 -0.5422
 9799SOL    HW230297   3.509   3.570   4.614 -0.2335  0.0106 -0.3185
 9800SOL     OW30298   4.610   6.183   1.362  0.4927 -0.2346 -0.7619
 9800SOL    HW130299   4.635   6.236   1.281  1.0627  0.3212 -0.2443
 9800SOL    HW230300   4.536   6.120   1.340  1.9977 -1.5541 -2.2328
 9801SOL     OW30301   5.406   5.423   1.310 -0.0018 -0.0391 -0.6580
 9801SOL    HW130302   5.344   5.460   1.240  0.3943 -0.7107 -1.3765
 9801SOL    HW230303   5.366   5.341   1.349 -0.0374  0.1115 -0.3773
 9802SOL     OW30304   1.699   6.311   2.669  0.2031 -0.6205  0.5096
 9802SOL    HW130305   1.664   6.225   2.705 -0.1976 -0.9696 -0.6652
 9802SOL    HW230306   1.756   6.294   2.589 -2.2174  0.3073 -1.5508
 9803SOL     OW30307   5.832   6.595   5.282  0.0837  0.4723  0.0816
 9803SOL    HW130308   5.756   6.539   5.316 -0.8435  0.1996 -2.2639
 9803SOL    HW230309   5.803   6.691   5.280 -0.0721  0.4181 -0.4289
 9804SOL     OW30310   3.434   6.990   3.932  0.2718  0.4321  0.0492
 9804SOL    HW130311   3.499   7.064   3.916 -1.1290  1.4187 -1.3546
 9804SOL    HW230312   3.415   6.942   3.846 -0.3178 -0.3122  0.5676
 9805SOL     OW30313   3.408   4.446   0.896  0.5040  0.3019  0.3258
 9805SOL    HW130314   3.389   4.348   0.896  1.6164  0.0676  1.5365
 9805SOL    HW230315   3.436   4.474   0.805 -1.0808 -0.2202 -0.3727
 9806SOL     OW30316   4.331   1.592   3.230  0.1761  0.0788 -0.2799
 9806SOL    HW130317   4.355   1.584   3.134  1.0152  0.2914 -0.0977
 9806SOL    HW230318   4.376   1.673   3.269 -2.1522  1.4980 -0.3047
 9807SOL     OW30319   0.046   3.140   3.043 -0.5066 -0.1706  0.1193
 9807SOL    HW130320  -0.003   3.054   3.027 -1.0669  0.4936 -2.1121
 9807SOL    HW230321   0.119   3.150   2.974 -1.2239  1.6625 -0.4304
 9808SOL     OW30322   2.721   1.442   3.099 -0.2574  0.0388  0.1254
 9808SOL    HW130323   2.650   1.502   3.061 -0.6698 -0.3633  0.2404
 9808SOL    HW230324   2.795   1.431   3.032 -0.4908  0.1529 -0.1546
 9809SOL     OW30325   6.822   0.897   5.170  0.4876 -0.3814 -0.1163
 9809SOL    HW130326   6.752   0.968   5.164  1.4614  0.5880 -0.2747
 9809SOL    HW230327   6.817   0.853   5.260  0.4652  0.5194  0.3368
 9810SOL     OW30328   5.457   2.092   3.050  0.1380  0.5677  0.6494
 9810SOL    HW130329   5.544   2.136   3.073  0.0293  0.6100  0.9810
 9810SOL    HW230330   5.446   2.009   3.106 -0.9260  1.5898  2.0206
 9811SOL     OW30331   1.485   1.262   1.111  0.3998  0.0009 -0.0623
 9811SOL    HW130332   1.451   1.234   1.200 -0.0281  0.3675 -0.1073
 9811SOL    HW230333   1.580   1.291   1.120 -0.4392  2.7710  0.8616
 9812SOL     OW30334   6.841   1.115   6.118  0.1801  0.4255  0.0810
 9812SOL    HW130335   6.899   1.038   6.144  0.5373  0.9070  0.7515
 9812SOL    HW230336   6.849   1.131   6.019  0.9754  0.3081  0.1210
 9813SOL     OW30337   4.839   3.139   1.380 -0.0622  0.6397 -0.2960
 9813SOL    HW130338   4.745   3.135   1.347 -0.2355 -0.1011  0.2763
 9813SOL    HW230339   4.840   3.141   1.480  0.5224  0.9692 -0.3022
 9814SOL     OW30340   6.125   1.117   5.599  0.1652 -0.3992  0.5718
 9814SOL    HW130341   6.136   1.186   5.528  0.9454 -0.1763  0.8994
 9814SOL    HW230342   6.136   1.159   5.689  1.4891 -1.0856  0.7521
 9815SOL     OW30343   2.629   5.832   1.182  0.1816  0.2465  0.3290
 9815SOL    HW130344   2.553   5.891   1.210 -0.5771 -0.3631 -0.4167
 9815SOL    HW230345   2.632   5.752   1.242 -0.4888 -0.2908 -0.3254
 9816SOL     OW30346   1.085   1.914   5.416  0.4057 -0.5631  0.2535
 9816SOL    HW130347   1.123   1.988   5.361  0.2882 -0.5749  0.1543
 9816SOL    HW230348   1.158   1.862   5.460  0.5641 -1.2664 -0.8092
 9817SOL     OW30349   2.111   3.456   0.288 -0.3314  0.0416 -0.1680
 9817SOL    HW130350   2.129   3.460   0.386  0.1820 -1.4220 -0.1773
 9817SOL    HW230351   2.151   3.372   0.250  0.0821  0.9070 -1.7530
 9818SOL     OW30352   1.519   1.424   1.634  0.1937 -0.2516  0.3895
 9818SOL    HW130353   1.428   1.452   1.665  0.7429  4.0172 -1.0952
 9818SOL    HW230354   1.583   1.427   1.711 -0.2347  0.5661  0.7290
 9819SOL     OW30355   6.218   2.799   3.904  0.0234  0.4324  0.5129
 9819SOL    HW130356   6.195   2.743   3.825  0.0895  1.3861 -0.2031
 9819SOL    HW230357   6.302   2.764   3.947  0.8143  0.7660 -0.7233
 9820SOL     OW30358   2.499   1.319   6.138 -0.5062 -1.0397  0.0076
 9820SOL    HW130359   2.409   1.351   6.170 -0.4508 -0.5051 -0.3592
 9820SOL    HW230360   2.570   1.376   6.179 -0.4029 -0.7005 -0.6269
 9821SOL     OW30361   2.896   3.993   5.662  0.1224 -0.0194  0.5601
 9821SOL    HW130362   2.917   3.906   5.618 -0.8382 -0.4169  0.8543
 9821SOL    HW230363   2.906   4.067   5.595 -0.5164 -0.5274 -0.1214
 9822SOL     OW30364   4.263   5.620   3.652 -0.9124  0.2868  0.2641
 9822SOL    HW130365   4.361   5.629   3.632 -0.5689 -0.2487  1.5552
 9822SOL    HW230366   4.210   5.659   3.578  0.2761 -0.0471 -0.8011
 9823SOL     OW30367   3.225   6.821   2.805 -0.4001 -0.4142 -0.3680
 9823SOL    HW130368   3.195   6.735   2.846 -1.5766 -0.4198 -1.1851
 9823SOL    HW230369   3.147   6.866   2.761  0.5287  0.2785 -1.3638
 9824SOL     OW30370   2.056   6.800   6.862 -0.4009 -0.6040 -0.1321
 9824SOL    HW130371   2.011   6.713   6.880  0.2142 -1.2043 -1.3259
 9824SOL    HW230372   2.153   6.783   6.841 -0.7062  0.0798 -2.4600
 9825SOL     OW30373   0.336   1.197   5.641  0.2134 -0.3011  0.0124
 9825SOL    HW130374   0.344   1.120   5.578 -1.2418  1.0249 -1.9552
 9825SOL    HW230375   0.309   1.164   5.731 -1.5716 -2.0653 -1.0660
 9826SOL     OW30376   1.118   5.591   6.992 -0.5286  0.4362  0.0575
 9826SOL    HW130377   1.032   5.591   7.044  1.1477 -2.3837  3.2386
 9826SOL    HW230378   1.123   5.509   6.935 -0.2095  0.9577 -0.6810
 9827SOL     OW30379   3.654   4.117   0.573  0.0743  0.5555 -0.2519
 9827SOL    HW130380   3.643   4.033   0.626  0.5634  1.2320  0.9611
 9827SOL    HW230381   3.588   4.185   0.605 -0.4608  0.5877 -1.3708
 9828SOL     OW30382   4.643   1.898   4.464 -0.1912 -0.2179 -0.0762
 9828SOL    HW130383   4.691   1.969   4.413  0.7317 -1.3543 -0.8313
 9828SOL    HW230384   4.631   1.817   4.407 -2.2690 -0.2933  0.3744
 9829SOL     OW30385   5.997   3.683   6.497 -0.0452 -0.0120  0.0802
 9829SOL    HW130386   6.028   3.592   6.523  0.3523  0.8970  3.2589
 9829SOL    HW230387   5.914   3.706   6.548  1.8721  2.6818  2.3020
 9830SOL     OW30388   4.716   0.006   2.425  0.1566 -0.0978  0.0429
 9830SOL    HW130389   4.710   0.033   2.520  1.5075  1.0306 -0.1612
 9830SOL    HW230390   4.663   0.069   2.368 -0.8422 -0.9053  0.0445
 9831SOL     OW30391   1.718   5.195   2.833 -0.5115  0.3699 -0.7218
 9831SOL    HW130392   1.744   5.229   2.742  1.1616 -0.1455 -0.4757
 9831SOL    HW230393   1.621   5.211   2.848 -0.6557  1.1762 -2.2903
 9832SOL     OW30394   5.933   3.845   6.900 -0.0231 -0.4771  0.2958
 9832SOL    HW130395   5.960   3.762   6.949 -0.2454 -0.2943  0.7341
 9832SOL    HW230396   5.953   3.925   6.957  1.0547 -0.1531 -0.4869
 9833SOL     OW30397   3.675   3.630   4.297  1.0606 -0.3640 -0.0817
 9833SOL    HW130398   3.675   3.533   4.324  0.2152 -0.0230  1.2416
 9833SOL    HW230399   3.767   3.656   4.270  1.4366 -1.3887  0.1390
 9834SOL     OW30400   2.986   4.789   5.859  0.8333  0.2496 -0.4413
 9834SOL    HW130401   2.897   4.826   5.886  1.0047  2.0380 -2.1389
 9834SOL    HW230402   2.980   4.689   5.855 -2.0565  0.3345 -3.2608
 9835SOL     OW30403   3.913   3.003   3.447 -0.1737 -0.1141  0.0290
 9835SOL    HW130404   3.890   2.999   3.544 -1.0432 -3.8843 -0.1710
 9835SOL    HW230405   3.995   2.949   3.430  0.9774  1.9091 -1.1709
 9836SOL     OW30406   0.614   2.903   5.239 -0.3677  0.1477  0.2721
 9836SOL    HW130407   0.522   2.928   5.269 -0.1694 -0.1641  1.1803
 9836SOL    HW230408   0.618   2.805   5.222 -1.0568  0.5769 -2.9775
 9837SOL     OW30409   6.480   2.223   4.655 -0.2416  0.5827 -0.0976
 9837SOL    HW130410   6.389   2.265   4.659  0.1183  1.4099 -0.5699
 9837SOL    HW230411   6.473   2.128   4.686 -0.9471  1.1466  1.6149
 9838SOL     OW30412   6.881   5.269   2.399  0.1890  0.2246  0.5599
 9838SOL    HW130413   6.950   5.259   2.470  1.2574  2.0462 -0.1516
 9838SOL    HW230414   6.792   5.239   2.434  1.2496 -1.9188  1.5753
 9839SOL     OW30415   2.329   6.250   2.473 -0.3277 -0.3094 -0.6743
 9839SOL    HW130416   2.392   6.315   2.515 -0.0354  1.2305 -3.2419
 9839SOL    HW230417   2.372   6.160   2.467  0.9194  0.2783 -0.7324
 9840SOL     OW30418   6.079   1.922   6.516 -0.6566 -0.6723 -0.1841
 9840SOL    HW130419   6.161   1.958   6.561  0.7650 -1.6936 -1.8247
 9840SOL    HW230420   6.064   1.828   6.544 -0.0880 -1.1294 -1.3427
 9841SOL     OW30421   0.514   6.502   2.450  0.3061  0.0843 -0.1744
 9841SOL    HW130422   0.464   6.433   2.503  1.7481 -0.2681  0.7997
 9841SOL    HW230423   0.514   6.589   2.501  0.6265  0.0998 -0.2012
 9842SOL     OW30424   3.770   0.501   6.824 -0.1726 -0.4203  0.6800
 9842SOL    HW130425   3.749   0.438   6.899 -1.5830  0.7883  1.3554
 9842SOL    HW230426   3.689   0.512   6.766  0.9232 -1.4280 -1.1493
 9843SOL     OW30427   1.874   0.109   1.546  0.3232  0.4253  0.2619
 9843SOL    HW130428   1.948   0.104   1.478 -0.6956  0.6694 -0.9105
 9843SOL    HW230429   1.901   0.061   1.629  1.1029 -1.0227 -0.7919
 9844SOL     OW30430   6.802   0.448   5.368 -0.5392  0.1031  0.0975
 9844SOL    HW130431   6.892   0.460   5.410 -1.4514  0.6544  2.0218
 9844SOL    HW230432   6.812   0.401   5.281  1.8912  2.4901 -1.0664
 9845SOL     OW30433   0.644   3.732   1.378 -0.0511 -0.1732  0.4298
 9845SOL    HW130434   0.700   3.676   1.440 -3.1475 -1.7297  2.0763
 9845SOL    HW230435   0.594   3.800   1.431 -0.1527  0.8152 -0.8943
 9846SOL     OW30436   5.038   2.245   2.127  0.1352 -0.1715  0.0323
 9846SOL    HW130437   4.956   2.233   2.071  0.6109 -0.1404 -0.6747
 9846SOL    HW230438   5.119   2.236   2.070  0.6087  1.2247  0.4420
 9847SOL     OW30439   4.385   4.083   1.183  0.2364  0.9413 -0.0847
 9847SOL    HW130440   4.287   4.068   1.195  0.3253  0.3891 -0.0084
 9847SOL    HW230441   4.409   4.174   1.217 -0.4444  1.5617 -1.2058
 9848SOL     OW30442   3.260   3.919   5.812 -0.5228  0.3603  1.1921
 9848SOL    HW130443   3.221   3.938   5.722  1.7326  1.7846  0.4400
 9848SOL    HW230444   3.278   3.821   5.821  0.8610  0.3981 -0.6729
 9849SOL     OW30445   0.247   3.181   2.834 -0.3042 -1.2987  0.0042
 9849SOL    HW130446   0.303   3.098   2.840  0.6880 -0.7411 -0.9237
 9849SOL    HW230447   0.305   3.261   2.851 -1.0290 -0.7442 -0.0881
 9850SOL     OW30448   6.924   1.492   3.159  0.0961 -0.0975 -0.9353
 9850SOL    HW130449   6.971   1.420   3.108  0.8804  0.9973 -1.8126
 9850SOL    HW230450   6.992   1.555   3.197 -0.5822  0.2744 -0.3207
 9851SOL     OW30451   2.524   6.416   5.822  0.4556  0.3835  0.0482
 9851SOL    HW130452   2.494   6.398   5.728  1.9521 -0.5354 -0.2990
 9851SOL    HW230453   2.520   6.332   5.875  0.9548  0.5733  0.3977
 9852SOL     OW30454   0.762   0.923   5.417  0.0257 -0.5839 -0.5987
 9852SOL    HW130455   0.769   0.826   5.441 -1.1836 -1.2577 -2.7570
 9852SOL    HW230456   0.819   0.976   5.480  0.0010 -2.5594  1.2277
 9853SOL     OW30457   1.168   3.719   3.433  0.3024 -0.2227 -0.2078
 9853SOL    HW130458   1.136   3.722   3.339  0.1442  0.4890 -0.1374
 9853SOL    HW230459   1.254   3.769   3.441  0.2958 -0.2472  0.0321
 9854SOL     OW30460   0.458   3.363   6.565 -0.3261  0.5424 -0.0562
 9854SOL    HW130461   0.518   3.286   6.543  0.4088  0.1265  2.9793
 9854SOL    HW230462   0.362   3.333   6.564  0.0308 -0.9315  2.5861
 9855SOL     OW30463   6.716   6.324   0.280  0.0325 -0.1697  0.9483
 9855SOL    HW130464   6.647   6.267   0.324 -1.1909  0.7695  0.2969
 9855SOL    HW230465   6.757   6.274   0.204 -1.3037 -0.0758  0.1386
 9856SOL     OW30466   5.110   4.918   3.273  0.6759  0.8252  0.0991
 9856SOL    HW130467   5.156   4.864   3.202 -1.6357 -0.8051 -0.2461
 9856SOL    HW230468   5.107   5.014   3.244  1.7369  0.5681 -0.9493
 9857SOL     OW30469   2.863   0.467   6.689 -0.1267 -0.5735  0.0875
 9857SOL    HW130470   2.810   0.518   6.621  0.4189 -2.1179 -1.5538
 9857SOL    HW230471   2.954   0.507   6.697  0.2332 -1.1127 -1.0493
 9858SOL     OW30472   6.853   4.464   2.338  0.8530  0.1807  0.4893
 9858SOL    HW130473   6.903   4.549   2.352 -1.4175  1.4834  1.2200
 9858SOL    HW230474   6.914   4.386   2.354  2.5779  1.6433  1.3918
 9859SOL     OW30475   0.092   6.971   2.977 -0.7803  0.0076  0.3278
 9859SOL    HW130476   0.022   6.916   3.021 -2.9158  0.5914 -2.0867
 9859SOL    HW230477   0.061   6.999   2.886  1.2250  3.0804  0.4075
 9860SOL     OW30478   0.502   4.881   2.394 -0.4139 -0.4539  0.4425
 9860SOL    HW130479   0.540   4.876   2.301  1.3781  1.1992  1.0360
 9860SOL    HW230480   0.405   4.855   2.391 -1.6540  3.4899 -2.6646
 9861SOL     OW30481   4.841   1.092   4.242 -0.1324  0.2257  0.4138
 9861SOL    HW130482   4.892   1.025   4.296  1.1121  1.4403  0.8079
 9861SOL    HW230483   4.781   1.144   4.302  0.4786  0.8717  0.4848
 9862SOL     OW30484   1.305   2.232   6.305  0.3908 -0.9469  0.7816
 9862SOL    HW130485   1.365   2.269   6.234 -1.4005 -2.1264 -1.4647
 9862SOL    HW230486   1.260   2.308   6.352  1.4004 -0.1333  0.4861
 9863SOL     OW30487   4.425   5.609   1.612  0.5391 -0.3160  0.0528
 9863SOL    HW130488   4.325   5.617   1.608  0.5464 -0.1508  0.2283
 9863SOL    HW230489   4.465   5.697   1.635  0.7576 -0.2604 -0.5174
 9864SOL     OW30490   3.874   0.299   4.461 -0.2332 -0.3338  0.0050
 9864SOL    HW130491   3.962   0.331   4.496 -0.4677 -0.7391  1.0083
 9864SOL    HW230492   3.881   0.285   4.362  1.3212 -1.8910  0.2779
 9865SOL     OW30493   1.752   4.637   5.479  0.5595  0.1382  0.5860
 9865SOL    HW130494   1.659   4.659   5.510 -0.3250 -0.3546 -1.5043
 9865SOL    HW230495   1.811   4.622   5.558 -1.2773 -0.0934  1.9900
 9866SOL     OW30496   1.870   3.787   2.992  0.4541 -0.0402  0.4561
 9866SOL    HW130497   1.955   3.734   2.997  1.0885  0.6359 -2.1186
 9866SOL    HW230498   1.892   3.884   2.983 -0.6219  0.2033  0.3705
 9867SOL     OW30499   3.729   1.651   1.698  0.1369  0.6185 -0.2596
 9867SOL    HW130500   3.817   1.684   1.733 -0.4587  0.9355  1.0022
 9867SOL    HW230501   3.661   1.655   1.771 -0.4548 -1.5626 -0.6259
 9868SOL     OW30502   2.354   4.573   2.938 -0.1151 -0.2765  0.5163
 9868SOL    HW130503   2.450   4.578   2.963 -0.0371  3.3454  0.0687
 9868SOL    HW230504   2.297   4.591   3.018 -0.5011 -2.5512  0.8143
 9869SOL     OW30505   4.380   1.804   1.846 -0.3191  0.1458  0.2821
 9869SOL    HW130506   4.432   1.886   1.870 -0.0357 -0.3168  1.3004
 9869SOL    HW230507   4.421   1.761   1.766  0.2644  0.3321  0.4782
 9870SOL     OW30508   4.793   2.046   3.839  0.0711 -0.1051 -0.3162
 9870SOL    HW130509   4.878   2.061   3.789 -1.1420  0.9246 -2.1830
 9870SOL    HW230510   4.725   2.113   3.811 -1.6758 -1.4773  0.4084
 9871SOL     OW30511   6.760   4.056   2.340  0.5039  0.1763 -0.2657
 9871SOL    HW130512   6.683   4.016   2.391  0.7297  1.8371  1.4808
 9871SOL    HW230513   6.725   4.104   2.260 -0.1769  0.1008 -0.0208
 9872SOL     OW30514   6.930   0.951   4.734  0.4990 -0.7020  0.0693
 9872SOL    HW130515   6.892   0.877   4.679 -0.8453 -0.9300  1.2370
 9872SOL    HW230516   6.888   1.038   4.707  0.0862 -0.7673  0.4786
 9873SOL     OW30517   1.015   0.030   2.966  0.8241 -0.1767 -0.2081
 9873SOL    HW130518   0.947   0.096   2.997  0.9276  0.2179 -0.8128
 9873SOL    HW230519   1.012  -0.051   3.026  0.2309  0.0793  0.1214
 9874SOL     OW30520   5.317   2.574   4.103  0.7552  0.6738 -0.3338
 9874SOL    HW130521   5.367   2.495   4.139 -1.3861 -0.7775 -0.3315
 9874SOL    HW230522   5.309   2.567   4.004  0.2588  0.6663 -0.2998
 9875SOL     OW30523   5.580   4.722   2.230  0.1192 -0.2485 -0.5652
 9875SOL    HW130524   5.643   4.645   2.242  0.4563  0.0015 -0.7153
 9875SOL    HW230525   5.631   4.808   2.238 -0.6459  0.0358  2.1748
 9876SOL     OW30526   0.489   0.923   2.846  0.2319 -0.2760  0.2200
 9876SOL    HW130527   0.442   1.000   2.889  0.5746 -0.2680  0.5945
 9876SOL    HW230528   0.563   0.958   2.788  1.0902 -0.3318  1.2306
 9877SOL     OW30529   0.408   5.757   5.971  0.4936 -0.2541 -0.0033
 9877SOL    HW130530   0.444   5.728   5.883 -0.2767  0.6699 -0.6501
 9877SOL    HW230531   0.481   5.800   6.024  1.0039 -0.9814 -0.1020
 9878SOL     OW30532   3.665   0.365   0.026 -0.1386 -0.0094  1.0709
 9878SOL    HW130533   3.584   0.316  -0.008  0.9965 -0.3764 -1.3706
 9878SOL    HW230534   3.637   0.453   0.063 -1.6275  0.1856 -0.3676
 9879SOL     OW30535   0.811   6.458   6.078  0.8016  0.1926  0.0116
 9879SOL    HW130536   0.768   6.514   6.007  0.6746 -0.0496 -0.1035
 9879SOL    HW230537   0.860   6.517   6.142  2.7042  0.2932 -1.4567
 9880SOL     OW30538   2.639   1.448   1.416  0.0367 -0.4467 -0.1122
 9880SOL    HW130539   2.610   1.370   1.471  0.0627 -2.0036 -2.2115
 9880SOL    HW230540   2.738   1.459   1.423 -0.1896  0.8777  1.9598
 9881SOL     OW30541   6.397   0.761   3.092 -0.0677 -0.1414  0.3357
 9881SOL    HW130542   6.390   0.694   3.166  0.3679  0.1031  0.6056
 9881SOL    HW230543   6.308   0.770   3.046 -0.3771 -0.2033  0.9133
 9882SOL     OW30544   3.402   2.895   4.263 -0.0729 -0.2394  0.1808
 9882SOL    HW130545   3.353   2.980   4.243  1.4925  1.1015  1.7212
 9882SOL    HW230546   3.386   2.869   4.358 -1.2320 -2.2273 -0.4879
 9883SOL     OW30547   2.857   5.146   3.277 -0.0129 -0.0534  0.7821
 9883SOL    HW130548   2.826   5.179   3.188 -0.1987  0.0117  0.8699
 9883SOL    HW230549   2.829   5.051   3.289 -0.2689  0.0328  0.8991
 9884SOL     OW30550   2.781   2.216   5.976 -0.8228 -0.1842  0.2513
 9884SOL    HW130551   2.863   2.159   5.975 -0.7939 -0.1544  0.8403
 9884SOL    HW230552   2.733   2.207   5.888 -1.1190 -1.5381  0.5264
 9885SOL     OW30553   3.264   2.038   5.066  0.6121 -0.1709 -0.0654
 9885SOL    HW130554   3.246   2.135   5.047 -1.9188 -0.3527  1.0971
 9885SOL    HW230555   3.297   2.029   5.160  0.8505 -0.4601 -0.1763
 9886SOL     OW30556   2.526   6.958   2.881  0.0857  0.2814  0.4233
 9886SOL    HW130557   2.490   7.042   2.840 -1.7142 -1.1372 -1.1139
 9886SOL    HW230558   2.624   6.951   2.864  0.1086  1.6945 -0.1026
 9887SOL     OW30559   1.193   1.130   6.974 -0.1054 -0.4392 -0.1432
 9887SOL    HW130560   1.259   1.190   6.929 -1.6792  0.7149 -0.9840
 9887SOL    HW230561   1.213   1.035   6.948  1.0359 -0.1028 -0.5996
 9888SOL     OW30562   6.412   0.290   2.647 -0.0430  0.8502  0.0896
 9888SOL    HW130563   6.494   0.295   2.704  2.1376 -0.3108 -2.7022
 9888SOL    HW230564   6.417   0.361   2.577 -0.3083 -0.5802 -1.4130
 9889SOL     OW30565   6.201   5.524   0.203 -0.0751  0.4733 -0.3605
 9889SOL    HW130566   6.132   5.539   0.132  0.9593 -1.9751 -2.0176
 9889SOL    HW230567   6.166   5.460   0.271 -0.4215  1.4281  0.3737
 9890SOL     OW30568   1.038   2.588   1.954  0.7313  0.6678 -0.0063
 9890SOL    HW130569   1.061   2.678   1.917 -0.1624  1.1961  0.6908
 9890SOL    HW230570   0.969   2.545   1.898 -0.2412  1.2472  0.7122
 9891SOL     OW30571   4.532   0.668   1.877 -0.4121 -0.2513  0.2973
 9891SOL    HW130572   4.589   0.601   1.828 -0.8617 -1.4131  1.3022
 9891SOL    HW230573   4.580   0.756   1.880  0.7604 -0.8502 -0.0019
 9892SOL     OW30574   1.791   5.512   1.362  0.2089 -0.3751  0.2556
 9892SOL    HW130575   1.748   5.491   1.450  0.7594  0.1810  0.6649
 9892SOL    HW230576   1.771   5.606   1.336  1.3857 -0.0206  0.5840
 9893SOL     OW30577   5.567   4.355   6.881  0.4609  0.9347 -0.0987
 9893SOL    HW130578   5.585   4.265   6.923 -2.7086  0.2425  0.0650
 9893SOL    HW230579   5.602   4.355   6.788 -1.5168 -1.4639 -0.9640
 9894SOL     OW30580   6.101   4.113   5.545 -0.3091 -0.4228  0.1324
 9894SOL    HW130581   6.049   4.039   5.503 -0.3017 -0.8734  0.8949
 9894SOL    HW230582   6.181   4.133   5.489 -0.2903 -1.0188 -0.0660
 9895SOL     OW30583   7.008   2.697   6.252  0.4559  0.6241 -0.2883
 9895SOL    HW130584   6.953   2.701   6.169  0.5771 -1.7130 -0.5478
 9895SOL    HW230585   7.012   2.788   6.294 -1.6255  1.3357 -1.4989
 9896SOL     OW30586   3.470   2.811   6.891 -0.3485  0.6959  0.2235
 9896SOL    HW130587   3.376   2.846   6.889 -0.1490  1.2591 -2.4504
 9896SOL    HW230588   3.494   2.774   6.802  2.0958  0.8375  0.7514
 9897SOL     OW30589   1.541   6.237   1.707 -0.0932  0.3543 -0.9360
 9897SOL    HW130590   1.469   6.277   1.763 -0.0108  0.1117 -0.6531
 9897SOL    HW230591   1.609   6.193   1.766 -1.0374 -1.6712 -1.2659
 9898SOL     OW30592   2.073   3.728   1.319  0.1880 -0.7602  0.9192
 9898SOL    HW130593   2.131   3.806   1.343  2.9857 -1.9859 -1.3358
 9898SOL    HW230594   1.992   3.761   1.271  1.8937  0.8064 -1.0601
 9899SOL     OW30595   3.729   5.628   0.863  0.0427  0.0411  0.4395
 9899SOL    HW130596   3.820   5.605   0.897 -0.3765 -0.0611  1.5240
 9899SOL    HW230597   3.660   5.595   0.927 -0.7593  0.2233 -0.3120
 9900SOL     OW30598   3.491   4.930   2.960  0.0989 -0.1793 -0.2028
 9900SOL    HW130599   3.455   4.836   2.964 -1.5037  0.4049 -0.1518
 9900SOL    HW230600   3.526   4.956   3.050  0.2903 -0.6324 -0.1455
 9901SOL     OW30601   2.991   0.413   6.004  0.1875  0.5834 -0.1858
 9901SOL    HW130602   2.942   0.328   5.987 -1.3323  1.2688  0.6107
 9901SOL    HW230603   3.088   0.400   5.981 -0.0329 -1.2920 -0.2464
 9902SOL     OW30604   3.874   6.895   6.949  0.3844  0.8571  0.3919
 9902SOL    HW130605   3.849   6.984   6.912  0.2572  0.4169 -0.6227
 9902SOL    HW230606   3.792   6.848   6.982  0.3642  0.8703  0.3603
 9903SOL     OW30607   3.043   3.204   0.066  0.0230  0.2301 -0.1307
 9903SOL    HW130608   3.054   3.232  -0.029  0.0325 -0.2763 -0.2808
 9903SOL    HW230609   2.994   3.117   0.070 -1.3510  0.9876  0.3986
 9904SOL     OW30610   6.492   6.817   2.498 -0.3729 -0.5753  0.1800
 9904SOL    HW130611   6.468   6.888   2.565  0.5581  0.6037 -0.6933
 9904SOL    HW230612   6.416   6.752   2.490 -1.3106  0.3843  0.9137
 9905SOL     OW30613   1.169   0.040   6.793 -0.6125 -0.1273 -0.0045
 9905SOL    HW130614   1.264   0.026   6.818 -1.4067 -0.0348  3.4893
 9905SOL    HW230615   1.147   0.137   6.796 -0.8691 -0.1608 -0.6235
 9906SOL     OW30616   3.154   3.110   6.058 -0.5099 -0.0554  0.4578
 9906SOL    HW130617   3.202   3.103   6.146 -2.1553 -0.5254  1.3653
 9906SOL    HW230618   3.114   3.022   6.035 -3.1337  0.8922  1.0773
 9907SOL     OW30619   0.992   0.199   5.283 -0.1945  0.1389 -0.0762
 9907SOL    HW130620   0.952   0.158   5.365 -1.1815  0.3201 -0.4537
 9907SOL    HW230621   0.986   0.135   5.206  0.1517  0.2116 -0.1702
 9908SOL     OW30622   6.573   2.007   6.545 -0.0700  0.9451  0.1301
 9908SOL    HW130623   6.643   1.939   6.526  0.0848  0.9685  0.6047
 9908SOL    HW230624   6.616   2.096   6.562 -0.3332  1.4995 -1.8496
 9909SOL     OW30625   1.495   6.650   0.896  0.0109  0.1976 -0.3029
 9909SOL    HW130626   1.459   6.561   0.868  0.9013 -0.4010  0.3570
 9909SOL    HW230627   1.420   6.715   0.907 -0.5812 -0.2054 -1.6581
 9910SOL     OW30628   1.964   0.564   0.584  0.4298  0.4281  0.3591
 9910SOL    HW130629   1.902   0.597   0.512  0.0500  0.6337  0.7770
 9910SOL    HW230630   2.059   0.584   0.558  0.4485 -1.0678 -0.9166
 9911SOL     OW30631   3.753   3.894   0.382  0.0337  0.2184  0.0115
 9911SOL    HW130632   3.688   3.956   0.424  0.8507  2.3045 -1.6317
 9911SOL    HW230633   3.846   3.930   0.393  0.6826 -1.3900  0.1022
 9912SOL     OW30634   0.798   5.604   0.354  0.3845 -0.6197  0.6198
 9912SOL    HW130635   0.894   5.579   0.343 -0.1447 -2.4475 -0.3007
 9912SOL    HW230636   0.754   5.541   0.418 -0.3397 -0.1386  0.6107
 9913SOL     OW30637   5.973   0.660   1.792 -0.6783  0.0286 -0.3966
 9913SOL    HW130638   5.885   0.625   1.824 -0.5888  0.1313 -0.0261
 9913SOL    HW230639   6.028   0.688   1.871 -0.2750 -0.1257 -0.6199
 9914SOL     OW30640   2.213   4.028   3.960 -0.3601 -0.1595 -0.0002
 9914SOL    HW130641   2.207   4.006   3.863 -1.7971 -1.6933  0.4018
 9914SOL    HW230642   2.181   3.951   4.015  3.8626 -0.8935  1.8976
 9915SOL     OW30643   6.425   4.376   4.083 -0.2408 -0.3927  0.5991
 9915SOL    HW130644   6.496   4.306   4.092 -1.5674 -1.8137  0.4975
 9915SOL    HW230645   6.429   4.416   3.991  0.8913  0.0889  0.8478
 9916SOL     OW30646   1.084   2.375   1.183 -0.1598 -0.0839 -0.3096
 9916SOL    HW130647   0.993   2.395   1.218  0.2449  0.1849  0.5965
 9916SOL    HW230648   1.117   2.453   1.130 -1.0434 -0.7469 -1.9069
 9917SOL     OW30649   6.460   6.042   3.873 -0.0371 -0.0243 -0.0232
 9917SOL    HW130650   6.406   6.088   3.944 -0.6944 -0.9441  0.0966
 9917SOL    HW230651   6.499   6.110   3.811 -0.1641  0.7415  0.7267
 9918SOL     OW30652   3.105   2.371   5.631  0.5566  0.0216  0.2161
 9918SOL    HW130653   3.157   2.410   5.707 -0.8733 -2.4927  2.6771
 9918SOL    HW230654   3.166   2.317   5.574  1.1730 -0.6624  1.4757
 9919SOL     OW30655   6.260   6.071   1.306 -0.3663  0.3407 -0.2150
 9919SOL    HW130656   6.265   6.057   1.208  1.1661 -0.5277 -0.0476
 9919SOL    HW230657   6.328   6.014   1.352 -0.1677  1.6603  1.2436
 9920SOL     OW30658   2.289   5.700   1.172 -0.3400  0.2056 -0.2830
 9920SOL    HW130659   2.375   5.685   1.122 -0.5603  0.0028 -0.6025
 9920SOL    HW230660   2.291   5.790   1.215  0.1850  0.0560  0.0108
 9921SOL     OW30661   6.728   0.721   2.286  0.6675 -0.1682  0.0482
 9921SOL    HW130662   6.735   0.794   2.354  1.8576 -0.8514  0.6967
 9921SOL    HW230663   6.751   0.758   2.196  1.0563  0.3124  0.3357
 9922SOL     OW30664   4.440   0.940   3.331 -0.1054 -0.2770 -0.3327
 9922SOL    HW130665   4.506   0.865   3.332 -0.8486 -0.9410  0.5983
 9922SOL    HW230666   4.472   1.013   3.393  0.4814  0.0736 -1.0314
 9923SOL     OW30667   5.287   0.743   5.748  0.2436 -0.4382  0.4180
 9923SOL    HW130668   5.329   0.748   5.839 -2.2410 -1.2648  1.7032
 9923SOL    HW230669   5.338   0.802   5.685  1.3256  1.1691  2.6349
 9924SOL     OW30670   1.194   6.648   5.433 -0.1531  0.3125  0.2860
 9924SOL    HW130671   1.211   6.637   5.531 -0.2133  1.7487  0.4767
 9924SOL    HW230672   1.125   6.718   5.419  0.0101  0.2654 -0.7990
 9925SOL     OW30673   3.882   3.488   4.656  0.0994 -0.4552 -0.0030
 9925SOL    HW130674   3.783   3.490   4.645  0.2789  2.0808 -1.9958
 9925SOL    HW230675   3.915   3.394   4.648 -1.8860 -1.0387 -2.4786
 9926SOL     OW30676   1.473   1.717   0.286 -0.0381  0.1097  0.0322
 9926SOL    HW130677   1.414   1.791   0.252  1.2132  0.7252 -0.8728
 9926SOL    HW230678   1.501   1.660   0.209  1.0669  0.2163  0.3443
 9927SOL     OW30679   1.786   5.196   5.943  0.2020 -0.2896  0.1775
 9927SOL    HW130680   1.808   5.287   5.907 -0.9042 -0.6893 -1.6365
 9927SOL    HW230681   1.871   5.148   5.965  0.9541  0.0646 -1.7848
 9928SOL     OW30682   0.532   2.418   3.080 -0.0217  0.2043  0.6192
 9928SOL    HW130683   0.469   2.449   3.151 -0.2594  2.3885 -0.4483
 9928SOL    HW230684   0.625   2.443   3.106  0.0914 -0.5334  0.9319
 9929SOL     OW30685   0.693   4.853   4.039  0.1284  0.1643  0.4022
 9929SOL    HW130686   0.597   4.852   4.065  0.3084 -1.0651  1.1017
 9929SOL    HW230687   0.707   4.916   3.962 -1.4851 -0.8613 -0.7727
 9930SOL     OW30688   0.489   5.540   1.171 -0.0132 -0.7809 -0.0579
 9930SOL    HW130689   0.464   5.444   1.187  1.0861 -1.1065 -0.1809
 9930SOL    HW230690   0.565   5.544   1.107  0.6102  0.1180  0.7104
 9931SOL     OW30691   0.909   3.059   6.447 -0.5766 -0.1765  0.0776
 9931SOL    HW130692   0.999   3.103   6.444 -0.6143 -0.0994  0.0651
 9931SOL    HW230693   0.875   3.046   6.353  0.7339 -2.9432 -0.1154
 9932SOL     OW30694   3.439   2.753   1.251  0.1538  0.2900 -0.4085
 9932SOL    HW130695   3.464   2.683   1.184  1.0680  0.8821 -0.7104
 9932SOL    HW230696   3.383   2.712   1.323  0.9528 -0.8258 -0.3996
 9933SOL     OW30697   1.415   1.182   2.881  0.3863 -0.1632  0.4259
 9933SOL    HW130698   1.491   1.232   2.922  1.6336 -2.7361  1.5189
 9933SOL    HW230699   1.351   1.155   2.953  0.4253 -1.1800  0.0966
 9934SOL     OW30700   5.284   0.129   4.316 -0.6097  0.1723  0.2070
 9934SOL    HW130701   5.330   0.101   4.401  2.2661 -0.8656 -1.5486
 9934SOL    HW230702   5.286   0.228   4.308  1.3957  0.1772  0.2453
 9935SOL     OW30703   3.224   3.639   5.758 -0.0165  0.3080 -0.1581
 9935SOL    HW130704   3.315   3.599   5.748 -0.0129  0.6944 -2.0594
 9935SOL    HW230705   3.168   3.616   5.678 -0.8066  2.0657 -0.1555
 9936SOL     OW30706   4.256   6.289   6.929  0.2717  0.3071  0.5764
 9936SOL    HW130707   4.163   6.272   6.964  0.3239 -0.6297  0.2934
 9936SOL    HW230708   4.321   6.231   6.979  0.4556 -0.4327 -0.4812
 9937SOL     OW30709   0.491   6.172   6.657 -0.1282  0.1099 -0.3542
 9937SOL    HW130710   0.501   6.186   6.755  0.6294  0.3636 -0.4563
 9937SOL    HW230711   0.405   6.126   6.638  0.7693 -2.1137  0.6450
 9938SOL     OW30712   2.189   0.636   3.539 -0.0799 -0.1903 -0.6712
 9938SOL    HW130713   2.260   0.705   3.527 -1.3993  1.3903  0.1887
 9938SOL    HW230714   2.133   0.631   3.457  0.4192 -0.7604 -0.9897
 9939SOL     OW30715   2.649   3.921   6.072 -0.2918  0.0747  0.3831
 9939SOL    HW130716   2.665   4.018   6.092  0.6827  0.1186 -0.5383
 9939SOL    HW230717   2.736   3.877   6.052 -0.9246 -0.5580 -1.0989
 9940SOL     OW30718   5.950   0.065   2.686  0.2485 -0.1138  0.2973
 9940SOL    HW130719   5.864   0.065   2.737  0.9044 -0.2490  1.4300
 9940SOL    HW230720   5.992   0.155   2.692 -0.2343  0.2234 -1.0222
 9941SOL     OW30721   0.945   3.714   2.025 -0.0858 -0.2971  0.2832
 9941SOL    HW130722   0.850   3.723   1.995  0.5550 -0.7218 -2.1088
 9941SOL    HW230723   0.988   3.805   2.028 -0.4267 -0.1545  0.8724
 9942SOL     OW30724   5.992   5.109   3.274 -0.1076  0.1507 -0.1350
 9942SOL    HW130725   5.991   5.161   3.189 -0.1817 -2.0600 -1.5498
 9942SOL    HW230726   6.081   5.064   3.285 -0.7134 -1.0543 -0.0012
 9943SOL     OW30727   1.791   5.102   4.469 -0.6113 -0.1596 -0.6808
 9943SOL    HW130728   1.731   5.041   4.417 -0.0113 -0.5485 -0.9290
 9943SOL    HW230729   1.832   5.050   4.544 -1.5185  0.4087  0.2402
 9944SOL     OW30730   1.701   5.421   6.460 -0.2615  0.0185 -0.2160
 9944SOL    HW130731   1.785   5.365   6.463  0.0443  0.5139  2.1487
 9944SOL    HW230732   1.648   5.405   6.543 -1.1593  1.7724 -0.4267
 9945SOL     OW30733   6.156   3.505   5.220  0.0992 -0.2594 -0.2658
 9945SOL    HW130734   6.191   3.413   5.206  1.1093 -0.4333  2.5723
 9945SOL    HW230735   6.216   3.571   5.174  1.6741 -0.8408  0.8398
 9946SOL     OW30736   5.866   2.365   0.235 -0.5014  0.4288 -0.4076
 9946SOL    HW130737   5.860   2.410   0.146 -0.2103  0.9163 -0.1848
 9946SOL    HW230738   5.877   2.433   0.307 -1.5792  0.0977  0.1009
 9947SOL     OW30739   0.331   0.785   3.374 -0.1835  0.1621  0.6144
 9947SOL    HW130740   0.429   0.801   3.383 -0.1843  0.5236  0.0104
 9947SOL    HW230741   0.281   0.861   3.415 -0.2374 -0.4213  1.7001
 9948SOL     OW30742   4.180   0.346   5.870  0.1390 -0.5338  0.1271
 9948SOL    HW130743   4.257   0.299   5.828 -0.5160 -0.9260 -0.6567
 9948SOL    HW230744   4.204   0.442   5.887  0.4299 -0.3697 -1.1237
 9949SOL     OW30745   5.642   3.052   3.483  0.2421  0.1028  0.4524
 9949SOL    HW130746   5.622   2.996   3.402  0.4955 -1.4189  1.3878
 9949SOL    HW230747   5.641   3.149   3.458  0.9161 -0.3441 -1.5011
 9950SOL     OW30748   5.984   4.538   0.001 -0.4608 -0.0282 -0.2932
 9950SOL    HW130749   5.886   4.517   0.001 -0.7773  1.2898 -1.0448
 9950SOL    HW230750   6.037   4.454  -0.003 -1.5764 -0.7505 -0.1430
 9951SOL     OW30751   0.947   2.675   0.025  0.5581  0.6663  0.0347
 9951SOL    HW130752   0.959   2.703   0.120  1.5419  2.5392 -0.5937
 9951SOL    HW230753   0.888   2.741  -0.021 -2.0317 -1.5626 -0.1018
 9952SOL     OW30754   0.580   6.655   0.804 -0.0467 -0.4564  0.1500
 9952SOL    HW130755   0.558   6.739   0.854  2.9470  0.6786 -0.2280
 9952SOL    HW230756   0.594   6.677   0.708  0.0051 -1.5426 -0.0973
 9953SOL     OW30757   0.085   3.718   5.838 -0.1637 -0.9540  0.4032
 9953SOL    HW130758   0.021   3.646   5.867 -0.5615 -0.5796  0.4612
 9953SOL    HW230759   0.158   3.727   5.905  0.0930 -1.5615  0.2087
 9954SOL     OW30760   5.046   2.679   3.472 -0.2279 -0.0631  0.3661
 9954SOL    HW130761   5.082   2.708   3.383 -1.6966 -0.6263 -0.4329
 9954SOL    HW230762   5.042   2.580   3.475 -1.4523 -0.0158  0.5349
 9955SOL     OW30763   6.030   5.591   2.912 -0.0241 -0.0188  0.3754
 9955SOL    HW130764   5.976   5.650   2.971  1.0059  0.6856  0.6382
 9955SOL    HW230765   5.997   5.598   2.818 -0.7219 -0.0142  0.6208
 9956SOL     OW30766   2.447   4.951   4.048  0.2310 -0.2239 -0.7194
 9956SOL    HW130767   2.397   5.014   4.106  0.9426 -0.2472 -0.0735
 9956SOL    HW230768   2.426   4.857   4.075 -0.4150 -0.2678 -1.3347
 9957SOL     OW30769   3.998   0.014   1.942  0.7282  0.5480  0.1566
 9957SOL    HW130770   4.019  -0.056   1.874  1.0606  0.1073  0.7058
 9957SOL    HW230771   4.056   0.094   1.927  1.4234  0.1090  0.4499
 9958SOL     OW30772   5.865   6.555   5.793 -0.6000  0.9815 -0.2167
 9958SOL    HW130773   5.829   6.512   5.875 -0.1333 -0.1630 -0.5873
 9958SOL    HW230774   5.845   6.498   5.713  2.3696  0.0074 -0.3982
 9959SOL     OW30775   5.535   3.715   6.983 -0.4268  0.3743 -0.0983
 9959SOL    HW130776   5.482   3.637   6.950 -2.6191  1.3739  0.8732
 9959SOL    HW230777   5.534   3.787   6.914 -1.8583  1.0387  0.5663
 9960SOL     OW30778   5.767   0.457   5.357 -0.6835 -0.6259 -0.1314
 9960SOL    HW130779   5.817   0.384   5.312 -0.3794 -0.7229  0.3551
 9960SOL    HW230780   5.672   0.428   5.373 -0.9570 -0.3687 -1.2238
 9961SOL     OW30781   3.541   6.213   1.275 -0.3315 -0.0423  0.4756
 9961SOL    HW130782   3.522   6.309   1.252  2.3355  1.1144  2.4904
 9961SOL    HW230783   3.635   6.191   1.247 -0.6521 -1.8419  0.7382
 9962SOL     OW30784   5.392   0.788   1.964  0.2584  0.3742 -0.3418
 9962SOL    HW130785   5.471   0.797   2.025  0.7716  1.4447 -1.1309
 9962SOL    HW230786   5.318   0.845   1.999  0.5506  0.9839 -0.6917
 9963SOL     OW30787   0.530   4.674   6.135 -0.0507  0.0205 -0.5889
 9963SOL    HW130788   0.542   4.614   6.214 -1.2616 -0.0872 -0.4736
 9963SOL    HW230789   0.530   4.619   6.051 -0.4658 -0.0577 -0.5366
 9964SOL     OW30790   4.899   5.003   6.140 -0.1459 -0.4274 -0.0377
 9964SOL    HW130791   4.855   5.031   6.225  1.7001  0.1947  0.7625
 9964SOL    HW230792   4.859   5.053   6.063 -0.1280  0.9052  0.7949
 9965SOL     OW30793   1.527   6.013   3.222 -0.4812  0.6165 -0.4655
 9965SOL    HW130794   1.510   5.934   3.163 -3.3907  0.3214  0.6117
 9965SOL    HW230795   1.604   6.065   3.186 -0.6765 -0.7866 -3.2034
 9966SOL     OW30796   6.992   2.885   2.522 -0.2165  0.1909  0.4743
 9966SOL    HW130797   7.004   2.984   2.537  1.4496  0.0866  0.0000
 9966SOL    HW230798   7.061   2.835   2.573  0.1694 -0.6272 -0.8133
 9967SOL     OW30799   0.049   6.502   0.598  0.0062 -0.0096  0.2999
 9967SOL    HW130800   0.092   6.431   0.543 -1.6998 -3.1322  2.6493
 9967SOL    HW230801   0.100   6.515   0.683 -1.4571 -0.9411  1.3723
 9968SOL     OW30802   6.036   6.313   6.938 -0.0139  0.9406  0.0092
 9968SOL    HW130803   6.032   6.229   6.991 -1.8866  0.8747 -0.1585
 9968SOL    HW230804   6.081   6.385   6.991  0.1124  0.2826  0.8001
 9969SOL     OW30805   6.611   0.796   2.854  0.5188  0.5883 -0.3707
 9969SOL    HW130806   6.566   0.770   2.940  0.5848  0.6789 -0.3098
 9969SOL    HW230807   6.574   0.883   2.822  1.1976  1.0464  0.0768
 9970SOL     OW30808   4.662   2.317   2.762 -0.0654  0.7305  0.2410
 9970SOL    HW130809   4.752   2.336   2.802 -0.6496  1.8533  1.0793
 9970SOL    HW230810   4.668   2.237   2.703  1.0410 -0.5199  1.9365
 9971SOL     OW30811   0.340   4.633   5.193 -0.0832  0.0673  0.9337
 9971SOL    HW130812   0.415   4.678   5.241  0.1745  1.9017 -1.0334
 9971SOL    HW230813   0.377   4.569   5.126 -0.3743 -0.6511  1.4413
 9972SOL     OW30814   2.517   4.519   5.731  0.1298  0.0019  0.1047
 9972SOL    HW130815   2.472   4.593   5.781  0.3454 -1.3722  2.4583
 9972SOL    HW230816   2.453   4.444   5.718  0.6033 -0.3635 -0.1382
 9973SOL     OW30817   4.487   1.149   3.154 -0.9296 -0.8313 -0.5582
 9973SOL    HW130818   4.482   1.064   3.206  1.3200  0.2546  1.6553
 9973SOL    HW230819   4.424   1.216   3.194  0.2854 -0.2163  0.3819
 9974SOL     OW30820   0.776   4.660   2.783  0.1597 -0.3048  0.0941
 9974SOL    HW130821   0.853   4.606   2.747  1.0514 -0.1386  1.6531
 9974SOL    HW230822   0.802   4.699   2.872 -1.2950  0.8036  0.0629
 9975SOL     OW30823   1.334   6.885   0.951 -0.2928  0.5105  0.1658
 9975SOL    HW130824   1.369   6.941   0.876 -0.5615 -0.3755 -0.6295
 9975SOL    HW230825   1.270   6.939   1.006  1.2794  1.7603  0.8857
 9976SOL     OW30826   4.300   4.679   3.670 -0.1633 -0.2523 -0.8785
 9976SOL    HW130827   4.214   4.701   3.715 -0.0507 -2.0162  0.2812
 9976SOL    HW230828   4.299   4.716   3.577 -1.6066  0.9067 -0.4412
 9977SOL     OW30829   4.329   0.978   5.641 -0.2240  0.2288 -0.0797
 9977SOL    HW130830   4.271   1.042   5.692 -3.6495 -2.9506  0.5355
 9977SOL    HW230831   4.416   0.965   5.689 -0.6297  2.2369  1.3082
 9978SOL     OW30832   0.090   2.707   5.475 -0.2243 -0.0746  0.2109
 9978SOL    HW130833   0.072   2.627   5.532  0.8593  0.2031  0.9897
 9978SOL    HW230834   0.153   2.768   5.524 -0.7166  1.0525 -0.5418
 9979SOL     OW30835   3.428   3.420   3.906 -0.1546 -0.9802  0.3308
 9979SOL    HW130836   3.476   3.507   3.919 -0.2538 -0.6797 -1.2089
 9979SOL    HW230837   3.487   3.356   3.857 -0.9944 -0.8934 -0.8364
 9980SOL     OW30838   1.263   6.379   6.331  0.2655 -0.1634  0.3834
 9980SOL    HW130839   1.211   6.406   6.412  1.4337  0.0351  1.0963
 9980SOL    HW230840   1.352   6.344   6.359  0.8281  0.2342 -0.8304
 9981SOL     OW30841   0.421   1.881   3.254  0.2869 -0.0444 -0.0996
 9981SOL    HW130842   0.510   1.916   3.224  0.7259 -0.9920  0.0514
 9981SOL    HW230843   0.388   1.936   3.331  0.6047  0.4848 -0.3339
 9982SOL     OW30844   2.478   6.852   5.385  1.0117  0.8645  0.0008
 9982SOL    HW130845   2.447   6.777   5.443  0.3902 -0.7978 -2.3308
 9982SOL    HW230846   2.569   6.830   5.348  1.3773  1.8771  0.2633
 9983SOL     OW30847   0.096   4.151   1.427 -0.2722 -0.0892 -0.5100
 9983SOL    HW130848   0.102   4.073   1.489  0.9629 -0.3583 -0.9283
 9983SOL    HW230849   0.022   4.136   1.362 -0.1193 -0.8737 -0.5170
 9984SOL     OW30850   1.947   5.726   0.245  0.1232 -0.2629  0.9583
 9984SOL    HW130851   2.012   5.797   0.218 -1.5446  0.2678 -1.9895
 9984SOL    HW230852   1.869   5.768   0.292 -0.9600 -0.0180 -0.9624
 9985SOL     OW30853   5.599   4.590   6.281 -0.0242  0.7898  0.0679
 9985SOL    HW130854   5.582   4.682   6.316  0.9079  1.6947 -1.7126
 9985SOL    HW230855   5.691   4.560   6.309 -0.0245  0.7316  0.0089
 9986SOL     OW30856   6.300   4.324   0.305  0.3260  0.3497  0.4072
 9986SOL    HW130857   6.373   4.379   0.345  1.8253  0.2275 -1.9403
 9986SOL    HW230858   6.301   4.233   0.346  1.3345  0.4300  0.5924
 9987SOL     OW30859   5.661   3.146   0.037  0.1700 -0.6280 -0.0265
 9987SOL    HW130860   5.709   3.187   0.115 -0.3691 -1.0755  0.5487
 9987SOL    HW230861   5.564   3.167   0.044  0.3329  0.8494 -1.5386
 9988SOL     OW30862   4.536   6.071   5.084 -0.7832 -0.1407 -0.5039
 9988SOL    HW130863   4.520   6.025   5.171 -0.2912 -1.2309 -0.9633
 9988SOL    HW230864   4.450   6.107   5.049 -1.0531 -0.0552  0.2410
 9989SOL     OW30865   6.028   3.612   2.414  0.0228  0.2096  0.2646
 9989SOL    HW130866   6.104   3.548   2.431 -0.6205 -1.5195 -2.7146
 9989SOL    HW230867   6.059   3.685   2.353 -0.6181 -0.3904 -0.8020
 9990SOL     OW30868   1.478   5.795   1.743 -0.3621 -0.5532  0.4058
 9990SOL    HW130869   1.553   5.777   1.679 -0.2358 -0.8967  0.6460
 9990SOL    HW230870   1.516   5.823   1.831 -0.5379  3.2048 -0.5458
 9991SOL     OW30871   3.165   3.481   1.847  0.2149  0.3647  0.1113
 9991SOL    HW130872   3.071   3.460   1.876  0.6637  0.7364  1.9830
 9991SOL    HW230873   3.183   3.439   1.759 -0.5213 -2.9118  1.3804
 9992SOL     OW30874   1.711   5.140   0.689 -0.5506 -0.0901  0.1363
 9992SOL    HW130875   1.768   5.060   0.671  1.7129  1.0937  1.4567
 9992SOL    HW230876   1.687   5.185   0.603 -2.1879 -2.3221 -0.6464
 9993SOL     OW30877   4.047   0.111   5.250 -0.1744  0.2102  0.0491
 9993SOL    HW130878   4.129   0.130   5.303 -0.0124 -1.2807  0.3789
 9993SOL    HW230879   4.023   0.014   5.259 -2.0554  0.6436  0.0898
 9994SOL     OW30880   6.786   4.324   6.363 -0.0348 -0.1658  0.0652
 9994SOL    HW130881   6.795   4.403   6.423 -1.5218 -0.9235  1.3358
 9994SOL    HW230882   6.768   4.356   6.270 -0.5791  0.9945  0.5456
 9995SOL     OW30883   3.753   2.152   6.531  0.0805 -0.6298  0.3168
 9995SOL    HW130884   3.802   2.115   6.610  0.5606  0.6656  0.6685
 9995SOL    HW230885   3.785   2.108   6.448  2.0251  0.2954  0.5181
 9996SOL     OW30886   3.315   3.927   2.209 -0.6142  0.2882  0.6321
 9996SOL    HW130887   3.366   3.984   2.273 -0.1165  0.7858 -0.1939
 9996SOL    HW230888   3.257   3.985   2.152 -0.5612 -0.0887  0.1896
 9997SOL     OW30889   4.751   0.358   3.253  0.0568 -0.5628 -0.2987
 9997SOL    HW130890   4.709   0.288   3.195  0.0928  0.3547 -1.4631
 9997SOL    HW230891   4.717   0.448   3.227 -0.1939 -0.1407  1.3649
 9998SOL     OW30892   4.595   0.799   4.678 -0.4490 -0.4573  0.4148
 9998SOL    HW130893   4.639   0.761   4.759  0.2038 -0.2227  0.1734
 9998SOL    HW230894   4.607   0.737   4.601  1.3967  0.6112 -0.2066
 9999SOL     OW30895   6.138   6.893   3.135  0.6114  0.4220 -0.0295
 9999SOL    HW130896   6.168   6.870   3.227 -1.5424  0.3442  0.7162
 9999SOL    HW230897   6.047   6.935   3.139  0.6015  0.7246 -2.0975
10000SOL     OW30898   4.758   3.562   1.632  0.0559 -0.3970  0.2191
10000SOL    HW130899   4.739   3.627   1.559  1.8647 -2.1634 -1.9411
10000SOL    HW230900   4.708   3.477   1.614  0.5085 -0.8487  1.0452
10001SOL     OW30901   2.534   6.332   0.580  0.4441  0.3296  0.3556
10001SOL    HW130902   2.588   6.329   0.665  1.3208  1.4208 -0.1386
10001SOL    HW230903   2.529   6.426   0.547 -0.3997  0.0011 -0.4930
10002SOL     OW30904   3.029   6.904   2.294 -0.0227  0.0304 -0.0308
10002SOL    HW130905   2.949   6.930   2.346 -0.9249 -1.6353 -0.4983
10002SOL    HW230906   3.097   6.863   2.355 -0.0498  0.2913  0.1770
10003SOL     OW30907   1.671   2.093   3.787 -0.3014  0.0692 -0.9557
10003SOL    HW130908   1.599   2.161   3.772 -0.7698  0.0820  1.0358
10003SOL    HW230909   1.630   2.002   3.790 -0.5589  0.1821  1.5848
10004SOL     OW30910   2.205   4.934   2.780  0.3616  0.3255 -0.5732
10004SOL    HW130911   2.135   4.989   2.735 -0.7997  0.0407  0.8123
10004SOL    HW230912   2.246   4.870   2.715 -1.5542 -0.3724 -1.1352
10005SOL     OW30913   3.565   4.964   1.437 -0.0016  0.1838  0.1986
10005SOL    HW130914   3.629   5.041   1.436 -0.0842  0.2970 -2.2708
10005SOL    HW230915   3.519   4.961   1.526  2.0865  1.1822  1.4046
10006SOL     OW30916   4.980   1.985   0.048  0.5562 -0.6812  0.0949
10006SOL    HW130917   5.012   2.078   0.033 -0.2277 -0.1357  1.5946
10006SOL    HW230918   5.043   1.937   0.110  0.7765 -1.0423 -0.4034
10007SOL     OW30919   1.954   3.900   0.893 -0.4865  0.3011  0.1239
10007SOL    HW130920   1.973   3.994   0.921  0.0056  0.8288 -1.8447
10007SOL    HW230921   2.036   3.859   0.853 -1.4963  0.1450 -1.9196
10008SOL     OW30922   2.900   0.138   5.991  0.0888  0.0037  0.3682
10008SOL    HW130923   2.808   0.111   5.962  0.2869  0.6460 -0.8907
10008SOL    HW230924   2.927   0.081   6.069 -0.5649 -1.5903 -0.5141
10009SOL     OW30925   0.382   4.450   1.382  0.5286 -0.1934 -0.2459
10009SOL    HW130926   0.368   4.445   1.284 -0.0149  1.0024 -0.2456
10009SOL    HW230927   0.473   4.488   1.401 -0.1781  1.6124 -0.3210
10010SOL     OW30928   2.656   5.621   6.088 -0.0424  0.0942 -0.1099
10010SOL    HW130929   2.707   5.681   6.027  0.2713  0.6874  0.7104
10010SOL    HW230930   2.611   5.675   6.159  1.2874 -0.6771  1.4106
10011SOL     OW30931   2.716   2.713   5.832  0.4236 -0.4445  0.1634
10011SOL    HW130932   2.632   2.664   5.810  0.2576  0.4019 -1.2203
10011SOL    HW230933   2.793   2.649   5.827  0.0816 -0.8272 -0.4656
10012SOL     OW30934   5.950   1.869   4.177 -0.0551 -0.2353 -0.0265
10012SOL    HW130935   5.930   1.830   4.087  0.7333  0.7314 -0.6319
10012SOL    HW230936   5.909   1.960   4.184  0.1230 -0.1898  0.4936
10013SOL     OW30937   0.895   6.375   6.870  0.3236 -0.3083 -0.0117
10013SOL    HW130938   0.890   6.303   6.939  0.0008  0.5648  0.9006
10013SOL    HW230939   0.988   6.411   6.866  0.5395 -0.8973 -0.6237
10014SOL     OW30940   1.395   1.309   3.333  0.0707  0.3622  0.4553
10014SOL    HW130941   1.402   1.381   3.264  2.0794 -0.5549 -0.3867
10014SOL    HW230942   1.481   1.257   3.336 -1.5451 -2.5399  0.4402
10015SOL     OW30943   1.701   0.168   6.462 -0.0197 -0.1650  0.0074
10015SOL    HW130944   1.674   0.265   6.457 -0.2348 -0.2112  0.2478
10015SOL    HW230945   1.627   0.112   6.425  0.4658 -0.1901 -0.9822
10016SOL     OW30946   1.874   0.832   0.381 -0.3254 -0.3190 -0.2252
10016SOL    HW130947   1.791   0.818   0.435 -0.7729  1.0917 -0.5026
10016SOL    HW230948   1.920   0.915   0.412  0.8884 -0.9717 -0.2158
10017SOL     OW30949   3.763   0.923   3.937 -0.3662  0.0174  0.3249
10017SOL    HW130950   3.730   0.985   4.009  0.4340  0.1007  0.6374
10017SOL    HW230951   3.716   0.835   3.944  1.7124 -1.0406  2.8840
10018SOL     OW30952   0.098   3.951   4.516 -0.3069 -0.4328  0.4302
10018SOL    HW130953   0.047   3.911   4.593  0.2748 -2.9197 -0.3867
10018SOL    HW230954   0.185   3.987   4.550 -0.2627 -1.0790  1.0516
10019SOL     OW30955   2.086   3.238   2.454  0.2035  0.4434  0.1767
10019SOL    HW130956   2.030   3.238   2.537  1.0594  1.1287  0.7716
10019SOL    HW230957   2.122   3.330   2.438  0.7867  0.1192 -0.4378
10020SOL     OW30958   6.396   0.599   3.341 -0.1621  0.5565  0.3896
10020SOL    HW130959   6.474   0.588   3.402  0.7660 -1.7174 -1.1041
10020SOL    HW230960   6.311   0.598   3.395  0.6956  0.1104  1.7702
10021SOL     OW30961   1.221   3.749   4.133 -0.3168 -0.2814  0.0425
10021SOL    HW130962   1.292   3.729   4.065 -1.2126 -1.1984 -0.6647
10021SOL    HW230963   1.223   3.678   4.203 -1.6260 -1.3048 -0.9105
10022SOL     OW30964   5.986   5.840   5.370 -0.0319 -0.7109 -0.1010
10022SOL    HW130965   5.943   5.757   5.404  1.0251 -0.1728  2.8868
10022SOL    HW230966   6.085   5.826   5.361  0.2604  0.3304  1.0860
10023SOL     OW30967   1.438   0.881   5.916 -0.6525  0.5429 -0.4158
10023SOL    HW130968   1.384   0.805   5.878  0.8430 -1.3415  1.0413
10023SOL    HW230969   1.377   0.947   5.960 -1.8455 -1.3028  0.8170
10024SOL     OW30970   1.050   1.716   2.233 -0.1350  0.1295 -0.5123
10024SOL    HW130971   1.082   1.781   2.164 -0.6672  0.4488 -0.4652
10024SOL    HW230972   0.956   1.689   2.212 -0.3619  0.3578  0.1876
10025SOL     OW30973   6.248   3.196   1.756 -0.5094 -0.4420  0.0211
10025SOL    HW130974   6.341   3.163   1.768  0.2360  1.9264  1.6077
10025SOL    HW230975   6.198   3.186   1.842 -1.6253 -1.3117 -0.6979
10026SOL     OW30976   5.590   2.977   5.590  0.0317  0.7135 -0.2051
10026SOL    HW130977   5.631   3.051   5.645 -0.6300  1.4454 -0.6770
10026SOL    HW230978   5.601   2.998   5.493 -1.0776  0.7063 -0.3379
10027SOL     OW30979   3.046   2.435   5.378 -0.1551 -0.1197  0.4497
10027SOL    HW130980   3.126   2.442   5.319 -0.0338  2.6792  0.8263
10027SOL    HW230981   3.074   2.399   5.468  0.6214  0.5270  0.4737
10028SOL     OW30982   4.657   6.082   2.606 -0.2065  0.1084  0.3752
10028SOL    HW130983   4.594   6.004   2.600 -0.7231  0.5259  0.2902
10028SOL    HW230984   4.661   6.113   2.701  1.6353 -1.3327  0.8381
10029SOL     OW30985   4.827   4.360   4.323  0.1829 -0.0945 -0.1321
10029SOL    HW130986   4.748   4.317   4.278 -0.0671  0.3526 -0.1263
10029SOL    HW230987   4.911   4.332   4.277 -0.1979  2.3376 -2.5427
10030SOL     OW30988   1.241   5.780   5.463  0.9515  0.0456  0.2592
10030SOL    HW130989   1.184   5.853   5.425  1.8327 -0.5078 -2.2719
10030SOL    HW230990   1.329   5.818   5.492  0.2102  0.5007  2.1093
10031SOL     OW30991   6.586   0.088   6.153  0.2194  0.1728 -0.7030
10031SOL    HW130992   6.551   0.176   6.184 -0.7694 -0.5847  0.4187
10031SOL    HW230993   6.511   0.030   6.122  0.9266 -0.0565 -2.0823
10032SOL     OW30994   0.674   6.188   3.990  0.1037  0.5558  0.0073
10032SOL    HW130995   0.725   6.104   3.972 -3.1629 -1.2293 -2.0131
10032SOL    HW230996   0.717   6.265   3.942  0.8274 -0.8660 -1.7059
10033SOL     OW30997   6.809   0.159   5.385  0.5142  0.1474  0.1911
10033SOL    HW130998   6.901   0.122   5.395  0.8627  0.2716 -2.0491
10033SOL    HW230999   6.806   0.252   5.423  1.4090  0.2848 -0.0548
10034SOL     OW31000   1.853   0.995   3.380 -0.1360  0.3784 -0.4044
10034SOL    HW131001   1.813   0.968   3.467  0.2355  1.2902  0.0600
10034SOL    HW231002   1.943   1.035   3.396 -0.1580  0.7506 -1.1898
10035SOL     OW31003   0.823   2.421   1.275  0.0661 -0.1403  0.7002
10035SOL    HW131004   0.816   2.518   1.256 -0.6423 -0.4417 -0.7116
10035SOL    HW231005   0.775   2.369   1.204  0.4553 -1.5219  1.4006
10036SOL     OW31006   1.038   0.535   0.362 -0.9440  0.8216 -0.2277
10036SOL    HW131007   1.046   0.624   0.405 -2.4108  0.6470  0.4800
10036SOL    HW231008   0.943   0.503   0.370 -0.2144 -1.3230  0.6228
10037SOL     OW31009   5.744   0.478   6.115 -0.1735 -0.0092 -0.0733
10037SOL    HW131010   5.766   0.569   6.150 -1.9225 -0.0464  1.2741
10037SOL    HW231011   5.821   0.416   6.132 -0.0873  0.5356  1.7071
10038SOL     OW31012   2.516   0.101   5.391 -0.7552 -0.2360 -0.9165
10038SOL    HW131013   2.611   0.125   5.370 -0.0992 -0.1809  1.7740
10038SOL    HW231014   2.507   0.002   5.396  0.0879 -0.2629  2.1463
10039SOL     OW31015   0.701   4.215   0.903  0.3836 -0.0648  0.2989
10039SOL    HW131016   0.754   4.283   0.852  0.6513 -0.7285 -0.3240
10039SOL    HW231017   0.684   4.249   0.996 -1.3740  1.8229 -0.6305
10040SOL     OW31018   3.204   6.910   0.094 -0.2380  0.2308  0.3426
10040SOL    HW131019   3.115   6.918   0.049 -0.0103  1.4316  0.0779
10040SOL    HW231020   3.195   6.936   0.191 -0.0455  1.0223  0.1513
10041SOL     OW31021   7.007   4.314   5.129  0.3174 -0.5392 -0.2587
10041SOL    HW131022   6.974   4.249   5.198 -1.1435 -0.1960 -0.6023
10041SOL    HW231023   6.944   4.314   5.051  2.2861 -1.4232 -1.9246
10042SOL     OW31024   6.456   0.561   5.769  0.4134  0.8935  0.1810
10042SOL    HW131025   6.534   0.601   5.817  0.4063  1.1071  0.0186
10042SOL    HW231026   6.459   0.462   5.778 -0.5260  0.9942  2.0784
10043SOL     OW31027   5.879   5.789   3.911 -0.3379 -1.0105 -0.3659
10043SOL    HW131028   5.907   5.883   3.930 -1.4662 -0.3835 -1.6337
10043SOL    HW231029   5.878   5.737   3.996 -1.2369  0.5570  0.6385
10044SOL     OW31030   2.166   0.782   5.078  0.7171  0.0364 -0.3512
10044SOL    HW131031   2.199   0.695   5.042  0.4957 -0.8417  1.4238
10044SOL    HW231032   2.118   0.833   5.007  2.2375 -0.5455 -1.8594
10045SOL     OW31033   4.306   1.327   5.260  0.2925 -0.1662 -0.0404
10045SOL    HW131034   4.272   1.252   5.317 -0.1892 -0.5778 -0.8547
10045SOL    HW231035   4.406   1.322   5.254  0.3560 -0.0901  0.7915
10046SOL     OW31036   0.970   1.600   6.638 -0.2750 -0.1358 -0.4227
10046SOL    HW131037   1.037   1.662   6.598 -1.1829  0.3915 -1.1781
10046SOL    HW231038   0.908   1.652   6.698  0.9959 -0.8977  1.6255
10047SOL     OW31039   2.196   1.060   1.548  0.5313  0.4516 -0.2101
10047SOL    HW131040   2.120   1.106   1.593  1.1759  2.2536 -0.8592
10047SOL    HW231041   2.280   1.113   1.562  1.5237 -1.0316 -0.2344
10048SOL     OW31042   3.561   3.291   1.362 -0.2228  0.3183 -0.1883
10048SOL    HW131043   3.654   3.312   1.392 -0.2534  0.3113 -0.0905
10048SOL    HW231044   3.521   3.372   1.319 -0.0015  0.1834 -0.6567
10049SOL     OW31045   1.719   4.438   5.213  0.0301  0.4763 -0.0914
10049SOL    HW131046   1.741   4.514   5.274  2.0341  0.7541 -1.0416
10049SOL    HW231047   1.683   4.474   5.127  1.2055  0.4255 -0.6340
10050SOL     OW31048   6.348   0.268   3.397 -0.3887 -0.1133  0.2257
10050SOL    HW131049   6.355   0.293   3.300 -1.0470  1.6406  0.5832
10050SOL    HW231050   6.440   0.259   3.435 -0.0676 -2.5571 -0.9094
10051SOL     OW31051   4.601   0.841   1.648  0.3545  0.1553  0.5673
10051SOL    HW131052   4.507   0.875   1.648  0.3578  0.1597  0.9955
10051SOL    HW231053   4.642   0.854   1.738  0.9646  0.6962  0.2191
10052SOL     OW31054   3.612   6.038   6.985  0.0735  0.0230 -0.1204
10052SOL    HW131055   3.630   5.999   7.076 -1.1112  0.5107  0.3419
10052SOL    HW231056   3.596   5.963   6.920 -1.9524 -0.3340  0.7112
10053SOL     OW31057   1.803   4.282   0.640 -0.3291  0.2599  0.0706
10053SOL    HW131058   1.879   4.217   0.651  0.5116  1.0010 -1.1551
10053SOL    HW231059   1.828   4.370   0.681  0.1321  0.9774 -1.6572
10054SOL     OW31060   4.785   4.049   4.237 -0.6924  0.6162  0.3381
10054SOL    HW131061   4.804   4.027   4.333 -0.2820 -0.8668 -0.0491
10054SOL    HW231062   4.686   4.048   4.221 -0.7146 -0.5509  0.4587
10055SOL     OW31063   0.418   2.170   1.074  0.1722 -0.1111 -0.2950
10055SOL    HW131064   0.361   2.233   1.126 -1.6905 -1.0025 -1.1806
10055SOL    HW231065   0.404   2.077   1.108 -0.0284 -0.5266 -1.4904
10056SOL     OW31066   5.103   3.073   3.681  0.2386  0.0424  0.2831
10056SOL    HW131067   5.094   2.973   3.681 -1.2707  0.1478 -0.4040
10056SOL    HW231068   5.013   3.114   3.695  0.8955  1.3132  0.8656
10057SOL     OW31069   3.340   1.568   2.923 -0.3381 -0.3852 -0.7345
10057SOL    HW131070   3.258   1.623   2.907 -1.4733 -2.1731 -1.3049
10057SOL    HW231071   3.321   1.472   2.902  1.2525 -1.2089  1.2611
10058SOL     OW31072   1.963   4.618   1.763 -0.1503  0.0128 -0.3016
10058SOL    HW131073   2.022   4.549   1.720 -1.0639 -1.1765  0.3057
10058SOL    HW231074   1.956   4.599   1.861 -2.3290 -0.4782 -0.5110
10059SOL     OW31075   4.932   1.252   1.110 -0.2227  0.2377  0.4183
10059SOL    HW131076   4.875   1.206   1.043  0.9902 -0.9518  0.1843
10059SOL    HW231077   4.983   1.326   1.066 -0.9756  0.8192  0.4830
10060SOL     OW31078   3.356   1.285   2.902  0.0981 -0.4985  0.7086
10060SOL    HW131079   3.422   1.210   2.894  0.8105  0.0758  1.0789
10060SOL    HW231080   3.290   1.264   2.973  1.6467  0.1733  2.4513
10061SOL     OW31081   0.270   0.541   5.285 -0.2120 -0.3005  0.8898
10061SOL    HW131082   0.345   0.601   5.311  0.7536 -1.6328  1.2605
10061SOL    HW231083   0.278   0.516   5.189 -0.1182 -0.5179  0.9525
10062SOL     OW31084   0.196   5.742   0.982 -0.2663  0.1218  0.5580
10062SOL    HW131085   0.126   5.725   1.052 -2.0366  0.7240 -0.9887
10062SOL    HW231086   0.201   5.664   0.921  0.4443  0.0770  0.6712
10063SOL     OW31087   0.934   3.466   0.450 -0.1740 -0.5747  0.2530
10063SOL    HW131088   0.976   3.505   0.369  0.0065 -1.2959 -0.0141
10063SOL    HW231089   0.926   3.536   0.521 -2.0189  0.5663 -0.9900
10064SOL     OW31090   4.441   3.567   5.970  0.1154 -0.3515  0.3075
10064SOL    HW131091   4.460   3.499   5.899 -1.3063 -0.1956 -0.2467
10064SOL    HW231092   4.467   3.530   6.059 -1.7449 -2.1357  0.1738
10065SOL     OW31093   0.186   0.203   2.093 -0.6888 -0.0445  0.3904
10065SOL    HW131094   0.214   0.160   2.179 -2.8137 -1.9695  0.2479
10065SOL    HW231095   0.167   0.131   2.026 -4.5476  1.0025  0.1444
10066SOL     OW31096   4.676   1.151   1.907  0.1519  0.1994  0.3270
10066SOL    HW131097   4.743   1.146   1.834 -1.1090 -2.7932 -0.7779
10066SOL    HW231098   4.692   1.233   1.962  2.7505  1.1647 -1.6926
10067SOL     OW31099   3.196   6.571   2.938  0.0162 -0.4837 -0.2773
10067SOL    HW131100   3.226   6.622   3.019  0.6326  0.4176 -1.0459
10067SOL    HW231101   3.209   6.473   2.953  2.9682 -0.1915 -0.3518
10068SOL     OW31102   5.361   1.218   5.275  0.2428 -0.0617 -0.2690
10068SOL    HW131103   5.281   1.160   5.263  0.1753  0.1502 -0.8651
10068SOL    HW231104   5.332   1.313   5.286  0.3864 -0.0565  0.0984
10069SOL     OW31105   5.417   2.051   3.843  0.1189  0.2457 -0.4531
10069SOL    HW131106   5.320   2.066   3.827 -0.6314 -2.2709  1.2490
10069SOL    HW231107   5.450   2.118   3.910 -1.0051 -0.1866  0.5725
10070SOL     OW31108   6.604   6.188   3.326  0.2087 -0.1978  0.2447
10070SOL    HW131109   6.523   6.173   3.269  0.8163  1.8521 -1.3210
10070SOL    HW231110   6.594   6.274   3.377  1.9465  0.9775 -1.2291
10071SOL     OW31111   4.570   4.491   4.554 -0.2371  0.6390 -0.3105
10071SOL    HW131112   4.555   4.396   4.526  1.4946  0.8511 -2.1650
10071SOL    HW231113   4.548   4.500   4.651  0.5671 -1.9280  0.2000
10072SOL     OW31114   6.369   6.416   4.400  0.2842  0.5426 -0.3234
10072SOL    HW131115   6.404   6.509   4.391  0.4245  0.4436 -0.8055
10072SOL    HW231116   6.384   6.384   4.494  0.7444  0.7982 -0.3072
10073SOL     OW31117   4.921   6.849   0.721 -0.0790 -0.1148 -0.2310
10073SOL    HW131118   4.889   6.868   0.628  0.0934 -2.1213 -0.7645
10073SOL    HW231119   4.849   6.869   0.787  0.0432  2.0249 -0.6926
10074SOL     OW31120   0.019   0.031   5.538 -0.7164 -0.3952  0.3361
10074SOL    HW131121   0.025   0.062   5.633 -1.8167 -1.9103  0.9423
10074SOL    HW231122   0.102  -0.020   5.515 -0.7964 -0.7201  0.7511
10075SOL     OW31123   0.629   2.435   4.182 -0.5078 -0.8076  0.4293
10075SOL    HW131124   0.635   2.436   4.082 -2.3652 -2.2505  0.2561
10075SOL    HW231125   0.690   2.364   4.217  0.9743  0.4226  0.4420
10076SOL     OW31126   5.461   1.346   3.169 -0.0782 -0.5839  0.1237
10076SOL    HW131127   5.512   1.296   3.099  0.2764  0.0025 -0.0421
10076SOL    HW231128   5.390   1.287   3.207 -0.9302 -0.5870 -1.4364
10077SOL     OW31129   1.524   0.597   3.771 -0.2877 -0.5966 -0.5832
10077SOL    HW131130   1.521   0.583   3.672 -1.4543 -1.3886 -0.4639
10077SOL    HW231131   1.467   0.528   3.816 -1.8161  1.2473  0.4709
10078SOL     OW31132   5.060   6.270   6.017 -0.0432  0.0654  0.4082
10078SOL    HW131133   4.989   6.308   5.958  0.3918  0.5161  0.1774
10078SOL    HW231134   5.069   6.172   5.999 -1.1715 -0.1652  1.0135
10079SOL     OW31135   0.873   2.702   6.438 -0.0029 -0.2761  0.5746
10079SOL    HW131136   0.895   2.764   6.363 -0.4674 -0.8428 -0.0419
10079SOL    HW231137   0.910   2.739   6.523 -1.0804  1.3414  0.3965
10080SOL     OW31138   1.181   2.844   5.131 -0.1574  0.5291  0.3103
10080SOL    HW131139   1.266   2.806   5.095 -0.4305  0.9085 -0.7867
10080SOL    HW231140   1.134   2.776   5.187  0.7002  0.2058  0.6413
10081SOL     OW31141   0.553   0.971   0.245  0.4481  0.2136 -0.2277
10081SOL    HW131142   0.623   0.925   0.300  0.5315 -1.7782 -1.8845
10081SOL    HW231143   0.489   0.903   0.210 -2.1681  1.9248  0.9234
10082SOL     OW31144   0.556   3.245   5.662  0.2793  0.0297  0.4305
10082SOL    HW131145   0.546   3.175   5.733 -0.5508  0.5163  0.8047
10082SOL    HW231146   0.466   3.271   5.628  0.7052 -1.2304 -1.8649
10083SOL     OW31147   4.949   0.590   4.172 -0.2586 -0.0177  0.1018
10083SOL    HW131148   4.861   0.572   4.215 -0.1844  1.3256  0.8651
10083SOL    HW231149   5.021   0.595   4.241  0.2555 -0.1169 -0.4098
10084SOL     OW31150   2.330   6.810   5.913 -0.3264 -0.7417  0.8414
10084SOL    HW131151   2.401   6.745   5.940 -0.5468 -0.2805  2.6511
10084SOL    HW231152   2.250   6.760   5.879  0.2516 -1.3199  0.3075
10085SOL     OW31153   3.762   6.891   1.626 -0.3225  0.3690  0.2698
10085SOL    HW131154   3.693   6.826   1.593  0.9617 -0.8709 -0.1061
10085SOL    HW231155   3.746   6.980   1.585 -0.4245 -0.4520 -1.5864
10086SOL     OW31156   6.163   3.968   2.655 -0.2795 -0.2811  0.3258
10086SOL    HW131157   6.069   3.999   2.672 -0.2439 -1.1991  2.4824
10086SOL    HW231158   6.212   3.959   2.741  1.4206 -1.0424 -0.6600
10087SOL     OW31159   0.837   6.863   3.377 -0.2454 -0.2698 -0.2759
10087SOL    HW131160   0.876   6.832   3.464  1.1483  1.6934 -0.1337
10087SOL    HW231161   0.737   6.867   3.385 -0.0917  1.0955  1.7172
10088SOL     OW31162   5.463   6.454   2.961 -0.2098  0.2371  0.1171
10088SOL    HW131163   5.475   6.551   2.984 -1.1520  0.1804  0.9038
10088SOL    HW231164   5.423   6.448   2.869 -0.1787  0.6016  0.0753
10089SOL     OW31165   1.230   2.366   1.394 -0.2725 -0.2239  0.3876
10089SOL    HW131166   1.175   2.408   1.467 -0.1688  0.6169 -0.0021
10089SOL    HW231167   1.182   2.376   1.307 -1.2013 -2.7337  0.5504
10090SOL     OW31168   1.127   6.253   1.720 -0.1922  0.5159 -0.0066
10090SOL    HW131169   1.095   6.199   1.799  0.0723 -0.9480 -0.8589
10090SOL    HW231170   1.103   6.205   1.636  2.7492  0.1516 -0.7485
10091SOL     OW31171   1.273   0.789   4.355 -0.5797 -0.5426 -0.3963
10091SOL    HW131172   1.372   0.793   4.338 -0.4259 -1.5703  0.1233
10091SOL    HW231173   1.245   0.693   4.361 -1.6318 -0.2585 -0.6260
10092SOL     OW31174   2.682   2.238   5.640  0.7562  0.1437 -0.4791
10092SOL    HW131175   2.731   2.197   5.563 -0.3952 -0.0116 -1.1462
10092SOL    HW231176   2.733   2.317   5.674  1.7642 -0.3657 -0.7589
10093SOL     OW31177   6.423   1.724   6.720 -0.7858 -0.4546  0.0584
10093SOL    HW131178   6.429   1.823   6.707 -0.1235 -0.4856  0.1040
10093SOL    HW231179   6.505   1.691   6.766 -1.2553 -0.9486  0.5719
10094SOL     OW31180   0.646   1.488   0.374  0.9032 -0.1356 -0.5123
10094SOL    HW131181   0.746   1.481   0.365  0.8731  0.3667 -1.2105
10094SOL    HW231182   0.602   1.430   0.305  0.7060  1.0355 -1.3943
10095SOL     OW31183   1.499   3.063   5.099 -0.2100 -0.0995 -0.5078
10095SOL    HW131184   1.511   2.964   5.094  0.9523  0.0597 -1.1436
10095SOL    HW231185   1.548   3.107   5.024  2.8445  1.2172  2.0406
10096SOL     OW31186   6.777   5.348   3.184  0.0799 -0.1180 -0.1656
10096SOL    HW131187   6.678   5.343   3.190  0.1530 -1.1478  0.3407
10096SOL    HW231188   6.814   5.391   3.266  0.0926 -0.3191 -0.0654
10097SOL     OW31189   1.738   2.253   4.070 -0.4247  0.1774 -0.0421
10097SOL    HW131190   1.730   2.308   3.987 -1.1570  0.3899  0.1618
10097SOL    HW231191   1.654   2.201   4.084 -0.3875  0.2973  0.6721
10098SOL     OW31192   3.217   0.541   0.480 -0.3126  0.4319  0.3367
10098SOL    HW131193   3.228   0.629   0.525 -0.0132  0.6517 -0.1683
10098SOL    HW231194   3.214   0.554   0.381  2.2370 -0.3414  0.0817
10099SOL     OW31195   0.907   2.562   3.787 -0.5380 -0.1304 -0.0196
10099SOL    HW131196   0.926   2.654   3.823 -0.8052  0.1268 -0.5122
10099SOL    HW231197   0.823   2.527   3.829 -0.9920  0.2769 -0.5754
10100SOL     OW31198   5.551   2.062   6.244 -0.2380 -0.2404 -0.0333
10100SOL    HW131199   5.599   1.975   6.244 -1.7991 -1.1370 -0.3297
10100SOL    HW231200   5.552   2.102   6.153  0.4643  0.0559  0.0998
10101SOL     OW31201   0.289   3.097   3.597  0.0288 -0.2964 -0.1371
10101SOL    HW131202   0.207   3.100   3.655  1.2322 -0.4896  1.6442
10101SOL    HW231203   0.358   3.158   3.634  0.9227 -0.5896 -1.2821
10102SOL     OW31204   5.661   6.707   3.340 -0.6132  0.5455 -1.0872
10102SOL    HW131205   5.584   6.667   3.290 -0.5898  0.0980 -0.7680
10102SOL    HW231206   5.657   6.678   3.436 -0.7912  1.5830 -0.7665
10103SOL     OW31207   0.280   3.756   0.391 -0.2087  0.0513 -0.4711
10103SOL    HW131208   0.374   3.751   0.425  0.4009  1.3248 -1.8598
10103SOL    HW231209   0.273   3.828   0.323 -2.2023 -0.0682 -0.4548
10104SOL     OW31210   0.328   6.420   6.017  0.1888  0.2857  0.1480
10104SOL    HW131211   0.257   6.409   6.086 -1.0852  2.4221 -0.7294
10104SOL    HW231212   0.410   6.369   6.045 -1.1932 -1.1443  1.8356
10105SOL     OW31213   4.843   0.491   1.183  0.1538 -0.5815  0.7427
10105SOL    HW131214   4.827   0.512   1.279  0.7194  2.1837  0.3118
10105SOL    HW231215   4.929   0.533   1.154  0.7797 -2.6899 -0.6121
10106SOL     OW31216   5.777   5.734   0.679  0.0477  0.2147  0.0162
10106SOL    HW131217   5.827   5.728   0.593  1.4816  1.3044  0.7208
10106SOL    HW231218   5.802   5.819   0.726 -0.8590 -0.2556  1.4193
10107SOL     OW31219   4.677   1.206   0.204 -0.6716 -0.2418  0.3968
10107SOL    HW131220   4.757   1.211   0.143 -1.6894 -0.6943 -1.0386
10107SOL    HW231221   4.705   1.229   0.297  1.0366  0.0647 -0.1447
10108SOL     OW31222   5.066   5.269   1.344  0.1094  0.5181  0.3765
10108SOL    HW131223   5.153   5.253   1.391 -0.5349 -1.6013  0.9886
10108SOL    HW231224   4.991   5.253   1.408 -0.7549 -0.4476 -0.8273
10109SOL     OW31225   3.323   5.784   2.191 -0.0955 -0.2877 -0.5122
10109SOL    HW131226   3.357   5.724   2.119 -1.1582  1.4561 -2.5723
10109SOL    HW231227   3.395   5.849   2.217  0.7620 -1.7837  1.1050
10110SOL     OW31228   4.320   3.800   5.863 -0.2649 -0.4757 -0.0613
10110SOL    HW131229   4.260   3.780   5.785 -0.5444  1.4571 -0.3848
10110SOL    HW231230   4.404   3.746   5.855 -1.5506 -2.5849 -0.0494
10111SOL     OW31231   6.728   1.916   2.474  0.6836 -0.0730 -0.2421
10111SOL    HW131232   6.628   1.915   2.467  0.7139 -0.0094 -0.7314
10111SOL    HW231233   6.758   1.836   2.526  0.3986 -0.3417 -0.4775
10112SOL     OW31234   4.260   4.758   5.077 -0.0355 -0.2430 -0.0421
10112SOL    HW131235   4.275   4.661   5.059  0.3554 -0.0588 -0.7173
10112SOL    HW231236   4.237   4.804   4.992 -0.7234  0.1688  0.3590
10113SOL     OW31237   2.785   0.960   6.846 -0.0318  0.5970  0.4461
10113SOL    HW131238   2.772   0.894   6.772 -0.0576  0.3654  0.6567
10113SOL    HW231239   2.696   0.985   6.884 -0.0194 -4.2607  4.8044
10114SOL     OW31240   3.418   0.973   0.578 -0.8639  0.1332  0.2925
10114SOL    HW131241   3.358   0.893   0.572 -1.1879  0.4227 -0.3571
10114SOL    HW231242   3.366   1.052   0.611 -0.6845  0.2231  0.3645
10115SOL     OW31243   6.403   0.558   6.093 -0.0679  0.1982  0.4057
10115SOL    HW131244   6.372   0.637   6.040 -1.5661 -0.0063  0.9295
10115SOL    HW231245   6.460   0.589   6.169  0.0085  0.6975  0.1478
10116SOL     OW31246   0.262   1.891   0.888  0.7191  0.3027 -0.1465
10116SOL    HW131247   0.204   1.922   0.964  0.0859 -0.2228 -0.4132
10116SOL    HW231248   0.321   1.817   0.920  0.4676  0.0956 -0.1594
10117SOL     OW31249   5.469   6.652   0.432 -0.0797 -0.5675 -0.4019
10117SOL    HW131250   5.442   6.556   0.444  0.8296 -0.6227  1.6005
10117SOL    HW231251   5.561   6.656   0.393 -0.1411 -0.4935 -0.5415
10118SOL     OW31252   5.025   4.552   3.538 -0.0926 -0.0331 -0.0872
10118SOL    HW131253   4.929   4.582   3.541  0.2731  1.2644 -0.7352
10118SOL    HW231254   5.085   4.632   3.536  1.1255 -0.8102  2.2558
10119SOL     OW31255   2.588   1.774   6.715  0.1136  0.3113 -0.7067
10119SOL    HW131256   2.529   1.829   6.656  0.1018  0.3017 -0.7037
10119SOL    HW231257   2.534   1.736   6.790  0.6395  2.7450  1.0428
10120SOL     OW31258   6.213   2.248   3.638 -0.2581 -0.1579  0.1168
10120SOL    HW131259   6.283   2.188   3.677 -0.6239  0.6150  2.0806
10120SOL    HW231260   6.252   2.339   3.622 -1.0256  0.6319  2.3521
10121SOL     OW31261   4.869   6.702   5.410  0.1401 -0.7194  0.2024
10121SOL    HW131262   4.925   6.619   5.401  1.6977  0.5245 -3.9596
10121SOL    HW231263   4.863   6.748   5.322 -2.3810  2.6084  1.8715
10122SOL     OW31264   6.383   2.780   5.819  1.1274  0.9007  0.0921
10122SOL    HW131265   6.299   2.766   5.872  0.9898  0.8765 -0.1311
10122SOL    HW231266   6.388   2.876   5.790  0.0755  0.4579 -1.7344
10123SOL     OW31267   0.759   6.066   0.500  0.4803 -0.1523  0.2058
10123SOL    HW131268   0.749   6.089   0.597 -0.1043  0.8076 -0.0749
10123SOL    HW231269   0.673   6.029   0.466  1.1160 -1.9018  0.4026
10124SOL     OW31270   3.504   3.626   6.099  0.1244  0.2455 -0.0600
10124SOL    HW131271   3.455   3.701   6.142 -1.3872 -0.9044  0.3034
10124SOL    HW231272   3.465   3.539   6.129  1.9306 -0.7139 -0.3406
10125SOL     OW31273   1.563   1.515   0.091  0.4576 -0.1841  0.3578
10125SOL    HW131274   1.590   1.475   0.004 -4.2504  0.8566 -1.9079
10125SOL    HW231275   1.550   1.442   0.158  0.0657 -1.5742 -1.1565
10126SOL     OW31276   6.912   2.967   5.547 -0.0982  0.1063  0.2213
10126SOL    HW131277   7.000   2.944   5.506 -0.2074 -0.1609  0.1340
10126SOL    HW231278   6.879   2.889   5.601 -0.6000 -0.0474 -0.2992
10127SOL     OW31279   5.246   3.054   5.399  0.0204  0.0502 -0.6480
10127SOL    HW131280   5.269   3.145   5.434 -1.0899 -0.5879  1.9809
10127SOL    HW231281   5.287   2.984   5.457 -0.2069 -1.1414 -1.8701
10128SOL     OW31282   0.489   1.089   6.642  0.4669 -0.3242  1.4321
10128SOL    HW131283   0.561   1.075   6.573 -1.0538 -1.4189 -0.0211
10128SOL    HW231284   0.436   1.005   6.651 -2.5734  1.3234  0.1397
10129SOL     OW31285   4.839   3.179   3.709  0.3443 -0.1328 -0.4925
10129SOL    HW131286   4.861   3.238   3.631 -0.1227 -1.3760 -1.6031
10129SOL    HW231287   4.823   3.235   3.790  1.4384  1.1577 -1.1289
10130SOL     OW31288   4.607   3.770   0.884  0.1863  0.2106  0.4000
10130SOL    HW131289   4.593   3.795   0.980  0.7184 -1.5606  0.9915
10130SOL    HW231290   4.703   3.748   0.868 -0.0719 -0.5269 -0.2555
10131SOL     OW31291   1.629   1.716   0.515  0.3777  0.1780  0.0067
10131SOL    HW131292   1.582   1.725   0.428 -0.6148  1.7709  0.6733
10131SOL    HW231293   1.562   1.713   0.589  1.2569  2.0729  0.9471
10132SOL     OW31294   2.109   6.440   1.926  0.2159 -0.1090  0.3263
10132SOL    HW131295   2.155   6.354   1.951  0.8765 -0.2380 -1.2026
10132SOL    HW231296   2.178   6.510   1.908 -0.2076  0.0844 -0.6312
10133SOL     OW31297   4.706   2.640   4.526  0.1309 -0.1965 -0.2332
10133SOL    HW131298   4.714   2.603   4.619 -0.1062  0.9375  0.2641
10133SOL    HW231299   4.626   2.601   4.481  0.0981 -0.5624  0.1401
10134SOL     OW31300   0.959   1.358   2.348  0.1453 -0.7886 -0.1316
10134SOL    HW131301   0.943   1.447   2.391  2.1759  0.3388 -1.5439
10134SOL    HW231302   0.886   1.295   2.375 -1.3517  1.2602  0.9534
10135SOL     OW31303   2.705   5.492   3.122 -0.4481  0.4762 -0.2097
10135SOL    HW131304   2.720   5.393   3.117  1.5453  0.7580 -0.9581
10135SOL    HW231305   2.705   5.530   3.029  1.3205  1.4416  0.1294
10136SOL     OW31306   4.758   5.867   4.360 -0.8257  0.1878  0.0547
10136SOL    HW131307   4.850   5.906   4.358 -0.1752 -0.9511  2.9537
10136SOL    HW231308   4.692   5.939   4.381  0.0798  0.3097  2.9276
10137SOL     OW31309   6.078   4.694   3.767  0.2338  0.4490 -0.1463
10137SOL    HW131310   6.040   4.761   3.703  0.6930  0.0028 -0.8966
10137SOL    HW231311   6.101   4.740   3.853 -2.4565  0.6588  0.5513
10138SOL     OW31312   5.011   3.186   6.703 -0.1839  0.6094 -0.1333
10138SOL    HW131313   5.026   3.183   6.802 -0.1664 -0.8611 -0.1627
10138SOL    HW231314   4.968   3.273   6.679  0.9858  1.5367  0.9839
10139SOL     OW31315   3.794   3.241   1.685 -0.6865  0.2794  0.3725
10139SOL    HW131316   3.841   3.173   1.629 -2.3276  0.6888 -1.6420
10139SOL    HW231317   3.742   3.196   1.757  1.1293 -0.3017  1.3558
10140SOL     OW31318   2.741   5.194   2.260 -0.0658  0.4234 -0.0083
10140SOL    HW131319   2.740   5.165   2.164  0.0351 -0.8663  0.3616
10140SOL    HW231320   2.806   5.270   2.272  2.9072 -1.8986 -0.3001
10141SOL     OW31321   0.295   0.008   5.998  0.1067  0.9018  0.5024
10141SOL    HW131322   0.247   0.048   6.075 -1.2641 -0.4321  0.3979
10141SOL    HW231323   0.309  -0.090   6.014  0.0301  0.6510 -0.8037
10142SOL     OW31324   3.308   6.293   4.524 -0.3005 -0.6145 -0.4482
10142SOL    HW131325   3.287   6.199   4.553 -1.6623 -0.3253 -0.4666
10142SOL    HW231326   3.254   6.357   4.577 -1.5158  0.0197 -2.3470
10143SOL     OW31327   5.009   5.906   0.600 -0.5645 -0.3503 -0.2379
10143SOL    HW131328   4.951   5.827   0.619 -1.1231 -0.3876 -1.9274
10143SOL    HW231329   5.092   5.876   0.553 -0.2075 -0.0541  0.1960
10144SOL     OW31330   4.461   5.602   2.258  0.8213 -0.9115  0.0412
10144SOL    HW131331   4.483   5.590   2.355 -2.5293  2.0760  1.4143
10144SOL    HW231332   4.390   5.537   2.231  1.4033 -1.4141 -0.3082
10145SOL     OW31333   1.817   6.209   0.421  0.1355  0.0360  0.0491
10145SOL    HW131334   1.865   6.284   0.375 -1.7744  0.2310 -1.7984
10145SOL    HW231335   1.724   6.239   0.445 -0.2044 -1.3177  0.4941
10146SOL     OW31336   5.319   4.244   3.746 -0.1042  0.5742  0.0309
10146SOL    HW131337   5.225   4.234   3.778  0.0775 -0.4015  0.2905
10146SOL    HW231338   5.324   4.316   3.676 -1.4367 -0.7851 -1.5490
10147SOL     OW31339   4.937   5.432   4.067 -0.2167  0.0356  0.6792
10147SOL    HW131340   4.910   5.524   4.041  1.2195  0.3852  0.3668
10147SOL    HW231341   4.981   5.434   4.157  3.6362  0.3894 -1.0495
10148SOL     OW31342   5.997   5.023   2.227  0.3117 -0.4812 -0.0816
10148SOL    HW131343   6.030   5.105   2.181 -0.0097 -0.2279  0.1420
10148SOL    HW231344   6.008   4.944   2.166  1.7079 -0.4734  0.1382
10149SOL     OW31345   1.678   2.464   3.017  0.1463  0.5257 -0.3690
10149SOL    HW131346   1.765   2.438   3.058 -0.2392 -0.0562  0.0993
10149SOL    HW231347   1.643   2.546   3.063  0.5216  0.8606 -0.6719
10150SOL     OW31348   5.177   2.898   1.039  0.3390 -0.8914  1.1488
10150SOL    HW131349   5.115   2.976   1.050 -1.5983 -1.9436 -1.3398
10150SOL    HW231350   5.261   2.929   0.994 -0.2755 -0.1408  0.4722
10151SOL     OW31351   6.450   4.513   4.479  0.1084 -0.4068  0.0463
10151SOL    HW131352   6.408   4.593   4.437  3.0582  0.1058 -2.3019
10151SOL    HW231353   6.396   4.432   4.457 -1.3841  0.5605  0.0116
10152SOL     OW31354   4.759   5.438   4.605 -0.7670  0.9209  0.0770
10152SOL    HW131355   4.744   5.534   4.630  0.0215  0.8514  0.8368
10152SOL    HW231356   4.802   5.390   4.681 -3.0793 -0.5757  0.5514
10153SOL     OW31357   5.816   6.975   4.951  0.1092 -0.2991 -0.2639
10153SOL    HW131358   5.826   7.048   5.019  1.6992 -0.3260 -0.4113
10153SOL    HW231359   5.872   6.897   4.979 -1.0177 -1.1969 -0.4689
10154SOL     OW31360   6.131   5.942   5.983  0.2848  0.1994  0.0351
10154SOL    HW131361   6.125   6.028   5.933 -1.6543  0.2634  0.3303
10154SOL    HW231362   6.217   5.897   5.960  0.3274  1.1503 -1.8509
10155SOL     OW31363   4.552   1.102   5.933 -0.6898 -0.7419  0.0796
10155SOL    HW131364   4.584   1.050   6.012 -0.2216  0.2145  0.5400
10155SOL    HW231365   4.497   1.180   5.965  0.3281  0.2246 -0.4637
10156SOL     OW31366   6.281   0.821   1.276  0.1706 -0.2381 -0.2065
10156SOL    HW131367   6.218   0.827   1.199  0.0115  0.6252 -0.0190
10156SOL    HW231368   6.237   0.774   1.352  0.1596 -0.6596 -0.4712
10157SOL     OW31369   4.309   0.852   3.711 -0.5564  0.1328  0.1608
10157SOL    HW131370   4.231   0.790   3.704 -1.6163  1.3489  0.7737
10157SOL    HW231371   4.390   0.801   3.741 -0.6324 -1.4911 -2.1260
10158SOL     OW31372   5.343   3.004   6.896  0.2326  0.5749 -0.3760
10158SOL    HW131373   5.251   2.975   6.920  0.7399 -0.5805  0.2633
10158SOL    HW231374   5.377   3.070   6.963  0.7067 -0.7487  0.7434
10159SOL     OW31375   0.321   1.476   0.770 -0.3027 -0.0770  0.7215
10159SOL    HW131376   0.394   1.518   0.715 -1.4872  2.0656  0.6654
10159SOL    HW231377   0.242   1.537   0.772 -1.8412 -1.9974  1.4088
10160SOL     OW31378   0.879   6.740   4.925 -0.0502 -0.7281  0.3652
10160SOL    HW131379   0.869   6.645   4.953  0.8194 -0.4204  1.8713
10160SOL    HW231380   0.942   6.786   4.988 -0.0728  0.7148 -0.6315
10161SOL     OW31381   2.554   6.491   4.638  0.0177 -0.2223 -0.1629
10161SOL    HW131382   2.474   6.460   4.689 -0.0809  0.9517  0.4312
10161SOL    HW231383   2.558   6.444   4.550 -0.2707 -1.6749  0.5662
10162SOL     OW31384   2.824   3.936   6.858 -0.3826  0.5047  0.2991
10162SOL    HW131385   2.740   3.983   6.885 -1.7253  0.6731 -3.5751
10162SOL    HW231386   2.813   3.838   6.871 -1.2458  0.5215 -0.2456
10163SOL     OW31387   0.930   3.438   5.121  0.4124  0.5325 -0.0593
10163SOL    HW131388   0.906   3.535   5.115 -0.1897  0.6940  3.3018
10163SOL    HW231389   1.002   3.425   5.189 -0.3844 -1.5061  0.4776
10164SOL     OW31390   0.776   1.516   4.626  0.1563 -0.0294 -0.6934
10164SOL    HW131391   0.742   1.468   4.707  1.7031 -0.8747 -0.4994
10164SOL    HW231392   0.719   1.596   4.609 -0.8518 -0.4248  0.5930
10165SOL     OW31393   0.730   3.020   4.177 -0.2349  0.1591  0.3391
10165SOL    HW131394   0.681   3.063   4.252 -0.4543  0.3470  0.0862
10165SOL    HW231395   0.679   2.940   4.145  0.8645 -1.1783  1.7690
10166SOL     OW31396   1.409   0.579   2.502  0.1081  0.7967  0.4359
10166SOL    HW131397   1.415   0.594   2.601  1.1021  3.6531  0.0267
10166SOL    HW231398   1.376   0.662   2.457  0.9373  0.0214 -1.7439
10167SOL     OW31399   5.196   1.060   6.644 -0.3518  0.0360  0.2144
10167SOL    HW131400   5.264   1.132   6.627 -0.5874  0.2072 -0.0214
10167SOL    HW231401   5.191   1.000   6.564 -0.1329 -0.2595  0.4244
10168SOL     OW31402   0.434   0.230   6.976 -0.6497 -0.2930  0.0507
10168SOL    HW131403   0.454   0.146   6.925 -0.8669 -0.3977  0.1327
10168SOL    HW231404   0.512   0.291   6.973 -0.2378 -0.7883  0.5539
10169SOL     OW31405   4.504   4.838   5.270  0.0916  0.1242 -0.4351
10169SOL    HW131406   4.567   4.861   5.344  0.3579  0.0236 -0.6329
10169SOL    HW231407   4.441   4.767   5.301  0.5422 -0.2971 -0.4748
10170SOL     OW31408   5.403   5.291   5.676 -0.3764  0.2543  0.1491
10170SOL    HW131409   5.414   5.299   5.577 -1.7016 -0.1697 -0.0523
10170SOL    HW231410   5.487   5.255   5.716 -0.1412 -0.4832 -0.9490
10171SOL     OW31411   0.009   3.972   5.894 -0.0888  0.4647 -0.2632
10171SOL    HW131412   0.009   3.874   5.878 -0.6924  0.2343  1.0223
10171SOL    HW231413  -0.041   3.992   5.978  1.7677  1.6908  0.6224
10172SOL     OW31414   5.166   6.653   3.127  0.6516 -0.1240  0.0224
10172SOL    HW131415   5.125   6.635   3.037 -1.3768 -0.2987  0.9218
10172SOL    HW231416   5.245   6.713   3.116  0.7110 -0.4820 -1.9083
10173SOL     OW31417   2.805   2.317   2.567  0.1182 -0.2104 -0.5053
10173SOL    HW131418   2.843   2.392   2.513  1.0253  1.3089  2.0732
10173SOL    HW231419   2.877   2.250   2.587  0.0539 -0.1996 -0.2403
10174SOL     OW31420   6.474   4.509   1.062 -0.1897  0.1612 -0.0815
10174SOL    HW131421   6.421   4.567   1.001 -1.1267 -1.5011 -0.9194
10174SOL    HW231422   6.554   4.473   1.013 -0.0923  0.0648  0.1471
10175SOL     OW31423   6.179   1.817   0.122 -0.0409  0.0184 -0.0127
10175SOL    HW131424   6.107   1.747   0.118 -1.2076  1.1779 -0.1628
10175SOL    HW231425   6.221   1.827   0.032  1.1106 -1.4429  0.3322
10176SOL     OW31426   2.925   2.150   1.639  0.0887 -1.0259 -0.1214
10176SOL    HW131427   3.004   2.210   1.650 -0.5955 -0.1833  0.3311
10176SOL    HW231428   2.944   2.061   1.680 -0.5285  0.3543  3.5560
10177SOL     OW31429   0.664   4.907   5.798 -0.4505 -0.9658  0.8636
10177SOL    HW131430   0.577   4.858   5.785 -1.6076  1.1678  0.0735
10177SOL    HW231431   0.675   4.929   5.895 -1.4926 -0.0915  0.8032
10178SOL     OW31432   6.078   2.465   6.153  0.1383  0.0412 -0.0316
10178SOL    HW131433   6.079   2.387   6.092  2.1810 -0.7846  0.9806
10178SOL    HW231434   6.130   2.444   6.236 -0.2173  2.0830  0.7762
10179SOL     OW31435   0.107   2.852   1.163  0.4831  0.1736 -0.5422
10179SOL    HW131436   0.141   2.916   1.232  3.0466 -0.8973 -0.6796
10179SOL    HW231437   0.122   2.889   1.072  0.0726  0.2385 -0.5839
10180SOL     OW31438   1.711   5.698   6.383 -0.4820  0.0356 -0.5901
10180SOL    HW131439   1.744   5.713   6.290 -1.7688  0.8469 -0.9417
10180SOL    HW231440   1.700   5.600   6.399  0.2201 -0.1417 -1.1077
10181SOL     OW31441   4.806   4.268   2.897  0.2041 -0.0320  0.4578
10181SOL    HW131442   4.884   4.207   2.885  0.7815  0.5872  0.9824
10181SOL    HW231443   4.766   4.289   2.808 -0.4249 -1.6893  0.3159
10182SOL     OW31444   3.866   0.077   0.345 -0.9262  0.0882 -0.3956
10182SOL    HW131445   3.860   0.127   0.259 -2.3155  0.4212 -0.1302
10182SOL    HW231446   3.868   0.141   0.421 -0.0461 -0.2129 -0.1573
10183SOL     OW31447   0.960   1.601   0.777 -0.3475  0.4230 -0.0586
10183SOL    HW131448   0.870   1.575   0.813  0.2307 -0.6609  0.6663
10183SOL    HW231449   0.949   1.646   0.689 -1.6441  0.9333  0.3522
10184SOL     OW31450   5.535   0.513   6.987  0.5244 -0.3565 -0.3621
10184SOL    HW131451   5.561   0.551   6.899 -1.8697 -0.6413 -1.2451
10184SOL    HW231452   5.486   0.427   6.974 -1.0502  0.2543  1.1449
10185SOL     OW31453   2.692   1.673   0.009 -0.1585 -0.8877  0.1028
10185SOL    HW131454   2.694   1.587  -0.042 -1.5938  0.1874 -1.9008
10185SOL    HW231455   2.628   1.665   0.085 -0.1201 -1.6434  0.0670
10186SOL     OW31456   4.942   2.877   3.987  0.0397  0.2649  0.1877
10186SOL    HW131457   5.035   2.913   3.984 -0.5503  1.8336 -0.0190
10186SOL    HW231458   4.938   2.802   4.052  1.2905  0.6404  0.7301
10187SOL     OW31459   0.821   2.554   2.721 -0.0210  0.4913  0.4748
10187SOL    HW131460   0.872   2.569   2.637  0.8068  1.6170  1.1542
10187SOL    HW231461   0.736   2.608   2.720 -0.0895  0.3809  0.3038
10188SOL     OW31462   5.239   4.876   1.495 -0.1122  0.0150  0.1384
10188SOL    HW131463   5.327   4.923   1.486 -0.6689  1.0119 -0.2691
10188SOL    HW231464   5.255   4.778   1.507  1.0760  0.2819  0.9446
10189SOL     OW31465   6.843   1.207   4.694 -0.6444  0.7052  0.2668
10189SOL    HW131466   6.861   1.270   4.770  1.1170  0.1334  0.3724
10189SOL    HW231467   6.845   1.257   4.608  2.4694  0.6487  0.1799
10190SOL     OW31468   7.005   3.423   0.050  0.0866 -0.8977  0.3566
10190SOL    HW131469   7.033   3.484   0.123  0.1821  1.1759 -1.3162
10190SOL    HW231470   7.077   3.417  -0.019 -1.2435 -0.1226 -1.1733
10191SOL     OW31471   1.975   4.806   6.692 -0.2733 -0.0052  0.5020
10191SOL    HW131472   1.981   4.808   6.592 -0.1286  0.4158  0.5197
10191SOL    HW231473   1.895   4.858   6.721 -0.2148  0.0187  0.6179
10192SOL     OW31474   2.880   2.018   0.401  0.1985  0.4724  0.1165
10192SOL    HW131475   2.954   1.980   0.346 -1.1633 -1.1999 -0.6488
10192SOL    HW231476   2.872   1.966   0.486  0.7176  1.4910  0.8078
10193SOL     OW31477   5.066   4.161   0.361  0.5130  0.4203  0.1073
10193SOL    HW131478   5.029   4.069   0.353  3.2061 -0.6034 -2.1854
10193SOL    HW231479   5.028   4.219   0.289  1.7806 -0.0557 -0.9634
10194SOL     OW31480   5.262   2.304   4.784 -0.5791  0.0807 -0.3996
10194SOL    HW131481   5.352   2.324   4.823 -0.7786  0.9007 -0.3483
10194SOL    HW231482   5.255   2.346   4.693 -1.8152  2.2406  0.6250
10195SOL     OW31483   0.067   5.286   1.459  0.7864  0.2535 -0.1281
10195SOL    HW131484  -0.026   5.278   1.497  1.6777  0.0214  2.1489
10195SOL    HW231485   0.061   5.314   1.363 -1.6527 -0.6497 -0.3099
10196SOL     OW31486   0.039   1.386   4.853  0.1233  0.4740  0.7098
10196SOL    HW131487   0.068   1.359   4.761 -0.8918 -0.1680  0.5583
10196SOL    HW231488   0.091   1.466   4.883  1.3417 -0.0610  0.0811
10197SOL     OW31489   4.213   1.094   4.942  0.3049 -0.0734  0.2134
10197SOL    HW131490   4.304   1.136   4.947  0.4563 -0.2459 -0.8584
10197SOL    HW231491   4.215   1.018   4.876 -0.0903 -1.4516  1.7339
10198SOL     OW31492   4.370   1.339   3.339  0.1805 -0.2320  0.7487
10198SOL    HW131493   4.467   1.322   3.355  0.5283  1.0010  0.1260
10198SOL    HW231494   4.357   1.436   3.316 -1.3510 -0.1318  1.9294
10199SOL     OW31495   0.149   1.946   6.515 -0.1133 -0.1997  0.0025
10199SOL    HW131496   0.173   1.864   6.567 -2.4425 -0.8720  0.1464
10199SOL    HW231497   0.159   2.026   6.573 -1.8189 -0.8501  1.2849
10200SOL     OW31498   5.562   2.776   1.757 -0.1313 -0.4052 -0.1956
10200SOL    HW131499   5.522   2.829   1.831  2.1361  0.6046  0.4062
10200SOL    HW231500   5.552   2.827   1.671 -3.3754 -1.8886 -0.8276
10201SOL     OW31501   0.846   3.538   1.091 -0.0644 -0.7255 -0.4675
10201SOL    HW131502   0.825   3.474   1.016 -1.1496 -0.2714 -0.5647
10201SOL    HW231503   0.791   3.515   1.171 -1.9773  1.2604 -1.1276
10202SOL     OW31504   3.395   0.240   2.118 -0.1740  0.4751  0.2784
10202SOL    HW131505   3.333   0.317   2.105  0.8402  1.1870 -0.4089
10202SOL    HW231506   3.453   0.230   2.038  0.5899 -0.2057  0.9006
10203SOL     OW31507   1.749   3.655   4.311 -0.0427 -0.2004 -0.5355
10203SOL    HW131508   1.801   3.625   4.232  1.2630 -0.2364  0.3078
10203SOL    HW231509   1.663   3.603   4.317 -0.3813  0.1403 -2.1637
10204SOL     OW31510   4.788   2.993   6.390 -0.4349 -0.0789  0.1376
10204SOL    HW131511   4.804   2.999   6.489 -0.4377 -2.6585  0.3771
10204SOL    HW231512   4.692   2.971   6.374 -1.0863  2.8929 -0.6541
10205SOL     OW31513   5.814   2.702   5.255  0.2578  0.3628  0.1180
10205SOL    HW131514   5.840   2.724   5.161 -1.2986  0.5156 -0.3013
10205SOL    HW231515   5.715   2.709   5.264  0.5112  2.6108  2.3188
10206SOL     OW31516   1.682   0.599   4.510 -0.3508 -0.8805 -0.8437
10206SOL    HW131517   1.769   0.593   4.559  0.4713  1.0503 -1.9523
10206SOL    HW231518   1.659   0.509   4.473  1.5100 -1.3190 -1.0476
10207SOL     OW31519   3.068   2.829   5.978 -0.3492 -0.6563 -0.4021
10207SOL    HW131520   3.019   2.834   5.891 -0.8764 -0.1045 -0.0820
10207SOL    HW231521   3.045   2.744   6.025 -0.7896 -0.5313 -0.3862
10208SOL     OW31522   0.709   6.592   6.783  0.7774  0.1541  0.4588
10208SOL    HW131523   0.750   6.514   6.830 -1.5344  0.5401  3.4114
10208SOL    HW231524   0.615   6.572   6.759  0.4684  1.6637  0.2927
10209SOL     OW31525   4.012   5.190   0.092 -0.5796  0.2563 -0.3095
10209SOL    HW131526   3.942   5.159   0.155  0.2254 -1.7358 -0.3282
10209SOL    HW231527   4.024   5.123   0.019  0.8926  0.8479 -0.6525
10210SOL     OW31528   4.962   1.100   4.016  0.3128 -0.0284 -0.5847
10210SOL    HW131529   4.917   1.119   4.103 -1.4056 -0.9054 -1.2279
10210SOL    HW231530   5.045   1.047   4.032  0.9584  1.2988  0.6190
10211SOL     OW31531   5.148   6.764   0.154 -0.1294  0.2893  0.4802
10211SOL    HW131532   5.101   6.795   0.072  1.2780  0.1664 -0.4243
10211SOL    HW231533   5.084   6.760   0.231 -1.4449  0.5581 -0.5673
10212SOL     OW31534   2.617   6.276   6.826  0.1615 -0.1604  0.0592
10212SOL    HW131535   2.679   6.200   6.805  0.0325 -0.2010 -0.1786
10212SOL    HW231536   2.523   6.242   6.830 -0.5222  0.6115 -4.2762
10213SOL     OW31537   0.960   1.747   0.551 -0.5461 -0.4880  0.4784
10213SOL    HW131538   1.026   1.822   0.552 -2.4394  1.3714  4.1247
10213SOL    HW231539   0.876   1.777   0.507 -0.3641 -1.5059 -0.6027
10214SOL     OW31540   2.157   3.111   0.490  0.0817 -0.5099  0.5157
10214SOL    HW131541   2.126   3.168   0.414 -0.3251 -1.9585 -0.4435
10214SOL    HW231542   2.235   3.155   0.535 -2.1595  2.3653  1.8788
10215SOL     OW31543   3.322   3.242   2.605  0.3029  0.2926  0.1580
10215SOL    HW131544   3.246   3.182   2.577  2.7492 -2.3878 -1.2999
10215SOL    HW231545   3.339   3.231   2.702  1.0429 -1.9436 -0.1705
10216SOL     OW31546   1.134   4.487   2.407  0.3728  0.6303  0.1404
10216SOL    HW131547   1.086   4.566   2.445  1.7721  2.0256 -0.8813
10216SOL    HW231548   1.075   4.443   2.339 -0.9498 -0.0926  1.6602
10217SOL     OW31549   2.229   1.377   6.151  0.0892 -0.2106  0.5459
10217SOL    HW131550   2.157   1.443   6.173  0.5043  0.0845  1.0178
10217SOL    HW231551   2.187   1.290   6.124 -0.5102  0.5755 -1.2419
10218SOL     OW31552   0.395   4.098   2.445  0.2023  0.9001 -0.3905
10218SOL    HW131553   0.306   4.055   2.460  0.6676  0.3938  1.0098
10218SOL    HW231554   0.386   4.197   2.453 -0.0301  0.7818  0.9041
10219SOL     OW31555   1.580   4.531   4.026 -0.5518 -0.5756 -0.2258
10219SOL    HW131556   1.545   4.466   3.959  1.1216 -1.0727 -0.6737
10219SOL    HW231557   1.505   4.566   4.081 -1.6749 -1.8214 -0.9062
10220SOL     OW31558   5.261   3.845   0.465 -0.4962 -0.0466 -0.5776
10220SOL    HW131559   5.287   3.917   0.530 -1.0740  0.2193 -0.6345
10220SOL    HW231560   5.312   3.857   0.380  0.9006 -0.9000  0.1081
10221SOL     OW31561   2.463   6.439   1.822 -0.0810 -0.4933 -0.1154
10221SOL    HW131562   2.436   6.534   1.804 -0.3742 -0.3374  1.0775
10221SOL    HW231563   2.558   6.437   1.853  0.2894 -0.7206 -1.2018
10222SOL     OW31564   3.318   3.508   3.168 -0.2477  0.0968 -0.3576
10222SOL    HW131565   3.280   3.593   3.205  0.0739  0.5022 -0.9282
10222SOL    HW231566   3.319   3.514   3.068  1.1153  0.0152 -0.3635
10223SOL     OW31567   4.131   6.570   6.969  0.0469 -0.0502 -0.1656
10223SOL    HW131568   4.129   6.660   6.924  0.6909 -0.9189 -2.0066
10223SOL    HW231569   4.058   6.513   6.933  0.6034 -0.7855 -0.1368
10224SOL     OW31570   6.701   2.507   4.436  0.4532 -0.0601  0.3089
10224SOL    HW131571   6.710   2.502   4.336  2.5179 -1.7497  0.4997
10224SOL    HW231572   6.604   2.511   4.461 -0.0956  0.9217 -1.7530
10225SOL     OW31573   0.530   3.041   5.842  0.1094 -0.1865 -0.4412
10225SOL    HW131574   0.433   3.048   5.862  0.1455  0.5174 -0.4738
10225SOL    HW231575   0.583   3.084   5.915  0.3514  0.2049 -0.8388
10226SOL     OW31576   2.929   4.601   5.469 -0.6173 -0.7689 -0.4230
10226SOL    HW131577   2.923   4.569   5.374  1.4302  0.7100 -1.1106
10226SOL    HW231578   3.022   4.633   5.487 -1.4553  0.6845  1.5482
10227SOL     OW31579   3.554   4.473   1.395 -0.4615  0.1230 -0.0321
10227SOL    HW131580   3.543   4.471   1.494 -0.9125 -0.0860 -0.0829
10227SOL    HW231581   3.610   4.394   1.367  2.4182  1.8849  0.3537
10228SOL     OW31582   6.424   6.143   6.879  0.0554  0.3600  0.4831
10228SOL    HW131583   6.402   6.236   6.850 -1.0945  0.7027  2.3334
10228SOL    HW231584   6.363   6.115   6.953 -0.6663 -2.4768 -1.0494
10229SOL     OW31585   0.653   2.438   3.887  0.2192  0.1216 -0.4449
10229SOL    HW131586   0.554   2.453   3.894  0.3065 -0.0719  2.4921
10229SOL    HW231587   0.673   2.392   3.801 -2.1729  0.6360 -1.3655
10230SOL     OW31588   6.401   6.638   1.525  0.4096  0.2166 -0.3377
10230SOL    HW131589   6.375   6.669   1.434  2.8681  0.0047 -1.1601
10230SOL    HW231590   6.383   6.540   1.533 -0.5254  0.3813 -0.2966
10231SOL     OW31591   6.621   3.339   2.601  0.1702 -0.5810 -0.2081
10231SOL    HW131592   6.540   3.295   2.563 -0.2219 -0.2275  0.2029
10231SOL    HW231593   6.595   3.425   2.645  0.8644 -0.1302 -0.6487
10232SOL     OW31594   3.614   4.997   1.844  0.3808 -0.5018 -0.5928
10232SOL    HW131595   3.562   5.043   1.916  2.2782  0.2680  0.3845
10232SOL    HW231596   3.646   4.908   1.878  0.6265 -0.4783 -0.7559
10233SOL     OW31597   6.327   1.902   6.133  0.2662 -0.1162  0.3375
10233SOL    HW131598   6.388   1.892   6.054  0.1245 -0.4030  0.2633
10233SOL    HW231599   6.360   1.847   6.209  0.1861 -0.1521  0.3473
10234SOL     OW31600   6.769   5.634   1.562  0.2547  0.1796  0.1313
10234SOL    HW131601   6.858   5.678   1.575  0.4608 -0.0182 -0.5653
10234SOL    HW231602   6.749   5.574   1.640  0.9018 -0.0536  0.1219
10235SOL     OW31603   1.638   2.014   2.555  0.3775  0.4128  0.0599
10235SOL    HW131604   1.620   2.023   2.457  0.6747  2.0255  0.1264
10235SOL    HW231605   1.732   1.982   2.569  0.4387  0.4906 -0.1760
10236SOL     OW31606   0.230   0.412   1.777 -0.0405  0.0597 -0.1324
10236SOL    HW131607   0.255   0.399   1.873  2.7173  0.6164 -0.6935
10236SOL    HW231608   0.131   0.404   1.767 -0.5583  1.2288  2.9478
10237SOL     OW31609   6.780   3.337   5.487  0.0607  0.0969 -0.3887
10237SOL    HW131610   6.841   3.330   5.565 -2.7514 -0.8461  1.9250
10237SOL    HW231611   6.728   3.252   5.478 -2.9147  1.7630 -0.3599
10238SOL     OW31612   3.712   1.840   2.833  0.3277 -0.3687 -0.1133
10238SOL    HW131613   3.718   1.935   2.862 -2.3617 -0.4718  1.0676
10238SOL    HW231614   3.652   1.789   2.895  0.7172 -2.5545 -1.4048
10239SOL     OW31615   1.515   3.335   5.880 -0.0262  0.2289 -0.1138
10239SOL    HW131616   1.564   3.263   5.929  0.3659  1.9827  2.1897
10239SOL    HW231617   1.494   3.411   5.942 -1.9890  1.3787 -2.0281
10240SOL     OW31618   6.751   6.707   2.406 -0.1288 -0.2708  0.0427
10240SOL    HW131619   6.755   6.756   2.320 -1.3330 -0.9142 -0.4035
10240SOL    HW231620   6.679   6.745   2.464  1.9540  1.4715  1.6526
10241SOL     OW31621   3.975   3.973   2.360 -0.2990 -0.5999 -0.1884
10241SOL    HW131622   4.037   4.051   2.348  0.5429 -1.1748  0.3059
10241SOL    HW231623   3.911   3.991   2.434  0.3136 -0.6307  0.3547
10242SOL     OW31624   1.183   4.637   1.838  0.3311  0.3997 -0.0048
10242SOL    HW131625   1.204   4.590   1.752  0.8940  1.1176 -0.2750
10242SOL    HW231626   1.092   4.611   1.869  0.4325 -0.4664 -0.4100
10243SOL     OW31627   5.078   5.430   4.282  0.2199 -0.0013 -0.3540
10243SOL    HW131628   5.140   5.364   4.240  1.4951 -0.1046  1.5719
10243SOL    HW231629   5.078   5.417   4.381 -1.0637  1.5823 -0.1132
10244SOL     OW31630   1.266   5.306   0.174  0.1602 -0.1150 -0.1813
10244SOL    HW131631   1.192   5.269   0.230  0.2191  0.5217  0.3417
10244SOL    HW231632   1.229   5.341   0.088 -0.0386 -0.4471 -0.2313
10245SOL     OW31633   6.291   3.282   0.721 -0.2266  0.0422 -0.6133
10245SOL    HW131634   6.252   3.370   0.695 -0.7100 -0.1050 -0.4109
10245SOL    HW231635   6.337   3.241   0.643 -0.5457  0.1896 -0.8802
10246SOL     OW31636   3.117   2.817   1.048 -0.1319 -0.0496  0.2707
10246SOL    HW131637   3.144   2.855   0.960  1.4445 -1.4763  0.1056
10246SOL    HW231638   3.178   2.851   1.120 -0.7661  0.2930  0.6617
10247SOL     OW31639   0.508   4.675   4.940  0.2122 -0.7529  0.0596
10247SOL    HW131640   0.571   4.642   5.010  0.3279 -1.4914 -0.3789
10247SOL    HW231641   0.470   4.597   4.890  0.7020 -0.2248 -1.1901
10248SOL     OW31642   2.950   1.159   3.684 -0.1818 -0.1487  0.5750
10248SOL    HW131643   3.018   1.086   3.685 -0.7510 -0.7248 -0.4484
10248SOL    HW231644   2.861   1.122   3.711 -0.9369 -0.3931 -1.9611
10249SOL     OW31645   1.985   5.163   5.725 -0.2372 -0.0090 -0.4529
10249SOL    HW131646   2.003   5.167   5.823  1.0750 -1.8577 -0.5799
10249SOL    HW231647   1.926   5.086   5.705  2.6789 -2.1772 -1.4433
10250SOL     OW31648   3.216   3.978   5.539  0.3521 -0.3429 -0.0211
10250SOL    HW131649   3.143   3.910   5.538  0.8614 -0.9425  1.2705
10250SOL    HW231650   3.270   3.970   5.455 -0.8453 -0.1128 -0.8299
10251SOL     OW31651   1.912   0.446   3.156  0.2828 -0.5962  0.2161
10251SOL    HW131652   1.916   0.449   3.256  2.2576 -0.5791  0.1797
10251SOL    HW231653   1.989   0.393   3.121  0.9430  1.2742 -1.3556
10252SOL     OW31654   5.543   3.532   0.209  0.0992  0.0437 -0.1348
10252SOL    HW131655   5.499   3.520   0.119  0.9088  1.6530 -0.7850
10252SOL    HW231656   5.475   3.560   0.276 -0.0563  1.8301 -0.9752
10253SOL     OW31657   3.100   5.563   2.022 -0.5269 -0.4416 -0.2260
10253SOL    HW131658   3.195   5.566   1.991 -0.2271 -0.5042  0.6496
10253SOL    HW231659   3.097   5.567   2.122 -1.5566  2.8426 -0.2437
10254SOL     OW31660   6.244   1.871   6.894 -0.3953 -0.4068 -0.0893
10254SOL    HW131661   6.205   1.962   6.912 -1.3570 -1.0352  1.1966
10254SOL    HW231662   6.264   1.862   6.797 -0.8632  0.9551 -0.3378
10255SOL     OW31663   5.135   4.327   1.025  0.4337 -0.1369 -0.2747
10255SOL    HW131664   5.056   4.355   0.969  1.0345 -0.3228 -1.2336
10255SOL    HW231665   5.217   4.372   0.990  0.9326 -0.8220  0.0124
10256SOL     OW31666   0.266   6.667   6.309  0.4766  0.3371 -0.3357
10256SOL    HW131667   0.167   6.681   6.320 -0.4401 -3.6032 -1.9160
10256SOL    HW231668   0.293   6.696   6.217  0.7933  1.1173 -0.0119
10257SOL     OW31669   4.637   4.778   3.145 -0.3509 -0.1502  0.1856
10257SOL    HW131670   4.596   4.840   3.212  1.2875  1.4726 -0.2332
10257SOL    HW231671   4.726   4.748   3.179  0.3661  0.4573 -1.0938
10258SOL     OW31672   3.166   2.093   3.543  0.3315  0.3640  0.3186
10258SOL    HW131673   3.144   1.996   3.552  0.1018  0.2595 -1.1683
10258SOL    HW231674   3.161   2.137   3.633 -1.2318 -0.6426  0.7508
10259SOL     OW31675   1.601   3.236   2.173  0.0951 -0.2137  0.7771
10259SOL    HW131676   1.558   3.296   2.105  0.7982  1.2724  1.5708
10259SOL    HW231677   1.700   3.236   2.159  0.1568 -0.6860  1.1972
10260SOL     OW31678   6.235   5.723   3.525  0.0684 -0.4939  0.0498
10260SOL    HW131679   6.213   5.693   3.432 -1.4177  0.4452  0.0686
10260SOL    HW231680   6.270   5.817   3.523 -1.8118  0.2643  0.5696
10261SOL     OW31681   5.267   4.866   2.284 -0.5434  0.1893 -0.3464
10261SOL    HW131682   5.249   4.805   2.361  0.2974  0.3181 -0.0347
10261SOL    HW231683   5.301   4.812   2.206 -0.5908  0.1652 -0.3507
10262SOL     OW31684   5.471   1.101   6.658  0.1306  0.8927  0.0188
10262SOL    HW131685   5.562   1.143   6.657 -0.2739  1.7896  0.2797
10262SOL    HW231686   5.479   1.004   6.683  0.9582  1.0979  0.5658
10263SOL     OW31687   6.856   0.703   2.804  0.1749 -0.2734  0.3202
10263SOL    HW131688   6.760   0.724   2.820  0.2662 -0.4666  1.2115
10263SOL    HW231689   6.866   0.656   2.716 -0.3475  1.0392 -0.4547
10264SOL     OW31690   6.991   1.659   6.800  0.1153 -0.2779 -0.3254
10264SOL    HW131691   6.949   1.734   6.851  1.0331 -0.8798  1.3919
10264SOL    HW231692   7.082   1.686   6.770  1.0072 -1.1077  1.4852
10265SOL     OW31693   3.657   1.156   4.054  0.1015  0.4440 -0.2698
10265SOL    HW131694   3.653   1.172   3.956 -4.4056  0.5882 -0.2719
10265SOL    HW231695   3.640   1.241   4.103  1.1946  0.1598  0.6584
10266SOL     OW31696   0.927   3.288   2.621 -0.1007 -0.2721 -0.0879
10266SOL    HW131697   0.960   3.379   2.592 -0.3786 -0.3704 -0.7296
10266SOL    HW231698   0.974   3.261   2.705  1.0567 -0.1618 -0.6755
10267SOL     OW31699   5.704   2.286   1.522  0.0431  0.2597  0.0913
10267SOL    HW131700   5.673   2.374   1.487  0.1826 -0.0167 -0.7447
10267SOL    HW231701   5.664   2.271   1.613  0.2522  1.3021  0.3697
10268SOL     OW31702   5.381   6.185   3.854 -0.6866 -0.5287  0.1459
10268SOL    HW131703   5.373   6.284   3.839 -0.0115 -0.5579 -0.4786
10268SOL    HW231704   5.472   6.164   3.890 -1.0529 -0.8638  0.8954
10269SOL     OW31705   2.505   1.679   5.233 -0.2266 -0.7028  0.1942
10269SOL    HW131706   2.528   1.761   5.285  1.5367 -0.7775 -0.3812
10269SOL    HW231707   2.470   1.608   5.295  2.4390 -1.0289  1.4647
10270SOL     OW31708   2.013   5.852   3.770  0.3945 -0.2762  0.1379
10270SOL    HW131709   1.987   5.858   3.674  0.4298 -0.4918  0.1151
10270SOL    HW231710   2.013   5.756   3.799 -0.1724 -0.1749  0.5042
10271SOL     OW31711   1.787   1.977   0.210  0.0963 -0.6600  0.2646
10271SOL    HW131712   1.771   1.901   0.147  1.1918 -0.2488 -0.5532
10271SOL    HW231713   1.885   1.997   0.213 -0.2178  1.1042 -0.0109
10272SOL     OW31714   6.498   6.875   4.585  0.5997  0.1919 -1.2932
10272SOL    HW131715   6.455   6.892   4.674  1.4988 -1.4295 -0.4928
10272SOL    HW231716   6.525   6.962   4.544  1.9801  0.9388  0.9879
10273SOL     OW31717   2.744   5.556   2.510  0.3055  0.4309 -0.2830
10273SOL    HW131718   2.688   5.632   2.478 -1.5794 -1.2651 -1.3125
10273SOL    HW231719   2.684   5.480   2.536  2.0764 -1.9732 -2.6729
10274SOL     OW31720   6.836   4.342   4.375  0.5020  0.2522 -0.2208
10274SOL    HW131721   6.801   4.272   4.437  1.5090 -1.4950 -1.5332
10274SOL    HW231722   6.761   4.376   4.318  0.4100 -1.6955 -1.3519
10275SOL     OW31723   6.974   0.621   3.372  0.1853  0.4824  0.1408
10275SOL    HW131724   7.020   0.684   3.434  0.9392  0.8884 -0.8086
10275SOL    HW231725   6.971   0.660   3.280  0.6140 -0.8148 -0.4558
10276SOL     OW31726   3.017   5.697   5.918  0.1596 -0.4583 -0.3728
10276SOL    HW131727   2.948   5.626   5.930 -0.0771 -0.0396  1.0230
10276SOL    HW231728   3.009   5.737   5.827 -3.0647  1.1853  0.4783
10277SOL     OW31729   1.594   6.957   5.110  0.0320  0.3141 -0.7101
10277SOL    HW131730   1.535   7.038   5.110 -0.9308 -0.3616  0.0710
10277SOL    HW231731   1.552   6.885   5.166  2.3928  0.3741  1.2582
10278SOL     OW31732   4.193   5.924   3.536 -0.9205 -0.0781  0.4086
10278SOL    HW131733   4.154   5.989   3.470 -2.9862 -0.9697  0.6731
10278SOL    HW231734   4.257   5.972   3.596  0.2327  0.9721 -1.5530
10279SOL     OW31735   0.667   4.409   3.849 -0.4976  0.2324 -0.2567
10279SOL    HW131736   0.657   4.478   3.921  0.9020  0.5221 -0.3176
10279SOL    HW231737   0.623   4.324   3.879  0.0595  0.3401  0.9491
10280SOL     OW31738   4.181   4.175   1.716 -0.1862  0.1000  0.6401
10280SOL    HW131739   4.115   4.206   1.785  0.1796  0.0936  1.0007
10280SOL    HW231740   4.272   4.172   1.757 -0.1474 -1.0411  0.4901
10281SOL     OW31741   5.929   6.091   4.451 -0.3660 -0.4163  0.8582
10281SOL    HW131742   5.910   5.993   4.455  1.6830 -0.8967 -0.1332
10281SOL    HW231743   5.970   6.114   4.363 -2.1784  1.6367  0.4698
10282SOL     OW31744   6.116   3.823   2.269 -0.9838 -0.2610 -0.5553
10282SOL    HW131745   6.129   3.783   2.178 -0.0755  1.1025 -1.0418
10282SOL    HW231746   6.058   3.904   2.262 -1.0022 -0.2108  0.1023
10283SOL     OW31747   0.880   1.017   1.504  0.0417 -0.0083  0.0470
10283SOL    HW131748   0.949   1.000   1.433 -1.4090 -1.3656 -1.1262
10283SOL    HW231749   0.834   0.931   1.526 -0.9826  0.7881  1.1348
10284SOL     OW31750   5.978   0.007   6.346  0.1070 -0.2726 -0.6063
10284SOL    HW131751   5.979  -0.089   6.376 -1.2267  0.3057  1.5298
10284SOL    HW231752   5.949   0.065   6.422  1.9850  1.9996 -1.4884
10285SOL     OW31753   0.645   0.885   6.224 -0.4859  0.0913  0.7051
10285SOL    HW131754   0.564   0.828   6.239  0.3738 -1.3505  0.0444
10285SOL    HW231755   0.659   0.945   6.303 -0.3679 -1.9280  2.2897
10286SOL     OW31756   4.405   2.753   0.554  0.2153  0.0129  0.3610
10286SOL    HW131757   4.318   2.713   0.522  0.4689 -1.2649  1.1870
10286SOL    HW231758   4.391   2.796   0.643  0.3714  0.0243  0.3801
10287SOL     OW31759   1.577   0.891   1.700 -0.0922 -0.1997  0.1484
10287SOL    HW131760   1.629   0.969   1.666  1.8429 -1.9696 -1.2456
10287SOL    HW231761   1.504   0.869   1.636  0.1259 -0.2475 -0.0861
10288SOL     OW31762   3.408   6.795   5.535 -0.3885 -0.4395  0.1647
10288SOL    HW131763   3.456   6.734   5.598  0.4706  0.1495  0.1034
10288SOL    HW231764   3.327   6.833   5.579  0.2019 -0.0326  0.9219
10289SOL     OW31765   2.489   0.344   0.181 -0.2247 -0.0302 -0.0588
10289SOL    HW131766   2.444   0.420   0.228 -0.9958  0.2807 -1.2606
10289SOL    HW231767   2.443   0.258   0.204  0.6062 -0.1570  1.2487
10290SOL     OW31768   3.872   3.384   1.974 -0.3101 -0.5869 -0.4910
10290SOL    HW131769   3.823   3.301   2.000  1.3525 -0.6410  3.0599
10290SOL    HW231770   3.955   3.360   1.923  0.1200 -1.1577  0.4502
10291SOL     OW31771   2.599   2.437   2.121  0.0350  0.2508  0.2915
10291SOL    HW131772   2.544   2.411   2.042  0.3866 -1.6582  0.6119
10291SOL    HW231773   2.695   2.416   2.103  0.1803  0.2295  1.0416
10292SOL     OW31774   0.305   0.359   0.722  0.0012 -0.4845  0.6372
10292SOL    HW131775   0.303   0.259   0.722 -1.4099 -0.5081 -1.0726
10292SOL    HW231776   0.216   0.394   0.751  0.0770  0.2461  0.0361
10293SOL     OW31777   1.600   3.113   6.040  0.6827  0.0543  0.1367
10293SOL    HW131778   1.518   3.116   6.097  0.9015 -0.9486  0.5104
10293SOL    HW231779   1.680   3.090   6.096  1.3324  1.5399 -0.1233
10294SOL     OW31780   6.761   4.429   2.925 -0.2442  0.5650 -0.1335
10294SOL    HW131781   6.749   4.346   2.980  0.6547  0.0572 -0.6722
10294SOL    HW231782   6.674   4.453   2.882 -0.4722 -0.2285 -0.1414
10295SOL     OW31783   2.269   6.965   0.082 -0.4465  0.1190  0.4553
10295SOL    HW131784   2.170   6.970   0.067 -0.7447 -0.9011  1.8135
10295SOL    HW231785   2.299   7.047   0.130 -0.6444  0.4027  0.1001
10296SOL     OW31786   6.812   1.842   0.030  0.2662  0.0245 -0.3181
10296SOL    HW131787   6.740   1.781  -0.005 -1.1056  0.5096  1.5117
10296SOL    HW231788   6.792   1.936   0.003 -0.2072  0.2554  0.7986
10297SOL     OW31789   5.744   2.676   0.727  0.8842  0.1756  0.3161
10297SOL    HW131790   5.688   2.599   0.697  1.8290  0.0849 -1.3584
10297SOL    HW231791   5.703   2.718   0.808 -0.0891 -1.5601  0.7661
10298SOL     OW31792   2.684   1.015   2.358  0.5718  0.0656 -0.6718
10298SOL    HW131793   2.617   1.084   2.330  1.5711  1.1320 -0.5208
10298SOL    HW231794   2.753   1.005   2.286  2.3291  1.7429  0.6682
10299SOL     OW31795   4.900   6.812   2.603 -0.2547  0.2844 -0.0400
10299SOL    HW131796   4.907   6.910   2.587 -2.7617  0.8478  1.7914
10299SOL    HW231797   4.989   6.769   2.586  0.5068  2.5638 -2.4528
10300SOL     OW31798   0.118   1.637   0.738  0.0452  0.4287  0.3869
10300SOL    HW131799   0.031   1.596   0.765 -0.8479  1.7394 -0.4058
10300SOL    HW231800   0.101   1.726   0.696  1.6669  0.1410 -0.9758
10301SOL     OW31801   5.159   1.326   0.489 -1.1128 -0.4323 -0.2486
10301SOL    HW131802   5.196   1.327   0.397  0.2198  0.2101  0.2706
10301SOL    HW231803   5.158   1.232   0.524 -1.8707 -0.7119 -0.9932
10302SOL     OW31804   2.030   5.750   5.702  0.5901  0.5714 -0.2526
10302SOL    HW131805   2.101   5.706   5.648 -0.6345  0.6112 -1.9646
10302SOL    HW231806   2.044   5.728   5.799  1.5933 -1.3119 -0.7746
10303SOL     OW31807   0.846   2.903   4.758  0.4029 -0.0492 -0.2205
10303SOL    HW131808   0.886   2.890   4.849  1.4993  0.7848 -0.5582
10303SOL    HW231809   0.751   2.932   4.767  1.0413  1.9106  0.7434
10304SOL     OW31810   4.476   6.112   6.640 -0.7013 -0.1047  0.0365
10304SOL    HW131811   4.451   6.058   6.720 -0.3327 -0.1186  0.1412
10304SOL    HW231812   4.393   6.150   6.599 -0.8310  5.1307  4.0376
10305SOL     OW31813   3.250   3.111   6.301 -0.1871  0.2425 -0.1966
10305SOL    HW131814   3.289   3.020   6.290 -1.7773 -0.1830 -3.2038
10305SOL    HW231815   3.297   3.158   6.376  2.5795 -2.0057 -0.3460
10306SOL     OW31816   3.865   1.896   1.388 -0.1770 -0.2731  0.9286
10306SOL    HW131817   3.792   1.868   1.451  2.5291 -0.6264  4.1869
10306SOL    HW231818   3.916   1.816   1.358 -0.8892 -0.0081 -1.1662
10307SOL     OW31819   0.816   5.784   6.347  0.2873 -0.4914  0.0049
10307SOL    HW131820   0.770   5.741   6.270 -1.2143 -1.0984  1.1970
10307SOL    HW231821   0.751   5.840   6.398  1.6819  1.4122 -0.1953
10308SOL     OW31822   2.103   3.869   1.735  0.3636 -0.2726 -0.0446
10308SOL    HW131823   2.153   3.783   1.745  0.2519 -0.6287 -2.2002
10308SOL    HW231824   2.023   3.868   1.795  1.1818 -1.0165  1.0747
10309SOL     OW31825   1.364   2.237   4.778  0.3519 -0.5880  0.2250
10309SOL    HW131826   1.265   2.242   4.764  0.2998 -0.5640  0.5805
10309SOL    HW231827   1.408   2.196   4.699  0.1746  0.3926 -0.3965
10310SOL     OW31828   3.438   5.838   6.893 -0.1747 -0.0192 -0.2034
10310SOL    HW131829   3.374   5.876   6.827  0.6952 -1.5601 -2.0234
10310SOL    HW231830   3.393   5.829   6.982 -1.6045  1.4063 -0.7258
10311SOL     OW31831   0.019   0.906   0.429  0.0038  0.0346  0.2440
10311SOL    HW131832  -0.028   0.836   0.376 -0.9284  0.2921  0.7066
10311SOL    HW231833   0.118   0.895   0.418 -0.1308 -1.0901 -0.0217
10312SOL     OW31834   0.998   6.744   1.376 -0.4967 -0.5199 -0.0956
10312SOL    HW131835   0.992   6.671   1.443 -1.8029 -0.7912 -0.4754
10312SOL    HW231836   0.943   6.720   1.295  1.3464 -0.3749 -1.4441
10313SOL     OW31837   3.723   0.645   2.215  0.2298 -0.3921  0.3039
10313SOL    HW131838   3.734   0.548   2.235 -1.0403 -0.6361 -0.1190
10313SOL    HW231839   3.768   0.699   2.286  0.5442 -1.2710  0.7906
10314SOL     OW31840   1.281   6.813   0.612 -0.4946 -0.6069 -0.0824
10314SOL    HW131841   1.296   6.905   0.649  1.2881 -0.8308 -0.1744
10314SOL    HW231842   1.340   6.748   0.661 -0.4720 -1.4185 -1.1638
10315SOL     OW31843   4.574   4.561   5.454 -0.6626 -0.0943  0.2318
10315SOL    HW131844   4.640   4.490   5.429 -2.7997 -2.1451  0.0536
10315SOL    HW231845   4.561   4.562   5.553 -0.8651 -0.1623  0.2060
10316SOL     OW31846   0.241   2.181   1.712 -0.4390 -0.4223  0.5901
10316SOL    HW131847   0.261   2.084   1.707 -0.9879 -0.5005 -0.2629
10316SOL    HW231848   0.271   2.227   1.628  0.7113  0.3268  1.3865
10317SOL     OW31849   3.894   5.304   5.212 -0.5707 -0.5267 -0.2727
10317SOL    HW131850   3.940   5.393   5.214  1.0802 -1.3368 -0.8164
10317SOL    HW231851   3.897   5.266   5.120  0.7346 -2.0995  0.3520
10318SOL     OW31852   5.158   1.584   6.509 -0.1801  0.2092 -0.1257
10318SOL    HW131853   5.146   1.562   6.412 -3.0165 -0.2703  0.2650
10318SOL    HW231854   5.070   1.609   6.549  0.8577  0.0315  2.4372
10319SOL     OW31855   2.685   4.823   3.958  0.5099 -0.2838 -0.0977
10319SOL    HW131856   2.660   4.731   3.931  1.1356 -0.6090  0.3938
10319SOL    HW231857   2.603   4.874   3.985  0.0045 -0.2744 -1.5585
10320SOL     OW31858   1.329   1.951   2.669  0.0383 -0.5440  0.0657
10320SOL    HW131859   1.303   1.883   2.600  0.9696 -0.5394 -0.3143
10320SOL    HW231860   1.426   1.975   2.657  0.0223  0.0044  0.9167
10321SOL     OW31861   5.064   2.413   3.907  0.2810  0.3155  0.1967
10321SOL    HW131862   5.099   2.328   3.948 -2.0409 -0.6699  0.3260
10321SOL    HW231863   5.020   2.392   3.820 -1.3884  1.1425  0.7889
10322SOL     OW31864   4.724   4.092   5.116  0.6084  0.1248 -0.0466
10322SOL    HW131865   4.704   4.091   5.214  2.3641 -1.1910  0.3557
10322SOL    HW231866   4.791   4.164   5.096  0.5895  0.1018 -0.1996
10323SOL     OW31867   2.376   5.529   0.354  0.2960  0.6946 -0.8327
10323SOL    HW131868   2.442   5.564   0.421 -0.0367 -1.1839  0.5748
10323SOL    HW231869   2.401   5.436   0.327 -2.1320 -0.4134  0.3775
10324SOL     OW31870   3.381   3.011   1.954  0.2178 -0.0092  0.2393
10324SOL    HW131871   3.445   2.958   2.009 -1.6584 -0.5879  1.9802
10324SOL    HW231872   3.288   2.995   1.986 -0.8473  0.7733 -2.2142
10325SOL     OW31873   6.732   6.480   4.486 -0.5627 -0.8717 -0.6009
10325SOL    HW131874   6.771   6.405   4.539 -0.8454 -0.1307  0.7154
10325SOL    HW231875   6.700   6.551   4.549 -1.8029 -0.3812 -1.7427
10326SOL     OW31876   5.227   5.758   6.819 -0.1890  0.2579  0.4825
10326SOL    HW131877   5.298   5.698   6.781  1.6977  1.5415  1.8262
10326SOL    HW231878   5.159   5.777   6.748  0.4829 -1.4373 -0.6993
10327SOL     OW31879   0.400   6.524   1.035 -0.2137  0.6185 -0.1592
10327SOL    HW131880   0.453   6.572   1.105 -1.6694  0.1900  1.2912
10327SOL    HW231881   0.447   6.531   0.947  0.8192  2.6069  0.5038
10328SOL     OW31882   6.277   3.124   4.520 -0.1073  0.3404 -0.5593
10328SOL    HW131883   6.332   3.180   4.582  0.1163 -0.2369 -0.2176
10328SOL    HW231884   6.199   3.176   4.487  0.9443  1.3619 -1.4958
10329SOL     OW31885   4.060   1.514   3.533  0.2728 -0.5395  0.0622
10329SOL    HW131886   4.120   1.434   3.527 -0.3291 -0.9710 -0.2762
10329SOL    HW231887   4.063   1.564   3.447  0.7911 -0.0833  0.3359
10330SOL     OW31888   5.009   6.756   0.374  0.1161  0.2691  0.0764
10330SOL    HW131889   5.093   6.789   0.418 -0.3270  1.2971  0.1798
10330SOL    HW231890   4.931   6.808   0.408 -0.1313  1.9905 -2.7894
10331SOL     OW31891   2.523   0.116   6.794 -0.5656 -0.3132  0.0837
10331SOL    HW131892   2.550   0.192   6.854  0.5665  0.4026 -1.2822
10331SOL    HW231893   2.427   0.126   6.768 -0.0640  1.4486 -1.1951
10332SOL     OW31894   2.029   7.003   5.881  0.1965 -0.1224 -0.4346
10332SOL    HW131895   2.013   6.905   5.867 -0.5755 -0.0096 -0.4145
10332SOL    HW231896   2.017   7.026   5.977 -3.1054  0.5471 -0.8813
10333SOL     OW31897   1.292   2.673   4.619  0.6873  0.2668  0.0053
10333SOL    HW131898   1.328   2.672   4.525 -0.8051 -0.7657 -0.6004
10333SOL    HW231899   1.358   2.629   4.680  0.7548 -1.0635 -0.9727
10334SOL     OW31900   2.154   2.051   5.295 -0.4478  0.4673 -0.3489
10334SOL    HW131901   2.113   1.961   5.285  2.5976 -1.0709 -0.0580
10334SOL    HW231902   2.147   2.081   5.390 -2.4539  1.1314 -0.6563
10335SOL     OW31903   0.709   3.363   2.298 -0.3732 -0.4637  0.3398
10335SOL    HW131904   0.796   3.322   2.325  0.6213  0.8201 -0.7751
10335SOL    HW231905   0.637   3.332   2.360 -0.0181 -4.9182 -1.1160
10336SOL     OW31906   5.277   5.583   1.562  0.2934  0.4427  0.2778
10336SOL    HW131907   5.302   5.529   1.482 -0.2976 -1.0082  1.0372
10336SOL    HW231908   5.359   5.620   1.605  0.7387 -0.1292 -0.0669
10337SOL     OW31909   3.758   0.568   6.137  0.3858  0.2731 -0.0759
10337SOL    HW131910   3.699   0.577   6.217  1.7011  0.6250  0.8765
10337SOL    HW231911   3.777   0.471   6.121 -2.1581 -0.0565 -1.7197
10338SOL     OW31912   0.447   0.625   2.972  0.0826 -0.0730 -0.2936
10338SOL    HW131913   0.481   0.700   2.917  0.7669  1.8750  2.5530
10338SOL    HW231914   0.368   0.655   3.025 -1.8357 -2.4584 -1.5800
10339SOL     OW31915   5.048   3.058   5.125  0.0906 -0.0252  0.1157
10339SOL    HW131916   5.123   3.047   5.190  0.9197  0.7277 -0.6731
10339SOL    HW231917   5.075   3.125   5.055 -1.4983  0.6041  0.0761
10340SOL     OW31918   3.117   1.685   6.574  0.3443 -0.3162 -0.3933
10340SOL    HW131919   3.080   1.626   6.502  0.5772 -0.5681 -0.3119
10340SOL    HW231920   3.197   1.640   6.614 -1.3316 -1.4635  1.8849
10341SOL     OW31921   4.636   4.961   4.528  0.0158 -0.0372 -0.1179
10341SOL    HW131922   4.653   5.059   4.518 -0.9950  0.1972  0.3284
10341SOL    HW231923   4.566   4.933   4.463  0.2641 -0.4658 -0.2059
10342SOL     OW31924   2.190   0.118   4.565 -0.3506  0.2453 -0.2918
10342SOL    HW131925   2.102   0.075   4.583  0.2896 -1.5818 -1.2765
10342SOL    HW231926   2.191   0.154   4.472 -0.4244  1.2690  0.0909
10343SOL     OW31927   3.029   6.998   2.725  0.0796  0.4033 -0.1452
10343SOL    HW131928   2.960   7.035   2.788 -0.0367 -0.7440  0.4384
10343SOL    HW231929   3.088   7.072   2.693 -1.5778  1.4658 -0.8795
10344SOL     OW31930   4.196   1.077   0.116 -0.0938 -0.8634  0.2561
10344SOL    HW131931   4.294   1.096   0.111 -0.2852 -0.1441 -1.9494
10344SOL    HW231932   4.162   1.104   0.206  1.2374  1.5602  0.1375
10345SOL     OW31933   5.630   3.712   4.338  0.5572  0.0485 -0.2828
10345SOL    HW131934   5.642   3.810   4.323  0.3121  0.0217 -0.6694
10345SOL    HW231935   5.532   3.690   4.337  0.5053  0.0699  1.5336
10346SOL     OW31936   1.273   5.661   0.490 -0.2234  0.6765  0.0067
10346SOL    HW131937   1.304   5.668   0.395  0.0936 -0.3745  0.0233
10346SOL    HW231938   1.188   5.608   0.494  0.4574 -0.4122  0.4308
10347SOL     OW31939   1.066   1.569   4.119  0.7152 -0.0720 -0.0386
10347SOL    HW131940   1.044   1.535   4.210 -1.6020  1.6839  0.1696
10347SOL    HW231941   1.021   1.512   4.050 -1.9438  1.5100  0.2446
10348SOL     OW31942   6.260   4.433   6.379  0.4622  0.1537  0.2796
10348SOL    HW131943   6.278   4.503   6.448 -1.2461  0.9016  0.0182
10348SOL    HW231944   6.347   4.397   6.344  1.4130  2.6555 -0.1170
10349SOL     OW31945   5.611   0.936   1.863 -0.5903 -0.2174 -0.3509
10349SOL    HW131946   5.590   0.841   1.840 -0.2757 -0.2915 -0.3410
10349SOL    HW231947   5.540   0.996   1.827 -0.2405 -0.3512 -1.2995
10350SOL     OW31948   2.618   5.985   6.148 -0.6410 -0.1870 -0.1077
10350SOL    HW131949   2.576   6.054   6.206 -1.0440 -0.4786 -0.0479
10350SOL    HW231950   2.711   5.967   6.179 -0.3071  0.7723 -0.5009
10351SOL     OW31951   4.967   4.423   5.771 -0.7950 -0.6639  0.2748
10351SOL    HW131952   4.936   4.434   5.676  1.5594  0.8121 -0.4020
10351SOL    HW231953   4.970   4.326   5.794 -0.2146 -1.1370 -1.6020
10352SOL     OW31954   1.737   4.820   4.812 -0.5835  0.1407  0.2504
10352SOL    HW131955   1.796   4.746   4.778  0.8729  1.1742  0.4446
10352SOL    HW231956   1.746   4.827   4.911 -0.4198  0.8320  0.1872
10353SOL     OW31957   0.105   3.633   3.096  0.0166 -0.7239  0.2228
10353SOL    HW131958   0.077   3.546   3.135 -0.6867 -0.9066 -0.6519
10353SOL    HW231959   0.194   3.660   3.133  0.5817 -2.1678 -0.0399
10354SOL     OW31960   4.736   1.454   1.236  0.0787 -0.5325  0.5757
10354SOL    HW131961   4.761   1.448   1.139  2.3234  0.2237  1.0325
10354SOL    HW231962   4.759   1.368   1.282 -0.2974 -0.6337  0.5749
10355SOL     OW31963   1.503   4.487   1.974  0.8010 -0.3287  0.2446
10355SOL    HW131964   1.556   4.550   1.918 -0.3019  0.5916  0.2123
10355SOL    HW231965   1.455   4.422   1.915 -0.3300  0.6161  0.1056
10356SOL     OW31966   2.750   2.192   4.778  0.2517 -0.2729 -0.1267
10356SOL    HW131967   2.663   2.227   4.814  0.6087  0.6002 -0.0823
10356SOL    HW231968   2.805   2.156   4.854 -0.0949 -0.8978 -0.1643
10357SOL     OW31969   2.381   3.505   5.893  0.2179  0.1462  0.3672
10357SOL    HW131970   2.325   3.427   5.922 -0.9850  1.0075  0.4708
10357SOL    HW231971   2.474   3.493   5.927 -0.0085 -1.0956  0.6248
10358SOL     OW31972   0.696   0.275   1.654  0.1630 -0.0375 -0.2589
10358SOL    HW131973   0.630   0.202   1.675  0.2629 -0.6713 -1.9691
10358SOL    HW231974   0.735   0.310   1.739 -0.4113 -1.4923  0.6475
10359SOL     OW31975   1.375   1.312   6.781  0.2355 -0.1322 -0.3358
10359SOL    HW131976   1.346   1.306   6.686  0.0393 -1.0730 -0.2276
10359SOL    HW231977   1.356   1.403   6.816 -1.5898 -0.3908 -0.5858
10360SOL     OW31978   1.263   2.078   4.515 -0.5026 -0.1931 -0.2488
10360SOL    HW131979   1.168   2.053   4.530 -0.7053  0.8379  0.2269
10360SOL    HW231980   1.268   2.160   4.459  0.1249 -0.4996 -0.6626
10361SOL     OW31981   4.085   6.550   0.387  0.3542 -0.1814 -0.6283
10361SOL    HW131982   3.985   6.551   0.392  0.3245 -0.6739 -1.0502
10361SOL    HW231983   4.122   6.622   0.445 -0.2979  0.9854 -1.6031
10362SOL     OW31984   1.359   4.186   5.262 -0.2761 -0.1257  0.1232
10362SOL    HW131985   1.418   4.216   5.337 -0.0239 -1.1481  0.3515
10362SOL    HW231986   1.403   4.206   5.175  1.0279 -1.9913  0.2953
10363SOL     OW31987   6.646   6.480   4.227  0.3241  0.2649  0.2183
10363SOL    HW131988   6.712   6.427   4.174  0.5290  0.6408  0.0940
10363SOL    HW231989   6.673   6.482   4.323  0.7673  0.8409  0.0819
10364SOL     OW31990   0.221   3.408   0.907 -0.6095  0.0040  0.2515
10364SOL    HW131991   0.312   3.428   0.943 -0.4512 -1.2942  0.6118
10364SOL    HW231992   0.160   3.380   0.982 -1.3231  0.8561  0.0161
10365SOL     OW31993   6.936   5.406   0.190  0.4726 -0.1928 -0.2047
10365SOL    HW131994   6.923   5.395   0.289 -0.2317 -1.4370 -0.4098
10365SOL    HW231995   7.001   5.480   0.173  2.3086 -1.3703  1.2594
10366SOL     OW31996   4.424   6.303   3.844 -0.1917 -0.2936  0.5113
10366SOL    HW131997   4.523   6.300   3.827 -0.3751 -1.2635 -0.5427
10366SOL    HW231998   4.407   6.285   3.941  0.6710 -0.0905  0.7123
10367SOL     OW31999   5.831   2.089   2.453  0.5091 -0.4477  0.1106
10367SOL    HW132000   5.905   2.088   2.521 -0.8621  0.1253  1.6916
10367SOL    HW232001   5.748   2.128   2.495 -0.0231  1.2609 -2.3139
10368SOL     OW32002   2.214   0.487   1.403  0.5358 -0.8553  0.8412
10368SOL    HW132003   2.115   0.495   1.397  0.7429  1.9296 -0.7605
10368SOL    HW232004   2.245   0.518   1.492  0.0477  0.0686  0.7034
10369SOL     OW32005   5.142   1.533   1.255  0.1268 -0.3006 -0.4467
10369SOL    HW132006   5.213   1.589   1.211  0.2898 -0.0791  0.0898
10369SOL    HW232007   5.100   1.473   1.187  1.8775 -1.5451 -0.4786
10370SOL     OW32008   2.972   1.198   4.949  0.6173  0.1020 -0.0229
10370SOL    HW132009   3.059   1.153   4.967  0.7991  0.1586 -0.7236
10370SOL    HW232010   2.948   1.257   5.026  0.7476 -0.6004  0.5663
10371SOL     OW32011   5.151   6.729   3.517  0.1204 -0.8816 -0.3291
10371SOL    HW132012   5.232   6.779   3.545 -0.3597  0.0091 -0.4967
10371SOL    HW232013   5.119   6.764   3.429 -0.2526 -1.4560 -0.4282
10372SOL     OW32014   6.367   7.014   2.648  0.3681  0.3476 -0.0547
10372SOL    HW132015   6.361   7.112   2.669  0.9224  0.2764  0.4619
10372SOL    HW232016   6.288   6.968   2.688 -2.1224  1.0836 -3.6015
10373SOL     OW32017   1.019   6.631   2.421 -0.0874 -0.2087  0.2642
10373SOL    HW132018   1.062   6.719   2.402  1.7749 -0.7889  1.4207
10373SOL    HW232019   0.925   6.645   2.450 -0.0196  1.3379 -0.1729
10374SOL     OW32020   3.873   1.394   5.162 -0.3912  0.2043  0.2979
10374SOL    HW132021   3.874   1.309   5.110  1.2807  0.7251 -0.5899
10374SOL    HW232022   3.781   1.433   5.162 -1.0026 -1.2118  0.0869
10375SOL     OW32023   6.933   3.869   0.291  0.0417 -0.3501 -0.5915
10375SOL    HW132024   6.937   3.911   0.200  0.1023 -0.9960 -0.8953
10375SOL    HW232025   6.990   3.921   0.354  2.2343 -1.3966 -1.5639
10376SOL     OW32026   3.568   6.522   3.967 -0.3418 -0.0310 -0.2945
10376SOL    HW132027   3.579   6.479   4.056  0.3138 -0.7392 -0.7120
10376SOL    HW232028   3.482   6.574   3.965 -0.2373  0.2013  0.8246
10377SOL     OW32029   0.281   6.443   2.201 -0.8766  0.6127  0.4740
10377SOL    HW132030   0.359   6.506   2.199 -1.2664  1.1158 -0.9868
10377SOL    HW232031   0.227   6.459   2.283  0.6192  0.1555  1.5813
10378SOL     OW32032   5.651   6.752   6.177 -0.3614  0.1423 -0.5769
10378SOL    HW132033   5.717   6.790   6.112  0.6712 -1.7051 -0.6741
10378SOL    HW232034   5.694   6.740   6.266 -1.1299  0.6213 -0.1238
10379SOL     OW32035   4.606   0.584   3.180 -0.1223 -0.4642  0.0022
10379SOL    HW132036   4.511   0.613   3.189  0.7584  2.4437  1.1881
10379SOL    HW232037   4.646   0.625   3.098  0.5427 -0.1364  0.4691
10380SOL     OW32038   3.610   1.538   5.140 -0.3233 -0.2315  0.6412
10380SOL    HW132039   3.521   1.582   5.147  0.1181  0.7793  0.1097
10380SOL    HW232040   3.632   1.522   5.044  0.1413 -0.3170  0.7587
10381SOL     OW32041   3.839   6.763   5.497  0.1665  0.2022 -0.6914
10381SOL    HW132042   3.808   6.692   5.560 -3.1246 -0.2673 -2.6454
10381SOL    HW232043   3.838   6.852   5.544 -0.3303 -0.3733  0.4266
10382SOL     OW32044   0.401   5.699   2.191 -0.1836 -0.0570 -0.0359
10382SOL    HW132045   0.376   5.695   2.287 -2.1720  0.2888 -0.4825
10382SOL    HW232046   0.353   5.627   2.141 -0.0419  0.4519 -0.9280
10383SOL     OW32047   7.020   3.739   1.534  0.7253  0.3428 -0.1626
10383SOL    HW132048   6.962   3.773   1.609  1.0703 -0.2850  0.3980
10383SOL    HW232049   6.992   3.647   1.510  1.9126 -0.2390  0.5866
10384SOL     OW32050   4.314   1.690   6.752  0.0524 -0.0250 -0.1386
10384SOL    HW132051   4.305   1.770   6.811  1.5907  0.3480 -0.3762
10384SOL    HW232052   4.301   1.607   6.807 -1.9541  0.3406  0.0344
10385SOL     OW32053   5.534   5.252   6.106  0.8292  0.0549 -0.2621
10385SOL    HW132054   5.467   5.201   6.160  0.9355 -0.1070 -0.2834
10385SOL    HW232055   5.626   5.235   6.141  0.7994  0.7998  0.1775
10386SOL     OW32056   1.075   1.699   6.944 -0.5254 -0.1707 -0.2768
10386SOL    HW132057   1.090   1.646   7.028  0.2681  2.5663  1.4435
10386SOL    HW232058   0.977   1.704   6.925 -0.6627 -1.6122 -0.1126
10387SOL     OW32059   2.338   5.643   3.827 -0.3143 -0.2158 -0.5574
10387SOL    HW132060   2.360   5.626   3.731 -1.0762  1.1657 -1.0015
10387SOL    HW232061   2.255   5.593   3.851 -0.5067 -0.0212 -0.8136
10388SOL     OW32062   2.346   4.644   1.277  0.1250 -0.1227  0.3433
10388SOL    HW132063   2.253   4.608   1.274 -1.0408  2.6623 -1.1247
10388SOL    HW232064   2.409   4.578   1.236 -0.7791 -2.8677  2.9840
10389SOL     OW32065   2.853   4.815   2.384 -1.1114 -0.2384  0.6633
10389SOL    HW132066   2.905   4.751   2.327 -1.4783 -0.5561  0.6756
10389SOL    HW232067   2.844   4.903   2.337 -0.4281 -0.1310  0.7349
10390SOL     OW32068   1.489   3.436   1.539 -0.0661  0.3604  0.0993
10390SOL    HW132069   1.511   3.346   1.502 -0.0783  0.5320 -0.3269
10390SOL    HW232070   1.574   3.490   1.548 -0.0695  0.3363  0.2703
10391SOL     OW32071   3.188   0.063   5.507  1.0872  0.3857  0.2625
10391SOL    HW132072   3.133  -0.000   5.454  1.5980 -0.5718  0.8398
10391SOL    HW232073   3.208   0.145   5.452 -1.6787  1.2224  0.3693
10392SOL     OW32074   5.796   4.598   0.914  0.0061  0.2354 -0.4786
10392SOL    HW132075   5.721   4.661   0.937  0.4666  1.0583 -1.1601
10392SOL    HW232076   5.775   4.552   0.828  0.0907  0.1513 -0.4532
10393SOL     OW32077   1.752   2.556   6.060 -0.3823 -0.3993  0.2382
10393SOL    HW132078   1.839   2.529   6.020 -0.8977  0.4499 -1.5528
10393SOL    HW232079   1.692   2.593   5.989 -1.5789  0.6430  1.7160
10394SOL     OW32080   4.020   0.218   6.878  0.5057 -0.2494 -0.5622
10394SOL    HW132081   4.020   0.257   6.970  1.9517 -0.1154 -0.5854
10394SOL    HW232082   3.934   0.170   6.861 -0.0685  0.3441  0.5817
10395SOL     OW32083   1.919   0.015   2.811  0.0607 -0.7066  0.1736
10395SOL    HW132084   1.957   0.057   2.728  0.3649 -1.7518 -0.2335
10395SOL    HW232085   1.992  -0.006   2.875 -0.3781  2.7657  2.0731
10396SOL     OW32086   5.707   0.999   6.217 -0.6572 -0.2683  0.1129
10396SOL    HW132087   5.637   1.045   6.271 -1.2516  1.0198 -1.6556
10396SOL    HW232088   5.697   1.024   6.121 -0.3022 -3.2558 -0.8194
10397SOL     OW32089   3.931   1.333   4.069  0.2315 -0.0506 -0.0301
10397SOL    HW132090   3.995   1.358   3.996 -0.7529 -0.2979 -1.0103
10397SOL    HW232091   3.839   1.366   4.045 -0.5896 -2.1744 -0.0702
10398SOL     OW32092   6.322   1.529   2.539  0.3496  0.1021  0.5066
10398SOL    HW132093   6.270   1.577   2.609  1.8497 -0.1069  1.8303
10398SOL    HW232094   6.348   1.592   2.467  1.6407  1.1746  1.8400
10399SOL     OW32095   1.167   2.896   5.990 -0.4619  0.1564 -0.0541
10399SOL    HW132096   1.206   2.960   5.922  0.9589 -0.2417  0.3592
10399SOL    HW232097   1.169   2.803   5.953 -0.8442  0.1006  0.0608
10400SOL     OW32098   2.432   5.052   4.337  0.3300  0.2755 -0.2392
10400SOL    HW132099   2.340   5.047   4.376  0.1289  2.0644 -0.3881
10400SOL    HW232100   2.483   4.970   4.361 -2.1071 -2.0323 -2.2998
10401SOL     OW32101   2.850   5.980   1.239 -0.5385  0.1091  0.2736
10401SOL    HW132102   2.905   6.013   1.162 -0.8076  1.0081  0.4455
10401SOL    HW232103   2.777   5.921   1.205 -0.9759  0.9155 -0.2394
10402SOL     OW32104   1.806   0.871   4.379  0.0401 -0.4228  0.2831
10402SOL    HW132105   1.872   0.887   4.452 -0.3625  1.1946  0.3338
10402SOL    HW232106   1.747   0.951   4.369 -1.5760 -1.5946 -0.1180
10403SOL     OW32107   5.611   2.113   5.910  0.5102  0.4682  0.0600
10403SOL    HW132108   5.516   2.137   5.891  0.2962 -0.2505  0.1904
10403SOL    HW232109   5.663   2.196   5.931 -0.2807  0.7806  0.8622
10404SOL     OW32110   0.143   1.130   5.177 -0.6639  0.5907 -0.5105
10404SOL    HW132111   0.091   1.081   5.107 -2.4462 -0.6281  1.5598
10404SOL    HW232112   0.190   1.208   5.135 -2.8806  0.8188 -2.8020
10405SOL     OW32113   3.418   1.570   6.811  0.1673 -0.1542  0.2468
10405SOL    HW132114   3.458   1.632   6.744  1.9455 -0.4968  0.9254
10405SOL    HW232115   3.401   1.481   6.768  0.8131 -0.2171  0.1167
10406SOL     OW32116   1.153   0.782   2.990  0.1516  0.1854 -0.5379
10406SOL    HW132117   1.230   0.782   3.054  0.8677  0.0100 -1.3780
10406SOL    HW232118   1.114   0.874   2.985 -0.7604 -0.0620  1.1109
10407SOL     OW32119   3.582   6.120   6.346  0.8721  0.4764 -0.3950
10407SOL    HW132120   3.524   6.057   6.295  0.4689  0.2449  0.3343
10407SOL    HW232121   3.574   6.212   6.306  0.6739  0.2748 -0.8256
10408SOL     OW32122   2.497   6.988   1.447 -0.1917 -0.0954 -0.4133
10408SOL    HW132123   2.463   7.078   1.474 -0.7644  0.0356 -1.5056
10408SOL    HW232124   2.597   6.990   1.445 -0.0289 -0.4570  2.7434
10409SOL     OW32125   0.728   3.348   3.232 -0.0765  0.2010 -0.1711
10409SOL    HW132126   0.713   3.253   3.204 -0.2420  0.6882 -1.8720
10409SOL    HW232127   0.640   3.394   3.243  0.0091  0.3402 -0.0687
10410SOL     OW32128   5.119   4.601   6.450  0.5857  0.3626  0.6159
10410SOL    HW132129   5.210   4.572   6.419  0.5259  0.2739  0.5226
10410SOL    HW232130   5.071   4.646   6.375  0.0173 -0.8322  0.2504
10411SOL     OW32131   2.710   4.839   1.904  0.8677 -0.0880 -0.2326
10411SOL    HW132132   2.693   4.899   1.983 -1.2869 -1.0243  0.1038
10411SOL    HW232133   2.736   4.748   1.937  1.8506  0.0142 -0.6856
10412SOL     OW32134   0.745   4.256   4.911  0.4881  0.4410  0.0842
10412SOL    HW132135   0.751   4.158   4.928 -1.4120  0.2342 -0.2636
10412SOL    HW232136   0.828   4.301   4.946  1.3514 -1.2480  0.3126
10413SOL     OW32137   1.481   0.985   4.534 -0.5222  0.1814 -0.2020
10413SOL    HW132138   1.381   0.985   4.546 -0.7406 -1.9561 -1.5457
10413SOL    HW232139   1.504   0.946   4.444  1.5555  0.1617  0.2895
10414SOL     OW32140   4.470   5.695   5.569  0.3478  0.0760 -0.5957
10414SOL    HW132141   4.393   5.711   5.631  1.0596 -0.1162  0.3698
10414SOL    HW232142   4.504   5.601   5.581  1.6487  0.5958  0.0787
10415SOL     OW32143   1.925   4.604   1.019  0.4851 -0.4290 -0.1484
10415SOL    HW132144   1.858   4.550   0.968 -0.6164  0.5455  0.2011
10415SOL    HW232145   1.987   4.649   0.955 -0.4468  0.2197 -0.6321
10416SOL     OW32146   2.813   2.423   0.047 -0.4591  0.5102 -0.0680
10416SOL    HW132147   2.808   2.343  -0.012  1.0766  1.2797 -1.3113
10416SOL    HW232148   2.836   2.394   0.140  1.8428 -0.4148 -0.8563
10417SOL     OW32149   4.431   5.364   4.665 -0.1355  0.3624  0.9083
10417SOL    HW132150   4.339   5.326   4.667  0.0784 -0.1489  1.1163
10417SOL    HW232151   4.476   5.347   4.753  0.3578  0.1140  0.6098
10418SOL     OW32152   5.927   3.352   0.375  0.1969 -0.5535  0.0253
10418SOL    HW132153   5.957   3.445   0.396  1.8569 -0.6541 -1.6471
10418SOL    HW232154   5.893   3.308   0.459 -2.1232  2.0122  0.5827
10419SOL     OW32155   0.060   1.655   5.218 -0.1301  0.6439  0.0610
10419SOL    HW132156   0.112   1.736   5.246  1.4934  0.0012 -0.9859
10419SOL    HW232157  -0.008   1.682   5.149 -0.0076  1.2084  0.1521
10420SOL     OW32158   5.668   4.332   4.836  0.1118 -0.2263  0.3116
10420SOL    HW132159   5.573   4.314   4.810  0.4112 -2.6051  0.6618
10420SOL    HW232160   5.700   4.262   4.900  1.7778  1.1690  1.1098
10421SOL     OW32161   0.659   5.534   4.925  0.4603 -0.3761  0.0069
10421SOL    HW132162   0.661   5.473   4.846 -0.3673 -1.4455  0.7775
10421SOL    HW232163   0.636   5.626   4.895 -3.2056 -1.3654 -0.7345
10422SOL     OW32164   5.043   3.563   5.549  0.2540 -0.3410  0.2212
10422SOL    HW132165   4.972   3.527   5.609 -1.0193  0.0081 -1.0450
10422SOL    HW232166   5.031   3.526   5.456  2.7078 -1.6003  0.2967
10423SOL     OW32167   2.048   5.618   1.765 -0.5471  0.3151 -0.4047
10423SOL    HW132168   2.087   5.529   1.740  1.5858  0.3792  2.1792
10423SOL    HW232169   2.064   5.683   1.691  2.0606 -0.3568 -0.5281
10424SOL     OW32170   4.502   6.194   3.265  0.0045  0.1749 -0.2866
10424SOL    HW132171   4.488   6.292   3.255 -2.0010  0.0845  1.0680
10424SOL    HW232172   4.542   6.174   3.355  0.3192 -0.2603 -0.5181
10425SOL     OW32173   6.277   6.328   1.439  0.1443  0.7503  0.2556
10425SOL    HW132174   6.357   6.345   1.381  0.6050  0.3973  0.7757
10425SOL    HW232175   6.236   6.241   1.413  0.6629  0.3358  0.7961
10426SOL     OW32176   6.384   1.519   6.982 -0.1034 -0.4485  0.2347
10426SOL    HW132177   6.427   1.561   7.062 -0.3862 -0.0126  0.1633
10426SOL    HW232178   6.285   1.511   6.998 -0.1768 -0.2539 -0.1111
10427SOL     OW32179   4.574   1.021   2.621 -0.2165 -0.4543  0.2252
10427SOL    HW132180   4.661   0.978   2.596  1.8547  1.8820  2.7535
10427SOL    HW232181   4.588   1.081   2.700 -3.9757  0.8362  0.1145
10428SOL     OW32182   3.084   0.239   6.398 -0.1094 -0.2906 -0.3278
10428SOL    HW132183   3.082   0.223   6.497 -0.4454 -0.9942 -0.4471
10428SOL    HW232184   3.084   0.152   6.350  0.4266  0.0461 -0.9485
10429SOL     OW32185   2.365   4.655   1.699  0.6798  0.3571  0.3414
10429SOL    HW132186   2.354   4.724   1.770  2.0933 -0.1895  1.1211
10429SOL    HW232187   2.457   4.617   1.703 -0.3166 -2.2518  0.5596
10430SOL     OW32188   2.568   1.053   4.244  0.1043  0.3620  0.1523
10430SOL    HW132189   2.613   0.985   4.186  0.1799  0.3716  0.2004
10430SOL    HW232190   2.628   1.132   4.256 -0.4236  0.9254 -0.8145
10431SOL     OW32191   4.568   2.763   5.413  0.2801 -0.3648  0.4834
10431SOL    HW132192   4.624   2.767   5.330 -1.3292 -0.3770 -0.6590
10431SOL    HW232193   4.534   2.855   5.434 -1.7430 -0.7802 -0.6727
10432SOL     OW32194   1.485   4.097   1.028  0.4647  0.2007 -0.0875
10432SOL    HW132195   1.547   4.031   0.985 -0.2506 -0.1413 -0.6122
10432SOL    HW232196   1.460   4.167   0.961 -0.3814 -0.1368 -0.1292
10433SOL     OW32197   2.600   0.630   5.092 -0.0354 -0.1697  0.2025
10433SOL    HW132198   2.594   0.557   5.160  1.3298 -0.0332  0.4978
10433SOL    HW232199   2.617   0.590   5.002  0.3073 -0.2467  0.2993
10434SOL     OW32200   5.212   1.921   2.005  0.4901 -0.6354  0.7411
10434SOL    HW132201   5.275   1.945   2.080 -0.5040  0.0224  1.3807
10434SOL    HW232202   5.119   1.914   2.040 -0.3301  1.6783 -0.7757
10435SOL     OW32203   4.423   1.811   0.335  0.3110 -0.1117 -0.0183
10435SOL    HW132204   4.435   1.810   0.236  0.7407 -2.3999  0.0024
10435SOL    HW232205   4.363   1.736   0.362  1.0585 -0.1924  1.5444
10436SOL     OW32206   0.743   1.617   3.166  0.3988  0.2851 -0.1106
10436SOL    HW132207   0.763   1.680   3.091  2.7603  0.7569  0.8052
10436SOL    HW232208   0.770   1.524   3.140 -0.7347  0.0816 -0.5732
10437SOL     OW32209   5.790   6.867   5.274 -0.1363 -0.1209 -0.1198
10437SOL    HW132210   5.735   6.923   5.335 -0.9074  0.3097 -1.1781
10437SOL    HW232211   5.887   6.878   5.296 -0.3739  0.3605  0.7193
10438SOL     OW32212   6.363   5.576   0.455  0.1195 -0.1040 -0.0372
10438SOL    HW132213   6.438   5.632   0.419 -1.3573  1.2528 -1.1700
10438SOL    HW232214   6.290   5.572   0.387 -0.7402 -1.6475  0.9181
10439SOL     OW32215   5.019   5.542   5.145 -1.3468 -0.1609  0.0338
10439SOL    HW132216   5.071   5.460   5.119 -0.9331  0.0813  0.0853
10439SOL    HW232217   5.027   5.557   5.243 -0.9882  0.2360 -0.0540
10440SOL     OW32218   5.338   2.604   3.008  0.1524 -0.1218 -0.8320
10440SOL    HW132219   5.380   2.564   3.090  0.1696  1.0303 -0.2678
10440SOL    HW232220   5.311   2.530   2.946 -1.5209 -1.1272  0.9933
10441SOL     OW32221   6.435   0.966   5.916  0.0641 -0.5429 -0.3325
10441SOL    HW132222   6.423   0.929   5.824  0.1550 -0.0325 -0.5522
10441SOL    HW232223   6.363   1.032   5.935  1.7405  1.6505 -1.2113
10442SOL     OW32224   4.224   6.084   3.973 -0.4982  0.5248 -0.1222
10442SOL    HW132225   4.140   6.133   3.952 -0.3102 -0.3228 -3.3462
10442SOL    HW232226   4.238   6.011   3.907  1.9972 -0.3889  1.2670
10443SOL     OW32227   6.390   0.301   6.243  0.2012 -0.0274  0.9554
10443SOL    HW132228   6.371   0.356   6.162 -0.6121 -1.2540  0.2824
10443SOL    HW232229   6.317   0.316   6.311 -0.4899 -0.8713  0.4294
10444SOL     OW32230   3.370   6.017   5.076  0.3826  0.3901  0.0469
10444SOL    HW132231   3.339   5.929   5.112  3.7526 -1.1324 -0.3619
10444SOL    HW232232   3.336   6.029   4.983  0.8136 -1.1213 -0.3422
10445SOL     OW32233   2.378   1.866   3.632 -0.1121  0.2772  0.3807
10445SOL    HW132234   2.322   1.947   3.647  0.3157  0.2295  2.4968
10445SOL    HW232235   2.446   1.885   3.561 -0.2929  1.6209  0.5438
10446SOL     OW32236   1.648   6.197   4.938  0.0345  0.2396  0.1410
10446SOL    HW132237   1.563   6.246   4.916 -0.4539 -1.8182 -3.4472
10446SOL    HW232238   1.726   6.249   4.903  0.1007  1.0402  1.4086
10447SOL     OW32239   3.015   1.055   4.293 -0.2072  0.2350  0.1993
10447SOL    HW132240   2.987   1.141   4.336 -0.1283 -0.5485  1.9039
10447SOL    HW232241   3.098   1.070   4.239 -0.0394  1.1681  0.6981
10448SOL     OW32242   0.375   5.680   0.503 -0.0950 -0.2487  0.1085
10448SOL    HW132243   0.297   5.618   0.505  0.1909 -0.5895  0.8638
10448SOL    HW232244   0.422   5.670   0.415 -1.0824  0.2031 -0.4925
10449SOL     OW32245   2.561   5.883   5.657 -0.2368  0.1533  0.4693
10449SOL    HW132246   2.483   5.905   5.715  0.0662  1.5929  0.3818
10449SOL    HW232247   2.573   5.956   5.589  1.9974  0.6923  1.3581
10450SOL     OW32248   6.882   3.325   5.225  0.0881 -0.4907 -0.2245
10450SOL    HW132249   6.824   3.257   5.179 -0.7870  0.9669 -1.3413
10450SOL    HW232250   6.853   3.334   5.320 -2.0967  0.7554 -0.9374
10451SOL     OW32251   0.659   1.710   3.437 -0.6393 -0.1959 -0.0266
10451SOL    HW132252   0.728   1.701   3.509 -1.2311  3.4157  1.1693
10451SOL    HW232253   0.700   1.684   3.349  0.4602 -3.4940  1.3048
10452SOL     OW32254   6.307   4.064   4.403  0.1667  0.0990 -0.3455
10452SOL    HW132255   6.264   4.028   4.320 -1.9610 -3.0284  1.8810
10452SOL    HW232256   6.400   4.027   4.410  0.4298  0.5209 -1.3566
10453SOL     OW32257   3.942   5.431   3.811  0.3516 -0.0869 -0.5357
10453SOL    HW132258   3.883   5.367   3.861  1.0181 -0.1707  0.1544
10453SOL    HW232259   3.968   5.506   3.871  0.8297  0.0282 -0.8803
10454SOL     OW32260   6.765   2.075   6.250 -0.2299 -0.1183  0.1087
10454SOL    HW132261   6.746   2.136   6.327  0.7258 -1.1376  1.1999
10454SOL    HW232262   6.716   2.107   6.169  0.0689  1.9585  0.6785
10455SOL     OW32263   5.907   1.865   3.848 -0.1769  0.1669 -0.0527
10455SOL    HW132264   6.007   1.873   3.845 -0.0135 -1.4065  0.2385
10455SOL    HW232265   5.880   1.779   3.805 -1.2636 -0.3233  1.5532
10456SOL     OW32266   6.908   4.958   4.499 -0.2681  0.1666  0.0593
10456SOL    HW132267   6.932   4.943   4.595  2.1632  0.7592 -0.3882
10456SOL    HW232268   6.845   4.886   4.469  0.2048 -0.9738  1.6468
10457SOL     OW32269   6.508   1.800   1.649 -0.1035 -0.7742  0.4951
10457SOL    HW132270   6.466   1.860   1.580  1.5341  0.0641  0.1826
10457SOL    HW232271   6.607   1.799   1.637  0.3601  0.1144  3.3708
10458SOL     OW32272   1.356   1.581   6.915 -0.2717  0.3201 -0.0147
10458SOL    HW132273   1.407   1.563   6.999  1.8869  0.7470 -1.1433
10458SOL    HW232274   1.291   1.656   6.930  0.8144  1.0973  1.0194
10459SOL     OW32275   6.253   6.363   0.874 -0.0423  0.9667  0.3187
10459SOL    HW132276   6.249   6.431   0.948  1.1691  2.6651 -1.0843
10459SOL    HW232277   6.264   6.410   0.787 -0.4080 -1.0326 -0.8595
10460SOL     OW32278   5.704   3.379   5.416 -0.1842 -0.6390  0.0536
10460SOL    HW132279   5.800   3.400   5.434 -0.9296  1.7403  1.8169
10460SOL    HW232280   5.667   3.446   5.351 -1.0959 -0.3367  0.8633
10461SOL     OW32281   6.307   5.038   6.420 -0.0274  0.2392  0.0570
10461SOL    HW132282   6.335   5.134   6.414 -1.2484  0.7008  1.3217
10461SOL    HW232283   6.326   5.004   6.512  1.3010 -1.0607 -0.6582
10462SOL     OW32284   4.763   4.184   6.173 -0.0252  0.1797 -0.1780
10462SOL    HW132285   4.793   4.165   6.267  1.0840 -1.3533 -0.7914
10462SOL    HW232286   4.666   4.162   6.164  0.0219 -0.3248  0.4443
10463SOL     OW32287   4.468   2.939   5.748 -0.0528 -0.2933 -0.4481
10463SOL    HW132288   4.566   2.924   5.756 -0.0778  0.1989  1.5065
10463SOL    HW232289   4.443   2.952   5.653  1.6772 -0.9956 -1.0378
10464SOL     OW32290   5.155   4.097   3.031  0.1488  0.1505 -0.4158
10464SOL    HW132291   5.165   4.154   3.113 -2.7145 -1.1007  0.9790
10464SOL    HW232292   5.223   4.023   3.033 -1.7147 -1.7099  2.6544
10465SOL     OW32293   3.754   4.332   5.799 -0.4879 -0.2426 -0.4131
10465SOL    HW132294   3.678   4.394   5.817 -1.4844 -1.2834 -0.9644
10465SOL    HW232295   3.720   4.247   5.760  0.9152 -0.9498 -0.1601
10466SOL     OW32296   6.646   3.565   5.463  0.6032  0.0362  0.0180
10466SOL    HW132297   6.685   3.473   5.474 -0.1134 -0.4492 -1.3007
10466SOL    HW232298   6.552   3.565   5.498  0.6634  0.3353  0.1873
10467SOL     OW32299   1.917   3.167   6.974  0.1171  0.0415  0.3722
10467SOL    HW132300   1.842   3.129   6.921  1.0433  0.4256 -1.2831
10467SOL    HW232301   1.889   3.254   7.014  0.3108  1.3277 -2.1083
10468SOL     OW32302   2.157   4.664   2.147 -0.2889 -0.1782 -0.2993
10468SOL    HW132303   2.087   4.607   2.103 -0.9721 -0.2421  0.8482
10468SOL    HW232304   2.119   4.756   2.163  0.0566 -0.0731 -0.0900
10469SOL     OW32305   0.140   0.000   3.328  0.1424  0.4809 -0.5765
10469SOL    HW132306   0.155   0.016   3.231  0.4307  0.0177 -0.6124
10469SOL    HW232307   0.147   0.087   3.378  0.3108  0.6720 -0.9289
10470SOL     OW32308   3.534   4.539   0.373 -0.4568  0.6326  0.2749
10470SOL    HW132309   3.459   4.560   0.309  0.5156  0.1603 -1.0700
10470SOL    HW232310   3.621   4.553   0.326  0.3001  0.9561  1.7515
10471SOL     OW32311   0.692   3.920   6.105  0.3703 -0.2403  0.7811
10471SOL    HW132312   0.654   3.862   6.034  2.6661 -0.7798 -0.0771
10471SOL    HW232313   0.683   3.875   6.194  0.3051 -0.9770  0.4011
10472SOL     OW32314   1.762   5.745   0.624 -0.3083 -0.0703  0.3963
10472SOL    HW132315   1.768   5.817   0.694  1.0593  0.3221 -0.0912
10472SOL    HW232316   1.724   5.663   0.665 -1.2224  0.7016  1.1469
10473SOL     OW32317   6.271   6.074   1.045 -0.1369  0.4963 -0.4448
10473SOL    HW132318   6.290   6.170   1.024 -0.4626  0.6119 -0.2114
10473SOL    HW232319   6.197   6.041   0.986 -0.9123  0.7628  0.3637
10474SOL     OW32320   5.584   6.422   5.776 -0.1016 -0.4703  0.2406
10474SOL    HW132321   5.576   6.482   5.855  1.0532 -0.3567  0.2868
10474SOL    HW232322   5.496   6.417   5.729 -0.4769  0.4412  0.8180
10475SOL     OW32323   0.418   5.194   3.049  0.2023  0.4337 -0.0821
10475SOL    HW132324   0.403   5.293   3.054  2.2896  0.7484  1.0255
10475SOL    HW232325   0.462   5.163   3.133 -0.5512 -1.4859 -0.3546
10476SOL     OW32326   5.961   5.613   2.657  0.0393  0.3841  0.2547
10476SOL    HW132327   5.990   5.659   2.573 -0.0473 -1.4166 -0.8073
10476SOL    HW232328   5.870   5.645   2.682 -0.5737 -0.1071 -1.2104
10477SOL     OW32329   0.624   0.265   2.096  0.3589 -0.3745 -0.0428
10477SOL    HW132330   0.663   0.336   2.155  1.1922  0.3136 -1.3508
10477SOL    HW232331   0.558   0.211   2.147 -2.0067  2.7313  0.4936
10478SOL     OW32332   6.512   3.166   7.009 -0.1397 -0.8617  0.7620
10478SOL    HW132333   6.532   3.089   7.070 -1.0013 -1.2536  0.5643
10478SOL    HW232334   6.540   3.143   6.916  0.6083 -0.5029  0.8917
10479SOL     OW32335   6.642   5.157   2.512  0.1303  0.0473  0.3754
10479SOL    HW132336   6.555   5.122   2.478 -0.2641 -0.4466  1.8281
10479SOL    HW232337   6.675   5.098   2.586  1.8524  0.0571 -0.3341
10480SOL     OW32338   1.471   1.102   0.857 -0.0165  0.0038 -0.3458
10480SOL    HW132339   1.451   1.172   0.789  2.4468  0.4041 -0.7401
10480SOL    HW232340   1.453   1.138   0.949 -0.1913  0.6095 -0.6163
10481SOL     OW32341   5.099   0.539   0.516 -0.4902 -0.3668  0.2166
10481SOL    HW132342   5.189   0.570   0.547 -0.7641 -1.3844  2.0997
10481SOL    HW232343   5.031   0.610   0.536 -0.2309  0.1708 -0.7143
10482SOL     OW32344   5.384   4.298   4.209  0.0755  0.2592  0.1751
10482SOL    HW132345   5.439   4.351   4.274  0.6056  0.3113 -0.3071
10482SOL    HW232346   5.401   4.331   4.117 -1.8340  1.2218  0.1218
10483SOL     OW32347   5.026   1.502   3.868 -0.1344  0.0625 -0.0730
10483SOL    HW132348   5.109   1.498   3.814  1.6152 -2.9223  2.4892
10483SOL    HW232349   4.988   1.594   3.865  1.7888  0.8794 -3.3642
10484SOL     OW32350   5.353   0.619   0.576 -0.1014  0.3873  0.3491
10484SOL    HW132351   5.411   0.562   0.634 -1.4398 -0.2535  1.1053
10484SOL    HW232352   5.403   0.645   0.493  1.0421 -0.6376  0.6961
10485SOL     OW32353   4.938   2.355   5.720 -0.0758  0.1722 -0.2432
10485SOL    HW132354   5.038   2.346   5.714 -0.0080  0.7307  0.0041
10485SOL    HW232355   4.899   2.354   5.628 -0.1226 -2.9631 -0.2895
10486SOL     OW32356   6.899   2.198   3.204 -0.3333  0.1066  0.0539
10486SOL    HW132357   6.986   2.170   3.244 -1.7935 -1.0137  2.7302
10486SOL    HW232358   6.865   2.280   3.251 -0.2025  1.3034 -1.8180
10487SOL     OW32359   2.221   6.011   3.383 -0.3128 -0.1465 -0.1445
10487SOL    HW132360   2.206   5.941   3.314 -2.3730  0.3046 -0.2270
10487SOL    HW232361   2.277   5.974   3.457 -0.1924 -1.4171 -0.8433
10488SOL     OW32362   4.178   3.601   6.002  0.1223 -0.0799 -0.0464
10488SOL    HW132363   4.275   3.588   5.982 -0.4919 -2.8666 -1.6744
10488SOL    HW232364   4.132   3.638   5.922 -0.3499  0.3273  0.4018
10489SOL     OW32365   1.780   4.693   4.372 -0.6150 -0.5673  0.4593
10489SOL    HW132366   1.731   4.612   4.403 -2.2164 -0.9994 -2.7237
10489SOL    HW232367   1.717   4.770   4.368  0.0250 -0.0458  0.2494
10490SOL     OW32368   6.223   0.051   2.961 -0.1317 -0.0499 -0.1917
10490SOL    HW132369   6.182  -0.005   3.034 -0.4011  0.3578 -0.0266
10490SOL    HW232370   6.283   0.120   3.002 -1.4103  1.1350 -0.2427
10491SOL     OW32371   0.285   6.267   3.309  0.2153 -0.0662 -0.0006
10491SOL    HW132372   0.286   6.167   3.321 -0.5900  0.1375  2.1072
10491SOL    HW232373   0.377   6.303   3.323  0.3052 -0.4159  0.3342
10492SOL     OW32374   5.934   3.100   6.328 -0.7493  0.1317 -0.0351
10492SOL    HW132375   5.925   3.199   6.341  1.7704  0.1682  2.4029
10492SOL    HW232376   5.990   3.082   6.248 -0.1906  0.7383  0.2084
10493SOL     OW32377   1.040   1.845   6.268 -0.1153 -0.4036  0.1469
10493SOL    HW132378   1.114   1.818   6.207 -0.8702 -0.7234 -0.6440
10493SOL    HW232379   1.061   1.816   6.361  0.3473 -1.2794 -0.2202
10494SOL     OW32380   5.414   6.809   3.543 -0.1243 -0.1991  0.0878
10494SOL    HW132381   5.483   6.739   3.523  0.1085 -0.0274  0.2761
10494SOL    HW232382   5.445   6.865   3.620 -0.4028 -0.0195  0.0703
10495SOL     OW32383   0.442   2.057   0.347  0.0077 -0.0078 -0.1123
10495SOL    HW132384   0.374   1.999   0.393  0.3317 -0.0546  0.3086
10495SOL    HW232385   0.476   2.126   0.411  0.9904 -0.5214 -0.0614
10496SOL     OW32386   1.486   1.971   5.182  1.0812 -0.3643 -0.2385
10496SOL    HW132387   1.504   2.067   5.203  0.3260 -0.2550 -0.0715
10496SOL    HW232388   1.491   1.958   5.083  0.2164  0.0620 -0.3510
10497SOL     OW32389   1.311   0.504   4.101 -0.5694 -0.2975 -0.5144
10497SOL    HW132390   1.267   0.523   4.189 -2.4553  2.4309 -1.9147
10497SOL    HW232391   1.402   0.545   4.099  0.1490 -1.7375  0.6542
10498SOL     OW32392   3.018   5.580   5.562 -0.0423  0.3016  0.2521
10498SOL    HW132393   3.032   5.569   5.660 -0.8427  0.0914  0.3506
10498SOL    HW232394   3.047   5.496   5.515 -0.2243  0.1720  0.3700
10499SOL     OW32395   3.193   5.476   3.095 -0.2150 -0.2302  0.4336
10499SOL    HW132396   3.117   5.437   3.148  0.1620 -1.4969  0.0713
10499SOL    HW232397   3.174   5.465   2.997 -0.3027  0.9309  0.3044
10500SOL     OW32398   1.749   1.433   5.954 -0.1194  0.1031 -0.0007
10500SOL    HW132399   1.807   1.412   5.875 -0.4685  0.6746 -0.4135
10500SOL    HW232400   1.684   1.504   5.930  0.6100  1.2255  1.1644
10501SOL     OW32401   0.545   2.018   4.163 -0.3588 -0.0272  0.7033
10501SOL    HW132402   0.596   1.932   4.155  0.7867  0.7490 -0.7067
10501SOL    HW232403   0.479   2.024   4.088 -0.2565  0.4284  0.6469
10502SOL     OW32404   0.324   0.088   5.290 -0.3636  0.9925  0.6930
10502SOL    HW132405   0.299   0.183   5.313  0.0203  1.5974 -1.2172
10502SOL    HW232406   0.421   0.084   5.268  0.2135 -0.3758  3.1089
10503SOL     OW32407   1.701   3.568   5.930 -0.1357 -0.0230 -0.0300
10503SOL    HW132408   1.662   3.484   5.894 -0.8252  1.2936 -2.6073
10503SOL    HW232409   1.786   3.589   5.881  0.2345  0.5986  0.8477
10504SOL     OW32410   1.859   1.859   0.476  0.3164  0.0871  0.1366
10504SOL    HW132411   1.859   1.959   0.466  0.7773  0.0190 -0.6131
10504SOL    HW232412   1.766   1.828   0.496  0.1079  0.6352  0.0557
10505SOL     OW32413   0.861   4.824   0.636  0.3549  0.0719 -0.2917
10505SOL    HW132414   0.772   4.807   0.677  1.6142  0.2109  2.7719
10505SOL    HW232415   0.873   4.922   0.621 -0.1231  0.0160 -1.1181
10506SOL     OW32416   1.761   4.686   0.180 -0.9771  0.2413  0.0026
10506SOL    HW132417   1.743   4.679   0.081 -1.9682 -0.9626  0.2418
10506SOL    HW232418   1.693   4.747   0.221 -0.1075  1.3502 -0.1442
10507SOL     OW32419   3.652   0.345   3.032  0.0553 -0.0412  0.5251
10507SOL    HW132420   3.645   0.445   3.029  0.2769 -0.0379 -0.0105
10507SOL    HW232421   3.672   0.315   3.125 -2.0122  0.2839  1.1423
10508SOL     OW32422   0.336   5.757   1.780 -0.1728 -0.0403 -0.9971
10508SOL    HW132423   0.364   5.664   1.757 -0.1283  0.1133 -1.5779
10508SOL    HW232424   0.412   5.820   1.763 -0.4149  0.1890 -1.2517
10509SOL     OW32425   1.791   0.419   4.853 -0.4288  0.3017  0.1894
10509SOL    HW132426   1.741   0.397   4.936  1.0784  0.0798  1.0736
10509SOL    HW232427   1.793   0.519   4.841 -0.8898  0.3213  0.2499
10510SOL     OW32428   4.106   1.707   4.619  0.3206  0.0477  0.1655
10510SOL    HW132429   4.021   1.728   4.570  1.3361 -0.2760 -1.8084
10510SOL    HW232430   4.084   1.656   4.703 -1.3562 -0.9598 -0.8352
10511SOL     OW32431   7.009   3.334   2.717  0.4893 -0.6869 -0.7771
10511SOL    HW132432   6.925   3.380   2.746  0.2453 -1.1768 -0.6996
10511SOL    HW232433   7.086   3.397   2.726  0.2528 -0.4861 -0.0993
10512SOL     OW32434   1.937   1.623   6.455  0.1673  0.0921 -0.4328
10512SOL    HW132435   1.925   1.589   6.548  0.2873  0.3505 -0.3230
10512SOL    HW232436   1.867   1.692   6.435  0.0519 -0.0666 -0.5847
10513SOL     OW32437   6.841   2.853   1.220  0.0659  0.2373 -0.2925
10513SOL    HW132438   6.760   2.807   1.182  1.2133 -3.2148  1.0669
10513SOL    HW232439   6.923   2.814   1.180  1.1286  1.0701  0.9962
10514SOL     OW32440   2.632   2.078   2.417 -0.1038 -0.0220 -0.3536
10514SOL    HW132441   2.570   2.154   2.395 -0.4172  0.3798  1.6916
10514SOL    HW232442   2.579   1.998   2.444  0.2325  0.0901  0.6907
10515SOL     OW32443   0.355   3.663   4.654 -0.2045 -0.0199  0.2472
10515SOL    HW132444   0.396   3.747   4.618 -0.9599 -0.8289 -2.7412
10515SOL    HW232445   0.413   3.585   4.631 -1.0257 -0.6497  0.2864
10516SOL     OW32446   3.412   6.271   6.964 -0.1256 -0.0015  0.0800
10516SOL    HW132447   3.439   6.175   6.963 -0.2486 -0.0670  1.4103
10516SOL    HW232448   3.417   6.306   7.057  2.4432  2.0129 -0.6821
10517SOL     OW32449   5.852   2.802   4.988  1.0525  0.6458  0.6513
10517SOL    HW132450   5.831   2.900   4.999 -0.7512  0.4156 -0.3199
10517SOL    HW232451   5.923   2.791   4.919 -0.6222  1.2202 -1.2755
10518SOL     OW32452   0.046   0.916   2.124  0.1534 -0.1780 -0.0246
10518SOL    HW132453   0.081   0.860   2.200  2.8219 -0.7767 -1.5630
10518SOL    HW232454  -0.037   0.874   2.088 -0.4461 -0.5893  1.7157
10519SOL     OW32455   3.330   3.245   4.692  0.0119 -0.3069 -0.4455
10519SOL    HW132456   3.369   3.281   4.607 -0.3122 -0.5160 -0.6821
10519SOL    HW232457   3.244   3.292   4.712 -0.3382 -0.8427 -0.6778
10520SOL     OW32458   4.382   6.363   6.115  0.1350 -0.1771  1.0813
10520SOL    HW132459   4.468   6.415   6.111 -0.6888  1.1741  0.4532
10520SOL    HW232460   4.325   6.387   6.037 -0.6410 -1.4145  1.2518
10521SOL     OW32461   5.717   5.814   1.072  0.0356  0.4222  0.1251
10521SOL    HW132462   5.688   5.876   1.145 -0.3982  1.4148 -0.8777
10521SOL    HW232463   5.641   5.798   1.009  0.4373 -0.3346 -0.1820
10522SOL     OW32464   5.768   5.928   2.559  0.4678 -0.9934 -0.1784
10522SOL    HW132465   5.687   5.924   2.500  0.9419 -0.0412 -0.9380
10522SOL    HW232466   5.748   5.985   2.639  0.3557 -0.8007 -0.3401
10523SOL     OW32467   6.677   5.457   0.124 -0.0297 -0.2361  0.0596
10523SOL    HW132468   6.765   5.423   0.156  0.5618  0.2479 -0.9628
10523SOL    HW232469   6.666   5.434   0.027 -0.3060  1.0548 -0.2475
10524SOL     OW32470   5.888   2.943   5.358 -0.2103 -0.4568 -0.5091
10524SOL    HW132471   5.859   2.861   5.310  0.0838  0.4006 -2.2551
10524SOL    HW232472   5.809   3.001   5.376 -0.1502 -0.0677 -1.4235
10525SOL     OW32473   2.485   0.612   6.225  0.1919 -0.6090  0.0429
10525SOL    HW132474   2.498   0.654   6.315  0.7289 -1.9280  0.6022
10525SOL    HW232475   2.449   0.680   6.162  0.0481  0.4098  1.1860
10526SOL     OW32476   5.876   3.370   4.213  0.0085 -0.2654 -0.0035
10526SOL    HW132477   5.818   3.429   4.157  0.8753 -0.6019 -1.3221
10526SOL    HW232478   5.961   3.418   4.234  0.6195 -0.9160 -0.8880
10527SOL     OW32479   1.081   2.225   4.712 -0.1918 -0.3272  0.3678
10527SOL    HW132480   1.091   2.282   4.631 -0.8661 -2.2583 -1.1387
10527SOL    HW232481   1.024   2.273   4.779 -0.4556  0.8991 -0.6947
10528SOL     OW32482   4.641   1.313   6.829 -0.5741 -0.1825 -0.4918
10528SOL    HW132483   4.693   1.365   6.897 -1.2292  1.4749 -1.2005
10528SOL    HW232484   4.701   1.247   6.784  0.7269  1.1240 -0.7456
10529SOL     OW32485   5.895   4.885   5.231  0.6719 -0.3236 -0.0918
10529SOL    HW132486   5.945   4.868   5.316  0.9779 -0.9021 -0.3816
10529SOL    HW232487   5.884   4.799   5.181 -1.0550 -0.3106  0.2044
10530SOL     OW32488   6.722   0.864   3.436  0.6971  0.1092  0.1955
10530SOL    HW132489   6.677   0.917   3.507  1.6358  0.7060  0.3696
10530SOL    HW232490   6.818   0.893   3.429  1.3850 -1.9115  0.6544
10531SOL     OW32491   4.177   0.077   4.396 -0.2319 -0.3086 -0.1456
10531SOL    HW132492   4.156   0.111   4.488 -0.5978  1.9647 -1.0203
10531SOL    HW232493   4.243   0.137   4.352 -1.4627 -0.2710 -2.0522
10532SOL     OW32494   3.316   4.048   3.676  0.0716 -0.2525  0.2426
10532SOL    HW132495   3.303   4.075   3.580  0.0257  0.2331  0.3844
10532SOL    HW232496   3.378   3.970   3.680  1.3161  0.6809 -0.0881
10533SOL     OW32497   2.334   1.616   5.965 -0.2335 -0.1986 -0.1973
10533SOL    HW132498   2.276   1.589   5.888 -2.0522 -1.0422  1.3891
10533SOL    HW232499   2.325   1.549   6.039  1.6880  0.4351  0.6820
10534SOL     OW32500   5.234   3.488   2.581  0.4607 -0.4586  0.2615
10534SOL    HW132501   5.219   3.429   2.501  1.3525 -0.7738  0.3111
10534SOL    HW232502   5.227   3.584   2.553  0.7063 -0.5664 -0.1913
10535SOL     OW32503   0.710   0.537   0.731  0.0174 -0.3903  0.3495
10535SOL    HW132504   0.787   0.579   0.778  0.1999 -1.5098  1.0841
10535SOL    HW232505   0.740   0.454   0.684 -1.0401 -1.9000  2.1915
10536SOL     OW32506   6.013   6.137   4.196 -0.2144 -0.4990  0.1392
10536SOL    HW132507   6.059   6.060   4.152 -2.1417 -2.2054  0.9804
10536SOL    HW232508   6.071   6.218   4.189  1.5756 -1.8181 -1.3911
10537SOL     OW32509   5.069   3.798   2.063 -0.3792 -0.1680  0.0290
10537SOL    HW132510   5.157   3.821   2.105 -0.4622  0.9824 -0.3924
10537SOL    HW232511   5.053   3.700   2.072  0.2257 -0.1667  1.4848
10538SOL     OW32512   4.901   2.060   4.995  0.7635 -0.1135 -0.1070
10538SOL    HW132513   4.952   2.147   4.990 -1.6534  1.3381 -1.3966
10538SOL    HW232514   4.904   2.026   5.089  1.9525  1.2571  0.3989
10539SOL     OW32515   1.125   3.533   5.723 -0.8057 -0.1248  0.3578
10539SOL    HW132516   1.148   3.580   5.809  2.0348  0.3993 -0.5853
10539SOL    HW232517   1.130   3.434   5.737 -0.0309 -0.0382  0.7378
10540SOL     OW32518   3.953   1.386   0.684 -0.2092  0.5802  0.5280
10540SOL    HW132519   3.963   1.380   0.784 -1.3126  0.6883  0.6520
10540SOL    HW232520   3.903   1.470   0.661  0.1539  0.6187 -0.1275
10541SOL     OW32521   1.728   2.718   1.678 -0.1047  0.1957 -0.1600
10541SOL    HW132522   1.693   2.811   1.663 -0.1617  0.3562  0.8698
10541SOL    HW232523   1.776   2.687   1.597 -0.7387  0.8348 -0.7923
10542SOL     OW32524   2.191   3.623   0.997  0.2317  0.2777  0.7837
10542SOL    HW132525   2.159   3.559   1.067  1.0857 -0.3990  0.5722
10542SOL    HW232526   2.183   3.717   1.031 -1.1592  0.0831  1.0498
10543SOL     OW32527   2.568   6.098   2.808  0.5183 -0.0827 -0.4616
10543SOL    HW132528   2.512   6.169   2.852  0.1827 -0.0898 -0.8743
10543SOL    HW232529   2.543   6.009   2.846 -0.6032 -0.2280 -1.4685
10544SOL     OW32530   6.531   1.672   0.812 -0.1600 -0.4285  0.2263
10544SOL    HW132531   6.444   1.701   0.852 -0.8717 -2.3016  0.0972
10544SOL    HW232532   6.517   1.593   0.753  1.0963  1.3200 -2.6626
10545SOL     OW32533   3.361   6.846   3.719 -0.2681 -0.3430  0.1470
10545SOL    HW132534   3.399   6.818   3.630  0.3095 -2.6883  1.0558
10545SOL    HW232535   3.283   6.907   3.704  0.6364  0.4210 -1.9132
10546SOL     OW32536   4.571   1.734   4.245  0.4065 -0.1444 -0.2630
10546SOL    HW132537   4.509   1.678   4.300 -1.2328  2.2645  0.5373
10546SOL    HW232538   4.542   1.732   4.150 -1.5358  1.5035  0.1929
10547SOL     OW32539   6.255   1.479   4.521  0.3168 -0.5037 -0.3720
10547SOL    HW132540   6.194   1.453   4.446  0.5684  0.2660 -0.8595
10547SOL    HW232541   6.323   1.407   4.536  0.1262 -0.7613 -0.7405
10548SOL     OW32542   5.701   4.821   6.064 -0.1322  0.0576 -0.0608
10548SOL    HW132543   5.759   4.828   6.145  1.3584  1.2732 -1.1825
10548SOL    HW232544   5.610   4.858   6.084 -1.3140 -3.4903  2.2798
10549SOL     OW32545   5.498   1.826   2.607 -0.2005 -0.0412 -0.1006
10549SOL    HW132546   5.441   1.847   2.528  0.5771  0.5490 -0.5209
10549SOL    HW232547   5.517   1.911   2.658 -0.3809 -0.3584  0.5083
10550SOL     OW32548   5.585   6.678   4.600 -0.2208 -0.3009  0.2001
10550SOL    HW132549   5.672   6.725   4.608 -1.1481  1.5177  0.0050
10550SOL    HW232550   5.580   6.604   4.668  0.2488  1.5633  2.3681
10551SOL     OW32551   1.899   2.884   5.073  0.1810  0.2493  0.1023
10551SOL    HW132552   1.959   2.961   5.095 -0.0171  0.3013  0.4532
10551SOL    HW232553   1.804   2.910   5.088  0.1853 -0.4861  1.5084
10552SOL     OW32554   2.708   1.328   5.474 -0.0124  0.2588  0.1492
10552SOL    HW132555   2.677   1.267   5.401  2.0663  0.3819 -0.9047
10552SOL    HW232556   2.801   1.360   5.453  0.1717  1.2433  2.2794
10553SOL     OW32557   3.040   6.645   6.931 -0.1935 -0.5495 -0.3074
10553SOL    HW132558   2.990   6.726   6.961  0.5014 -0.3812  0.4424
10553SOL    HW232559   3.013   6.566   6.986  0.6339 -0.3707  0.3856
10554SOL     OW32560   4.547   4.760   0.018 -0.5705 -0.5003 -0.1697
10554SOL    HW132561   4.455   4.737  -0.013 -0.6359  1.0809 -1.2767
10554SOL    HW232562   4.542   4.829   0.090 -0.2714  1.0423 -1.5490
10555SOL     OW32563   4.045   2.729   6.124 -0.0194 -0.2849 -0.0336
10555SOL    HW132564   4.041   2.643   6.174 -0.2398  0.1220  0.6570
10555SOL    HW232565   4.017   2.804   6.183 -0.3329  0.2028 -0.7813
10556SOL     OW32566   3.686   5.554   4.375 -0.2257 -0.0768  0.3268
10556SOL    HW132567   3.679   5.513   4.285 -1.3772  0.2797  0.2446
10556SOL    HW232568   3.596   5.556   4.419  0.2598  0.0281  1.3629
10557SOL     OW32569   4.721   1.925   2.883  0.6407  0.0595 -0.0210
10557SOL    HW132570   4.762   1.931   2.792  0.8324 -0.7911  0.0045
10557SOL    HW232571   4.621   1.926   2.875  0.6520  0.8993 -0.1679
10558SOL     OW32572   5.737   4.879   7.019 -0.4246 -0.3063  0.0773
10558SOL    HW132573   5.659   4.924   6.976 -2.0470 -1.9214  1.1816
10558SOL    HW232574   5.774   4.810   6.957 -0.8293 -0.5533  0.1067
10559SOL     OW32575   3.422   3.522   2.027  0.1679  0.2931  0.2434
10559SOL    HW132576   3.330   3.538   1.989 -1.1536  0.1567  3.1232
10559SOL    HW232577   3.460   3.608   2.060 -0.4647 -0.1176  2.1615
10560SOL     OW32578   6.931   1.819   4.234  0.2382 -0.1919  0.0463
10560SOL    HW132579   6.902   1.734   4.190  1.1896 -1.3916  1.6213
10560SOL    HW232580   6.861   1.889   4.220 -1.0495 -1.5221 -0.4306
10561SOL     OW32581   1.567   4.353   6.692  0.1796 -0.0943 -0.3061
10561SOL    HW132582   1.650   4.307   6.659 -0.1270 -0.4575 -0.5775
10561SOL    HW232583   1.570   4.360   6.792  1.0276  0.8420 -0.3846
10562SOL     OW32584   5.738   4.258   5.897  0.2208  0.4282 -0.0961
10562SOL    HW132585   5.649   4.215   5.909  0.8031 -0.9687 -0.5560
10562SOL    HW232586   5.747   4.290   5.803 -0.0867  1.2849  0.1598
10563SOL     OW32587   1.898   1.872   1.927  0.1546 -0.2204  0.2328
10563SOL    HW132588   1.842   1.865   1.845  0.0650  0.5253  0.2202
10563SOL    HW232589   1.981   1.924   1.905 -0.1129  0.4235  0.7366
10564SOL     OW32590   0.170   1.465   3.658  0.3290  0.2891 -0.2072
10564SOL    HW132591   0.196   1.391   3.595 -0.0833 -0.3892  0.4036
10564SOL    HW232592   0.240   1.536   3.656  1.5261 -0.8333  0.3378
10565SOL     OW32593   5.793   2.136   3.882 -0.3049  0.1496 -0.0801
10565SOL    HW132594   5.821   2.044   3.855 -1.0253 -0.3841  0.9174
10565SOL    HW232595   5.832   2.158   3.971  0.4972  1.1341 -0.6510
10566SOL     OW32596   5.699   6.254   1.953  0.3134  0.1958  0.2735
10566SOL    HW132597   5.656   6.209   1.875 -0.3073  0.9518  0.1680
10566SOL    HW232598   5.734   6.185   2.017 -0.4915 -0.4292  0.0531
10567SOL     OW32599   0.769   6.030   5.263 -0.1795  0.3420  0.2374
10567SOL    HW132600   0.768   6.058   5.167 -0.7669  0.6694  0.3401
10567SOL    HW232601   0.846   5.968   5.278 -0.2179  0.1093 -0.4937
10568SOL     OW32602   3.580   0.467   1.803  0.1199 -0.0469  0.0313
10568SOL    HW132603   3.553   0.381   1.759  0.5462  0.0066 -0.3544
10568SOL    HW232604   3.499   0.521   1.825 -0.1087 -0.0430 -0.7694
10569SOL     OW32605   0.262   0.486   4.635  0.2859 -0.4822 -0.7054
10569SOL    HW132606   0.222   0.571   4.669 -0.3120 -0.6312 -1.0226
10569SOL    HW232607   0.223   0.465   4.546  0.3892 -1.1200 -0.6011
10570SOL     OW32608   0.647   3.060   0.961  0.1903  0.3387  0.9341
10570SOL    HW132609   0.663   3.011   0.875 -0.5229  1.2119  0.2895
10570SOL    HW232610   0.692   3.149   0.957  1.6489 -0.3044  2.1782
10571SOL     OW32611   6.028   6.563   5.489 -0.1507 -0.0697  0.2390
10571SOL    HW132612   5.977   6.573   5.574 -0.1922  0.9470  0.1039
10571SOL    HW232613   5.965   6.570   5.411 -0.0288 -0.4023  0.1084
10572SOL     OW32614   0.424   3.375   2.948  0.0477 -0.3272 -0.1865
10572SOL    HW132615   0.436   3.451   3.012  0.6197  0.6001 -1.3439
10572SOL    HW232616   0.466   3.293   2.986 -0.4646 -0.0477  1.0332
10573SOL     OW32617   5.800   5.160   4.364  0.0322 -0.1146  0.1090
10573SOL    HW132618   5.774   5.245   4.410 -0.6598 -0.2111 -0.0924
10573SOL    HW232619   5.796   5.174   4.265  3.9206  0.8758 -0.0908
10574SOL     OW32620   0.166   3.257   0.276 -0.1637  0.2051 -0.1958
10574SOL    HW132621   0.216   3.341   0.294 -1.0756  0.6124  0.5280
10574SOL    HW232622   0.188   3.224   0.184  1.4236  0.3530  0.0987
10575SOL     OW32623   0.229   6.031   6.824  0.1942  0.2752  0.4551
10575SOL    HW132624   0.326   6.014   6.842  0.5627 -0.2773 -1.6942
10575SOL    HW232625   0.184   6.063   6.907  1.9419 -0.6462  1.8193
10576SOL     OW32626   0.604   5.733   3.548 -0.0314 -0.3025  0.0233
10576SOL    HW132627   0.525   5.673   3.529 -0.0799 -0.5031  0.8145
10576SOL    HW232628   0.684   5.677   3.568 -0.7563 -0.2521  3.7555
10577SOL     OW32629   0.881   2.307   5.968 -0.0561 -0.6593 -0.0387
10577SOL    HW132630   0.919   2.268   5.884  0.9598 -0.8732  0.5042
10577SOL    HW232631   0.858   2.234   6.032  1.5082 -0.4223  0.8383
10578SOL     OW32632   4.149   2.078   6.447 -0.5557  0.7528  0.3896
10578SOL    HW132633   4.187   1.986   6.437 -0.1902  0.9951 -0.4976
10578SOL    HW232634   4.213   2.135   6.498 -0.6749  0.5928  0.7265
10579SOL     OW32635   5.109   4.366   1.295 -0.1775  0.1961 -0.9141
10579SOL    HW132636   5.018   4.335   1.321  0.2072 -0.5396 -0.4257
10579SOL    HW232637   5.119   4.360   1.196 -0.5903  0.1023 -0.9535
10580SOL     OW32638   6.757   3.693   2.187  0.0099  0.4637  0.3506
10580SOL    HW132639   6.747   3.656   2.279  1.5850  1.2838  0.8852
10580SOL    HW232640   6.831   3.760   2.186 -0.0486  0.5448 -1.4968
10581SOL     OW32641   4.119   0.378   3.545  0.3745  0.6904 -0.0652
10581SOL    HW132642   4.210   0.419   3.541 -0.4962  2.6328 -1.6009
10581SOL    HW232643   4.050   0.448   3.529 -1.5073 -0.5053  2.2534
10582SOL     OW32644   4.435   4.213   0.381 -0.0626 -0.0091  0.3681
10582SOL    HW132645   4.432   4.177   0.474  0.9177  2.0142  1.2561
10582SOL    HW232646   4.351   4.264   0.362 -0.3096 -0.5135  0.0980
10583SOL     OW32647   3.117   1.841   2.237 -0.6204 -0.0361 -0.1704
10583SOL    HW132648   3.147   1.751   2.207 -0.5467 -0.1835  0.3377
10583SOL    HW232649   3.030   1.863   2.193 -2.3127 -1.7289  2.0502
10584SOL     OW32650   6.174   4.574   2.033 -0.0617  0.5271  0.2408
10584SOL    HW132651   6.118   4.657   2.027  2.0214  1.9399 -1.1705
10584SOL    HW232652   6.236   4.582   2.111  0.7969  0.7801 -0.4488
10585SOL     OW32653   1.289   6.339   4.357  0.1575  0.3007 -0.6896
10585SOL    HW132654   1.319   6.244   4.348 -0.5806  0.0668 -0.7193
10585SOL    HW232655   1.208   6.354   4.301 -0.4645  0.6169  0.2593
10586SOL     OW32656   5.444   3.407   1.093 -0.2946 -0.3406 -0.4710
10586SOL    HW132657   5.519   3.452   1.140 -1.1070  0.1232  0.4223
10586SOL    HW232658   5.423   3.455   1.008 -0.2897  0.1748 -0.1812
10587SOL     OW32659   0.422   4.756   0.715 -0.1640 -0.0881  0.0020
10587SOL    HW132660   0.367   4.690   0.766  1.8249 -1.7305  0.1727
10587SOL    HW232661   0.397   4.752   0.618 -1.4656  0.4293  0.2956
10588SOL     OW32662   6.180   5.549   4.266 -0.1181  0.0164  0.1626
10588SOL    HW132663   6.114   5.620   4.290  0.0773  0.2843 -0.0870
10588SOL    HW232664   6.158   5.465   4.315  0.0749  0.4617  1.0341
10589SOL     OW32665   5.175   0.631   5.260  0.0305 -0.4474  0.6663
10589SOL    HW132666   5.242   0.704   5.262 -0.8244  0.4765 -1.5335
10589SOL    HW232667   5.083   0.670   5.258 -0.5230 -1.6398  1.6288
10590SOL     OW32668   0.070   6.565   5.351  0.9898 -0.0712 -0.4963
10590SOL    HW132669   0.011   6.571   5.271  1.3288 -0.4534 -0.7800
10590SOL    HW232670   0.166   6.561   5.322  1.1809  0.7910 -0.0372
10591SOL     OW32671   6.881   3.198   1.879 -0.3881  0.4558 -0.3591
10591SOL    HW132672   6.897   3.267   1.950 -1.6542  2.5970 -1.9965
10591SOL    HW232673   6.840   3.117   1.920 -0.0038  1.1434  1.4989
10592SOL     OW32674   6.031   2.148   5.067 -0.2810  0.3021  0.6649
10592SOL    HW132675   5.975   2.080   5.115 -0.3698 -0.4499 -0.4772
10592SOL    HW232676   6.120   2.108   5.044 -0.8255  0.0774 -1.2096
10593SOL     OW32677   2.517   4.601   2.122  0.7419 -0.3163 -0.2193
10593SOL    HW132678   2.558   4.605   2.213  1.0018 -0.0878 -0.3456
10593SOL    HW232679   2.589   4.590   2.054  0.6539  0.7991 -0.5002
10594SOL     OW32680   0.427   6.114   3.729  0.5804 -0.3418  0.1239
10594SOL    HW132681   0.371   6.189   3.764  0.6844  0.2742 -1.0089
10594SOL    HW232682   0.520   6.122   3.766  0.7563  0.4473 -0.4776
10595SOL     OW32683   0.436   5.459   5.367  1.1669 -0.4883 -0.1564
10595SOL    HW132684   0.428   5.412   5.455  0.0760 -0.4451 -0.2115
10595SOL    HW232685   0.501   5.410   5.308 -2.0392 -3.8392 -1.3510
10596SOL     OW32686   2.382   6.552   5.318 -0.2066 -0.0690 -0.4902
10596SOL    HW132687   2.304   6.575   5.259 -0.5003 -1.1894 -0.5545
10596SOL    HW232688   2.465   6.548   5.262 -0.2943 -0.0180 -0.6263
10597SOL     OW32689   1.859   0.942   1.399  0.1597  0.0966  0.3361
10597SOL    HW132690   1.827   0.872   1.463  0.1774  1.5037  1.9612
10597SOL    HW232691   1.784   0.971   1.340 -0.3247 -0.0536  0.8657
10598SOL     OW32692   2.455   0.642   1.302  0.7253 -0.2567 -0.2418
10598SOL    HW132693   2.398   0.604   1.375  2.4467 -1.2254  0.6565
10598SOL    HW232694   2.547   0.659   1.337  1.4934 -0.3898 -2.0806
10599SOL     OW32695   6.004   0.328   6.232 -0.5945  0.4556  0.0319
10599SOL    HW132696   5.968   0.246   6.188 -1.9240  0.9703  0.1266
10599SOL    HW232697   6.091   0.306   6.277 -1.3602 -1.1247  0.8211
10600SOL     OW32698   2.022   3.538   4.830 -0.2877 -0.2251 -0.2488
10600SOL    HW132699   2.039   3.545   4.928 -0.2748  0.8464 -0.3122
10600SOL    HW232700   1.992   3.445   4.808  1.2248 -0.9338  0.5119
10601SOL     OW32701   4.147   5.427   6.815  0.0208  0.2234 -0.4054
10601SOL    HW132702   4.094   5.436   6.900 -0.9220 -1.8470 -0.6948
10601SOL    HW232703   4.210   5.503   6.806 -0.5423  0.9936  1.6759
10602SOL     OW32704   5.187   3.310   1.110  0.5401 -0.2490 -0.6514
10602SOL    HW132705   5.170   3.240   1.180  1.0488  0.3789  0.1151
10602SOL    HW232706   5.285   3.329   1.105  0.3186  1.1934 -0.0480
10603SOL     OW32707   0.585   6.914   5.735  0.2971 -0.4441 -0.4348
10603SOL    HW132708   0.563   6.870   5.647  0.0805  1.3973 -1.3407
10603SOL    HW232709   0.679   6.892   5.760  0.0032 -1.9095 -0.5390
10604SOL     OW32710   3.516   5.324   6.432 -0.5469  0.4557 -0.4199
10604SOL    HW132711   3.494   5.249   6.370  0.8636  0.0246 -0.4396
10604SOL    HW232712   3.615   5.334   6.438 -0.6433  0.5976  1.6277
10605SOL     OW32713   2.910   5.427   1.617 -0.1454  0.2440  0.3904
10605SOL    HW132714   2.835   5.492   1.601  0.0894  0.3832 -0.1684
10605SOL    HW232715   2.952   5.446   1.705 -0.8842  0.0498  0.7940
10606SOL     OW32716   3.458   0.667   2.154 -0.3662 -0.0084  0.4366
10606SOL    HW132717   3.557   0.661   2.168 -0.3344  2.0378  1.5503
10606SOL    HW232718   3.438   0.668   2.055  0.7461 -0.2113  0.1980
10607SOL     OW32719   3.526   2.777   6.614 -0.0948  0.2299 -0.2173
10607SOL    HW132720   3.526   2.682   6.582  0.6752 -0.4120  1.5293
10607SOL    HW232721   3.604   2.826   6.576  0.6895 -0.4537  0.4719
10608SOL     OW32722   6.105   6.480   1.612  0.7249  0.5547  0.0793
10608SOL    HW132723   6.185   6.429   1.580  0.6967  0.1852  0.5863
10608SOL    HW232724   6.122   6.514   1.705  0.2477  0.3715  0.2353
10609SOL     OW32725   3.492   0.413   3.357  0.3926 -0.0326 -0.1137
10609SOL    HW132726   3.590   0.392   3.350  0.3002 -0.1457 -1.2793
10609SOL    HW232727   3.478   0.482   3.427  1.3283  0.0795 -0.0207
10610SOL     OW32728   1.930   6.099   4.014  0.2653 -0.6970  0.1109
10610SOL    HW132729   1.853   6.064   4.068  0.2253 -0.7839 -0.0009
10610SOL    HW232730   1.898   6.175   3.957  0.4053 -0.3214  0.5286
10611SOL     OW32731   5.418   3.199   5.755 -0.3468  0.1699  0.0758
10611SOL    HW132732   5.497   3.161   5.804 -0.1967  0.1023 -0.2180
10611SOL    HW232733   5.449   3.267   5.689 -0.3231 -1.3013 -1.4875
10612SOL     OW32734   2.672   5.124   0.576 -0.0952 -0.5533 -0.2974
10612SOL    HW132735   2.750   5.069   0.606 -1.3259 -2.2154 -0.0151
10612SOL    HW232736   2.592   5.065   0.566 -1.6125  1.2921  0.5097
10613SOL     OW32737   0.610   6.484   1.447 -0.4130 -0.7141 -0.5100
10613SOL    HW132738   0.604   6.439   1.358 -2.1703 -0.1832 -0.6907
10613SOL    HW232739   0.572   6.423   1.517  2.3067 -1.7554  0.1793
10614SOL     OW32740   1.268   2.094   2.374 -1.1458  0.6650 -0.0957
10614SOL    HW132741   1.268   1.994   2.367 -0.8560  0.7104 -0.7643
10614SOL    HW232742   1.207   2.121   2.448  1.0703 -0.1348  2.1488
10615SOL     OW32743   0.765   3.649   6.916 -0.3281 -0.1462 -0.1749
10615SOL    HW132744   0.671   3.682   6.911 -0.8313 -1.4788 -0.0796
10615SOL    HW232745   0.810   3.662   6.828 -0.7218  0.1566 -0.3329
10616SOL     OW32746   2.610   6.234   1.129  0.2228 -0.0634  0.5734
10616SOL    HW132747   2.654   6.185   1.204  1.4204  0.2553  0.1095
10616SOL    HW232748   2.566   6.169   1.067  2.2770 -0.6593 -0.3439
10617SOL     OW32749   0.471   1.892   6.890  0.5920 -0.5422  0.6716
10617SOL    HW132750   0.383   1.938   6.877 -0.2075 -1.8013  1.3983
10617SOL    HW232751   0.465   1.830   6.969  2.0928 -0.7659  0.6480
10618SOL     OW32752   2.150   5.193   0.337  0.5598 -0.2136 -0.6696
10618SOL    HW132753   2.117   5.284   0.360 -0.5025 -0.9782  1.0421
10618SOL    HW232754   2.075   5.138   0.300  1.0060 -0.6345 -0.9705
10619SOL     OW32755   1.538   1.919   4.153  0.1706  0.0012  0.4609
10619SOL    HW132756   1.514   2.015   4.145  0.5408 -0.0063 -0.9240
10619SOL    HW232757   1.494   1.867   4.080  2.0773 -0.4513 -0.4218
10620SOL     OW32758   2.543   5.391   1.607 -0.4758  0.7171  0.6147
10620SOL    HW132759   2.506   5.342   1.527  1.7207 -0.5139  0.2739
10620SOL    HW232760   2.532   5.334   1.688 -0.2988  0.8131  0.7059
10621SOL     OW32761   3.889   0.763   0.514  0.1522  1.0436 -0.7050
10621SOL    HW132762   3.817   0.732   0.576 -0.7488  0.7631 -1.8734
10621SOL    HW232763   3.902   0.862   0.525  1.2216  0.7559  1.1497
10622SOL     OW32764   3.802   3.233   0.613  0.1841 -0.1265  0.0220
10622SOL    HW132765   3.818   3.181   0.530 -1.6693 -1.0639  0.1955
10622SOL    HW232766   3.887   3.239   0.665  1.0999 -0.5183 -1.3755
10623SOL     OW32767   6.156   0.172   3.578 -0.1310 -0.6120 -0.3160
10623SOL    HW132768   6.214   0.205   3.504 -1.6934  0.1310 -1.2632
10623SOL    HW232769   6.182   0.079   3.602  1.9908 -0.0167 -0.0968
10624SOL     OW32770   2.111   1.147   4.293 -0.3289 -0.3162  0.3961
10624SOL    HW132771   2.183   1.084   4.266 -1.1232 -1.4164  0.7733
10624SOL    HW232772   2.094   1.138   4.391 -1.5302 -0.6914  0.1765
10625SOL     OW32773   0.659   1.988   2.091 -0.5373  1.0033 -0.4858
10625SOL    HW132774   0.692   2.013   2.182 -2.4325 -0.7672  0.7799
10625SOL    HW232775   0.559   1.994   2.089 -0.5216  1.2735 -2.5656
10626SOL     OW32776   6.851   2.647   2.780 -0.0451 -0.1114 -0.1320
10626SOL    HW132777   6.932   2.705   2.775  0.1367 -0.4845 -3.0793
10626SOL    HW232778   6.874   2.561   2.825  0.3827  0.9349  1.7424
10627SOL     OW32779   2.673   5.852   4.290  0.8829 -0.4858  0.4499
10627SOL    HW132780   2.743   5.828   4.222  0.3821 -0.4018 -0.0988
10627SOL    HW232781   2.711   5.917   4.356  1.3854 -0.6000  0.2761
10628SOL     OW32782   5.617   0.417   4.758 -0.0977 -0.6685 -0.7226
10628SOL    HW132783   5.534   0.469   4.776  0.6480  0.0280  0.9275
10628SOL    HW232784   5.649   0.436   4.665  0.4917  2.4102  0.0159
10629SOL     OW32785   2.903   3.203   5.696 -0.2387 -0.8191  0.5951
10629SOL    HW132786   2.896   3.210   5.796  2.5006  0.8943  0.7946
10629SOL    HW232787   2.874   3.289   5.655 -2.0506 -1.7660 -0.2027
10630SOL     OW32788   4.851   2.228   1.727 -0.3454 -0.2438 -0.3479
10630SOL    HW132789   4.873   2.202   1.633 -1.0664  0.4550 -0.7330
10630SOL    HW232790   4.932   2.219   1.784  0.1914 -0.3753 -1.1051
10631SOL     OW32791   5.974   5.895   6.192  0.3317  0.0277  0.2937
10631SOL    HW132792   5.913   5.973   6.204  0.7905  0.2898  0.9873
10631SOL    HW232793   6.035   5.912   6.114 -0.0793  0.0200 -0.0332
10632SOL     OW32794   6.572   3.693   0.045  0.1916  0.4835  0.8670
10632SOL    HW132795   6.603   3.723   0.136 -3.0867 -0.3271  2.4067
10632SOL    HW232796   6.535   3.600   0.051 -1.3146  0.9023 -0.9978
10633SOL     OW32797   1.947   5.441   0.787  0.3981 -0.1746 -0.2639
10633SOL    HW132798   1.943   5.346   0.818  0.4700  0.1741  0.8698
10633SOL    HW232799   1.855   5.470   0.758  0.0853 -0.1917  0.6714
10634SOL     OW32800   2.858   6.326   3.033 -0.0370 -0.3112 -0.2201
10634SOL    HW132801   2.958   6.333   3.033 -0.0324 -0.3509 -0.5609
10634SOL    HW232802   2.822   6.377   2.955 -0.3672  0.8769  0.6828
10635SOL     OW32803   0.956   6.803   0.982  0.1568  0.1807  0.0831
10635SOL    HW132804   0.917   6.875   1.039  0.7263  0.4762  0.1039
10635SOL    HW232805   0.905   6.718   0.996 -0.6429  0.6202 -0.0854
10636SOL     OW32806   5.264   3.481   6.631 -0.5252  0.2119  0.4944
10636SOL    HW132807   5.187   3.463   6.693 -2.3805  1.7656 -1.1807
10636SOL    HW232808   5.338   3.525   6.682 -1.6613  0.7136  1.7829
10637SOL     OW32809   3.722   4.709   6.596  0.9528  0.7797 -0.3761
10637SOL    HW132810   3.748   4.804   6.617 -1.3600  1.0130  1.9269
10637SOL    HW232811   3.753   4.649   6.670 -1.0733  0.4297  0.2482
10638SOL     OW32812   6.723   2.267   6.477  0.0060  0.3796  0.0330
10638SOL    HW132813   6.807   2.320   6.471 -0.1153  0.4096 -2.1219
10638SOL    HW232814   6.645   2.325   6.454 -0.6154  0.2920  1.7844
10639SOL     OW32815   4.566   1.924   3.991  0.3623 -0.1255 -1.3033
10639SOL    HW132816   4.538   2.018   4.010  0.2932 -0.3077 -0.4359
10639SOL    HW232817   4.663   1.923   3.966  1.1251 -0.0700  1.3462
10640SOL     OW32818   5.799   0.023   1.766 -0.3416  0.3072  0.6921
10640SOL    HW132819   5.754   0.059   1.848 -0.4113 -0.0552  0.8157
10640SOL    HW232820   5.846  -0.062   1.788 -2.2934 -1.0540 -0.1330
10641SOL     OW32821   4.157   0.024   0.137  0.0889 -0.0673 -0.0981
10641SOL    HW132822   4.251   0.056   0.134 -0.2705  1.1922  1.1002
10641SOL    HW232823   4.097   0.091   0.094 -0.5166  0.2160  1.1623
10642SOL     OW32824   0.673   5.720   3.203 -0.2380  0.6408  0.6388
10642SOL    HW132825   0.743   5.789   3.215  0.0377  0.6659 -0.9462
10642SOL    HW232826   0.705   5.633   3.240  0.5657  0.6987  0.1091
10643SOL     OW32827   4.473   2.382   6.189 -0.0123  0.0818  0.4901
10643SOL    HW132828   4.536   2.313   6.225  1.9706  1.0633 -0.8731
10643SOL    HW232829   4.514   2.473   6.200 -0.2868  0.5943 -2.1394
10644SOL     OW32830   4.339   1.342   4.712  0.6914 -0.2017  0.8424
10644SOL    HW132831   4.272   1.345   4.787  0.2877 -0.8765  0.5169
10644SOL    HW232832   4.391   1.256   4.717  1.9742  0.5822  1.4549
10645SOL     OW32833   0.228   0.763   3.106 -0.1277  0.0335  0.1299
10645SOL    HW132834   0.200   0.858   3.098  2.4020  0.8493  0.0352
10645SOL    HW232835   0.257   0.744   3.200 -1.2706 -0.8809  0.3242
10646SOL     OW32836   0.433   4.839   0.274  0.2334 -0.1190 -0.2363
10646SOL    HW132837   0.356   4.880   0.227 -0.2434  0.1307  0.7287
10646SOL    HW232838   0.504   4.908   0.290  0.8102 -0.4181 -1.3943
10647SOL     OW32839   0.457   6.413   1.689  0.1721  0.0644 -0.5131
10647SOL    HW132840   0.377   6.396   1.630  0.2704  0.8906 -0.8988
10647SOL    HW232841   0.443   6.498   1.740 -0.0209 -0.7719  0.8716
10648SOL     OW32842   6.036   4.559   5.884  0.6658  0.9523 -0.1749
10648SOL    HW132843   6.073   4.622   5.952  0.3686  1.4709 -0.4922
10648SOL    HW232844   5.936   4.556   5.892  0.7058  0.0533  0.2422
10649SOL     OW32845   0.037   3.952   5.131 -0.0958  0.7189 -0.0124
10649SOL    HW132846   0.060   3.876   5.192  2.9343  0.4733 -1.3195
10649SOL    HW232847   0.085   4.034   5.161 -0.0887  1.0759 -0.9820
10650SOL     OW32848   0.600   1.601   5.211 -1.0362 -0.1791  0.0284
10650SOL    HW132849   0.641   1.689   5.185 -0.6177 -0.2726  0.3461
10650SOL    HW232850   0.574   1.605   5.308  0.1841 -0.8365  0.3979
10651SOL     OW32851   2.222   2.113   6.468  1.0624  0.0537 -0.1024
10651SOL    HW132852   2.282   2.175   6.417  0.8847  0.3557  0.0550
10651SOL    HW232853   2.173   2.055   6.403  3.2376 -1.8480 -0.1879
10652SOL     OW32854   4.440   6.680   1.061  0.0399  0.4843 -0.3417
10652SOL    HW132855   4.384   6.749   1.107  0.4591  0.9633 -0.5376
10652SOL    HW232856   4.450   6.600   1.121 -0.0092  0.8063  0.1053
10653SOL     OW32857   6.295   5.685   2.908 -0.8721  0.2794 -0.1541
10653SOL    HW132858   6.203   5.653   2.884 -0.4624 -1.0326 -0.0454
10653SOL    HW232859   6.303   5.782   2.888 -0.8717 -0.4309 -4.5347
10654SOL     OW32860   5.528   4.976   6.891 -0.3244 -0.1350  0.5370
10654SOL    HW132861   5.472   4.909   6.842 -1.1033 -0.4832  1.8491
10654SOL    HW232862   5.471   5.054   6.916  0.4001  0.6897 -0.3187
10655SOL     OW32863   5.493   5.951   1.767  0.0858 -0.5480  0.2323
10655SOL    HW132864   5.563   5.946   1.838 -1.1295 -1.4587  1.3898
10655SOL    HW232865   5.403   5.957   1.809 -0.6862 -1.4752 -1.2336
10656SOL     OW32866   0.477   1.097   5.286 -0.0679 -0.5785  0.0283
10656SOL    HW132867   0.440   1.057   5.370  2.2772  0.6190  1.7754
10656SOL    HW232868   0.453   1.194   5.282  1.7427 -0.0473  0.6399
10657SOL     OW32869   5.420   0.808   0.245 -0.3365 -0.1695 -0.4724
10657SOL    HW132870   5.357   0.762   0.181 -0.4530 -1.8991  0.8157
10657SOL    HW232871   5.470   0.739   0.298  0.1859  1.2064  0.8985
10658SOL     OW32872   0.490   6.174   2.856  0.5777  0.4658  0.0202
10658SOL    HW132873   0.566   6.167   2.921  0.5237  0.0273  0.0354
10658SOL    HW232874   0.430   6.095   2.866 -1.5070  2.1518  2.0499
10659SOL     OW32875   6.150   1.327   2.278  0.5198 -0.3439  0.0681
10659SOL    HW132876   6.148   1.301   2.375  0.2214  0.8762  0.4111
10659SOL    HW232877   6.056   1.330   2.243  0.6018 -0.3975 -0.1597
10660SOL     OW32878   1.873   4.823   6.221  0.6500  0.3756  0.3731
10660SOL    HW132879   1.816   4.786   6.147  0.6461  1.5604 -0.2471
10660SOL    HW232880   1.909   4.748   6.277  1.1637 -0.5884 -1.1944
10661SOL     OW32881   6.886   1.094   2.726 -0.5266 -1.0520  0.1834
10661SOL    HW132882   6.909   1.074   2.821  1.9617 -1.6463 -0.4833
10661SOL    HW232883   6.814   1.163   2.724  0.9674  0.7400  2.5133
10662SOL     OW32884   1.012   6.470   0.186  0.3601  0.1631 -0.1064
10662SOL    HW132885   0.995   6.561   0.150  0.1915  0.4952  0.7944
10662SOL    HW232886   0.937   6.443   0.247  0.5221 -0.4819 -0.1769
10663SOL     OW32887   0.584   2.772   2.096 -0.3885 -0.1981 -0.1523
10663SOL    HW132888   0.597   2.685   2.144 -0.1959  1.0938  2.2964
10663SOL    HW232889   0.672   2.801   2.058 -0.4053 -0.9325 -0.7906
10664SOL     OW32890   1.990   0.020   5.597 -0.4944  0.2001  0.4893
10664SOL    HW132891   2.006   0.049   5.691  1.4843  0.6162  0.0678
10664SOL    HW232892   2.048   0.073   5.535  1.5799 -2.9612 -0.5472
10665SOL     OW32893   0.302   3.493   0.396 -0.1651  0.5131 -0.0656
10665SOL    HW132894   0.267   3.586   0.405  2.0670  1.2700  1.6974
10665SOL    HW232895   0.400   3.492   0.419 -0.4379 -2.5084  1.3966
10666SOL     OW32896   6.603   5.709   1.790  0.3477 -0.1825  0.4389
10666SOL    HW132897   6.595   5.612   1.767 -1.2166  0.0813 -0.2904
10666SOL    HW232898   6.644   5.757   1.713 -1.5942  0.1438 -0.4710
10667SOL     OW32899   2.129   2.675   6.268  0.0028 -0.5594 -0.1050
10667SOL    HW132900   2.216   2.700   6.226  0.6580 -1.6090  0.5798
10667SOL    HW232901   2.140   2.670   6.367 -1.3689  1.3055  0.1939
10668SOL     OW32902   6.711   1.143   4.983 -0.5383  0.4660  0.0235
10668SOL    HW132903   6.698   1.165   5.080  1.0626  0.1417  0.3438
10668SOL    HW232904   6.764   1.215   4.939 -0.4284  0.1480 -0.3719
10669SOL     OW32905   2.029   5.633   7.014 -0.4142  0.5017  0.1515
10669SOL    HW132906   1.986   5.615   6.926 -0.0346  1.6269 -0.2850
10669SOL    HW232907   1.958   5.655   7.082 -0.6070  1.5784 -0.3740
10670SOL     OW32908   6.500   3.852   5.689 -0.1902  0.1629 -0.2850
10670SOL    HW132909   6.584   3.882   5.644 -0.1732 -0.6658 -0.8182
10670SOL    HW232910   6.486   3.906   5.772  1.1883 -0.0940  0.1395
10671SOL     OW32911   1.592   4.102   2.715 -0.0424 -0.5275  0.3666
10671SOL    HW132912   1.538   4.031   2.761  2.9307 -3.8509 -0.8860
10671SOL    HW232913   1.649   4.149   2.782 -1.0326 -0.2337  1.0241
10672SOL     OW32914   4.937   1.696   2.321  0.0724  0.3741  0.3612
10672SOL    HW132915   4.920   1.794   2.325  1.0678  0.5270  3.5246
10672SOL    HW232916   4.877   1.649   2.386  0.0990 -1.0648 -0.6065
10673SOL     OW32917   4.118   3.649   2.755 -0.1059 -0.2562  0.2898
10673SOL    HW132918   4.128   3.563   2.805  0.4834 -0.4204 -0.1021
10673SOL    HW232919   4.140   3.634   2.658 -2.1486 -0.1672 -0.2340
10674SOL     OW32920   4.141   0.961   4.482 -0.0700 -0.1031 -0.6227
10674SOL    HW132921   4.217   0.952   4.418  0.9654  1.4453  0.3187
10674SOL    HW232922   4.082   1.036   4.454  0.1315  0.2815 -0.0451
10675SOL     OW32923   0.328   0.915   5.974 -0.2850 -0.2223  0.2920
10675SOL    HW132924   0.407   0.922   5.913  0.7166  1.1326  1.6763
10675SOL    HW232925   0.276   1.000   5.970 -1.6995 -1.0864 -0.5668
10676SOL     OW32926   5.277   1.355   6.569 -0.0940  0.5694 -0.4740
10676SOL    HW132927   5.245   1.449   6.557  0.1720  0.9349  1.4192
10676SOL    HW232928   5.363   1.342   6.520 -1.4347  0.5046 -2.9535
10677SOL     OW32929   5.001   4.925   5.471  0.0152 -0.6074 -0.3593
10677SOL    HW132930   5.088   4.909   5.424  0.6758 -0.9917  0.9566
10677SOL    HW232931   5.018   4.942   5.568 -1.2247  1.3099 -0.4254
10678SOL     OW32932   1.224   5.298   1.987  0.6683 -0.2177  0.3434
10678SOL    HW132933   1.159   5.223   1.978  0.3829  0.1276 -0.5509
10678SOL    HW232934   1.278   5.285   2.070  0.6697 -1.4386  0.1717
10679SOL     OW32935   6.416   5.611   5.776 -0.1935 -0.5246  0.6591
10679SOL    HW132936   6.452   5.543   5.839 -1.6870 -1.2268  0.8025
10679SOL    HW232937   6.316   5.610   5.779 -0.2668  1.2972  0.2494
10680SOL     OW32938   6.707   1.994   4.228  0.8006 -0.5364  0.3366
10680SOL    HW132939   6.729   2.090   4.243 -1.1783  0.0185 -0.0447
10680SOL    HW232940   6.648   1.961   4.302  1.0598 -1.3104  0.2028
10681SOL     OW32941   2.237   3.308   6.478 -0.1241 -0.0158  0.2126
10681SOL    HW132942   2.221   3.280   6.383 -1.0593  0.1822  0.3056
10681SOL    HW232943   2.226   3.407   6.486 -2.7922 -0.2959  1.0232
10682SOL     OW32944   6.321   3.145   3.773 -0.2846  0.0581  0.0302
10682SOL    HW132945   6.408   3.194   3.774 -0.2202 -0.0600  0.3035
10682SOL    HW232946   6.245   3.210   3.765 -0.2967  0.3414  2.0577
10683SOL     OW32947   6.650   2.144   4.923  0.0216 -0.4857  0.1547
10683SOL    HW132948   6.662   2.242   4.938 -2.2086  0.0190 -0.9015
10683SOL    HW232949   6.586   2.107   4.991 -0.5900 -0.7928 -0.5746
10684SOL     OW32950   4.182   4.997   3.216 -0.1004 -0.2376 -0.4978
10684SOL    HW132951   4.104   4.935   3.210 -0.5773  0.3618 -0.5799
10684SOL    HW232952   4.266   4.944   3.223 -0.4807 -0.8914 -0.8221
10685SOL     OW32953   0.403   2.486   3.895 -0.7965 -0.0076 -0.4387
10685SOL    HW132954   0.365   2.475   3.987  1.8636  0.0694  0.7571
10685SOL    HW232955   0.350   2.553   3.845 -2.2381  0.0436  1.0815
10686SOL     OW32956   5.382   2.710   0.990  0.4541  0.7790  0.6629
10686SOL    HW132957   5.436   2.627   1.006 -1.0791 -0.7341 -1.4535
10686SOL    HW232958   5.321   2.726   1.067  1.1734  0.3029  1.3501
10687SOL     OW32959   6.045   4.671   1.438  0.9043 -0.0264  0.6320
10687SOL    HW132960   6.009   4.580   1.458  0.6023 -0.3060 -0.9814
10687SOL    HW232961   6.049   4.725   1.522  0.6630 -1.3699  1.5428
10688SOL     OW32962   1.027   5.456   1.516 -0.2819  0.2315 -0.0430
10688SOL    HW132963   1.077   5.468   1.602 -1.4284  0.5637  0.5965
10688SOL    HW232964   1.082   5.403   1.452  0.4110 -0.3823  1.0458
10689SOL     OW32965   6.824   1.675   2.610  0.3445 -0.0151 -0.5210
10689SOL    HW132966   6.741   1.687   2.666 -0.0491  0.9336 -1.2612
10689SOL    HW232967   6.842   1.578   2.598 -2.1993 -0.3760 -2.4711
10690SOL     OW32968   3.388   0.650   1.882  0.0473 -0.0098 -0.1359
10690SOL    HW132969   3.340   0.589   1.820  1.5505  0.0082 -1.3891
10690SOL    HW232970   3.343   0.739   1.883 -0.7292 -0.3917 -0.2013
10691SOL     OW32971   4.054   1.656   3.276  0.2275  0.0943  0.1917
10691SOL    HW132972   4.075   1.752   3.290  0.4333  0.0849 -0.0639
10691SOL    HW232973   4.135   1.607   3.244  0.0798 -0.1299  0.1527
10692SOL     OW32974   6.837   0.006   3.796  0.4108 -0.0234  0.1866
10692SOL    HW132975   6.937   0.005   3.799  0.3928  0.5173  1.5737
10692SOL    HW232976   6.805   0.099   3.782  0.0949 -0.3282 -1.2988
10693SOL     OW32977   5.561   2.658   3.537  0.1053 -0.0917  0.4796
10693SOL    HW132978   5.492   2.726   3.514  0.3557 -0.0824 -0.2489
10693SOL    HW232979   5.521   2.588   3.596  0.2151  1.4948  2.5558
10694SOL     OW32980   3.364   6.487   6.768  0.5284  0.1803 -0.3645
10694SOL    HW132981   3.346   6.423   6.843 -1.3881 -0.4434 -1.2863
10694SOL    HW232982   3.412   6.567   6.804 -0.9991  0.2556  1.7018
10695SOL     OW32983   1.030   2.739   0.284  0.3730  0.3896  0.3267
10695SOL    HW132984   0.967   2.681   0.335  0.8614  0.7154  1.3276
10695SOL    HW232985   1.124   2.706   0.297  0.4552  0.1494 -0.8173
10696SOL     OW32986   6.621   6.933   0.397 -0.0592  0.5402  0.3002
10696SOL    HW132987   6.698   6.919   0.459  0.2220  3.0578  0.6332
10696SOL    HW232988   6.625   7.025   0.359 -1.5590 -0.1237 -1.6404
10697SOL     OW32989   3.376   5.633   3.544  0.4937 -0.2541  0.5843
10697SOL    HW132990   3.392   5.637   3.643  2.4346 -0.4706  0.3010
10697SOL    HW232991   3.341   5.543   3.520  0.3287 -0.3089  1.0158
10698SOL     OW32992   5.484   6.439   3.768 -0.4580  0.0802 -0.2799
10698SOL    HW132993   5.392   6.446   3.729 -0.8107  0.9075  0.6668
10698SOL    HW232994   5.484   6.477   3.860  0.1454 -2.5569  0.9238
10699SOL     OW32995   5.781   2.990   1.092  0.5468 -0.3275  0.0180
10699SOL    HW132996   5.758   3.078   1.050  0.3863 -0.8170 -0.9514
10699SOL    HW232997   5.871   2.960   1.061  0.7755 -0.3305  0.6557
10700SOL     OW32998   0.899   2.965   2.733  0.5973 -0.3438 -0.6245
10700SOL    HW132999   0.847   2.979   2.649 -0.6576 -0.5647  0.1011
10700SOL    HW233000   0.944   3.051   2.759  1.7105 -0.4823 -1.9537
10701SOL     OW33001   1.726   5.978   1.681 -0.3846 -0.0418  0.1873
10701SOL    HW133002   1.796   5.981   1.610 -0.8834  1.1067 -0.2811
10701SOL    HW233003   1.640   6.014   1.644 -1.3327 -1.7407  0.6402
10702SOL     OW33004   6.179   1.900   2.038 -0.0055 -0.4333  0.7021
10702SOL    HW133005   6.110   1.915   2.109 -0.7963 -0.5031 -0.0297
10702SOL    HW233006   6.143   1.836   1.970  1.0508 -1.0076  0.6606
10703SOL     OW33007   3.127   4.001   3.855  0.0481 -0.0235 -0.2214
10703SOL    HW133008   3.053   3.985   3.790  0.4596 -0.2917 -0.6290
10703SOL    HW233009   3.204   4.044   3.807 -1.1955  3.7897  0.8961
10704SOL     OW33010   4.794   4.028   0.923  0.0634  0.3211 -0.1642
10704SOL    HW133011   4.740   3.962   0.872  0.7284  0.4101 -1.0003
10704SOL    HW233012   4.891   4.010   0.909  0.2563  0.8692  0.3969
10705SOL     OW33013   0.552   3.197   1.583 -0.7234 -0.2501  0.0546
10705SOL    HW133014   0.483   3.138   1.625 -0.2544  0.1949  1.4827
10705SOL    HW233015   0.635   3.197   1.639 -0.2337  0.7271 -0.6346
10706SOL     OW33016   3.290   3.841   0.620  0.3438  0.2013 -0.3713
10706SOL    HW133017   3.312   3.865   0.526  0.2927  0.1242 -0.4036
10706SOL    HW233018   3.273   3.743   0.626 -1.3343  0.4350 -0.6309
10707SOL     OW33019   5.230   0.466   0.062 -0.3128 -0.1225  0.6074
10707SOL    HW133020   5.229   0.564   0.041  0.3829 -0.3230 -0.4251
10707SOL    HW233021   5.223   0.453   0.161  1.7551  1.0526  0.9642
10708SOL     OW33022   4.366   3.021   1.411  0.2492 -0.3944 -0.2811
10708SOL    HW133023   4.299   3.096   1.414  0.1760 -0.4904  0.6669
10708SOL    HW233024   4.398   3.001   1.503  0.3505 -1.4663 -0.5368
10709SOL     OW33025   1.291   1.306   5.571 -0.3144  0.6702  0.0238
10709SOL    HW133026   1.284   1.395   5.617  1.7539  0.2866  1.2480
10709SOL    HW233027   1.343   1.317   5.486  0.8357  0.5099  0.6858
10710SOL     OW33028   6.276   1.140   6.272 -0.0090  0.1998  0.5750
10710SOL    HW133029   6.272   1.131   6.173  2.1223 -0.5230  0.5082
10710SOL    HW233030   6.224   1.221   6.300 -0.3588  0.6135 -1.1595
10711SOL     OW33031   1.689   4.531   4.972 -0.4504 -0.0999 -0.2657
10711SOL    HW133032   1.771   4.586   4.989  0.0721 -0.3820 -1.6785
10711SOL    HW233033   1.715   4.449   4.921 -1.8590  0.9919 -2.9689
10712SOL     OW33034   5.044   2.029   4.570  0.2831 -0.4105  0.1239
10712SOL    HW133035   4.991   2.113   4.564  0.9031 -0.0484 -0.4114
10712SOL    HW233036   4.992   1.960   4.621 -0.5252  0.0569 -0.0574
10713SOL     OW33037   3.279   6.655   6.357  1.2809  0.4232 -0.2546
10713SOL    HW133038   3.311   6.563   6.379  0.2049  0.0130 -0.2957
10713SOL    HW233039   3.218   6.687   6.430  1.0877  0.8133 -0.5838
10714SOL     OW33040   4.659   5.455   4.150  0.5050  0.0489 -0.0138
10714SOL    HW133041   4.687   5.515   4.225 -2.0264  0.0830  1.0041
10714SOL    HW233042   4.728   5.457   4.078  1.5994  2.3432  1.0029
10715SOL     OW33043   5.985   1.240   3.870  0.3122 -0.1097 -0.2598
10715SOL    HW133044   6.005   1.240   3.968  1.5083 -0.1422 -0.4890
10715SOL    HW233045   5.948   1.329   3.843 -0.4050 -0.2350  0.2863
10716SOL     OW33046   6.415   0.680   4.799  0.3121 -0.4847  0.3005
10716SOL    HW133047   6.438   0.713   4.708  1.5742 -3.6981 -0.7049
10716SOL    HW233048   6.492   0.695   4.861  1.8173 -3.1843 -0.7264
10717SOL     OW33049   0.455   5.281   6.139 -0.2426  0.0430 -0.1357
10717SOL    HW133050   0.536   5.339   6.126  0.5624 -0.5750  1.8419
10717SOL    HW233051   0.483   5.189   6.164 -1.5579 -0.7384 -1.3594
10718SOL     OW33052   5.066   2.962   4.730  0.2042 -0.2084  0.2310
10718SOL    HW133053   4.973   2.942   4.761  0.1828 -0.5313 -0.0309
10718SOL    HW233054   5.085   2.911   4.645  1.1084 -1.3011  1.0484
10719SOL     OW33055   4.145   6.864   3.116 -0.5519  0.6908 -0.0161
10719SOL    HW133056   4.215   6.933   3.098 -0.8431  0.3902 -2.8497
10719SOL    HW233057   4.156   6.788   3.052 -3.0008  0.3165 -0.1121
10720SOL     OW33058   1.812   1.903   5.108 -0.5256  0.1028 -0.2271
10720SOL    HW133059   1.730   1.864   5.065 -0.6667  0.6296 -0.4398
10720SOL    HW233060   1.861   1.959   5.042  0.4249 -0.8095 -0.3302
10721SOL     OW33061   5.369   6.479   2.716 -0.1902 -0.0839  0.0622
10721SOL    HW133062   5.462   6.491   2.683 -0.3135 -0.4168 -0.4183
10721SOL    HW233063   5.307   6.464   2.639 -0.5638 -0.3511  0.4039
10722SOL     OW33064   1.033   3.979   0.671 -0.5030  0.0710 -0.3275
10722SOL    HW133065   1.010   3.983   0.769  1.6624 -1.5623  0.3179
10722SOL    HW233066   1.114   4.035   0.654  0.7574 -1.7420 -0.6004
10723SOL     OW33067   6.550   4.986   5.466 -0.2529 -0.1188 -0.0874
10723SOL    HW133068   6.488   4.978   5.387  0.4150 -2.2472 -0.4567
10723SOL    HW233069   6.644   4.978   5.435  0.0551 -0.2335  0.8531
10724SOL     OW33070   4.210   6.755   5.815  0.1890  0.3690  0.1467
10724SOL    HW133071   4.234   6.826   5.882  2.1219  0.1360 -0.2236
10724SOL    HW233072   4.271   6.764   5.735 -2.5872  1.2003 -2.0493
10725SOL     OW33073   4.663   1.109   4.839  0.2203 -0.0873  0.3999
10725SOL    HW133074   4.616   1.175   4.898  0.2711  1.2577 -1.0067
10725SOL    HW233075   4.745   1.151   4.801  1.4367 -1.6958  1.1219
10726SOL     OW33076   6.443   1.294   4.573 -0.0724 -0.1814  0.2919
10726SOL    HW133077   6.428   1.218   4.636  1.5835 -1.5449 -0.8376
10726SOL    HW233078   6.489   1.260   4.491  1.4925  2.1901  0.0889
10727SOL     OW33079   4.438   6.975   5.646  0.3473  0.1265  0.5225
10727SOL    HW133080   4.464   6.919   5.566  1.1338 -2.2927  2.3307
10727SOL    HW233081   4.473   6.931   5.729 -1.5952  1.8294  2.3390
10728SOL     OW33082   4.665   6.308   4.418  0.3214 -0.3774  0.9032
10728SOL    HW133083   4.634   6.399   4.444 -1.5204 -1.2998  2.1605
10728SOL    HW233084   4.714   6.313   4.331 -1.1330  1.5836  0.1231
10729SOL     OW33085   2.020   2.526   4.559  0.5839 -0.3743  0.4644
10729SOL    HW133086   2.115   2.557   4.549  1.0192 -1.7465  0.0649
10729SOL    HW233087   1.997   2.467   4.481  0.1394 -1.8343  1.6531
10730SOL     OW33088   6.445   6.087   2.989  0.1428  0.5136  0.0357
10730SOL    HW133089   6.502   6.013   2.953  0.5983  0.4809  0.8051
10730SOL    HW233090   6.397   6.132   2.913  1.2493  0.5924 -0.6396
10731SOL     OW33091   4.855   5.387   5.795 -0.9358  0.2986  0.0410
10731SOL    HW133092   4.911   5.425   5.868 -0.3597  1.5101 -0.9925
10731SOL    HW233093   4.914   5.352   5.722 -1.4946  0.9810 -0.7578
10732SOL     OW33094   5.648   6.097   2.748  0.2926 -0.2609 -0.3109
10732SOL    HW133095   5.693   6.185   2.733  0.0172 -0.4390 -2.6635
10732SOL    HW233096   5.549   6.111   2.755  0.2750 -0.3391 -0.3941
10733SOL     OW33097   0.505   2.130   6.353 -0.2711  0.0397  0.0632
10733SOL    HW133098   0.549   2.115   6.265  1.3298  0.0530  0.8191
10733SOL    HW233099   0.479   2.227   6.361  0.4171  0.2370 -0.0378
10734SOL     OW33100   1.442   0.109   4.938 -0.6067 -0.1986 -0.0269
10734SOL    HW133101   1.397   0.198   4.951 -1.0832 -0.4047 -0.2672
10734SOL    HW233102   1.487   0.107   4.849 -0.3399 -0.0888  0.1046
10735SOL     OW33103   2.579   2.316   2.704  0.2710 -0.3317  0.0191
10735SOL    HW133104   2.556   2.400   2.753 -2.3969 -0.2363 -1.2078
10735SOL    HW233105   2.666   2.329   2.656  2.2170  0.0711  3.3458
10736SOL     OW33106   5.469   5.758   3.601 -0.0821  0.0596 -0.1553
10736SOL    HW133107   5.534   5.704   3.548  0.6903  1.2025 -0.4103
10736SOL    HW233108   5.511   5.785   3.687 -0.9776 -0.9426  0.6195
10737SOL     OW33109   3.833   1.968   0.306  0.3153 -0.5818  0.8142
10737SOL    HW133110   3.855   2.017   0.391 -0.3110 -0.3207  0.8326
10737SOL    HW233111   3.735   1.973   0.289  0.5857  0.5640 -0.6497
10738SOL     OW33112   0.689   6.347   2.067  0.2763  0.1287 -0.1461
10738SOL    HW133113   0.716   6.285   2.141  4.0116  0.8721 -0.6793
10738SOL    HW233114   0.693   6.298   1.980 -0.7760  0.1180 -0.1970
10739SOL     OW33115   5.302   3.098   2.893 -0.1679  0.1424 -0.1668
10739SOL    HW133116   5.225   3.159   2.910 -1.0307 -1.0119  0.1640
10739SOL    HW233117   5.283   3.008   2.932  0.3336 -0.8720 -2.1454
10740SOL     OW33118   2.871   0.529   5.809 -0.8159 -0.1855 -0.0806
10740SOL    HW133119   2.935   0.501   5.880 -1.3064 -0.8556  0.1070
10740SOL    HW233120   2.819   0.449   5.778  0.2577 -0.1909 -2.0787
10741SOL     OW33121   1.373   1.287   4.658  0.1150  0.6829 -0.4227
10741SOL    HW133122   1.457   1.290   4.604 -0.9701  0.4003 -2.1851
10741SOL    HW233123   1.295   1.265   4.599 -1.2162  0.9000  1.1675
10742SOL     OW33124   5.699   1.051   2.361 -0.2414 -0.0417 -0.0928
10742SOL    HW133125   5.783   1.060   2.309 -0.9628  1.0534 -1.1139
10742SOL    HW233126   5.622   1.085   2.307 -0.9953  1.3636  1.7655
10743SOL     OW33127   4.917   5.647   0.752 -0.1836  0.0655 -0.2830
10743SOL    HW133128   4.826   5.644   0.793 -0.6221  1.1446 -1.1204
10743SOL    HW233129   4.985   5.665   0.823 -0.7291  0.1382  0.2278
10744SOL     OW33130   1.656   1.932   3.007  0.5290  0.1068 -0.3356
10744SOL    HW133131   1.622   1.847   3.048  1.1544  0.2657  0.5141
10744SOL    HW233132   1.751   1.919   2.979  1.0678  0.9384  1.0412
10745SOL     OW33133   5.039   6.334   4.070  1.0142 -0.1339  0.0435
10745SOL    HW133134   5.069   6.271   4.142  1.8178  0.7738  0.5155
10745SOL    HW233135   4.958   6.384   4.101  0.0964 -1.2169 -0.5047
10746SOL     OW33136   1.742   5.435   4.824  0.2977  0.1435 -0.1824
10746SOL    HW133137   1.834   5.420   4.859  0.7515 -0.1526 -1.4268
10746SOL    HW233138   1.739   5.522   4.774  0.1188 -0.2055 -0.7943
10747SOL     OW33139   0.269   1.869   5.793  0.5181 -0.0523 -0.0659
10747SOL    HW133140   0.188   1.825   5.755  0.8312 -1.4991  0.8425
10747SOL    HW233141   0.345   1.804   5.793  1.6043  1.1717 -0.5923
10748SOL     OW33142   4.124   5.513   2.637 -0.3247  0.0925  0.4154
10748SOL    HW133143   4.205   5.571   2.650  0.9735 -1.6322  0.2881
10748SOL    HW233144   4.150   5.417   2.643 -2.1748 -0.5380 -0.8006
10749SOL     OW33145   5.087   0.972   3.337  0.3437 -0.0228  0.0215
10749SOL    HW133146   5.120   0.979   3.431 -1.0202  2.1020  0.4137
10749SOL    HW233147   4.991   0.942   3.337  0.2105  0.3826 -0.6546
10750SOL     OW33148   3.303   1.523   4.871 -0.2163  0.5651 -0.2460
10750SOL    HW133149   3.332   1.427   4.875  0.0906  0.6624 -0.1086
10750SOL    HW233150   3.218   1.534   4.924  0.6376  0.6859  1.1465
10751SOL     OW33151   6.556   6.536   3.744  0.4786 -0.2505 -0.1902
10751SOL    HW133152   6.559   6.634   3.764  3.6549 -0.1954 -0.4708
10751SOL    HW233153   6.519   6.487   3.823  1.7235  0.9372  1.1840
10752SOL     OW33154   0.287   3.903   6.300 -0.6155 -0.1676  0.5568
10752SOL    HW133155   0.377   3.891   6.342 -0.4197 -0.0156  0.1848
10752SOL    HW233156   0.298   3.917   6.201 -1.1707 -2.2602  0.1671
10753SOL     OW33157   6.544   0.383   3.602 -0.6261 -0.2334  0.4944
10753SOL    HW133158   6.469   0.373   3.667 -0.6268  0.4915  0.6142
10753SOL    HW233159   6.579   0.476   3.605  0.1591 -0.5117  0.3012
10754SOL     OW33160   0.667   4.087   2.320  0.4319  0.0318  0.0256
10754SOL    HW133161   0.643   4.064   2.225  0.5943  2.1433 -0.5750
10754SOL    HW233162   0.593   4.140   2.361  0.6002 -0.4034  0.9229
10755SOL     OW33163   0.494   2.125   3.071 -0.0283  0.1728 -0.3512
10755SOL    HW133164   0.535   2.216   3.082  3.4173 -1.1140 -1.2950
10755SOL    HW233165   0.412   2.133   3.014 -0.7957  2.8339  0.9489
10756SOL     OW33166   2.480   6.607   0.470  0.6186 -0.2082  0.2621
10756SOL    HW133167   2.437   6.635   0.556  1.9299 -1.3396  1.3160
10756SOL    HW233168   2.459   6.675   0.399  0.1254  1.1369  1.6480
10757SOL     OW33169   5.098   1.304   2.230 -0.5689  0.3349 -0.5280
10757SOL    HW133170   5.093   1.211   2.266 -1.4029  0.9428  1.0456
10757SOL    HW233171   5.030   1.316   2.158 -2.7468  0.5783  1.4584
10758SOL     OW33172   5.538   2.193   2.260 -0.3236 -0.0548 -0.5179
10758SOL    HW133173   5.570   2.209   2.353 -0.3664 -2.3456 -0.0431
10758SOL    HW233174   5.617   2.185   2.199  0.1068 -3.5639  0.2817
10759SOL     OW33175   3.687   5.194   4.488  0.5925  0.0318  0.3364
10759SOL    HW133176   3.698   5.097   4.511  1.0291  0.1540  0.6614
10759SOL    HW233177   3.767   5.225   4.437  0.1904  0.0778 -0.2772
10760SOL     OW33178   2.476   4.273   6.975  0.5370 -0.1981 -0.2036
10760SOL    HW133179   2.387   4.297   6.938  0.5287 -1.3539 -0.9963
10760SOL    HW233180   2.540   4.256   6.900  0.9822 -0.9098  0.3184
10761SOL     OW33181   2.648   6.500   1.127  0.0928 -0.1360  0.4693
10761SOL    HW133182   2.643   6.400   1.128 -3.3819 -0.1559 -1.5638
10761SOL    HW233183   2.565   6.538   1.169  1.1063  1.9259  0.7617
10762SOL     OW33184   2.781   5.280   6.965 -0.0260 -0.0487 -0.5690
10762SOL    HW133185   2.724   5.205   6.932  1.3311 -0.3491 -2.3694
10762SOL    HW233186   2.737   5.367   6.945 -0.4330 -0.3112 -0.8252
10763SOL     OW33187   4.875   0.173   0.803 -0.3253  0.1095 -0.4861
10763SOL    HW133188   4.862   0.077   0.828  1.0235  0.1067  0.3260
10763SOL    HW233189   4.819   0.231   0.862 -0.9560 -0.1506 -0.8154
10764SOL     OW33190   4.035   6.586   3.668 -0.2135  0.2761 -0.1386
10764SOL    HW133191   4.090   6.506   3.692 -1.5027 -0.2576  1.1974
10764SOL    HW233192   3.947   6.581   3.715  0.3086  3.3586  1.3895
10765SOL     OW33193   0.898   4.238   3.766  0.2662 -0.6904  0.7455
10765SOL    HW133194   0.830   4.311   3.776  0.7758 -0.2255  0.8760
10765SOL    HW233195   0.976   4.257   3.825  0.0209 -1.8107  1.4653
10766SOL     OW33196   4.426   0.199   6.469  1.0695 -0.3857  0.0478
10766SOL    HW133197   4.363   0.273   6.493  1.1180 -0.1770 -0.4648
10766SOL    HW233198   4.376   0.113   6.459  0.8703 -0.2279 -0.3196
10767SOL     OW33199   2.690   6.824   0.050 -0.3355  0.3777 -0.1563
10767SOL    HW133200   2.681   6.745   0.111 -4.4654  0.9636  0.2705
10767SOL    HW233201   2.648   6.803  -0.038 -0.4795  1.6972 -0.4288
10768SOL     OW33202   4.909   3.859   0.147  0.3990 -0.6597 -0.3476
10768SOL    HW133203   4.863   3.878   0.060  2.0517 -0.0199 -1.1186
10768SOL    HW233204   5.005   3.839   0.130  0.5220 -1.6071  1.2579
10769SOL     OW33205   3.053   3.916   2.919  0.3487  0.9133  0.0301
10769SOL    HW133206   3.133   3.875   2.962 -0.7974  0.3843  1.7907
10769SOL    HW233207   3.032   3.868   2.834  0.2916 -0.8005  0.9588
10770SOL     OW33208   5.153   6.538   4.245  0.5387  0.1015  0.3792
10770SOL    HW133209   5.172   6.500   4.154 -1.5563 -0.8578  0.2923
10770SOL    HW233210   5.108   6.627   4.235  1.1252  0.4205  0.5150
10771SOL     OW33211   4.399   0.716   5.562 -0.4217  0.2863 -0.3241
10771SOL    HW133212   4.335   0.639   5.565  0.5733 -0.5557  1.8343
10771SOL    HW233213   4.354   0.798   5.595 -1.0423  0.2731 -1.1070
10772SOL     OW33214   4.871   4.895   4.731  0.3161  0.2019 -0.0473
10772SOL    HW133215   4.885   4.798   4.754  1.1777  0.2438 -0.3610
10772SOL    HW233216   4.790   4.903   4.673 -0.4689 -0.1813  0.9511
10773SOL     OW33217   1.066   4.625   5.480  0.1090  0.2969 -0.3738
10773SOL    HW133218   1.086   4.715   5.521  1.1266 -0.3548  0.6247
10773SOL    HW233219   1.149   4.589   5.438  0.4105 -1.2356  1.3839
10774SOL     OW33220   0.743   2.066   2.338  0.2819 -0.0256 -0.4388
10774SOL    HW133221   0.695   2.131   2.398 -0.0965 -0.9335  0.2607
10774SOL    HW233222   0.800   2.005   2.393  0.0988 -0.7308 -1.0116
10775SOL     OW33223   1.439   5.487   0.822  0.1875 -0.3294 -0.4458
10775SOL    HW133224   1.429   5.586   0.809 -1.0940 -0.4392 -0.3644
10775SOL    HW233225   1.471   5.469   0.915 -0.9892 -0.0484  0.0263
10776SOL     OW33226   0.206   3.995   4.257  0.2914  0.4294  0.7370
10776SOL    HW133227   0.126   4.053   4.245  0.0453  0.2025  1.2423
10776SOL    HW233228   0.207   3.958   4.350 -0.9507 -2.4097 -0.2757
10777SOL     OW33229   0.620   6.252   1.270  0.4621  0.3754  0.5395
10777SOL    HW133230   0.683   6.193   1.321  1.9415  1.5663  0.1736
10777SOL    HW233231   0.557   6.196   1.217  2.2589 -0.9198 -0.3367
10778SOL     OW33232   2.311   0.058   2.266  0.3168 -0.3411  0.1611
10778SOL    HW133233   2.274  -0.002   2.194 -1.8601 -0.3558  1.2322
10778SOL    HW233234   2.381   0.118   2.226 -2.5220  1.4297 -2.6690
10779SOL     OW33235   0.347   3.048   5.022  0.3916 -0.1633 -0.2691
10779SOL    HW133236   0.296   3.074   5.104 -0.6102  1.0087 -1.2302
10779SOL    HW233237   0.438   3.088   5.025  0.1780  0.3067  0.0230
10780SOL     OW33238   6.364   5.218   5.867  0.0317 -0.7837 -0.1515
10780SOL    HW133239   6.402   5.295   5.918 -2.4325  1.1381 -1.0416
10780SOL    HW233240   6.413   5.208   5.780  1.5989 -1.5065  0.7715
10781SOL     OW33241   0.554   1.190   4.936 -0.1380  0.2151 -0.3777
10781SOL    HW133242   0.526   1.093   4.931 -1.4014  0.6140 -2.4977
10781SOL    HW233243   0.653   1.196   4.936 -0.0021 -1.1039  1.3827
10782SOL     OW33244   2.492   2.657   3.925  0.4160 -0.8458 -0.0276
10782SOL    HW133245   2.439   2.737   3.950  1.2040 -0.0707 -0.7436
10782SOL    HW233246   2.531   2.615   4.007  2.3992  1.2352  0.2172
10783SOL     OW33247   1.271   3.098   4.056  0.8090  0.4688 -0.0109
10783SOL    HW133248   1.369   3.090   4.074  0.7698 -1.9270 -0.5616
10783SOL    HW233249   1.257   3.157   3.977  1.7815  0.9260  0.1358
10784SOL     OW33250   5.078   5.787   3.800  0.0636 -0.4908  0.3930
10784SOL    HW133251   5.103   5.715   3.865  0.6820  1.5792  2.5399
10784SOL    HW233252   5.151   5.855   3.794 -1.1430  0.7975 -0.3958
10785SOL     OW33253   1.058   6.303   3.560 -0.3018  0.2221  0.7917
10785SOL    HW133254   1.132   6.319   3.625  0.7907  0.1973 -0.4059
10785SOL    HW233255   1.058   6.208   3.530 -0.9243  0.1827  0.8891
10786SOL     OW33256   4.691   0.107   2.689  0.0667  0.0497  0.2595
10786SOL    HW133257   4.628   0.175   2.726 -1.5128 -1.6661  0.9427
10786SOL    HW233258   4.763   0.087   2.756 -0.6424 -0.3833  0.9105
10787SOL     OW33259   4.275   0.259   3.011  0.0709  0.1977 -0.6905
10787SOL    HW133260   4.217   0.303   3.079 -1.6935 -1.1557 -1.2450
10787SOL    HW233261   4.290   0.164   3.036  1.0023  0.1943 -1.2216
10788SOL     OW33262   1.708   1.674   4.948 -0.1842  0.0593 -0.2994
10788SOL    HW133263   1.771   1.714   4.882 -1.0301 -0.8181 -1.6855
10788SOL    HW233264   1.624   1.729   4.951  0.2249  0.6569  0.8030
10789SOL     OW33265   1.658   3.889   2.032  0.1070  0.1301 -0.1142
10789SOL    HW133266   1.637   3.795   2.005  0.2524  0.1136 -0.1706
10789SOL    HW233267   1.718   3.889   2.112  0.4735  0.1688 -0.3852
10790SOL     OW33268   6.815   2.240   5.578 -0.1484  1.0607  0.5499
10790SOL    HW133269   6.718   2.228   5.597  0.3207 -1.0782  1.8626
10790SOL    HW233270   6.830   2.236   5.479 -1.1013 -1.5913  0.4303
10791SOL     OW33271   3.129   1.736   2.895  0.1861  0.1134 -0.1138
10791SOL    HW133272   3.067   1.658   2.899 -0.3376  0.5424  0.3344
10791SOL    HW233273   3.105   1.792   2.815  0.1643  0.1396 -0.0888
10792SOL     OW33274   2.717   1.435   6.892 -0.7258  0.1109 -0.6442
10792SOL    HW133275   2.792   1.479   6.842  0.5225 -0.5999  0.5099
10792SOL    HW233276   2.633   1.440   6.839  0.0329  1.3367 -1.7893
10793SOL     OW33277   5.424   2.460   3.667 -0.0791 -0.3469  0.0621
10793SOL    HW133278   5.515   2.431   3.698  0.4096 -0.7457 -1.6375
10793SOL    HW233279   5.373   2.381   3.636 -0.4586  0.0553 -0.3497
10794SOL     OW33280   4.549   3.932   6.582  0.0584  0.1658 -0.0923
10794SOL    HW133281   4.465   3.882   6.561  0.5416 -0.2479 -1.0885
10794SOL    HW233282   4.596   3.957   6.497  1.1189  0.0973  0.4575
10795SOL     OW33283   6.142   4.304   5.788  0.3959  0.4265 -0.2195
10795SOL    HW133284   6.107   4.293   5.695  0.8497  0.1755 -0.3643
10795SOL    HW233285   6.108   4.390   5.827  0.6958  0.8388 -0.8445
10796SOL     OW33286   6.644   2.616   5.402 -0.0655 -0.4068 -0.0760
10796SOL    HW133287   6.617   2.520   5.411  3.0178 -1.3348  0.4896
10796SOL    HW233288   6.726   2.622   5.346 -1.8149  2.3029 -2.6045
10797SOL     OW33289   4.868   5.529   1.445 -0.1682 -0.6047 -0.1459
10797SOL    HW133290   4.877   5.600   1.375 -1.2664  0.7963  1.0836
10797SOL    HW233291   4.927   5.552   1.523  0.2223 -1.5758 -0.1492
10798SOL     OW33292   3.650   0.305   0.305 -0.1442  0.4512 -0.2924
10798SOL    HW133293   3.698   0.385   0.267  1.2449 -1.1619 -2.1257
10798SOL    HW233294   3.690   0.282   0.394  0.8761  0.5820 -0.6941
10799SOL     OW33295   2.521   1.329   1.179 -0.2890 -0.6456  0.2265
10799SOL    HW133296   2.521   1.247   1.235  1.5698 -1.0249 -0.2412
10799SOL    HW233297   2.564   1.404   1.229  1.0630 -0.8929 -0.5185
10800SOL     OW33298   1.100   1.197   6.216 -0.1301  0.0358 -0.3748
10800SOL    HW133299   1.111   1.293   6.190 -0.5805 -0.1785 -1.3753
10800SOL    HW233300   1.005   1.179   6.240 -0.0093 -0.1231 -0.0051
10801SOL     OW33301   4.621   6.933   6.867  0.1355  0.2348  0.2152
10801SOL    HW133302   4.626   6.889   6.957  0.5484  0.6256  0.3878
10801SOL    HW233303   4.527   6.929   6.834 -0.4270  1.7025  1.4937
10802SOL     OW33304   1.814   3.122   2.651 -0.4080  0.3401 -0.2382
10802SOL    HW133305   1.805   3.102   2.553 -0.0299  1.3377 -0.4863
10802SOL    HW233306   1.819   3.036   2.702  0.3497 -0.1958 -1.1855
10803SOL     OW33307   0.993   4.009   4.741  0.4675  0.1757 -0.4272
10803SOL    HW133308   1.055   3.942   4.701  2.1479 -0.0193  2.3023
10803SOL    HW233309   0.985   4.087   4.678  0.7688 -1.2394 -2.3350
10804SOL     OW33310   6.340   6.620   0.962 -0.0505  0.4311 -0.1133
10804SOL    HW133311   6.422   6.652   0.915 -0.0229  0.2690 -0.1743
10804SOL    HW233312   6.275   6.696   0.970 -0.1820  0.3867 -0.6877
10805SOL     OW33313   5.624   4.979   0.735 -0.4743 -0.6347 -0.0085
10805SOL    HW133314   5.538   5.027   0.722  0.0608 -0.4261 -3.5804
10805SOL    HW233315   5.699   5.031   0.695  0.8848 -2.1541  0.4185
10806SOL     OW33316   1.182   0.982   4.529  0.0234 -0.2947  0.5979
10806SOL    HW133317   1.195   1.064   4.473 -2.1715  1.5205  2.5250
10806SOL    HW233318   1.176   0.902   4.470  4.5953  0.4074 -1.2558
10807SOL     OW33319   5.518   3.904   5.068 -0.3086 -0.3069 -0.1579
10807SOL    HW133320   5.451   3.890   5.141 -0.8264 -0.3432 -0.6333
10807SOL    HW233321   5.552   3.815   5.037  0.6595 -0.2576  0.7111
10808SOL     OW33322   0.754   1.529   1.478  0.0605 -0.6863 -0.3505
10808SOL    HW133323   0.743   1.430   1.483 -0.2878 -0.6013  1.1122
10808SOL    HW233324   0.668   1.571   1.448 -0.0272 -0.7923 -0.2499
10809SOL     OW33325   1.866   2.572   4.081 -0.5452 -0.3520 -0.4422
10809SOL    HW133326   1.808   2.647   4.048  2.0641  2.0961  0.1668
10809SOL    HW233327   1.897   2.518   4.002  0.1979  1.3034 -1.3488
10810SOL     OW33328   1.640   2.283   6.473 -0.0527  0.4990  0.6621
10810SOL    HW133329   1.605   2.368   6.435  0.9790  0.3793 -0.6538
10810SOL    HW233330   1.680   2.228   6.399  0.2575 -0.6422  1.6493
10811SOL     OW33331   4.111   4.150   6.595  0.3133  0.6021 -0.8345
10811SOL    HW133332   4.079   4.107   6.510  1.6632 -0.6760 -0.7254
10811SOL    HW233333   4.210   4.160   6.592  0.3540  0.7317  0.5199
10812SOL     OW33334   6.676   4.489   0.142  0.1683  0.2431  0.0441
10812SOL    HW133335   6.722   4.479   0.230 -1.8888 -0.0982  1.1439
10812SOL    HW233336   6.644   4.583   0.131 -2.4671 -0.4437  1.2383
10813SOL     OW33337   4.165   6.102   2.459  0.2620  0.0724 -0.0231
10813SOL    HW133338   4.106   6.120   2.380 -0.8994 -1.2776  0.4799
10813SOL    HW233339   4.239   6.169   2.462 -0.3795  0.8984 -1.5442
10814SOL     OW33340   1.667   5.399   2.646 -0.7837  0.2716 -0.7202
10814SOL    HW133341   1.763   5.408   2.621 -0.3558 -1.3469  0.2015
10814SOL    HW233342   1.649   5.451   2.730 -0.2808 -0.7545  0.0479
10815SOL     OW33343   6.176   3.279   5.725 -0.0208  0.0088  0.1360
10815SOL    HW133344   6.220   3.256   5.638  1.2176 -0.0116  0.7559
10815SOL    HW233345   6.077   3.267   5.716  0.2627 -2.1384 -0.6213
10816SOL     OW33346   2.946   2.416   1.403 -0.0736  0.3553  0.4564
10816SOL    HW133347   3.036   2.373   1.409 -0.7986 -1.4165 -0.6573
10816SOL    HW233348   2.930   2.448   1.310  0.0672  2.3084  1.0448
10817SOL     OW33349   3.078   0.389   3.835  0.1901  0.2886  0.0468
10817SOL    HW133350   3.103   0.379   3.931 -1.7458  0.7254  0.6384
10817SOL    HW233351   3.151   0.352   3.778  1.3336 -0.0833  1.6708
10818SOL     OW33352   4.446   3.219   6.725 -0.4603 -0.3178  0.0887
10818SOL    HW133353   4.404   3.129   6.722 -2.3791  0.5597 -1.5636
10818SOL    HW233354   4.416   3.268   6.807 -1.1635 -0.4059 -0.1118
10819SOL     OW33355   1.807   3.151   3.322 -0.1360  0.0499 -0.6642
10819SOL    HW133356   1.857   3.096   3.255  0.9652 -1.2787  1.1574
10819SOL    HW233357   1.710   3.130   3.316  0.0662 -0.7855 -1.1943
10820SOL     OW33358   6.935   6.046   3.564 -0.2451 -0.2565 -0.2459
10820SOL    HW133359   6.839   6.020   3.561 -0.4812  0.5768 -2.6364
10820SOL    HW233360   6.942   6.146   3.572  0.4279 -0.3182  0.0027
10821SOL     OW33361   6.244   6.127   5.772 -0.5728 -0.4340  0.4985
10821SOL    HW133362   6.329   6.175   5.790 -0.1339 -0.5039 -1.2051
10821SOL    HW233363   6.258   6.028   5.783 -0.0641 -0.5504 -0.9456
10822SOL     OW33364   6.190   4.299   0.987  0.2207 -0.4127 -0.9904
10822SOL    HW133365   6.265   4.237   0.967  0.7721 -0.3972  0.8659
10822SOL    HW233366   6.226   4.389   1.013 -0.4281 -0.3491 -0.2731
10823SOL     OW33367   3.516   0.981   0.321  0.0645  0.0941  0.3935
10823SOL    HW133368   3.470   0.945   0.403 -0.8750 -0.1971 -0.2503
10823SOL    HW233369   3.470   0.948   0.239  0.2583  1.3549 -0.2468
10824SOL     OW33370   5.688   1.468   5.807 -0.1760 -0.0695  0.3445
10824SOL    HW133371   5.632   1.456   5.889  1.1445  0.6785  1.3939
10824SOL    HW233372   5.719   1.563   5.800 -0.2156 -0.1258 -1.0055
10825SOL     OW33373   4.325   0.180   1.439 -0.7842 -0.8464 -0.0006
10825SOL    HW133374   4.349   0.275   1.419 -2.3101 -0.0021  1.8451
10825SOL    HW233375   4.407   0.130   1.466 -0.2371  0.4943  0.9327
10826SOL     OW33376   1.104   2.047   1.480  0.3389  0.0699  0.3030
10826SOL    HW133377   1.149   1.974   1.429 -1.0732  0.8739 -2.2463
10826SOL    HW233378   1.171   2.115   1.508  0.9611  0.6403 -2.3442
10827SOL     OW33379   5.357   4.489   6.388  0.0645  0.3575  0.1761
10827SOL    HW133380   5.439   4.513   6.335  0.8466 -1.0621  0.6693
10827SOL    HW233381   5.380   4.488   6.485 -0.5550  0.0150  0.3232
10828SOL     OW33382   3.343   5.702   6.600 -0.1545  0.1703 -0.5689
10828SOL    HW133383   3.386   5.762   6.533 -0.3720  1.5646  0.4944
10828SOL    HW233384   3.272   5.753   6.650 -0.9373 -1.2163 -0.2026
10829SOL     OW33385   0.306   3.294   1.918  0.1456  0.1418  0.5662
10829SOL    HW133386   0.254   3.208   1.916  1.8974 -0.9559 -1.1892
10829SOL    HW233387   0.321   3.327   1.825  1.0793  1.3781  1.1209
10830SOL     OW33388   6.060   0.677   3.157 -0.4445 -0.0219  0.0523
10830SOL    HW133389   6.088   0.735   3.081  1.4666  0.7439  1.2589
10830SOL    HW233390   5.997   0.726   3.216 -0.9949 -0.1991 -0.3714
10831SOL     OW33391   5.247   2.198   1.580 -0.3617  0.2665  0.5421
10831SOL    HW133392   5.311   2.247   1.521 -0.9070  0.0770 -0.2234
10831SOL    HW233393   5.265   2.100   1.574 -0.6323  0.2223  0.4311
10832SOL     OW33394   6.742   1.951   3.952  0.3692 -0.3282 -0.1784
10832SOL    HW133395   6.737   2.028   3.888 -1.7389  0.7646  1.1795
10832SOL    HW233396   6.750   1.986   4.045 -0.3173 -1.7653  0.4431
10833SOL     OW33397   4.066   5.559   4.010  0.2765 -0.3312 -0.0887
10833SOL    HW133398   3.997   5.584   4.077 -0.5314 -1.2444 -0.5578
10833SOL    HW233399   4.149   5.611   4.027  0.1984 -0.7439  1.7973
10834SOL     OW33400   6.048   6.519   6.703  0.2620  0.0460 -0.6349
10834SOL    HW133401   6.020   6.426   6.681  0.2654 -0.0859 -0.1072
10834SOL    HW233402   5.970   6.569   6.742  0.1591  0.3823 -1.2532
10835SOL     OW33403   6.753   1.297   1.177  0.3894 -0.1597 -0.1195
10835SOL    HW133404   6.852   1.289   1.168  0.5494 -1.6506  2.1291
10835SOL    HW233405   6.712   1.205   1.179 -0.8428  0.3750  0.5950
10836SOL     OW33406   5.373   0.269   1.083 -0.6721  0.3888 -0.0237
10836SOL    HW133407   5.334   0.308   1.167  0.1873 -0.9366  1.0362
10836SOL    HW233408   5.333   0.179   1.067 -0.6989  0.5608 -0.9636
10837SOL     OW33409   2.406   4.729   6.481  0.6821 -0.3210  0.1062
10837SOL    HW133410   2.439   4.660   6.417  1.0579  0.1727 -0.2384
10837SOL    HW233411   2.310   4.712   6.502  0.4842 -0.3461 -0.7812
10838SOL     OW33412   5.712   6.124   6.903  0.0636  0.3817 -0.5195
10838SOL    HW133413   5.702   6.213   6.859 -2.6695  0.4982  0.1608
10838SOL    HW233414   5.650   6.058   6.860  0.8809 -0.7761  0.0191
10839SOL     OW33415   0.255   0.225   0.153  0.2861 -0.2256 -0.5517
10839SOL    HW133416   0.167   0.227   0.106 -0.0872  0.8704  0.1589
10839SOL    HW233417   0.329   0.225   0.085 -0.2522 -0.4207 -1.1507
10840SOL     OW33418   1.117   0.601   2.810  0.3909  0.7073  0.3614
10840SOL    HW133419   1.112   0.671   2.881 -1.7623  0.1957  0.7706
10840SOL    HW233420   1.098   0.511   2.849 -2.4852  0.5920 -1.0161
10841SOL     OW33421   3.096   3.498   5.579  0.3031 -0.3846  0.0050
10841SOL    HW133422   2.999   3.473   5.571 -0.1351  1.6754 -2.8508
10841SOL    HW233423   3.152   3.418   5.554 -0.7166 -1.1415  0.0553
10842SOL     OW33424   4.977   2.488   2.957 -0.1957 -0.0095  0.3577
10842SOL    HW133425   4.977   2.555   3.032  2.2600  0.6764 -0.1793
10842SOL    HW233426   5.071   2.467   2.931 -0.9684 -1.1487 -1.7530
10843SOL     OW33427   0.470   0.545   1.159 -0.2346  0.2494 -0.0265
10843SOL    HW133428   0.464   0.560   1.061 -2.8098  2.0418  0.3056
10843SOL    HW233429   0.519   0.621   1.201 -1.0527  0.6262  0.2681
10844SOL     OW33430   2.435   5.778   1.919 -0.4222 -0.0076  0.2728
10844SOL    HW133431   2.448   5.838   1.841 -0.6864 -0.1773  0.0974
10844SOL    HW233432   2.367   5.817   1.981 -0.7658 -0.2426  0.0413
10845SOL     OW33433   1.787   2.483   0.963  0.2318 -0.6727 -0.3612
10845SOL    HW133434   1.826   2.573   0.940  0.8483 -0.9366 -0.3848
10845SOL    HW233435   1.812   2.459   1.056 -1.0588 -0.2412  0.1194
10846SOL     OW33436   2.314   2.200   1.719 -0.6052  0.4613 -0.2022
10846SOL    HW133437   2.341   2.105   1.736  0.4468  1.1135  2.3785
10846SOL    HW233438   2.329   2.223   1.623  0.2249 -1.6394 -0.6280
10847SOL     OW33439   6.345   1.406   3.829  0.8256 -0.1453 -0.0154
10847SOL    HW133440   6.418   1.413   3.762 -0.3163  0.3423 -1.2680
10847SOL    HW233441   6.304   1.315   3.825  0.7866 -0.1306  0.0427
10848SOL     OW33442   2.485   5.250   3.844 -0.1986 -0.9313 -0.1501
10848SOL    HW133443   2.449   5.232   3.936 -0.2100 -3.1150 -0.5255
10848SOL    HW233444   2.474   5.168   3.788 -0.2934  0.3863 -2.1586
10849SOL     OW33445   6.512   3.951   3.213 -0.4576  0.3938 -0.5449
10849SOL    HW133446   6.481   3.866   3.257  0.6748  0.2513  0.0364
10849SOL    HW233447   6.557   3.929   3.127  0.9000  0.2531  0.1694
10850SOL     OW33448   6.655   2.118   3.115 -0.7681  0.0465  0.2305
10850SOL    HW133449   6.750   2.135   3.139 -0.8186 -0.5579  0.8877
10850SOL    HW233450   6.597   2.190   3.154 -0.8656 -0.9985  2.1247
10851SOL     OW33451   6.528   2.764   6.676 -0.0450  0.3460  0.3074
10851SOL    HW133452   6.518   2.715   6.589  1.2687  1.3532 -0.4441
10851SOL    HW233453   6.438   2.792   6.708 -0.4164  2.5051 -2.2553
10852SOL     OW33454   5.965   1.664   6.087 -0.0699  0.6492 -0.0585
10852SOL    HW133455   6.053   1.661   6.041  0.5021  2.0014  0.8950
10852SOL    HW233456   5.942   1.758   6.112 -0.7625  0.0921  1.6165
10853SOL     OW33457   1.305   6.101   0.266 -0.3451 -0.1064 -0.5140
10853SOL    HW133458   1.327   6.004   0.255  0.7864  0.2001 -1.1119
10853SOL    HW233459   1.312   6.147   0.177  1.9279  1.0464  0.1799
10854SOL     OW33460   6.728   5.847   6.136 -1.1048 -0.0180  0.4875
10854SOL    HW133461   6.775   5.789   6.202 -0.0966 -0.0696 -0.2449
10854SOL    HW233462   6.774   5.936   6.131 -0.6591 -0.2858 -0.6902
10855SOL     OW33463   1.398   4.699   0.316  0.1319  0.1049  0.6798
10855SOL    HW133464   1.358   4.719   0.405  0.6206 -1.0316  1.1808
10855SOL    HW233465   1.391   4.601   0.298 -1.2741  0.4899 -1.1940
10856SOL     OW33466   4.017   0.768   6.455 -0.3178  0.8423 -0.2502
10856SOL    HW133467   4.051   0.862   6.458  1.4958  0.2037  1.0617
10856SOL    HW233468   4.047   0.719   6.538  0.0522 -1.3091 -1.5812
10857SOL     OW33469   5.465   6.161   4.950 -0.4233 -0.1226 -0.0139
10857SOL    HW133470   5.561   6.135   4.959 -0.8376 -1.3748  1.1052
10857SOL    HW233471   5.449   6.199   4.859  0.4529 -2.9587 -1.4603
10858SOL     OW33472   1.047   4.312   1.999  0.6523 -0.1337 -0.3104
10858SOL    HW133473   0.961   4.339   2.043 -0.2213 -0.5270 -1.7305
10858SOL    HW233474   1.068   4.217   2.021  0.1303 -0.3801 -0.8469
10859SOL     OW33475   6.427   5.321   1.148 -0.3073  0.2339 -0.5283
10859SOL    HW133476   6.463   5.278   1.231 -0.7142  0.7177 -0.0922
10859SOL    HW233477   6.487   5.300   1.071  1.5181  1.8430  0.3641
10860SOL     OW33478   4.459   0.874   2.821 -0.0605 -0.1857  0.3104
10860SOL    HW133479   4.464   0.888   2.722 -2.4166  0.6260  0.2401
10860SOL    HW233480   4.470   0.962   2.867  0.4329 -0.4747  0.7514
10861SOL     OW33481   3.626   4.648   6.991  0.2881 -0.3025 -0.2501
10861SOL    HW133482   3.659   4.743   6.992  0.3279 -0.3174 -0.1337
10861SOL    HW233483   3.662   4.602   6.910 -0.0527 -0.1053 -0.5170
10862SOL     OW33484   3.094   5.214   0.034  0.4346 -0.3261  0.2952
10862SOL    HW133485   3.085   5.221   0.134  0.8734 -0.3838  0.3413
10862SOL    HW233486   3.039   5.284  -0.010  1.3667  0.6446  0.6183
10863SOL     OW33487   0.591   0.794   3.368  0.5689  0.4250  0.1349
10863SOL    HW133488   0.630   0.731   3.301 -0.0283  1.2107 -0.9692
10863SOL    HW233489   0.662   0.817   3.435  0.5567 -2.0975  1.1262
10864SOL     OW33490   4.027   3.016   0.840 -0.1494  0.9641 -0.0436
10864SOL    HW133491   4.098   2.983   0.903  0.6659  1.9005 -0.4396
10864SOL    HW233492   4.026   3.116   0.842 -1.6393  0.9698  0.1336
10865SOL     OW33493   3.470   2.117   2.771 -0.2257 -0.2838 -0.0869
10865SOL    HW133494   3.551   2.146   2.720 -0.7702  1.4536 -0.0030
10865SOL    HW233495   3.405   2.074   2.709 -0.6929  1.4166 -0.8185
10866SOL     OW33496   0.590   4.395   4.654  0.3862 -0.0250  0.2961
10866SOL    HW133497   0.558   4.478   4.608 -1.0412 -1.8209 -2.2060
10866SOL    HW233498   0.687   4.404   4.674  0.1110  2.5189  0.8559
10867SOL     OW33499   6.513   4.027   0.152  0.1772 -0.3096 -0.8703
10867SOL    HW133500   6.598   3.989   0.187 -1.6202 -3.3525  0.6304
10867SOL    HW233501   6.516   4.127   0.157  2.9667 -0.3814  0.7694
10868SOL     OW33502   0.908   0.303   0.052 -0.2975 -0.0437 -0.1303
10868SOL    HW133503   0.888   0.205   0.049 -0.1116 -0.3207  3.1914
10868SOL    HW233504   0.983   0.319   0.117 -1.0090  2.3806  0.1812
10869NA      NA33505   6.897   0.858   0.904 -0.3732  0.4545 -0.2344
10870NA      NA33506   4.467   4.489   5.256  0.5107  0.1169  0.1431
10871NA      NA33507   2.209   4.419   2.631  0.1538 -0.3518  0.5110
10872NA      NA33508   5.990   3.332   2.971 -0.3991  0.3677 -0.4728
10873NA      NA33509   4.308   2.367   5.222 -0.0540 -0.1289 -0.2712
10874NA      NA33510   3.057   4.818   6.496  0.6755 -0.0758  0.2341
10875NA      NA33511   3.123   5.460   1.122 -0.1412  0.0237 -0.2426
10876NA      NA33512   4.537   4.956   2.732 -0.6818 -0.0357  0.1142
10877NA      NA33513   5.274   2.652   0.499  0.5692  0.1088  0.3100
10878NA      NA33514   4.403   2.134   0.714 -0.2082 -0.2173  0.1498
10879NA      NA33515   5.880   6.674   0.715 -0.0530  0.2881  0.1261
10880NA      NA33516   2.143   6.019   3.881  0.1971 -0.4584  0.1893
10881NA      NA33517   3.924   6.172   4.666 -0.5774  0.1266 -0.0202
10882NA      NA33518   3.327   4.149   5.898 -0.0404 -0.0389 -0.7766
   7.02217   7.02217   7.02217
