CNT in water
33518
    1C        C    1   2.843   2.768   4.746  0.5882  0.2865  0.1856
    1C        C    2   2.893   2.711   4.865 -0.1056  0.2727  0.4759
    1C        C    3   2.834   2.765   4.981 -0.5321 -0.0914  0.4353
    1C        C    4   2.851   2.774   4.258  0.2172 -0.1934 -0.2407
    1C        C    5   2.906   2.730   4.380 -0.3251 -0.1911  0.0090
    1C        C    6   2.853   2.779   4.501  0.0993  0.1693  0.0515
    1C        C    7   3.014   2.645   4.622 -0.0316 -0.1969 -0.1412
    1C        C    8   2.897   2.724   4.623  0.3244  0.3331  0.0478
    1C        C    9   3.074   2.602   4.742  0.0567  0.0093 -0.1117
    1C        C   10   3.008   2.630   4.864 -0.4868 -0.2635 -0.3447
    1C        C   11   3.182   2.491   4.976  0.2144  0.7487  0.3393
    1C        C   12   3.062   2.564   4.975 -0.1287  0.1920 -0.2476
    1C        C   13   2.854   2.774   3.769  0.2291  0.0678 -0.2571
    1C        C   14   2.909   2.728   3.891 -0.0340  0.0701 -0.1380
    1C        C   15   2.852   2.773   4.012 -0.2489 -0.5477 -0.0026
    1C        C   16   3.015   2.641   4.136 -0.2677 -1.0226  0.1604
    1C        C   17   2.902   2.725   4.135 -0.0129 -0.6754 -0.1464
    1C        C   18   3.081   2.611   4.257 -0.2578 -0.7351  0.2274
    1C        C   19   3.022   2.649   4.380 -0.4397 -0.3606  0.0263
    1C        C   20   3.207   2.550   4.505 -0.0873 -0.3306 -0.1500
    1C        C   21   3.077   2.605   4.502 -0.1031 -0.3644 -0.1249
    1C        C   22   3.277   2.529   4.627  0.0112 -0.6231 -0.2553
    1C        C   23   3.206   2.550   4.747 -0.0114 -0.1903 -0.3422
    1C        C   24   3.415   2.492   4.865 -0.1865  0.2943 -0.1402
    1C        C   25   3.272   2.508   4.866 -0.1787  0.3620 -0.0506
    1C        C   26   3.490   2.481   4.983  0.0307  0.5513 -0.2538
    1C        C   27   2.851   2.770   3.283 -0.0213  0.0048  0.0117
    1C        C   28   2.909   2.726   3.404  0.0391 -0.2379 -0.1017
    1C        C   29   2.857   2.773   3.527 -0.4493 -0.6856 -0.1273
    1C        C   30   3.021   2.637   3.649 -0.0942 -0.5037  0.0480
    1C        C   31   2.909   2.724   3.649  0.0457 -0.3183 -0.1837
    1C        C   32   3.078   2.600   3.772  0.0333 -0.4137  0.0187
    1C        C   33   3.015   2.636   3.894 -0.6284 -0.6315 -0.2492
    1C        C   34   3.207   2.545   4.017 -0.5704 -0.1948  0.1014
    1C        C   35   3.077   2.600   4.016 -0.8675 -0.8868 -0.2001
    1C        C   36   3.278   2.532   4.139  0.0459 -0.1540 -0.2463
    1C        C   37   3.210   2.553   4.261 -0.0374 -0.2802 -0.2709
    1C        C   38   3.412   2.498   4.382 -0.0497 -0.0099  0.0884
    1C        C   39   3.274   2.526   4.383 -0.0420  0.0406 -0.1976
    1C        C   40   3.487   2.494   4.502  0.0264  0.2913  0.0488
    1C        C   41   3.415   2.502   4.623  0.0191 -0.6326  0.1057
    1C        C   42   3.630   2.499   4.747  0.1548 -0.1634  0.1034
    1C        C   43   3.488   2.490   4.743  0.1553 -0.1540  0.0691
    1C        C   44   3.703   2.509   4.867  0.0899  0.2728  0.1093
    1C        C   45   3.628   2.495   4.984  0.0992 -0.1010  0.0721
    1C        C   46   2.846   2.762   2.795  0.1587 -0.3419 -0.0780
    1C        C   47   2.900   2.720   2.918  0.0016  0.1459  0.1665
    1C        C   48   2.855   2.774   3.040 -0.3217 -0.0494  0.1374
    1C        C   49   3.025   2.647   3.161  0.1312  0.1507  0.0144
    1C        C   50   2.908   2.726   3.162  0.1167  0.1368  0.0239
    1C        C   51   3.087   2.611   3.283 -0.0514 -0.7118 -0.1388
    1C        C   52   3.023   2.643   3.404  0.0135 -0.2794 -0.2141
    1C        C   53   3.211   2.547   3.528 -0.3275 -0.2670  0.1448
    1C        C   54   3.080   2.600   3.526 -0.4804 -0.6416 -0.1020
    1C        C   55   3.274   2.520   3.652 -0.3719 -0.6647  0.0862
    1C        C   56   3.208   2.547   3.774 -0.0587 -0.6393  0.2531
    1C        C   57   3.416   2.503   3.894 -0.1536 -0.4086 -0.0922
    1C        C   58   3.277   2.529   3.895 -0.0923 -0.0857  0.3584
    1C        C   59   3.486   2.495   4.017 -0.1368  0.1421 -0.0648
    1C        C   60   3.416   2.505   4.139  0.1244  0.2448  0.0746
    1C        C   61   3.627   2.502   4.260  0.0773  0.6555  0.3860
    1C        C   62   3.486   2.494   4.262  0.0749  0.6707  0.1425
    1C        C   63   3.700   2.515   4.381  0.4176  0.2489  0.2250
    1C        C   64   3.628   2.502   4.501  0.0393  0.0295 -0.0245
    1C        C   65   3.832   2.556   4.623  0.1015 -0.1205 -0.2269
    1C        C   66   3.698   2.512   4.623 -0.1140  0.5219  0.0220
    1C        C   67   3.902   2.583   4.743 -0.1369 -0.3216 -0.0420
    1C        C   68   3.838   2.550   4.864  0.0996  0.2464  0.2376
    1C        C   69   4.056   2.586   4.975  0.0403  0.0752 -0.1888
    1C        C   70   3.925   2.535   4.973  0.0329  0.0729  0.2666
    1C        C   71   2.829   2.738   2.312  0.4410  0.1332  0.0789
    1C        C   72   2.882   2.694   2.436  0.0919  0.2523  0.2720
    1C        C   73   2.828   2.746   2.555  0.4309  0.6675  0.2472
    1C        C   74   3.005   2.621   2.675 -0.0787 -0.9169  0.1384
    1C        C   75   2.888   2.701   2.675  0.3617 -0.2538 -0.0554
    1C        C   76   3.069   2.590   2.796 -0.2603 -0.6540  0.3079
    1C        C   77   3.011   2.632   2.918 -0.5614 -0.5765  0.1419
    1C        C   78   3.206   2.542   3.038 -0.1814 -0.3567  0.0563
    1C        C   79   3.079   2.603   3.038  0.0454  0.1298 -0.0192
    1C        C   80   3.276   2.520   3.159 -0.0881 -0.5200 -0.0219
    1C        C   81   3.214   2.549   3.282  0.2192 -0.1738  0.0581
    1C        C   82   3.417   2.499   3.407 -0.1354  0.0184  0.1276
    1C        C   83   3.279   2.526   3.406 -0.2797 -0.6795  0.2356
    1C        C   84   3.485   2.493   3.530 -0.0238 -0.2286  0.0569
    1C        C   85   3.414   2.498   3.652 -0.2947 -0.2053 -0.1013
    1C        C   86   3.628   2.492   3.774 -0.2043 -0.4380  0.2179
    1C        C   87   3.487   2.494   3.773 -0.1985  0.0172 -0.1507
    1C        C   88   3.699   2.507   3.895 -0.1579  0.6075  0.0770
    1C        C   89   3.626   2.505   4.016 -0.1638  0.5262  0.0727
    1C        C   90   3.832   2.555   4.136 -0.2537  0.1362 -0.2976
    1C        C   91   3.697   2.516   4.138 -0.2116  0.0156  0.1447
    1C        C   92   3.904   2.576   4.256  0.0477  0.2662 -0.5010
    1C        C   93   3.837   2.549   4.377  0.4137  0.2101 -0.3124
    1C        C   94   4.027   2.636   4.500  0.0772  0.2786  0.3932
    1C        C   95   3.898   2.578   4.501  0.1677  0.0636 -0.1569
    1C        C   96   4.092   2.674   4.619  0.6576 -0.1830  0.2270
    1C        C   97   4.034   2.635   4.741 -0.2732  0.0204 -0.1430
    1C        C   98   4.205   2.759   4.862  0.2656 -0.1321  0.1757
    1C        C   99   4.108   2.654   4.861 -0.3544  0.4332 -0.1572
    1C        C  100   4.213   2.843   4.973  0.5048  0.0964 -0.0124
    1C        C  101   2.814   2.727   2.075 -0.4660 -0.0502  0.0660
    1C        C  102   2.992   2.595   2.192 -0.1686  0.0155  0.5251
    1C        C  103   2.876   2.679   2.192 -0.3079 -0.1719 -0.0665
    1C        C  104   3.064   2.578   2.313  0.1481 -0.4360  0.2800
    1C        C  105   3.003   2.621   2.433  0.1423  0.3399  0.0099
    1C        C  106   3.200   2.537   2.552  0.1906  0.3938  0.3189
    1C        C  107   3.069   2.589   2.553 -0.2271 -0.6119 -0.0260
    1C        C  108   3.270   2.516   2.673 -0.1022 -0.3625  0.3693
    1C        C  109   3.200   2.537   2.794 -0.2203 -0.5685  0.3436
    1C        C  110   3.410   2.490   2.917  0.0242 -0.3766  0.2247
    1C        C  111   3.271   2.516   2.915 -0.0716 -0.8583  0.2115
    1C        C  112   3.483   2.489   3.038  0.0615  0.6244  0.2211
    1C        C  113   3.414   2.492   3.161  0.0173 -0.0115  0.2173
    1C        C  114   3.626   2.487   3.282  0.0326  0.1371  0.0678
    1C        C  115   3.484   2.489   3.283  0.0303  0.0269  0.2140
    1C        C  116   3.693   2.505   3.404  0.1401 -0.3496  0.0825
    1C        C  117   3.627   2.496   3.528 -0.0241 -0.1583  0.0101
    1C        C  118   3.832   2.546   3.648 -0.4037  0.1312  0.0185
    1C        C  119   3.696   2.506   3.651 -0.3313 -0.1089  0.1823
    1C        C  120   3.900   2.570   3.769  0.2099 -0.3427 -0.2293
    1C        C  121   3.834   2.548   3.892  0.0692 -0.1394 -0.2689
    1C        C  122   4.019   2.651   4.013 -0.1489  0.0767  0.2007
    1C        C  123   3.900   2.574   4.014 -0.0500 -0.0828 -0.2170
    1C        C  124   4.080   2.689   4.134  0.2127 -0.1848  0.1029
    1C        C  125   4.028   2.644   4.257  0.0156  0.3117  0.2004
    1C        C  126   4.192   2.773   4.377 -0.0331  0.0365 -0.1185
    1C        C  127   4.090   2.676   4.380  0.0560 -0.0446  0.2733
    1C        C  128   4.243   2.824   4.499 -0.0639  0.3329 -0.2289
    1C        C  129   4.197   2.769   4.621  0.3580  0.1566 -0.1495
    1C        C  130   4.333   2.934   4.740  0.1587 -0.2686 -0.2237
    1C        C  131   4.254   2.816   4.741  0.2809 -0.3455  0.0832
    1C        C  132   4.356   3.004   4.860 -0.1294 -0.2196 -0.1976
    1C        C  133   4.288   2.961   4.974 -0.1856  0.5386  0.0612
    1C        C  134   3.173   2.475   2.081 -0.0778  0.4477 -0.3439
    1C        C  135   3.040   2.517   2.081 -0.1050  0.3712  0.3001
    1C        C  136   3.259   2.483   2.192 -0.2735  0.0021 -0.1524
    1C        C  137   3.194   2.521   2.311 -0.1304 -1.0847  0.2839
    1C        C  138   3.405   2.478   2.430 -0.0713 -0.4896  0.1287
    1C        C  139   3.267   2.506   2.431 -0.0017 -0.1280  0.3370
    1C        C  140   3.478   2.475   2.551 -0.5141 -1.2502  0.3907
    1C        C  141   3.409   2.487   2.673 -0.0776 -0.2755  0.5630
    1C        C  142   3.621   2.488   2.791  0.2655 -0.1544  0.1513
    1C        C  143   3.480   2.480   2.795  0.2768 -0.3234  0.3601
    1C        C  144   3.692   2.494   2.913  0.3032 -0.2275  0.1354
    1C        C  145   3.624   2.488   3.037  0.0637 -0.5184 -0.0047
    1C        C  146   3.829   2.537   3.157  0.0528 -0.0709 -0.2082
    1C        C  147   3.695   2.494   3.159 -0.0374  0.2098  0.0287
    1C        C  148   3.892   2.567   3.280 -0.5309  0.6076 -0.0620
    1C        C  149   3.828   2.547   3.404 -0.1850  0.7114  0.1355
    1C        C  150   4.021   2.637   3.527 -0.3006  0.6386  0.0971
    1C        C  151   3.897   2.570   3.525 -0.1791  0.4093  0.1907
    1C        C  152   4.082   2.679   3.647  0.0460  0.2055  0.0787
    1C        C  153   4.019   2.646   3.769  0.2355 -0.3811  0.0206
    1C        C  154   4.191   2.772   3.891 -0.1083 -0.2222 -0.0565
    1C        C  155   4.079   2.687   3.890 -0.0404 -0.3157  0.1357
    1C        C  156   4.245   2.822   4.012 -0.5361  0.6144 -0.2000
    1C        C  157   4.194   2.772   4.134 -0.0275  0.1444 -0.1699
    1C        C  158   4.334   2.931   4.252 -0.1672  0.1129 -0.1436
    1C        C  159   4.247   2.820   4.255  0.0182 -0.0324 -0.1213
    1C        C  160   4.373   2.990   4.375  0.6084  0.0612 -0.3583
    1C        C  161   4.335   2.931   4.497  0.2378  0.0705 -0.4688
    1C        C  162   4.444   3.115   4.618  0.0044 -0.1680 -0.0237
    1C        C  163   4.376   2.991   4.618 -0.2182 -0.0459 -0.2531
    1C        C  164   4.469   3.183   4.739 -0.2658 -0.0760 -0.0220
    1C        C  165   4.436   3.120   4.861 -0.0487 -0.2783 -0.0686
    1C        C  166   4.518   3.322   4.974  0.7032 -0.2919  0.1873
    1C        C  167   4.472   3.191   4.977  0.4482 -0.2123 -0.2590
    1C        C  168   3.477   2.439   2.077 -0.2543  0.1183  0.4227
    1C        C  169   3.399   2.462   2.192 -0.2848 -0.1073  0.4491
    1C        C  170   3.619   2.470   2.309  0.1202  0.1490  0.3237
    1C        C  171   3.477   2.468   2.309  0.1165  0.1708  0.1750
    1C        C  172   3.693   2.484   2.429  0.2713 -0.2845  0.2876
    1C        C  173   3.619   2.481   2.549 -0.5118 -1.2871 -0.1959
    1C        C  174   3.826   2.538   2.667 -0.5699 -0.2076 -0.0565
    1C        C  175   3.693   2.490   2.670 -0.4407 -0.5981 -0.2853
    1C        C  176   3.889   2.567   2.789 -0.1462  0.1506 -0.3570
    1C        C  177   3.826   2.539   2.912  0.2843 -0.1667 -0.2034
    1C        C  178   4.014   2.638   3.033 -0.2811  0.7306  0.0361
    1C        C  179   3.891   2.568   3.034  0.1299 -0.0108 -0.1558
    1C        C  180   4.070   2.677   3.157 -0.6320  0.8138  0.1690
    1C        C  181   4.015   2.637   3.281 -0.4316  0.4353  0.1395
    1C        C  182   4.190   2.758   3.401  0.2092 -0.2818 -0.2670
    1C        C  183   4.077   2.672   3.402  0.0357 -0.0516  0.0466
    1C        C  184   4.241   2.811   3.521 -0.3726 -0.2205 -0.0432
    1C        C  185   4.191   2.769   3.646 -0.1121  0.4001  0.2749
    1C        C  186   4.333   2.927   3.764  0.5230 -0.1121 -0.2549
    1C        C  187   4.243   2.819   3.768  0.2986  0.0909  0.2278
    1C        C  188   4.375   2.986   3.885  0.4460 -0.0652 -0.2502
    1C        C  189   4.334   2.931   4.008 -0.2833  0.4093 -0.2690
    1C        C  190   4.444   3.113   4.129  0.1413 -0.1147 -0.1582
    1C        C  191   4.374   2.990   4.130  0.2065 -0.1525 -0.1524
    1C        C  192   4.473   3.176   4.252  0.2798 -0.1389 -0.1772
    1C        C  193   4.444   3.112   4.374  0.1843  0.3118  0.0389
    1C        C  194   4.510   3.314   4.493  0.3982  0.0181  0.1914
    1C        C  195   4.475   3.178   4.495  0.2915  0.0448  0.1566
    1C        C  196   4.523   3.387   4.613 -0.0192  0.1559  0.1539
    1C        C  197   4.509   3.320   4.736  0.1718 -0.2026 -0.0191
    1C        C  198   4.555   3.535   4.848 -0.8706 -0.1650  0.3444
    1C        C  199   4.535   3.393   4.855  0.0542 -0.3127  0.0753
    1C        C  200   4.585   3.621   4.958 -0.2650  0.1764 -0.0864
    1C        C  201   3.616   2.428   2.071 -0.3000 -0.3108  0.1518
    1C        C  202   3.827   2.511   2.183 -0.3054 -0.1063 -0.1857
    1C        C  203   3.692   2.462   2.187 -0.2858 -0.1397  0.0935
    1C        C  204   3.892   2.549   2.303 -0.2500  0.0043 -0.2488
    1C        C  205   3.827   2.528   2.427  0.2747 -0.2979 -0.0155
    1C        C  206   4.021   2.624   2.544 -0.4256  0.4966 -0.2269
    1C        C  207   3.896   2.559   2.546 -0.2946  0.2533  0.1791
    1C        C  208   4.080   2.660   2.667 -0.3561  0.6081 -0.2930
    1C        C  209   4.016   2.629   2.789 -0.2774  0.4227 -0.2992
    1C        C  210   4.185   2.760   2.911 -0.4936  0.3379 -0.0015
    1C        C  211   4.076   2.670   2.910 -0.4535  0.2927 -0.1673
    1C        C  212   4.239   2.807   3.033 -0.0827  0.3610 -0.1938
    1C        C  213   4.185   2.758   3.154 -0.4548  0.5527 -0.2832
    1C        C  214   4.327   2.914   3.274  0.1507 -0.1330 -0.0844
    1C        C  215   4.238   2.804   3.277 -0.0615  0.0341 -0.2575
    1C        C  216   4.372   2.973   3.394  0.5603 -0.3823 -0.1118
    1C        C  217   4.330   2.920   3.518 -0.4614 -0.1560 -0.3497
    1C        C  218   4.436   3.106   3.637  0.0957 -0.2512 -0.2674
    1C        C  219   4.372   2.980   3.639 -0.1040 -0.1544 -0.4716
    1C        C  220   4.467   3.172   3.758  0.4996 -0.3190 -0.3305
    1C        C  221   4.442   3.111   3.883  1.2788 -0.5081 -0.2636
    1C        C  222   4.509   3.311   4.003 -0.4539 -0.0545 -0.1927
    1C        C  223   4.473   3.174   4.005  0.5780 -0.3375 -0.1693
    1C        C  224   4.521   3.380   4.125 -0.0276 -0.1736 -0.1615
    1C        C  225   4.513   3.311   4.248  0.2866 -0.1397 -0.1229
    1C        C  226   4.519   3.524   4.365 -0.8023 -0.2896  0.3529
    1C        C  227   4.521   3.383   4.370  0.0711 -0.2985 -0.0151
    1C        C  228   4.517   3.596   4.486 -0.9797  0.0908  0.1244
    1C        C  229   4.530   3.528   4.609 -0.1831  0.1633  0.0851
    1C        C  230   4.501   3.744   4.724  0.5645  0.1900  0.2975
    1C        C  231   4.533   3.606   4.727 -1.0237 -0.1976  0.3520
    1C        C  232   4.497   3.821   4.843  0.7049  0.6049  0.0371
    1C        C  233   4.548   3.756   4.956 -0.2894  0.1750  0.2511
    1C        C  234   4.020   2.609   2.063 -0.0979  0.1691  0.1686
    1C        C  235   3.896   2.545   2.066  0.0405 -0.1119  0.0172
    1C        C  236   4.082   2.653   2.181  0.0832  0.5053 -0.0501
    1C        C  237   4.016   2.618   2.302  0.0350 -0.4988 -0.3546
    1C        C  238   4.192   2.748   2.421 -0.4541  0.1129  0.2413
    1C        C  239   4.074   2.668   2.420 -0.5321  0.2267 -0.3713
    1C        C  240   4.243   2.794   2.544 -0.1437  0.6138 -0.0745
    1C        C  241   4.188   2.751   2.666 -0.1919  0.4113 -0.1698
    1C        C  242   4.336   2.903   2.786 -0.2624  0.1594 -0.0472
    1C        C  243   4.240   2.800   2.788 -0.6676  0.5346 -0.0146
    1C        C  244   4.379   2.962   2.908 -0.3981  0.3472 -0.0922
    1C        C  245   4.334   2.911   3.031 -0.0242  0.3106  0.0263
    1C        C  246   4.438   3.096   3.149  0.2337  0.0026  0.0376
    1C        C  247   4.376   2.969   3.153  0.4773 -0.1145  0.0568
    1C        C  248   4.465   3.161   3.271  0.1107 -0.1043  0.1208
    1C        C  249   4.442   3.096   3.394  0.1015 -0.1175  0.1113
    1C        C  250   4.506   3.303   3.511  0.1221  0.0995  0.0488
    1C        C  251   4.469   3.167   3.513  0.4639  0.0058 -0.0435
    1C        C  252   4.518   3.374   3.633 -0.0181  0.0466  0.0942
    1C        C  253   4.507   3.307   3.756 -0.2888 -0.0781  0.0020
    1C        C  254   4.529   3.517   3.880 -0.5153  0.0925  0.1033
    1C        C  255   4.526   3.376   3.878 -0.2660  0.0880 -0.0939
    1C        C  256   4.524   3.592   4.000 -0.8963 -0.1192  0.2235
    1C        C  257   4.523   3.521   4.122 -0.1333 -0.1623  0.2157
    1C        C  258   4.493   3.733   4.240 -0.1609 -0.2595  0.0510
    1C        C  259   4.519   3.594   4.243 -0.6809 -0.3526  0.3154
    1C        C  260   4.469   3.804   4.360 -0.5874  0.0656 -0.2275
    1C        C  261   4.485   3.733   4.481 -1.0979  0.0519 -0.1662
    1C        C  262   4.426   3.940   4.603  0.1912 -0.2242  0.1544
    1C        C  263   4.472   3.807   4.601 -0.2797 -0.3865  0.1930
    1C        C  264   4.402   4.010   4.723  0.3484  0.2708 -0.0986
    1C        C  265   4.435   3.948   4.845  0.1959  0.3624 -0.0113
    1C        C  266   4.321   4.135   4.956  0.1127 -0.2297 -0.0396
    1C        C  267   4.389   4.014   4.960  0.2736 -0.1269  0.3031
    1C        C  268   4.267   2.772   2.066  0.0192  0.3740  0.1803
    1C        C  269   4.199   2.732   2.182  0.4163  0.0119  0.2910
    1C        C  270   4.350   2.890   2.299 -0.3204  0.2994 -0.2664
    1C        C  271   4.256   2.783   2.300  0.1015 -0.0719  0.4797
    1C        C  272   4.387   2.952   2.421 -0.3324  0.2529 -0.2412
    1C        C  273   4.337   2.900   2.542 -0.2886  0.7419 -0.0154
    1C        C  274   4.447   3.083   2.661  0.3573  0.0581 -0.1774
    1C        C  275   4.378   2.960   2.664  0.2306  0.1376  0.1077
    1C        C  276   4.470   3.151   2.782  0.7850 -0.2505 -0.0841
    1C        C  277   4.447   3.086   2.906 -0.0775  0.1705 -0.0142
    1C        C  278   4.507   3.292   3.026  0.3275 -0.1566 -0.0706
    1C        C  279   4.472   3.155   3.026  0.8913 -0.3022  0.0677
    1C        C  280   4.524   3.366   3.146  0.7016 -0.3812  0.0136
    1C        C  281   4.506   3.296   3.267  0.7085 -0.2863  0.0678
    1C        C  282   4.522   3.511   3.388  0.8579 -0.0473 -0.1135
    1C        C  283   4.516   3.370   3.387 -0.1191 -0.0096 -0.0292
    1C        C  284   4.517   3.582   3.510  0.2012  0.1120 -0.2290
    1C        C  285   4.525   3.515   3.634 -0.2427  0.0615 -0.2278
    1C        C  286   4.491   3.724   3.752 -0.7805 -0.2606 -0.2015
    1C        C  287   4.516   3.585   3.757 -1.1741 -0.3286 -0.0635
    1C        C  288   4.475   3.794   3.873 -0.1201 -0.0731 -0.2221
    1C        C  289   4.496   3.730   3.997 -0.4514 -0.0299 -0.1431
    1C        C  290   4.436   3.936   4.115 -1.0909 -0.5162 -0.2539
    1C        C  291   4.477   3.801   4.118 -0.8277 -0.4331  0.0399
    1C        C  292   4.406   4.004   4.236 -0.3706 -0.2681 -0.2150
    1C        C  293   4.427   3.939   4.359 -0.2742  0.1625 -0.0034
    1C        C  294   4.331   4.129   4.477 -0.8471 -0.6455 -0.0181
    1C        C  295   4.404   4.008   4.481 -0.1014 -0.1898  0.2283
    1C        C  296   4.285   4.189   4.596 -0.1341 -0.1253 -0.0043
    1C        C  297   4.326   4.130   4.718 -0.2024 -0.0705  0.0414
    1C        C  298   4.202   4.314   4.832  0.1627  0.1208 -0.3718
    1C        C  299   4.286   4.199   4.836 -0.3385 -0.2339  0.0885
    1C        C  300   4.173   4.403   4.941 -0.2506 -0.0259 -0.3603
    1C        C  301   4.356   2.879   2.062  0.1169  0.2809 -0.1081
    1C        C  302   4.471   3.068   2.178 -0.1055  0.4278 -0.2185
    1C        C  303   4.401   2.943   2.178 -0.0438  0.3944 -0.1087
    1C        C  304   4.486   3.141   2.299 -0.2345  0.4132 -0.1958
    1C        C  305   4.454   3.076   2.420 -0.0567  0.1014 -0.3185
    1C        C  306   4.512   3.284   2.539  0.1055  0.0897  0.1787
    1C        C  307   4.479   3.147   2.540 -0.4489  0.2199 -0.3078
    1C        C  308   4.522   3.356   2.660  0.2269  0.0431  0.1917
    1C        C  309   4.505   3.288   2.782  0.4867 -0.1757  0.1038
    1C        C  310   4.526   3.501   2.899  0.1266  0.0245 -0.0241
    1C        C  311   4.515   3.360   2.903 -0.0699  0.0436  0.0166
    1C        C  312   4.518   3.574   3.020 -0.3292 -0.1036  0.0221
    1C        C  313   4.526   3.507   3.144  0.2491 -0.3787 -0.1608
    1C        C  314   4.491   3.718   3.262 -0.8756 -0.4512 -0.2660
    1C        C  315   4.517   3.579   3.265 -0.1177 -0.3101 -0.2283
    1C        C  316   4.481   3.789   3.383 -0.9118 -0.3631 -0.3211
    1C        C  317   4.493   3.721   3.506 -1.1259 -0.1046 -0.1567
    1C        C  318   4.422   3.921   3.626  0.1795  0.2879 -0.0931
    1C        C  319   4.473   3.789   3.628 -0.6894 -0.0572 -0.1088
    1C        C  320   4.388   3.984   3.748 -0.0128  0.2936 -0.1493
    1C        C  321   4.428   3.927   3.871 -0.6524 -0.2592 -0.1905
    1C        C  322   4.317   4.109   3.991  0.2132  0.3226  0.0231
    1C        C  323   4.401   3.995   3.992 -0.1060  0.0838 -0.2566
    1C        C  324   4.277   4.170   4.112 -0.3027  0.0650 -0.0185
    1C        C  325   4.328   4.121   4.234  0.1098  0.0558 -0.1936
    1C        C  326   4.189   4.284   4.351  0.2747  0.1280  0.1170
    1C        C  327   4.288   4.184   4.354 -0.0980 -0.2483 -0.1038
    1C        C  328   4.131   4.334   4.470  0.2698  0.5407 -0.0597
    1C        C  329   4.185   4.288   4.593 -0.0736 -0.0726 -0.1396
    1C        C  330   4.020   4.430   4.713 -0.5377 -0.4878  0.3760
    1C        C  331   4.137   4.350   4.710 -0.3381 -0.1822 -0.1935
    1C        C  332   3.969   4.488   4.831 -0.1695  0.1115  0.2451
    1C        C  333   4.049   4.467   4.944 -0.2610 -0.0802  0.2720
    1C        C  334   4.559   3.265   2.064  0.2973  0.1764 -0.0689
    1C        C  335   4.537   3.126   2.065 -0.0460  0.2298 -0.2842
    1C        C  336   4.534   3.348   2.173  0.4787  0.1029  0.0262
    1C        C  337   4.514   3.281   2.296  0.5541  0.2651  0.1243
    1C        C  338   4.527   3.493   2.413 -0.2519 -0.0300 -0.0344
    1C        C  339   4.532   3.352   2.416  0.7769  0.0080  0.2407
    1C        C  340   4.525   3.568   2.533  0.1372 -0.0126 -0.0446
    1C        C  341   4.523   3.497   2.654 -0.0523  0.0331 -0.0262
    1C        C  342   4.489   3.708   2.774  0.2042  0.0320  0.2570
    1C        C  343   4.517   3.569   2.775  0.2583  0.0428 -0.0200
    1C        C  344   4.474   3.780   2.894 -0.1760 -0.0896  0.2832
    1C        C  345   4.491   3.712   3.016 -0.1800 -0.0687  0.2928
    1C        C  346   4.420   3.913   3.138 -0.2483  0.3889  0.0830
    1C        C  347   4.475   3.783   3.137 -0.6158  0.2342  0.0584
    1C        C  348   4.390   3.978   3.260 -0.2312  0.1061  0.2366
    1C        C  349   4.425   3.918   3.383 -0.2560 -0.0699  0.1574
    1C        C  350   4.313   4.099   3.502  0.1021  0.4819 -0.1724
    1C        C  351   4.397   3.986   3.504 -0.1552  0.2953 -0.0221
    1C        C  352   4.270   4.158   3.623 -0.2868 -0.1796  0.0125
    1C        C  353   4.317   4.107   3.746 -0.0693  0.2655  0.1158
    1C        C  354   4.174   4.263   3.865  0.1026  0.4531  0.2850
    1C        C  355   4.272   4.161   3.868 -0.0788  0.2723  0.1090
    1C        C  356   4.126   4.318   3.985  0.0248  0.6613  0.1575
    1C        C  357   4.181   4.274   4.107  0.1803  0.5127  0.0321
    1C        C  358   4.008   4.395   4.228  0.3141  0.3382  0.1293
    1C        C  359   4.124   4.315   4.230  0.3067  0.3299  0.1518
    1C        C  360   3.954   4.448   4.347  0.1136  0.2953  0.0580
    1C        C  361   4.020   4.421   4.469  0.2137  0.4674  0.0413
    1C        C  362   3.827   4.513   4.590  0.2312  0.1989 -0.0071
    1C        C  363   3.958   4.461   4.590  0.1937  0.1074  0.1499
    1C        C  364   3.761   4.540   4.712 -0.0483 -0.0155 -0.1119
    1C        C  365   3.837   4.537   4.831 -0.2647 -0.1491  0.0231
    1C        C  366   3.630   4.590   4.950  0.4178  0.2903  0.2151
    1C        C  367   3.766   4.563   4.949  0.3123 -0.2432  0.3938
    1C        C  368   4.515   3.564   2.051  0.3014 -0.2092 -0.3248
    1C        C  369   4.522   3.489   2.170 -0.0599  0.0517 -0.1374
    1C        C  370   4.494   3.702   2.289 -0.0755 -0.0690 -0.0567
    1C        C  371   4.514   3.562   2.290 -0.3802 -0.1111 -0.0618
    1C        C  372   4.481   3.773   2.410  0.4145  0.0507 -0.0780
    1C        C  373   4.501   3.707   2.533  0.1747 -0.0101 -0.0745
    1C        C  374   4.418   3.907   2.649  0.1452 -0.2230  0.0364
    1C        C  375   4.476   3.779   2.652 -0.1964 -0.3739  0.0622
    1C        C  376   4.388   3.972   2.771 -0.0924 -0.0519 -0.1146
    1C        C  377   4.427   3.914   2.893  0.0738 -0.0047 -0.1479
    1C        C  378   4.314   4.094   3.014  0.0427  0.0097  0.0143
    1C        C  379   4.394   3.977   3.015  0.0788  0.0361 -0.1702
    1C        C  380   4.268   4.150   3.135 -0.1729  0.2726 -0.1927
    1C        C  381   4.310   4.094   3.258  0.1227  0.3421 -0.2643
    1C        C  382   4.171   4.255   3.378 -0.1207  0.0444  0.0797
    1C        C  383   4.270   4.155   3.379  0.2466  0.4044 -0.2564
    1C        C  384   4.116   4.303   3.499 -0.1465  0.1316  0.0312
    1C        C  385   4.169   4.256   3.621 -0.0128  0.1000 -0.0418
    1C        C  386   4.003   4.388   3.741  0.4584  0.3433 -0.0715
    1C        C  387   4.115   4.302   3.743  0.4835  0.3808  0.0763
    1C        C  388   3.944   4.430   3.863  0.2326  0.9300 -0.3774
    1C        C  389   4.007   4.394   3.984  0.4056  1.2652 -0.3661
    1C        C  390   3.817   4.489   4.105  0.7483  0.6439 -0.1772
    1C        C  391   3.944   4.428   4.106  0.7938  0.7395 -0.0177
    1C        C  392   3.752   4.517   4.227  0.6463  1.1187 -0.3406
    1C        C  393   3.823   4.499   4.348  0.2655  0.6984 -0.1796
    1C        C  394   3.616   4.552   4.474  0.1305 -0.6343 -0.0432
    1C        C  395   3.755   4.523   4.469  0.3536  0.3865 -0.0653
    1C        C  396   3.545   4.563   4.595 -0.0530 -0.6067 -0.1507
    1C        C  397   3.621   4.557   4.714 -0.1171 -0.5543 -0.1052
    1C        C  398   3.411   4.551   4.841  0.5528 -0.2780 -0.0019
    1C        C  399   3.551   4.569   4.836  0.4851  0.3242  0.1607
    1C        C  400   3.343   4.522   4.960  0.2058 -0.7753 -0.3181
    1C        C  401   4.496   3.701   2.050  0.4753 -0.1760  0.4696
    1C        C  402   4.453   3.913   2.168  0.1354  0.3033 -0.1301
    1C        C  403   4.482   3.775   2.169 -0.2192  0.2300  0.1413
    1C        C  404   4.412   3.978   2.286 -0.0352 -0.2424  0.1113
    1C        C  405   4.434   3.907   2.406  0.3292  0.0270  0.2024
    1C        C  406   4.314   4.087   2.526 -0.7602 -0.4647 -0.2368
    1C        C  407   4.397   3.972   2.525 -0.5219 -0.2935  0.1142
    1C        C  408   4.263   4.139   2.646 -0.3951 -0.2833 -0.1619
    1C        C  409   4.306   4.087   2.770 -0.1853 -0.1202 -0.1675
    1C        C  410   4.169   4.248   2.892  0.5872  0.2909  0.1135
    1C        C  411   4.267   4.146   2.892  0.3416  0.0570 -0.0801
    1C        C  412   4.117   4.299   3.013  0.4145  0.3314  0.0198
    1C        C  413   4.163   4.245   3.135 -0.0627  0.3964  0.2295
    1C        C  414   3.999   4.380   3.252  0.1680  0.7604  0.1639
    1C        C  415   4.113   4.295   3.256  0.1053  0.6811  0.1807
    1C        C  416   3.943   4.420   3.375 -0.2959  0.6726 -0.0206
    1C        C  417   4.006   4.391   3.498  0.1353  0.4776 -0.2868
    1C        C  418   3.816   4.487   3.619  0.4339  0.1321  0.0788
    1C        C  419   3.945   4.431   3.620  0.6140  0.5489 -0.0714
    1C        C  420   3.747   4.508   3.740  0.0702  0.0777 -0.1164
    1C        C  421   3.816   4.488   3.862  0.1408  0.7347 -0.0476
    1C        C  422   3.613   4.551   3.983  0.0390 -0.2465 -0.1882
    1C        C  423   3.749   4.512   3.984  0.2328  0.4149  0.0648
    1C        C  424   3.544   4.554   4.106  0.3882 -0.0916  0.0072
    1C        C  425   3.614   4.546   4.228  0.3345 -0.3363  0.0228
    1C        C  426   3.405   4.552   4.356  0.1516 -0.4923  0.2202
    1C        C  427   3.546   4.557   4.351  0.1490 -0.5710 -0.0540
    1C        C  428   3.332   4.546   4.477 -0.2395  0.5566  0.0465
    1C        C  429   3.404   4.557   4.598 -0.0697 -0.2395  0.0232
    1C        C  430   3.198   4.514   4.721  0.1641  0.2877 -0.3904
    1C        C  431   3.336   4.547   4.721  0.1827  0.2320  0.2056
    1C        C  432   3.128   4.490   4.843  0.3130 -0.1522 -0.3872
    1C        C  433   3.208   4.490   4.957  0.0032  0.0284 -0.1665
    1C        C  434   4.376   4.118   2.051  0.1664 -0.0536  0.0353
    1C        C  435   4.443   3.995   2.055  0.0437 -0.1372 -0.4426
    1C        C  436   4.296   4.158   2.162  0.1389  0.0567 -0.0244
    1C        C  437   4.330   4.094   2.285  0.2684 -0.0322 -0.1066
    1C        C  438   4.176   4.247   2.402 -0.5092 -0.4382  0.0264
    1C        C  439   4.277   4.148   2.404 -0.3403 -0.2747 -0.2703
    1C        C  440   4.117   4.291   2.522  0.0528  0.4662 -0.0218
    1C        C  441   4.163   4.240   2.645  0.1758  0.2871 -0.1433
    1C        C  442   4.000   4.372   2.768  0.4370 -0.0543 -0.2002
    1C        C  443   4.114   4.288   2.768  0.6646  0.2523  0.0679
    1C        C  444   3.943   4.420   2.888  0.3211 -0.1735 -0.2102
    1C        C  445   4.003   4.383   3.011  0.3920  0.2939 -0.1050
    1C        C  446   3.811   4.479   3.131  0.2225 -0.1111  0.0395
    1C        C  447   3.939   4.418   3.131  0.4522  0.3754 -0.0996
    1C        C  448   3.749   4.509   3.254  0.1939  0.3518 -0.0887
    1C        C  449   3.818   4.486   3.375 -0.1436  0.9580  0.2211
    1C        C  450   3.611   4.539   3.496  0.0904  0.7977  0.0873
    1C        C  451   3.750   4.512   3.496  0.0798  0.7440  0.3916
    1C        C  452   3.539   4.552   3.617 -0.1035 -0.1605  0.0827
    1C        C  453   3.610   4.541   3.739 -0.0237 -0.3067  0.0228
    1C        C  454   3.401   4.548   3.866 -0.1878 -0.9388  0.2003
    1C        C  455   3.542   4.556   3.862 -0.2140 -0.5347 -0.0537
    1C        C  456   3.332   4.538   3.988 -0.0218 -1.1454  0.2792
    1C        C  457   3.403   4.539   4.110  0.4118 -0.3211  0.0282
    1C        C  458   3.199   4.503   4.233  0.4068 -0.1726 -0.0304
    1C        C  459   3.336   4.536   4.234  0.4055 -0.1533  0.0306
    1C        C  460   3.131   4.481   4.355  0.5174 -0.6830 -0.0519
    1C        C  461   3.196   4.508   4.478 -0.0331 -0.2189  0.1451
    1C        C  462   3.001   4.430   4.602 -0.3678 -0.1532  0.0176
    1C        C  463   3.130   4.488   4.600 -0.3116 -0.2698 -0.0088
    1C        C  464   2.938   4.395   4.723 -0.2528  0.3729  0.2326
    1C        C  465   2.993   4.441   4.846  0.1888  0.2055  0.1001
    1C        C  466   2.800   4.339   4.957  0.0059 -0.0787  0.1392
    1C        C  467   2.909   4.427   4.961 -0.1226  0.0966 -0.1375
    1C        C  468   4.120   4.291   2.043 -0.2719 -0.0127  0.4949
    1C        C  469   4.189   4.253   2.159  0.0676 -0.0098  0.2941
    1C        C  470   4.008   4.374   2.279 -0.4732 -0.2302  0.0729
    1C        C  471   4.127   4.296   2.279 -0.4703 -0.2262  0.0955
    1C        C  472   3.942   4.403   2.400 -0.3724  0.2565  0.0110
    1C        C  473   4.003   4.374   2.524 -0.0438  0.3349 -0.1305
    1C        C  474   3.813   4.470   2.643  0.1902  0.1767  0.1174
    1C        C  475   3.940   4.408   2.646  0.5183  0.8425  0.0188
    1C        C  476   3.745   4.493   2.764  0.4335  0.8317  0.1290
    1C        C  477   3.812   4.471   2.887  0.3885  0.0015  0.0074
    1C        C  478   3.608   4.529   3.009  0.2900 -0.4285  0.0171
    1C        C  479   3.747   4.503   3.008  0.3808  0.0468 -0.0108
    1C        C  480   3.538   4.536   3.131  0.0834 -0.5270 -0.0983
    1C        C  481   3.610   4.532   3.253  0.0629 -0.4271 -0.0851
    1C        C  482   3.398   4.537   3.376  0.2213 -0.9378 -0.0980
    1C        C  483   3.539   4.542   3.375  0.2016 -0.2802 -0.0182
    1C        C  484   3.328   4.529   3.499  0.1050 -0.7732 -0.1524
    1C        C  485   3.399   4.544   3.620 -0.0737 -0.8007 -0.0457
    1C        C  486   3.196   4.493   3.744  0.1074 -0.9454 -0.1997
    1C        C  487   3.332   4.528   3.744  0.1428 -1.0798  0.0353
    1C        C  488   3.130   4.471   3.867  0.1163 -0.4904 -0.1124
    1C        C  489   3.195   4.501   3.989 -0.2052 -0.4880  0.0636
    1C        C  490   3.006   4.410   4.115  0.1660 -0.6225  0.2074
    1C        C  491   3.131   4.477   4.112  0.0231 -0.3439  0.2153
    1C        C  492   2.947   4.374   4.237 -0.5653  0.2635  0.1330
    1C        C  493   3.005   4.418   4.358  0.2333 -0.1352 -0.0920
    1C        C  494   2.828   4.303   4.481 -0.1693  0.0978 -0.0259
    1C        C  495   2.943   4.386   4.481  0.2032 -0.4069 -0.1733
    1C        C  496   2.775   4.255   4.602  0.3106 -0.1124  0.1074
    1C        C  497   2.822   4.313   4.722 -0.1795  0.2671  0.1258
    1C        C  498   2.671   4.162   4.844  0.5272 -0.3236  0.1455
    1C        C  499   2.753   4.276   4.840 -0.2904  0.2768  0.0656
    1C        C  500   2.599   4.116   4.956  0.1219 -0.2563 -0.0829
    1C        C  501   4.001   4.362   2.039 -0.0039  0.4058 -0.3405
    1C        C  502   3.815   4.467   2.159 -0.0858 -0.3879 -0.4649
    1C        C  503   3.942   4.406   2.158  0.3392  0.4712 -0.1943
    1C        C  504   3.745   4.485   2.280  0.3478  0.5497 -0.3409
    1C        C  505   3.812   4.458   2.401 -0.3083  0.4099 -0.0018
    1C        C  506   3.608   4.525   2.522  0.0705  0.4552 -0.0255
    1C        C  507   3.744   4.487   2.521  0.0072  0.2122  0.2264
    1C        C  508   3.535   4.532   2.643  0.1306 -0.1616  0.0486
    1C        C  509   3.606   4.516   2.764  0.3273  0.1844 -0.0198
    1C        C  510   3.396   4.532   2.886  0.2614 -0.7463 -0.2866
    1C        C  511   3.537   4.530   2.887  0.2618 -0.5937  0.0352
    1C        C  512   3.326   4.523   3.008  0.2122 -1.2342 -0.3529
    1C        C  513   3.397   4.536   3.129  0.0879 -0.8791 -0.3177
    1C        C  514   3.192   4.495   3.257  0.3077 -0.7092  0.4610
    1C        C  515   3.329   4.528   3.253  0.3689 -1.0248 -0.1730
    1C        C  516   3.122   4.475   3.378 -0.4052 -0.4399  0.0999
    1C        C  517   3.191   4.497   3.499  0.1018 -0.7612 -0.1287
    1C        C  518   3.001   4.408   3.625 -0.2969 -0.3291  0.0709
    1C        C  519   3.127   4.472   3.622  0.1706 -1.2410 -0.1874
    1C        C  520   2.948   4.364   3.748  0.6375 -0.9290  0.2713
    1C        C  521   3.007   4.401   3.871  0.2939 -0.7837  0.3984
    1C        C  522   2.840   4.275   3.995 -0.5043 -0.1811 -0.0870
    1C        C  523   2.947   4.368   3.994  0.2023 -0.9737  0.3067
    1C        C  524   2.788   4.231   4.118 -0.6512  0.2937  0.0277
    1C        C  525   2.834   4.289   4.239 -0.5681  0.2570  0.0178
    1C        C  526   2.688   4.138   4.363 -0.6703  0.3155  0.0468
    1C        C  527   2.777   4.248   4.361 -0.3415  0.0572  0.0626
    1C        C  528   2.649   4.081   4.486 -1.3647  0.5047 -0.0832
    1C        C  529   2.692   4.141   4.607 -0.2981  0.2987 -0.3589
    1C        C  530   2.581   3.960   4.731  0.3844  0.0725 -0.3021
    1C        C  531   2.639   4.090   4.727  0.6606 -0.0411 -0.0658
    1C        C  532   2.542   3.900   4.854  0.0214  0.0252 -0.4413
    1C        C  533   2.532   3.993   4.962  0.3338 -0.3718 -0.0695
    1C        C  534   3.619   4.565   2.042 -0.0109  0.1867 -0.1328
    1C        C  535   3.751   4.516   2.044  0.1576  0.6340 -0.1765
    1C        C  536   3.537   4.533   2.155  0.4300  0.1016  0.1705
    1C        C  537   3.606   4.517   2.278  0.1657 -0.1737  0.2853
    1C        C  538   3.396   4.521   2.400 -0.1122 -0.0395  0.0447
    1C        C  539   3.537   4.529   2.400 -0.1282  0.2535  0.0824
    1C        C  540   3.324   4.517   2.521 -0.1609 -0.1486  0.0122
    1C        C  541   3.394   4.525   2.643  0.1120  0.1935 -0.1653
    1C        C  542   3.189   4.479   2.768  0.2630 -0.8949  0.3752
    1C        C  543   3.324   4.521   2.766  0.0586 -0.2622 -0.2094
    1C        C  544   3.124   4.455   2.891  0.0073 -0.5193  0.3143
    1C        C  545   3.190   4.486   3.012  0.0138 -0.4657  0.2955
    1C        C  546   3.004   4.391   3.136  0.1272 -0.2653 -0.0559
    1C        C  547   3.127   4.461   3.136  0.3174 -0.5938  0.4237
    1C        C  548   2.944   4.357   3.260 -0.4111  0.1459 -0.1968
    1C        C  549   3.001   4.403   3.381 -0.3960 -0.4604  0.0295
    1C        C  550   2.839   4.269   3.508 -0.2443 -0.4420  0.0360
    1C        C  551   2.945   4.362   3.504 -0.4674 -0.1832  0.0922
    1C        C  552   2.785   4.225   3.630 -0.7579  0.4368  0.1346
    1C        C  553   2.838   4.275   3.751  0.2270 -0.4334  0.0826
    1C        C  554   2.696   4.119   3.874 -1.2731  0.4641  0.0020
    1C        C  555   2.787   4.227   3.874 -0.4530 -0.2088 -0.1038
    1C        C  556   2.655   4.066   3.998 -0.4728  0.4513  0.2734
    1C        C  557   2.697   4.123   4.120 -0.5920  0.2422  0.4175
    1C        C  558   2.592   3.944   4.247 -1.1758  0.2578 -0.0528
    1C        C  559   2.654   4.072   4.244 -1.2774  0.3149  0.2176
    1C        C  560   2.570   3.883   4.372 -0.0210  0.1670  0.1234
    1C        C  561   2.598   3.949   4.493 -0.3354  0.1176  0.2256
    1C        C  562   2.530   3.747   4.614  0.2964 -0.4572 -0.1131
    1C        C  563   2.571   3.882   4.614  0.2005 -0.4284  0.0458
    1C        C  564   2.515   3.681   4.737  0.8125  0.0786  0.2423
    1C        C  565   2.516   3.760   4.856 -0.2150  0.0730  0.2655
    1C        C  566   2.539   3.547   4.975 -0.2281 -0.2711 -0.1837
    1C        C  567   2.532   3.686   4.974 -0.7904 -0.2929  0.1214
    1C        C  568   3.329   4.480   2.038  0.1419  0.1354  0.5895
    1C        C  569   3.397   4.508   2.158  0.4008  0.2829  0.4084
    1C        C  570   3.187   4.465   2.282  0.0641 -1.0681 -0.3398
    1C        C  571   3.324   4.504   2.279 -0.1003 -0.4560  0.0926
    1C        C  572   3.119   4.449   2.404  0.1494 -0.0741 -0.1578
    1C        C  573   3.188   4.481   2.523 -0.1508 -0.1826  0.0469
    1C        C  574   2.995   4.398   2.649  0.0860  0.2674 -0.0687
    1C        C  575   3.120   4.463   2.646  0.2048  0.0611  0.2798
    1C        C  576   2.935   4.357   2.770 -0.1140  0.3005 -0.1582
    1C        C  577   2.999   4.389   2.892 -0.5011  0.4341  0.0093
    1C        C  578   2.827   4.271   3.019 -0.3146  0.2113  0.0856
    1C        C  579   2.939   4.357   3.016 -0.3007  0.1910  0.0428
    1C        C  580   2.776   4.223   3.141 -0.0954  0.2616  0.1958
    1C        C  581   2.835   4.269   3.262 -0.4788  0.2345  0.3938
    1C        C  582   2.700   4.109   3.385 -0.4755 -0.4035 -0.3552
    1C        C  583   2.788   4.219   3.386 -0.7184 -0.2080  0.1330
    1C        C  584   2.655   4.056   3.508 -0.6330  0.4286 -0.0463
    1C        C  585   2.693   4.118   3.629 -0.5646  0.2669  0.0189
    1C        C  586   2.585   3.938   3.757 -0.3719  0.0094  0.0826
    1C        C  587   2.653   4.062   3.752 -0.8499  0.2737 -0.0645
    1C        C  588   2.563   3.873   3.881 -0.5301  0.1124  0.1119
    1C        C  589   2.593   3.939   4.002 -0.0476  0.2291 -0.0646
    1C        C  590   2.529   3.740   4.126  0.2083 -0.0378 -0.0760
    1C        C  591   2.565   3.877   4.126 -0.2096  0.0751 -0.1760
    1C        C  592   2.516   3.676   4.251  0.1359 -0.0345 -0.0812
    1C        C  593   2.531   3.747   4.372  0.0931  0.1340 -0.1757
    1C        C  594   2.511   3.535   4.495  0.1904 -0.0822  0.1388
    1C        C  595   2.513   3.676   4.493  0.0931 -0.0868 -0.3045
    1C        C  596   2.517   3.466   4.618  0.1559 -0.2833  0.0279
    1C        C  597   2.518   3.539   4.739  0.0527  0.0476 -0.1699
    1C        C  598   2.542   3.327   4.859  0.0869 -0.1530  0.3940
    1C        C  599   2.533   3.468   4.860 -0.1569 -0.1585 -0.2646
    1C        C  600   2.533   3.250   4.975  0.2400  0.1464  0.6065
    1C        C  601   3.197   4.440   2.044 -0.1901  1.0964 -0.0993
    1C        C  602   2.981   4.399   2.159 -0.3197 -0.4950  0.1597
    1C        C  603   3.118   4.439   2.160 -0.4615  0.0121 -0.2800
    1C        C  604   2.926   4.363   2.285 -0.1599  0.5018  0.5241
    1C        C  605   2.990   4.392   2.407  0.0641  0.1389  0.4939
    1C        C  606   2.823   4.265   2.529  0.0685 -0.5393 -0.1333
    1C        C  607   2.931   4.356   2.530 -0.2370 -0.1786  0.2595
    1C        C  608   2.772   4.217   2.651 -0.1722  0.5165  0.1899
    1C        C  609   2.823   4.270   2.771 -0.0314  0.1981  0.2705
    1C        C  610   2.687   4.114   2.897 -0.2251  0.0084 -0.3092
    1C        C  611   2.774   4.225   2.896 -0.2496  0.0322  0.1245
    1C        C  612   2.648   4.054   3.019 -0.2368 -0.0316 -0.3338
    1C        C  613   2.689   4.112   3.141  0.1706  0.0439 -0.5017
    1C        C  614   2.582   3.930   3.265 -0.2083 -0.0635  0.0875
    1C        C  615   2.651   4.054   3.264 -0.0051 -0.1751 -0.6579
    1C        C  616   2.553   3.869   3.389 -0.3013  0.2466  0.2224
    1C        C  617   2.589   3.931   3.511 -0.5855  0.4060  0.2272
    1C        C  618   2.525   3.734   3.638 -0.7562  0.1032  0.0895
    1C        C  619   2.563   3.870   3.635 -0.2476 -0.0361  0.0825
    1C        C  620   2.507   3.666   3.761 -1.0584  0.1327  0.0652
    1C        C  621   2.528   3.737   3.882 -0.4775  0.0948 -0.0080
    1C        C  622   2.522   3.527   4.010  0.9795 -0.0369  0.3552
    1C        C  623   2.520   3.669   4.005  0.0285 -0.0525 -0.0548
    1C        C  624   2.520   3.458   4.133  0.7920 -0.0079  0.3704
    1C        C  625   2.516   3.535   4.252  0.4872 -0.0331  0.3788
    1C        C  626   2.541   3.324   4.377  0.6361 -0.2135 -0.0526
    1C        C  627   2.520   3.463   4.374  0.1901 -0.2714  0.2502
    1C        C  628   2.560   3.254   4.498  0.4003 -0.1421  0.0259
    1C        C  629   2.538   3.326   4.618  0.5882 -0.2220  0.1102
    1C        C  630   2.599   3.119   4.742  0.3225  0.0188  0.4863
    1C        C  631   2.557   3.255   4.738  0.6272  0.1103  0.3017
    1C        C  632   2.624   3.053   4.866  0.2425 -0.2794  0.3445
    1C        C  633   2.560   3.112   4.980 -0.3620 -0.0047 -0.1259
    1C        C  634   2.787   4.299   2.054 -0.0059 -0.0900 -0.1213
    1C        C  635   2.893   4.390   2.046  0.0337 -0.1383 -0.1458
    1C        C  636   2.752   4.227   2.169  0.0091  0.1893  0.0571
    1C        C  637   2.817   4.271   2.286 -0.1189  0.4420  0.0337
    1C        C  638   2.674   4.112   2.411 -0.3271  0.1637 -0.2922
    1C        C  639   2.766   4.220   2.408 -0.5821  0.3847 -0.1834
    1C        C  640   2.636   4.051   2.532 -0.1633  0.2466 -0.2006
    1C        C  641   2.679   4.110   2.653 -0.0073  0.3616 -0.3137
    1C        C  642   2.583   3.925   2.776 -0.6041  0.4280 -0.0617
    1C        C  643   2.645   4.052   2.777 -0.2613  0.2669 -0.4297
    1C        C  644   2.553   3.863   2.899 -0.4288  0.3382 -0.0656
    1C        C  645   2.582   3.930   3.019 -0.8302  0.2813  0.0634
    1C        C  646   2.518   3.729   3.145 -1.1994  0.3448 -0.0651
    1C        C  647   2.558   3.865   3.142 -0.7647  0.2190  0.0423
    1C        C  648   2.507   3.661   3.268 -1.0601  0.2237 -0.1199
    1C        C  649   2.521   3.731   3.390 -0.8163  0.3572 -0.2248
    1C        C  650   2.510   3.525   3.519  0.1380  0.3284 -0.0124
    1C        C  651   2.511   3.666   3.515  0.2008  0.3260 -0.1492
    1C        C  652   2.514   3.457   3.643 -0.2475  0.4952  0.0962
    1C        C  653   2.506   3.525   3.766  0.2435  0.1244  0.3392
    1C        C  654   2.538   3.316   3.889  0.8326  0.1106 -0.0515
    1C        C  655   2.517   3.456   3.888  0.6858  0.0926  0.2877
    1C        C  656   2.553   3.248   4.011  0.5390 -0.0781 -0.1167
    1C        C  657   2.538   3.318   4.133  0.4120 -0.0603 -0.1402
    1C        C  658   2.608   3.121   4.256  0.9167  0.0680  0.1901
    1C        C  659   2.554   3.251   4.256  0.6389 -0.0419 -0.1577
    1C        C  660   2.638   3.055   4.377  0.3823 -0.1929  0.1871
    1C        C  661   2.608   3.121   4.498 -0.2561 -0.3852  0.1399
    1C        C  662   2.711   2.938   4.623  0.3890  0.4359  0.1432
    1C        C  663   2.633   3.056   4.621 -0.4774 -0.1221  0.3295
    1C        C  664   2.752   2.878   4.744  0.6025  0.2965  0.0030
    1C        C  665   2.702   2.933   4.864  0.5597 -0.0727  0.1590
    1C        C  666   2.736   2.863   4.981  0.1185  0.5729  0.6833
    1C        C  667   2.680   4.022   2.054 -0.1060 -0.0933  0.2954
    1C        C  668   2.686   4.102   2.169 -0.3026  0.3534 -0.0056
    1C        C  669   2.588   3.914   2.290  0.2305 -0.2801  0.2190
    1C        C  670   2.645   4.045   2.291 -0.1672 -0.1057 -0.1771
    1C        C  671   2.554   3.851   2.412 -0.6666  0.2834  0.2627
    1C        C  672   2.577   3.923   2.532 -0.7617  0.5149  0.1396
    1C        C  673   2.512   3.723   2.658 -0.4198  0.2215 -0.0067
    1C        C  674   2.554   3.858   2.655 -0.7675  0.3280  0.0365
    1C        C  675   2.507   3.654   2.781 -0.0207  0.2821  0.0436
    1C        C  676   2.523   3.725   2.902  0.0849  0.2295  0.0570
    1C        C  677   2.502   3.515   3.029 -0.0772  0.1085 -0.1266
    1C        C  678   2.511   3.656   3.025  0.1696  0.0965 -0.0114
    1C        C  679   2.505   3.449   3.154 -0.0432  0.4988  0.0814
    1C        C  680   2.504   3.520   3.276 -0.1853  0.2203  0.2434
    1C        C  681   2.536   3.312   3.399  0.4400  0.1014  0.1891
    1C        C  682   2.511   3.451   3.399  0.2688  0.0732  0.1413
    1C        C  683   2.557   3.249   3.523  0.8893  0.2546  0.1967
    1C        C  684   2.544   3.319   3.645  0.1560  0.5770 -0.0539
    1C        C  685   2.616   3.119   3.768  0.7401  0.4695 -0.0998
    1C        C  686   2.561   3.249   3.766  0.1905  0.2378 -0.2481
    1C        C  687   2.646   3.055   3.890  0.6305  0.0211 -0.3043
    1C        C  688   2.611   3.119   4.011  0.0795 -0.2909 -0.2932
    1C        C  689   2.717   2.939   4.136  0.3001  0.1726  0.0240
    1C        C  690   2.637   3.055   4.134  0.5473  0.3433 -0.0521
    1C        C  691   2.757   2.879   4.258  0.0674 -0.3239 -0.1360
    1C        C  692   2.710   2.934   4.379  0.2658 -0.2707 -0.0808
    1C        C  693   2.757   2.882   4.502 -0.4625 -0.3493  0.1687
    1C        C  694   2.625   3.893   2.055  0.1550 -0.2092 -0.1536
    1C        C  695   2.524   3.705   2.175 -0.2977  0.2460 -0.1710
    1C        C  696   2.575   3.837   2.173  0.2773  0.0303  0.0115
    1C        C  697   2.505   3.639   2.298 -0.3920  0.2154 -0.2047
    1C        C  698   2.523   3.714   2.416 -0.0533  0.1266 -0.2011
    1C        C  699   2.493   3.507   2.544 -0.4764  0.3473  0.0047
    1C        C  700   2.501   3.648   2.539 -0.0590  0.3185 -0.1013
    1C        C  701   2.504   3.439   2.667 -0.4008  0.4163  0.0331
    1C        C  702   2.499   3.513   2.788  0.1934  0.2776  0.1459
    1C        C  703   2.516   3.301   2.912  0.0506 -0.0592  0.2288
    1C        C  704   2.499   3.441   2.909  0.2426 -0.0409 -0.0423
    1C        C  705   2.542   3.237   3.035  0.3424  0.4898  0.4559
    1C        C  706   2.523   3.309   3.155 -0.2837  0.4686  0.3745
    1C        C  707   2.605   3.113   3.277 -0.1421  0.1008 -0.5185
    1C        C  708   2.544   3.241   3.277 -0.1979  0.0831  0.1480
    1C        C  709   2.638   3.053   3.400  0.4577  0.5021 -0.4766
    1C        C  710   2.613   3.119   3.522 -0.0860 -0.1854 -0.2017
    1C        C  711   2.725   2.940   3.645  0.8035  0.4696 -0.1610
    1C        C  712   2.647   3.058   3.645  0.8828  0.5258 -0.0957
    1C        C  713   2.767   2.885   3.768  0.5879  0.3541 -0.1372
    1C        C  714   2.721   2.936   3.892  0.9076  0.1960  0.0496
    1C        C  715   2.759   2.879   4.015  0.3828  0.0143  0.1285
    1C        C  716   2.447   3.502   2.066  0.1602 -0.0106  0.2915
    1C        C  717   2.510   3.628   2.059 -0.2253  0.1623 -0.1231
    1C        C  718   2.463   3.424   2.184  0.2677 -0.1398  0.1914
    1C        C  719   2.480   3.500   2.304  0.4011  0.0823  0.0310
    1C        C  720   2.512   3.290   2.426  0.1353  0.1913  0.6958
    1C        C  721   2.489   3.429   2.426 -0.0178  0.1669  0.1113
    1C        C  722   2.531   3.224   2.549  0.0181 -0.1315  0.5421
    1C        C  723   2.521   3.299   2.669 -0.0328  0.4616  0.1678
    1C        C  724   2.585   3.098   2.793  0.2519  0.3105 -0.1358
    1C        C  725   2.537   3.231   2.791  0.2051  0.2970  0.0465
    1C        C  726   2.627   3.039   2.914 -0.0437  0.1543 -0.1064
    1C        C  727   2.597   3.107   3.034  0.0159  0.3476 -0.1987
    1C        C  728   2.711   2.928   3.160  0.3010  0.1028  0.1441
    1C        C  729   2.634   3.047   3.157  0.2715  0.0735 -0.4070
    1C        C  730   2.756   2.874   3.283 -0.2099 -0.1624  0.2203
    1C        C  731   2.715   2.934   3.404  0.7994  0.7343  0.1290
    1C        C  732   2.762   2.877   3.524 -0.0648 -0.3221 -0.0242
    1C        C  733   2.495   3.196   2.076 -0.4436 -0.2506  0.4280
    1C        C  734   2.497   3.285   2.184  0.4239 -0.1005  0.2884
    1C        C  735   2.584   3.087   2.308  0.6550  0.5337 -0.0944
    1C        C  736   2.530   3.219   2.305  0.0248  0.2989  0.6173
    1C        C  737   2.619   3.025   2.430  0.4963 -0.0067 -0.3224
    1C        C  738   2.586   3.094   2.549  0.1310 -0.0891 -0.3743
    1C        C  739   2.694   2.916   2.673  0.1743  0.1588  0.4973
    1C        C  740   2.609   3.029   2.672  0.5751  0.4658 -0.1614
    1C        C  741   2.745   2.861   2.793  0.1583 -0.3300  0.2846
    1C        C  742   2.709   2.924   2.914  0.0117  0.1902 -0.0216
    1C        C  743   2.754   2.872   3.038 -0.4256 -0.1538 -0.0015
    1C        C  744   2.545   3.066   2.076  0.1742 -0.0132  0.2715
    1C        C  745   2.689   2.899   2.187  0.2538 -0.0719  0.0062
    1C        C  746   2.609   3.016   2.189  0.5322  0.1176  0.1276
    1C        C  747   2.735   2.844   2.309 -0.0829 -0.3308  0.0169
    1C        C  748   2.699   2.909   2.429  0.2785 -0.1638  0.0352
    1C        C  749   2.740   2.857   2.554  0.1069  0.4160  0.3401
    1C        C  750   2.731   2.838   2.068 -0.6333 -0.1958 -0.2478
    1C        C  751   3.661   2.324   1.975 -0.1747 -0.1832  0.0696
    1C        O  752   3.759   2.251   2.003  0.1539  0.2845  0.1472
    1C        O  753   3.657   2.360   1.840 -0.1485 -0.2867  0.0406
    1C        C  754   4.653   3.064   1.998 -0.0591  0.3863 -0.4531
    1C        O  755   4.631   2.978   1.909  0.6691  0.0904 -0.3498
    1C        O  756   4.784   3.056   2.047 -0.2047 -0.0691 -0.1276
    1C        C  757   4.420   4.221   1.954 -0.5878  0.2404  0.0009
    1C        O  758   4.482   4.319   2.001 -0.1824 -0.4079  0.8466
    1C        O  759   4.421   4.208   1.814  0.1240  0.1185  0.0114
    1C        C  760   3.618   4.702   1.986 -0.1576  0.2794  0.0957
    1C        O  761   3.634   4.806   2.056  0.0971  0.3020  0.0059
    1C        O  762   3.548   4.738   1.870 -0.2314 -0.2431 -0.0273
    1C        C  763   2.870   4.515   1.970 -0.8424 -0.2735 -0.1117
    1C        O  764   2.921   4.529   1.855  0.0404  0.0640  0.3154
    1C        O  765   2.828   4.644   2.005  0.0834  0.2217 -0.7936
    1C        C  766   2.317   3.499   1.995  0.2616  0.0173  0.1030
    1C        O  767   2.289   3.403   1.919 -0.2030  0.5219 -0.3688
    1C        O  768   2.221   3.599   2.012 -0.2057 -0.3141 -0.5553
    1C        C  769   4.696   3.595   5.053 -0.1728  0.0217 -0.2372
    1C        O  770   4.664   3.555   5.168 -0.0579  0.3672 -0.0857
    1C        O  771   4.810   3.676   5.050 -0.1437 -0.0129 -0.0448
    1C        C  772   4.277   4.463   5.027 -0.2089 -0.0663 -0.3867
    1C        O  773   4.297   4.430   5.147 -0.6820 -0.6736 -0.4705
    1C        O  774   4.375   4.548   4.975  0.3694 -0.5954 -0.1795
    1C        C  775   4.157   2.514   5.057 -0.4191 -0.3922 -0.0239
    1C        O  776   4.198   2.397   5.034  0.5067 -0.0644 -0.0709
    1C        O  777   4.207   2.570   5.175  0.2233 -0.3392 -0.3154
    1C        C  778   2.882   4.538   5.055  0.2428 -0.0107  0.0978
    1C        O  779   2.821   4.645   5.028  0.4802  0.1378  0.1464
    1C        O  780   2.896   4.516   5.192 -0.4860 -0.4565  0.1048
    1C        C  781   2.445   3.047   5.046  0.1044 -0.3607  0.3419
    1C        O  782   2.341   3.045   4.976 -0.0340  0.1916  0.5273
    1C        O  783   2.417   3.063   5.181 -0.4674  0.3886  0.1364
    1C        C  784   2.408   3.995   5.043  0.2510 -0.3395 -0.1968
    1C        O  785   2.299   4.040   4.999  0.4879  0.2878 -0.1590
    1C        O  786   2.423   3.969   5.180  0.2269 -0.1792 -0.1633
    1C        C  787   2.948   2.422   2.014  0.6742  0.2392 -0.5951
    1C        O  788   2.905   2.416   1.896 -0.6230 -0.1033 -0.1195
    1C        O  789   2.923   2.303   2.081  0.7627  0.4392 -0.2013
    1C        C  790   3.193   2.377   5.069 -0.3488  0.3842 -0.0296
    1C        O  791   3.138   2.269   5.036 -0.4325  0.5038 -0.2841
    1C        O  792   3.197   2.392   5.209 -0.0508 -0.3223  0.0424
    1C        H  793   4.298   3.015   5.066  0.6676  0.7466 -0.1421
    1C        H  794   4.145   2.830   5.054 -0.0207  1.2364 -0.2550
    1C        H  795   4.506   3.132   5.059  1.0119 -0.2895 -0.5469
    1C        H  796   4.539   3.364   5.070 -1.7088 -0.8267  1.0392
    1C        H  797   4.517   3.798   5.050 -0.2459  0.6317  0.0663
    1C        H  798   4.364   3.956   5.046 -0.3278  0.8397  0.7823
    1C        H  799   4.262   4.160   5.042 -1.1946  0.5869 -1.1242
    1C        H  800   3.994   4.440   5.032  0.7184  0.0541  0.9449
    1C        H  801   3.816   4.600   5.036  0.6489  1.7088 -0.5781
    1C        H  802   3.598   4.660   5.025  0.8830 -0.3180  0.9969
    1C        H  803   3.399   4.486   5.043  0.0757 -0.1130  0.0605
    1C        H  804   3.154   4.515   5.047 -0.6728 -1.4860 -0.1098
    1C        H  805   3.905   2.450   5.035  1.0873 -2.8196 -3.0492
    1C        H  806   3.675   2.483   5.080  1.1605  0.6106 -0.3432
    1C        H  807   3.050   2.617   5.067 -0.5606  0.9631 -0.7344
    1C        H  808   3.446   2.473   5.080  0.2166  1.2759 -0.1081
    1C        H  809   2.831   2.703   5.068 -1.9741 -0.4725  0.1335
    1C        H  810   2.661   2.854   5.057 -0.1050 -0.1485  0.3879
    1C        H  811   2.519   3.301   5.068 -1.0016  0.6582  0.1534
    1C        H  812   2.561   3.500   5.069  2.8865 -0.1789 -0.7761
    1C        H  813   2.536   3.737   5.068 -0.5153  0.4148 -0.2693
    1C        H  814   2.584   4.185   5.036 -1.6729  1.2021 -1.5840
    1C        H  815   2.750   4.324   5.050 -0.1375  1.7409  0.3841
    1C        H  816   2.731   2.891   1.975 -0.0490 -1.4350 -0.9675
    1C        H  817   2.797   2.655   1.999 -0.2064  0.7717 -0.7931
    1C        H  818   3.204   2.424   1.992 -0.1927  1.2262 -0.8351
    1C        H  819   3.423   2.422   1.986 -0.1294  0.5722  0.2577
    1C        H  820   3.845   2.530   1.974 -2.1017  0.3119  1.0841
    1C        H  821   4.052   2.652   1.971  1.4566 -1.2714 -0.0198
    1C        H  822   4.287   2.694   1.996  0.2877  0.7711 -0.1888
    1C        H  823   4.378   2.925   1.968 -0.0503 -0.4310 -0.5018
    1C        H  824   4.635   3.300   1.997 -0.7445  0.8400 -0.9441
    1C        H  825   4.582   3.530   1.975  2.1823 -1.0085  1.5777
    1C        H  826   4.460   3.749   1.961  1.3481  0.8186  0.6264
    1C        H  827   3.796   4.498   1.949  0.1956  0.1568 -0.0685
    1C        H  828   3.932   4.322   1.967  0.1699  1.0308 -0.8668
    1C        H  829   4.156   4.266   1.945 -0.4059  0.8766  0.2142
    1C        H  830   4.451   3.950   1.958 -2.8233 -1.3577 -0.2037
    1C        H  831   2.679   3.829   1.988  2.3540  0.4639  0.8717
    1C        H  832   2.744   4.036   1.969  1.0507  0.0466  1.1667
    1C        H  833   2.705   4.316   1.988  0.9263 -1.9802 -1.9066
    1C        H  834   3.390   4.437   1.962  0.0031 -2.3669  1.7926
    1C        H  835   3.155   4.403   1.953 -0.7052  0.7198  0.2861
    1C        H  836   2.489   2.991   2.023 -2.7646 -0.0766  3.1821
    1C        H  837   2.426   3.220   1.998 -1.2264 -0.8989  0.9012
    1C        H  838   2.533   3.663   1.960  0.6216 -1.2123 -0.4442
    2V3OU   H29  839   2.802   3.555   0.597  0.4182 -0.1055 -0.3805
    2V3OU   C27  840   2.788   3.501   0.694  0.5223  0.4665 -0.0458
    2V3OU   H27  841   2.746   3.567   0.775  0.0638  0.2720 -0.1209
    2V3OU   H28  842   2.735   3.403   0.690 -2.8816  2.1288  0.0646
    2V3OU   O11  843   2.918   3.477   0.750  0.2388  0.2682  0.5393
    2V3OU   C15  844   2.924   3.394   0.860  0.2834 -0.1923  0.1910
    2V3OU   C13  845   3.052   3.371   0.914  0.4773 -0.1803 -0.2536
    2V3OU   C14  846   3.075   3.270   1.008 -0.3982  0.0537  0.2292
    2V3OU   C16  847   2.975   3.190   1.062 -0.6465  0.3230  0.1712
    2V3OU    H6  848   2.991   3.110   1.136 -1.1883 -0.5977 -0.6878
    2V3OU   C12  849   3.212   3.221   1.037 -0.3506  0.0747  0.0446
    2V3OU    O2  850   3.232   3.119   1.106 -1.1400 -0.1696 -0.0818
    2V3OU   C10  851   3.324   3.307   0.997 -0.2763 -0.0761 -0.0823
    2V3OU    C8  852   3.456   3.266   1.013 -0.2794 -0.2536 -0.4928
    2V3OU   O10  853   3.486   3.151   1.079 -0.6215  0.0729  0.2477
    2V3OU   H26  854   3.397   3.117   1.098 -1.7026  3.1707  1.2716
    2V3OU    C6  855   3.567   3.344   0.969 -0.2912  0.3675  0.5312
    2V3OU    C5  856   3.540   3.464   0.905  0.0113 -0.0149 -0.3422
    2V3OU    C4  857   3.708   3.294   0.968 -0.2938  0.3562  0.4242
    2V3OU    H4  858   3.728   3.228   1.058  1.3437 -0.3097 -0.3911
    2V3OU    H5  859   3.715   3.230   0.875  0.1241  1.3577 -0.2422
    2V3OU    C2  860   3.820   3.397   0.964 -0.0385  0.0721  0.2255
    2V3OU    O6  861   3.810   3.468   1.088  0.2347  0.2076  0.1716
    2V3OU   H21  862   3.750   3.542   1.074 -0.3516 -0.5272 -1.4806
    2V3OU    C3  863   3.783   3.496   0.853 -0.3461  0.0399  0.2998
    2V3OU    H2  864   3.864   3.572   0.837  0.4091 -0.8801 -0.3160
    2V3OU    H3  865   3.780   3.442   0.756  1.4175 -0.4459  0.4911
    2V3OU   C25  866   3.954   3.327   0.938  0.2356  0.6535  0.0485
    2V3OU    O7  867   4.000   3.292   0.830 -0.3926  0.4283 -0.1497
    2V3OU   C26  868   4.035   3.297   1.063 -0.1503  0.3093  0.2181
    2V3OU   H22  869   4.069   3.386   1.122 -0.2589 -0.7996  2.0256
    2V3OU   H23  870   4.114   3.222   1.039 -1.3683 -0.8580 -0.2350
    2V3OU    O8  871   3.967   3.210   1.150  0.4552 -0.1353  0.2526
    2V3OU   H24  872   3.929   3.264   1.221 -1.0123  0.5191 -0.9753
    2V3OU    C1  873   3.648   3.564   0.874 -0.2882  0.3369 -0.2696
    2V3OU    H1  874   3.625   3.622   0.780  1.3626  0.3444 -0.7038
    2V3OU    O3  875   3.657   3.657   0.982  0.4688  0.5775 -0.5318
    2V3OU   C19  876   3.620   3.794   0.970  0.1889  0.5931  0.4315
    2V3OU    H9  877   3.518   3.798   0.921  0.1914 -2.3829  0.0245
    2V3OU    O4  878   3.719   3.850   0.887  0.4182 -0.5060 -0.0453
    2V3OU   C20  879   3.851   3.870   0.938  0.3959  0.1250 -0.2278
    2V3OU   H10  880   3.899   3.768   0.944 -1.0884 -0.6191 -0.5938
    2V3OU   C24  881   3.610   3.855   1.111  0.3396  0.2202  0.6048
    2V3OU   H16  882   3.543   3.791   1.173 -0.0033  0.1525  0.1739
    2V3OU   H17  883   3.561   3.952   1.085  2.1174  0.7585 -0.9792
    2V3OU   C23  884   3.750   3.874   1.169  0.4082  0.1698  0.4575
    2V3OU   H15  885   3.793   3.769   1.182 -0.8641 -0.7308 -2.0548
    2V3OU    N1  886   3.741   3.955   1.289 -0.2880  0.0992  0.4558
    2V3OU   H19  887   3.805   3.918   1.356 -0.0723 -2.4235 -1.0016
    2V3OU   H20  888   3.656   3.940   1.339  0.1827 -0.4136  1.1102
    2V3OU   C21  889   3.846   3.947   1.070 -0.1147  0.0037 -0.1753
    2V3OU   H11  890   3.948   3.930   1.115 -0.7349  1.4343  1.9222
    2V3OU    O5  891   3.826   4.087   1.074  0.3713  0.0521  0.8352
    2V3OU   H18  892   3.773   4.100   1.153 -2.5192 -0.1670 -0.9266
    2V3OU   C22  893   3.916   3.949   0.825  0.0315  0.3800 -0.2593
    2V3OU   H12  894   3.857   4.043   0.807 -1.2373 -0.3914 -0.2820
    2V3OU   H13  895   3.918   3.887   0.731  1.9127  0.6014 -0.3871
    2V3OU   H14  896   4.021   3.973   0.852 -0.5548  2.4092  0.3781
    2V3OU   C11  897   3.159   3.471   0.907  0.1175  0.2419  0.2100
    2V3OU    O1  898   3.131   3.586   0.866 -0.3222  0.1514  0.2511
    2V3OU    C9  899   3.299   3.434   0.938  0.1321 -0.0433 -0.1937
    2V3OU    C7  900   3.405   3.508   0.888 -0.0186 -0.3434 -0.9818
    2V3OU    O9  901   3.388   3.615   0.803  0.5076  0.7739  0.2809
    2V3OU   H25  902   3.292   3.630   0.807  0.2305 -0.9773  1.2455
    2V3OU   C17  903   2.827   3.311   0.920  0.4127 -0.1882  0.4033
    2V3OU    H7  904   2.724   3.344   0.909  0.6116  0.1812 -0.4196
    2V3OU   C18  905   2.847   3.210   1.013 -0.7847 -0.7331  0.0814
    2V3OU    H8  906   2.762   3.174   1.073 -0.6601 -0.1390  0.6142
    3SOL     OW  907   1.264   4.378   1.577  0.1449 -0.1384 -0.5601
    3SOL    HW1  908   1.339   4.322   1.542 -0.9287 -0.6952 -2.0539
    3SOL    HW2  909   1.178   4.347   1.538 -0.8548  0.7010  0.8638
    4SOL     OW  910   6.518   1.603   1.154 -0.0625  0.9739 -0.2622
    4SOL    HW1  911   6.600   1.577   1.205  0.6896 -0.9670 -2.2665
    4SOL    HW2  912   6.517   1.702   1.140  1.3967  1.1490  0.6779
    5SOL     OW  913   3.808   3.150   6.729 -0.0170 -0.0771 -0.5297
    5SOL    HW1  914   3.710   3.127   6.736 -0.0761  0.2845 -0.1481
    5SOL    HW2  915   3.821   3.216   6.655 -0.0685 -0.0739 -0.5361
    6SOL     OW  916   3.240   2.753   0.555  0.1329  0.0521  0.3242
    6SOL    HW1  917   3.200   2.673   0.599  0.2631  1.0559  2.4033
    6SOL    HW2  918   3.283   2.811   0.624 -0.3502  2.1486 -1.0396
    7SOL     OW  919   4.196   1.758   2.107 -0.5962 -0.3862 -0.3781
    7SOL    HW1  920   4.240   1.691   2.046  0.9408  0.2987 -0.0520
    7SOL    HW2  921   4.261   1.788   2.176 -1.4375  1.0493 -0.1814
    8SOL     OW  922   4.070   1.618   4.041 -0.4936 -0.5759  0.6993
    8SOL    HW1  923   4.039   1.696   3.985 -0.6925 -1.7681 -0.9239
    8SOL    HW2  924   4.158   1.641   4.083  0.2662 -0.0266 -1.0637
    9SOL     OW  925   5.938   3.238   0.505  0.0993  0.3763 -0.3659
    9SOL    HW1  926   5.945   3.337   0.490 -0.0365  0.2062 -1.6347
    9SOL    HW2  927   6.027   3.203   0.533 -0.0626  0.9867  0.9911
   10SOL     OW  928   6.272   3.065   2.109 -0.3361  0.0956  0.4584
   10SOL    HW1  929   6.304   2.976   2.142  1.7322  0.4996 -0.3298
   10SOL    HW2  930   6.205   3.052   2.037  1.7914 -0.9247 -1.4470
   11SOL     OW  931   4.011   1.251   0.341  0.0157 -0.0651  0.2438
   11SOL    HW1  932   4.020   1.350   0.355 -3.7973  0.4331  0.2810
   11SOL    HW2  933   4.043   1.228   0.249  1.7730  0.9776  0.5304
   12SOL     OW  934   5.196   0.390   2.380  0.1282  0.3863  0.3830
   12SOL    HW1  935   5.125   0.351   2.438  0.6186 -1.8787 -0.4373
   12SOL    HW2  936   5.213   0.485   2.407 -1.5306  0.2428  2.1207
   13SOL     OW  937   2.271   5.569   2.649 -0.2160 -0.6404 -0.0013
   13SOL    HW1  938   2.312   5.571   2.740  0.5793 -0.0593 -0.3548
   13SOL    HW2  939   2.221   5.654   2.634  1.4206  0.2156 -0.8665
   14SOL     OW  940   3.853   1.796   3.373  0.1547  0.2849 -0.1751
   14SOL    HW1  941   3.837   1.700   3.395  0.5634  0.0940 -0.6871
   14SOL    HW2  942   3.896   1.803   3.283 -0.2090  0.9711 -0.3024
   15SOL     OW  943   2.579   6.227   6.670  0.9287  0.4490 -0.0457
   15SOL    HW1  944   2.613   6.277   6.750 -0.1837  1.7098 -0.3125
   15SOL    HW2  945   2.480   6.214   6.679  1.3029 -2.8711  0.5867
   16SOL     OW  946   5.336   0.025   0.909  0.5434 -0.0672 -0.5034
   16SOL    HW1  947   5.369   0.102   0.855 -0.3606  1.5387  1.1029
   16SOL    HW2  948   5.236   0.030   0.916  0.5842 -0.5967  0.7369
   17SOL     OW  949   3.663   6.089   4.318  0.2175  0.2266  0.1981
   17SOL    HW1  950   3.628   6.174   4.359 -0.0120  1.0542 -1.6038
   17SOL    HW2  951   3.618   6.011   4.362 -1.4648  1.1360  0.2164
   18SOL     OW  952   0.204   0.570   4.751  0.2053 -0.4438  0.4234
   18SOL    HW1  953   0.256   0.579   4.666  1.2405  0.8569  1.1610
   18SOL    HW2  954   0.108   0.550   4.729  0.3192  0.4723 -1.0657
   19SOL     OW  955   6.790   0.563   0.173 -0.0063  0.1806  0.4991
   19SOL    HW1  956   6.803   0.662   0.187 -0.8513  0.3287  0.3432
   19SOL    HW2  957   6.807   0.541   0.077 -1.3232  0.4683  0.1713
   20SOL     OW  958   3.538   0.308   3.057 -0.2880 -0.5717 -0.2362
   20SOL    HW1  959   3.577   0.346   3.140 -1.7116  0.6066 -0.0722
   20SOL    HW2  960   3.581   0.351   2.977  0.5248 -1.1421 -0.1221
   21SOL     OW  961   3.540   2.337   1.396  0.5582  0.1752 -0.0756
   21SOL    HW1  962   3.468   2.397   1.431  0.8288  0.8437 -0.6491
   21SOL    HW2  963   3.623   2.350   1.450  0.6587  0.4240 -0.2886
   22SOL     OW  964   2.545   0.497   5.042 -0.5340 -0.0558  0.2747
   22SOL    HW1  965   2.515   0.521   4.949 -3.4455 -1.4465  0.7435
   22SOL    HW2  966   2.472   0.447   5.088  0.3306  1.5975  3.7564
   23SOL     OW  967   2.386   6.444   4.552 -0.8309  0.1171 -0.4606
   23SOL    HW1  968   2.366   6.503   4.474  0.0810  0.8767 -0.1421
   23SOL    HW2  969   2.344   6.483   4.634 -0.8895 -0.1077 -0.3818
   24SOL     OW  970   4.440   1.116   6.214 -0.7064  0.1852 -0.1609
   24SOL    HW1  971   4.450   1.111   6.115 -0.5883 -0.2999 -0.1266
   24SOL    HW2  972   4.347   1.089   6.239 -0.3752 -0.9025 -0.0531
   25SOL     OW  973   4.154   6.285   1.671 -0.4739 -0.0865  0.7732
   25SOL    HW1  974   4.156   6.343   1.752 -2.0881  2.5991 -0.9505
   25SOL    HW2  975   4.065   6.239   1.665 -1.4880  1.9182 -0.7731
   26SOL     OW  976   0.194   1.430   4.237 -0.0836  0.2901  0.0858
   26SOL    HW1  977   0.117   1.493   4.226  0.2011  0.9866  1.8324
   26SOL    HW2  978   0.258   1.467   4.304 -0.2032 -2.1354  1.6284
   27SOL     OW  979   5.874   0.688   2.793  0.1199  0.1354 -0.8486
   27SOL    HW1  980   5.860   0.590   2.806 -2.7716  0.5407 -0.2365
   27SOL    HW2  981   5.912   0.728   2.877 -1.9186  0.0101  0.1888
   28SOL     OW  982   0.335   0.668   6.969  0.0265 -0.1844  0.5456
   28SOL    HW1  983   0.288   0.585   6.939  1.1497 -0.2657 -1.1256
   28SOL    HW2  984   0.391   0.647   7.050 -0.7182 -0.7169  0.9354
   29SOL     OW  985   5.055   2.073   0.179 -0.0626  0.1370  0.8384
   29SOL    HW1  986   5.059   2.140   0.104 -0.6178 -0.4608  0.2633
   29SOL    HW2  987   4.959   2.048   0.196  0.1189 -0.2859  1.2536
   30SOL     OW  988   4.360   1.540   1.043 -0.1895 -0.7169  0.3514
   30SOL    HW1  989   4.289   1.501   1.102  1.9077 -1.2316  2.6856
   30SOL    HW2  990   4.343   1.638   1.031 -2.6459 -1.2585 -1.2990
   31SOL     OW  991   1.689   6.436   5.268  0.2880  0.2594  0.1476
   31SOL    HW1  992   1.640   6.480   5.344  0.6202 -0.2125  0.6444
   31SOL    HW2  993   1.637   6.357   5.236 -0.2977  0.9871 -0.7297
   32SOL     OW  994   6.965   2.500   1.861 -0.0100  0.4294 -0.3022
   32SOL    HW1  995   7.007   2.483   1.950 -2.2350 -0.0751  0.7315
   32SOL    HW2  996   6.939   2.414   1.819 -1.3789  0.7622 -0.1784
   33SOL     OW  997   1.542   0.923   6.399  0.8005  0.3388 -0.7627
   33SOL    HW1  998   1.539   0.984   6.320  1.9923  0.2387 -0.9050
   33SOL    HW2  999   1.514   0.972   6.482  1.1865  0.9051 -0.9708
   34SOL     OW 1000   1.949   6.324   5.720 -0.1400 -0.0959 -0.1784
   34SOL    HW1 1001   1.979   6.410   5.678 -1.8415  0.5897 -0.0763
   34SOL    HW2 1002   1.916   6.261   5.650  0.9916 -0.6379 -0.2410
   35SOL     OW 1003   5.613   3.222   6.656  0.1495  0.0825 -0.6304
   35SOL    HW1 1004   5.608   3.296   6.723 -0.9648  1.1135 -1.7908
   35SOL    HW2 1005   5.527   3.172   6.655  0.8498 -1.1784  0.0501
   36SOL     OW 1006   1.572   2.348   5.807 -0.5059 -0.2632 -0.4118
   36SOL    HW1 1007   1.635   2.424   5.822 -0.7253 -0.2516  0.5408
   36SOL    HW2 1008   1.595   2.301   5.722  0.6951 -0.1739 -0.1459
   37SOL     OW 1009   3.588   6.607   3.087  0.5375  0.6721  0.0884
   37SOL    HW1 1010   3.605   6.607   2.989 -0.9782  1.3747 -0.2078
   37SOL    HW2 1011   3.597   6.700   3.123 -1.0261  0.8244  0.1752
   38SOL     OW 1012   0.552   6.362   0.800  0.5688  0.5587  0.3647
   38SOL    HW1 1013   0.532   6.404   0.711  0.4577  0.5934  0.4054
   38SOL    HW2 1014   0.620   6.290   0.789  0.9237  0.8981  0.3289
   39SOL     OW 1015   4.886   2.389   6.198  0.0038 -0.0177 -0.7370
   39SOL    HW1 1016   4.798   2.409   6.241  0.4036  1.4075 -0.5056
   39SOL    HW2 1017   4.960   2.423   6.257  0.8305 -2.6025 -0.1360
   40SOL     OW 1018   6.590   1.164   2.166 -0.1451 -0.2282  0.0300
   40SOL    HW1 1019   6.679   1.142   2.207 -0.7122 -3.6415 -0.2819
   40SOL    HW2 1020   6.603   1.182   2.068  0.1252 -1.7103 -0.2226
   41SOL     OW 1021   0.754   2.089   5.430 -0.5865 -0.3364 -0.2832
   41SOL    HW1 1022   0.783   2.027   5.504 -0.1962 -0.0678 -0.2088
   41SOL    HW2 1023   0.655   2.085   5.421 -0.7581  0.3956  0.9520
   42SOL     OW 1024   3.602   5.918   0.254  0.4007 -0.0722 -0.2174
   42SOL    HW1 1025   3.506   5.902   0.230  0.6468 -1.3635 -0.4074
   42SOL    HW2 1026   3.619   6.017   0.260 -1.5080  0.1948  2.1587
   43SOL     OW 1027   4.686   3.963   5.890  0.2879 -0.5688 -0.3241
   43SOL    HW1 1028   4.731   3.876   5.869  0.1212 -1.0423  1.1389
   43SOL    HW2 1029   4.587   3.950   5.888  0.2115  0.0580 -1.8776
   44SOL     OW 1030   0.937   5.862   0.568 -0.1853  0.6262  0.2265
   44SOL    HW1 1031   0.888   5.917   0.500 -1.2396 -0.1181  0.3621
   44SOL    HW2 1032   0.944   5.768   0.535 -2.4129 -0.2188  1.9178
   45SOL     OW 1033   4.130   0.187   0.374  0.0377  0.1793  0.5853
   45SOL    HW1 1034   4.113   0.182   0.473 -0.8545  1.1617  0.5010
   45SOL    HW2 1035   4.062   0.131   0.326 -0.8247  1.2994  0.4429
   46SOL     OW 1036   0.473   4.337   3.802  0.2672 -0.1488  0.0007
   46SOL    HW1 1037   0.375   4.334   3.819  0.3829 -0.6981  0.6227
   46SOL    HW2 1038   0.507   4.430   3.816 -0.2233  0.1369 -0.6275
   47SOL     OW 1039   6.609   3.193   3.289 -0.4501  0.1704  0.1651
   47SOL    HW1 1040   6.588   3.247   3.371 -3.2701  0.8919 -0.9316
   47SOL    HW2 1041   6.581   3.098   3.305 -0.1088  0.0996  0.3560
   48SOL     OW 1042   2.289   2.170   5.888 -0.0900 -0.4105  0.0658
   48SOL    HW1 1043   2.346   2.091   5.867 -0.3005 -0.7682  0.7964
   48SOL    HW2 1044   2.216   2.178   5.820  1.4777  0.7391 -1.5576
   49SOL     OW 1045   4.867   4.850   4.735 -0.2041  0.4852 -0.0973
   49SOL    HW1 1046   4.781   4.883   4.697 -0.1614  1.7279  0.8124
   49SOL    HW2 1047   4.941   4.911   4.709  0.0372  0.6253  0.8835
   50SOL     OW 1048   0.611   3.580   5.145  0.0780 -0.2787 -0.4627
   50SOL    HW1 1049   0.646   3.647   5.211 -0.5038  0.5042 -0.9345
   50SOL    HW2 1050   0.682   3.559   5.078 -0.2114  1.0368 -1.2096
   51SOL     OW 1051   5.098   1.235   2.737  0.2532 -0.2602 -0.2015
   51SOL    HW1 1052   5.005   1.270   2.746 -0.4592 -1.8603 -0.8913
   51SOL    HW2 1053   5.098   1.137   2.758  1.5025 -0.5953 -1.5970
   52SOL     OW 1054   1.405   1.467   1.795  0.8767  0.2218 -0.4836
   52SOL    HW1 1055   1.401   1.408   1.715  1.1850 -1.8059  0.9256
   52SOL    HW2 1056   1.359   1.422   1.872  1.3173  1.7338  0.7172
   53SOL     OW 1057   4.551   6.298   4.406  0.6405  0.1284 -0.0976
   53SOL    HW1 1058   4.527   6.279   4.311  1.0956 -2.8042  0.2789
   53SOL    HW2 1059   4.471   6.284   4.464  0.6241  0.9084  0.0817
   54SOL     OW 1060   5.402   5.140   4.585  0.4476  0.6281 -0.3003
   54SOL    HW1 1061   5.381   5.070   4.653  1.3378 -0.6948 -1.3321
   54SOL    HW2 1062   5.317   5.169   4.539  0.0544  0.3635  0.2576
   55SOL     OW 1063   4.602   1.376   2.098  0.3581 -0.2640 -0.4502
   55SOL    HW1 1064   4.623   1.342   2.007 -0.2304  0.8781 -1.0334
   55SOL    HW2 1065   4.643   1.466   2.111  1.0716 -0.7257  0.7017
   56SOL     OW 1066   0.164   1.330   2.237 -0.1135  0.5019 -0.5865
   56SOL    HW1 1067   0.191   1.416   2.194  0.2819  0.7148  0.0648
   56SOL    HW2 1068   0.145   1.346   2.334  1.8003 -0.4479  0.0019
   57SOL     OW 1069   5.396   6.757   5.373  0.1823  0.0064 -0.0398
   57SOL    HW1 1070   5.377   6.823   5.301 -0.2746 -0.1249 -0.0414
   57SOL    HW2 1071   5.337   6.776   5.452  0.7480  0.2141  0.3401
   58SOL     OW 1072   0.882   1.493   1.032 -0.1725 -0.0633  0.0183
   58SOL    HW1 1073   0.842   1.483   0.941 -0.1787 -1.8476  0.1832
   58SOL    HW2 1074   0.905   1.402   1.069 -3.0950  0.2409  3.0973
   59SOL     OW 1075   6.352   6.635   3.838 -0.4336 -0.1737  0.1743
   59SOL    HW1 1076   6.260   6.665   3.864 -0.4386  0.5209 -0.5846
   59SOL    HW2 1077   6.417   6.709   3.856 -0.3926  0.2313 -1.4186
   60SOL     OW 1078   4.031   1.928   3.971 -0.2870 -0.3610  0.5207
   60SOL    HW1 1079   4.064   1.950   4.062  0.4270  1.6780 -0.1633
   60SOL    HW2 1080   3.961   1.995   3.944 -2.2491 -2.3491  0.4527
   61SOL     OW 1081   3.803   0.477   6.745 -0.1828  0.5996  0.9820
   61SOL    HW1 1082   3.800   0.510   6.650 -0.4050  1.5132  1.2976
   61SOL    HW2 1083   3.710   0.458   6.776 -0.0264 -0.8801  0.6348
   62SOL     OW 1084   3.187   0.257   5.455 -0.2359 -0.0212  0.0417
   62SOL    HW1 1085   3.165   0.322   5.383 -0.8263 -1.5659 -1.2191
   62SOL    HW2 1086   3.113   0.190   5.464  0.3716 -0.5619  1.2576
   63SOL     OW 1087   0.777   4.482   4.484  0.3628 -0.3389  0.1451
   63SOL    HW1 1088   0.820   4.571   4.474 -0.8138  0.3612  0.9789
   63SOL    HW2 1089   0.749   4.448   4.394  2.5337 -0.8018 -0.4100
   64SOL     OW 1090   0.799   1.515   5.647 -0.2865 -0.1138 -0.2744
   64SOL    HW1 1091   0.756   1.450   5.585  0.5945  0.9622 -2.0898
   64SOL    HW2 1092   0.729   1.558   5.704 -1.0954 -1.2599 -0.3724
   65SOL     OW 1093   1.799   3.723   5.194  0.6943  0.1485 -0.1922
   65SOL    HW1 1094   1.740   3.688   5.122 -0.2652  1.3933 -0.0514
   65SOL    HW2 1095   1.882   3.761   5.154  1.5538 -1.7845 -0.3774
   66SOL     OW 1096   3.717   1.335   1.878  0.5905 -0.4187 -0.8445
   66SOL    HW1 1097   3.711   1.248   1.829  2.7390 -0.7952 -0.5212
   66SOL    HW2 1098   3.693   1.322   1.974  1.4529 -0.7779 -0.6762
   67SOL     OW 1099   4.515   4.475   5.287  0.1482  0.0648  0.6547
   67SOL    HW1 1100   4.441   4.465   5.220  0.3066  0.0272  0.4862
   67SOL    HW2 1101   4.480   4.520   5.369 -0.1547 -0.2963  0.7261
   68SOL     OW 1102   6.287   3.550   7.009 -0.3265 -0.2188  0.2024
   68SOL    HW1 1103   6.349   3.623   7.037 -0.4054 -0.5870  1.4021
   68SOL    HW2 1104   6.272   3.488   7.086 -1.4713 -0.6410 -0.3396
   69SOL     OW 1105   2.610   5.295   0.425  0.1858 -0.0371 -0.0557
   69SOL    HW1 1106   2.624   5.394   0.434  0.4214 -0.0584 -0.1814
   69SOL    HW2 1107   2.621   5.251   0.514 -0.3328  0.1001  0.0777
   70SOL     OW 1108   4.930   2.518   2.867 -0.3851 -0.3523  0.0408
   70SOL    HW1 1109   4.957   2.605   2.908 -2.3339  0.2108  0.2268
   70SOL    HW2 1110   4.928   2.527   2.768  1.1385 -0.7443 -0.0498
   71SOL     OW 1111   0.914   3.322   3.680 -0.3764 -0.5922 -0.1033
   71SOL    HW1 1112   0.910   3.411   3.726  0.1119 -0.4025 -0.4212
   71SOL    HW2 1113   0.916   3.335   3.581 -0.6239 -0.9697 -0.1599
   72SOL     OW 1114   3.358   5.587   1.169  0.5079 -0.2047  0.3786
   72SOL    HW1 1115   3.371   5.658   1.239  2.3695 -1.0344  0.9507
   72SOL    HW2 1116   3.369   5.497   1.211  1.1677 -0.7349 -0.8781
   73SOL     OW 1117   4.336   3.102   6.296  0.1444  0.5742  0.6797
   73SOL    HW1 1118   4.396   3.147   6.361  1.8245  0.6370 -0.8405
   73SOL    HW2 1119   4.370   3.117   6.203 -0.6836 -1.6629 -0.0659
   74SOL     OW 1120   6.363   0.626   5.285 -0.4969  0.0300 -0.4599
   74SOL    HW1 1121   6.452   0.615   5.328 -0.2725 -0.2179 -0.9791
   74SOL    HW2 1122   6.369   0.694   5.212  0.1153 -2.2921 -2.7412
   75SOL     OW 1123   2.635   6.030   4.448 -0.0662  0.5920  0.2868
   75SOL    HW1 1124   2.648   5.961   4.519  0.7180  0.9217  0.4689
   75SOL    HW2 1125   2.724   6.058   4.412 -0.4606  0.2725 -0.9818
   76SOL     OW 1126   2.065   2.742   0.398 -0.0673  0.0969  0.4419
   76SOL    HW1 1127   2.156   2.739   0.358  0.2508 -1.4808  1.1906
   76SOL    HW2 1128   2.023   2.831   0.380  0.9841  0.2812 -1.2817
   77SOL     OW 1129   6.664   4.474   5.788 -0.3587 -0.6161 -0.2231
   77SOL    HW1 1130   6.740   4.539   5.785 -0.1751 -0.8723 -1.9048
   77SOL    HW2 1131   6.626   4.462   5.697 -1.6586 -1.4116  0.3883
   78SOL     OW 1132   4.917   0.680   5.576  0.0309 -0.8836 -0.7740
   78SOL    HW1 1133   4.922   0.655   5.673  1.1203 -0.5236 -0.7259
   78SOL    HW2 1134   4.944   0.775   5.564 -0.2873 -0.8671 -1.4146
   79SOL     OW 1135   4.314   6.775   6.342  0.3503  0.0067 -0.2674
   79SOL    HW1 1136   4.247   6.702   6.324 -3.1560  2.1434  2.6631
   79SOL    HW2 1137   4.365   6.753   6.425 -0.6566  0.6920  0.5753
   80SOL     OW 1138   1.098   2.202   3.913  0.1419 -0.4388  0.2096
   80SOL    HW1 1139   1.039   2.231   3.988 -1.5682  0.2075 -1.3303
   80SOL    HW2 1140   1.104   2.275   3.844  1.1875 -1.2376 -0.5861
   81SOL     OW 1141   0.621   6.068   2.980 -0.2551 -0.4885 -0.3026
   81SOL    HW1 1142   0.652   6.033   3.068  0.2909  0.3759 -0.1395
   81SOL    HW2 1143   0.680   6.034   2.907  0.1453 -0.0877 -0.1693
   82SOL     OW 1144   6.850   3.029   6.478  0.1751  0.2734 -0.8916
   82SOL    HW1 1145   6.862   2.987   6.568  1.4140  1.2685 -0.5634
   82SOL    HW2 1146   6.768   2.991   6.435 -0.4596 -0.2084  0.6480
   83SOL     OW 1147   3.511   7.014   6.041  0.5477  0.1958 -0.5228
   83SOL    HW1 1148   3.517   7.113   6.029 -0.3909  0.0587 -2.4867
   83SOL    HW2 1149   3.603   6.976   6.048  0.9042  1.2559  0.9291
   84SOL     OW 1150   6.169   3.051   1.356  0.5658 -0.2026  0.1130
   84SOL    HW1 1151   6.143   3.077   1.263 -0.5986 -1.8564 -0.0483
   84SOL    HW2 1152   6.184   3.134   1.410 -0.1431  0.7862 -1.1524
   85SOL     OW 1153   0.992   0.214   4.431 -0.1540 -0.0887 -0.3996
   85SOL    HW1 1154   1.029   0.279   4.365  0.2397  1.4587  1.2475
   85SOL    HW2 1155   1.064   0.153   4.462 -0.0669 -0.0553 -0.5347
   86SOL     OW 1156   1.328   1.072   2.119  0.0157  0.3496  0.2444
   86SOL    HW1 1157   1.403   1.012   2.146  0.5944  0.8217 -0.2850
   86SOL    HW2 1158   1.281   1.105   2.201 -1.1138 -1.7675  0.5329
   87SOL     OW 1159   3.103   0.080   2.108 -0.4010  0.3537 -0.3103
   87SOL    HW1 1160   3.087   0.136   2.027  2.5828 -0.2879 -1.4918
   87SOL    HW2 1161   3.174   0.122   2.164  2.1205 -2.1884 -1.3536
   88SOL     OW 1162   6.640   1.442   0.909  0.0411 -0.6110  0.0729
   88SOL    HW1 1163   6.580   1.518   0.933  0.2471  1.3107 -4.3894
   88SOL    HW2 1164   6.716   1.437   0.973 -0.5263  2.3076  1.1038
   89SOL     OW 1165   6.858   2.925   6.172 -0.4606  0.1117 -0.3335
   89SOL    HW1 1166   6.895   3.018   6.181  0.2925 -0.0302 -1.5934
   89SOL    HW2 1167   6.788   2.909   6.241  0.7960  0.9296  1.1891
   90SOL     OW 1168   0.427   0.378   3.748  0.1432 -1.3381 -0.0066
   90SOL    HW1 1169   0.338   0.342   3.776 -0.5119 -0.7993 -1.3290
   90SOL    HW2 1170   0.478   0.407   3.829 -2.3723  1.8216  0.6665
   91SOL     OW 1171   5.211   0.079   3.119 -0.3190  0.0108  0.5803
   91SOL    HW1 1172   5.197   0.066   3.021 -0.1835  0.5024  0.4941
   91SOL    HW2 1173   5.134   0.040   3.169  0.0565 -1.0866  0.3348
   92SOL     OW 1174   3.264   4.997   1.641  0.0454 -0.3440 -0.3210
   92SOL    HW1 1175   3.199   4.923   1.625  1.2786 -1.7847  1.0587
   92SOL    HW2 1176   3.323   4.975   1.719  1.9973  1.0344 -1.3001
   93SOL     OW 1177   2.975   4.874   6.264  0.2644 -0.6010 -0.2899
   93SOL    HW1 1178   2.955   4.917   6.352 -0.6861 -1.3031 -0.1445
   93SOL    HW2 1179   2.892   4.870   6.209  1.0788  0.8479 -1.7061
   94SOL     OW 1180   2.602   0.077   1.342 -0.2001  0.5258 -0.5605
   94SOL    HW1 1181   2.610   0.085   1.441  1.7325 -1.8920 -0.4342
   94SOL    HW2 1182   2.538   0.004   1.319  2.1887 -1.5714 -0.9205
   95SOL     OW 1183   5.388   1.396   2.303 -0.0829  0.1706 -0.1321
   95SOL    HW1 1184   5.348   1.453   2.232 -0.5419  2.4146  1.7867
   95SOL    HW2 1185   5.327   1.393   2.382  0.7883 -1.5144  0.5304
   96SOL     OW 1186   1.812   4.213   5.566  0.3464 -0.3290 -0.5230
   96SOL    HW1 1187   1.731   4.155   5.571 -2.7331  3.3396 -2.5039
   96SOL    HW2 1188   1.856   4.204   5.477  0.3816 -0.2271 -0.5169
   97SOL     OW 1189   1.000   1.809   4.372 -0.1272  0.2570 -0.2529
   97SOL    HW1 1190   0.992   1.884   4.437  0.8432  0.6149 -0.5284
   97SOL    HW2 1191   1.065   1.833   4.300 -1.1993 -0.1249 -1.3830
   98SOL     OW 1192   4.927   1.274   4.595 -0.1513 -0.5855 -0.4693
   98SOL    HW1 1193   4.953   1.334   4.670 -2.8895  0.8529 -0.5520
   98SOL    HW2 1194   4.995   1.282   4.521  0.9243  0.3666  0.5836
   99SOL     OW 1195   4.942   1.153   0.674  0.0042  0.5535 -1.0146
   99SOL    HW1 1196   4.990   1.192   0.753  0.7877 -1.9262 -0.1860
   99SOL    HW2 1197   4.860   1.208   0.655 -1.0796  0.4080  2.5085
  100SOL     OW 1198   0.438   0.409   1.349  0.2793  0.0987 -0.6397
  100SOL    HW1 1199   0.412   0.388   1.254  0.0722  0.0989 -0.5844
  100SOL    HW2 1200   0.536   0.397   1.360  0.1944 -0.6328 -0.6598
  101SOL     OW 1201   2.785   0.806   3.790  0.0983  0.0895 -0.3972
  101SOL    HW1 1202   2.770   0.858   3.874  0.7968 -0.1571 -0.1164
  101SOL    HW2 1203   2.697   0.791   3.745 -0.1931  0.8870 -0.1158
  102SOL     OW 1204   1.848   0.398   2.438 -0.2590 -0.2229 -0.5785
  102SOL    HW1 1205   1.941   0.434   2.445  0.4054 -1.7171 -1.2643
  102SOL    HW2 1206   1.840   0.345   2.354 -1.1858 -1.6568  0.3753
  103SOL     OW 1207   3.785   1.817   4.750  0.2327  0.1894 -0.7067
  103SOL    HW1 1208   3.880   1.793   4.774 -0.0056 -0.6965 -0.6209
  103SOL    HW2 1209   3.771   1.915   4.766  0.8921  0.1658  0.1103
  104SOL     OW 1210   6.481   4.022   2.586 -0.1437  0.2802 -0.0634
  104SOL    HW1 1211   6.439   3.957   2.523 -1.3394  0.0482  0.9372
  104SOL    HW2 1212   6.562   4.062   2.544 -0.3956 -0.5473 -1.3760
  105SOL     OW 1213   6.056   1.460   4.447 -0.2025 -0.5990 -0.4276
  105SOL    HW1 1214   6.024   1.538   4.393 -1.2128  0.4848  1.6063
  105SOL    HW2 1215   6.156   1.457   4.446 -0.1378  0.8243 -0.4515
  106SOL     OW 1216   4.710   6.546   0.187  0.3355 -0.2186  0.2890
  106SOL    HW1 1217   4.798   6.584   0.216 -0.1895  0.7106  0.7078
  106SOL    HW2 1218   4.651   6.620   0.154 -0.3978 -0.7842  0.3048
  107SOL     OW 1219   2.586   2.055   0.162  0.6422  0.3241  0.2165
  107SOL    HW1 1220   2.489   2.076   0.150  0.7062  0.5590  0.1182
  107SOL    HW2 1221   2.626   2.117   0.230  0.7119  0.1942  0.2948
  108SOL     OW 1222   5.154   4.556   4.724 -0.0749 -0.1964 -0.0658
  108SOL    HW1 1223   5.064   4.547   4.681 -0.2184  1.5002 -0.1838
  108SOL    HW2 1224   5.225   4.539   4.656 -0.3076  1.1574 -0.6744
  109SOL     OW 1225   5.132   2.193   3.235 -0.4177  0.4651  0.4279
  109SOL    HW1 1226   5.061   2.151   3.291 -1.5129 -0.5232 -1.6263
  109SOL    HW2 1227   5.103   2.197   3.140  1.3318  2.2325 -0.1085
  110SOL     OW 1228   3.674   0.842   4.564  0.3096 -0.0632  0.2020
  110SOL    HW1 1229   3.729   0.924   4.550  0.4497 -0.4246 -1.5816
  110SOL    HW2 1230   3.729   0.761   4.548  0.0102 -0.5196  1.3487
  111SOL     OW 1231   2.827   1.970   2.278 -0.8111 -0.0782  0.1377
  111SOL    HW1 1232   2.875   2.052   2.309 -1.1613  0.6712 -1.2206
  111SOL    HW2 1233   2.729   1.989   2.272 -0.9507 -0.7363  0.2075
  112SOL     OW 1234   0.527   1.862   1.136 -0.1904  0.2214 -0.5735
  112SOL    HW1 1235   0.623   1.834   1.132 -0.0583 -0.8123  4.3616
  112SOL    HW2 1236   0.471   1.794   1.089  1.1885 -1.3811  0.0213
  113SOL     OW 1237   0.974   6.679   4.416  0.5711  0.2083 -0.9916
  113SOL    HW1 1238   0.989   6.600   4.356 -1.3438  0.6242 -2.1084
  113SOL    HW2 1239   0.927   6.649   4.499  1.7485 -0.1193 -0.4242
  114SOL     OW 1240   2.353   0.007   1.014 -0.4532  0.2366 -0.6502
  114SOL    HW1 1241   2.351  -0.061   1.088 -1.9858  1.2933  0.3491
  114SOL    HW2 1242   2.368  -0.039   0.927  2.2268 -0.9764  0.3407
  115SOL     OW 1243   6.385   0.626   6.264  0.2950  0.3108 -0.0625
  115SOL    HW1 1244   6.433   0.545   6.298  1.9344  0.4629 -1.8238
  115SOL    HW2 1245   6.361   0.685   6.341 -0.7846 -1.7332  1.2381
  116SOL     OW 1246   5.993   4.803   2.368 -0.3600  0.3034 -0.2399
  116SOL    HW1 1247   6.073   4.839   2.320  0.3244 -0.2503  0.4433
  116SOL    HW2 1248   5.944   4.739   2.309  0.2625 -0.0908 -0.3389
  117SOL     OW 1249   0.632   6.836   0.974 -0.0001 -0.2079  0.0374
  117SOL    HW1 1250   0.637   6.808   1.070  0.0836 -1.1241 -0.2262
  117SOL    HW2 1251   0.677   6.768   0.917  2.4953  1.7053 -0.4224
  118SOL     OW 1252   1.927   6.758   2.364 -0.1717  0.0133  0.3174
  118SOL    HW1 1253   1.862   6.684   2.381 -1.7923  1.5758  1.3525
  118SOL    HW2 1254   1.956   6.756   2.268 -2.7677 -0.0100 -0.5364
  119SOL     OW 1255   5.785   3.590   6.729 -0.4027 -0.0588  0.1227
  119SOL    HW1 1256   5.711   3.537   6.771 -1.4304  1.9587  1.0208
  119SOL    HW2 1257   5.767   3.599   6.631 -0.3358 -1.1412  0.0014
  120SOL     OW 1258   4.949   5.692   6.472  0.4053  0.2788  0.1592
  120SOL    HW1 1259   5.017   5.699   6.545  0.5863 -0.9879  0.1270
  120SOL    HW2 1260   4.893   5.775   6.471  1.1626  0.8237  0.9631
  121SOL     OW 1261   3.976   3.159   0.373 -0.0735  0.1112 -0.4464
  121SOL    HW1 1262   3.906   3.147   0.302 -0.5299 -0.4451  0.0868
  121SOL    HW2 1263   3.953   3.237   0.431 -0.5764 -0.4361  0.0973
  122SOL     OW 1264   0.859   3.959   5.454 -0.0938  0.4301  0.0078
  122SOL    HW1 1265   0.798   4.009   5.515 -1.4197 -0.3675 -0.5993
  122SOL    HW2 1266   0.920   4.023   5.408 -0.7058  1.3149  0.3939
  123SOL     OW 1267   6.554   2.519   2.183 -0.4114 -0.0366  0.2531
  123SOL    HW1 1268   6.498   2.567   2.116 -1.3951 -1.1928  0.2263
  123SOL    HW2 1269   6.534   2.555   2.275  0.2697  0.9076  0.0544
  124SOL     OW 1270   5.173   3.789   2.519 -0.0444 -0.5298  0.2618
  124SOL    HW1 1271   5.263   3.747   2.525  0.1413 -0.2415 -0.3669
  124SOL    HW2 1272   5.103   3.722   2.544  0.2678 -1.1431 -0.4536
  125SOL     OW 1273   0.634   3.605   1.756  0.4675  0.2626  0.1035
  125SOL    HW1 1274   0.649   3.508   1.738 -0.7728  0.0416  0.1563
  125SOL    HW2 1275   0.679   3.631   1.842 -0.1483 -0.5392  0.6793
  126SOL     OW 1276   3.132   4.581   1.706 -0.3594  0.2427  0.2207
  126SOL    HW1 1277   3.109   4.678   1.701  2.5615  1.1744  1.9801
  126SOL    HW2 1278   3.074   4.537   1.774 -2.4570  0.4071 -1.3609
  127SOL     OW 1279   6.161   3.690   0.624 -0.0898 -0.2001  0.0241
  127SOL    HW1 1280   6.185   3.765   0.685  1.0416  0.6053 -1.3522
  127SOL    HW2 1281   6.245   3.649   0.587 -0.7371 -0.8527 -0.7670
  128SOL     OW 1282   5.618   0.682   0.855  0.5595 -0.2211  0.5763
  128SOL    HW1 1283   5.690   0.699   0.923  0.5485  3.9860 -0.1860
  128SOL    HW2 1284   5.530   0.709   0.892  0.5547  2.1623 -0.9796
  129SOL     OW 1285   3.380   3.189   0.680 -0.4165 -0.0253 -0.6549
  129SOL    HW1 1286   3.374   3.107   0.736  1.9183  0.2318  0.0776
  129SOL    HW2 1287   3.472   3.195   0.640 -0.7601  1.8701 -1.2441
  130SOL     OW 1288   0.107   2.806   6.250 -0.2631 -0.4303 -0.5691
  130SOL    HW1 1289   0.191   2.840   6.206 -0.3084 -2.4185 -2.3595
  130SOL    HW2 1290   0.028   2.842   6.202 -0.6482  2.8948  2.1958
  131SOL     OW 1291   5.990   1.930   2.855 -0.1742  0.0929 -0.1718
  131SOL    HW1 1292   5.920   1.860   2.840 -0.4867  0.4389 -0.3334
  131SOL    HW2 1293   6.076   1.886   2.881 -0.3134 -0.3640 -0.4798
  132SOL     OW 1294   6.031   1.323   3.682  0.0539 -0.5921 -0.1251
  132SOL    HW1 1295   5.944   1.310   3.635 -0.9067  2.8888  0.3744
  132SOL    HW2 1296   6.015   1.330   3.780  0.9647 -0.3732  0.0154
  133SOL     OW 1297   6.142   5.984   1.638  0.3287 -0.0051  0.1179
  133SOL    HW1 1298   6.050   6.009   1.669 -0.2565  2.1669 -2.9628
  133SOL    HW2 1299   6.210   6.030   1.695 -0.5526  0.6196  0.6874
  134SOL     OW 1300   5.128   2.459   4.134 -0.1200 -0.0220  0.1917
  134SOL    HW1 1301   5.150   2.452   4.037  0.6404  0.2402  0.3415
  134SOL    HW2 1302   5.188   2.399   4.187  0.7784  1.2757  0.6781
  135SOL     OW 1303   4.814   1.264   3.831 -0.1095  0.0745 -0.1740
  135SOL    HW1 1304   4.737   1.218   3.874  0.2229 -0.1351  0.1968
  135SOL    HW2 1305   4.886   1.279   3.898 -0.5074  1.8202 -0.0959
  136SOL     OW 1306   4.963   5.485   4.660  0.0142 -0.2352 -0.4850
  136SOL    HW1 1307   5.054   5.523   4.643 -0.7048  1.6703 -0.3408
  136SOL    HW2 1308   4.902   5.558   4.693 -0.6291 -2.1507  3.0612
  137SOL     OW 1309   3.805   1.077   4.510  0.2181 -0.5489 -0.2077
  137SOL    HW1 1310   3.886   1.056   4.455  0.2866 -1.5321  0.2545
  137SOL    HW2 1311   3.833   1.110   4.600  0.1158 -1.3284  0.1166
  138SOL     OW 1312   6.335   5.146   6.660 -0.1902 -0.7244  0.3790
  138SOL    HW1 1313   6.397   5.213   6.702 -0.4668 -0.0506 -0.2725
  138SOL    HW2 1314   6.296   5.088   6.732  0.4862 -0.5580  0.8934
  139SOL     OW 1315   2.126   4.978   2.587 -0.3709 -0.2114  0.5438
  139SOL    HW1 1316   2.196   4.906   2.589  0.5295  0.5919 -0.5839
  139SOL    HW2 1317   2.051   4.949   2.527  0.0494 -0.1848 -0.0097
  140SOL     OW 1318   6.347   4.621   3.955 -0.5118 -0.0512  0.3342
  140SOL    HW1 1319   6.260   4.619   4.004 -1.3273  0.0074 -1.0800
  140SOL    HW2 1320   6.365   4.531   3.916 -0.4703  0.2127 -0.2698
  141SOL     OW 1321   2.553   0.812   4.557 -0.1962 -0.5650  0.3915
  141SOL    HW1 1322   2.605   0.771   4.482 -1.7777 -0.9878 -0.5178
  141SOL    HW2 1323   2.488   0.878   4.521 -2.5381 -2.3549  1.0956
  142SOL     OW 1324   2.951   3.767   0.410  0.6154  0.2894  0.9989
  142SOL    HW1 1325   2.934   3.755   0.312 -2.2845 -0.5690  1.5075
  142SOL    HW2 1326   3.013   3.696   0.442  0.8365 -0.0105 -0.0539
  143SOL     OW 1327   5.179   6.820   0.291 -0.1413  0.4327  0.1099
  143SOL    HW1 1328   5.106   6.889   0.289  0.0864  0.6616 -0.8407
  143SOL    HW2 1329   5.245   6.839   0.218  1.5172  0.9054  1.6597
  144SOL     OW 1330   3.787   4.631   1.716  0.2234 -0.4863 -0.1526
  144SOL    HW1 1331   3.824   4.549   1.672 -0.9572  0.1175 -2.4087
  144SOL    HW2 1332   3.693   4.614   1.744 -0.1377  0.1633 -0.9234
  145SOL     OW 1333   6.454   5.015   1.601 -0.6001 -0.0851  0.0405
  145SOL    HW1 1334   6.553   5.001   1.611 -0.5370  0.6571  0.5460
  145SOL    HW2 1335   6.435   5.113   1.598 -1.4426 -0.1882  1.3359
  146SOL     OW 1336   6.828   3.727   0.849 -0.1797 -0.6725 -0.0603
  146SOL    HW1 1337   6.820   3.776   0.936 -0.1103  1.3330 -1.1215
  146SOL    HW2 1338   6.769   3.647   0.850 -2.2639  0.7970  0.8617
  147SOL     OW 1339   5.287   3.178   6.446 -0.4583 -0.1381 -0.1191
  147SOL    HW1 1340   5.194   3.213   6.429 -0.2111  1.3994  1.4774
  147SOL    HW2 1341   5.317   3.125   6.366 -1.6010  1.7165 -1.8809
  148SOL     OW 1342   0.383   3.804   6.241  0.0240 -0.1568 -0.5469
  148SOL    HW1 1343   0.420   3.712   6.228 -0.6372 -0.5034 -0.0469
  148SOL    HW2 1344   0.455   3.872   6.226  0.5054 -0.7547 -0.9609
  149SOL     OW 1345   4.800   3.850   6.171 -0.2205 -0.2248  0.0950
  149SOL    HW1 1346   4.731   3.887   6.233  0.6468  0.2458  0.7971
  149SOL    HW2 1347   4.794   3.898   6.083 -0.6917 -0.0933  0.1963
  150SOL     OW 1348   0.360   5.548   5.135  0.5609  0.2198  0.5235
  150SOL    HW1 1349   0.262   5.527   5.132  0.7764 -0.7846 -0.2640
  150SOL    HW2 1350   0.394   5.537   5.228  0.6580 -3.2471  0.2114
  151SOL     OW 1351   4.059   2.219   2.025 -0.3677 -0.0842  0.3492
  151SOL    HW1 1352   4.142   2.249   2.073  0.1000  0.2075 -0.6212
  151SOL    HW2 1353   4.000   2.298   2.008 -0.2939 -0.1062 -0.0077
  152SOL     OW 1354   3.581   1.621   4.733 -0.0575  0.2402  0.5079
  152SOL    HW1 1355   3.653   1.690   4.727 -0.1937  0.2860 -1.1757
  152SOL    HW2 1356   3.557   1.606   4.828  0.2129  2.2682  0.9396
  153SOL     OW 1357   0.990   1.145   2.601 -0.1365 -0.4995  0.3333
  153SOL    HW1 1358   1.032   1.225   2.643  0.0507 -0.0711 -0.6367
  153SOL    HW2 1359   0.938   1.173   2.520  1.1816 -1.5064 -0.9171
  154SOL     OW 1360   0.168   1.723   1.823  0.3992  0.0978  0.2579
  154SOL    HW1 1361   0.079   1.677   1.831 -0.7383  1.8875 -1.4696
  154SOL    HW2 1362   0.196   1.754   1.914 -0.5883 -0.7259  0.8825
  155SOL     OW 1363   0.381   1.259   4.998 -0.4067 -0.1336  0.1998
  155SOL    HW1 1364   0.386   1.278   5.097 -2.4747 -1.2173  0.5700
  155SOL    HW2 1365   0.399   1.162   4.982  1.8379  0.3748 -0.7576
  156SOL     OW 1366   5.472   4.427   2.083 -0.6036 -0.5682  0.0805
  156SOL    HW1 1367   5.404   4.381   2.026  0.4705 -3.3617  0.8971
  156SOL    HW2 1368   5.454   4.407   2.179 -0.4142  1.3011  0.5527
  157SOL     OW 1369   0.370   4.026   2.235  0.0391 -0.1328 -0.6577
  157SOL    HW1 1370   0.459   4.071   2.243  0.5597 -1.2666  0.0838
  157SOL    HW2 1371   0.334   4.040   2.143  1.1987 -0.0533 -1.1143
  158SOL     OW 1372   3.243   1.154   4.043  0.3018  0.0120 -0.3712
  158SOL    HW1 1373   3.306   1.160   3.965 -0.6011 -1.1101 -1.2094
  158SOL    HW2 1374   3.281   1.206   4.120  2.1378 -0.4484 -0.9178
  159SOL     OW 1375   6.139   4.170   1.789 -0.1149 -0.1200  0.2869
  159SOL    HW1 1376   6.192   4.249   1.760 -0.9504  0.9891  1.6427
  159SOL    HW2 1377   6.194   4.087   1.780  0.6871  0.5424 -1.4326
  160SOL     OW 1378   0.209   4.742   6.845 -0.2065 -0.9106  0.6020
  160SOL    HW1 1379   0.166   4.782   6.765  0.3382  1.0709  1.2463
  160SOL    HW2 1380   0.139   4.720   6.913 -0.5874 -1.8763 -0.0799
  161SOL     OW 1381   1.381   5.910   6.670  0.1380 -0.4772 -0.1068
  161SOL    HW1 1382   1.354   5.835   6.610  0.9375  0.0452 -1.1619
  161SOL    HW2 1383   1.358   5.997   6.627 -1.1258 -0.0837  1.2708
  162SOL     OW 1384   5.819   6.385   2.442  0.0249  0.1359  0.2650
  162SOL    HW1 1385   5.827   6.347   2.349 -1.1826 -1.9995  0.9750
  162SOL    HW2 1386   5.895   6.448   2.459  2.4901 -2.3766 -0.8290
  163SOL     OW 1387   5.742   1.276   0.681  0.3188 -0.0476 -0.2444
  163SOL    HW1 1388   5.812   1.314   0.621  0.7782  3.3616  2.1974
  163SOL    HW2 1389   5.651   1.304   0.648  0.5818  2.0422  0.6598
  164SOL     OW 1390   4.865   1.653   1.439  0.3585 -0.1319  0.0340
  164SOL    HW1 1391   4.849   1.600   1.522 -0.2602 -1.5197 -0.9260
  164SOL    HW2 1392   4.821   1.607   1.361  0.4902  1.3939 -0.9784
  165SOL     OW 1393   6.899   4.061   1.314  0.4290  0.4831 -0.9339
  165SOL    HW1 1394   6.907   4.006   1.231  1.4187  1.2721 -1.3903
  165SOL    HW2 1395   6.858   4.150   1.290  2.4593  1.4550 -0.9642
  166SOL     OW 1396   0.506   5.169   6.772 -0.0056  0.0013 -0.1033
  166SOL    HW1 1397   0.426   5.142   6.826  0.3706  2.3719  1.7982
  166SOL    HW2 1398   0.559   5.087   6.748 -2.4335 -1.5294 -0.5954
  167SOL     OW 1399   0.510   1.211   1.147  0.3736  0.3070 -0.0741
  167SOL    HW1 1400   0.527   1.238   1.242 -4.0027 -0.6551  1.2092
  167SOL    HW2 1401   0.570   1.134   1.123  2.0172  0.9652  1.6071
  168SOL     OW 1402   1.188   2.367   1.949 -0.8275  0.1233  0.8033
  168SOL    HW1 1403   1.148   2.276   1.959 -1.3971  0.5040  2.1623
  168SOL    HW2 1404   1.212   2.404   2.039  0.8374  0.7008  0.1738
  169SOL     OW 1405   6.970   0.075   0.656 -0.1905  0.0305 -0.2129
  169SOL    HW1 1406   6.916   0.147   0.699  0.3971  0.0799  0.4750
  169SOL    HW2 1407   6.955  -0.011   0.704  0.2757  0.0322 -0.0510
  170SOL     OW 1408   0.408   0.498   4.455 -0.0181 -0.1181  0.0223
  170SOL    HW1 1409   0.502   0.466   4.462  0.2664  0.3795 -1.3064
  170SOL    HW2 1410   0.345   0.421   4.469  0.5750 -0.4731  0.7958
  171SOL     OW 1411   2.494   2.928   1.394 -0.3949 -0.3334  0.5917
  171SOL    HW1 1412   2.400   2.929   1.358 -0.9403 -1.1953  1.9032
  171SOL    HW2 1413   2.523   2.833   1.404  0.6124 -0.0675  0.2681
  172SOL     OW 1414   0.172   1.263   1.748  0.3038  0.2895  0.1320
  172SOL    HW1 1415   0.261   1.300   1.720  0.6064 -1.1414 -0.9419
  172SOL    HW2 1416   0.135   1.205   1.674 -0.5076 -0.8642  1.3861
  173SOL     OW 1417   1.076   6.932   4.506  0.6194  0.3026  0.0054
  173SOL    HW1 1418   1.018   6.852   4.494 -0.0842  1.0439 -1.9472
  173SOL    HW2 1419   1.090   6.950   4.603 -1.6659 -0.4290  0.5110
  174SOL     OW 1420   3.378   6.671   3.641 -0.4405 -0.0695 -0.6557
  174SOL    HW1 1421   3.375   6.575   3.668 -0.7683 -0.0508 -0.6202
  174SOL    HW2 1422   3.430   6.723   3.708 -1.5446  0.0393  0.1488
  175SOL     OW 1423   1.591   0.398   3.098  0.1332 -0.3348  0.3857
  175SOL    HW1 1424   1.601   0.346   3.183 -1.0501 -0.9697  0.1528
  175SOL    HW2 1425   1.494   0.402   3.072  0.5412 -0.7336 -1.3103
  176SOL     OW 1426   1.446   6.416   5.719 -0.0746 -0.3454  0.0213
  176SOL    HW1 1427   1.530   6.395   5.770  0.5801  2.7176  0.3930
  176SOL    HW2 1428   1.441   6.358   5.638  2.6359 -0.3410 -0.2302
  177SOL     OW 1429   3.129   0.642   2.663  0.4027  0.3494  0.1296
  177SOL    HW1 1430   3.077   0.671   2.583  0.9876 -0.1064 -0.4241
  177SOL    HW2 1431   3.100   0.696   2.742 -1.1872 -0.1583 -0.0657
  178SOL     OW 1432   6.404   3.774   0.300  0.2756 -0.3077 -0.5994
  178SOL    HW1 1433   6.458   3.831   0.238  2.0045 -0.7526  0.4456
  178SOL    HW2 1434   6.314   3.816   0.312  0.3213  0.4393 -2.4043
  179SOL     OW 1435   5.817   6.290   6.849 -0.0201 -0.4067 -0.0275
  179SOL    HW1 1436   5.826   6.287   6.750 -0.0879  1.2965 -0.1051
  179SOL    HW2 1437   5.720   6.295   6.873 -0.0987 -2.1511  0.2172
  180SOL     OW 1438   0.583   0.133   5.735 -0.0233  0.2112  0.1079
  180SOL    HW1 1439   0.596   0.224   5.774 -0.1285 -0.5553  2.0397
  180SOL    HW2 1440   0.661   0.111   5.675 -0.1599  1.6638 -0.6615
  181SOL     OW 1441   4.110   3.288   4.232  0.0718 -0.0052 -0.5083
  181SOL    HW1 1442   4.019   3.329   4.237  0.1112  0.1201 -0.8302
  181SOL    HW2 1443   4.103   3.197   4.192  0.2718  0.5911 -1.9550
  182SOL     OW 1444   6.198   0.855   6.888  0.0492 -0.1369  0.1056
  182SOL    HW1 1445   6.125   0.918   6.915 -0.5338 -0.1894 -1.2454
  182SOL    HW2 1446   6.284   0.882   6.931 -0.3319  1.1861  0.0706
  183SOL     OW 1447   6.446   1.527   3.187 -0.9134  0.0074 -0.9202
  183SOL    HW1 1448   6.480   1.527   3.281 -0.9027 -1.2478 -0.9130
  183SOL    HW2 1449   6.347   1.539   3.187 -1.1730 -1.8581 -0.6150
  184SOL     OW 1450   6.976   4.214   2.572  0.3320 -0.0075 -0.2479
  184SOL    HW1 1451   7.060   4.159   2.573  0.1465 -0.3353  1.9891
  184SOL    HW2 1452   6.995   4.305   2.609 -0.0823  0.2830 -0.7385
  185SOL     OW 1453   2.677   5.495   6.497  0.2734 -0.3316 -1.0791
  185SOL    HW1 1454   2.734   5.454   6.569 -1.7190  0.0365  0.7866
  185SOL    HW2 1455   2.679   5.594   6.505 -1.6377 -0.3350 -0.1161
  186SOL     OW 1456   5.201   6.669   4.410  0.1553 -0.3633 -0.1788
  186SOL    HW1 1457   5.121   6.677   4.350 -0.5373 -1.8605  0.4761
  186SOL    HW2 1458   5.171   6.641   4.502  1.3430  0.2123  0.4085
  187SOL     OW 1459   5.423   0.949   2.095 -0.1460  0.5083  0.3603
  187SOL    HW1 1460   5.415   0.860   2.050 -1.9836  0.7484  0.1296
  187SOL    HW2 1461   5.437   0.936   2.193 -1.1320 -0.0618  0.4376
  188SOL     OW 1462   5.485   2.630   5.539  0.3872  0.1431 -0.0778
  188SOL    HW1 1463   5.509   2.654   5.633  0.2339 -0.7124  0.1898
  188SOL    HW2 1464   5.554   2.568   5.501  0.0595 -0.1102 -0.2675
  189SOL     OW 1465   0.568   5.041   2.852 -0.2845 -0.8871 -0.2910
  189SOL    HW1 1466   0.515   5.124   2.836 -0.7227 -1.2481 -0.7499
  189SOL    HW2 1467   0.611   5.046   2.942  0.7178  0.3811 -0.8127
  190SOL     OW 1468   2.808   0.138   0.073  0.2866 -0.2183  0.5932
  190SOL    HW1 1469   2.813   0.126  -0.026 -0.9307 -1.9642  0.7012
  190SOL    HW2 1470   2.900   0.147   0.111  0.8366 -0.8794 -0.5392
  191SOL     OW 1471   5.150   5.226   5.095 -0.3383 -0.1356 -0.2903
  191SOL    HW1 1472   5.115   5.140   5.059 -0.9532  0.1397 -0.3731
  191SOL    HW2 1473   5.077   5.294   5.094  1.1965  1.7758 -4.5778
  192SOL     OW 1474   6.143   1.857   6.721  0.0872  0.4673 -0.0487
  192SOL    HW1 1475   6.231   1.831   6.683 -0.0550  1.3947 -1.0898
  192SOL    HW2 1476   6.148   1.858   6.820  1.5274  1.3528 -0.0921
  193SOL     OW 1477   6.408   3.602   0.845  0.3479  0.0836 -0.0822
  193SOL    HW1 1478   6.362   3.647   0.768  0.1573 -0.3609 -0.2286
  193SOL    HW2 1479   6.481   3.543   0.811 -1.8169 -2.7278 -0.2349
  194SOL     OW 1480   4.280   0.067   5.164  0.0866 -0.8893  0.1215
  194SOL    HW1 1481   4.305  -0.007   5.227 -0.8104 -0.7887  0.6091
  194SOL    HW2 1482   4.339   0.146   5.181  0.6886 -1.2987 -0.0321
  195SOL     OW 1483   0.992   0.289   3.867  0.0664  0.7062 -0.1931
  195SOL    HW1 1484   1.018   0.218   3.932 -1.7769 -0.2844 -0.4842
  195SOL    HW2 1485   0.942   0.361   3.914  1.4174  1.5593 -0.0068
  196SOL     OW 1486   2.002   0.622   1.385 -0.1597  0.2276 -0.5336
  196SOL    HW1 1487   2.072   0.687   1.413  0.7106 -0.2819 -1.4899
  196SOL    HW2 1488   1.926   0.626   1.450  0.9297  0.4819  0.7752
  197SOL     OW 1489   0.411   0.157   6.130 -0.1829 -0.7887  0.7390
  197SOL    HW1 1490   0.509   0.139   6.133  0.3858  1.5559 -1.1269
  197SOL    HW2 1491   0.364   0.096   6.195  2.6380 -0.8115  2.9529
  198SOL     OW 1492   2.575   1.373   5.614  0.2455  0.3557  0.3299
  198SOL    HW1 1493   2.647   1.350   5.679 -1.1729 -0.2027  1.7880
  198SOL    HW2 1494   2.609   1.361   5.520  1.3476 -2.2661  0.9640
  199SOL     OW 1495   1.274   2.544   4.680  0.1119  0.4549 -0.1825
  199SOL    HW1 1496   1.175   2.535   4.679  0.2377 -1.6303 -1.7319
  199SOL    HW2 1497   1.310   2.516   4.769 -0.6936  2.2728  0.7743
  200SOL     OW 1498   4.894   1.125   0.335 -0.5911 -0.0104  0.6203
  200SOL    HW1 1499   4.825   1.055   0.320 -0.1158 -0.3294 -0.1312
  200SOL    HW2 1500   4.861   1.191   0.403 -0.7061 -1.4224  1.9795
  201SOL     OW 1501   6.435   0.682   4.987  0.4588  0.1592  0.2771
  201SOL    HW1 1502   6.366   0.612   5.007  0.4015 -0.2030 -1.1516
  201SOL    HW2 1503   6.520   0.638   4.959  0.4337  0.6490 -0.5910
  202SOL     OW 1504   6.224   5.046   6.204 -0.5440  0.6532  0.1295
  202SOL    HW1 1505   6.323   5.036   6.200 -0.4506  1.0943  0.9533
  202SOL    HW2 1506   6.184   5.022   6.116  0.0086 -2.5205  0.6212
  203SOL     OW 1507   0.765   2.928   1.138  0.0890  0.0979 -0.0884
  203SOL    HW1 1508   0.787   3.021   1.169  0.1986  0.2723 -0.6732
  203SOL    HW2 1509   0.846   2.888   1.095  0.0851 -0.3262  0.2954
  204SOL     OW 1510   6.251   6.900   2.825  0.1154 -0.2964  0.3103
  204SOL    HW1 1511   6.178   6.837   2.797 -2.2658  1.1812  2.7762
  204SOL    HW2 1512   6.257   6.902   2.925  3.3873 -0.0836  0.2063
  205SOL     OW 1513   1.510   5.656   2.565 -0.2341  0.2722  0.6594
  205SOL    HW1 1514   1.462   5.569   2.577  0.2243 -0.1585 -0.4583
  205SOL    HW2 1515   1.449   5.723   2.524  0.1725 -0.3909 -1.1300
  206SOL     OW 1516   6.220   2.391   2.632 -0.3644  0.6865 -0.6318
  206SOL    HW1 1517   6.176   2.316   2.682 -0.3973  1.3221  0.3127
  206SOL    HW2 1518   6.268   2.450   2.697  3.7319 -1.0935 -1.7317
  207SOL     OW 1519   1.125   2.683   5.472  0.5551  0.0629  0.0733
  207SOL    HW1 1520   1.142   2.695   5.374  3.2399 -1.9534  0.1929
  207SOL    HW2 1521   1.205   2.643   5.515 -0.9743 -0.1571  2.9422
  208SOL     OW 1522   0.632   4.647   5.078 -0.4575  0.3475  0.4024
  208SOL    HW1 1523   0.576   4.653   4.996  0.8543 -0.4540 -0.6018
  208SOL    HW2 1524   0.695   4.570   5.069  2.7377  2.7753  0.2094
  209SOL     OW 1525   5.759   4.664   2.489  0.1266 -0.6100 -0.2551
  209SOL    HW1 1526   5.815   4.584   2.472  0.6284 -0.2423 -0.3565
  209SOL    HW2 1527   5.666   4.648   2.457 -0.4211 -2.0432  1.8329
  210SOL     OW 1528   3.344   4.333   1.521 -0.0916  0.2958  0.2548
  210SOL    HW1 1529   3.355   4.251   1.578 -1.0460  0.2656  0.4164
  210SOL    HW2 1530   3.392   4.410   1.565  1.8776 -0.4263 -0.5313
  211SOL     OW 1531   2.531   1.850   2.882 -0.0437 -0.2339  0.4205
  211SOL    HW1 1532   2.471   1.772   2.869 -0.0173 -0.2761  0.5434
  211SOL    HW2 1533   2.594   1.857   2.805 -0.8868  0.4327 -0.2284
  212SOL     OW 1534   1.648   4.280   1.531 -0.7947 -0.1895  0.0489
  212SOL    HW1 1535   1.652   4.234   1.442 -0.5926  1.5525 -0.9031
  212SOL    HW2 1536   1.579   4.236   1.588  1.0056 -3.1289  0.1517
  213SOL     OW 1537   0.723   5.127   1.109  0.1219 -0.2316  0.4177
  213SOL    HW1 1538   0.798   5.061   1.114  0.7173  0.2822 -1.2540
  213SOL    HW2 1539   0.636   5.079   1.121  0.6228 -1.0580  0.8578
  214SOL     OW 1540   4.964   1.631   1.988  0.1082 -0.1824  0.1032
  214SOL    HW1 1541   4.951   1.539   1.950 -0.9109  0.0538 -0.1422
  214SOL    HW2 1542   4.877   1.681   1.987  0.9715  1.4087 -1.3795
  215SOL     OW 1543   3.089   5.605   2.399 -0.4630 -0.6990 -0.0622
  215SOL    HW1 1544   3.002   5.628   2.444  0.1603  1.9571 -0.0940
  215SOL    HW2 1545   3.095   5.652   2.311  1.3270 -0.1959  0.2860
  216SOL     OW 1546   2.264   5.945   3.390  0.4853 -0.4347 -0.0262
  216SOL    HW1 1547   2.318   5.892   3.325  1.9071 -1.5431  1.9535
  216SOL    HW2 1548   2.167   5.921   3.382  0.7687 -1.2622 -1.0390
  217SOL     OW 1549   5.943   3.258   4.551  0.2156  0.1763  0.6474
  217SOL    HW1 1550   6.021   3.318   4.538 -1.0374  1.4725 -1.6418
  217SOL    HW2 1551   5.863   3.298   4.506 -1.3673 -1.8876  1.4688
  218SOL     OW 1552   3.547   3.531   0.522  0.3262 -0.0963 -0.5717
  218SOL    HW1 1553   3.614   3.553   0.592  0.9954 -1.7677 -0.6397
  218SOL    HW2 1554   3.520   3.615   0.474  2.3267  0.6474 -0.5129
  219SOL     OW 1555   6.386   3.000   0.585  0.2406  0.1027  0.1461
  219SOL    HW1 1556   6.466   3.033   0.637  2.1990 -0.4297 -2.3365
  219SOL    HW2 1557   6.355   2.913   0.624  1.8687 -0.4538  0.2833
  220SOL     OW 1558   1.611   1.311   1.089 -0.5603  0.2992  0.2160
  220SOL    HW1 1559   1.534   1.247   1.083 -2.0400  2.0054  0.4216
  220SOL    HW2 1560   1.677   1.291   1.016 -0.2359 -2.3430  1.1097
  221SOL     OW 1561   5.043   3.996   0.534 -0.2668 -0.0267 -0.2093
  221SOL    HW1 1562   5.136   3.961   0.523  0.1016  0.5393  0.9128
  221SOL    HW2 1563   5.013   4.040   0.450  0.4802 -0.2279 -0.5854
  222SOL     OW 1564   3.165   5.025   5.489  0.4373  0.0040 -0.1356
  222SOL    HW1 1565   3.235   5.033   5.560  1.1013  2.0027 -0.9384
  222SOL    HW2 1566   3.100   5.101   5.496 -0.2907 -0.5227 -0.8395
  223SOL     OW 1567   5.312   1.079   0.136  0.5549  0.2176  0.1233
  223SOL    HW1 1568   5.286   1.172   0.110  1.2581  0.5385  0.5649
  223SOL    HW2 1569   5.398   1.080   0.186 -0.3766 -0.4587  1.8600
  224SOL     OW 1570   5.233   2.960   5.310 -0.5056 -0.2754  0.4201
  224SOL    HW1 1571   5.240   2.865   5.340  1.5356 -0.6155 -0.8962
  224SOL    HW2 1572   5.222   3.020   5.389  1.6057 -1.3590  1.6136
  225SOL     OW 1573   4.028   6.204   6.319 -0.0281 -0.6493 -0.2532
  225SOL    HW1 1574   4.085   6.155   6.253  0.9628 -0.9654  0.8095
  225SOL    HW2 1575   4.039   6.163   6.409 -0.6884  0.3244  0.2865
  226SOL     OW 1576   0.571   1.893   0.598 -0.0379  0.6550  0.6331
  226SOL    HW1 1577   0.473   1.892   0.580 -0.0450  0.0773  0.6631
  226SOL    HW2 1578   0.619   1.851   0.520  0.0996  0.0476  1.0371
  227SOL     OW 1579   0.358   4.684   2.512  0.0959 -0.2924  0.8944
  227SOL    HW1 1580   0.314   4.661   2.425  0.7456  1.5806  0.0320
  227SOL    HW2 1581   0.291   4.725   2.574  0.3418  1.6236 -0.0488
  228SOL     OW 1582   6.828   6.525   2.520 -0.2134 -0.0236 -0.0565
  228SOL    HW1 1583   6.761   6.480   2.579 -0.6814  1.2708  0.4307
  228SOL    HW2 1584   6.782   6.561   2.439  0.5091 -2.2928 -1.5951
  229SOL     OW 1585   4.160   1.084   6.402 -0.1131  0.5993 -1.2177
  229SOL    HW1 1586   4.143   1.020   6.327  0.3640 -0.3387 -0.5486
  229SOL    HW2 1587   4.108   1.168   6.387 -1.0020 -0.0649 -1.9606
  230SOL     OW 1588   4.660   4.568   3.725  0.1987 -0.2742 -0.0560
  230SOL    HW1 1589   4.578   4.577   3.781  0.4474  2.1203  0.0383
  230SOL    HW2 1590   4.638   4.520   3.640 -0.7102 -1.8078  0.9967
  231SOL     OW 1591   5.308   0.257   0.032 -0.2420 -0.5097 -0.2866
  231SOL    HW1 1592   5.298   0.245   0.131 -2.5019  0.6851 -0.3125
  231SOL    HW2 1593   5.399   0.293   0.012  0.1721 -0.5514  1.3592
  232SOL     OW 1594   2.100   2.400   4.878  0.1154  0.1504  0.2843
  232SOL    HW1 1595   2.153   2.413   4.795  0.1604 -1.5075  0.0260
  232SOL    HW2 1596   2.160   2.370   4.952  0.0175  1.2673  0.8274
  233SOL     OW 1597   3.789   0.842   2.927 -0.1516  0.3570 -0.3942
  233SOL    HW1 1598   3.737   0.922   2.895 -1.4977 -0.1164  0.5032
  233SOL    HW2 1599   3.813   0.853   3.023  0.7910  0.2366 -0.6081
  234SOL     OW 1600   5.201   5.083   6.333  0.3282  0.1878  0.4920
  234SOL    HW1 1601   5.113   5.128   6.350  1.6426  2.5137  1.6398
  234SOL    HW2 1602   5.249   5.129   6.259  0.6462 -1.0578 -0.1159
  235SOL     OW 1603   4.631   4.892   2.939  0.3398  0.2054 -0.5853
  235SOL    HW1 1604   4.711   4.847   2.898 -0.7504 -2.5118  0.0669
  235SOL    HW2 1605   4.570   4.923   2.866 -0.1375 -1.8438 -1.1230
  236SOL     OW 1606   3.405   3.224   7.005  0.1102 -0.3619 -0.1160
  236SOL    HW1 1607   3.337   3.203   7.075 -0.8465 -1.2751 -1.2869
  236SOL    HW2 1608   3.481   3.159   7.013 -0.0604 -0.5517 -0.0165
  237SOL     OW 1609   4.652   4.213   2.643  0.4936 -0.2918 -0.2405
  237SOL    HW1 1610   4.645   4.115   2.622  1.1997 -0.8017  1.7034
  237SOL    HW2 1611   4.581   4.263   2.592  0.8695 -1.6282 -2.1782
  238SOL     OW 1612   0.401   0.987   4.890  0.2667 -0.4844  0.0313
  238SOL    HW1 1613   0.375   0.955   4.799  2.2422 -0.5606 -0.5709
  238SOL    HW2 1614   0.344   0.944   4.959  0.1463 -2.1224 -1.0437
  239SOL     OW 1615   2.255   4.063   0.211 -0.3917  1.2813  0.2178
  239SOL    HW1 1616   2.260   4.153   0.167  0.4163  1.6067  0.9617
  239SOL    HW2 1617   2.176   4.061   0.272 -1.0484  1.1036 -0.6190
  240SOL     OW 1618   4.676   4.277   3.843 -0.2690  0.0996  0.2115
  240SOL    HW1 1619   4.679   4.196   3.786  2.6558 -1.3898  2.2162
  240SOL    HW2 1620   4.747   4.342   3.814  0.3672 -0.0888  1.2871
  241SOL     OW 1621   3.544   2.002   3.724 -0.6743  0.1921 -0.5427
  241SOL    HW1 1622   3.587   2.039   3.641  2.8539  1.9997  1.8730
  241SOL    HW2 1623   3.498   2.076   3.773 -0.6771 -0.3743  0.3157
  242SOL     OW 1624   4.310   3.001   1.326  0.0615 -0.3571  0.2948
  242SOL    HW1 1625   4.306   3.064   1.403 -0.1119  2.0036 -1.5307
  242SOL    HW2 1626   4.221   2.956   1.315 -0.3196  0.2933  0.6753
  243SOL     OW 1627   6.048   3.455   1.056  0.9708  0.4176  0.3414
  243SOL    HW1 1628   6.091   3.401   1.128 -0.0323 -0.0715  0.5933
  243SOL    HW2 1629   6.016   3.395   0.983 -1.2052  0.4781  1.1659
  244SOL     OW 1630   5.105   4.114   4.991 -0.0675  0.0103  0.1404
  244SOL    HW1 1631   5.178   4.065   5.039  2.0190  0.5343 -2.2323
  244SOL    HW2 1632   5.018   4.069   5.007  0.5207 -0.0828  3.9164
  245SOL     OW 1633   5.042   3.012   2.340 -0.0604  0.0152  0.4212
  245SOL    HW1 1634   5.026   3.022   2.438 -0.1892  0.9892  0.3077
  245SOL    HW2 1635   4.986   3.078   2.290 -1.2495 -1.5824 -0.4262
  246SOL     OW 1636   1.116   1.317   2.795  0.2074 -0.0207  0.1656
  246SOL    HW1 1637   1.110   1.410   2.830  1.2050  0.3199 -0.5153
  246SOL    HW2 1638   1.212   1.290   2.788 -0.0696 -1.2320  0.6675
  247SOL     OW 1639   3.945   1.727   0.025  0.0543 -0.3469 -0.5278
  247SOL    HW1 1640   3.959   1.657   0.095  2.9610 -0.0916 -0.7030
  247SOL    HW2 1641   3.914   1.684  -0.059 -0.9040 -1.0198  0.1499
  248SOL     OW 1642   2.699   1.685   0.616 -0.1220  0.0411 -0.1940
  248SOL    HW1 1643   2.775   1.750   0.623 -0.3983  0.3352  0.1403
  248SOL    HW2 1644   2.631   1.721   0.552 -0.1570 -0.0383 -0.2013
  249SOL     OW 1645   3.069   1.457   0.208 -0.2015  0.0491 -0.0570
  249SOL    HW1 1646   3.129   1.474   0.130  1.7869  0.4208  1.4791
  249SOL    HW2 1647   3.016   1.540   0.227  2.3349  1.4847  1.4112
  250SOL     OW 1648   4.371   1.609   6.553  0.3131  0.2351 -0.0862
  250SOL    HW1 1649   4.337   1.620   6.647 -1.1861  2.8443 -0.8496
  250SOL    HW2 1650   4.470   1.622   6.553  0.3354  0.2629  1.1112
  251SOL     OW 1651   4.136   5.111   5.550 -0.3444  0.5932 -0.1324
  251SOL    HW1 1652   4.173   5.031   5.502  0.5833 -0.0131  1.5219
  251SOL    HW2 1653   4.046   5.088   5.588 -0.9593  0.9891 -1.2981
  252SOL     OW 1654   6.971   0.020   4.946  0.1962  0.2478  0.0050
  252SOL    HW1 1655   7.044   0.060   4.892  0.2096  0.5223  0.2212
  252SOL    HW2 1656   6.905   0.091   4.970 -0.3334 -0.0650 -0.4933
  253SOL     OW 1657   4.886   6.112   5.027  0.0539  0.5672  0.0601
  253SOL    HW1 1658   4.832   6.162   4.959  0.1376  1.1399  0.4033
  253SOL    HW2 1659   4.936   6.039   4.983  0.0878  0.9208 -0.4929
  254SOL     OW 1660   5.626   2.242   4.857  0.3780  0.3379  0.6473
  254SOL    HW1 1661   5.648   2.333   4.821  1.7977 -0.1311  0.2626
  254SOL    HW2 1662   5.549   2.249   4.920  0.1858  1.7365  0.2945
  255SOL     OW 1663   0.383   4.270   0.230  0.7691  0.3956  0.5029
  255SOL    HW1 1664   0.302   4.318   0.196 -1.3480 -1.6891  2.2567
  255SOL    HW2 1665   0.412   4.202   0.163  0.6953  0.7371  0.1181
  256SOL     OW 1666   5.420   1.509   5.828  0.7392 -0.0978  0.2835
  256SOL    HW1 1667   5.379   1.503   5.918  0.1079 -0.0070  0.0080
  256SOL    HW2 1668   5.419   1.604   5.797 -0.3881 -0.3114 -0.4151
  257SOL     OW 1669   4.648   5.840   2.864 -0.4552 -0.1276 -0.5959
  257SOL    HW1 1670   4.744   5.863   2.848 -0.2547 -0.1076  0.5926
  257SOL    HW2 1671   4.591   5.885   2.795  0.3727 -0.0685 -1.2555
  258SOL     OW 1672   3.977   1.774   5.630  0.0558 -0.3030  0.1977
  258SOL    HW1 1673   4.020   1.746   5.715  0.5582  0.2902  0.1420
  258SOL    HW2 1674   3.916   1.701   5.598  1.6622 -1.5593 -0.1798
  259SOL     OW 1675   2.347   0.235   3.578  0.7670  0.0345  0.2177
  259SOL    HW1 1676   2.417   0.240   3.650  2.7793  1.2235 -1.6958
  259SOL    HW2 1677   2.320   0.328   3.551 -1.3809 -0.4042  0.6867
  260SOL     OW 1678   1.997   5.844   3.464  0.2930  0.3628 -0.0245
  260SOL    HW1 1679   2.041   5.770   3.515  0.0996  0.0951 -0.2466
  260SOL    HW2 1680   2.010   5.930   3.513  0.8433  0.2433  0.0432
  261SOL     OW 1681   0.712   5.683   6.852 -0.3098 -0.3810  0.4333
  261SOL    HW1 1682   0.700   5.600   6.799 -1.2289  0.1734 -0.2415
  261SOL    HW2 1683   0.792   5.673   6.912  0.3822 -1.2330 -0.6072
  262SOL     OW 1684   1.791   3.509   5.553  0.4943 -0.2238 -0.4797
  262SOL    HW1 1685   1.726   3.495   5.627  1.0244  1.1267  0.2665
  262SOL    HW2 1686   1.794   3.606   5.529  0.2473 -0.6382 -2.3647
  263SOL     OW 1687   2.307   0.502   3.220 -0.5645  0.2166 -0.4933
  263SOL    HW1 1688   2.395   0.458   3.235  0.0618  1.3588 -0.7706
  263SOL    HW2 1689   2.236   0.450   3.268  0.0986 -1.2458 -1.0267
  264SOL     OW 1690   6.251   3.803   5.459  0.7286  0.3439 -0.0347
  264SOL    HW1 1691   6.186   3.877   5.439 -1.1173 -0.7728  1.5127
  264SOL    HW2 1692   6.308   3.829   5.536  0.4172  0.3545  0.1932
  265SOL     OW 1693   0.307   1.001   1.396  0.5882 -0.4247 -0.2880
  265SOL    HW1 1694   0.367   0.929   1.361  0.3320 -0.2460 -1.1372
  265SOL    HW2 1695   0.213   0.982   1.368  0.5035  0.1726 -0.4212
  266SOL     OW 1696   4.368   6.899   5.329  0.6838 -0.5484 -0.0256
  266SOL    HW1 1697   4.446   6.906   5.391  1.1963  0.0967 -0.7227
  266SOL    HW2 1698   4.347   6.803   5.312  0.6703 -0.7304  0.9656
  267SOL     OW 1699   2.127   0.122   1.260 -0.4943 -0.4872 -0.4651
  267SOL    HW1 1700   2.049   0.084   1.310 -1.6623 -0.0864 -1.9016
  267SOL    HW2 1701   2.207   0.065   1.275 -0.0083  0.9955  3.9269
  268SOL     OW 1702   4.547   2.453   1.360  0.5866 -0.2535 -0.3054
  268SOL    HW1 1703   4.623   2.388   1.366  0.7843  0.0894  1.9121
  268SOL    HW2 1704   4.578   2.537   1.317  1.2082 -0.4744 -0.2989
  269SOL     OW 1705   4.755   1.688   6.764  0.1192  0.5715 -0.2678
  269SOL    HW1 1706   4.699   1.650   6.838  0.7296  0.8228  0.3428
  269SOL    HW2 1707   4.852   1.674   6.786  0.3146  1.0577 -0.8053
  270SOL     OW 1708   5.573   0.382   0.893 -0.3962  0.0221 -0.1947
  270SOL    HW1 1709   5.570   0.375   0.993  0.6165 -0.3780 -0.1816
  270SOL    HW2 1710   5.580   0.479   0.867 -0.6260  0.1262  0.1200
  271SOL     OW 1711   6.986   3.915   0.436  0.9403 -0.0790  0.3393
  271SOL    HW1 1712   6.895   3.881   0.412  0.0855  0.7662  2.1692
  271SOL    HW2 1713   7.014   3.985   0.370  0.2246 -0.2599 -0.1686
  272SOL     OW 1714   3.884   6.273   4.248 -0.6518  0.4842 -0.3494
  272SOL    HW1 1715   3.788   6.261   4.272 -0.0167 -0.0152  2.3166
  272SOL    HW2 1716   3.901   6.369   4.226 -1.8790  0.4302 -1.6608
  273SOL     OW 1717   0.959   5.706   5.280  0.3487 -0.1189 -0.1926
  273SOL    HW1 1718   1.006   5.748   5.202  1.8764  0.0345  0.7544
  273SOL    HW2 1719   0.877   5.659   5.248  0.2806  0.9321 -1.7170
  274SOL     OW 1720   3.609   1.052   2.834 -0.2164 -0.8834  0.1583
  274SOL    HW1 1721   3.546   1.068   2.910 -0.0900 -0.5568  0.1960
  274SOL    HW2 1722   3.557   1.037   2.751 -0.3791  1.4620 -0.2527
  275SOL     OW 1723   7.018   1.220   1.521  0.6976 -0.0635  0.3430
  275SOL    HW1 1724   7.088   1.286   1.493 -0.4510 -0.1782 -3.3776
  275SOL    HW2 1725   7.017   1.144   1.455 -0.8851 -1.6325  2.0714
  276SOL     OW 1726   6.924   6.046   4.154 -0.1401 -0.0572 -0.3747
  276SOL    HW1 1727   6.902   6.078   4.247 -0.5068  1.3114 -0.9020
  276SOL    HW2 1728   6.891   6.113   4.088  0.7370 -0.6804 -1.4731
  277SOL     OW 1729   2.662   4.753   1.765  0.1971  0.5344 -0.2873
  277SOL    HW1 1730   2.581   4.802   1.798  0.8871  1.0422  0.7056
  277SOL    HW2 1731   2.727   4.742   1.840  0.1917 -1.6855 -0.5404
  278SOL     OW 1732   0.539   3.326   1.431  0.2093 -0.2655 -0.1332
  278SOL    HW1 1733   0.486   3.246   1.404 -0.6098  0.5781 -1.0707
  278SOL    HW2 1734   0.491   3.374   1.505  1.1061 -1.0693  1.0041
  279SOL     OW 1735   6.467   1.116   3.833 -0.6800  0.4169  0.3329
  279SOL    HW1 1736   6.411   1.131   3.751 -1.6794  2.8620  1.3798
  279SOL    HW2 1737   6.463   1.196   3.892  2.3371 -0.1226  1.4760
  280SOL     OW 1738   2.735   5.878   1.246  0.5294  0.5065  0.2935
  280SOL    HW1 1739   2.739   5.804   1.179 -0.2846  0.2598  0.5029
  280SOL    HW2 1740   2.810   5.941   1.231  1.9907 -1.0241  0.8761
  281SOL     OW 1741   0.195   3.854   2.336 -0.7863  0.2498  0.0921
  281SOL    HW1 1742   0.109   3.905   2.328 -0.0967  1.1669 -2.1759
  281SOL    HW2 1743   0.271   3.912   2.307 -0.0783 -2.2387 -3.6445
  282SOL     OW 1744   1.757   1.261   6.090 -0.1339 -0.2636  0.3442
  282SOL    HW1 1745   1.697   1.200   6.038  0.5076 -1.1789  0.6425
  282SOL    HW2 1746   1.719   1.353   6.090 -1.9465 -0.9454  1.1398
  283SOL     OW 1747   1.857   2.296   6.838  0.3751  0.2238  0.0621
  283SOL    HW1 1748   1.870   2.295   6.937  0.7755 -0.8167  0.0047
  283SOL    HW2 1749   1.918   2.230   6.795 -2.0309 -1.7007 -0.5958
  284SOL     OW 1750   0.152   2.755   2.999  0.1685  0.2170  0.1681
  284SOL    HW1 1751   0.151   2.791   3.092 -1.8744 -0.1140  0.3181
  284SOL    HW2 1752   0.058   2.739   2.968  0.8642 -1.1466 -1.3936
  285SOL     OW 1753   4.472   4.951   5.834  0.0226 -0.7187 -0.8362
  285SOL    HW1 1754   4.486   4.851   5.834 -0.1207 -0.7733  1.0285
  285SOL    HW2 1755   4.514   4.990   5.752 -0.0460 -2.3231 -1.6814
  286SOL     OW 1756   1.008   4.379   1.464  0.3905  0.0865  0.2974
  286SOL    HW1 1757   0.974   4.325   1.387  1.1677 -0.1090  0.0797
  286SOL    HW2 1758   0.931   4.418   1.514 -0.1499 -0.4535 -0.0979
  287SOL     OW 1759   1.372   2.987   0.426 -0.5920 -0.0613 -0.3649
  287SOL    HW1 1760   1.411   2.979   0.335 -0.4589  0.6677 -0.3761
  287SOL    HW2 1761   1.300   3.056   0.426 -1.2783 -0.7621 -0.1398
  288SOL     OW 1762   5.284   4.549   2.990 -0.4516 -0.0538  0.5384
  288SOL    HW1 1763   5.378   4.583   2.995 -0.4504 -0.2511  3.3292
  288SOL    HW2 1764   5.221   4.625   3.005 -0.5830 -0.4783  2.3151
  289SOL     OW 1765   5.628   4.896   4.761 -0.0806  0.1010 -0.2443
  289SOL    HW1 1766   5.667   4.813   4.801 -0.2956 -0.6588 -1.5361
  289SOL    HW2 1767   5.671   4.976   4.801 -0.4898 -0.5883  1.6817
  290SOL     OW 1768   3.386   0.264   6.514 -0.1559 -0.2494 -0.1258
  290SOL    HW1 1769   3.321   0.337   6.493 -0.6912 -0.6588  0.1053
  290SOL    HW2 1770   3.391   0.200   6.437  0.6371  0.2509 -0.5114
  291SOL     OW 1771   0.618   0.873   2.237 -0.3237  0.5397  0.1442
  291SOL    HW1 1772   0.704   0.920   2.216  0.7602 -0.5788  1.8640
  291SOL    HW2 1773   0.637   0.794   2.294 -2.4975  0.1099  0.3257
  292SOL     OW 1774   4.024   0.995   1.779 -0.0689  0.0647 -0.0445
  292SOL    HW1 1775   4.012   1.095   1.778  1.2451  0.2611  0.5345
  292SOL    HW2 1776   3.993   0.957   1.693 -0.7809  0.9521 -0.2008
  293SOL     OW 1777   3.410   6.409   3.778  0.0660  0.4543  0.8188
  293SOL    HW1 1778   3.327   6.355   3.796 -0.7289  1.3089 -0.1884
  293SOL    HW2 1779   3.447   6.441   3.865 -0.1240 -0.7029  1.3531
  294SOL     OW 1780   4.998   0.590   0.291 -0.1243  0.1583  0.3877
  294SOL    HW1 1781   5.092   0.622   0.291 -0.5596  1.5927 -1.1532
  294SOL    HW2 1782   4.961   0.595   0.198 -1.2552 -1.8591  0.6722
  295SOL     OW 1783   5.233   0.055   3.619 -0.3083  0.4200  0.2444
  295SOL    HW1 1784   5.248   0.132   3.682  0.5272 -0.0770  0.6827
  295SOL    HW2 1785   5.138   0.025   3.625 -0.8103  1.7968 -0.3853
  296SOL     OW 1786   2.771   1.838   2.752 -0.0036  0.1500 -0.0380
  296SOL    HW1 1787   2.862   1.861   2.785  0.1806 -0.3274 -0.1985
  296SOL    HW2 1788   2.775   1.819   2.654 -0.2670  0.0818 -0.0366
  297SOL     OW 1789   1.589   3.443   2.561 -0.2885  0.9577 -0.0193
  297SOL    HW1 1790   1.567   3.399   2.648  0.7184 -1.7648 -1.0526
  297SOL    HW2 1791   1.683   3.477   2.564 -0.5154  1.5790  0.2054
  298SOL     OW 1792   6.364   4.632   6.001 -0.0833  0.0143 -0.1496
  298SOL    HW1 1793   6.374   4.550   5.945 -1.1617 -0.8524  0.8662
  298SOL    HW2 1794   6.331   4.708   5.945  1.2088 -0.1419 -1.1663
  299SOL     OW 1795   5.148   2.515   3.619 -0.1601  0.2412 -0.5579
  299SOL    HW1 1796   5.049   2.503   3.620 -0.0396 -0.7964 -0.1432
  299SOL    HW2 1797   5.183   2.494   3.527 -0.0320 -2.1470 -0.0180
  300SOL     OW 1798   6.256   0.925   1.146 -0.6193 -0.1631  0.0571
  300SOL    HW1 1799   6.337   0.888   1.192 -0.8141 -0.8327 -0.1270
  300SOL    HW2 1800   6.215   0.854   1.088 -1.2117  0.2352 -0.0218
  301SOL     OW 1801   4.555   4.731   5.046  0.1639 -0.5531 -0.2160
  301SOL    HW1 1802   4.486   4.662   5.028  1.0756 -1.1626 -1.6022
  301SOL    HW2 1803   4.633   4.717   4.985  1.1749  0.5900  0.7460
  302SOL     OW 1804   0.248   4.323   6.734 -0.2154 -0.0520  0.0514
  302SOL    HW1 1805   0.193   4.370   6.665  0.5289 -0.0505 -0.5599
  302SOL    HW2 1806   0.311   4.388   6.776  0.3215 -0.3433 -0.2891
  303SOL     OW 1807   5.706   6.783   4.160 -0.4261  0.4876  0.1300
  303SOL    HW1 1808   5.792   6.732   4.168 -1.1038 -0.5989  0.7983
  303SOL    HW2 1809   5.673   6.805   4.252 -0.3375  1.8579 -0.1364
  304SOL     OW 1810   4.359   0.825   3.351 -0.3006 -0.0213  0.0743
  304SOL    HW1 1811   4.442   0.786   3.310  0.1415  0.8059  0.1469
  304SOL    HW2 1812   4.282   0.812   3.289 -0.7073 -3.0589  1.0886
  305SOL     OW 1813   3.165   2.583   6.361  0.2451 -0.3996 -0.3614
  305SOL    HW1 1814   3.142   2.621   6.272 -0.5236 -0.6706 -0.2874
  305SOL    HW2 1815   3.101   2.510   6.384 -0.2029  0.3442  0.8716
  306SOL     OW 1816   2.759   0.357   0.991  0.7264  0.1333  0.6411
  306SOL    HW1 1817   2.681   0.296   1.010  0.1062  1.2314  1.7620
  306SOL    HW2 1818   2.843   0.315   1.026  0.2529  0.0658  1.7270
  307SOL     OW 1819   4.351   6.552   0.786  0.8372  0.0580  0.3518
  307SOL    HW1 1820   4.264   6.556   0.836  0.2848  0.3819 -0.5940
  307SOL    HW2 1821   4.332   6.550   0.687  1.9247  2.2359  0.0362
  308SOL     OW 1822   0.634   5.599   3.951  0.1224  0.1635  0.3158
  308SOL    HW1 1823   0.611   5.695   3.939  0.6091  0.0753 -1.6677
  308SOL    HW2 1824   0.640   5.554   3.862  3.9083 -0.7490  0.8603
  309SOL     OW 1825   2.737   4.974   4.433  0.1693 -0.0800  0.4919
  309SOL    HW1 1826   2.805   5.033   4.390 -1.3111  0.1604 -1.7005
  309SOL    HW2 1827   2.768   4.879   4.429 -0.0270 -0.1053 -1.4605
  310SOL     OW 1828   0.663   4.466   5.759 -0.5756 -0.0621 -0.4746
  310SOL    HW1 1829   0.730   4.475   5.833 -1.0308 -0.2203 -0.0388
  310SOL    HW2 1830   0.669   4.546   5.699 -2.4359  1.7558  1.5974
  311SOL     OW 1831   5.572   3.183   1.955 -0.3789  0.0765 -1.1968
  311SOL    HW1 1832   5.535   3.165   1.864  1.5018 -1.6091 -1.7143
  311SOL    HW2 1833   5.522   3.129   2.023 -1.3738  0.8438 -1.3143
  312SOL     OW 1834   4.334   1.416   6.078 -0.1583  0.1485  0.0306
  312SOL    HW1 1835   4.321   1.504   6.032 -0.0938  0.7029  1.0473
  312SOL    HW2 1836   4.420   1.417   6.130 -1.0341  0.1767  1.5411
  313SOL     OW 1837   0.513   5.420   2.081  0.3730  0.5889 -0.0544
  313SOL    HW1 1838   0.500   5.519   2.087  0.9774  0.6467  0.4476
  313SOL    HW2 1839   0.611   5.398   2.086  0.2243 -0.0511  0.2684
  314SOL     OW 1840   3.000   5.835   2.149  0.6915  0.1929  0.6950
  314SOL    HW1 1841   2.999   5.837   2.049 -0.2744 -1.5945  0.6294
  314SOL    HW2 1842   2.908   5.816   2.183  0.7190  2.1177  2.0162
  315SOL     OW 1843   0.832   5.256   2.531 -0.2807 -0.0403 -0.2423
  315SOL    HW1 1844   0.767   5.180   2.538  1.5113 -1.6966 -0.8629
  315SOL    HW2 1845   0.836   5.288   2.436  0.2082 -0.3227 -0.3198
  316SOL     OW 1846   3.451   1.624   2.504 -0.7667  0.2841 -0.4936
  316SOL    HW1 1847   3.445   1.552   2.434  0.8479 -0.4047  0.0383
  316SOL    HW2 1848   3.525   1.602   2.568 -1.4417  1.5112  0.7459
  317SOL     OW 1849   4.643   1.149   0.845  0.1090  0.6144 -0.0644
  317SOL    HW1 1850   4.569   1.151   0.912  0.7764  2.1814  0.6669
  317SOL    HW2 1851   4.729   1.128   0.891 -0.0580 -3.7302 -1.2155
  318SOL     OW 1852   3.144   4.671   0.374  0.0493  0.0169 -0.3913
  318SOL    HW1 1853   3.086   4.606   0.325  1.8206 -1.7936 -0.2017
  318SOL    HW2 1854   3.194   4.728   0.308  0.1762 -0.3481 -0.6094
  319SOL     OW 1855   6.307   1.286   5.533  0.0605  0.5477  0.3240
  319SOL    HW1 1856   6.250   1.204   5.539 -0.4328  0.9264  1.0471
  319SOL    HW2 1857   6.315   1.315   5.438 -0.9260  0.4575  0.2014
  320SOL     OW 1858   5.481   3.021   3.526  0.1810  0.2926 -0.8578
  320SOL    HW1 1859   5.511   2.926   3.519  0.9286  0.6011 -2.2431
  320SOL    HW2 1860   5.382   3.026   3.514 -0.0641 -0.4269  0.6387
  321SOL     OW 1861   1.227   2.120   2.851  0.5653  0.0794 -0.2757
  321SOL    HW1 1862   1.261   2.037   2.806  1.8870  0.6514 -0.3866
  321SOL    HW2 1863   1.145   2.098   2.904  1.9427 -1.7625  1.2503
  322SOL     OW 1864   5.803   3.953   4.654  1.0701 -0.0093 -0.2260
  322SOL    HW1 1865   5.895   3.982   4.627  1.0967 -0.5621 -0.7376
  322SOL    HW2 1866   5.791   3.967   4.753  1.5977  0.3398 -0.2107
  323SOL     OW 1867   1.497   5.245   4.142  0.1171  0.2580  0.2024
  323SOL    HW1 1868   1.569   5.244   4.073  1.3056 -0.4665  1.3983
  323SOL    HW2 1869   1.515   5.318   4.208  0.1979 -0.4209  0.9459
  324SOL     OW 1870   0.730   2.933   2.617  0.6993 -0.2524  0.6445
  324SOL    HW1 1871   0.817   2.929   2.666  0.0811 -0.9884  1.7064
  324SOL    HW2 1872   0.656   2.902   2.677 -0.1662 -0.5529 -0.5406
  325SOL     OW 1873   1.902   6.312   4.069  0.2472  0.4033  0.3166
  325SOL    HW1 1874   1.979   6.376   4.066 -0.6289  1.4750 -1.5353
  325SOL    HW2 1875   1.883   6.279   3.976 -1.1780 -0.2390  0.8063
  326SOL     OW 1876   2.439   4.437   5.219  0.3563 -0.1801 -0.4778
  326SOL    HW1 1877   2.361   4.490   5.253 -0.5636 -2.0669  0.5811
  326SOL    HW2 1878   2.524   4.473   5.258 -0.3582 -0.2119  1.2302
  327SOL     OW 1879   6.401   2.978   6.825  0.7976  0.2960 -0.3891
  327SOL    HW1 1880   6.455   3.048   6.871 -0.1694  0.8361 -0.0461
  327SOL    HW2 1881   6.388   2.899   6.886  0.3713  0.5865 -0.0952
  328SOL     OW 1882   3.342   6.388   3.027 -0.7049  0.8069  0.3189
  328SOL    HW1 1883   3.282   6.381   2.948  0.6913 -0.2658 -0.6890
  328SOL    HW2 1884   3.437   6.394   2.997  0.6633 -6.0298  1.6206
  329SOL     OW 1885   4.181   3.440   1.341 -0.3166 -0.3727  1.1192
  329SOL    HW1 1886   4.126   3.512   1.384  0.4398 -0.2650  1.9139
  329SOL    HW2 1887   4.174   3.356   1.395 -0.1017 -0.5029  0.9440
  330SOL     OW 1888   5.158   3.000   1.447  0.6660 -0.0659  0.6906
  330SOL    HW1 1889   5.128   2.954   1.530  1.2389 -0.3544  0.7472
  330SOL    HW2 1890   5.150   2.938   1.369  1.4683 -0.2909  0.7716
  331SOL     OW 1891   4.976   4.693   6.857  0.4500  0.5431 -1.0487
  331SOL    HW1 1892   4.981   4.789   6.831 -0.4846  0.3524 -1.9793
  331SOL    HW2 1893   4.923   4.684   6.941  0.9505  0.8809 -0.6926
  332SOL     OW 1894   5.009   1.481   3.008 -0.4051 -0.7527  0.0357
  332SOL    HW1 1895   5.081   1.443   3.066  0.8429  1.1601 -0.1784
  332SOL    HW2 1896   4.967   1.407   2.955 -0.3488 -2.2818  2.0022
  333SOL     OW 1897   2.811   4.436   1.039 -0.2136  0.3828 -0.1835
  333SOL    HW1 1898   2.806   4.342   1.003 -0.4431 -0.0682  0.9706
  333SOL    HW2 1899   2.903   4.472   1.026 -0.6151  0.7614 -2.4230
  334SOL     OW 1900   6.196   0.349   0.990  0.6083  0.2503  0.2121
  334SOL    HW1 1901   6.177   0.271   0.931 -0.0435 -0.1042  0.8839
  334SOL    HW2 1902   6.232   0.316   1.078 -0.7142  0.6337  0.9132
  335SOL     OW 1903   3.584   7.017   2.451  0.7996 -0.2478  0.7416
  335SOL    HW1 1904   3.632   6.955   2.513 -0.4722 -0.3053  1.7221
  335SOL    HW2 1905   3.486   6.994   2.451  0.7115 -0.0599 -1.0846
  336SOL     OW 1906   4.247   0.804   5.460 -0.0178  1.1433 -0.0372
  336SOL    HW1 1907   4.272   0.886   5.512  0.8228  1.4927 -0.9755
  336SOL    HW2 1908   4.291   0.806   5.370 -0.1208 -0.2552 -0.1447
  337SOL     OW 1909   1.193   4.030   0.895 -0.0236  0.5086  0.4286
  337SOL    HW1 1910   1.167   4.052   0.800  1.6157  1.1017  0.0801
  337SOL    HW2 1911   1.111   4.020   0.950 -1.0016  0.9320 -0.8893
  338SOL     OW 1912   3.076   1.662   6.936 -0.2243  0.0959  0.2744
  338SOL    HW1 1913   2.978   1.652   6.952 -0.3567  0.2697 -0.3938
  338SOL    HW2 1914   3.119   1.702   7.017 -0.5517 -0.8117  0.9088
  339SOL     OW 1915   3.462   1.442   2.959  0.3143 -0.6406  0.1220
  339SOL    HW1 1916   3.483   1.394   3.044  0.3273  0.2724  0.6497
  339SOL    HW2 1917   3.418   1.529   2.980  1.6240  0.2741 -0.7389
  340SOL     OW 1918   4.685   3.831   6.490 -0.6630  0.4102  0.2148
  340SOL    HW1 1919   4.758   3.799   6.551  0.6332 -0.4539 -1.7135
  340SOL    HW2 1920   4.596   3.803   6.527  0.0651 -0.0022  1.7329
  341SOL     OW 1921   1.674   4.728   3.406  0.4748 -0.4389  0.0571
  341SOL    HW1 1922   1.661   4.725   3.307 -0.6126 -1.3380  0.2122
  341SOL    HW2 1923   1.674   4.635   3.443 -1.3285 -0.0734  1.1397
  342SOL     OW 1924   5.897   5.441   6.353  0.2793  0.2915 -0.2669
  342SOL    HW1 1925   5.958   5.385   6.297  0.0227  0.1439 -0.4058
  342SOL    HW2 1926   5.886   5.531   6.310  0.0935  0.1831 -0.4528
  343SOL     OW 1927   2.626   6.374   2.837  0.3032 -0.2119 -0.3977
  343SOL    HW1 1928   2.550   6.390   2.775  0.2075  1.6264  0.1289
  343SOL    HW2 1929   2.708   6.422   2.804  0.4494  0.1702  0.4734
  344SOL     OW 1930   3.631   6.299   1.426  0.8301  0.5298 -0.1520
  344SOL    HW1 1931   3.536   6.329   1.419  0.2343 -0.5559  2.2687
  344SOL    HW2 1932   3.690   6.379   1.442  0.0733  1.0068  0.3099
  345SOL     OW 1933   1.872   0.615   3.734  0.4152 -0.4110 -0.1584
  345SOL    HW1 1934   1.939   0.622   3.807 -0.5077  0.2544  0.6457
  345SOL    HW2 1935   1.790   0.666   3.758 -0.9942 -2.4034 -0.4555
  346SOL     OW 1936   2.540   0.187   6.398 -0.1342 -0.5162  0.0988
  346SOL    HW1 1937   2.621   0.187   6.457 -1.2624 -1.5062  1.6839
  346SOL    HW2 1938   2.521   0.094   6.367 -0.5122 -0.2385 -0.5212
  347SOL     OW 1939   5.050   4.918   5.611 -0.3396  0.0161 -0.0858
  347SOL    HW1 1940   5.127   4.913   5.675 -0.3839  0.1261 -0.0234
  347SOL    HW2 1941   4.964   4.918   5.663 -0.4192 -1.0781 -0.1826
  348SOL     OW 1942   4.160   6.610   2.373  0.0431  0.0380  0.1584
  348SOL    HW1 1943   4.103   6.692   2.359 -0.4931 -0.3563 -0.0089
  348SOL    HW2 1944   4.108   6.543   2.425 -0.3899 -1.1169 -1.6702
  349SOL     OW 1945   1.896   5.176   3.296 -0.1552  0.2711  0.0983
  349SOL    HW1 1946   1.945   5.173   3.383 -1.8796  0.3772  1.0971
  349SOL    HW2 1947   1.840   5.094   3.285 -0.7736  0.7465 -0.4142
  350SOL     OW 1948   0.508   4.211   2.624  0.3841 -0.4264  0.0135
  350SOL    HW1 1949   0.563   4.128   2.632  2.7335  0.8519 -1.5392
  350SOL    HW2 1950   0.412   4.186   2.610  0.6865 -2.7904  1.5012
  351SOL     OW 1951   3.395   2.646   6.469 -0.6676 -0.1054  0.4071
  351SOL    HW1 1952   3.417   2.575   6.535  0.1989 -0.5698 -0.3468
  351SOL    HW2 1953   3.298   2.642   6.446 -0.6472 -0.9922  0.4401
  352SOL     OW 1954   3.684   0.681   6.466  0.2676 -0.2031  0.0483
  352SOL    HW1 1955   3.775   0.641   6.481  0.0128 -0.9950 -0.4540
  352SOL    HW2 1956   3.623   0.612   6.427 -0.4393  0.4390 -0.0137
  353SOL     OW 1957   3.368   6.378   1.395  0.3944 -0.2699 -0.1306
  353SOL    HW1 1958   3.381   6.451   1.328 -0.1789 -0.2320 -0.1984
  353SOL    HW2 1959   3.274   6.346   1.392  0.6971 -1.1898 -0.2836
  354SOL     OW 1960   6.169   0.917   1.511  0.0018  0.6730 -0.9527
  354SOL    HW1 1961   6.117   0.941   1.593  0.2550  0.5816 -0.7647
  354SOL    HW2 1962   6.174   0.996   1.450 -0.4080  0.6674 -1.0018
  355SOL     OW 1963   0.558   1.607   3.700  0.1973 -0.5108 -0.1621
  355SOL    HW1 1964   0.533   1.512   3.681  0.5092 -0.4427 -0.9430
  355SOL    HW2 1965   0.632   1.635   3.639  0.5284  0.0444  0.4848
  356SOL     OW 1966   2.833   6.840   2.405 -0.0660 -0.2126  0.0804
  356SOL    HW1 1967   2.866   6.932   2.382  0.5522  0.0742  1.9451
  356SOL    HW2 1968   2.845   6.780   2.327  0.9705  0.9191 -0.6730
  357SOL     OW 1969   1.795   1.553   4.130  0.1091 -0.5401  0.0083
  357SOL    HW1 1970   1.878   1.604   4.150  0.6872 -1.2615 -0.5003
  357SOL    HW2 1971   1.811   1.456   4.147 -0.2049 -0.8553 -1.3835
  358SOL     OW 1972   4.533   0.099   2.133  0.3077  0.1004 -0.4940
  358SOL    HW1 1973   4.435   0.103   2.152 -0.0727  3.8866 -2.3989
  358SOL    HW2 1974   4.584   0.112   2.219 -1.0632  3.4459 -0.0398
  359SOL     OW 1975   0.716   2.106   0.509  0.1323 -0.8687 -0.0936
  359SOL    HW1 1976   0.796   2.084   0.564 -0.2278 -0.9347  0.4091
  359SOL    HW2 1977   0.636   2.057   0.544 -0.3030 -0.1592 -0.0728
  360SOL     OW 1978   5.462   5.896   5.338  0.0309  0.1999 -0.0707
  360SOL    HW1 1979   5.551   5.942   5.340 -1.4350  3.2933  0.6724
  360SOL    HW2 1980   5.405   5.931   5.412 -1.8701 -1.6487 -0.5747
  361SOL     OW 1981   2.192   6.896   3.558  0.3884  0.3774 -0.9805
  361SOL    HW1 1982   2.189   6.978   3.501 -0.2165  0.3045 -1.0607
  361SOL    HW2 1983   2.263   6.834   3.524  1.3380  1.1659 -0.4934
  362SOL     OW 1984   1.650   4.255   0.721 -0.5307  0.2386 -0.0077
  362SOL    HW1 1985   1.588   4.208   0.784  0.4662 -0.1993  0.6722
  362SOL    HW2 1986   1.651   4.353   0.741  0.1827  0.0362  1.0486
  363SOL     OW 1987   4.735   5.064   4.453  0.1080  0.2767 -0.7726
  363SOL    HW1 1988   4.781   5.150   4.475  2.4491 -0.5671 -2.0111
  363SOL    HW2 1989   4.654   5.054   4.511  0.9351  2.3036  0.8741
  364SOL     OW 1990   3.518   5.510   0.282 -0.5414  0.1998  0.2936
  364SOL    HW1 1991   3.483   5.419   0.301  2.8320 -1.3740 -0.3647
  364SOL    HW2 1992   3.488   5.538   0.190  0.0420 -1.1742 -0.3476
  365SOL     OW 1993   4.421   5.142   2.409  0.6338  0.3080 -0.4813
  365SOL    HW1 1994   4.473   5.170   2.490 -1.7429  4.0843 -0.0039
  365SOL    HW2 1995   4.336   5.098   2.438  1.5380 -1.9498 -1.1189
  366SOL     OW 1996   4.621   1.345   1.440  0.0130 -0.3267 -0.1115
  366SOL    HW1 1997   4.603   1.443   1.435  0.1228 -0.2956  0.0867
  366SOL    HW2 1998   4.563   1.304   1.510 -0.6209 -0.5457 -0.7514
  367SOL     OW 1999   5.719   3.417   2.061 -0.1993  1.1594  0.2915
  367SOL    HW1 2000   5.669   3.437   2.145  0.3664  0.4571  0.7966
  367SOL    HW2 2001   5.675   3.340   2.014  0.8251  0.0732  1.1006
  368SOL     OW 2002   6.803   4.679   4.649  0.3281  0.5681 -0.0263
  368SOL    HW1 2003   6.722   4.736   4.633 -0.0652 -0.4149 -1.8041
  368SOL    HW2 2004   6.790   4.626   4.733 -1.2949 -0.2371 -0.7362
  369SOL     OW 2005   0.898   3.167   0.994 -0.5192 -0.2940  0.7666
  369SOL    HW1 2006   0.971   3.101   1.011 -0.0053 -0.3170 -1.2232
  369SOL    HW2 2007   0.909   3.246   1.055  0.8103 -0.5693  0.9201
  370SOL     OW 2008   3.870   2.376   0.288 -0.7711  0.0956  0.7575
  370SOL    HW1 2009   3.820   2.362   0.203 -2.0361 -0.7115  1.5950
  370SOL    HW2 2010   3.896   2.472   0.296 -1.2310  0.3132 -0.2214
  371SOL     OW 2011   3.512   2.366   6.889  0.4632  0.1535 -0.7887
  371SOL    HW1 2012   3.436   2.382   6.826  0.6948  0.9087 -0.8871
  371SOL    HW2 2013   3.499   2.419   6.973 -1.3361 -3.0589  1.1462
  372SOL     OW 2014   2.991   3.829   0.916  0.2072  0.6048 -0.2140
  372SOL    HW1 2015   3.020   3.734   0.903  1.5350  1.2818 -2.9794
  372SOL    HW2 2016   3.069   3.890   0.904 -0.6473  2.1158  1.3562
  373SOL     OW 2017   5.079   0.077   7.001  0.2783 -0.4656 -0.2164
  373SOL    HW1 2018   5.024   0.107   6.923  0.8486  1.3593  0.0453
  373SOL    HW2 2019   5.133   0.153   7.036 -0.7067 -0.9201  2.6115
  374SOL     OW 2020   6.295   6.371   6.463 -0.1545  0.5662  0.0242
  374SOL    HW1 2021   6.265   6.404   6.552 -0.8895 -0.0151  0.0020
  374SOL    HW2 2022   6.317   6.449   6.404  0.1563  0.9542  0.6480
  375SOL     OW 2023   6.293   2.643   3.055 -0.3867 -0.0233 -0.1622
  375SOL    HW1 2024   6.338   2.686   3.133 -0.4217 -0.0283 -0.1389
  375SOL    HW2 2025   6.214   2.590   3.087 -0.3521 -0.0934 -0.1923
  376SOL     OW 2026   1.811   3.805   5.600  0.8223 -0.1772  0.3514
  376SOL    HW1 2027   1.726   3.858   5.599  0.0256 -1.3762  1.3348
  376SOL    HW2 2028   1.840   3.792   5.695  2.4207  0.6623  0.0131
  377SOL     OW 2029   4.496   2.341   4.817 -0.4320  0.5861  0.4445
  377SOL    HW1 2030   4.523   2.272   4.749  0.2159  1.4639 -0.2098
  377SOL    HW2 2031   4.519   2.432   4.783 -0.6992  1.0920  1.5732
  378SOL     OW 2032   6.065   6.815   5.632  0.5411 -0.3720 -0.8470
  378SOL    HW1 2033   6.162   6.839   5.629  0.4796  0.0159 -0.0403
  378SOL    HW2 2034   6.022   6.863   5.709  0.1947 -2.2683  0.2056
  379SOL     OW 2035   5.505   1.232   0.315 -0.7005 -0.3573  0.0813
  379SOL    HW1 2036   5.599   1.200   0.306 -0.9636 -1.4000  0.7863
  379SOL    HW2 2037   5.497   1.325   0.280  0.7699  0.0556  0.7803
  380SOL     OW 2038   6.340   2.435   6.325  0.2886  0.1156 -0.3583
  380SOL    HW1 2039   6.426   2.403   6.287  1.3475  1.6654  0.6077
  380SOL    HW2 2040   6.321   2.527   6.292  0.5268  0.9518  1.6555
  381SOL     OW 2041   4.511   2.770   0.220 -0.1126 -0.6364 -0.4917
  381SOL    HW1 2042   4.459   2.690   0.249 -0.3804  0.3057  1.8450
  381SOL    HW2 2043   4.452   2.851   0.223  1.3489  0.4613  2.2380
  382SOL     OW 2044   1.967   5.863   6.845 -0.5461  0.0446  0.2503
  382SOL    HW1 2045   2.060   5.829   6.835 -1.1518 -1.7592  0.3470
  382SOL    HW2 2046   1.968   5.963   6.854  1.2306  0.1968 -1.2632
  383SOL     OW 2047   4.836   1.087   6.690 -0.2225  0.1610 -0.3825
  383SOL    HW1 2048   4.883   1.046   6.611 -0.0425 -4.7833  1.8978
  383SOL    HW2 2049   4.904   1.113   6.758 -0.4713 -0.8635  0.2869
  384SOL     OW 2050   2.256   4.144   3.865 -0.6715  0.0733  0.7840
  384SOL    HW1 2051   2.184   4.097   3.814 -1.5347  0.9725  1.1399
  384SOL    HW2 2052   2.312   4.197   3.801 -0.8769  0.0830  0.6095
  385SOL     OW 2053   6.770   4.278   1.249 -0.2912 -0.2913  0.4089
  385SOL    HW1 2054   6.714   4.299   1.329 -2.8059 -0.2211 -1.2399
  385SOL    HW2 2055   6.745   4.340   1.174  0.5779 -1.5877 -1.0108
  386SOL     OW 2056   2.624   4.340   6.320 -0.5125  0.3831 -0.1132
  386SOL    HW1 2057   2.660   4.278   6.250 -0.5502  0.4446 -0.1890
  386SOL    HW2 2058   2.630   4.297   6.410 -0.2229  0.4065 -0.1221
  387SOL     OW 2059   1.439   5.602   3.419  0.0601  0.4133  0.3566
  387SOL    HW1 2060   1.361   5.642   3.371 -0.2014  1.9543  1.9632
  387SOL    HW2 2061   1.514   5.588   3.355 -1.1659 -0.1544 -1.0134
  388SOL     OW 2062   1.765   1.844   5.938  0.2290 -0.4759  0.1488
  388SOL    HW1 2063   1.766   1.799   6.028  3.1373 -2.8158 -0.8745
  388SOL    HW2 2064   1.695   1.802   5.881 -0.5715 -0.0616  0.8015
  389SOL     OW 2065   5.223   5.973   3.661  0.7731  0.5933  0.2078
  389SOL    HW1 2066   5.312   5.940   3.630  1.1194  0.3041  1.4530
  389SOL    HW2 2067   5.180   6.028   3.589  1.7214  0.2945 -0.5964
  390SOL     OW 2068   1.840   0.402   5.536  0.6469 -0.2776 -0.2205
  390SOL    HW1 2069   1.821   0.489   5.581  1.0539 -0.2372 -0.1179
  390SOL    HW2 2070   1.784   0.393   5.454  0.8396  0.2265 -0.4119
  391SOL     OW 2071   3.287   3.488   2.857  0.0240  0.8191 -0.1890
  391SOL    HW1 2072   3.259   3.464   2.950 -0.2709  0.2139 -0.4308
  391SOL    HW2 2073   3.252   3.420   2.792  0.7492  0.8931 -0.6777
  392SOL     OW 2074   1.796   3.518   0.018 -0.6996  0.3966  0.4723
  392SOL    HW1 2075   1.856   3.598   0.023  0.9690 -0.8011  0.4206
  392SOL    HW2 2076   1.787   3.489  -0.077 -1.8248  0.8722  0.4155
  393SOL     OW 2077   1.922   4.431   1.115  0.2251 -0.2474  0.0520
  393SOL    HW1 2078   1.922   4.350   1.173 -0.8538 -1.8890 -2.1010
  393SOL    HW2 2079   1.827   4.457   1.094  0.5676 -0.3747 -1.7996
  394SOL     OW 2080   4.522   4.103   0.102 -0.2066 -0.5013 -0.1572
  394SOL    HW1 2081   4.464   4.180   0.077  0.2542 -0.1619 -0.1850
  394SOL    HW2 2082   4.483   4.056   0.182  0.1840  0.5373  0.6684
  395SOL     OW 2083   5.760   6.495   6.121  0.0023 -0.2297 -0.0953
  395SOL    HW1 2084   5.741   6.408   6.167 -1.4413  0.5465  0.8568
  395SOL    HW2 2085   5.681   6.521   6.065  0.0499  0.9086  0.3487
  396SOL     OW 2086   0.528   6.294   2.324 -0.1596 -1.1750  0.1604
  396SOL    HW1 2087   0.460   6.367   2.330 -0.8107 -1.7236 -0.3998
  396SOL    HW2 2088   0.553   6.279   2.228  0.5509 -1.1708  0.3361
  397SOL     OW 2089   5.734   1.295   4.923 -0.3864  0.1505 -0.0035
  397SOL    HW1 2090   5.704   1.383   4.960  1.8434  0.9340  0.0916
  397SOL    HW2 2091   5.800   1.310   4.850  0.9034 -1.4225  0.7725
  398SOL     OW 2092   6.940   2.288   5.430 -0.3942  0.5091  0.2491
  398SOL    HW1 2093   6.879   2.350   5.480 -1.8764 -0.8927  0.2518
  398SOL    HW2 2094   7.032   2.328   5.427 -0.8907  1.8909  1.7284
  399SOL     OW 2095   6.063   5.482   4.915 -0.1492  0.1409 -0.2195
  399SOL    HW1 2096   6.106   5.557   4.966 -0.2222 -0.0659  0.1485
  399SOL    HW2 2097   6.105   5.395   4.943 -0.5255 -0.0222 -0.1533
  400SOL     OW 2098   0.307   4.961   2.839  0.1618 -0.5586  0.0843
  400SOL    HW1 2099   0.291   4.985   2.743  1.0868  1.4586  0.3875
  400SOL    HW2 2100   0.406   4.956   2.855  0.0064 -1.4096  0.8250
  401SOL     OW 2101   0.858   5.975   5.167  0.0808  0.0533 -0.2238
  401SOL    HW1 2102   0.947   5.938   5.139  1.4676  1.6957  1.7358
  401SOL    HW2 2103   0.859   6.075   5.155 -0.9282  0.2618  1.2102
  402SOL     OW 2104   6.836   6.974   5.465 -0.8164  0.2961  0.4385
  402SOL    HW1 2105   6.890   6.942   5.543 -0.5574  0.3752  0.2906
  402SOL    HW2 2106   6.895   6.984   5.385 -0.6151  2.3892  0.8003
  403SOL     OW 2107   1.702   6.955   0.215  0.2195  0.1014  0.2064
  403SOL    HW1 2108   1.799   6.979   0.213  0.2172  0.0728 -0.6942
  403SOL    HW2 2109   1.647   7.037   0.228  0.2693  0.4412 -1.5686
  404SOL     OW 2110   3.045   5.365   4.294  0.5306 -0.2763  0.5377
  404SOL    HW1 2111   3.017   5.460   4.306  0.3633 -0.0288 -1.4965
  404SOL    HW2 2112   3.128   5.348   4.347  0.3806  0.9090  1.1797
  405SOL     OW 2113   3.194   5.906   3.862  0.4528  0.4228 -0.0787
  405SOL    HW1 2114   3.133   5.838   3.823  0.3312  0.9448 -0.8209
  405SOL    HW2 2115   3.284   5.865   3.878  0.0770 -0.1984  0.5103
  406SOL     OW 2116   0.300   0.297   2.302 -0.4601 -0.1836 -0.5313
  406SOL    HW1 2117   0.273   0.366   2.369 -2.2136 -2.2152  1.0071
  406SOL    HW2 2118   0.377   0.244   2.338 -2.3339 -2.2410  0.6988
  407SOL     OW 2119   0.149   6.459   3.754  0.8730 -0.2410  0.0660
  407SOL    HW1 2120   0.080   6.391   3.777  0.1060  0.3725 -0.3699
  407SOL    HW2 2121   0.107   6.532   3.699  1.9003  0.0573 -0.3487
  408SOL     OW 2122   1.711   1.138   1.941 -0.1508 -0.0591  0.0321
  408SOL    HW1 2123   1.738   1.080   2.018  1.2735 -0.8859 -1.0455
  408SOL    HW2 2124   1.671   1.223   1.976  0.5600 -0.3666  1.6782
  409SOL     OW 2125   1.562   2.020   3.117  1.0859  0.1330 -0.2234
  409SOL    HW1 2126   1.642   1.988   3.168  2.0510 -0.4534 -2.0055
  409SOL    HW2 2127   1.479   1.978   3.155  1.5513  0.8713  1.7538
  410SOL     OW 2128   2.026   3.512   2.172 -0.4131  0.5163 -0.4626
  410SOL    HW1 2129   2.064   3.557   2.091  1.4635 -0.9715 -0.4722
  410SOL    HW2 2130   2.074   3.544   2.254  0.4728 -0.8647 -0.3994
  411SOL     OW 2131   6.207   1.128   1.335  0.6840  0.1084  0.1373
  411SOL    HW1 2132   6.239   1.065   1.265 -0.6888 -0.4979  0.0090
  411SOL    HW2 2133   6.249   1.217   1.322  0.3367  0.0526 -1.5602
  412SOL     OW 2134   1.235   2.645   2.029  0.3476  0.3765 -0.5620
  412SOL    HW1 2135   1.326   2.607   2.047  0.4254  0.9162  0.2577
  412SOL    HW2 2136   1.243   2.743   2.009  0.2877 -0.2103 -3.9560
  413SOL     OW 2137   0.684   0.845   3.547  0.0165  0.3256 -0.4618
  413SOL    HW1 2138   0.599   0.845   3.598 -0.9370  1.3567 -1.9796
  413SOL    HW2 2139   0.675   0.785   3.467 -0.0641  2.0904 -1.8196
  414SOL     OW 2140   1.998   5.444   2.597  0.7241  0.4038  0.1936
  414SOL    HW1 2141   2.098   5.437   2.597  0.8321  1.7222 -0.5313
  414SOL    HW2 2142   1.965   5.450   2.503 -0.2157 -1.8418  0.3106
  415SOL     OW 2143   6.409   2.731   1.787 -0.5012  0.5261 -0.0929
  415SOL    HW1 2144   6.502   2.738   1.752 -0.1361 -2.9786 -0.1939
  415SOL    HW2 2145   6.409   2.748   1.886  0.4080 -0.2544  0.0513
  416SOL     OW 2146   4.809   3.339   0.278  0.0378 -0.1487 -0.2546
  416SOL    HW1 2147   4.769   3.255   0.313 -0.6569  0.5891  0.8146
  416SOL    HW2 2148   4.773   3.358   0.187 -1.0155 -0.2270  0.1271
  417SOL     OW 2149   2.684   0.025   6.018  0.6570  0.6710  0.0328
  417SOL    HW1 2150   2.759  -0.001   5.958  0.5402  0.6633 -0.1112
  417SOL    HW2 2151   2.661   0.122   6.004  1.8620  1.1850  1.4017
  418SOL     OW 2152   5.525   5.624   6.037  0.2161  0.8471  0.2380
  418SOL    HW1 2153   5.469   5.655   6.114  1.6745 -0.4068  1.8713
  418SOL    HW2 2154   5.494   5.534   6.007  0.6609  0.6380  0.4079
  419SOL     OW 2155   5.684   0.599   6.996  0.4112 -0.5052  0.5965
  419SOL    HW1 2156   5.685   0.623   7.093 -0.6490  3.0657 -0.1399
  419SOL    HW2 2157   5.753   0.653   6.948 -1.2056  0.1585 -1.0729
  420SOL     OW 2158   3.344   5.140   6.934 -0.2465 -0.2380  0.1395
  420SOL    HW1 2159   3.363   5.139   7.032  1.8251 -1.0444 -0.2217
  420SOL    HW2 2160   3.305   5.052   6.906  1.1402 -0.8172 -0.0659
  421SOL     OW 2161   4.102   5.089   3.672 -0.1386  0.0718  0.2480
  421SOL    HW1 2162   4.191   5.086   3.628 -0.1467 -1.0393  0.2851
  421SOL    HW2 2163   4.073   5.184   3.682  1.3081  0.4925  0.7918
  422SOL     OW 2164   3.489   1.116   2.561  0.3834 -0.0169  0.3764
  422SOL    HW1 2165   3.428   1.062   2.503  0.7272 -0.5743  0.5290
  422SOL    HW2 2166   3.434   1.171   2.624  0.0344 -0.7505  0.7296
  423SOL     OW 2167   3.666   6.712   6.519 -0.3371  0.2226  0.6211
  423SOL    HW1 2168   3.755   6.745   6.552  0.2906 -1.1618  0.3977
  423SOL    HW2 2169   3.665   6.716   6.419  0.2326 -1.5037  0.5104
  424SOL     OW 2170   2.545   5.903   5.017  0.2170 -0.5921 -0.2388
  424SOL    HW1 2171   2.584   5.812   5.001  3.4065  0.2467  1.6852
  424SOL    HW2 2172   2.608   5.973   4.983 -0.6898  0.8981  1.0045
  425SOL     OW 2173   4.308   0.813   0.946  0.2268 -0.7566 -0.7664
  425SOL    HW1 2174   4.323   0.910   0.967 -1.1292 -0.2364 -2.0147
  425SOL    HW2 2175   4.214   0.788   0.970  0.0422 -1.2944 -1.9627
  426SOL     OW 2176   2.202   1.744   1.380 -0.2950  0.2057  0.0931
  426SOL    HW1 2177   2.121   1.783   1.336 -1.6705 -0.6991  1.7268
  426SOL    HW2 2178   2.255   1.692   1.312 -2.5268 -1.4225 -0.4961
  427SOL     OW 2179   3.420   0.839   4.473 -0.4334  0.1474 -0.0689
  427SOL    HW1 2180   3.515   0.844   4.501 -0.6162 -0.2375  0.6532
  427SOL    HW2 2181   3.410   0.875   4.381  0.2204  1.2516  0.2834
  428SOL     OW 2182   2.388   6.729   6.131 -0.4058 -0.0779 -0.3789
  428SOL    HW1 2183   2.326   6.705   6.056 -1.8576 -0.1118  0.7773
  428SOL    HW2 2184   2.334   6.757   6.211  1.1101  0.9469  0.3404
  429SOL     OW 2185   1.249   1.437   3.663 -0.1827  0.1355 -0.8420
  429SOL    HW1 2186   1.229   1.480   3.752 -1.5700 -0.5874 -0.7864
  429SOL    HW2 2187   1.311   1.496   3.611 -1.0148  1.5840 -0.2421
  430SOL     OW 2188   1.356   1.240   5.816 -0.8679 -0.2072  0.0957
  430SOL    HW1 2189   1.312   1.328   5.835  0.0103 -0.0339  1.3996
  430SOL    HW2 2190   1.285   1.171   5.803 -1.6058  0.8365 -1.9308
  431SOL     OW 2191   3.772   0.233   1.742  1.0707 -0.2935  0.0184
  431SOL    HW1 2192   3.805   0.212   1.834 -0.2438 -0.3945  0.4967
  431SOL    HW2 2193   3.835   0.196   1.674  2.4331  0.4091  0.8710
  432SOL     OW 2194   4.603   2.155   1.655 -0.0585 -0.1788  0.1695
  432SOL    HW1 2195   4.660   2.074   1.642  0.3709  0.1074  0.2529
  432SOL    HW2 2196   4.507   2.130   1.642  0.1606 -0.4430 -1.0131
  433SOL     OW 2197   3.479   1.254   6.322  0.1986  0.3538  0.1255
  433SOL    HW1 2198   3.559   1.199   6.342 -0.2552 -0.3949 -0.0757
  433SOL    HW2 2199   3.429   1.214   6.245 -0.5911  0.5713  0.5151
  434SOL     OW 2200   4.199   5.370   3.160 -0.0884 -0.0243  0.4739
  434SOL    HW1 2201   4.204   5.381   3.061 -0.9289 -1.1154  0.3022
  434SOL    HW2 2202   4.276   5.419   3.202 -0.4219  1.5192 -0.6026
  435SOL     OW 2203   3.155   2.831   1.003  0.6547 -0.1168 -0.2627
  435SOL    HW1 2204   3.206   2.862   1.083  1.0581 -1.6006  0.0871
  435SOL    HW2 2205   3.173   2.734   0.988 -0.3501 -0.1409 -1.4580
  436SOL     OW 2206   0.274   4.591   4.222 -0.6891  0.3845 -0.7733
  436SOL    HW1 2207   0.241   4.622   4.132  0.6053 -1.1935 -1.8573
  436SOL    HW2 2208   0.362   4.544   4.211 -0.3474  0.4186  1.3856
  437SOL     OW 2209   6.374   0.992   0.001 -0.3939  0.3312 -0.0297
  437SOL    HW1 2210   6.377   0.996   0.101  2.2779  2.3101 -0.0553
  437SOL    HW2 2211   6.422   1.071  -0.036 -2.7180  0.5150 -2.9551
  438SOL     OW 2212   6.156   3.875   2.313  0.1580 -0.5044 -0.5167
  438SOL    HW1 2213   6.067   3.834   2.290 -1.3762  0.8233  2.4931
  438SOL    HW2 2214   6.219   3.803   2.343 -0.5774 -1.2327 -0.6815
  439SOL     OW 2215   0.915   1.573   6.867 -0.2905  0.9113 -0.2450
  439SOL    HW1 2216   0.845   1.601   6.801  2.8634  0.2293 -4.3483
  439SOL    HW2 2217   0.924   1.473   6.865  0.0347  0.9036  1.0719
  440SOL     OW 2218   2.582   1.433   2.600  0.5080 -0.7970 -0.2291
  440SOL    HW1 2219   2.488   1.450   2.570  0.6508 -0.0260 -0.2578
  440SOL    HW2 2220   2.581   1.402   2.695  0.2424 -0.3923 -0.0962
  441SOL     OW 2221   0.637   2.886   2.373  0.4527 -0.5039 -0.3180
  441SOL    HW1 2222   0.609   2.975   2.336 -1.9865 -0.6068  1.0932
  441SOL    HW2 2223   0.695   2.901   2.453  0.2026 -0.1828 -0.1940
  442SOL     OW 2224   2.972   3.492   4.197 -0.0196 -0.2728  0.0980
  442SOL    HW1 2225   3.048   3.556   4.189  1.4488 -2.0853 -1.2951
  442SOL    HW2 2226   2.974   3.428   4.120 -2.3175 -1.0774  0.6268
  443SOL     OW 2227   5.362   2.281   2.169 -0.3808  0.0791  0.3272
  443SOL    HW1 2228   5.423   2.251   2.242 -1.4717  1.7118  2.0063
  443SOL    HW2 2229   5.268   2.255   2.192 -0.6749  0.0312 -0.8616
  444SOL     OW 2230   4.155   2.569   6.126  0.3255 -0.1127  0.4672
  444SOL    HW1 2231   4.064   2.560   6.087  0.7875  0.8104 -0.9078
  444SOL    HW2 2232   4.163   2.511   6.207 -1.2594 -0.6946  0.2336
  445SOL     OW 2233   2.387   4.866   3.927  0.0747  0.1483 -0.2680
  445SOL    HW1 2234   2.407   4.772   3.953 -2.4284 -0.5377 -0.5057
  445SOL    HW2 2235   2.395   4.926   4.007  1.4846 -0.2750 -0.0761
  446SOL     OW 2236   6.380   1.796   0.877  0.0566  0.4314  0.2706
  446SOL    HW1 2237   6.388   1.820   0.780  0.8153  0.0065  0.2257
  446SOL    HW2 2238   6.325   1.712   0.886 -0.4219  0.7384  0.2478
  447SOL     OW 2239   1.070   2.681   1.439  0.4325 -0.3966  0.3214
  447SOL    HW1 2240   1.075   2.715   1.533 -1.9669 -0.0158  0.3604
  447SOL    HW2 2241   1.104   2.751   1.376  0.8717 -0.1694  0.8090
  448SOL     OW 2242   2.911   0.114   4.326  0.6693  0.0396 -0.6701
  448SOL    HW1 2243   2.935   0.028   4.280  0.7129  0.0229 -0.6159
  448SOL    HW2 2244   2.963   0.122   4.411  1.5938  0.6971 -1.2839
  449SOL     OW 2245   0.729   3.588   4.130  0.1235  0.2048 -0.1136
  449SOL    HW1 2246   0.793   3.568   4.055  1.8635  0.7645  1.1666
  449SOL    HW2 2247   0.674   3.668   4.106 -0.4515 -0.5335 -1.4102
  450SOL     OW 2248   0.996   3.932   4.026  0.3216 -0.1057 -0.0645
  450SOL    HW1 2249   1.003   3.993   4.105 -1.4243 -0.2131  0.2042
  450SOL    HW2 2250   1.031   3.841   4.051  3.5466  0.8366 -0.6582
  451SOL     OW 2251   3.093   5.980   6.614 -0.5001  0.0703  0.5097
  451SOL    HW1 2252   3.117   6.077   6.614 -2.7267  0.7070 -1.5067
  451SOL    HW2 2253   3.176   5.926   6.601  0.5626  1.8296 -0.5169
  452SOL     OW 2254   3.727   7.019   0.434 -0.4873  0.0748  0.2593
  452SOL    HW1 2255   3.769   7.057   0.516  0.5966  1.7908 -1.0242
  452SOL    HW2 2256   3.640   6.976   0.458  1.4665 -2.9564  2.9288
  453SOL     OW 2257   3.828   1.395   0.883 -0.5948 -0.0326 -0.5080
  453SOL    HW1 2258   3.744   1.355   0.922  0.3078 -0.3812  1.1699
  453SOL    HW2 2259   3.805   1.446   0.800 -2.4557 -0.1856 -0.1310
  454SOL     OW 2260   0.674   2.368   3.234  0.4190 -0.0831  0.4776
  454SOL    HW1 2261   0.760   2.380   3.184  0.8702  0.6935  1.4119
  454SOL    HW2 2262   0.670   2.433   3.310 -0.3765 -1.0370  1.2837
  455SOL     OW 2263   6.638   6.536   5.290 -0.7095  0.1275  0.3140
  455SOL    HW1 2264   6.668   6.465   5.226 -0.1190 -2.1221  2.8877
  455SOL    HW2 2265   6.716   6.594   5.314 -0.3814 -0.4599  0.6907
  456SOL     OW 2266   0.969   2.046   2.692  0.9269  0.0653 -0.2272
  456SOL    HW1 2267   1.052   2.085   2.652  1.5772 -1.7703 -0.7487
  456SOL    HW2 2268   0.992   2.002   2.779  0.6294 -0.9669 -0.6603
  457SOL     OW 2269   3.358   0.124   1.011 -0.0209  0.1613  0.5314
  457SOL    HW1 2270   3.287   0.081   1.068  0.3120  0.7493  1.4006
  457SOL    HW2 2271   3.445   0.077   1.025 -0.0314  0.0267  0.1625
  458SOL     OW 2272   6.052   2.792   4.381  0.8526  0.0575  0.1262
  458SOL    HW1 2273   6.075   2.858   4.453  0.3665  0.7822 -0.3716
  458SOL    HW2 2274   5.959   2.809   4.348 -0.5214 -2.7854  2.0902
  459SOL     OW 2275   3.993   0.451   4.186 -0.3090 -0.3168  0.2605
  459SOL    HW1 2276   3.932   0.529   4.175  0.6432  0.3331 -0.6126
  459SOL    HW2 2277   4.058   0.470   4.260  1.5003  0.8386 -1.5067
  460SOL     OW 2278   2.475   3.276   6.321  0.1006 -0.3042 -0.2280
  460SOL    HW1 2279   2.467   3.363   6.273 -1.8738  0.3938  1.2330
  460SOL    HW2 2280   2.521   3.291   6.409  1.4103 -1.1166 -0.7358
  461SOL     OW 2281   0.280   6.605   4.791  1.2045  0.1174 -0.4393
  461SOL    HW1 2282   0.207   6.612   4.723  1.4136 -0.7278 -0.7648
  461SOL    HW2 2283   0.355   6.550   4.754  1.4422 -0.1097  0.3613
  462SOL     OW 2284   4.025   5.392   4.893 -0.3509 -0.0681 -0.6898
  462SOL    HW1 2285   4.102   5.456   4.887 -0.0533 -0.2598  0.6561
  462SOL    HW2 2286   4.041   5.315   4.830  0.1964  0.2671 -0.9704
  463SOL     OW 2287   6.099   6.727   2.283  0.2365  0.1200 -0.2457
  463SOL    HW1 2288   6.112   6.641   2.233  2.4352  0.4733 -0.4155
  463SOL    HW2 2289   6.122   6.804   2.224 -0.0879  0.7162  0.3935
  464SOL     OW 2290   6.051   5.091   5.959 -0.4794 -0.7180 -0.1109
  464SOL    HW1 2291   6.072   5.177   5.911  0.6603  0.0837  1.6770
  464SOL    HW2 2292   5.952   5.083   5.971 -0.5713  1.0882  0.8487
  465SOL     OW 2293   2.876   5.401   1.305  0.5207  0.2704 -0.3524
  465SOL    HW1 2294   2.939   5.448   1.243 -0.4560 -0.9876 -2.4078
  465SOL    HW2 2295   2.813   5.468   1.345  0.1242  0.9676 -2.0438
  466SOL     OW 2296   4.125   5.913   4.389  0.2219 -0.0564 -0.1053
  466SOL    HW1 2297   4.121   6.013   4.396 -1.2890 -0.0063 -1.1080
  466SOL    HW2 2298   4.184   5.887   4.314  1.6344  0.0107  0.9407
  467SOL     OW 2299   5.897   0.347   0.315 -0.7514 -0.3390 -0.3123
  467SOL    HW1 2300   5.819   0.302   0.360 -1.1331  0.3436 -0.2801
  467SOL    HW2 2301   5.944   0.406   0.382 -0.1001 -0.8753 -0.2860
  468SOL     OW 2302   0.563   0.141   6.472  0.2426  0.1790  0.7868
  468SOL    HW1 2303   0.645   0.159   6.526  0.8840 -0.6433  0.1130
  468SOL    HW2 2304   0.514   0.227   6.457 -0.3146  0.3461  3.1995
  469SOL     OW 2305   3.878   5.420   6.004 -0.3219 -0.5705  0.2375
  469SOL    HW1 2306   3.899   5.511   6.040 -0.8141 -0.9312  1.4959
  469SOL    HW2 2307   3.825   5.369   6.071 -2.5772 -0.7747 -1.5475
  470SOL     OW 2308   1.282   4.760   2.164 -0.8548  0.1810 -0.1121
  470SOL    HW1 2309   1.184   4.775   2.147 -1.1231 -0.9601  0.3278
  470SOL    HW2 2310   1.327   4.848   2.178 -1.4475  0.8894 -2.2307
  471SOL     OW 2311   1.800   2.572   4.930 -0.0889 -0.3790 -0.2616
  471SOL    HW1 2312   1.786   2.646   4.863 -1.0143  0.0455  0.3731
  471SOL    HW2 2313   1.894   2.540   4.924  0.6424  1.5289  0.1029
  472SOL     OW 2314   4.245   2.809   5.971 -0.2362  0.0491 -0.5434
  472SOL    HW1 2315   4.319   2.847   6.027 -0.2451  1.8331 -1.6353
  472SOL    HW2 2316   4.227   2.715   5.997  0.9961  0.2521  1.1709
  473SOL     OW 2317   0.090   4.741   2.624 -0.1750  0.4266 -0.1106
  473SOL    HW1 2318   0.068   4.771   2.531 -0.7014 -0.7091 -0.3634
  473SOL    HW2 2319   0.052   4.650   2.640 -0.7014  0.8963  1.4675
  474SOL     OW 2320   3.625   5.081   5.042 -0.0399  0.8405  0.1525
  474SOL    HW1 2321   3.527   5.076   5.024  0.1736 -0.4233 -0.8227
  474SOL    HW2 2322   3.651   5.014   5.111  0.4308 -0.3470 -1.1352
  475SOL     OW 2323   3.136   2.133   2.021 -0.2621 -0.3269 -0.0929
  475SOL    HW1 2324   3.085   2.052   2.048 -2.3166  0.1179 -2.2314
  475SOL    HW2 2325   3.082   2.215   2.041 -0.3301  0.1919 -2.1174
  476SOL     OW 2326   0.387   2.872   0.240 -0.3767 -0.3808  0.2404
  476SOL    HW1 2327   0.439   2.801   0.288  0.2679 -0.3819 -0.4475
  476SOL    HW2 2328   0.434   2.959   0.248 -1.7012  0.2361  1.9900
  477SOL     OW 2329   0.057   6.189   3.429 -0.0579 -0.2263  0.3297
  477SOL    HW1 2330  -0.012   6.127   3.464  0.6728 -0.8226  0.7506
  477SOL    HW2 2331   0.015   6.277   3.406 -0.6813 -0.0183  2.1343
  478SOL     OW 2332   4.932   5.109   0.890 -0.2519 -0.0912 -0.0521
  478SOL    HW1 2333   4.913   5.072   0.980 -2.0431  0.2239 -0.2653
  478SOL    HW2 2334   4.849   5.107   0.834  0.4666  0.9953 -1.2355
  479SOL     OW 2335   4.413   3.362   0.876  0.1878  0.5200  0.1341
  479SOL    HW1 2336   4.407   3.285   0.940  1.3732 -1.5666 -2.0714
  479SOL    HW2 2337   4.491   3.420   0.900  0.3266  0.0535  0.8375
  480SOL     OW 2338   6.866   7.024   2.019  0.7098  0.2821 -0.4257
  480SOL    HW1 2339   6.844   6.928   2.039  0.4977  0.8681  2.4777
  480SOL    HW2 2340   6.792   7.063   1.963  0.2583 -0.9336 -0.7217
  481SOL     OW 2341   6.070   0.807   6.168  0.3830 -0.5138 -1.1644
  481SOL    HW1 2342   5.975   0.800   6.138  0.1595 -1.6610 -0.2769
  481SOL    HW2 2343   6.117   0.721   6.146  0.7981 -0.5252 -0.2497
  482SOL     OW 2344   2.433   5.793   3.692 -0.1945 -0.3297  0.2508
  482SOL    HW1 2345   2.400   5.887   3.696  3.7168  1.1919  0.8908
  482SOL    HW2 2346   2.483   5.772   3.776 -0.4730 -2.7947 -0.1368
  483SOL     OW 2347   3.870   3.908   6.183 -0.1532  0.2829  0.4158
  483SOL    HW1 2348   3.892   3.976   6.113 -0.6899 -0.4763 -0.5401
  483SOL    HW2 2349   3.775   3.877   6.169  0.1556 -0.8156  0.6772
  484SOL     OW 2350   1.347   0.211   3.986 -0.0768 -0.1776  0.0121
  484SOL    HW1 2351   1.297   0.284   3.939 -1.6125 -1.9237 -1.2101
  484SOL    HW2 2352   1.342   0.226   4.085 -0.5030  1.2619 -0.1943
  485SOL     OW 2353   5.856   5.227   0.793 -0.2843 -0.3758  0.2292
  485SOL    HW1 2354   5.803   5.290   0.736  0.6960  0.4263  0.1862
  485SOL    HW2 2355   5.949   5.220   0.757  0.3176  0.0455  1.6319
  486SOL     OW 2356   5.364   0.565   4.115  0.1317  0.4625  0.1419
  486SOL    HW1 2357   5.433   0.571   4.043  0.3601  0.4540  0.3573
  486SOL    HW2 2358   5.286   0.623   4.091  0.6055  1.1853  0.3172
  487SOL     OW 2359   6.392   1.509   5.651  0.2097 -0.2675 -0.0227
  487SOL    HW1 2360   6.473   1.515   5.592  0.6321 -0.4550  0.5316
  487SOL    HW2 2361   6.352   1.418   5.643  0.1017 -0.2014 -0.2344
  488SOL     OW 2362   2.144   5.658   4.797 -0.3596 -0.6141 -0.1592
  488SOL    HW1 2363   2.212   5.611   4.742 -0.0395 -0.9098  0.4825
  488SOL    HW2 2364   2.189   5.716   4.865 -0.7443 -0.7666  0.2320
  489SOL     OW 2365   3.185   3.948   5.663 -0.0134 -0.2583 -0.3189
  489SOL    HW1 2366   3.155   3.895   5.742  0.4496 -0.0270  0.0173
  489SOL    HW2 2367   3.112   4.009   5.633 -0.0976 -0.1526  0.1026
  490SOL     OW 2368   6.866   3.183   4.878 -0.0123  0.3192  0.4652
  490SOL    HW1 2369   6.869   3.104   4.816 -0.7629 -1.5248  2.6596
  490SOL    HW2 2370   6.771   3.213   4.889  0.0561  0.3412  1.0307
  491SOL     OW 2371   5.744   5.213   3.436 -0.3264 -0.4756  0.4801
  491SOL    HW1 2372   5.660   5.160   3.427 -0.0147 -1.2053  1.6160
  491SOL    HW2 2373   5.810   5.185   3.366 -0.3176 -1.3148  0.8179
  492SOL     OW 2374   1.218   0.504   6.424 -0.1360 -0.4611 -0.4775
  492SOL    HW1 2375   1.211   0.595   6.465 -2.0466 -0.6378 -0.3209
  492SOL    HW2 2376   1.276   0.508   6.343 -0.1123  0.8702 -0.4114
  493SOL     OW 2377   3.123   4.623   5.290 -0.2866 -0.6650  0.1245
  493SOL    HW1 2378   3.051   4.568   5.246  0.4990 -0.5909 -1.3048
  493SOL    HW2 2379   3.088   4.660   5.377 -1.8226 -0.9777 -0.3271
  494SOL     OW 2380   3.891   6.704   1.894 -0.0427 -0.8909 -0.4084
  494SOL    HW1 2381   3.855   6.617   1.925  0.1587 -0.8138  0.0405
  494SOL    HW2 2382   3.819   6.755   1.847 -0.6270 -0.5951  0.7738
  495SOL     OW 2383   2.095   5.766   0.857 -0.0393 -0.2244  0.7448
  495SOL    HW1 2384   2.103   5.674   0.895 -0.9767 -0.3228  0.7127
  495SOL    HW2 2385   2.163   5.777   0.784 -0.0164 -0.9351  0.6496
  496SOL     OW 2386   5.511   0.374   3.911  0.1140 -0.1766 -0.0357
  496SOL    HW1 2387   5.547   0.462   3.941 -0.1940  0.6172 -1.8346
  496SOL    HW2 2388   5.453   0.336   3.983 -0.8580  1.7577  0.2942
  497SOL     OW 2389   4.633   2.032   6.355  0.1742 -0.8900  0.8091
  497SOL    HW1 2390   4.642   1.936   6.328  2.6775  0.1013 -2.5087
  497SOL    HW2 2391   4.540   2.064   6.335  0.0109 -2.0257 -0.3621
  498SOL     OW 2392   7.007   6.303   0.142 -0.0719  0.3120 -0.2863
  498SOL    HW1 2393   6.912   6.275   0.156 -0.2879 -0.3851 -2.7387
  498SOL    HW2 2394   7.065   6.252   0.205 -1.1724 -0.4081  0.1939
  499SOL     OW 2395   1.193   4.733   6.172 -0.1016  0.3504 -0.5358
  499SOL    HW1 2396   1.153   4.812   6.218 -0.7319  0.3215 -1.0190
  499SOL    HW2 2397   1.125   4.693   6.109  0.4782 -0.0814 -0.8977
  500SOL     OW 2398   0.048   2.154   5.130 -0.4316 -0.3375  0.0682
  500SOL    HW1 2399   0.095   2.141   5.217  0.4913  1.0406 -0.1753
  500SOL    HW2 2400   0.116   2.162   5.057 -1.2167 -2.3029 -0.9273
  501SOL     OW 2401   2.375   2.874   5.972 -0.4517  0.7337 -0.1951
  501SOL    HW1 2402   2.352   2.969   5.950 -2.0029  0.7849  1.4099
  501SOL    HW2 2403   2.293   2.818   5.967 -0.5086  0.3495  3.0336
  502SOL     OW 2404   2.563   3.076   0.862 -0.2289  0.7975  0.2989
  502SOL    HW1 2405   2.525   3.010   0.926 -2.1014  1.1259 -0.4226
  502SOL    HW2 2406   2.539   3.169   0.891 -0.5917  0.9734 -0.5366
  503SOL     OW 2407   2.047   0.225   2.809 -0.5261  0.0281 -0.9798
  503SOL    HW1 2408   2.103   0.305   2.786 -0.6904 -0.1386 -1.9935
  503SOL    HW2 2409   1.954   0.255   2.833 -0.3466  0.2038 -0.4808
  504SOL     OW 2410   6.019   0.735   5.106  0.0187  0.3766 -0.2811
  504SOL    HW1 2411   6.020   0.637   5.086 -0.1959  0.4349 -0.5974
  504SOL    HW2 2412   5.931   0.760   5.148 -0.5232  0.6769 -1.5346
  505SOL     OW 2413   0.151   4.117   4.904 -0.5638  0.3723  0.1689
  505SOL    HW1 2414   0.146   4.034   4.849  0.9672  0.7473 -0.5785
  505SOL    HW2 2415   0.135   4.197   4.847 -0.9345  0.6604  0.6659
  506SOL     OW 2416   4.647   5.947   3.926  0.7870  0.1236  0.4241
  506SOL    HW1 2417   4.743   5.939   3.899  0.2282  0.0838 -1.7285
  506SOL    HW2 2418   4.591   5.963   3.845 -1.2132 -1.4179  1.4262
  507SOL     OW 2419   2.723   6.402   0.253  0.0995  0.0081 -0.0928
  507SOL    HW1 2420   2.657   6.420   0.326  0.3081 -1.6346  0.5373
  507SOL    HW2 2421   2.816   6.417   0.288  0.1419  0.9952 -0.5824
  508SOL     OW 2422   1.338   4.085   1.395 -0.1433 -0.0618 -0.0531
  508SOL    HW1 2423   1.403   4.097   1.470 -0.2579  1.0290 -0.1098
  508SOL    HW2 2424   1.245   4.092   1.430 -0.2580  4.2650 -0.7335
  509SOL     OW 2425   4.365   1.979   6.634  0.0708  0.9704 -0.0021
  509SOL    HW1 2426   4.306   1.962   6.713 -0.5797 -1.0561 -0.8594
  509SOL    HW2 2427   4.457   1.943   6.653 -0.2619 -0.1255 -0.3677
  510SOL     OW 2428   6.138   4.872   5.542  0.2914 -0.3661 -0.2141
  510SOL    HW1 2429   6.068   4.813   5.580  1.3608 -1.4305  0.1534
  510SOL    HW2 2430   6.226   4.854   5.586  1.1730 -0.2815 -1.8294
  511SOL     OW 2431   6.021   2.538   2.268  0.0104 -0.0183 -0.2138
  511SOL    HW1 2432   6.089   2.603   2.233  0.9034 -0.9859 -0.3282
  511SOL    HW2 2433   6.068   2.459   2.307 -1.0299 -0.0821  0.9789
  512SOL     OW 2434   2.572   1.982   6.131 -1.3663 -0.4245 -0.2971
  512SOL    HW1 2435   2.497   1.925   6.166 -1.8466  0.0086 -0.6004
  512SOL    HW2 2436   2.614   2.031   6.208 -1.3370 -0.7340 -0.1130
  513SOL     OW 2437   6.262   5.238   2.357 -0.0405 -0.4733 -0.3520
  513SOL    HW1 2438   6.305   5.313   2.306  2.8049 -1.9570 -0.3229
  513SOL    HW2 2439   6.199   5.277   2.425 -0.4212  1.7296 -1.8314
  514SOL     OW 2440   5.052   2.282   2.946 -0.5204  0.4632 -0.2437
  514SOL    HW1 2441   5.002   2.211   2.896  0.7897  0.6266 -1.8570
  514SOL    HW2 2442   5.007   2.370   2.931 -0.0411  0.5424 -1.3352
  515SOL     OW 2443   3.437   6.499   6.067 -0.3942 -0.1462 -0.2364
  515SOL    HW1 2444   3.448   6.420   6.007  3.4897  0.1198 -0.1107
  515SOL    HW2 2445   3.481   6.481   6.155 -0.2981  1.7604  0.1624
  516SOL     OW 2446   1.595   6.313   2.634 -0.1003  0.5347 -0.4210
  516SOL    HW1 2447   1.635   6.301   2.726 -1.7350  0.9907  0.3839
  516SOL    HW2 2448   1.610   6.407   2.604  1.3615  0.1106 -1.1133
  517SOL     OW 2449   3.211   3.978   0.869 -0.1651 -0.4419 -0.0036
  517SOL    HW1 2450   3.282   3.974   0.939  0.5369 -0.2220 -0.6910
  517SOL    HW2 2451   3.250   3.951   0.781 -1.4045 -2.2356 -0.0514
  518SOL     OW 2452   3.214   5.896   4.900  0.5919 -0.3590 -0.2054
  518SOL    HW1 2453   3.177   5.890   4.993  1.4843  1.3890  0.3091
  518SOL    HW2 2454   3.192   5.812   4.850 -0.5624 -1.0243  1.3281
  519SOL     OW 2455   0.450   0.603   3.532  0.1768 -0.1190 -0.2941
  519SOL    HW1 2456   0.388   0.539   3.485 -1.2257  0.4401  0.7144
  519SOL    HW2 2457   0.490   0.558   3.611 -0.7212  0.1706  0.3487
  520SOL     OW 2458   4.257   5.994   0.812  0.2651 -0.7212  0.1146
  520SOL    HW1 2459   4.321   6.061   0.776 -1.5782  1.0290 -0.1131
  520SOL    HW2 2460   4.282   5.903   0.780  1.9690  0.0430 -0.8365
  521SOL     OW 2461   1.172   5.330   4.707  0.0413  0.4531 -0.2211
  521SOL    HW1 2462   1.111   5.253   4.725 -1.6906  2.0009  0.9224
  521SOL    HW2 2463   1.258   5.296   4.669 -1.6337 -1.8153 -2.3643
  522SOL     OW 2464   1.218   6.256   6.953  0.0109  0.1264  0.6792
  522SOL    HW1 2465   1.124   6.283   6.975  0.7077  2.5043  0.9497
  522SOL    HW2 2466   1.273   6.337   6.934  1.7995 -1.2811 -0.4720
  523SOL     OW 2467   2.812   7.016   2.070 -0.6138  0.7108 -0.2549
  523SOL    HW1 2468   2.732   6.958   2.057 -0.4898  0.3960  0.3336
  523SOL    HW2 2469   2.783   7.104   2.110 -0.6586  0.5576  0.0554
  524SOL     OW 2470   4.358   6.820   0.820 -0.3875  0.2235 -0.3330
  524SOL    HW1 2471   4.357   6.721   0.807 -0.3955  0.2147 -0.2676
  524SOL    HW2 2472   4.318   6.865   0.740  1.5106  0.2848 -1.2953
  525SOL     OW 2473   6.038   2.213   2.742 -0.8316  0.7100 -0.2499
  525SOL    HW1 2474   6.030   2.114   2.755 -0.8109  0.7717  0.2525
  525SOL    HW2 2475   5.984   2.260   2.811  0.0533  1.0650  0.2132
  526SOL     OW 2476   4.563   0.108   4.325  0.6176  0.6284 -0.0575
  526SOL    HW1 2477   4.601   0.058   4.247  0.8217  0.3197  0.2356
  526SOL    HW2 2478   4.627   0.103   4.402 -0.4693 -0.8118  0.7952
  527SOL     OW 2479   0.064   1.942   6.465 -0.1931  0.3643  0.3667
  527SOL    HW1 2480   0.011   1.926   6.382 -0.8833 -0.0299  0.8691
  527SOL    HW2 2481   0.012   1.910   6.544  0.3819  0.8882  0.9696
  528SOL     OW 2482   5.801   2.990   3.558 -0.2456 -0.0963 -0.0724
  528SOL    HW1 2483   5.763   2.956   3.472  1.6373 -1.2745 -0.4884
  528SOL    HW2 2484   5.745   2.957   3.634 -2.3110  1.4777 -0.7944
  529SOL     OW 2485   1.149   0.750   6.513  0.6987 -0.1757  0.7349
  529SOL    HW1 2486   1.093   0.792   6.585 -3.0723 -2.4385 -0.5729
  529SOL    HW2 2487   1.143   0.804   6.429  2.8224  0.9666  1.2335
  530SOL     OW 2488   3.944   3.957   2.145 -0.0511  0.1843  0.0349
  530SOL    HW1 2489   4.017   3.907   2.192  0.2435  0.6722  0.1111
  530SOL    HW2 2490   3.884   3.999   2.212  1.2569  2.1839  0.0590
  531SOL     OW 2491   5.176   0.350   6.002 -0.1757  0.1122  0.2091
  531SOL    HW1 2492   5.252   0.415   6.004  0.3673 -0.4126 -1.3344
  531SOL    HW2 2493   5.091   0.400   5.987 -0.0421  0.6408  1.1556
  532SOL     OW 2494   4.826   1.139   4.979 -0.7761  0.2590 -0.1784
  532SOL    HW1 2495   4.858   1.068   4.916  1.1569  0.8221  0.0972
  532SOL    HW2 2496   4.756   1.195   4.934 -1.3622 -0.9965 -0.8556
  533SOL     OW 2497   1.750   0.089   4.104 -0.3189 -0.7500  0.1083
  533SOL    HW1 2498   1.783   0.183   4.119  0.5532 -1.1892  1.0295
  533SOL    HW2 2499   1.826   0.032   4.072 -0.0397 -1.8461  2.5331
  534SOL     OW 2500   1.539   2.324   5.133 -0.2369 -0.0801 -0.1731
  534SOL    HW1 2501   1.466   2.348   5.068  1.4183  0.7105 -1.8391
  534SOL    HW2 2502   1.538   2.390   5.209 -2.1766 -0.9914  0.6647
  535SOL     OW 2503   5.731   5.813   2.906  0.5868  0.2547 -0.2313
  535SOL    HW1 2504   5.827   5.835   2.920  1.1976 -1.9362 -0.6376
  535SOL    HW2 2505   5.681   5.821   2.992  1.8290 -1.6906  0.7319
  536SOL     OW 2506   6.354   5.966   1.190 -0.3333 -0.2258 -0.4481
  536SOL    HW1 2507   6.418   6.042   1.200 -2.3889  1.4156  1.2160
  536SOL    HW2 2508   6.338   5.924   1.279 -0.8592 -1.2063 -0.9906
  537SOL     OW 2509   3.274   2.131   4.807  0.2423 -0.5741 -0.2774
  537SOL    HW1 2510   3.218   2.179   4.874  0.2482 -1.6656  0.5575
  537SOL    HW2 2511   3.263   2.032   4.820  0.1232 -0.8159 -2.0155
  538SOL     OW 2512   5.273   5.927   5.997 -0.1532 -0.3961  0.0451
  538SOL    HW1 2513   5.298   5.831   5.985 -0.3961 -0.6562  1.4567
  538SOL    HW2 2514   5.351   5.985   5.975  0.4904 -1.0054  0.7034
  539SOL     OW 2515   3.170   6.117   0.124  0.0199  0.0894 -0.4238
  539SOL    HW1 2516   3.144   6.049   0.193 -1.1206  0.5613 -0.3594
  539SOL    HW2 2517   3.170   6.208   0.167 -0.2271  0.3282 -0.9277
  540SOL     OW 2518   3.781   6.479   6.799 -0.3609  0.3665 -0.9245
  540SOL    HW1 2519   3.780   6.403   6.864 -0.2638  0.7142 -0.5122
  540SOL    HW2 2520   3.696   6.477   6.745 -0.0140 -0.4820 -1.4505
  541SOL     OW 2521   5.502   6.817   0.849  0.1012  0.1527  0.4220
  541SOL    HW1 2522   5.522   6.778   0.939  0.6413  0.7090  0.5560
  541SOL    HW2 2523   5.429   6.885   0.858  0.0139  0.0615  0.4055
  542SOL     OW 2524   4.163   5.080   5.107  0.8200  0.0486 -0.7204
  542SOL    HW1 2525   4.161   5.142   5.028 -1.5090 -0.1094 -0.8555
  542SOL    HW2 2526   4.132   4.989   5.079 -1.4961  0.3494  0.5808
  543SOL     OW 2527   1.461   1.447   0.316 -0.0733  0.3106 -0.2038
  543SOL    HW1 2528   1.548   1.401   0.301  1.3090  2.7727 -0.3801
  543SOL    HW2 2529   1.444   1.455   0.415  0.2631  0.3906 -0.1490
  544SOL     OW 2530   0.675   1.805   6.991  0.1804  0.0007 -0.6811
  544SOL    HW1 2531   0.755   1.752   7.017  0.4652  0.4229 -0.6886
  544SOL    HW2 2532   0.657   1.875   7.060  0.2353  0.3582 -1.0237
  545SOL     OW 2533   5.798   6.039   0.050 -0.0840  0.3734 -0.8070
  545SOL    HW1 2534   5.712   6.048  -0.001 -1.3823 -0.9671  0.9861
  545SOL    HW2 2535   5.801   6.110   0.121 -0.0255  0.0318 -0.4669
  546SOL     OW 2536   1.598   5.671   2.132 -0.4224  0.4309 -0.0716
  546SOL    HW1 2537   1.536   5.594   2.115 -0.4769  0.5217 -0.2829
  546SOL    HW2 2538   1.644   5.658   2.220 -0.3679  0.1130 -0.1472
  547SOL     OW 2539   4.115   5.075   0.874  0.6473 -0.0720 -0.2546
  547SOL    HW1 2540   4.172   5.156   0.872 -0.9042  1.0816  0.3404
  547SOL    HW2 2541   4.172   4.993   0.870  2.1808  1.0200 -2.4573
  548SOL     OW 2542   4.487   3.641   0.255 -0.2467 -0.2021 -0.3483
  548SOL    HW1 2543   4.573   3.672   0.296 -0.7202 -1.0778  1.4031
  548SOL    HW2 2544   4.495   3.643   0.156  1.7053  0.0000 -0.2231
  549SOL     OW 2545   4.996   3.495   2.129 -0.1174 -0.1275  0.1922
  549SOL    HW1 2546   5.078   3.546   2.155 -0.9746  0.7648  1.2384
  549SOL    HW2 2547   4.940   3.552   2.069 -0.6916 -0.1627  0.6967
  550SOL     OW 2548   5.888   6.854   4.775 -0.2719  0.1577  0.6843
  550SOL    HW1 2549   5.901   6.952   4.758  0.6712 -0.1816 -0.7547
  550SOL    HW2 2550   5.888   6.805   4.687 -3.1611 -0.8961  1.1409
  551SOL     OW 2551   5.684   0.970   7.023  0.1709 -0.1459 -0.4844
  551SOL    HW1 2552   5.599   0.921   7.042 -0.0797  0.3205 -0.3844
  551SOL    HW2 2553   5.731   0.927   6.945  1.2871 -2.1789  1.2087
  552SOL     OW 2554   1.224   1.052   4.419  0.2304 -0.0945 -0.2787
  552SOL    HW1 2555   1.298   1.079   4.357  1.6625 -1.9456  0.5280
  552SOL    HW2 2556   1.225   1.112   4.500  1.0818 -0.3208 -0.1159
  553SOL     OW 2557   5.260   3.244   6.975 -0.7981  0.1348 -0.6452
  553SOL    HW1 2558   5.269   3.183   6.896  0.7914  0.6757 -0.9277
  553SOL    HW2 2559   5.199   3.203   7.043 -1.8175 -0.5593 -1.9305
  554SOL     OW 2560   0.019   6.988   1.522  0.2911  0.3987  0.0411
  554SOL    HW1 2561   0.009   6.928   1.602  3.1212  0.2560  0.3694
  554SOL    HW2 2562   0.018   6.932   1.439  0.5435  0.1642  0.1941
  555SOL     OW 2563   2.372   6.191   4.486  0.1065  0.5934 -0.7817
  555SOL    HW1 2564   2.467   6.160   4.485 -0.3062 -0.7848 -1.8581
  555SOL    HW2 2565   2.367   6.285   4.520  1.8537  0.7526 -0.8843
  556SOL     OW 2566   6.083   5.101   3.533 -0.0153 -0.0519 -0.1681
  556SOL    HW1 2567   6.128   5.020   3.570 -0.0606  0.0146  0.0323
  556SOL    HW2 2568   6.066   5.167   3.606  1.3871  0.7996 -0.5677
  557SOL     OW 2569   0.511   5.689   1.354  0.0048  0.2193  1.0538
  557SOL    HW1 2570   0.576   5.652   1.287  0.6526  1.6668  0.8298
  557SOL    HW2 2571   0.557   5.698   1.443 -0.9628 -2.0563  1.8558
  558SOL     OW 2572   4.131   3.701   1.138 -0.5372  0.3675 -0.5000
  558SOL    HW1 2573   4.177   3.781   1.176 -0.3426 -0.2654  0.6574
  558SOL    HW2 2574   4.165   3.683   1.046 -0.4016  1.4557 -0.6746
  559SOL     OW 2575   0.489   0.473   5.697 -0.5013 -0.6333  0.0803
  559SOL    HW1 2576   0.399   0.432   5.686  0.7142 -3.8496  0.8072
  559SOL    HW2 2577   0.552   0.432   5.632  0.7147  0.6175  0.4240
  560SOL     OW 2578   2.323   2.341   3.206 -0.2731 -0.3344 -0.6277
  560SOL    HW1 2579   2.268   2.424   3.209  0.5064  0.2333 -1.3373
  560SOL    HW2 2580   2.265   2.262   3.188 -1.3044 -0.2480  1.9841
  561SOL     OW 2581   5.890   5.589   1.008  0.0668  0.6735  0.1636
  561SOL    HW1 2582   5.914   5.686   1.016  2.5131  0.0541  1.3872
  561SOL    HW2 2583   5.962   5.541   0.957 -0.8635 -0.6031 -0.0061
  562SOL     OW 2584   3.502   5.422   2.158 -0.2903 -0.2866  0.2778
  562SOL    HW1 2585   3.403   5.421   2.147 -0.3344  0.8809  0.4352
  562SOL    HW2 2586   3.529   5.356   2.229 -1.0498  0.1163  0.9464
  563SOL     OW 2587   1.032   0.872   2.613  0.1654 -0.3836 -0.1296
  563SOL    HW1 2588   1.016   0.969   2.628 -0.9433 -0.7986  1.7995
  563SOL    HW2 2589   1.068   0.857   2.521  0.1844  1.8064 -0.5261
  564SOL     OW 2590   5.589   2.644   5.213  0.1842  0.2844 -0.3850
  564SOL    HW1 2591   5.667   2.598   5.171 -2.3474 -3.3805 -1.5361
  564SOL    HW2 2592   5.579   2.611   5.308  0.5430  1.4933  0.0884
  565SOL     OW 2593   3.264   3.807   3.398  0.1870 -0.2820  0.0825
  565SOL    HW1 2594   3.328   3.821   3.474 -2.4758 -0.4141  2.5100
  565SOL    HW2 2595   3.212   3.723   3.413  0.9075 -1.4105 -3.0109
  566SOL     OW 2596   7.000   3.564   4.310  0.4402 -0.5395  0.3181
  566SOL    HW1 2597   7.054   3.566   4.395 -0.9671 -2.7046  1.3501
  566SOL    HW2 2598   6.903   3.565   4.333  0.0022  0.7390 -1.4114
  567SOL     OW 2599   1.063   4.242   5.645 -0.2250  0.9776 -0.0045
  567SOL    HW1 2600   0.997   4.179   5.686  0.9575  0.1455  0.7176
  567SOL    HW2 2601   1.093   4.205   5.557 -0.0104  0.8449  0.1217
  568SOL     OW 2602   6.879   6.516   6.166 -0.1653 -0.1846 -0.3125
  568SOL    HW1 2603   6.839   6.532   6.255  0.9876 -1.7984  0.5626
  568SOL    HW2 2604   6.863   6.595   6.106  1.1863  2.0553  2.0915
  569SOL     OW 2605   6.002   4.121   5.881  0.1583  0.2503  0.3419
  569SOL    HW1 2606   5.917   4.170   5.899  0.0536 -0.0345  0.6296
  569SOL    HW2 2607   6.043   4.155   5.797  0.3071  1.1363  0.7600
  570SOL     OW 2608   1.816   1.951   6.919 -0.6939 -0.1320 -0.2198
  570SOL    HW1 2609   1.850   1.976   6.828 -1.3670  1.2241 -0.1373
  570SOL    HW2 2610   1.805   1.852   6.926 -0.4598 -0.2616 -1.5554
  571SOL     OW 2611   1.508   3.709   3.700  0.2137  0.4413  1.0285
  571SOL    HW1 2612   1.413   3.732   3.680  0.7307  0.1248 -2.2821
  571SOL    HW2 2613   1.561   3.793   3.710 -0.2537  0.6148  2.2186
  572SOL     OW 2614   3.278   1.894   3.989  0.1248 -0.1724  0.0526
  572SOL    HW1 2615   3.338   1.891   3.909 -2.1201 -0.1413 -1.7072
  572SOL    HW2 2616   3.286   1.984   4.033  1.1760 -0.0916 -0.2695
  573SOL     OW 2617   0.900   5.835   4.282  0.2188  0.0241 -0.2531
  573SOL    HW1 2618   0.872   5.747   4.243 -0.9121  0.1011  0.3325
  573SOL    HW2 2619   0.922   5.899   4.209 -2.3503  0.3338 -0.8505
  574SOL     OW 2620   2.688   7.008   6.540  0.1802  0.3534  0.1211
  574SOL    HW1 2621   2.783   7.037   6.549 -0.0063  1.2166 -0.5877
  574SOL    HW2 2622   2.662   7.007   6.444 -0.4784 -0.0625  0.2971
  575SOL     OW 2623   4.050   3.378   6.078 -0.7890 -0.0196  0.3502
  575SOL    HW1 2624   3.955   3.394   6.050 -0.7772  1.3692  1.0259
  575SOL    HW2 2625   4.111   3.394   6.001 -1.1105 -1.1620 -0.1535
  576SOL     OW 2626   0.757   0.476   2.890 -0.1387 -0.1872 -0.5817
  576SOL    HW1 2627   0.704   0.449   2.970 -0.6406 -1.0936 -1.2010
  576SOL    HW2 2628   0.714   0.556   2.847  1.6290  2.0350  1.5423
  577SOL     OW 2629   5.924   6.051   1.795 -0.0508  0.0039 -0.7195
  577SOL    HW1 2630   5.914   6.138   1.843  1.6852 -0.5133  0.6829
  577SOL    HW2 2631   5.893   5.976   1.853  0.4306 -0.4879 -1.0872
  578SOL     OW 2632   4.398   0.793   0.292  0.3302 -0.1557  0.0475
  578SOL    HW1 2633   4.315   0.807   0.239  0.8566  0.6250 -0.5904
  578SOL    HW2 2634   4.433   0.701   0.276  0.1976 -0.1056 -0.5546
  579SOL     OW 2635   0.613   2.944   2.869  0.0950 -0.0531 -0.1385
  579SOL    HW1 2636   0.696   2.911   2.915  0.7650  1.4512 -0.1884
  579SOL    HW2 2637   0.614   3.044   2.868 -1.4668 -0.0252 -0.6435
  580SOL     OW 2638   5.146   4.452   3.301 -0.2824 -0.0794 -0.2648
  580SOL    HW1 2639   5.221   4.508   3.335  1.8125 -1.7018 -1.9655
  580SOL    HW2 2640   5.100   4.500   3.226 -0.9582  0.8854  0.7335
  581SOL     OW 2641   1.879   0.629   6.398  0.6750 -0.1655 -0.1380
  581SOL    HW1 2642   1.902   0.534   6.422 -0.9437 -0.9992 -1.6578
  581SOL    HW2 2643   1.780   0.639   6.395  0.8352  1.3243 -1.0100
  582SOL     OW 2644   6.795   3.076   4.442  0.0574 -0.4634 -0.1881
  582SOL    HW1 2645   6.742   3.147   4.488  0.1184  1.1599 -2.4652
  582SOL    HW2 2646   6.748   3.047   4.358  0.2415 -2.8776  0.4577
  583SOL     OW 2647   2.569   4.758   4.667 -0.3725 -0.4207  0.3778
  583SOL    HW1 2648   2.585   4.720   4.759 -2.8978 -0.2074  0.9726
  583SOL    HW2 2649   2.541   4.853   4.675 -1.7171 -0.7171 -0.5137
  584SOL     OW 2650   3.505   2.043   4.178  0.0214 -0.5387 -0.2783
  584SOL    HW1 2651   3.429   2.099   4.143  0.7438  0.5015 -0.2550
  584SOL    HW2 2652   3.537   1.982   4.106  0.6476  0.6699 -1.0792
  585SOL     OW 2653   3.585   6.467   6.393  0.0859 -0.2594 -0.1089
  585SOL    HW1 2654   3.578   6.545   6.455  0.3675  0.5968 -1.1144
  585SOL    HW2 2655   3.679   6.460   6.360 -0.2033 -0.2909 -0.9405
  586SOL     OW 2656   4.577   0.013   1.161 -0.1027  0.4102  0.2697
  586SOL    HW1 2657   4.632   0.087   1.122 -2.0444  1.9283  0.3184
  586SOL    HW2 2658   4.566   0.027   1.259  0.9556 -0.9373  0.6161
  587SOL     OW 2659   5.834   0.921   3.242  0.2546  0.0203 -0.8568
  587SOL    HW1 2660   5.755   0.941   3.184  0.3465 -0.2434 -1.0768
  587SOL    HW2 2661   5.809   0.932   3.338  0.4538  1.7766 -0.9672
  588SOL     OW 2662   1.643   3.629   2.272  0.0541 -0.3924  0.1028
  588SOL    HW1 2663   1.581   3.557   2.304  0.0896 -0.8825 -0.9040
  588SOL    HW2 2664   1.726   3.627   2.328 -0.4929 -0.2544  0.9391
  589SOL     OW 2665   5.115   3.824   5.535 -0.2821  0.2693  0.7840
  589SOL    HW1 2666   5.080   3.769   5.459 -0.1613  2.2615 -0.7856
  589SOL    HW2 2667   5.054   3.902   5.551  1.7198  2.0984  0.0273
  590SOL     OW 2668   1.447   0.031   0.756 -0.1057  0.1354  0.2616
  590SOL    HW1 2669   1.445   0.130   0.742  1.2442  0.0222 -1.0001
  590SOL    HW2 2670   1.493   0.010   0.842 -0.0973  0.6022  0.3697
  591SOL     OW 2671   3.432   6.926   5.053  0.1285 -0.2107  0.1845
  591SOL    HW1 2672   3.478   7.011   5.078 -0.2912 -0.1091  0.6161
  591SOL    HW2 2673   3.486   6.879   4.983  0.3047  0.4609 -0.1390
  592SOL     OW 2674   6.601   2.310   4.130 -0.1779 -0.1952  0.0024
  592SOL    HW1 2675   6.536   2.293   4.203  0.0273  0.8112  0.4416
  592SOL    HW2 2676   6.612   2.228   4.074  0.7586 -1.4784  1.9749
  593SOL     OW 2677   3.497   4.838   6.641 -0.0882 -0.2570 -0.8299
  593SOL    HW1 2678   3.487   4.801   6.549  1.1242  2.2523 -2.0715
  593SOL    HW2 2679   3.448   4.925   6.648  0.2613 -0.1551  0.7362
  594SOL     OW 2680   1.813   1.672   5.265 -0.0381  0.3508 -0.1166
  594SOL    HW1 2681   1.795   1.593   5.323  0.6536  0.3048  0.0475
  594SOL    HW2 2682   1.762   1.751   5.298 -1.0257 -0.1174 -0.5033
  595SOL     OW 2683   5.383   2.913   4.932  0.2945 -0.4258  0.5221
  595SOL    HW1 2684   5.416   2.982   4.997 -0.1343 -0.6069  0.9343
  595SOL    HW2 2685   5.317   2.956   4.870 -0.8752 -0.7250  1.5300
  596SOL     OW 2686   5.776   3.951   5.641 -0.2031 -1.0803 -0.6386
  596SOL    HW1 2687   5.721   3.923   5.720  2.7518 -1.5414  1.4336
  596SOL    HW2 2688   5.827   3.871   5.607  2.0285 -0.0484  0.0413
  597SOL     OW 2689   2.529   6.846   5.937  0.2010 -0.6935  0.6076
  597SOL    HW1 2690   2.567   6.928   5.979 -0.3579 -1.1134  1.9881
  597SOL    HW2 2691   2.486   6.790   6.007 -0.9520 -1.3325 -0.5752
  598SOL     OW 2692   3.545   4.134   2.863  0.1678 -0.0802 -0.1219
  598SOL    HW1 2693   3.463   4.156   2.916 -0.1874 -4.8555  1.7867
  598SOL    HW2 2694   3.518   4.096   2.774  0.4563  0.2262 -0.3458
  599SOL     OW 2695   1.670   4.800   0.785 -0.4180 -0.4917  0.3011
  599SOL    HW1 2696   1.721   4.801   0.699  1.2598 -1.2205  1.2321
  599SOL    HW2 2697   1.623   4.713   0.795 -0.3701 -0.5225  0.2598
  600SOL     OW 2698   0.230   5.229   0.586 -0.2455  0.1251  0.3632
  600SOL    HW1 2699   0.301   5.291   0.618  0.1125 -0.6727  1.1863
  600SOL    HW2 2700   0.212   5.160   0.657  0.3674 -1.5502 -1.0376
  601SOL     OW 2701   0.270   6.371   6.790 -0.5391  0.3094 -0.1170
  601SOL    HW1 2702   0.328   6.453   6.787  0.0102 -0.1005 -1.2088
  601SOL    HW2 2703   0.271   6.327   6.701 -1.5218 -0.4221  0.2252
  602SOL     OW 2704   1.898   6.926   3.342 -0.2678  0.3576  0.0216
  602SOL    HW1 2705   1.842   6.911   3.424  0.2517  1.2756  0.5488
  602SOL    HW2 2706   1.962   7.001   3.357  2.0469 -1.4675 -0.0884
  603SOL     OW 2707   2.002   1.046   5.408  0.0653  0.1096 -0.0888
  603SOL    HW1 2708   2.073   1.020   5.342 -1.8751 -3.1684 -1.1396
  603SOL    HW2 2709   1.912   1.030   5.367 -1.2508 -0.5355  2.7998
  604SOL     OW 2710   6.135   3.290   2.219  0.4447 -0.0448 -0.4691
  604SOL    HW1 2711   6.165   3.367   2.276 -0.0244 -0.5146  0.4355
  604SOL    HW2 2712   6.211   3.228   2.203  0.0854 -1.1105  1.6160
  605SOL     OW 2713   5.151   6.594   0.054 -0.0800  0.2069 -0.3067
  605SOL    HW1 2714   5.065   6.645   0.055 -0.4433 -0.3842  1.7745
  605SOL    HW2 2715   5.193   6.596   0.145  1.1777 -1.0902 -0.8230
  606SOL     OW 2716   3.021   5.246   5.629 -0.1509  0.5924  0.0924
  606SOL    HW1 2717   2.975   5.158   5.632  1.1789 -0.1462 -0.1959
  606SOL    HW2 2718   2.963   5.316   5.670 -1.1851 -0.4291  0.4215
  607SOL     OW 2719   2.541   4.180   5.323 -0.4395  0.6265  0.6258
  607SOL    HW1 2720   2.504   4.268   5.294 -1.0550  0.0011 -0.5594
  607SOL    HW2 2721   2.506   4.108   5.263 -0.1248 -0.4588  1.7072
  608SOL     OW 2722   2.193   0.706   6.770 -0.0982 -0.1817 -0.0118
  608SOL    HW1 2723   2.136   0.721   6.689  1.0990  0.1525 -0.8151
  608SOL    HW2 2724   2.138   0.663   6.842 -1.3166 -0.0001 -0.8089
  609SOL     OW 2725   2.816   3.145   1.497 -0.2295 -0.1901 -0.1665
  609SOL    HW1 2726   2.880   3.211   1.535 -1.1961  0.7602 -0.1359
  609SOL    HW2 2727   2.762   3.104   1.571  0.3034 -0.9611 -0.1937
  610SOL     OW 2728   5.832   4.011   2.402  0.4253  0.8032  0.3767
  610SOL    HW1 2729   5.867   4.098   2.367 -2.3461  2.7998  2.1395
  610SOL    HW2 2730   5.895   3.975   2.471  2.5050  0.3605 -1.6352
  611SOL     OW 2731   4.678   2.710   1.966  0.1604  0.1903 -0.4706
  611SOL    HW1 2732   4.659   2.805   1.943 -2.4590 -0.1377  0.0970
  611SOL    HW2 2733   4.677   2.654   1.883  0.4811  0.4523 -0.6539
  612SOL     OW 2734   4.350   5.340   4.861 -0.3705  0.4337  0.7899
  612SOL    HW1 2735   4.291   5.260   4.852  0.9017 -0.3618 -0.9839
  612SOL    HW2 2736   4.357   5.366   4.958 -1.0787 -1.3661  1.3591
  613SOL     OW 2737   2.483   5.892   6.005  0.6702 -0.1110  0.2301
  613SOL    HW1 2738   2.570   5.858   5.967  0.3427 -0.4376 -0.2345
  613SOL    HW2 2739   2.421   5.915   5.930  0.1383 -0.4382  0.5707
  614SOL     OW 2740   2.032   6.137   6.661 -0.6177  0.1565 -0.6845
  614SOL    HW1 2741   2.000   6.158   6.753 -1.7772 -1.2401 -0.7351
  614SOL    HW2 2742   1.959   6.091   6.610  0.1229  0.5803 -2.1866
  615SOL     OW 2743   6.973   5.261   3.803 -0.1034  0.0899 -0.4361
  615SOL    HW1 2744   7.038   5.335   3.822  0.8557 -0.6357 -0.8044
  615SOL    HW2 2745   6.889   5.276   3.855  1.4562 -0.5126  2.4744
  616SOL     OW 2746   5.476   4.690   4.410 -0.3781  0.3905 -0.0313
  616SOL    HW1 2747   5.546   4.681   4.339  1.1160 -0.1262  1.4479
  616SOL    HW2 2748   5.509   4.750   4.482 -1.5154  0.2122  0.6682
  617SOL     OW 2749   0.554   0.414   6.409  0.5679 -0.1974 -0.4100
  617SOL    HW1 2750   0.602   0.457   6.486  0.9034  0.5021 -0.9952
  617SOL    HW2 2751   0.609   0.424   6.326 -0.4481  0.3573 -1.0354
  618SOL     OW 2752   3.674   6.848   4.300  0.0652 -0.0358 -0.2349
  618SOL    HW1 2753   3.614   6.922   4.330  0.0175 -0.3112  0.3487
  618SOL    HW2 2754   3.764   6.858   4.343  0.3178  0.1350 -0.7813
  619SOL     OW 2755   3.156   2.211   6.403  0.4365  0.1605 -0.1495
  619SOL    HW1 2756   3.211   2.233   6.323  0.1427 -1.3152 -0.7932
  619SOL    HW2 2757   3.201   2.139   6.456 -0.2194 -0.1129  0.0477
  620SOL     OW 2758   5.913   5.091   1.861 -0.1222  0.0839 -0.4002
  620SOL    HW1 2759   5.900   5.034   1.943  3.5670 -0.6441 -0.1429
  620SOL    HW2 2760   5.993   5.149   1.874 -1.0736  1.9667 -2.5081
  621SOL     OW 2761   6.982   5.596   6.673 -0.0503 -0.8888 -0.0813
  621SOL    HW1 2762   7.028   5.578   6.759  2.4488 -1.1361 -1.3720
  621SOL    HW2 2763   6.907   5.532   6.661  0.3484 -1.6569  1.3336
  622SOL     OW 2764   0.606   1.434   0.381  0.0360  0.0601  0.2984
  622SOL    HW1 2765   0.565   1.487   0.307 -0.8254 -0.6308  0.2685
  622SOL    HW2 2766   0.704   1.422   0.363 -0.1339  0.0071 -0.6691
  623SOL     OW 2767   4.657   5.498   5.386 -0.2432  0.4265 -0.2151
  623SOL    HW1 2768   4.582   5.551   5.346  0.0768  1.2674  0.2778
  623SOL    HW2 2769   4.739   5.554   5.390  0.0864 -0.0886  0.3687
  624SOL     OW 2770   0.000   0.232   1.661 -0.7503 -0.2608 -0.3189
  624SOL    HW1 2771   0.041   0.173   1.591  0.3714  1.4474 -1.1800
  624SOL    HW2 2772  -0.002   0.326   1.628 -3.1691  0.1169  0.7235
  625SOL     OW 2773   2.055   2.092   0.907 -0.4452 -0.6942 -0.1325
  625SOL    HW1 2774   2.137   2.035   0.913 -0.9321 -1.3898  0.0698
  625SOL    HW2 2775   2.078   2.186   0.930  0.6150 -0.5581 -1.6210
  626SOL     OW 2776   3.710   5.657   5.310 -0.1753 -0.8834 -0.2018
  626SOL    HW1 2777   3.614   5.685   5.307  0.4494  1.5577  0.3450
  626SOL    HW2 2778   3.733   5.608   5.226 -1.2255  0.9948 -1.6678
  627SOL     OW 2779   5.822   3.684   5.860 -0.3063 -0.1101  0.1775
  627SOL    HW1 2780   5.754   3.757   5.857 -0.2658 -0.1031 -1.5677
  627SOL    HW2 2781   5.777   3.595   5.849 -0.0838 -0.1328 -0.6017
  628SOL     OW 2782   4.831   3.937   3.034  0.4149  0.3661  0.5891
  628SOL    HW1 2783   4.898   3.898   2.970  0.5602 -0.1541  1.0449
  628SOL    HW2 2784   4.772   4.002   2.986 -0.3471 -1.0019 -0.3932
  629SOL     OW 2785   1.477   0.982   2.717  0.2405  0.2928  0.3825
  629SOL    HW1 2786   1.554   0.925   2.747  0.0942  1.0305  2.2767
  629SOL    HW2 2787   1.393   0.929   2.721  0.3250  0.1739  0.6167
  630SOL     OW 2788   1.388   1.914   1.133 -0.3356  0.6136 -0.2302
  630SOL    HW1 2789   1.372   2.011   1.114 -1.6002  0.8072  1.5967
  630SOL    HW2 2790   1.419   1.904   1.227  2.4542 -0.5630 -1.1627
  631SOL     OW 2791   2.463   1.860   4.157  0.8379  0.3036  0.0511
  631SOL    HW1 2792   2.507   1.932   4.212  2.2497  0.3840 -1.1002
  631SOL    HW2 2793   2.521   1.779   4.157  0.6305  0.1434 -0.9079
  632SOL     OW 2794   4.548   6.745   0.070 -0.3458  0.0578 -0.3539
  632SOL    HW1 2795   4.614   6.818   0.091 -0.7934  0.8010 -1.4185
  632SOL    HW2 2796   4.523   6.751  -0.026 -1.9043 -0.2659  0.0139
  633SOL     OW 2797   2.235   0.640   4.567 -0.0713 -0.1179  0.1577
  633SOL    HW1 2798   2.327   0.617   4.597  0.1268  0.5185  0.0493
  633SOL    HW2 2799   2.181   0.673   4.645  0.1454  0.6022  0.0081
  634SOL     OW 2800   1.198   4.387   2.004  0.4868 -0.4447 -0.4146
  634SOL    HW1 2801   1.106   4.351   1.989  0.1805 -0.3174  0.9988
  634SOL    HW2 2802   1.213   4.465   1.944 -0.6097 -0.0109 -0.1525
  635SOL     OW 2803   5.044   6.800   0.890  0.6141  0.5973  0.1771
  635SOL    HW1 2804   5.132   6.764   0.922  0.7714  1.6528  0.9767
  635SOL    HW2 2805   4.993   6.837   0.968 -1.8121 -2.4893  0.2545
  636SOL     OW 2806   6.392   3.484   6.553 -0.0633 -0.1273 -0.2622
  636SOL    HW1 2807   6.458   3.483   6.628  1.8298  2.2117 -1.7562
  636SOL    HW2 2808   6.307   3.528   6.584  0.0764 -0.6662  0.9333
  637SOL     OW 2809   0.512   3.940   5.209 -0.1838  0.1081 -0.2963
  637SOL    HW1 2810   0.475   3.916   5.119 -0.7814  0.0937 -0.0527
  637SOL    HW2 2811   0.553   3.859   5.251  0.1049  0.1181 -0.5634
  638SOL     OW 2812   5.851   0.610   3.174 -0.1701  0.0168 -0.0815
  638SOL    HW1 2813   5.879   0.706   3.178  1.0730 -0.3640  1.5443
  638SOL    HW2 2814   5.908   0.556   3.237 -1.0783 -1.7309 -0.6904
  639SOL     OW 2815   2.212   1.873   0.855 -0.0847  0.7861  0.3275
  639SOL    HW1 2816   2.193   1.794   0.797 -0.5497  0.2802  1.1492
  639SOL    HW2 2817   2.284   1.928   0.813 -1.0825  0.9709 -1.2122
  640SOL     OW 2818   2.361   3.442   5.360 -0.0798  0.3942  0.0417
  640SOL    HW1 2819   2.459   3.463   5.364  0.0661 -0.2558  3.9595
  640SOL    HW2 2820   2.344   3.371   5.292  1.7806  1.9251 -2.1592
  641SOL     OW 2821   1.000   0.460   4.909 -0.0269  0.3982 -0.3004
  641SOL    HW1 2822   1.064   0.409   4.967  0.5848  1.8224  0.3337
  641SOL    HW2 2823   1.011   0.430   4.814  0.0376 -0.9010  0.0950
  642SOL     OW 2824   0.480   3.524   6.218  0.1747 -0.3093 -0.1364
  642SOL    HW1 2825   0.575   3.499   6.236 -0.1405 -2.8637 -1.5874
  642SOL    HW2 2826   0.425   3.502   6.299  0.8472  2.0233  1.0630
  643SOL     OW 2827   5.601   0.629   3.979  1.2663  0.3699 -0.7852
  643SOL    HW1 2828   5.688   0.672   4.004  1.1006  1.1869 -1.5697
  643SOL    HW2 2829   5.546   0.693   3.926  0.9932 -0.7941 -1.9733
  644SOL     OW 2830   4.179   6.174   0.488  0.0906  0.0919 -0.4557
  644SOL    HW1 2831   4.115   6.101   0.512 -1.4008  1.1149 -1.0824
  644SOL    HW2 2832   4.129   6.261   0.484  1.5544  0.9403 -0.9561
  645SOL     OW 2833   2.085   2.167   5.404  0.3745 -0.0945  0.2319
  645SOL    HW1 2834   2.004   2.217   5.375 -0.0062 -0.9859 -0.2996
  645SOL    HW2 2835   2.064   2.069   5.407  1.4943 -0.3599 -0.1667
  646SOL     OW 2836   1.461   5.263   2.555  0.0110 -0.0396 -0.5202
  646SOL    HW1 2837   1.392   5.245   2.626 -0.9095  0.8880 -1.1413
  646SOL    HW2 2838   1.551   5.238   2.589 -0.5753 -0.8622  0.4885
  647SOL     OW 2839   5.145   4.704   6.070  0.1335 -0.0707 -0.2399
  647SOL    HW1 2840   5.158   4.726   6.167  0.0176 -0.7229 -0.0685
  647SOL    HW2 2841   5.145   4.605   6.059 -2.7545 -0.1313 -0.4830
  648SOL     OW 2842   4.077   1.428   3.047 -0.3087  0.1098 -0.3083
  648SOL    HW1 2843   4.104   1.496   3.115  0.9417 -0.3748 -0.3013
  648SOL    HW2 2844   4.138   1.434   2.968 -1.1574  0.0248 -0.9862
  649SOL     OW 2845   4.876   3.672   1.952  0.3597 -0.0631 -0.4160
  649SOL    HW1 2846   4.814   3.602   1.917 -2.2231  2.1245 -0.5078
  649SOL    HW2 2847   4.940   3.700   1.880  1.3918 -2.1735 -0.3956
  650SOL     OW 2848   4.595   4.039   5.317  0.1558  0.0750  0.2642
  650SOL    HW1 2849   4.660   4.081   5.254  0.7656  1.8446  1.9566
  650SOL    HW2 2850   4.594   3.940   5.303  0.6172  0.3443 -2.1320
  651SOL     OW 2851   1.268   3.235   6.823 -0.1659  0.0782 -0.1330
  651SOL    HW1 2852   1.195   3.232   6.755  0.4180  0.2714 -0.7852
  651SOL    HW2 2853   1.230   3.257   6.913 -0.7401  1.5240 -0.6978
  652SOL     OW 2854   5.864   3.280   1.720 -0.9862 -0.2162 -0.8783
  652SOL    HW1 2855   5.816   3.197   1.694 -0.8574 -1.0159  1.2514
  652SOL    HW2 2856   5.957   3.278   1.684 -0.2001 -2.1596  1.1047
  653SOL     OW 2857   3.571   4.902   3.460  0.3829 -0.2230  0.2216
  653SOL    HW1 2858   3.651   4.887   3.519 -1.2546 -0.6223  2.4906
  653SOL    HW2 2859   3.504   4.958   3.509 -1.0897 -0.6017 -1.2760
  654SOL     OW 2860   0.028   2.866   6.786 -0.1998 -0.1654  0.1697
  654SOL    HW1 2861   0.015   2.962   6.810  0.8678 -0.1818  0.8911
  654SOL    HW2 2862   0.028   2.811   6.870  0.7677 -0.5856 -0.0897
  655SOL     OW 2863   0.786   0.592   6.404  0.3877 -0.0621 -0.4736
  655SOL    HW1 2864   0.714   0.599   6.473 -1.2463 -0.2739 -2.0906
  655SOL    HW2 2865   0.805   0.495   6.386  1.8484 -0.0333  0.6379
  656SOL     OW 2866   0.196   6.406   2.269 -0.4635 -0.0251  0.1941
  656SOL    HW1 2867   0.241   6.491   2.243 -1.3791  0.2748 -0.4365
  656SOL    HW2 2868   0.166   6.357   2.187 -1.4610 -0.1195  0.6017
  657SOL     OW 2869   6.412   1.829   4.978  0.2578  0.0065 -0.3638
  657SOL    HW1 2870   6.501   1.875   4.969  0.0240  0.5394 -0.0483
  657SOL    HW2 2871   6.388   1.824   5.075 -0.2515  0.2560 -0.4744
  658SOL     OW 2872   3.889   6.009   0.023 -0.1544 -0.3867 -0.3511
  658SOL    HW1 2873   3.924   5.957  -0.055 -0.1652  1.1702 -1.4329
  658SOL    HW2 2874   3.845   5.946   0.087  1.0275 -1.8704 -0.9334
  659SOL     OW 2875   2.845   0.467   1.297  0.0515  0.8677 -0.4300
  659SOL    HW1 2876   2.746   0.483   1.305  0.0781  0.2124  2.0581
  659SOL    HW2 2877   2.861   0.370   1.275  0.1229  0.5370  0.9702
  660SOL     OW 2878   4.826   6.597   3.739  0.1039 -0.4058  0.2958
  660SOL    HW1 2879   4.902   6.569   3.798 -0.5915 -3.1120  0.0739
  660SOL    HW2 2880   4.861   6.645   3.659  1.6821 -1.9793 -0.0273
  661SOL     OW 2881   6.612   4.801   3.355 -0.2091  0.5218 -0.1214
  661SOL    HW1 2882   6.575   4.893   3.338  2.8290  2.3453  2.0934
  661SOL    HW2 2883   6.543   4.747   3.404 -1.9185  1.7183 -1.0767
  662SOL     OW 2884   3.723   1.723   6.365  0.1204 -0.0748 -0.4932
  662SOL    HW1 2885   3.651   1.758   6.425 -0.1969  0.9783 -1.4677
  662SOL    HW2 2886   3.733   1.783   6.286  0.9216 -1.1345 -1.2207
  663SOL     OW 2887   3.682   1.172   4.238 -0.1980 -0.0122  0.2170
  663SOL    HW1 2888   3.697   1.267   4.268  0.2946  0.1886 -0.6360
  663SOL    HW2 2889   3.743   1.111   4.288 -1.4950 -0.0805  1.8010
  664SOL     OW 2890   6.347   1.529   4.410  0.0871 -0.4830 -0.5374
  664SOL    HW1 2891   6.427   1.491   4.363  2.7961  3.3751  0.4592
  664SOL    HW2 2892   6.318   1.613   4.364 -3.9810 -2.0335 -1.2092
  665SOL     OW 2893   2.044   4.258   2.216  0.1393  0.7394  0.1551
  665SOL    HW1 2894   2.125   4.221   2.262  0.1444  0.7032  0.1164
  665SOL    HW2 2895   2.071   4.304   2.132  0.2209  1.5252  0.6002
  666SOL     OW 2896   3.371   0.137   4.569 -0.2892 -0.0365  0.4629
  666SOL    HW1 2897   3.401   0.223   4.611  0.0805 -0.4451  1.0543
  666SOL    HW2 2898   3.272   0.130   4.573 -0.3744  0.6545 -0.1724
  667SOL     OW 2899   5.939   0.271   0.624  0.7304  0.1598 -0.0629
  667SOL    HW1 2900   5.898   0.264   0.715  1.8959 -0.3313  0.4399
  667SOL    HW2 2901   5.974   0.364   0.611  0.1124  0.3731 -0.2100
  668SOL     OW 2902   3.282   3.612   5.766 -0.1163  0.0648 -0.1527
  668SOL    HW1 2903   3.205   3.675   5.777  0.5158  0.6283  1.3921
  668SOL    HW2 2904   3.272   3.535   5.828  0.8205  0.4326  0.4875
  669SOL     OW 2905   5.148   0.723   2.934 -0.2165 -0.0199 -0.5503
  669SOL    HW1 2906   5.167   0.653   2.866  0.0477  0.7281 -1.2644
  669SOL    HW2 2907   5.232   0.775   2.953 -0.3029 -0.1736  0.2943
  670SOL     OW 2908   3.794   1.961   1.207  0.2076 -0.3953 -0.1434
  670SOL    HW1 2909   3.804   1.865   1.235 -0.3784 -0.7031 -0.9561
  670SOL    HW2 2910   3.800   2.019   1.288 -0.5506 -1.1965  0.5223
  671SOL     OW 2911   1.626   4.407   1.121  0.1845  0.1771 -0.1266
  671SOL    HW1 2912   1.548   4.395   1.059  0.2506  0.8910 -0.3585
  671SOL    HW2 2913   1.616   4.344   1.198 -0.6394  0.2653 -0.1437
  672SOL     OW 2914   0.965   1.401   2.218  0.1603 -0.3520  0.3291
  672SOL    HW1 2915   0.889   1.399   2.282 -1.1800  0.0939 -1.1917
  672SOL    HW2 2916   0.971   1.491   2.175  1.5161 -0.3960  0.3609
  673SOL     OW 2917   6.712   0.383   0.367  0.1735  0.3385  0.2062
  673SOL    HW1 2918   6.728   0.450   0.295 -0.2068 -1.3194 -1.4991
  673SOL    HW2 2919   6.737   0.292   0.334 -1.2785 -0.6667  1.7087
  674SOL     OW 2920   5.179   6.336   4.441  0.1825 -0.0201  0.2484
  674SOL    HW1 2921   5.149   6.393   4.364  1.1709  1.4420  0.9071
  674SOL    HW2 2922   5.237   6.262   4.407  0.0009  0.1650 -0.4828
  675SOL     OW 2923   0.200   5.053   0.827 -0.2399 -0.1901 -0.3927
  675SOL    HW1 2924   0.283   5.097   0.861 -0.3168 -0.8082  0.6153
  675SOL    HW2 2925   0.214   4.954   0.822 -0.7214 -0.2442 -0.7686
  676SOL     OW 2926   1.964   5.330   1.142 -0.0963  0.2693  0.2111
  676SOL    HW1 2927   1.902   5.268   1.095  0.8429  0.2367 -1.0365
  676SOL    HW2 2928   2.056   5.292   1.142  0.1415  0.7985  1.1245
  677SOL     OW 2929   4.254   5.788   6.242  0.3036  0.0215 -0.1382
  677SOL    HW1 2930   4.270   5.689   6.249 -1.2469 -0.1874  1.2215
  677SOL    HW2 2931   4.161   5.808   6.274  1.1191  2.1021  1.1027
  678SOL     OW 2932   6.937   5.155   2.384 -0.1864 -0.1121  0.2135
  678SOL    HW1 2933   6.907   5.220   2.315  1.4871  0.2777 -0.1946
  678SOL    HW2 2934   6.864   5.089   2.402 -0.9784  0.3166 -1.2669
  679SOL     OW 2935   5.902   0.897   5.572 -0.4158 -0.1538  0.1631
  679SOL    HW1 2936   5.963   0.901   5.652 -1.8391  1.8208  1.2538
  679SOL    HW2 2937   5.840   0.975   5.574 -0.5544 -0.0691 -2.9107
  680SOL     OW 2938   5.499   2.455   3.330  0.2761 -0.3571  0.6717
  680SOL    HW1 2939   5.449   2.431   3.247  1.5223 -0.5668 -0.0478
  680SOL    HW2 2940   5.544   2.373   3.366  1.1653  0.0680  0.5540
  681SOL     OW 2941   3.562   5.104   0.822  0.0424  0.4917  0.2452
  681SOL    HW1 2942   3.489   5.148   0.874 -2.6632 -1.9268 -1.2016
  681SOL    HW2 2943   3.551   5.004   0.827  0.6433  0.0848 -3.4608
  682SOL     OW 2944   6.536   2.580   4.882  0.5475 -0.2326  0.7308
  682SOL    HW1 2945   6.600   2.510   4.915  1.2327  0.1088  0.1447
  682SOL    HW2 2946   6.525   2.651   4.951  0.6143 -0.4158  0.9308
  683SOL     OW 2947   4.553   4.690   1.008 -0.4018 -0.1012 -0.6369
  683SOL    HW1 2948   4.633   4.741   0.977  0.7793 -0.7773  1.1578
  683SOL    HW2 2949   4.482   4.754   1.037 -0.2507  0.4975 -1.5510
  684SOL     OW 2950   0.272   3.674   0.651  0.3029  0.0464  0.1533
  684SOL    HW1 2951   0.198   3.680   0.718 -0.1300  0.6959 -0.3664
  684SOL    HW2 2952   0.247   3.608   0.580  1.0027 -1.0617  0.9077
  685SOL     OW 2953   4.388   5.843   2.131 -0.6113 -0.0469  0.4001
  685SOL    HW1 2954   4.416   5.752   2.103 -0.1307 -0.1939  1.3344
  685SOL    HW2 2955   4.308   5.837   2.191 -0.3466  0.1069  0.7785
  686SOL     OW 2956   1.272   0.103   6.140 -0.1522 -0.2532 -0.3286
  686SOL    HW1 2957   1.264   0.081   6.042  0.1103  0.9877 -0.6374
  686SOL    HW2 2958   1.187   0.146   6.171  0.0428  0.0265 -0.1875
  687SOL     OW 2959   1.870   0.391   3.959  0.5880  0.1716  0.6189
  687SOL    HW1 2960   1.890   0.306   3.912  0.8777  1.2147 -1.2235
  687SOL    HW2 2961   1.955   0.440   3.977  0.3016  0.8786  0.0778
  688SOL     OW 2962   6.418   4.187   5.627  0.5354 -0.4500  0.1904
  688SOL    HW1 2963   6.404   4.145   5.537  0.1167 -0.5400  0.2935
  688SOL    HW2 2964   6.509   4.228   5.631  0.4919 -0.2904 -0.3391
  689SOL     OW 2965   2.261   6.265   0.181  0.7216  0.0239 -0.1327
  689SOL    HW1 2966   2.274   6.364   0.182  3.5631 -0.2646  0.1790
  689SOL    HW2 2967   2.319   6.225   0.111  0.5644 -1.5383  0.5959
  690SOL     OW 2968   6.900   1.829   0.093 -0.0825 -0.1092  0.4367
  690SOL    HW1 2969   6.843   1.895   0.044 -0.7350 -0.2969  0.9307
  690SOL    HW2 2970   6.884   1.737   0.056  1.4182  0.0665 -0.8043
  691SOL     OW 2971   3.495   1.361   3.215 -0.1614 -0.3170 -0.3789
  691SOL    HW1 2972   3.536   1.279   3.255  0.3901 -0.1919 -0.6827
  691SOL    HW2 2973   3.557   1.439   3.229 -0.9197  0.1616  0.3825
  692SOL     OW 2974   2.303   6.620   4.751 -0.2796 -0.3024 -0.3963
  692SOL    HW1 2975   2.339   6.612   4.844 -1.5623 -0.4913  0.1000
  692SOL    HW2 2976   2.255   6.707   4.741  3.4443  1.8079 -2.2130
  693SOL     OW 2977   5.567   4.196   3.579 -0.1283 -0.2390  0.2229
  693SOL    HW1 2978   5.502   4.195   3.656 -0.5100  1.0967 -0.0671
  693SOL    HW2 2979   5.533   4.136   3.507 -0.7382 -0.0178  0.3197
  694SOL     OW 2980   4.200   5.354   2.321  0.2860  0.3220 -0.4263
  694SOL    HW1 2981   4.270   5.283   2.333  0.3975  0.3453 -0.9260
  694SOL    HW2 2982   4.131   5.323   2.256 -0.3892  0.1430  0.3651
  695SOL     OW 2983   4.510   5.813   4.605 -0.4294  0.2587  0.3316
  695SOL    HW1 2984   4.605   5.788   4.588 -0.4678  0.3149  0.0101
  695SOL    HW2 2985   4.496   5.830   4.702 -0.4868 -1.3013  0.6160
  696SOL     OW 2986   6.688   5.280   2.614 -0.4252  0.3091 -0.0409
  696SOL    HW1 2987   6.758   5.340   2.576  2.0940  0.6101  4.3964
  696SOL    HW2 2988   6.615   5.336   2.654 -0.5945  0.1837 -0.1715
  697SOL     OW 2989   5.708   6.116   0.830 -0.2428  0.6620  0.1871
  697SOL    HW1 2990   5.642   6.141   0.901  0.0723 -1.3734  1.2933
  697SOL    HW2 2991   5.665   6.125   0.740 -1.8759 -0.0288  0.8472
  698SOL     OW 2992   6.141   5.605   5.936  0.7951  0.0454  0.4079
  698SOL    HW1 2993   6.057   5.645   5.973 -0.9449 -1.6230 -1.5314
  698SOL    HW2 2994   6.220   5.660   5.966 -1.0109  2.1165  1.6612
  699SOL     OW 2995   5.836   2.461   0.414  0.1247 -0.1620 -0.1614
  699SOL    HW1 2996   5.769   2.468   0.488 -1.1654 -0.2609 -1.2844
  699SOL    HW2 2997   5.928   2.464   0.452 -0.5035 -1.1030  1.5306
  700SOL     OW 2998   2.844   6.449   5.289  0.4454  0.1328  0.4944
  700SOL    HW1 2999   2.759   6.489   5.324  1.1193  1.0967  1.0847
  700SOL    HW2 3000   2.823   6.368   5.234 -1.0648  1.9320 -1.7219
  701SOL     OW 3001   3.565   4.934   2.468  0.2517 -0.7220 -0.7392
  701SOL    HW1 3002   3.659   4.935   2.433 -0.5613  2.9937 -3.4129
  701SOL    HW2 3003   3.502   4.908   2.395 -1.0144 -0.0602  0.0666
  702SOL     OW 3004   4.828   1.493   4.793  0.1392 -0.2754 -0.0419
  702SOL    HW1 3005   4.801   1.557   4.866  0.2730  0.6435 -0.7758
  702SOL    HW2 3006   4.785   1.405   4.809 -0.1984  0.0484  0.9090
  703SOL     OW 3007   3.221   3.092   0.480 -0.5850 -0.6205  0.6941
  703SOL    HW1 3008   3.260   3.021   0.420 -1.2782  0.1361 -0.6786
  703SOL    HW2 3009   3.296   3.140   0.526 -0.1024 -2.2874  1.7367
  704SOL     OW 3010   2.593   0.942   6.712  0.4347 -0.0656 -0.0117
  704SOL    HW1 3011   2.646   1.021   6.743 -1.7258  1.4792 -0.0094
  704SOL    HW2 3012   2.502   0.944   6.755 -0.7170 -0.8969 -2.2486
  705SOL     OW 3013   6.983   5.772   5.036 -0.5909 -0.5327 -0.4815
  705SOL    HW1 3014   6.958   5.767   5.133  0.3505  1.6445 -0.0739
  705SOL    HW2 3015   7.032   5.689   5.011 -0.3514 -0.8985  1.0467
  706SOL     OW 3016   4.085   2.053   4.746  0.1891 -0.4397  0.5932
  706SOL    HW1 3017   4.157   2.098   4.799 -0.7839  2.2273 -0.1726
  706SOL    HW2 3018   3.997   2.094   4.768 -0.6856 -1.5606 -0.6754
  707SOL     OW 3019   4.218   4.851   2.293 -0.5520 -0.4590 -0.1511
  707SOL    HW1 3020   4.203   4.928   2.355  0.4826  0.5130 -1.0645
  707SOL    HW2 3021   4.243   4.770   2.346 -1.3593 -0.1083  0.8023
  708SOL     OW 3022   3.324   0.295   5.772  0.7536  0.1124 -0.4881
  708SOL    HW1 3023   3.231   0.319   5.748  1.2590  2.8357 -0.0163
  708SOL    HW2 3024   3.333   0.289   5.872  1.1710  0.2201 -0.5149
  709SOL     OW 3025   2.929   6.165   2.894  0.4210 -0.2020 -0.7232
  709SOL    HW1 3026   2.851   6.125   2.943 -0.0065  1.6116  0.1525
  709SOL    HW2 3027   2.922   6.143   2.797 -1.8545  0.8880 -0.8683
  710SOL     OW 3028   5.037   4.654   2.130 -0.1359 -0.0170  0.5920
  710SOL    HW1 3029   5.073   4.606   2.050  1.1725 -1.8775  2.2012
  710SOL    HW2 3030   4.952   4.611   2.160 -1.6667  1.8345 -0.7837
  711SOL     OW 3031   6.893   1.448   2.062  0.0989  0.6623  0.4365
  711SOL    HW1 3032   6.819   1.467   2.126 -1.4376 -2.0971 -0.3431
  711SOL    HW2 3033   6.979   1.437   2.112 -0.8930 -0.5433  1.9581
  712SOL     OW 3034   5.819   4.589   6.856  0.5277  0.2482 -0.0449
  712SOL    HW1 3035   5.914   4.610   6.878  0.1373  0.9502  1.0284
  712SOL    HW2 3036   5.782   4.528   6.926 -0.2859  1.2681  0.4176
  713SOL     OW 3037   2.753   3.101   6.622 -0.0649 -0.7411  0.5744
  713SOL    HW1 3038   2.850   3.124   6.624 -0.6630  2.4326 -1.1537
  713SOL    HW2 3039   2.733   3.051   6.538 -0.2724  0.8108 -0.3381
  714SOL     OW 3040   2.412   5.568   1.349  0.0309 -0.0482 -0.2451
  714SOL    HW1 3041   2.392   5.505   1.424  2.8069 -0.5308  0.1835
  714SOL    HW2 3042   2.448   5.517   1.271  1.1674  0.8551 -0.3325
  715SOL     OW 3043   0.001   5.756   0.024 -0.3595 -0.2163 -0.2471
  715SOL    HW1 3044   0.021   5.767   0.121 -0.8743  1.0679 -0.2646
  715SOL    HW2 3045  -0.096   5.777   0.007 -0.4173 -0.9930 -0.9584
  716SOL     OW 3046   2.949   0.862   3.083 -0.1516 -0.4998 -0.1096
  716SOL    HW1 3047   2.882   0.789   3.094  0.2376 -0.7746  0.4762
  716SOL    HW2 3048   2.902   0.950   3.072 -0.6089 -0.7457 -0.1263
  717SOL     OW 3049   6.124   3.617   5.066  0.2371  0.2244  0.2784
  717SOL    HW1 3050   6.152   3.521   5.058  1.2743  0.3430  1.9676
  717SOL    HW2 3051   6.203   3.676   5.052 -0.8515  1.0576 -3.3972
  718SOL     OW 3052   0.274   2.356   4.686  0.2129  0.1703  0.2597
  718SOL    HW1 3053   0.321   2.432   4.731  1.2881 -0.8207  0.8724
  718SOL    HW2 3054   0.323   2.331   4.603  1.1308 -1.1977  1.1646
  719SOL     OW 3055   5.634   6.083   1.951 -0.2568 -0.5372  0.0779
  719SOL    HW1 3056   5.698   6.053   2.023  0.7100  0.4983 -0.3128
  719SOL    HW2 3057   5.571   6.009   1.930  0.9597 -1.6914  0.3284
  720SOL     OW 3058   2.095   6.500   6.383  0.1129  0.9907  0.3222
  720SOL    HW1 3059   2.033   6.546   6.447 -1.7084 -2.2942  1.1143
  720SOL    HW2 3060   2.187   6.495   6.423 -0.0201  2.4485  0.8739
  721SOL     OW 3061   6.706   3.157   2.564 -0.2117 -0.3162 -0.2794
  721SOL    HW1 3062   6.742   3.085   2.623  0.0381  0.0698  0.0457
  721SOL    HW2 3063   6.652   3.116   2.491 -0.8293 -0.7820  0.4196
  722SOL     OW 3064   5.998   5.986   6.884 -0.0232 -0.4047 -0.1913
  722SOL    HW1 3065   5.907   5.986   6.927  0.0758 -0.8799  0.0219
  722SOL    HW2 3066   6.048   6.068   6.913 -0.8832  0.5843 -1.4042
  723SOL     OW 3067   2.742   0.829   5.015 -0.2205  0.8650 -0.4793
  723SOL    HW1 3068   2.692   0.790   4.938  2.4087 -0.2237 -1.7547
  723SOL    HW2 3069   2.748   0.761   5.089  1.0272  0.2206 -1.1420
  724SOL     OW 3070   0.959   2.495   3.559 -0.0488 -0.3122  0.1687
  724SOL    HW1 3071   0.902   2.548   3.622 -0.1589 -2.5002  2.0374
  724SOL    HW2 3072   0.902   2.438   3.501  0.0888  1.2046 -1.5330
  725SOL     OW 3073   1.292   2.972   3.911 -0.3091  0.1444  0.3585
  725SOL    HW1 3074   1.333   2.898   3.857 -1.0196  0.2006 -0.2678
  725SOL    HW2 3075   1.348   2.989   3.992 -0.0316 -0.9463  0.4072
  726SOL     OW 3076   3.752   1.598   1.725  0.4321  0.0673  0.3226
  726SOL    HW1 3077   3.734   1.516   1.780  1.5264 -1.3875 -1.3594
  726SOL    HW2 3078   3.785   1.570   1.635 -0.7532  2.3782 -0.8973
  727SOL     OW 3079   4.792   3.320   6.996  0.0561 -0.0118 -0.5007
  727SOL    HW1 3080   4.822   3.229   6.968  0.2649 -0.5805  1.4206
  727SOL    HW2 3081   4.693   3.320   7.009 -0.1301  0.4285 -1.7874
  728SOL     OW 3082   0.011   3.051   5.172 -0.9128  0.3800  0.0155
  728SOL    HW1 3083  -0.003   2.974   5.109 -0.6089  0.1373  0.2389
  728SOL    HW2 3084   0.016   3.136   5.120  0.6557  0.0486 -0.4458
  729SOL     OW 3085   0.178   5.869   0.933  0.4660 -0.3006  0.3282
  729SOL    HW1 3086   0.111   5.942   0.949  1.5687  0.7379  0.4013
  729SOL    HW2 3087   0.143   5.783   0.971 -0.9007  0.1555  0.1838
  730SOL     OW 3088   3.520   2.109   2.545  0.0619  0.2029  0.2419
  730SOL    HW1 3089   3.554   2.064   2.463  1.8088  0.4566  0.7799
  730SOL    HW2 3090   3.436   2.159   2.523 -0.7221 -1.4984 -0.8466
  731SOL     OW 3091   6.609   5.151   4.766  0.1206 -0.2764 -0.0449
  731SOL    HW1 3092   6.584   5.229   4.708 -0.9249  0.4516  1.3169
  731SOL    HW2 3093   6.707   5.156   4.788  0.4994 -0.4867 -1.5893
  732SOL     OW 3094   2.881   0.122   5.435  0.0394 -0.0450  0.6911
  732SOL    HW1 3095   2.865   0.029   5.470  0.8144  0.0502  1.3251
  732SOL    HW2 3096   2.804   0.181   5.462  0.3848 -0.0922  1.8502
  733SOL     OW 3097   5.520   3.655   4.632  0.3821 -0.0701  0.5271
  733SOL    HW1 3098   5.546   3.698   4.545  1.4036  0.8542  1.2547
  733SOL    HW2 3099   5.603   3.629   4.682 -0.1462  0.5422  1.7561
  734SOL     OW 3100   6.415   4.288   5.268 -0.4376  0.1077  0.3365
  734SOL    HW1 3101   6.447   4.193   5.271  0.4600  0.3553 -0.6186
  734SOL    HW2 3102   6.332   4.293   5.212 -1.2119 -0.2885  1.4277
  735SOL     OW 3103   5.025   3.348   3.447  0.6946  0.2647  0.1092
  735SOL    HW1 3104   5.095   3.363   3.516 -0.0541 -0.9363  1.1901
  735SOL    HW2 3105   5.067   3.344   3.356  2.0431 -0.5705  0.7382
  736SOL     OW 3106   2.190   0.457   2.768 -0.1684 -0.1759 -0.1166
  736SOL    HW1 3107   2.240   0.509   2.699  0.2118 -1.0835 -0.5449
  736SOL    HW2 3108   2.166   0.517   2.844 -1.6632  1.1432 -1.5631
  737SOL     OW 3109   4.027   3.812   5.810  0.5868 -0.0366  0.3947
  737SOL    HW1 3110   3.928   3.827   5.811  0.7585  1.4511 -1.0147
  737SOL    HW2 3111   4.071   3.872   5.877  0.6909  0.8841 -0.4743
  738SOL     OW 3112   1.819   4.709   1.021 -0.2940 -0.4364  0.2637
  738SOL    HW1 3113   1.856   4.640   0.960 -0.8208  0.6292 -1.3322
  738SOL    HW2 3114   1.748   4.761   0.974 -0.9390  0.2490  1.8926
  739SOL     OW 3115   2.022   1.664   1.806  0.4302  0.2860  0.0515
  739SOL    HW1 3116   2.021   1.727   1.884  2.5118  0.8496 -0.3284
  739SOL    HW2 3117   1.977   1.706   1.728  0.2774  0.5974  0.3055
  740SOL     OW 3118   4.877   3.470   3.065 -0.1184 -0.3324  0.1594
  740SOL    HW1 3119   4.872   3.552   3.122  0.2198 -0.7724  0.8328
  740SOL    HW2 3120   4.801   3.469   3.001  0.3791  0.9690 -0.4848
  741SOL     OW 3121   3.589   7.004   1.045  0.0310 -0.3335  0.5728
  741SOL    HW1 3122   3.668   7.065   1.035  0.5056 -1.0670 -0.3148
  741SOL    HW2 3123   3.608   6.936   1.115  0.2900 -0.6635  0.1833
  742SOL     OW 3124   1.932   1.431   1.943  0.2647 -0.4832  0.2563
  742SOL    HW1 3125   1.843   1.424   1.900 -0.3701  1.1849  1.2032
  742SOL    HW2 3126   1.977   1.515   1.913  1.0828 -0.8043  0.5597
  743SOL     OW 3127   5.745   1.073   2.496 -0.8022  0.1694  0.4811
  743SOL    HW1 3128   5.765   1.131   2.576  1.5840  0.0984  0.0236
  743SOL    HW2 3129   5.794   0.986   2.505  0.1043  0.4351 -1.3438
  744SOL     OW 3130   5.699   6.898   1.115 -0.0117 -0.0683  0.6633
  744SOL    HW1 3131   5.748   6.865   1.195  0.2945 -0.7052  0.2236
  744SOL    HW2 3132   5.759   6.892   1.035 -0.4403  0.2025  0.3136
  745SOL     OW 3133   1.802   5.537   0.084  0.3835  0.5364  0.4989
  745SOL    HW1 3134   1.864   5.614   0.068 -0.1720  0.8075 -0.4164
  745SOL    HW2 3135   1.726   5.567   0.142 -0.0794  0.8215 -0.2364
  746SOL     OW 3136   6.645   5.108   6.979  0.0443 -0.1830 -0.0703
  746SOL    HW1 3137   6.614   5.167   6.905 -0.9371 -0.9924 -0.3263
  746SOL    HW2 3138   6.592   5.024   6.979  0.9743 -0.7901  0.6987
  747SOL     OW 3139   2.719   5.345   2.507  0.3283  0.0310 -0.2922
  747SOL    HW1 3140   2.772   5.261   2.518 -0.6733 -0.4716  0.8707
  747SOL    HW2 3141   2.623   5.323   2.492  0.2124  0.9626 -1.0336
  748SOL     OW 3142   6.899   6.732   2.677  0.3125 -0.1133 -0.4199
  748SOL    HW1 3143   6.887   6.645   2.628 -0.4690 -0.0889 -0.2877
  748SOL    HW2 3144   6.813   6.783   2.675  0.2753 -0.0929  0.9349
  749SOL     OW 3145   5.718   4.213   5.316 -0.2615  0.7794 -0.2601
  749SOL    HW1 3146   5.785   4.208   5.389 -0.4402  2.7265  0.0788
  749SOL    HW2 3147   5.636   4.163   5.343  1.0745 -1.8697 -0.7981
  750SOL     OW 3148   2.123   2.463   3.829  0.6888  0.1719  0.3335
  750SOL    HW1 3149   2.081   2.376   3.803  1.7570  0.1886 -1.6283
  750SOL    HW2 3150   2.217   2.467   3.794  0.5177  2.2868 -0.0070
  751SOL     OW 3151   4.879   5.642   0.227 -0.0321 -0.3172  0.0519
  751SOL    HW1 3152   4.965   5.629   0.178 -0.4070  0.9555 -1.0239
  751SOL    HW2 3153   4.803   5.613   0.169 -0.5033  1.4848 -0.2936
  752SOL     OW 3154   3.213   3.832   2.377 -0.1254  0.2697 -0.2229
  752SOL    HW1 3155   3.213   3.737   2.408 -0.4611 -0.1920 -1.5461
  752SOL    HW2 3156   3.125   3.853   2.334  0.2288  0.9278 -0.6554
  753SOL     OW 3157   3.564   3.555   3.390 -0.1553 -0.3667 -0.2850
  753SOL    HW1 3158   3.641   3.518   3.339  2.1408  2.5420  0.7205
  753SOL    HW2 3159   3.570   3.525   3.486  3.3562  4.0357  1.2599
  754SOL     OW 3160   3.276   0.533   6.052  0.6522 -0.1576  0.2297
  754SOL    HW1 3161   3.288   0.572   6.144  0.5604 -3.1267  1.6314
  754SOL    HW2 3162   3.219   0.594   5.998 -0.1846  1.2290  2.5028
  755SOL     OW 3163   5.767   3.987   4.940  0.3806 -0.2697  0.3780
  755SOL    HW1 3164   5.678   4.005   4.982  1.3243  1.5543  1.7539
  755SOL    HW2 3165   5.835   3.972   5.011  1.5024  0.0603 -0.5956
  756SOL     OW 3166   1.163   6.549   5.651 -0.3592  0.1084  1.4483
  756SOL    HW1 3167   1.130   6.508   5.565  2.3441  1.7192 -0.5385
  756SOL    HW2 3168   1.238   6.493   5.687  0.0163  0.6366  1.4893
  757SOL     OW 3169   5.842   0.556   1.515  0.0118 -0.3756  0.0224
  757SOL    HW1 3170   5.884   0.638   1.477  0.1080 -0.3807  0.1164
  757SOL    HW2 3171   5.814   0.574   1.610  2.0310 -1.1164  0.8016
  758SOL     OW 3172   2.873   0.003   0.674 -0.3081  0.8789 -0.5316
  758SOL    HW1 3173   2.917   0.089   0.648 -0.3310  1.2162  0.5287
  758SOL    HW2 3174   2.834   0.011   0.765 -1.2355  0.0794 -0.8379
  759SOL     OW 3175   0.769   3.707   4.635  0.1962 -0.5988 -0.1250
  759SOL    HW1 3176   0.705   3.634   4.610 -0.1869  0.4768 -2.4705
  759SOL    HW2 3177   0.718   3.792   4.649  0.9378 -0.1491 -0.1344
  760SOL     OW 3178   0.076   5.343   4.197 -0.5172  0.5554  0.2355
  760SOL    HW1 3179   0.020   5.260   4.199  0.3732 -0.0926 -0.5883
  760SOL    HW2 3180   0.152   5.333   4.263 -0.8429  1.0513  0.6961
  761SOL     OW 3181   6.632   5.750   6.730 -0.8833 -0.4311  0.5788
  761SOL    HW1 3182   6.580   5.671   6.698 -0.8584 -0.7789  1.3759
  761SOL    HW2 3183   6.574   5.808   6.787 -1.2954  0.8525 -1.0527
  762SOL     OW 3184   3.875   6.214   1.539  0.3290 -0.4828  0.1836
  762SOL    HW1 3185   3.961   6.240   1.495  0.2333  0.0682  0.3102
  762SOL    HW2 3186   3.808   6.188   1.470 -0.2378  1.6127 -0.1324
  763SOL     OW 3187   6.669   1.052   0.568 -0.2260  0.1836 -0.1422
  763SOL    HW1 3188   6.767   1.052   0.546 -0.4285 -0.6978 -1.1785
  763SOL    HW2 3189   6.652   1.113   0.645  1.1521  0.2828  0.1186
  764SOL     OW 3190   4.721   6.421   6.010 -0.7301  0.5376 -0.1986
  764SOL    HW1 3191   4.728   6.380   6.101 -0.5191  1.1999  0.0893
  764SOL    HW2 3192   4.631   6.401   5.972 -0.9180  0.4748  0.2684
  765SOL     OW 3193   5.675   6.588   4.566 -0.3184 -0.6368 -0.1648
  765SOL    HW1 3194   5.599   6.576   4.502 -0.3775 -0.5399 -0.1131
  765SOL    HW2 3195   5.747   6.521   4.546  0.1194  0.0585 -0.9940
  766SOL     OW 3196   3.882   0.169   3.588  0.5993  0.5295 -0.4299
  766SOL    HW1 3197   3.841   0.193   3.500  1.8380  2.2558 -0.5815
  766SOL    HW2 3198   3.977   0.201   3.591  1.2862 -1.4403  0.7235
  767SOL     OW 3199   1.064   0.377   4.200 -0.3727  0.8102  0.4040
  767SOL    HW1 3200   1.012   0.435   4.138 -0.7444  0.0978  0.0325
  767SOL    HW2 3201   1.045   0.281   4.179  1.4293  0.5068 -0.0552
  768SOL     OW 3202   2.151   5.030   0.882 -0.3988  0.4124  0.1310
  768SOL    HW1 3203   2.098   5.079   0.813 -0.4797  0.0998 -0.0305
  768SOL    HW2 3204   2.089   4.986   0.947 -0.3915 -0.8143 -0.6437
  769SOL     OW 3205   5.378   3.894   5.582  0.4994  0.3464  0.5609
  769SOL    HW1 3206   5.418   3.812   5.542  0.6498  0.5714  0.2477
  769SOL    HW2 3207   5.278   3.887   5.578  0.5102  0.1035  0.6943
  770SOL     OW 3208   0.790   5.440   0.286  0.5233  0.2239 -0.2529
  770SOL    HW1 3209   0.776   5.346   0.317 -0.0452 -0.2323 -1.7686
  770SOL    HW2 3210   0.738   5.503   0.345 -0.3349 -0.5681 -0.1384
  771SOL     OW 3211   1.206   5.160   3.865 -0.7461 -0.1717 -0.4731
  771SOL    HW1 3212   1.278   5.222   3.837 -0.3640 -1.1575 -1.7798
  771SOL    HW2 3213   1.232   5.114   3.950  1.1022 -1.9469 -1.9135
  772SOL     OW 3214   0.334   5.350   5.929 -0.0368 -0.3689 -0.1734
  772SOL    HW1 3215   0.412   5.306   5.884  0.1120  1.1076 -1.4524
  772SOL    HW2 3216   0.364   5.433   5.974 -0.4708 -1.0593  1.4568
  773SOL     OW 3217   0.680   6.095   4.860 -0.5439 -0.6310  0.8731
  773SOL    HW1 3218   0.616   6.130   4.792 -1.0553 -0.5920  1.3646
  773SOL    HW2 3219   0.721   6.010   4.827  1.3909  0.8230 -0.7299
  774SOL     OW 3220   2.308   1.721   3.760  0.2075 -0.2629  0.1365
  774SOL    HW1 3221   2.245   1.703   3.836 -0.7748  0.5682 -0.4440
  774SOL    HW2 3222   2.389   1.768   3.794 -0.9864  1.6496  0.4701
  775SOL     OW 3223   1.674   5.259   2.923 -0.2920 -0.7516  0.2012
  775SOL    HW1 3224   1.604   5.302   2.980 -0.3906 -0.1381 -0.3781
  775SOL    HW2 3225   1.739   5.328   2.892  0.2007 -1.2139  0.1994
  776SOL     OW 3226   3.201   4.711   1.339 -0.8081 -0.0666  0.0348
  776SOL    HW1 3227   3.285   4.707   1.393  0.8881 -0.4974 -2.4640
  776SOL    HW2 3228   3.159   4.620   1.334 -1.6322  0.1945  1.4786
  777SOL     OW 3229   0.362   3.832   5.713 -0.3489 -0.6623  0.0065
  777SOL    HW1 3230   0.268   3.845   5.743 -0.0815 -1.5623  1.2883
  777SOL    HW2 3231   0.410   3.772   5.777  1.8001  1.7146  0.8071
  778SOL     OW 3232   3.736   6.602   0.709 -0.6594  0.1485  0.0088
  778SOL    HW1 3233   3.709   6.697   0.720 -0.5757  0.3295 -1.1870
  778SOL    HW2 3234   3.655   6.546   0.688 -1.2160 -0.6081  3.6033
  779SOL     OW 3235   4.753   2.012   4.852 -0.0159  0.1446  0.0210
  779SOL    HW1 3236   4.781   1.959   4.773 -1.5008 -1.3934  0.4689
  779SOL    HW2 3237   4.812   2.092   4.862  3.6005 -2.3633  0.4360
  780SOL     OW 3238   6.420   6.633   5.519  0.8191  0.7166  0.1764
  780SOL    HW1 3239   6.417   6.638   5.419 -0.7923 -0.1623  0.1387
  780SOL    HW2 3240   6.512   6.653   5.551  1.9197 -1.1480 -1.6282
  781SOL     OW 3241   0.918   5.043   6.862 -0.1432  0.1755 -0.0435
  781SOL    HW1 3242   0.934   5.069   6.957 -0.7217  0.6437 -0.0743
  781SOL    HW2 3243   0.925   5.123   6.803 -0.6876  0.0474 -0.2871
  782SOL     OW 3244   1.966   2.969   6.732 -0.1299 -0.4121 -0.0059
  782SOL    HW1 3245   1.881   3.017   6.712  1.5580  2.1519 -1.4983
  782SOL    HW2 3246   1.970   2.948   6.830 -2.0080  0.2832  0.2553
  783SOL     OW 3247   0.627   3.616   5.551 -0.3958  0.4289  0.0388
  783SOL    HW1 3248   0.584   3.663   5.628  0.9010  1.1742  0.3433
  783SOL    HW2 3249   0.666   3.530   5.581 -2.2000 -0.5790 -0.3796
  784SOL     OW 3250   1.624   5.333   0.366  0.3263 -0.2817 -0.8733
  784SOL    HW1 3251   1.697   5.398   0.386  0.2004 -0.3863 -0.0659
  784SOL    HW2 3252   1.635   5.252   0.423 -0.5671 -0.1933 -0.5660
  785SOL     OW 3253   1.884   6.066   5.000 -0.5314 -0.1074 -0.9603
  785SOL    HW1 3254   1.851   5.977   5.031 -1.8190 -0.0282 -2.0006
  785SOL    HW2 3255   1.856   6.080   4.905 -0.0878  1.2962 -0.9042
  786SOL     OW 3256   4.660   1.098   5.227  0.7601  0.2267  0.1931
  786SOL    HW1 3257   4.733   1.106   5.159 -0.3473 -0.3408 -1.1094
  786SOL    HW2 3258   4.578   1.143   5.193  0.8839  2.2325  2.3038
  787SOL     OW 3259   2.560   6.565   0.119 -0.2199  0.2642 -0.9706
  787SOL    HW1 3260   2.640   6.513   0.147  0.0828  0.8711 -0.6996
  787SOL    HW2 3261   2.509   6.512   0.051 -0.0747 -0.5065 -0.5000
  788SOL     OW 3262   1.765   3.276   1.458  0.2689  0.0713 -0.2336
  788SOL    HW1 3263   1.839   3.317   1.512  0.8601 -1.6026  0.2665
  788SOL    HW2 3264   1.714   3.212   1.514 -2.1522  1.7751 -0.3160
  789SOL     OW 3265   3.420   4.948   4.419 -1.0920 -0.2333 -0.0583
  789SOL    HW1 3266   3.336   4.905   4.385 -0.9966 -0.5995  0.1630
  789SOL    HW2 3267   3.477   4.976   4.342 -0.5387 -1.7246 -0.2211
  790SOL     OW 3268   0.033   1.428   3.449 -0.3684 -0.1552 -0.0642
  790SOL    HW1 3269   0.021   1.508   3.389 -0.9016 -0.9946 -1.1100
  790SOL    HW2 3270   0.013   1.454   3.543  0.1003  1.1038 -0.2843
  791SOL     OW 3271   4.795   5.593   2.580  0.2669 -0.4899 -0.0144
  791SOL    HW1 3272   4.845   5.659   2.525 -0.0646 -0.3192 -0.1153
  791SOL    HW2 3273   4.843   5.577   2.666  1.0962 -1.1967 -0.5975
  792SOL     OW 3274   3.395   1.625   6.675  0.1366  0.3853 -0.2313
  792SOL    HW1 3275   3.409   1.607   6.577 -1.6941  1.6865 -0.7850
  792SOL    HW2 3276   3.345   1.549   6.716  0.8090 -0.1144 -0.3186
  793SOL     OW 3277   3.373   5.714   4.075 -0.0043  0.3055  0.3105
  793SOL    HW1 3278   3.468   5.715   4.105  0.1781 -1.0265 -0.1228
  793SOL    HW2 3279   3.318   5.772   4.134  1.2649  2.0418 -0.1416
  794SOL     OW 3280   3.242   2.143   1.779 -0.2618 -0.4698  0.3958
  794SOL    HW1 3281   3.215   2.151   1.874  0.0784 -2.5308  0.6974
  794SOL    HW2 3282   3.279   2.052   1.761  2.8849  0.9008 -0.8888
  795SOL     OW 3283   3.314   4.746   0.162 -0.0408 -0.6214  0.0865
  795SOL    HW1 3284   3.380   4.739   0.086  0.8111 -0.3498  0.7857
  795SOL    HW2 3285   3.229   4.786   0.128  0.9975  1.3744 -0.3773
  796SOL     OW 3286   6.782   2.904   5.662  0.1171 -0.5197  0.1807
  796SOL    HW1 3287   6.833   2.915   5.578  0.1380 -0.3407  0.2174
  796SOL    HW2 3288   6.711   2.834   5.649  1.7360 -2.3598  0.7550
  797SOL     OW 3289   1.606   0.149   7.008 -0.0041  1.1569  0.0640
  797SOL    HW1 3290   1.690   0.121   6.961  0.2431 -1.1243  1.6727
  797SOL    HW2 3291   1.532   0.086   6.984 -0.5794  1.6093  0.6183
  798SOL     OW 3292   0.371   4.801   1.907 -0.2984  0.1217 -0.1916
  798SOL    HW1 3293   0.334   4.767   1.820 -0.7501 -0.1592  0.1054
  798SOL    HW2 3294   0.309   4.870   1.945  0.5426  1.1887 -0.7191
  799SOL     OW 3295   2.962   3.854   3.084 -0.1864 -0.7239 -0.1214
  799SOL    HW1 3296   2.887   3.906   3.043  1.6081  1.9878 -0.1895
  799SOL    HW2 3297   3.030   3.833   3.014  1.2155  0.8046  0.7362
  800SOL     OW 3298   4.742   4.147   4.875 -0.0691  0.1329 -0.1603
  800SOL    HW1 3299   4.819   4.181   4.821  1.6923  0.2065  2.2129
  800SOL    HW2 3300   4.701   4.222   4.926 -1.8742  0.1127 -1.4944
  801SOL     OW 3301   2.585   5.448   5.662 -0.3075 -0.3226 -0.0960
  801SOL    HW1 3302   2.519   5.420   5.730 -2.6073  1.2965 -1.5117
  801SOL    HW2 3303   2.546   5.436   5.570  1.7843 -0.2871 -1.0577
  802SOL     OW 3304   3.654   3.232   4.639  0.3322 -0.2102 -0.6204
  802SOL    HW1 3305   3.610   3.288   4.569  1.0494 -0.7643 -1.5364
  802SOL    HW2 3306   3.666   3.287   4.722 -0.6727  0.4066 -0.8636
  803SOL     OW 3307   2.685   0.694   2.541  0.3537  0.8353  0.3013
  803SOL    HW1 3308   2.699   0.739   2.629  1.5087 -0.1677  0.6607
  803SOL    HW2 3309   2.643   0.758   2.477  2.7773  2.7824  0.4950
  804SOL     OW 3310   3.559   5.367   3.001  0.4942 -0.6827  0.2407
  804SOL    HW1 3311   3.503   5.333   3.077 -1.4495  1.1278 -0.3029
  804SOL    HW2 3312   3.507   5.360   2.915  1.9146 -0.8874 -0.6346
  805SOL     OW 3313   4.242   2.130   3.699  0.0518 -0.0513  0.9335
  805SOL    HW1 3314   4.266   2.051   3.643  0.4145  0.8430 -0.2044
  805SOL    HW2 3315   4.245   2.213   3.644 -3.0065  0.4982  1.3968
  806SOL     OW 3316   3.695   5.450   4.309  0.3905 -0.3642 -0.0161
  806SOL    HW1 3317   3.747   5.424   4.390 -0.0402  0.5671  0.5851
  806SOL    HW2 3318   3.635   5.375   4.281  0.2478 -0.5538  0.7810
  807SOL     OW 3319   0.514   5.694   4.945  0.2914 -0.1092  0.3053
  807SOL    HW1 3320   0.458   5.645   5.013  0.8849  1.1803  1.7913
  807SOL    HW2 3321   0.591   5.637   4.919 -0.3578 -0.9301  0.1170
  808SOL     OW 3322   5.104   1.880   4.232  0.0499  0.6613  0.3684
  808SOL    HW1 3323   5.173   1.808   4.245  0.0054  0.3322 -1.0948
  808SOL    HW2 3324   5.139   1.967   4.267  0.6704  0.2311  0.8427
  809SOL     OW 3325   2.725   5.413   4.439 -0.1253 -0.0302 -0.1148
  809SOL    HW1 3326   2.768   5.447   4.356  0.1200  2.2299  0.8519
  809SOL    HW2 3327   2.795   5.386   4.505 -0.2832 -0.3814 -0.0900
  810SOL     OW 3328   3.787   3.834   4.691  0.2361 -0.4392  0.0708
  810SOL    HW1 3329   3.788   3.790   4.780  1.3219 -0.4623  0.0639
  810SOL    HW2 3330   3.699   3.879   4.676 -0.6665 -2.0696  0.3265
  811SOL     OW 3331   5.890   4.161   5.516 -0.2961 -0.5943 -0.3609
  811SOL    HW1 3332   5.959   4.189   5.583 -0.5837 -0.0247 -0.2911
  811SOL    HW2 3333   5.838   4.083   5.552 -1.8783  1.0208  1.0736
  812SOL     OW 3334   0.947   6.084   6.386 -0.1261  0.7657  0.2325
  812SOL    HW1 3335   1.027   6.098   6.327  1.1213 -0.4709  1.5755
  812SOL    HW2 3336   0.971   6.023   6.461 -2.7071 -0.7154 -0.0446
  813SOL     OW 3337   2.478   0.100   5.194 -0.4139  0.2617 -0.2446
  813SOL    HW1 3338   2.543   0.173   5.215  0.7725 -0.3642 -1.5483
  813SOL    HW2 3339   2.459   0.047   5.277  1.8551 -0.3879 -0.0791
  814SOL     OW 3340   0.783   1.052   1.869 -0.8412  0.1067 -0.0676
  814SOL    HW1 3341   0.686   1.067   1.886 -1.7401 -1.7713 -2.7772
  814SOL    HW2 3342   0.818   1.127   1.812 -0.9944  0.2543  0.0307
  815SOL     OW 3343   3.017   1.026   1.924 -0.0862 -0.4571  0.8340
  815SOL    HW1 3344   3.037   1.083   1.845  0.2811  0.3105  1.4732
  815SOL    HW2 3345   2.964   1.078   1.990 -1.3797 -1.4513  0.6109
  816SOL     OW 3346   4.406   3.227   0.639 -0.3992 -0.2840  0.0723
  816SOL    HW1 3347   4.459   3.284   0.576 -0.7239 -0.6438 -0.5432
  816SOL    HW2 3348   4.399   3.272   0.727  0.7516 -0.1322  0.1058
  817SOL     OW 3349   6.158   5.979   0.760 -0.3332  0.0418  0.6365
  817SOL    HW1 3350   6.153   6.002   0.857 -0.1799  0.5466  0.5267
  817SOL    HW2 3351   6.213   6.047   0.712 -1.6183  0.6248 -0.0666
  818SOL     OW 3352   6.335   3.028   5.248 -0.8453 -0.3099 -0.0415
  818SOL    HW1 3353   6.279   3.111   5.255 -2.7677 -1.6198  0.8863
  818SOL    HW2 3354   6.404   3.029   5.321  1.4951  2.0151 -2.0665
  819SOL     OW 3355   5.758   3.616   0.949 -0.0988 -0.4699 -0.5845
  819SOL    HW1 3356   5.671   3.663   0.966 -0.7854 -2.1692  0.9135
  819SOL    HW2 3357   5.829   3.652   1.009 -0.8463 -1.8534  1.2182
  820SOL     OW 3358   1.258   0.629   4.629 -0.3962 -0.2704  0.1001
  820SOL    HW1 3359   1.193   0.606   4.556  0.9993 -0.1822 -1.2363
  820SOL    HW2 3360   1.307   0.547   4.657  1.2880  0.1896 -1.3464
  821SOL     OW 3361   4.556   4.729   5.658 -0.3958  0.1614  0.1798
  821SOL    HW1 3362   4.567   4.797   5.585 -1.2478  1.0459  0.8460
  821SOL    HW2 3363   4.646   4.699   5.689  0.0398  1.6747  0.4836
  822SOL     OW 3364   6.333   5.284   3.713  0.0476  0.7024  0.3235
  822SOL    HW1 3365   6.358   5.380   3.722  0.8925  0.4829  0.3805
  822SOL    HW2 3366   6.408   5.227   3.746 -0.4790  0.0224  0.3622
  823SOL     OW 3367   1.860   2.601   0.292 -0.2091 -0.6033 -0.3842
  823SOL    HW1 3368   1.932   2.663   0.321  0.7493 -1.3491 -1.1088
  823SOL    HW2 3369   1.780   2.612   0.351  1.2282 -1.2297  1.7922
  824SOL     OW 3370   5.002   0.301   6.666  0.4294  0.6710 -0.1749
  824SOL    HW1 3371   5.089   0.319   6.712  0.4042  0.7083 -0.1430
  824SOL    HW2 3372   4.971   0.383   6.619 -0.8053  1.3712  1.7889
  825SOL     OW 3373   5.924   6.076   0.636  0.7561  0.0646 -0.3312
  825SOL    HW1 3374   5.853   6.071   0.706  0.7477 -0.6101 -0.3851
  825SOL    HW2 3375   6.009   6.037   0.672  0.8193 -0.0615 -0.6123
  826SOL     OW 3376   1.790   2.232   0.815 -0.2426  0.3687  0.2367
  826SOL    HW1 3377   1.785   2.279   0.727  0.4634 -1.0248 -0.5909
  826SOL    HW2 3378   1.883   2.198   0.830 -0.7826 -1.0371  0.6198
  827SOL     OW 3379   3.445   3.789   3.612  0.0713 -0.5670 -0.0395
  827SOL    HW1 3380   3.474   3.885   3.611 -1.3599  0.0365  3.1591
  827SOL    HW2 3381   3.523   3.730   3.630  0.9335 -0.0229 -1.8287
  828SOL     OW 3382   6.134   5.837   6.168  0.3404 -0.3301  0.1186
  828SOL    HW1 3383   6.212   5.848   6.106 -0.7337  0.8374 -1.1179
  828SOL    HW2 3384   6.138   5.908   6.239  0.2658 -0.0768 -0.1258
  829SOL     OW 3385   2.141   3.831   2.082 -0.6265 -0.0267 -0.6750
  829SOL    HW1 3386   2.045   3.814   2.103 -0.3033 -0.1659  0.7828
  829SOL    HW2 3387   2.182   3.749   2.041 -1.2642  0.2427 -1.9012
  830SOL     OW 3388   0.570   4.028   6.208  0.3887 -0.0094 -0.3807
  830SOL    HW1 3389   0.645   3.981   6.161 -1.2594 -0.9496 -2.2228
  830SOL    HW2 3390   0.584   4.127   6.202  0.2262 -0.0762 -3.0465
  831SOL     OW 3391   5.260   1.879   6.338 -0.6776 -0.5437  0.1790
  831SOL    HW1 3392   5.241   1.934   6.256 -1.2235 -0.8908  0.0623
  831SOL    HW2 3393   5.197   1.905   6.411  0.9772  1.0288  1.1124
  832SOL     OW 3394   2.825   1.421   4.055 -0.2562  0.1590 -0.0417
  832SOL    HW1 3395   2.910   1.464   4.022  0.4083  2.0826  3.5830
  832SOL    HW2 3396   2.848   1.346   4.117 -1.0674  1.5001  1.9661
  833SOL     OW 3397   3.057   3.776   5.873 -0.2653 -0.5105 -0.0232
  833SOL    HW1 3398   2.963   3.802   5.853  0.0950 -0.9638 -2.7890
  833SOL    HW2 3399   3.075   3.785   5.971 -2.9396  0.2635  0.4651
  834SOL     OW 3400   0.796   3.136   1.315 -0.0974 -0.7190 -0.1640
  834SOL    HW1 3401   0.777   3.112   1.411 -1.7341  0.7116 -0.0749
  834SOL    HW2 3402   0.876   3.195   1.311 -0.3803 -0.2869  0.4026
  835SOL     OW 3403   5.879   0.911   4.713 -0.0503 -0.0167 -0.0539
  835SOL    HW1 3404   5.798   0.971   4.713 -0.9934 -1.1983  1.6047
  835SOL    HW2 3405   5.923   0.916   4.803 -0.0739 -1.6985  0.0716
  836SOL     OW 3406   5.654   1.287   3.358  0.2576 -0.3455  0.3994
  836SOL    HW1 3407   5.626   1.326   3.270 -0.5431 -0.8662  0.4158
  836SOL    HW2 3408   5.624   1.192   3.364  1.7270 -0.8193  0.5825
  837SOL     OW 3409   0.329   0.018   6.370 -0.3547 -0.2592  0.2407
  837SOL    HW1 3410   0.257   0.083   6.396 -0.6241  0.2734 -1.6812
  837SOL    HW2 3411   0.415   0.043   6.415 -1.0872 -0.2569  1.7081
  838SOL     OW 3412   1.778   5.003   4.123 -0.1032  0.1960  0.1501
  838SOL    HW1 3413   1.780   5.102   4.138  1.1340  0.0586  0.9836
  838SOL    HW2 3414   1.685   4.976   4.097 -0.5160  1.5328  0.1255
  839SOL     OW 3415   1.471   0.664   0.842  0.2725  0.7162 -0.0193
  839SOL    HW1 3416   1.531   0.742   0.858 -0.5402  1.2735  0.3954
  839SOL    HW2 3417   1.484   0.597   0.916  2.2567 -0.4037 -1.3013
  840SOL     OW 3418   5.494   4.681   1.153 -0.4169  0.2334 -0.0846
  840SOL    HW1 3419   5.585   4.647   1.128  0.1924  1.1356  0.8207
  840SOL    HW2 3420   5.464   4.747   1.085 -0.6067 -0.3840 -0.6198
  841SOL     OW 3421   2.041   4.443   0.396  0.0821  0.4543  0.2128
  841SOL    HW1 3422   2.038   4.435   0.296  0.4533  1.9668  0.0662
  841SOL    HW2 3423   2.122   4.494   0.423  0.2871 -0.4361  1.3421
  842SOL     OW 3424   5.381   6.067   0.011 -0.4245 -0.4609  0.1543
  842SOL    HW1 3425   5.310   6.008  -0.026 -0.4492 -0.6946  0.5661
  842SOL    HW2 3426   5.341   6.154   0.040  0.0190  0.8774 -2.9335
  843SOL     OW 3427   1.877   0.647   1.833  0.0342 -0.3852 -0.3195
  843SOL    HW1 3428   1.962   0.597   1.814 -1.1739 -2.8705  0.3564
  843SOL    HW2 3429   1.834   0.673   1.747  0.3750 -1.1004 -0.7131
  844SOL     OW 3430   0.714   5.639   1.604 -0.0215  0.4415  0.0952
  844SOL    HW1 3431   0.616   5.638   1.626  0.2656 -1.4317  1.5582
  844SOL    HW2 3432   0.734   5.567   1.537  0.3143  1.0499 -0.4650
  845SOL     OW 3433   3.880   1.688   1.267  0.1319 -0.4517 -0.7273
  845SOL    HW1 3434   3.819   1.629   1.214 -2.1166 -0.2832  1.4556
  845SOL    HW2 3435   3.885   1.654   1.361  2.2450  0.4454 -0.4711
  846SOL     OW 3436   2.667   1.660   1.295  0.3771  0.2002 -0.4478
  846SOL    HW1 3437   2.706   1.751   1.314  0.3238  0.8021 -2.8303
  846SOL    HW2 3438   2.570   1.670   1.272 -0.2209 -0.7911  1.4350
  847SOL     OW 3439   2.646   4.132   0.192  0.1823  0.5395 -0.2301
  847SOL    HW1 3440   2.611   4.211   0.242 -0.5822  0.9460 -1.3630
  847SOL    HW2 3441   2.742   4.147   0.168  0.2340  0.8193  0.1403
  848SOL     OW 3442   0.338   0.158   2.054  0.6817 -0.3158 -0.3484
  848SOL    HW1 3443   0.334   0.243   2.107 -0.2538  0.1999 -1.2243
  848SOL    HW2 3444   0.253   0.107   2.066  0.3092 -0.0268 -1.5966
  849SOL     OW 3445   5.102   3.519   5.668 -0.0800  0.0131 -0.1331
  849SOL    HW1 3446   5.064   3.532   5.577  0.6721  3.0611 -0.1331
  849SOL    HW2 3447   5.169   3.445   5.666 -1.1320 -0.9473 -1.6822
  850SOL     OW 3448   2.627   1.740   3.675  0.4129  0.4573 -0.3676
  850SOL    HW1 3449   2.597   1.795   3.753  1.6087 -0.0721  0.4904
  850SOL    HW2 3450   2.584   1.650   3.678  0.8301  0.2679 -0.0465
  851SOL     OW 3451   5.352   1.713   1.346  0.3957 -0.9954  0.3697
  851SOL    HW1 3452   5.268   1.666   1.371  0.4768 -1.1749  0.3035
  851SOL    HW2 3453   5.375   1.780   1.417 -0.8197  0.4019 -0.4958
  852SOL     OW 3454   6.816   3.448   2.919  0.3727 -0.7979 -0.0755
  852SOL    HW1 3455   6.790   3.528   2.867  0.0993 -0.0855  1.1115
  852SOL    HW2 3456   6.915   3.445   2.929  0.5384 -1.6654 -1.7290
  853SOL     OW 3457   3.605   2.598   1.708  0.4941 -0.3246 -0.1360
  853SOL    HW1 3458   3.635   2.597   1.613 -0.8129 -1.3325 -0.5776
  853SOL    HW2 3459   3.629   2.511   1.751  0.3369 -0.2023  0.2015
  854SOL     OW 3460   6.379   0.014   5.390 -0.1398 -0.4280 -0.4007
  854SOL    HW1 3461   6.363  -0.032   5.477 -0.4549 -1.7051 -1.1129
  854SOL    HW2 3462   6.299   0.070   5.367  0.7375  1.5131  1.0582
  855SOL     OW 3463   4.969   0.863   0.631  0.1897 -0.5339  0.1766
  855SOL    HW1 3464   4.954   0.960   0.653  1.5861 -0.1345 -0.5524
  855SOL    HW2 3465   4.903   0.834   0.562 -0.7504 -0.3291  0.9689
  856SOL     OW 3466   0.978   6.814   0.963  0.1630 -0.2916 -0.2882
  856SOL    HW1 3467   1.041   6.891   0.973 -0.7173  0.3073  0.9531
  856SOL    HW2 3468   0.898   6.842   0.910  0.3509 -0.6866 -0.7912
  857SOL     OW 3469   6.531   6.201   4.927 -0.3550 -0.4085 -0.1344
  857SOL    HW1 3470   6.602   6.184   4.858  0.8383 -0.3498  1.0436
  857SOL    HW2 3471   6.503   6.297   4.922  0.5668 -0.1079  0.2147
  858SOL     OW 3472   2.016   6.434   1.071  0.1779 -0.3696  0.2750
  858SOL    HW1 3473   2.025   6.342   1.110  0.1687 -0.5556 -0.1656
  858SOL    HW2 3474   2.106   6.478   1.067  0.0409  0.0808  1.5440
  859SOL     OW 3475   4.711   6.194   6.471  0.5503  0.3226  0.3506
  859SOL    HW1 3476   4.665   6.205   6.383  1.4210  2.2463  0.1034
  859SOL    HW2 3477   4.659   6.242   6.542  1.1635  0.8956  0.4173
  860SOL     OW 3478   3.382   2.746   6.186  0.3585 -0.3236  0.0234
  860SOL    HW1 3479   3.300   2.779   6.140  0.9217  1.7352  0.4139
  860SOL    HW2 3480   3.357   2.680   6.256 -0.7796 -1.0803 -1.0521
  861SOL     OW 3481   1.337   6.768   2.882  0.6306 -0.2299  0.3933
  861SOL    HW1 3482   1.344   6.702   2.807 -0.0049 -1.1372  1.0972
  861SOL    HW2 3483   1.393   6.848   2.862  0.7254 -0.5951 -0.8916
  862SOL     OW 3484   1.433   5.063   4.414 -0.5574 -0.0672  0.4320
  862SOL    HW1 3485   1.450   5.078   4.317 -1.2095  0.5236  0.3951
  862SOL    HW2 3486   1.388   4.974   4.427  2.5316 -1.7596  0.5604
  863SOL     OW 3487   4.739   1.740   0.421 -0.1972  0.5202  0.9905
  863SOL    HW1 3488   4.796   1.743   0.340  1.1766 -1.8579  1.7687
  863SOL    HW2 3489   4.649   1.776   0.400  0.9686  2.6011 -0.7917
  864SOL     OW 3490   6.588   2.384   6.202  0.2751  0.4809  0.3569
  864SOL    HW1 3491   6.577   2.464   6.142  2.7196 -0.6006 -1.7357
  864SOL    HW2 3492   6.547   2.304   6.158  0.0314  0.0930  1.2734
  865SOL     OW 3493   2.578   4.648   4.922  0.3024  0.4092  0.6392
  865SOL    HW1 3494   2.669   4.633   4.960 -0.4430 -0.6761  2.1326
  865SOL    HW2 3495   2.518   4.685   4.993 -0.3987  1.2410 -0.3526
  866SOL     OW 3496   3.825   0.119   1.046 -0.1145  0.0931  0.0512
  866SOL    HW1 3497   3.841   0.217   1.062  0.9397  0.2104 -1.5002
  866SOL    HW2 3498   3.868   0.092   0.960 -1.4934 -1.4660 -0.1998
  867SOL     OW 3499   5.736   3.402   4.447  0.1817 -0.1311  0.6189
  867SOL    HW1 3500   5.763   3.497   4.432  0.9235 -0.3731  0.3563
  867SOL    HW2 3501   5.692   3.367   4.365  1.7301 -0.6084 -0.0541
  868SOL     OW 3502   6.064   3.714   2.649 -0.0756 -0.0888 -0.2176
  868SOL    HW1 3503   6.084   3.669   2.736  0.1487  1.8490  0.8020
  868SOL    HW2 3504   6.017   3.651   2.588 -0.1503 -1.5273  1.2689
  869SOL     OW 3505   0.512   2.141   2.112  0.3987 -0.2592  0.0125
  869SOL    HW1 3506   0.497   2.235   2.081 -0.9673 -1.1829 -2.4392
  869SOL    HW2 3507   0.583   2.098   2.056  2.2498 -0.2634  2.2177
  870SOL     OW 3508   5.383   6.488   1.753  0.2090  0.0021 -0.1477
  870SOL    HW1 3509   5.394   6.587   1.747 -0.8842  0.1208 -0.2840
  870SOL    HW2 3510   5.288   6.463   1.737  0.7333 -1.1923 -1.7095
  871SOL     OW 3511   4.917   3.180   2.891 -0.2735  0.0877  0.6838
  871SOL    HW1 3512   4.935   3.183   2.989  1.1051 -2.3766  0.5954
  871SOL    HW2 3513   4.976   3.247   2.845 -0.4305  0.7806  1.4706
  872SOL     OW 3514   1.606   2.134   4.885 -0.3806 -0.3797 -0.5493
  872SOL    HW1 3515   1.613   2.234   4.889 -1.9966 -0.2757  0.8209
  872SOL    HW2 3516   1.698   2.095   4.875  0.4201  1.2037  0.1823
  873SOL     OW 3517   4.614   2.186   5.831  0.1762 -0.0623 -0.1483
  873SOL    HW1 3518   4.697   2.228   5.868  0.8397 -0.4560 -1.1409
  873SOL    HW2 3519   4.597   2.221   5.739 -0.4675 -0.3847 -0.1586
  874SOL     OW 3520   4.999   5.152   3.299  0.2266 -0.3370 -0.3287
  874SOL    HW1 3521   4.982   5.201   3.384 -1.6040 -0.0957 -0.8091
  874SOL    HW2 3522   4.954   5.062   3.301 -1.9758  0.6338 -1.9342
  875SOL     OW 3523   6.277   4.226   4.441  0.6771 -0.2190 -0.4903
  875SOL    HW1 3524   6.366   4.229   4.397  0.4603  3.3050 -1.0434
  875SOL    HW2 3525   6.289   4.227   4.541  1.2853  0.6321 -0.5603
  876SOL     OW 3526   6.881   1.324   5.505 -0.2305 -0.1182 -0.0135
  876SOL    HW1 3527   6.933   1.267   5.442  1.5408  2.4160 -0.9870
  876SOL    HW2 3528   6.783   1.306   5.492  0.2273 -2.4611 -0.6539
  877SOL     OW 3529   1.787   2.494   5.887 -0.0923  0.1447  0.1596
  877SOL    HW1 3530   1.768   2.532   5.978 -0.0793  0.6472 -0.0440
  877SOL    HW2 3531   1.851   2.554   5.839  0.8997 -0.7775  0.2899
  878SOL     OW 3532   3.893   6.599   4.127 -0.1163 -0.3725 -0.3644
  878SOL    HW1 3533   3.935   6.686   4.103  0.6504 -0.8318 -0.7199
  878SOL    HW2 3534   3.799   6.615   4.158  0.8895  0.9045  2.3661
  879SOL     OW 3535   5.512   0.838   4.760 -0.4037 -0.4315 -0.5071
  879SOL    HW1 3536   5.582   0.908   4.743 -0.4670 -0.2683 -0.1151
  879SOL    HW2 3537   5.555   0.748   4.760 -0.3884 -0.4353 -1.4223
  880SOL     OW 3538   3.496   2.828   1.848 -0.2079 -0.0049  0.0417
  880SOL    HW1 3539   3.449   2.809   1.934  0.1062  0.8891  0.4184
  880SOL    HW2 3540   3.543   2.745   1.817 -1.4326 -0.7081  0.0233
  881SOL     OW 3541   6.099   2.428   0.002  0.3795  0.0025  0.1818
  881SOL    HW1 3542   6.074   2.369  -0.075 -2.5473  0.6095  0.5157
  881SOL    HW2 3543   6.145   2.373   0.072 -1.6211 -1.8437  0.1943
  882SOL     OW 3544   3.068   2.187   4.613 -0.1965 -0.8257  0.4207
  882SOL    HW1 3545   3.016   2.254   4.666  0.9377  0.2312  0.2529
  882SOL    HW2 3546   3.160   2.178   4.653  0.7248  0.0605 -1.3719
  883SOL     OW 3547   4.118   5.650   2.044 -0.6490 -0.5119 -0.6125
  883SOL    HW1 3548   4.216   5.633   2.060 -0.8159 -0.2869  0.8003
  883SOL    HW2 3549   4.106   5.742   2.008 -0.2021 -1.2524 -2.8236
  884SOL     OW 3550   3.560   4.019   4.580 -0.1893  0.6217  0.2981
  884SOL    HW1 3551   3.595   3.981   4.495  0.8485  1.8108  0.1555
  884SOL    HW2 3552   3.463   4.039   4.571 -0.1150  0.6293 -0.5770
  885SOL     OW 3553   4.360   3.727   5.648 -0.2715  0.3844  0.2820
  885SOL    HW1 3554   4.444   3.754   5.601 -0.4664  1.1049  0.3329
  885SOL    HW2 3555   4.286   3.790   5.623  0.1566  2.3118  3.3331
  886SOL     OW 3556   4.095   2.125   6.390 -0.1416 -0.1238 -0.7293
  886SOL    HW1 3557   4.083   2.101   6.486 -0.9925  0.4009 -0.6944
  886SOL    HW2 3558   4.159   2.061   6.347 -0.2149 -0.7222  0.0346
  887SOL     OW 3559   1.133   0.055   6.508 -0.2977 -0.6489  0.4451
  887SOL    HW1 3560   1.215   0.089   6.462 -1.1313 -0.7021 -1.1332
  887SOL    HW2 3561   1.066   0.025   6.440 -2.0297  0.3256  1.6419
  888SOL     OW 3562   6.582   5.534   3.213 -0.0882 -0.1610  0.6344
  888SOL    HW1 3563   6.576   5.484   3.299 -0.0867 -1.5465 -0.1397
  888SOL    HW2 3564   6.678   5.552   3.192 -0.0053 -0.9384  0.3161
  889SOL     OW 3565   1.724   4.309   0.286 -0.1999  0.2410 -0.1013
  889SOL    HW1 3566   1.763   4.394   0.249  2.5388 -0.6596  0.4801
  889SOL    HW2 3567   1.748   4.233   0.226  2.3422 -0.8934  2.1316
  890SOL     OW 3568   2.793   6.385   3.534  0.4220 -0.1523  0.4910
  890SOL    HW1 3569   2.825   6.383   3.629 -1.3848  1.3697  1.1913
  890SOL    HW2 3570   2.850   6.324   3.479  3.8499  1.6002  1.7665
  891SOL     OW 3571   3.569   4.927   1.672  0.0100  0.6794 -0.4141
  891SOL    HW1 3572   3.581   4.882   1.583 -0.2539  0.5639 -0.3930
  891SOL    HW2 3573   3.547   4.858   1.741 -1.9339  0.9846 -0.6785
  892SOL     OW 3574   1.578   5.154   0.567  0.3962 -0.3486  0.1976
  892SOL    HW1 3575   1.517   5.079   0.540  1.4121 -1.1277  0.0322
  892SOL    HW2 3576   1.548   5.190   0.655  0.9559 -2.1947  1.2007
  893SOL     OW 3577   1.464   4.116   1.651 -0.6018  0.3630  0.0768
  893SOL    HW1 3578   1.396   4.139   1.720 -0.3043  0.4544  0.3365
  893SOL    HW2 3579   1.541   4.069   1.693  1.4366  3.7656  0.5164
  894SOL     OW 3580   1.300   2.706   0.208 -0.8151  0.6154  0.2141
  894SOL    HW1 3581   1.351   2.792   0.214  0.1834  0.1291 -0.9465
  894SOL    HW2 3582   1.364   2.629   0.212 -1.5596 -0.0423 -0.2406
  895SOL     OW 3583   6.669   6.180   5.848  0.7083  0.4604 -0.1544
  895SOL    HW1 3584   6.751   6.129   5.875  0.8779 -0.3639 -2.0252
  895SOL    HW2 3585   6.666   6.186   5.748 -0.6491  1.9609 -0.0554
  896SOL     OW 3586   5.076   0.055   4.744  0.5135  0.4091  0.4600
  896SOL    HW1 3587   5.142   0.083   4.814  2.3182  0.4955 -1.2115
  896SOL    HW2 3588   5.124   0.031   4.660 -1.5613 -0.2038 -0.6220
  897SOL     OW 3589   5.755   3.031   1.644  0.0539 -0.3479  0.6219
  897SOL    HW1 3590   5.817   3.008   1.569  0.6520 -2.5437  1.7178
  897SOL    HW2 3591   5.701   2.950   1.670 -1.5173  0.8603  1.3252
  898SOL     OW 3592   3.198   1.163   5.136 -0.4249  0.1886 -0.1335
  898SOL    HW1 3593   3.109   1.191   5.100 -0.1778  1.4204  0.1631
  898SOL    HW2 3594   3.269   1.180   5.067 -0.2216  0.6609  0.1857
  899SOL     OW 3595   0.467   6.918   2.017  0.5382  0.2771  0.5202
  899SOL    HW1 3596   0.399   6.988   2.038 -0.0682 -0.6088  1.6275
  899SOL    HW2 3597   0.520   6.898   2.100  1.0614 -0.1920  0.0779
  900SOL     OW 3598   5.286   4.628   4.054  0.1832 -0.4894 -0.1869
  900SOL    HW1 3599   5.275   4.674   4.142  0.6230 -1.4006  0.3469
  900SOL    HW2 3600   5.349   4.680   3.997 -0.2766  0.2222 -0.0617
  901SOL     OW 3601   1.457   6.838   1.496  0.2743  0.1562 -0.0761
  901SOL    HW1 3602   1.502   6.778   1.430 -0.4546  1.2125 -1.5949
  901SOL    HW2 3603   1.358   6.830   1.487  0.1575  0.3160  0.9220
  902SOL     OW 3604   5.711   4.118   4.013  0.4130 -0.4255 -0.4296
  902SOL    HW1 3605   5.758   4.128   3.925  1.7210 -1.5953  0.0992
  902SOL    HW2 3606   5.779   4.110   4.086 -0.6528  0.9985  0.7698
  903SOL     OW 3607   5.768   6.885   5.369  0.1785 -0.3958 -0.0909
  903SOL    HW1 3608   5.796   6.902   5.463  0.3222 -0.8912 -0.0415
  903SOL    HW2 3609   5.746   6.788   5.358 -0.6949 -0.1813 -0.3413
  904SOL     OW 3610   2.533   1.284   4.909  0.2387 -0.5770  0.0991
  904SOL    HW1 3611   2.462   1.328   4.965  1.5360 -0.2856  1.5593
  904SOL    HW2 3612   2.507   1.189   4.892 -0.8763 -0.2648 -0.0800
  905SOL     OW 3613   3.423   3.498   0.161 -0.1750 -0.7497  0.0848
  905SOL    HW1 3614   3.456   3.513   0.068  0.1622 -1.4404  0.0892
  905SOL    HW2 3615   3.345   3.435   0.160 -1.0267  0.2626  0.1522
  906SOL     OW 3616   6.545   3.690   2.082  0.0671  0.2972 -0.0624
  906SOL    HW1 3617   6.590   3.711   2.168 -0.1023  1.5217 -0.2404
  906SOL    HW2 3618   6.607   3.640   2.022 -0.2373 -1.7391  1.2172
  907SOL     OW 3619   6.141   6.037   6.386 -0.7728  0.5086 -0.1948
  907SOL    HW1 3620   6.095   6.120   6.419  1.0291  0.6654  2.1663
  907SOL    HW2 3621   6.125   5.962   6.450 -0.1304 -0.2142 -0.8589
  908SOL     OW 3622   1.154   4.397   3.860  0.2721 -0.3517  0.1235
  908SOL    HW1 3623   1.143   4.298   3.866  2.3225 -0.7278 -1.5068
  908SOL    HW2 3624   1.232   4.425   3.916  0.5024  0.1635 -0.4455
  909SOL     OW 3625   3.534   3.080   6.763  0.1620 -0.1567  0.4150
  909SOL    HW1 3626   3.480   3.157   6.729 -0.6328 -0.4412  0.9980
  909SOL    HW2 3627   3.535   3.007   6.695  0.6028  0.2222  0.0144
  910SOL     OW 3628   3.075   4.602   0.618 -0.4592  0.5223 -0.6930
  910SOL    HW1 3629   3.111   4.646   0.536  2.8296 -1.8481 -0.7204
  910SOL    HW2 3630   3.040   4.511   0.595 -0.2984  0.1744  0.3831
  911SOL     OW 3631   2.799   4.801   0.313  0.1822  0.3301  0.2565
  911SOL    HW1 3632   2.855   4.876   0.278  1.0736 -0.6354 -0.4353
  911SOL    HW2 3633   2.719   4.788   0.254  0.0506  0.7067  0.3534
  912SOL     OW 3634   5.454   2.099   4.169  0.3371 -0.0226  0.2027
  912SOL    HW1 3635   5.388   2.141   4.231  1.7155 -0.3216  1.9645
  912SOL    HW2 3636   5.539   2.151   4.170  1.5579 -1.8711  1.2699
  913SOL     OW 3637   4.258   4.843   0.394  0.2960 -0.2561 -0.1796
  913SOL    HW1 3638   4.309   4.816   0.312 -1.0740  1.0832 -1.5491
  913SOL    HW2 3639   4.162   4.820   0.383  0.0294  0.2819  0.8924
  914SOL     OW 3640   2.215   4.175   3.063 -0.0004  0.2531 -0.1386
  914SOL    HW1 3641   2.175   4.164   2.972 -0.0118 -0.1639 -0.0834
  914SOL    HW2 3642   2.314   4.158   3.059 -0.1150 -0.4822  0.0610
  915SOL     OW 3643   5.403   5.199   2.391 -0.0484  0.2473  0.0867
  915SOL    HW1 3644   5.496   5.229   2.370 -0.5259  0.4366 -1.9160
  915SOL    HW2 3645   5.370   5.139   2.319 -1.4532  0.0802  0.8340
  916SOL     OW 3646   1.091   3.631   4.623 -0.2630  0.4256  0.0723
  916SOL    HW1 3647   1.008   3.668   4.580 -0.4141 -0.9029 -0.8467
  916SOL    HW2 3648   1.066   3.557   4.685  0.2140  0.2427  0.0497
  917SOL     OW 3649   6.894   5.656   5.296 -0.3779 -0.1839  0.1710
  917SOL    HW1 3650   6.848   5.568   5.306 -0.1683 -0.2689  0.4132
  917SOL    HW2 3651   6.907   5.697   5.386  0.2508 -0.2844  0.1352
  918SOL     OW 3652   4.319   6.771   1.286 -0.2880  0.4078  0.3659
  918SOL    HW1 3653   4.357   6.794   1.197  0.7692 -0.2559  0.6270
  918SOL    HW2 3654   4.290   6.675   1.286  1.0118 -0.0129  1.1416
  919SOL     OW 3655   5.002   5.652   6.211  0.1642  0.0471  0.0073
  919SOL    HW1 3656   4.982   5.740   6.167 -0.2837 -0.2941 -0.4951
  919SOL    HW2 3657   4.967   5.653   6.305  0.4985  0.5339  0.1316
  920SOL     OW 3658   2.276   4.570   0.511  0.6395  0.2171 -0.5504
  920SOL    HW1 3659   2.240   4.532   0.596  1.1270 -0.3052 -0.5668
  920SOL    HW2 3660   2.375   4.582   0.520  0.4688  1.7552 -0.4499
  921SOL     OW 3661   4.914   5.830   5.398 -0.1759 -0.0794  0.5659
  921SOL    HW1 3662   4.867   5.855   5.482  0.8226  0.3590  1.0161
  921SOL    HW2 3663   4.947   5.735   5.406  0.0940  0.0296  0.7539
  922SOL     OW 3664   3.362   3.828   1.810  0.4041  0.3970 -0.4989
  922SOL    HW1 3665   3.350   3.920   1.845  0.6269  0.5307 -0.7687
  922SOL    HW2 3666   3.320   3.820   1.720  0.5813  0.3036 -0.5754
  923SOL     OW 3667   1.705   3.770   6.790 -0.3191 -0.1493 -0.3671
  923SOL    HW1 3668   1.671   3.847   6.844 -0.1344  1.6932 -2.6958
  923SOL    HW2 3669   1.636   3.697   6.790 -1.6895  1.0891 -0.2016
  924SOL     OW 3670   0.205   2.246   0.196  0.1376 -0.3167  0.4424
  924SOL    HW1 3671   0.153   2.172   0.153  1.9023 -1.7021  0.5498
  924SOL    HW2 3672   0.204   2.235   0.295 -1.1202  0.9135  0.5884
  925SOL     OW 3673   0.691   2.135   5.875  0.0401  0.3616  0.0588
  925SOL    HW1 3674   0.667   2.202   5.946  0.7382  0.1468  0.5062
  925SOL    HW2 3675   0.772   2.167   5.826  0.2001 -0.0155  0.0775
  926SOL     OW 3676   2.715   2.212   0.344 -0.5157  0.2242 -0.9631
  926SOL    HW1 3677   2.706   2.291   0.284 -0.4162  0.4505 -0.6791
  926SOL    HW2 3678   2.811   2.195   0.364 -0.6070  0.8813  0.0989
  927SOL     OW 3679   6.536   3.167   5.090 -0.0048 -0.3771 -0.4460
  927SOL    HW1 3680   6.514   3.237   5.158  3.4049  2.0006 -1.5296
  927SOL    HW2 3681   6.601   3.102   5.130  0.2754 -0.2716 -0.7205
  928SOL     OW 3682   3.844   6.543   1.163  0.2453  0.0727  0.3196
  928SOL    HW1 3683   3.857   6.444   1.169 -0.7112 -0.0577  0.4000
  928SOL    HW2 3684   3.915   6.582   1.104 -0.4112 -0.9054 -1.1945
  929SOL     OW 3685   1.258   4.648   4.642  0.3157 -0.0229  0.1444
  929SOL    HW1 3686   1.172   4.597   4.647  0.5797 -0.3374  2.1263
  929SOL    HW2 3687   1.256   4.709   4.563 -1.8775  0.2619  0.3754
  930SOL     OW 3688   6.177   6.466   6.089  0.3147 -0.0354 -0.0163
  930SOL    HW1 3689   6.092   6.459   6.038  1.4133 -2.9945 -1.6293
  930SOL    HW2 3690   6.251   6.495   6.028  1.1565 -1.0558  0.4894
  931SOL     OW 3691   6.393   0.992   2.347  0.5089 -0.2316 -0.0623
  931SOL    HW1 3692   6.409   1.019   2.252 -1.0393 -2.7893 -1.1437
  931SOL    HW2 3693   6.297   1.007   2.371  0.6584 -0.5494  0.7928
  932SOL     OW 3694   3.340   1.086   4.414  0.7160  0.0584 -0.3677
  932SOL    HW1 3695   3.403   1.060   4.487  0.1429  3.1771  1.4204
  932SOL    HW2 3696   3.384   1.155   4.356 -0.1728  0.4725 -0.5702
  933SOL     OW 3697   6.730   6.489   1.719  0.0228 -0.1422 -0.4745
  933SOL    HW1 3698   6.715   6.588   1.725  1.4306  0.1648 -1.5456
  933SOL    HW2 3699   6.818   6.471   1.677  0.3381 -1.8661  0.7903
  934SOL     OW 3700   0.418   2.707   2.645  0.9217 -0.3068  0.1805
  934SOL    HW1 3701   0.433   2.688   2.548  0.8839  0.2216  0.0673
  934SOL    HW2 3702   0.350   2.780   2.655  1.4370  0.1327  0.5746
  935SOL     OW 3703   5.546   4.408   5.171  0.6100 -0.3690 -0.4395
  935SOL    HW1 3704   5.473   4.452   5.223  1.4546  1.6787 -0.9011
  935SOL    HW2 3705   5.612   4.368   5.235  1.4475  1.8100  0.1478
  936SOL     OW 3706   0.270   6.459   5.208 -0.3058 -0.1246 -0.0743
  936SOL    HW1 3707   0.331   6.474   5.286 -0.1558  0.8813 -0.3762
  936SOL    HW2 3708   0.185   6.416   5.239 -0.0657 -0.1297  0.5755
  937SOL     OW 3709   4.924   2.648   5.652  0.0576 -0.7128 -0.4901
  937SOL    HW1 3710   4.921   2.590   5.571 -0.9824  0.2387 -1.1592
  937SOL    HW2 3711   5.016   2.685   5.664  0.0238 -0.1820 -1.7471
  938SOL     OW 3712   3.290   5.983   5.922 -0.7175 -0.0039  0.3864
  938SOL    HW1 3713   3.220   6.023   5.981 -0.8157 -1.9796  1.7182
  938SOL    HW2 3714   3.257   5.981   5.828 -1.6359  0.8627  0.6756
  939SOL     OW 3715   6.991   0.405   4.969  0.7615 -0.6941 -0.2511
  939SOL    HW1 3716   6.976   0.503   4.962 -1.9731 -0.9915  0.2498
  939SOL    HW2 3717   6.990   0.378   5.065 -3.4779 -1.6841 -0.3532
  940SOL     OW 3718   3.368   4.892   0.963  0.4326  0.1677  0.0726
  940SOL    HW1 3719   3.318   4.824   0.909  2.2322 -1.0516 -0.1277
  940SOL    HW2 3720   3.321   4.905   1.051  0.6614 -2.3007  0.6432
  941SOL     OW 3721   2.007   6.666   2.109  0.0991  0.5533  0.1594
  941SOL    HW1 3722   1.914   6.632   2.098  0.2052  0.0715  0.6553
  941SOL    HW2 3723   2.058   6.654   2.024 -0.8941  2.8350 -0.8327
  942SOL     OW 3724   0.264   4.999   1.572  0.1588  0.6854  0.8841
  942SOL    HW1 3725   0.225   4.920   1.620 -0.5045  0.0226 -0.6891
  942SOL    HW2 3726   0.191   5.051   1.528  0.8085  0.9038  0.0462
  943SOL     OW 3727   4.087   5.454   0.530  0.1456 -0.0270  0.5725
  943SOL    HW1 3728   4.090   5.436   0.431  0.5962  1.9215  0.1713
  943SOL    HW2 3729   4.006   5.508   0.551 -0.6184 -1.4934  1.5109
  944SOL     OW 3730   5.428   5.746   5.037  0.0567 -0.6665 -0.0622
  944SOL    HW1 3731   5.520   5.741   4.998  0.1313  0.3480 -0.0515
  944SOL    HW2 3732   5.432   5.726   5.134  0.3118 -0.3762 -0.0106
  945SOL     OW 3733   6.495   4.445   6.163  0.0094 -0.2558 -0.2667
  945SOL    HW1 3734   6.525   4.387   6.088 -0.4251 -1.8415  0.7264
  945SOL    HW2 3735   6.403   4.480   6.144  0.0599 -0.3270 -0.6393
  946SOL     OW 3736   6.556   2.118   4.707 -0.3237  0.0468  0.2605
  946SOL    HW1 3737   6.625   2.099   4.776  0.1671  0.0521 -0.2239
  946SOL    HW2 3738   6.568   2.211   4.671 -1.0140  0.3031  0.6610
  947SOL     OW 3739   3.819   4.018   4.375  0.5315 -0.3297  0.1876
  947SOL    HW1 3740   3.759   4.097   4.367  2.2954  0.9035 -2.8673
  947SOL    HW2 3741   3.882   4.031   4.451 -0.5009  0.1965  0.9724
  948SOL     OW 3742   4.251   2.332   4.055  0.0670 -0.0817  0.0280
  948SOL    HW1 3743   4.230   2.351   4.151  1.4357  4.5464 -0.3256
  948SOL    HW2 3744   4.349   2.322   4.044  0.3437  2.8646 -1.1380
  949SOL     OW 3745   2.632   0.226   4.530  0.3380 -0.9865 -0.1762
  949SOL    HW1 3746   2.669   0.214   4.438  2.1494  0.4389  0.3120
  949SOL    HW2 3747   2.642   0.141   4.581  0.4353 -1.4258 -0.9152
  950SOL     OW 3748   6.594   0.358   0.609  0.4315 -0.0022  0.4485
  950SOL    HW1 3749   6.495   0.342   0.607  0.2790  0.6692  1.7554
  950SOL    HW2 3750   6.627   0.372   0.515 -0.7603  0.0785  0.0227
  951SOL     OW 3751   0.396   1.257   1.501 -0.1083 -0.1764  0.4298
  951SOL    HW1 3752   0.380   1.162   1.475  1.6236 -0.7750  1.3666
  951SOL    HW2 3753   0.492   1.268   1.527 -0.6055  1.5102  1.7087
  952SOL     OW 3754   2.146   1.005   2.656 -0.5807 -0.3019  0.3188
  952SOL    HW1 3755   2.079   1.039   2.590 -0.9355 -0.4533  0.5970
  952SOL    HW2 3756   2.099   0.957   2.730 -0.1175 -1.1301  0.0988
  953SOL     OW 3757   6.289   6.125   4.443 -0.7024 -0.1444  0.8303
  953SOL    HW1 3758   6.337   6.154   4.360 -2.8099  0.3146 -0.3197
  953SOL    HW2 3759   6.285   6.025   4.446 -1.4385 -0.1631 -0.1667
  954SOL     OW 3760   6.276   6.246   2.567 -0.6505  0.6369 -0.2561
  954SOL    HW1 3761   6.205   6.175   2.561 -0.7156  0.0270  4.3375
  954SOL    HW2 3762   6.366   6.204   2.558 -0.7535  0.3230  0.1434
  955SOL     OW 3763   4.329   4.310   1.248 -0.1352 -0.1479 -0.1120
  955SOL    HW1 3764   4.296   4.245   1.316  3.9610 -1.8872  0.4950
  955SOL    HW2 3765   4.339   4.400   1.291  0.4297 -0.7364  1.0516
  956SOL     OW 3766   4.631   6.483   0.515  0.2899  0.0724 -0.5196
  956SOL    HW1 3767   4.666   6.435   0.595 -0.9223 -0.8332 -0.4948
  956SOL    HW2 3768   4.705   6.531   0.469  0.9431  0.8973  1.3358
  957SOL     OW 3769   5.412   6.354   2.091 -0.2590 -0.1011 -0.2061
  957SOL    HW1 3770   5.387   6.449   2.107 -0.1527  0.2546 -1.9028
  957SOL    HW2 3771   5.491   6.330   2.146  0.2240  1.0645 -0.3705
  958SOL     OW 3772   5.370   0.134   3.330  0.0843  0.8640  0.1872
  958SOL    HW1 3773   5.312   0.135   3.412  1.1257  1.0362  0.9466
  958SOL    HW2 3774   5.314   0.111   3.250 -1.1614  1.7428  0.7719
  959SOL     OW 3775   5.883   5.732   0.014  0.3063 -1.3171 -0.3888
  959SOL    HW1 3776   5.973   5.774   0.003 -1.1266  2.2760  0.2911
  959SOL    HW2 3777   5.858   5.731   0.111 -2.1972  2.3179 -0.8084
  960SOL     OW 3778   0.192   6.328   5.602  0.0475 -0.6106  0.4347
  960SOL    HW1 3779   0.094   6.306   5.602 -0.2311  0.5103 -0.3066
  960SOL    HW2 3780   0.214   6.385   5.681  0.0585 -0.6971  0.4939
  961SOL     OW 3781   6.094   2.645   1.205 -0.1397 -0.0784 -0.1292
  961SOL    HW1 3782   6.000   2.681   1.201 -0.6519 -1.3512 -0.1044
  961SOL    HW2 3783   6.092   2.552   1.242  1.1624 -0.0612  0.0168
  962SOL     OW 3784   6.730   0.417   5.248  0.1371  0.6107  0.1207
  962SOL    HW1 3785   6.748   0.512   5.275  0.2074  0.7672 -0.4697
  962SOL    HW2 3786   6.633   0.407   5.225  0.3330  0.7867 -0.8012
  963SOL     OW 3787   0.147   1.828   2.456 -0.1065  0.2744  0.1301
  963SOL    HW1 3788   0.200   1.868   2.382  0.5506  1.0448  0.9877
  963SOL    HW2 3789   0.162   1.881   2.540  1.7674 -2.4626  1.6551
  964SOL     OW 3790   4.891   1.916   5.434 -0.0905 -0.0761  0.3878
  964SOL    HW1 3791   4.868   1.998   5.381 -1.3382 -2.3703 -3.0128
  964SOL    HW2 3792   4.807   1.869   5.461  0.5431 -1.3941  0.1834
  965SOL     OW 3793   4.591   1.406   2.976 -0.5242  0.2779 -0.1550
  965SOL    HW1 3794   4.633   1.464   2.906  2.0099 -0.4989  0.5984
  965SOL    HW2 3795   4.598   1.452   3.065  0.2302 -0.5472  0.2277
  966SOL     OW 3796   6.394   2.923   1.010  0.0223 -0.2601  0.1537
  966SOL    HW1 3797   6.383   2.897   1.106  0.4672 -2.1488 -0.2608
  966SOL    HW2 3798   6.434   3.014   1.004 -0.8481  0.2651  1.7425
  967SOL     OW 3799   4.312   0.518   6.361 -0.3735 -0.0642  0.1762
  967SOL    HW1 3800   4.374   0.458   6.311 -0.7046  1.4296 -2.1845
  967SOL    HW2 3801   4.219   0.482   6.355  0.1119 -2.8247  4.5112
  968SOL     OW 3802   1.876   4.421   2.370 -0.0778 -0.0224 -0.1240
  968SOL    HW1 3803   1.938   4.351   2.334 -1.3733 -2.1521  1.4947
  968SOL    HW2 3804   1.813   4.450   2.299  1.4148  0.6609 -1.2267
  969SOL     OW 3805   3.413   4.658   6.938  0.2667 -0.7434 -0.3247
  969SOL    HW1 3806   3.509   4.633   6.950  0.7023  0.2432 -1.5004
  969SOL    HW2 3807   3.375   4.607   6.861  0.0467 -0.6198 -0.2984
  970SOL     OW 3808   2.086   6.372   4.306 -0.4928  0.4717  0.0528
  970SOL    HW1 3809   2.083   6.272   4.306  1.7201  0.3649  0.3454
  970SOL    HW2 3810   2.112   6.405   4.215  0.1760  0.7015  0.3203
  971SOL     OW 3811   4.929   4.783   2.941  0.4553  0.5669 -0.3269
  971SOL    HW1 3812   4.902   4.755   2.849 -3.3879  1.6605  0.2975
  971SOL    HW2 3813   4.935   4.883   2.946  1.8793  0.4714  0.3420
  972SOL     OW 3814   0.711   2.130   2.343 -0.0251  0.2273 -0.3114
  972SOL    HW1 3815   0.645   2.080   2.288  0.9458 -0.4974 -0.8435
  972SOL    HW2 3816   0.703   2.103   2.439 -0.6363  0.3023 -0.3404
  973SOL     OW 3817   2.637   2.084   6.381  0.1163 -0.4293 -0.6371
  973SOL    HW1 3818   2.570   2.057   6.449  1.9286  1.1043  1.9381
  973SOL    HW2 3819   2.723   2.036   6.397  1.5145  2.1278  0.2139
  974SOL     OW 3820   2.417   4.190   0.521 -0.4441  0.0714 -0.4412
  974SOL    HW1 3821   2.344   4.230   0.465 -0.3732 -0.7278 -1.1216
  974SOL    HW2 3822   2.384   4.107   0.566 -0.6783  1.0085  1.2006
  975SOL     OW 3823   3.351   1.141   1.939 -0.2606 -0.2193  0.4665
  975SOL    HW1 3824   3.367   1.096   1.851  0.8567  1.5677 -0.2902
  975SOL    HW2 3825   3.316   1.233   1.924 -0.6439 -0.0988  1.9248
  976SOL     OW 3826   6.542   3.000   3.649 -0.0080  0.8493 -0.4701
  976SOL    HW1 3827   6.462   3.056   3.623  0.5973  1.1280 -1.8301
  976SOL    HW2 3828   6.622   3.033   3.600  1.0588  0.8374  1.2047
  977SOL     OW 3829   1.290   1.536   2.495  0.0867  0.0370 -0.0895
  977SOL    HW1 3830   1.321   1.550   2.589  0.1390 -0.4568 -0.0342
  977SOL    HW2 3831   1.204   1.585   2.481 -0.3520 -0.5709  0.4594
  978SOL     OW 3832   6.934   6.458   1.532  0.0062  0.3275  0.0223
  978SOL    HW1 3833   7.030   6.457   1.560  0.2043 -0.5607 -0.6508
  978SOL    HW2 3834   6.918   6.533   1.468  0.9746 -1.2300 -2.1907
  979SOL     OW 3835   0.750   5.726   6.451  0.3734 -0.1170  0.5781
  979SOL    HW1 3836   0.758   5.634   6.488  1.7779  0.0568  0.7579
  979SOL    HW2 3837   0.670   5.771   6.491  0.9966 -0.4552  2.2747
  980SOL     OW 3838   3.664   2.000   3.439  0.4205 -0.2620  0.3617
  980SOL    HW1 3839   3.726   1.924   3.422 -0.9660 -1.5414  0.7322
  980SOL    HW2 3840   3.667   2.064   3.363  1.6567 -0.6609  0.0601
  981SOL     OW 3841   0.760   5.349   6.974  0.2010 -0.0627 -0.4540
  981SOL    HW1 3842   0.825   5.425   6.965  0.1581  0.1762  0.9737
  981SOL    HW2 3843   0.682   5.365   6.914  1.3822 -0.3130 -2.1415
  982SOL     OW 3844   6.162   0.542   4.915 -0.3208 -0.0100 -0.2546
  982SOL    HW1 3845   6.111   0.493   4.985  0.4425 -1.2478 -0.5308
  982SOL    HW2 3846   6.209   0.476   4.856  0.6684  1.0624 -0.6993
  983SOL     OW 3847   0.029   4.591   2.030  0.5036 -0.6147  0.2585
  983SOL    HW1 3848   0.093   4.519   2.004  1.6750  0.1241  1.0013
  983SOL    HW2 3849  -0.015   4.628   1.949  0.2403 -1.8291 -0.1733
  984SOL     OW 3850   5.720   3.401   4.972  0.3359 -0.9006 -0.0870
  984SOL    HW1 3851   5.774   3.344   5.034 -0.4998 -2.4583 -0.7436
  984SOL    HW2 3852   5.737   3.374   4.878  0.5140  0.4940 -0.4696
  985SOL     OW 3853   4.563   5.777   6.431  0.4485 -0.2795 -0.2306
  985SOL    HW1 3854   4.525   5.686   6.448 -0.8097  0.5163  1.6674
  985SOL    HW2 3855   4.498   5.831   6.378  1.3993 -0.5937 -1.7703
  986SOL     OW 3856   3.245   4.897   6.867 -0.1598 -0.1697  0.4170
  986SOL    HW1 3857   3.180   4.853   6.928 -1.8511 -0.0196 -1.1835
  986SOL    HW2 3858   3.311   4.830   6.835 -1.4202 -1.1033 -0.3264
  987SOL     OW 3859   4.631   6.108   4.163  0.0301  0.4036  0.2072
  987SOL    HW1 3860   4.633   6.061   4.075  2.7791  1.0348 -0.1670
  987SOL    HW2 3861   4.594   6.046   4.233 -3.2040  0.2494 -1.4738
  988SOL     OW 3862   1.433   4.662   1.755  0.3128  0.3654 -0.6262
  988SOL    HW1 3863   1.343   4.676   1.713 -0.0659  1.0215  0.3612
  988SOL    HW2 3864   1.421   4.638   1.851  1.2032  2.6234  0.1093
  989SOL     OW 3865   1.412   1.614   6.779 -0.2581  0.2354  0.3823
  989SOL    HW1 3866   1.366   1.529   6.753 -0.3029 -0.1104  1.5186
  989SOL    HW2 3867   1.397   1.630   6.877  0.2870  1.2218  0.3082
  990SOL     OW 3868   2.404   5.006   4.909 -0.2221 -0.3098  0.1290
  990SOL    HW1 3869   2.400   5.021   5.007 -1.1350  2.8534 -0.2886
  990SOL    HW2 3870   2.498   5.020   4.877  0.0153 -1.0575  0.4591
  991SOL     OW 3871   1.609   6.059   5.460 -0.1697  0.2173 -0.3888
  991SOL    HW1 3872   1.591   5.973   5.508  0.3671 -0.6342 -1.6603
  991SOL    HW2 3873   1.611   6.042   5.362 -0.0262  1.6971 -0.6626
  992SOL     OW 3874   5.292   4.266   2.990  0.5752 -0.2637  0.3420
  992SOL    HW1 3875   5.267   4.224   3.077  2.9838 -0.3134  1.1021
  992SOL    HW2 3876   5.290   4.365   2.998 -0.5774 -0.2475 -0.0095
  993SOL     OW 3877   1.714   4.456   2.158  0.3338  0.7863 -0.0975
  993SOL    HW1 3878   1.647   4.406   2.102  0.0117  1.1870 -0.0782
  993SOL    HW2 3879   1.751   4.532   2.105  2.3916 -0.6792 -0.8697
  994SOL     OW 3880   3.157   6.436   2.847 -0.2103  0.2384  0.1664
  994SOL    HW1 3881   3.067   6.440   2.889 -0.3063  0.4942 -0.0646
  994SOL    HW2 3882   3.151   6.391   2.758 -0.2630  1.0276 -0.2411
  995SOL     OW 3883   1.167   2.312   4.963 -0.1155  0.4160  0.2725
  995SOL    HW1 3884   1.148   2.298   5.061  2.0161  1.9274  0.9628
  995SOL    HW2 3885   1.232   2.387   4.952  1.2058 -0.9769 -2.2042
  996SOL     OW 3886   3.023   0.713   4.825  0.0811  0.2210 -0.5155
  996SOL    HW1 3887   3.089   0.748   4.758  0.1038 -1.6864 -1.5609
  996SOL    HW2 3888   2.966   0.643   4.782 -0.9400  0.0329  1.0698
  997SOL     OW 3889   2.474   5.888   2.830  0.5367 -1.1170 -0.2332
  997SOL    HW1 3890   2.499   5.879   2.733  1.7963 -2.5831  0.1864
  997SOL    HW2 3891   2.431   5.803   2.862 -1.5264 -0.0169  0.0844
  998SOL     OW 3892   5.027   0.930   6.504 -0.1988  0.6784 -0.0880
  998SOL    HW1 3893   4.995   0.881   6.586 -0.2105  1.0500  0.1316
  998SOL    HW2 3894   4.993   0.883   6.423 -0.1507  0.2776  0.1170
  999SOL     OW 3895   5.059   2.846   1.647  0.6193 -0.7332  0.2271
  999SOL    HW1 3896   4.964   2.867   1.669  0.6203  1.8400 -1.6994
  999SOL    HW2 3897   5.090   2.767   1.700 -2.2078 -0.9238  1.7440
 1000SOL     OW 3898   6.789   2.383   1.367  0.0245  0.3315  0.2942
 1000SOL    HW1 3899   6.878   2.368   1.409  1.1749  0.8945 -1.8135
 1000SOL    HW2 3900   6.782   2.330   1.283 -1.1009  1.3167 -0.2733
 1001SOL     OW 3901   2.956   0.910   2.612 -0.1884  0.3402  0.2490
 1001SOL    HW1 3902   2.888   0.850   2.654  0.3162 -0.3033  0.1644
 1001SOL    HW2 3903   2.964   0.994   2.666  1.4450 -1.0263  2.3022
 1002SOL     OW 3904   5.299   0.906   1.695  0.0120 -0.3373  0.0189
 1002SOL    HW1 3905   5.260   0.959   1.620 -1.3184  1.4595  1.8675
 1002SOL    HW2 3906   5.397   0.896   1.681 -0.1964 -0.0913 -1.9451
 1003SOL     OW 3907   2.045   1.732   5.596 -0.5176 -0.5948  0.1408
 1003SOL    HW1 3908   2.068   1.642   5.559  0.7155 -0.0873 -0.3881
 1003SOL    HW2 3909   1.947   1.738   5.610 -1.3330 -0.4136 -4.2786
 1004SOL     OW 3910   3.294   0.123   6.733  0.2252 -0.1764 -0.1632
 1004SOL    HW1 3911   3.328   0.192   6.669 -0.2059  0.5582  0.3885
 1004SOL    HW2 3912   3.369   0.092   6.791 -0.1021  1.8967  1.4709
 1005SOL     OW 3913   1.620   6.257   1.393  0.1434 -0.4717 -0.3396
 1005SOL    HW1 3914   1.556   6.253   1.470 -1.2260  0.3034 -1.3898
 1005SOL    HW2 3915   1.700   6.311   1.419  1.6898 -3.5347  1.8523
 1006SOL     OW 3916   1.608   4.237   2.030  0.4202  0.7239  0.3676
 1006SOL    HW1 3917   1.576   4.144   2.010  1.2390  0.1298  1.6724
 1006SOL    HW2 3918   1.625   4.286   1.945 -1.4366  0.1913 -0.3583
 1007SOL     OW 3919   5.594   0.341   4.912 -0.5130 -0.2053 -0.6209
 1007SOL    HW1 3920   5.675   0.394   4.937 -1.2150  1.1697 -1.1691
 1007SOL    HW2 3921   5.577   0.352   4.814  1.2187 -4.1214 -1.5674
 1008SOL     OW 3922   6.841   3.484   3.466  0.4859 -0.0471  0.2043
 1008SOL    HW1 3923   6.849   3.583   3.476  0.3346  0.1453 -1.2548
 1008SOL    HW2 3924   6.774   3.463   3.394 -0.0164 -1.2322  0.9915
 1009SOL     OW 3925   6.691   7.001   0.992 -0.3794 -0.1550  0.1728
 1009SOL    HW1 3926   6.671   6.903   0.990 -0.8977 -0.0606  0.6548
 1009SOL    HW2 3927   6.790   7.014   0.989 -0.3250 -0.6424 -1.6167
 1010SOL     OW 3928   3.884   3.327   0.562  0.1560  0.1841  0.3169
 1010SOL    HW1 3929   3.903   3.293   0.654  0.5202 -1.7199 -0.4189
 1010SOL    HW2 3930   3.950   3.398   0.538 -0.9580  1.9029  2.1091
 1011SOL     OW 3931   1.409   4.061   3.532 -0.1863  0.2840  0.1345
 1011SOL    HW1 3932   1.498   4.068   3.578  1.3331  0.1520 -2.6153
 1011SOL    HW2 3933   1.381   4.151   3.500  0.5581 -0.0907 -1.7178
 1012SOL     OW 3934   5.054   6.982   2.184 -0.3570 -0.0783 -0.0933
 1012SOL    HW1 3935   5.096   6.944   2.101 -0.8750  1.9224 -1.3490
 1012SOL    HW2 3936   5.125   7.012   2.247  0.0450 -1.3804  0.1134
 1013SOL     OW 3937   0.306   0.592   4.171 -0.1594  0.1730 -0.0793
 1013SOL    HW1 3938   0.361   0.537   4.234  0.9126 -0.1814 -1.2764
 1013SOL    HW2 3939   0.210   0.587   4.198  0.3572  0.7519  2.0171
 1014SOL     OW 3940   0.282   5.413   4.713 -0.3570  0.1392  0.3827
 1014SOL    HW1 3941   0.225   5.341   4.674  0.8786 -1.3727  1.2606
 1014SOL    HW2 3942   0.347   5.445   4.644 -0.7144  0.2314  0.0822
 1015SOL     OW 3943   3.931   6.820   0.003  0.0038  0.2719  0.0743
 1015SOL    HW1 3944   3.993   6.899   0.003  0.9776 -0.4236  1.8812
 1015SOL    HW2 3945   3.969   6.748  -0.055  1.1934 -0.3298  1.5447
 1016SOL     OW 3946   1.387   5.118   4.899 -0.2915 -0.2768  0.3747
 1016SOL    HW1 3947   1.476   5.160   4.883 -0.2756 -0.3859  0.1869
 1016SOL    HW2 3948   1.352   5.148   4.988 -1.3748  2.1152 -0.7573
 1017SOL     OW 3949   2.220   6.624   2.532 -0.2851  0.4398 -0.2113
 1017SOL    HW1 3950   2.191   6.713   2.567  0.0151  0.4912 -0.0935
 1017SOL    HW2 3951   2.266   6.572   2.604  0.2075  0.4896 -0.4831
 1018SOL     OW 3952   5.194   4.801   6.326 -0.2488 -0.6223  0.2285
 1018SOL    HW1 3953   5.098   4.779   6.346 -0.4100 -0.4307 -0.3092
 1018SOL    HW2 3954   5.205   4.900   6.319  0.0173 -0.6367  0.4243
 1019SOL     OW 3955   6.495   3.815   3.205 -0.2402 -0.2887  0.0128
 1019SOL    HW1 3956   6.546   3.854   3.128  0.0313 -0.0502  0.3124
 1019SOL    HW2 3957   6.411   3.866   3.218  0.1773  0.2904  0.4879
 1020SOL     OW 3958   4.684   3.187   1.024 -0.2442  0.3787 -0.1499
 1020SOL    HW1 3959   4.722   3.102   1.060  0.8881  0.0464 -1.9802
 1020SOL    HW2 3960   4.585   3.181   1.020 -0.2060 -0.6188  0.2704
 1021SOL     OW 3961   3.271   6.299   1.064  0.7510  0.2636  0.2224
 1021SOL    HW1 3962   3.180   6.321   1.030  0.3070 -1.8359 -0.0952
 1021SOL    HW2 3963   3.263   6.259   1.156  1.3167 -0.2406  0.0570
 1022SOL     OW 3964   3.374   5.707   5.677 -0.1728 -0.5839 -0.7357
 1022SOL    HW1 3965   3.464   5.664   5.681  0.2549  0.2212 -1.4600
 1022SOL    HW2 3966   3.304   5.637   5.667  0.1934 -1.3660  1.5667
 1023SOL     OW 3967   6.532   3.568   3.320  0.7545 -0.3100  0.0962
 1023SOL    HW1 3968   6.502   3.641   3.259 -0.4390 -0.4919  0.4561
 1023SOL    HW2 3969   6.597   3.509   3.271  0.9104  0.3677 -0.5313
 1024SOL     OW 3970   0.513   3.761   6.640  0.3806 -0.6079 -0.1008
 1024SOL    HW1 3971   0.433   3.775   6.581  0.6108  0.0996 -0.2485
 1024SOL    HW2 3972   0.555   3.849   6.660  0.5848 -0.8924  0.7342
 1025SOL     OW 3973   3.517   4.761   1.136 -0.1904  0.2248  0.6419
 1025SOL    HW1 3974   3.463   4.813   1.071  1.1137 -0.0622 -0.7197
 1025SOL    HW2 3975   3.611   4.794   1.137 -0.2141  0.3642  2.5706
 1026SOL     OW 3976   3.147   1.893   0.822  0.0841 -0.6621 -0.1290
 1026SOL    HW1 3977   3.205   1.811   0.817  0.9864 -0.0514  0.1403
 1026SOL    HW2 3978   3.131   1.928   0.730  1.2971 -0.0464 -0.1156
 1027SOL     OW 3979   6.648   1.573   0.382  0.0085  0.6052  0.1144
 1027SOL    HW1 3980   6.560   1.541   0.418 -0.4912  1.9986  0.2000
 1027SOL    HW2 3981   6.637   1.666   0.345  0.9179 -0.0632 -1.9631
 1028SOL     OW 3982   0.473   4.604   3.942  0.0252  0.3901 -0.3865
 1028SOL    HW1 3983   0.542   4.676   3.947 -0.2529  0.7045 -1.0363
 1028SOL    HW2 3984   0.382   4.645   3.941 -0.1257  0.0566 -1.2772
 1029SOL     OW 3985   0.584   6.225   5.106 -0.0937 -0.0597 -0.3463
 1029SOL    HW1 3986   0.579   6.125   5.105  0.1423 -0.0702 -0.6513
 1029SOL    HW2 3987   0.663   6.253   5.160  1.0760 -0.0992 -1.9679
 1030SOL     OW 3988   6.242   4.051   0.510 -0.1977  0.3836 -0.7440
 1030SOL    HW1 3989   6.157   4.103   0.506  0.3111  1.1438 -2.0888
 1030SOL    HW2 3990   6.310   4.094   0.451  0.6329 -1.1113 -0.9088
 1031SOL     OW 3991   4.066   1.397   1.012  0.0632 -0.4666  0.6551
 1031SOL    HW1 3992   3.974   1.415   0.978  0.7219  1.0251 -0.4502
 1031SOL    HW2 3993   4.093   1.468   1.077  0.4204 -0.9316  1.0273
 1032SOL     OW 3994   1.752   1.272   0.016 -0.2960  0.1498 -0.0161
 1032SOL    HW1 3995   1.837   1.322  -0.001  0.5674 -1.4838 -0.8175
 1032SOL    HW2 3996   1.674   1.328  -0.012  0.4470  1.9117  1.2790
 1033SOL     OW 3997   6.748   0.439   0.808 -0.8543  0.0163  0.0789
 1033SOL    HW1 3998   6.775   0.530   0.777 -0.5617 -0.5766 -1.4528
 1033SOL    HW2 3999   6.696   0.392   0.737 -1.0808 -0.9946  0.8743
 1034SOL     OW 4000   3.689   5.608   5.840 -0.2082 -0.5169 -0.6505
 1034SOL    HW1 4001   3.611   5.554   5.808 -0.1891  0.8899 -3.4093
 1034SOL    HW2 4002   3.768   5.548   5.854 -1.1805 -1.6696  0.0887
 1035SOL     OW 4003   1.112   0.563   6.948  0.3848 -0.3131  0.3137
 1035SOL    HW1 4004   1.181   0.495   6.974 -1.6416 -2.7446 -0.2487
 1035SOL    HW2 4005   1.084   0.546   6.853  0.4421  1.9613 -0.1667
 1036SOL     OW 4006   6.157   1.977   3.280 -0.3809  0.0459 -0.4247
 1036SOL    HW1 4007   6.242   2.024   3.258 -0.6877  1.3422  0.9610
 1036SOL    HW2 4008   6.093   1.986   3.204 -0.1239  1.1894 -0.5257
 1037SOL     OW 4009   0.195   4.378   2.466 -0.2985 -0.1743  0.0854
 1037SOL    HW1 4010   0.219   4.410   2.374 -1.4252 -1.6221 -0.7480
 1037SOL    HW2 4011   0.262   4.312   2.497  0.6374  1.0550  0.7537
 1038SOL     OW 4012   1.190   1.023   6.723 -0.1522  0.4434  0.1555
 1038SOL    HW1 4013   1.157   1.063   6.638 -0.3975 -1.0235 -0.4766
 1038SOL    HW2 4014   1.117   0.971   6.767  0.6036 -0.8232 -0.0156
 1039SOL     OW 4015   3.174   4.002   3.233 -0.5303  0.1538 -0.6126
 1039SOL    HW1 4016   3.075   4.000   3.223 -0.8170  0.7820  1.4676
 1039SOL    HW2 4017   3.202   3.935   3.302  0.2514  1.2041  0.1275
 1040SOL     OW 4018   5.617   3.111   2.918  0.0588 -0.1806  0.0594
 1040SOL    HW1 4019   5.554   3.123   2.994 -1.7341 -0.6940 -1.2691
 1040SOL    HW2 4020   5.639   3.014   2.908 -0.9797 -0.3363 -0.9827
 1041SOL     OW 4021   0.445   0.312   6.996 -0.0693  0.0669  0.2002
 1041SOL    HW1 4022   0.508   0.320   6.919  0.8136 -1.3073  0.7346
 1041SOL    HW2 4023   0.354   0.289   6.964  0.0466  0.5529 -0.4878
 1042SOL     OW 4024   5.093   2.551   5.964  0.1874  0.4679 -0.2334
 1042SOL    HW1 4025   5.002   2.580   5.993  0.8693  3.5956 -0.8619
 1042SOL    HW2 4026   5.087   2.502   5.877 -1.1160 -2.2812  1.2769
 1043SOL     OW 4027   2.405   0.892   3.450 -0.1417  0.2174  0.5421
 1043SOL    HW1 4028   2.329   0.850   3.400  0.5717  1.4524 -1.7396
 1043SOL    HW2 4029   2.373   0.975   3.496 -0.6545 -0.5596  1.6359
 1044SOL     OW 4030   6.148   5.729   1.272 -0.8727  0.1749 -0.0626
 1044SOL    HW1 4031   6.216   5.710   1.200 -0.6425  0.1496  0.1592
 1044SOL    HW2 4032   6.192   5.721   1.361 -1.5504 -1.4432  0.1595
 1045SOL     OW 4033   1.449   4.886   3.243  0.8372 -0.1497 -0.2923
 1045SOL    HW1 4034   1.370   4.921   3.193  0.1684 -1.3731 -0.1191
 1045SOL    HW2 4035   1.509   4.836   3.181  0.5090 -0.8298 -0.0659
 1046SOL     OW 4036   3.158   2.418   0.384  0.6207 -0.5643  0.5595
 1046SOL    HW1 4037   3.174   2.448   0.478  0.3106 -0.0518  0.4495
 1046SOL    HW2 4038   3.127   2.495   0.329  2.3529 -0.4558 -0.3564
 1047SOL     OW 4039   4.242   0.963   5.037 -0.0247  0.1971  0.0310
 1047SOL    HW1 4040   4.219   0.866   5.039  0.6098 -0.0879 -3.0072
 1047SOL    HW2 4041   4.157   1.017   5.039 -0.4320 -0.4438  0.3949
 1048SOL     OW 4042   0.916   0.371   1.808 -0.2544  0.9241 -0.3311
 1048SOL    HW1 4043   0.972   0.454   1.808 -1.6857  1.9470  0.7399
 1048SOL    HW2 4044   0.820   0.396   1.795 -0.6855 -0.6055 -0.2572
 1049SOL     OW 4045   4.251   0.547   5.944 -0.5027  0.0840  0.0465
 1049SOL    HW1 4046   4.345   0.548   5.978 -0.8611 -0.2581  1.1012
 1049SOL    HW2 4047   4.214   0.640   5.946 -1.0424 -0.1136  2.2175
 1050SOL     OW 4048   3.408   2.429   5.807  0.1583 -0.1208  0.3392
 1050SOL    HW1 4049   3.366   2.512   5.772 -1.5393 -1.2619 -0.4552
 1050SOL    HW2 4050   3.445   2.447   5.898  0.4513  1.6643 -0.0903
 1051SOL     OW 4051   2.019   1.280   0.505 -0.0660 -0.5574  0.5992
 1051SOL    HW1 4052   1.927   1.254   0.536  0.5384 -1.8602  1.3681
 1051SOL    HW2 4053   2.019   1.293   0.406 -1.2284  0.1617  0.6702
 1052SOL     OW 4054   5.470   1.000   0.889  0.8953 -0.1678 -0.2604
 1052SOL    HW1 4055   5.419   0.927   0.934  1.5758  0.3140  1.3702
 1052SOL    HW2 4056   5.410   1.079   0.876  0.7239 -0.2679 -0.0815
 1053SOL     OW 4057   4.198   2.234   4.322  0.1019  0.0683  0.2530
 1053SOL    HW1 4058   4.159   2.244   4.413  0.1304 -1.3879  0.4489
 1053SOL    HW2 4059   4.147   2.165   4.271  1.2189 -0.4725 -0.1668
 1054SOL     OW 4060   5.294   4.420   7.018 -0.7264 -0.1368 -0.4527
 1054SOL    HW1 4061   5.362   4.492   7.010 -0.7337  0.2823  2.2598
 1054SOL    HW2 4062   5.340   4.332   7.034 -0.7658  0.0382  0.7132
 1055SOL     OW 4063   5.345   6.197   5.751 -0.2846 -0.0445  0.1786
 1055SOL    HW1 4064   5.422   6.251   5.718 -1.6661  1.2973 -1.0285
 1055SOL    HW2 4065   5.268   6.257   5.773 -1.5107 -1.4260 -0.1267
 1056SOL     OW 4066   4.299   3.642   6.400 -0.0946 -0.2062 -0.2597
 1056SOL    HW1 4067   4.213   3.683   6.371  0.8741  0.1608 -2.9634
 1056SOL    HW2 4068   4.315   3.557   6.349  1.0637 -0.3275  0.2591
 1057SOL     OW 4069   2.321   4.858   6.573  0.1561 -0.1146 -0.0684
 1057SOL    HW1 4070   2.360   4.905   6.652 -1.0795  2.3271 -0.7985
 1057SOL    HW2 4071   2.230   4.824   6.596  0.6414 -1.3254  0.1466
 1058SOL     OW 4072   2.161   1.611   2.332 -0.2737  0.1779 -0.0590
 1058SOL    HW1 4073   2.081   1.574   2.285  0.2021 -1.8717  0.6634
 1058SOL    HW2 4074   2.231   1.635   2.264 -1.5501  2.3390 -0.7279
 1059SOL     OW 4075   7.007   6.945   1.015 -0.4726  0.2146  0.0121
 1059SOL    HW1 4076   7.107   6.949   1.013 -0.4775  0.1982 -0.5265
 1059SOL    HW2 4077   6.973   6.919   0.924 -0.8710 -2.3779  0.8451
 1060SOL     OW 4078   6.725   5.686   4.377  0.2075  0.3897 -0.4165
 1060SOL    HW1 4079   6.753   5.623   4.449  0.9996 -0.2848 -1.2925
 1060SOL    HW2 4080   6.641   5.733   4.404 -1.0442 -1.8403 -0.1839
 1061SOL     OW 4081   0.343   4.020   0.540 -0.2360 -0.8410  0.2223
 1061SOL    HW1 4082   0.395   4.104   0.528 -1.8064 -0.2237 -4.0371
 1061SOL    HW2 4083   0.361   3.982   0.630  1.9044  3.0689  1.6691
 1062SOL     OW 4084   4.081   4.818   5.027  0.1946  0.5233 -0.3962
 1062SOL    HW1 4085   4.087   4.741   5.091  0.2903  0.7088 -0.1850
 1062SOL    HW2 4086   4.147   4.804   4.953 -0.4516 -0.0800 -0.8680
 1063SOL     OW 4087   2.021   6.601   4.434 -0.4825  0.3666 -0.2797
 1063SOL    HW1 4088   2.059   6.519   4.393 -2.6273 -0.6342 -0.3930
 1063SOL    HW2 4089   2.031   6.678   4.371  0.4954 -0.0554 -0.6567
 1064SOL     OW 4090   3.371   3.106   6.338 -0.4079 -0.2019 -0.5311
 1064SOL    HW1 4091   3.308   3.047   6.389 -0.4128 -2.3310 -2.7894
 1064SOL    HW2 4092   3.320   3.179   6.292 -0.4643  1.3949  1.9207
 1065SOL     OW 4093   5.831   1.097   3.956 -0.0900  0.1138  0.6514
 1065SOL    HW1 4094   5.901   1.039   3.997  0.5688 -0.0991 -0.6947
 1065SOL    HW2 4095   5.854   1.193   3.973  0.2683  0.0336  0.6346
 1066SOL     OW 4096   3.780   6.178   5.084  0.2680 -0.0902 -0.0140
 1066SOL    HW1 4097   3.810   6.271   5.105  1.0451 -0.1043 -0.9752
 1066SOL    HW2 4098   3.825   6.113   5.145 -0.6758  0.1989  1.0042
 1067SOL     OW 4099   3.077   0.959   0.734  0.3275  0.0233  0.5018
 1067SOL    HW1 4100   2.984   0.928   0.716  0.7422 -0.8764 -0.2024
 1067SOL    HW2 4101   3.107   1.018   0.659  0.4685 -0.0175  0.5264
 1068SOL     OW 4102   5.240   2.194   1.638  0.0220  0.4093 -0.3871
 1068SOL    HW1 4103   5.163   2.213   1.578 -0.6306 -0.3101  0.2016
 1068SOL    HW2 4104   5.322   2.177   1.583 -0.3560  0.6512 -1.0344
 1069SOL     OW 4105   1.715   5.588   4.344  0.2245  0.0171 -0.1824
 1069SOL    HW1 4106   1.723   5.488   4.352 -1.3407 -0.0091  1.7964
 1069SOL    HW2 4107   1.703   5.628   4.435  2.0812  2.1806 -0.8068
 1070SOL     OW 4108   1.661   1.586   2.219  0.2537 -0.3020 -0.2300
 1070SOL    HW1 4109   1.596   1.616   2.289  1.0936 -0.0308  0.4485
 1070SOL    HW2 4110   1.721   1.662   2.194  0.5772 -0.6616 -0.5559
 1071SOL     OW 4111   0.784   3.193   0.050 -0.6089  0.0964  0.2163
 1071SOL    HW1 4112   0.819   3.160   0.137  1.3541  1.9602  0.1957
 1071SOL    HW2 4113   0.740   3.282   0.062  0.3249  0.7110 -0.7928
 1072SOL     OW 4114   2.073   1.002   1.677 -0.3433  0.3879  0.3651
 1072SOL    HW1 4115   2.168   0.996   1.708 -0.7825  0.2707  1.7494
 1072SOL    HW2 4116   2.020   1.056   1.743 -1.8208 -1.8106  1.0612
 1073SOL     OW 4117   4.902   3.210   3.162  0.1340 -0.2241 -0.0318
 1073SOL    HW1 4118   4.904   3.308   3.139 -1.9593  0.1058  0.9760
 1073SOL    HW2 4119   4.907   3.199   3.261  1.7412 -1.2592 -0.1837
 1074SOL     OW 4120   4.099   6.436   0.523 -0.0243  0.2378  0.1908
 1074SOL    HW1 4121   4.017   6.473   0.477  0.0618 -1.1916 -1.2255
 1074SOL    HW2 4122   4.180   6.483   0.488  0.1228 -1.3883 -1.9052
 1075SOL     OW 4123   5.345   6.133   4.371  0.2345 -0.8787 -0.2743
 1075SOL    HW1 4124   5.354   6.041   4.332  0.6659 -1.2495  0.6639
 1075SOL    HW2 4125   5.413   6.145   4.444  0.8304  0.5275 -1.0194
 1076SOL     OW 4126   2.702   5.724   5.565 -0.9112 -0.2235 -0.1097
 1076SOL    HW1 4127   2.668   5.735   5.471 -0.1557  1.2723 -0.2387
 1076SOL    HW2 4128   2.637   5.668   5.617 -1.0965 -1.4925 -1.6349
 1077SOL     OW 4129   0.371   4.790   0.303  0.1283  0.0787 -0.2882
 1077SOL    HW1 4130   0.356   4.692   0.316  0.8788 -0.3812 -2.4045
 1077SOL    HW2 4131   0.447   4.820   0.360  0.1016 -0.6433  0.1403
 1078SOL     OW 4132   6.440   6.506   1.652  0.4111  0.0883 -0.0587
 1078SOL    HW1 4133   6.385   6.457   1.584 -0.5984  1.5296 -0.3429
 1078SOL    HW2 4134   6.535   6.477   1.646  0.1052 -0.7535 -1.1864
 1079SOL     OW 4135   1.396   3.821   0.722 -0.7726 -0.4075  0.5477
 1079SOL    HW1 4136   1.325   3.890   0.737 -1.2289 -0.8868  0.6260
 1079SOL    HW2 4137   1.361   3.750   0.661 -0.0052 -0.1134 -0.2569
 1080SOL     OW 4138   5.250   3.444   0.293  0.5895 -0.1143  0.3900
 1080SOL    HW1 4139   5.179   3.450   0.364  1.9827 -1.6157  1.9934
 1080SOL    HW2 4140   5.303   3.529   0.292 -1.0293  0.9341 -0.6710
 1081SOL     OW 4141   1.799   5.602   5.670  0.6823 -0.5639 -0.3696
 1081SOL    HW1 4142   1.773   5.598   5.766  1.7978 -0.6634 -0.0592
 1081SOL    HW2 4143   1.748   5.675   5.624 -0.2338 -0.8450  0.1612
 1082SOL     OW 4144   5.601   6.406   6.985  0.2843  0.0609  0.2082
 1082SOL    HW1 4145   5.595   6.494   6.938  0.2801  0.0860  0.2550
 1082SOL    HW2 4146   5.679   6.408   7.048  0.4983 -0.0906 -0.0458
 1083SOL     OW 4147   5.735   6.358   1.379 -0.7474 -0.2031  0.2016
 1083SOL    HW1 4148   5.708   6.289   1.312  0.7197 -1.2113  0.6113
 1083SOL    HW2 4149   5.799   6.319   1.444  1.2085  1.8471 -0.3375
 1084SOL     OW 4150   5.150   0.150   3.990  0.8160  0.1756 -0.1135
 1084SOL    HW1 4151   5.053   0.165   4.007  0.4290 -3.6088  2.4024
 1084SOL    HW2 4152   5.181   0.206   3.913 -2.8212  2.9194  0.2049
 1085SOL     OW 4153   1.954   2.857   4.022 -0.1213 -0.1435 -0.3628
 1085SOL    HW1 4154   1.876   2.910   4.058 -0.6084 -1.0036 -0.1085
 1085SOL    HW2 4155   1.987   2.899   3.938 -0.3393  0.6955 -0.0461
 1086SOL     OW 4156   5.067   4.822   1.816 -0.1431  0.5381 -0.2852
 1086SOL    HW1 4157   5.107   4.744   1.865  2.1635  0.9179 -1.3953
 1086SOL    HW2 4158   4.977   4.796   1.780  0.8589 -1.9258 -1.2694
 1087SOL     OW 4159   3.099   0.939   5.728  0.1351 -0.0565  0.4516
 1087SOL    HW1 4160   3.071   1.035   5.733  1.6963  0.3823  1.4155
 1087SOL    HW2 4161   3.125   0.916   5.634 -1.7778 -0.0200 -0.1209
 1088SOL     OW 4162   6.305   6.477   4.492 -0.1356 -0.2313  0.8567
 1088SOL    HW1 4163   6.391   6.483   4.442 -1.0596 -1.0219 -0.9572
 1088SOL    HW2 4164   6.313   6.411   4.566  0.6456 -0.7626  0.3094
 1089SOL     OW 4165   4.897   4.263   4.686  0.3652 -0.6180  0.5514
 1089SOL    HW1 4166   4.883   4.232   4.592  1.2123 -1.2693  0.6267
 1089SOL    HW2 4167   4.919   4.360   4.686  0.9027 -0.7328  0.0241
 1090SOL     OW 4168   6.630   1.583   5.078  0.2218  0.1302 -0.4853
 1090SOL    HW1 4169   6.613   1.521   5.001  0.1301  0.7698 -0.9842
 1090SOL    HW2 4170   6.544   1.629   5.103  0.5827  1.1517 -1.0771
 1091SOL     OW 4171   1.243   3.405   4.936 -0.9351  0.1027 -0.2701
 1091SOL    HW1 4172   1.302   3.416   4.855  0.5326 -0.9645  0.5995
 1091SOL    HW2 4173   1.299   3.411   5.018 -2.3661  0.8488  0.6766
 1092SOL     OW 4174   1.296   5.044   1.663 -0.2751  0.2494  0.0025
 1092SOL    HW1 4175   1.357   5.119   1.637 -1.0322  0.7775 -0.2882
 1092SOL    HW2 4176   1.316   5.015   1.756  0.3192  0.5090 -0.0378
 1093SOL     OW 4177   3.096   6.573   2.397  0.0643  0.7771  0.4341
 1093SOL    HW1 4178   3.112   6.661   2.443  0.1062  1.0951 -0.1848
 1093SOL    HW2 4179   3.013   6.579   2.342  0.3297  0.5880  0.0063
 1094SOL     OW 4180   1.081   1.135   4.155 -0.1039  0.0759  0.2611
 1094SOL    HW1 4181   1.153   1.122   4.087 -0.7627 -0.6594 -0.3165
 1094SOL    HW2 4182   1.116   1.112   4.246  0.9382  1.5793  0.2674
 1095SOL     OW 4183   5.883   5.981   2.325  0.4067 -0.2643 -0.6428
 1095SOL    HW1 4184   5.860   5.968   2.229  1.7131 -2.3600 -0.7340
 1095SOL    HW2 4185   5.807   5.950   2.382  0.1316 -0.2148 -0.9813
 1096SOL     OW 4186   2.854   5.082   1.532  0.2205 -0.1151  0.3897
 1096SOL    HW1 4187   2.850   4.982   1.536 -0.7564 -0.1729 -1.2966
 1096SOL    HW2 4188   2.855   5.118   1.625  2.7160 -1.7144  1.0903
 1097SOL     OW 4189   1.339   5.803   5.070 -0.0315 -0.0545 -0.0382
 1097SOL    HW1 4190   1.383   5.769   4.987 -1.5153  0.5802 -1.1343
 1097SOL    HW2 4191   1.253   5.752   5.085  1.0071 -1.3403  2.0952
 1098SOL     OW 4192   0.231   4.725   1.675  0.1738 -0.2714  0.0705
 1098SOL    HW1 4193   0.137   4.699   1.696  0.5172 -0.6260  1.2341
 1098SOL    HW2 4194   0.288   4.643   1.669  0.5226 -0.0228 -0.0695
 1099SOL     OW 4195   0.151   0.112   6.712  0.3953  0.4869  0.3068
 1099SOL    HW1 4196   0.127   0.102   6.809  0.9672  1.4389  0.5516
 1099SOL    HW2 4197   0.205   0.194   6.699  1.0375 -0.0757 -0.7039
 1100SOL     OW 4198   5.443   2.083   3.539  0.1124 -0.7898  0.0015
 1100SOL    HW1 4199   5.406   2.121   3.623 -0.9379  0.3421 -0.9242
 1100SOL    HW2 4200   5.516   2.018   3.560  0.1018 -0.2750  1.7476
 1101SOL     OW 4201   3.142   2.495   0.697  0.1612  0.2421  0.1856
 1101SOL    HW1 4202   3.166   2.533   0.786  3.6574 -2.4901  0.6382
 1101SOL    HW2 4203   3.138   2.396   0.703  0.4785 -0.0385 -2.6594
 1102SOL     OW 4204   4.555   2.290   5.083  0.2304  0.4499  0.3270
 1102SOL    HW1 4205   4.609   2.209   5.105 -1.0081 -0.1100  1.3910
 1102SOL    HW2 4206   4.525   2.286   4.988  1.5152  0.4730 -0.1027
 1103SOL     OW 4207   1.638   6.772   1.731  0.6448  0.2067 -0.2920
 1103SOL    HW1 4208   1.585   6.843   1.777  0.0547  0.7629 -1.7923
 1103SOL    HW2 4209   1.633   6.785   1.632  1.1089 -1.5296 -0.5659
 1104SOL     OW 4210   5.790   1.675   4.460 -0.0671 -0.1748  0.3791
 1104SOL    HW1 4211   5.754   1.769   4.458  2.9585  1.0768 -0.2139
 1104SOL    HW2 4212   5.769   1.634   4.548 -0.5296  1.4516  1.0783
 1105SOL     OW 4213   4.147   5.223   6.083 -0.1692 -0.5965 -0.7237
 1105SOL    HW1 4214   4.076   5.264   6.026  0.2425  0.7025 -0.3406
 1105SOL    HW2 4215   4.190   5.147   6.034 -2.1175 -1.7526 -0.7835
 1106SOL     OW 4216   0.313   1.937   0.553 -0.1492  0.7142 -0.0101
 1106SOL    HW1 4217   0.298   1.920   0.455 -1.2220 -0.2261  0.2906
 1106SOL    HW2 4218   0.306   2.035   0.571 -0.2664  0.8666 -0.8222
 1107SOL     OW 4219   2.510   1.797   0.454 -0.1400 -0.4140  0.6298
 1107SOL    HW1 4220   2.426   1.744   0.461  0.7425 -1.8938  0.4932
 1107SOL    HW2 4221   2.488   1.893   0.437 -1.7988 -0.6267  1.3893
 1108SOL     OW 4222   1.518   1.705   2.423  0.1870 -0.3450  0.3628
 1108SOL    HW1 4223   1.530   1.798   2.387 -1.5123  0.2961  1.3532
 1108SOL    HW2 4224   1.421   1.687   2.438  0.6086 -1.6930  1.7069
 1109SOL     OW 4225   5.129   1.699   4.866 -0.7741 -0.0572  0.4462
 1109SOL    HW1 4226   5.173   1.675   4.953 -0.6498  2.6666  1.2250
 1109SOL    HW2 4227   5.093   1.616   4.823  1.5863 -1.8674  1.7022
 1110SOL     OW 4228   3.309   6.694   1.635 -0.1686  0.0146  0.1155
 1110SOL    HW1 4229   3.406   6.707   1.613  0.3217 -0.4647  1.8322
 1110SOL    HW2 4230   3.295   6.713   1.732 -2.2844  2.4870 -0.5697
 1111SOL     OW 4231   4.548   1.810   0.140  0.0160  0.0009  0.1017
 1111SOL    HW1 4232   4.628   1.867   0.160  0.3087  0.0439 -1.0803
 1111SOL    HW2 4233   4.510   1.837   0.052 -0.4236 -0.9962 -0.0285
 1112SOL     OW 4234   6.034   0.418   2.816  0.2236  0.5179  0.3155
 1112SOL    HW1 4235   6.056   0.354   2.890 -0.7259 -1.3872 -0.9838
 1112SOL    HW2 4236   6.104   0.490   2.813  2.9283 -1.8994  0.1807
 1113SOL     OW 4237   0.699   2.307   3.657 -0.0362 -0.1301 -0.4266
 1113SOL    HW1 4238   0.610   2.265   3.674 -0.7612  0.2992 -2.7521
 1113SOL    HW2 4239   0.750   2.315   3.742 -2.8237  1.0066  1.2551
 1114SOL     OW 4240   3.904   3.550   2.482  0.4759 -0.5138  0.1951
 1114SOL    HW1 4241   3.848   3.526   2.561 -2.8595 -0.3702 -1.8857
 1114SOL    HW2 4242   3.890   3.647   2.460  0.3284 -0.8227 -1.2145
 1115SOL     OW 4243   0.243   6.801   0.246 -0.0369  1.0075 -0.0028
 1115SOL    HW1 4244   0.208   6.715   0.284 -1.5034  0.8467 -1.6128
 1115SOL    HW2 4245   0.240   6.871   0.318  0.1115  0.0064  1.0174
 1116SOL     OW 4246   3.960   5.845   5.637 -0.1063 -0.3581 -0.7504
 1116SOL    HW1 4247   3.949   5.784   5.559 -0.4190 -0.4976 -0.6033
 1116SOL    HW2 4248   3.998   5.795   5.714  0.4531 -0.1578 -0.8900
 1117SOL     OW 4249   3.957   1.175   2.235 -0.6691  0.1802  0.1545
 1117SOL    HW1 4250   4.032   1.121   2.273  0.0706  1.6366  0.8441
 1117SOL    HW2 4251   3.881   1.177   2.299 -2.0205 -2.5907 -1.1840
 1118SOL     OW 4252   4.433   6.156   0.632 -0.2570 -0.3498  0.2364
 1118SOL    HW1 4253   4.494   6.234   0.645  1.4210 -1.7525  1.2147
 1118SOL    HW2 4254   4.347   6.187   0.592 -1.0804  2.5728  3.7026
 1119SOL     OW 4255   2.081   3.735   3.677 -0.0190 -0.3294  0.2311
 1119SOL    HW1 4256   1.983   3.727   3.659 -0.1770  0.7811  0.5301
 1119SOL    HW2 4257   2.117   3.645   3.703 -0.5396 -1.2025 -1.8169
 1120SOL     OW 4258   1.001   3.874   2.960 -0.5698 -0.0849  0.2066
 1120SOL    HW1 4259   0.962   3.860   2.869  0.8915 -0.7769 -0.3502
 1120SOL    HW2 4260   0.934   3.917   3.020 -2.3498 -1.6685 -0.5557
 1121SOL     OW 4261   6.069   5.095   5.369 -0.2380  0.7659 -0.0391
 1121SOL    HW1 4262   6.154   5.100   5.317 -0.2650  1.4058 -0.0361
 1121SOL    HW2 4263   6.072   5.016   5.430 -0.6664 -0.6736 -1.7872
 1122SOL     OW 4264   6.507   2.149   2.706 -0.6133 -0.3515 -0.4198
 1122SOL    HW1 4265   6.497   2.243   2.671  1.7219  0.1303  0.0301
 1122SOL    HW2 4266   6.604   2.126   2.711 -1.1469 -3.3501 -1.8670
 1123SOL     OW 4267   3.089   1.892   6.152 -0.3179 -0.1194  0.3921
 1123SOL    HW1 4268   3.062   1.955   6.079  0.3651 -0.7723 -0.4420
 1123SOL    HW2 4269   3.012   1.830   6.173 -0.6855  0.3957  0.5992
 1124SOL     OW 4270   2.275   1.711   2.672 -0.2011 -0.3180 -0.1561
 1124SOL    HW1 4271   2.300   1.634   2.614  1.0525 -0.5809  0.7010
 1124SOL    HW2 4272   2.284   1.684   2.768  0.9335  1.0981  0.1616
 1125SOL     OW 4273   2.096   1.485   3.585  0.1866  0.1305 -0.0027
 1125SOL    HW1 4274   2.095   1.581   3.558 -1.0627 -0.0558 -0.6906
 1125SOL    HW2 4275   2.021   1.468   3.650  1.1770 -0.1189  1.0971
 1126SOL     OW 4276   4.719   4.950   3.914 -0.3413 -0.0121  0.2848
 1126SOL    HW1 4277   4.795   4.892   3.887 -0.5599 -0.3410  0.3640
 1126SOL    HW2 4278   4.644   4.893   3.947 -0.1819  0.3558  1.3203
 1127SOL     OW 4279   4.299   6.469   6.360  0.1021  0.3982 -0.1088
 1127SOL    HW1 4280   4.295   6.370   6.348 -0.2417  0.0447  2.4177
 1127SOL    HW2 4281   4.209   6.509   6.342  0.1997  0.2588 -0.9555
 1128SOL     OW 4282   5.172   2.088   3.916 -0.4606 -0.1444 -0.1028
 1128SOL    HW1 4283   5.177   1.992   3.886 -0.7221 -0.8766  1.9890
 1128SOL    HW2 4284   5.089   2.101   3.971  0.0575  1.0323  0.4338
 1129SOL     OW 4285   0.175   0.602   5.241  0.0933  0.4181 -0.1557
 1129SOL    HW1 4286   0.111   0.633   5.171 -0.4916 -0.0708  0.1455
 1129SOL    HW2 4287   0.257   0.565   5.198  0.6346  1.9783 -0.5288
 1130SOL     OW 4288   4.014   6.605   1.578 -0.1834  0.2162  0.2304
 1130SOL    HW1 4289   3.942   6.560   1.525  0.3776  0.5669 -0.8528
 1130SOL    HW2 4290   4.003   6.704   1.572  0.4385  0.2753 -0.0179
 1131SOL     OW 4291   3.574   6.306   3.588  0.5093  0.4014 -0.4635
 1131SOL    HW1 4292   3.534   6.219   3.557  0.1241  0.6884 -0.7856
 1131SOL    HW2 4293   3.518   6.343   3.663  0.4579  0.5549 -0.5771
 1132SOL     OW 4294   1.656   2.977   4.730  0.3678  0.4801 -0.4558
 1132SOL    HW1 4295   1.732   2.914   4.748  0.0380  0.5386  1.4407
 1132SOL    HW2 4296   1.690   3.071   4.735 -0.1464  0.6035  2.7844
 1133SOL     OW 4297   0.554   6.791   5.488 -0.0700  0.1430  0.2467
 1133SOL    HW1 4298   0.579   6.742   5.404  1.3711  0.6988  0.3267
 1133SOL    HW2 4299   0.630   6.785   5.553 -1.1447 -0.2299  1.5030
 1134SOL     OW 4300   4.436   4.760   0.205  0.5258  0.2348 -0.0278
 1134SOL    HW1 4301   4.530   4.732   0.221  0.8207  1.3379  0.2538
 1134SOL    HW2 4302   4.385   4.685   0.164  1.1401 -0.8894  1.2068
 1135SOL     OW 4303   0.700   6.369   3.502  0.2037 -0.4571  0.1019
 1135SOL    HW1 4304   0.670   6.356   3.408  2.0115 -1.1829 -0.4173
 1135SOL    HW2 4305   0.797   6.393   3.503 -0.0908  0.8285  1.7364
 1136SOL     OW 4306   0.853   5.483   2.695 -0.7711  0.2153 -0.2490
 1136SOL    HW1 4307   0.758   5.510   2.680 -0.9090  0.3901  0.8377
 1136SOL    HW2 4308   0.874   5.402   2.639 -1.9186 -0.5436  0.3640
 1137SOL     OW 4309   1.721   5.660   4.605  0.5367 -0.4920 -0.4716
 1137SOL    HW1 4310   1.628   5.624   4.618 -0.4137  0.7438 -2.9964
 1137SOL    HW2 4311   1.787   5.585   4.615 -0.7873 -1.5718  0.6144
 1138SOL     OW 4312   4.179   6.553   4.287 -0.2754 -0.0742  0.2675
 1138SOL    HW1 4313   4.080   6.557   4.277 -0.3404 -0.0136  0.8823
 1138SOL    HW2 4314   4.216   6.478   4.232 -0.7091 -0.3616  0.3679
 1139SOL     OW 4315   1.964   5.828   6.035  0.1869  0.0162 -0.1195
 1139SOL    HW1 4316   2.039   5.831   6.102  0.7710  1.0484 -0.7976
 1139SOL    HW2 4317   1.980   5.896   5.963 -2.4472  1.7855  0.7996
 1140SOL     OW 4318   3.327   1.890   1.723  0.4533 -0.0488 -0.4130
 1140SOL    HW1 4319   3.404   1.875   1.784  1.2018  1.5702 -0.9028
 1140SOL    HW2 4320   3.323   1.817   1.655  1.0384 -0.5926  0.1268
 1141SOL     OW 4321   5.863   5.445   6.880  0.9143  0.0435  0.3219
 1141SOL    HW1 4322   5.773   5.402   6.886  0.7853  0.0657 -1.2598
 1141SOL    HW2 4323   5.870   5.517   6.950  0.4211 -1.1886  1.6961
 1142SOL     OW 4324   1.572   1.433   2.746 -0.5690  0.2732  0.1267
 1142SOL    HW1 4325   1.585   1.523   2.704 -2.2491 -0.0653 -1.2507
 1142SOL    HW2 4326   1.626   1.365   2.696 -0.0868  0.3523  0.5345
 1143SOL     OW 4327   0.019   5.368   2.932  0.5691  0.5648 -0.0167
 1143SOL    HW1 4328   0.021   5.269   2.918 -0.7823  0.6798 -1.3650
 1143SOL    HW2 4329   0.065   5.391   3.018 -0.3816 -1.3677  1.0806
 1144SOL     OW 4330   5.472   3.142   0.990 -0.4278 -0.1768  0.3498
 1144SOL    HW1 4331   5.443   3.119   0.897 -0.1559  1.9429 -0.3112
 1144SOL    HW2 4332   5.511   3.234   0.991 -1.5666  0.3616  2.7978
 1145SOL     OW 4333   5.420   6.856   0.422 -0.2074 -0.0229  0.4914
 1145SOL    HW1 4334   5.422   6.910   0.505 -1.1806 -1.3902  1.4467
 1145SOL    HW2 4335   5.326   6.844   0.391  0.1813  1.3247 -1.4421
 1146SOL     OW 4336   1.813   1.889   2.134  0.3614 -0.3980 -0.2244
 1146SOL    HW1 4337   1.729   1.915   2.089 -0.4071 -1.5247  0.4950
 1146SOL    HW2 4338   1.891   1.912   2.076 -0.3559  1.6482 -0.4294
 1147SOL     OW 4339   6.757   5.186   6.550 -0.2590  0.3200 -0.1481
 1147SOL    HW1 4340   6.729   5.198   6.455 -1.7123  0.7732  0.3032
 1147SOL    HW2 4341   6.745   5.091   6.577  0.7034  0.0713 -0.5722
 1148SOL     OW 4342   4.133   6.367   1.034  0.4058  0.4482  0.1238
 1148SOL    HW1 4343   4.101   6.272   1.045  0.4138  0.3577 -0.5923
 1148SOL    HW2 4344   4.077   6.413   0.966  1.2305  0.5655 -0.4863
 1149SOL     OW 4345   1.154   4.198   0.155 -0.0735  0.4949  0.4410
 1149SOL    HW1 4346   1.187   4.287   0.124  1.7565  0.6108  2.4698
 1149SOL    HW2 4347   1.221   4.128   0.133 -0.0280  0.1454  1.6256
 1150SOL     OW 4348   1.497   2.650   0.756  0.0631 -0.4242 -0.3044
 1150SOL    HW1 4349   1.522   2.722   0.692  0.7727 -0.9432 -0.6128
 1150SOL    HW2 4350   1.471   2.692   0.844  0.4230  0.2077 -0.4896
 1151SOL     OW 4351   5.340   5.243   3.647  0.6011  0.1706 -0.7338
 1151SOL    HW1 4352   5.425   5.292   3.669  0.3796  0.5422 -0.6999
 1151SOL    HW2 4353   5.327   5.242   3.548  1.5971 -1.5001 -0.8875
 1152SOL     OW 4354   3.634   4.866   6.886  0.2491  0.0976 -0.3199
 1152SOL    HW1 4355   3.617   4.862   6.788  1.4774 -0.3641 -0.5385
 1152SOL    HW2 4356   3.553   4.833   6.936  0.1571 -1.1284 -1.2333
 1153SOL     OW 4357   5.891   6.730   6.324  0.0141 -0.0725 -0.2974
 1153SOL    HW1 4358   5.854   6.754   6.234  1.5635 -0.2376 -1.0154
 1153SOL    HW2 4359   5.818   6.733   6.392 -1.0882  0.5684 -1.4627
 1154SOL     OW 4360   0.921   3.449   1.454  0.3399  0.1575  0.2636
 1154SOL    HW1 4361   0.974   3.372   1.417  0.4588  0.6815 -0.6892
 1154SOL    HW2 4362   0.842   3.466   1.396 -0.5354 -0.2087  1.3304
 1155SOL     OW 4363   3.086   6.243   4.637 -0.1717 -0.3179 -0.0952
 1155SOL    HW1 4364   3.178   6.221   4.670  0.3231 -0.2399 -1.3687
 1155SOL    HW2 4365   3.069   6.341   4.649 -0.6646 -0.5586  1.4551
 1156SOL     OW 4366   2.460   1.600   6.568 -0.1149  0.6184  0.2424
 1156SOL    HW1 4367   2.487   1.612   6.472  1.2721 -2.4249  0.1424
 1156SOL    HW2 4368   2.373   1.553   6.573  0.5386 -0.6044  0.4232
 1157SOL     OW 4369   2.436   1.345   1.185  0.4063  0.3114  0.1917
 1157SOL    HW1 4370   2.344   1.379   1.203 -0.4608 -1.9411  0.3116
 1157SOL    HW2 4371   2.437   1.294   1.099 -0.0944 -4.8006  2.8342
 1158SOL     OW 4372   5.132   5.718   1.685  0.3339 -0.0378 -0.2068
 1158SOL    HW1 4373   5.034   5.721   1.703  0.8796 -0.9667  4.1961
 1158SOL    HW2 4374   5.156   5.632   1.642 -0.5172 -1.6050  2.2219
 1159SOL     OW 4375   5.338   6.377   6.312 -0.0659  0.2658  0.4583
 1159SOL    HW1 4376   5.405   6.443   6.345 -0.1426 -0.5985  2.4224
 1159SOL    HW2 4377   5.254   6.426   6.287  0.7161  1.1657 -0.5291
 1160SOL     OW 4378   4.943   1.516   7.002  0.2005  0.1911  0.4532
 1160SOL    HW1 4379   5.024   1.513   6.942 -1.1310 -0.1985 -1.4089
 1160SOL    HW2 4380   4.909   1.424   7.016 -0.1700  0.3921  0.8930
 1161SOL     OW 4381   6.325   4.657   0.875 -0.3720 -0.1658 -0.2290
 1161SOL    HW1 4382   6.358   4.565   0.855 -2.0226 -1.4690  2.4220
 1161SOL    HW2 4383   6.243   4.676   0.821  0.0821 -0.1692 -0.9200
 1162SOL     OW 4384   3.571   4.157   5.758 -0.3237 -0.5176 -0.4058
 1162SOL    HW1 4385   3.500   4.127   5.694 -1.7986 -0.0054  0.9226
 1162SOL    HW2 4386   3.567   4.256   5.768 -0.8836 -0.6878  1.3020
 1163SOL     OW 4387   4.678   3.477   1.444  0.4795  0.1821  0.5028
 1163SOL    HW1 4388   4.658   3.400   1.504  1.6858  0.8039  1.7634
 1163SOL    HW2 4389   4.593   3.511   1.404 -0.2143 -1.0008  0.9268
 1164SOL     OW 4390   4.573   2.796   5.403 -0.0665 -0.4224  0.0621
 1164SOL    HW1 4391   4.640   2.841   5.463  0.2060 -0.8106  0.0506
 1164SOL    HW2 4392   4.482   2.831   5.423  0.1632  0.2646 -0.0620
 1165SOL     OW 4393   4.350   0.147   2.652  0.4784  0.3091  0.2249
 1165SOL    HW1 4394   4.401   0.067   2.622  1.0044  0.3346  0.9951
 1165SOL    HW2 4395   4.296   0.184   2.577 -1.1859 -1.8189  0.3030
 1166SOL     OW 4396   5.218   4.557   1.099 -0.3830 -0.3068 -0.0121
 1166SOL    HW1 4397   5.181   4.646   1.072 -0.0248  0.0862  0.7709
 1166SOL    HW2 4398   5.317   4.557   1.088 -0.3052 -0.3692  0.6431
 1167SOL     OW 4399   4.358   5.554   4.126 -0.3561  0.0248 -0.3673
 1167SOL    HW1 4400   4.416   5.610   4.068 -0.2317 -0.9591 -1.2386
 1167SOL    HW2 4401   4.375   5.457   4.107 -1.3898 -0.3010  0.2438
 1168SOL     OW 4402   0.721   0.020   0.275  0.3598 -0.4309  0.7342
 1168SOL    HW1 4403   0.742   0.047   0.369  2.4547 -0.4882  0.3374
 1168SOL    HW2 4404   0.804   0.027   0.219 -0.2334 -2.6861 -0.5630
 1169SOL     OW 4405   5.080   1.958   6.498 -0.5203 -0.0065 -0.0234
 1169SOL    HW1 4406   5.116   2.023   6.566  1.0377  1.0496 -1.7593
 1169SOL    HW2 4407   5.014   2.005   6.439  0.6559  0.0810 -1.3243
 1170SOL     OW 4408   4.898   5.740   2.384  0.3562  0.2395  0.7552
 1170SOL    HW1 4409   4.839   5.820   2.396  1.5510  1.1589  0.7058
 1170SOL    HW2 4410   4.895   5.710   2.289  1.0890  1.2095  0.4089
 1171SOL     OW 4411   1.363   6.763   0.686 -0.4371  0.3494  0.1814
 1171SOL    HW1 4412   1.419   6.790   0.608 -1.2098  1.2631 -0.0684
 1171SOL    HW2 4413   1.274   6.808   0.682 -0.8186 -0.2606  1.1335
 1172SOL     OW 4414   5.673   2.082   6.543 -0.1473  0.4037 -0.6413
 1172SOL    HW1 4415   5.626   2.010   6.493  0.6645  0.5019 -1.5782
 1172SOL    HW2 4416   5.721   2.141   6.479  3.3173 -1.1149  0.3315
 1173SOL     OW 4417   3.716   1.522   1.125  0.2897 -0.0364  0.9581
 1173SOL    HW1 4418   3.708   1.597   1.060  1.6804 -0.9013 -0.2750
 1173SOL    HW2 4419   3.637   1.462   1.116  0.5664 -0.2614 -0.1121
 1174SOL     OW 4420   3.578   6.783   2.009 -0.1241 -0.0546  0.1593
 1174SOL    HW1 4421   3.533   6.872   2.009  0.7253  0.5242  3.5566
 1174SOL    HW2 4422   3.653   6.783   1.943 -1.5132  0.9272 -1.4732
 1175SOL     OW 4423   3.483   3.664   4.099 -0.0394 -0.4251  0.5006
 1175SOL    HW1 4424   3.435   3.578   4.089  0.0044 -0.5889  1.5414
 1175SOL    HW2 4425   3.430   3.726   4.157 -0.2706  0.4140 -0.5807
 1176SOL     OW 4426   4.952   3.698   0.380  0.3087  0.2085 -0.2915
 1176SOL    HW1 4427   4.963   3.701   0.281  0.1528  1.2541 -0.2948
 1176SOL    HW2 4428   4.964   3.604   0.413  3.3327  0.2586 -0.9449
 1177SOL     OW 4429   1.450   6.400   4.055 -0.1173  0.0112 -0.2265
 1177SOL    HW1 4430   1.395   6.476   4.089 -0.0267 -0.5966  1.3559
 1177SOL    HW2 4431   1.426   6.316   4.103  1.6781 -0.4194  0.0037
 1178SOL     OW 4432   2.377   6.977   4.985 -0.2309  0.2132  0.1861
 1178SOL    HW1 4433   2.416   7.041   5.052  1.8254 -2.2326  1.5259
 1178SOL    HW2 4434   2.449   6.948   4.922 -0.3894 -2.4892  1.1161
 1179SOL     OW 4435   6.399   5.516   1.282 -0.3118 -0.3857 -0.2309
 1179SOL    HW1 4436   6.415   5.483   1.189 -2.5565  0.4808 -0.9820
 1179SOL    HW2 4437   6.444   5.604   1.295  1.6859 -1.4131  0.2204
 1180SOL     OW 4438   4.024   6.996   6.727  0.2499 -0.3591  0.3958
 1180SOL    HW1 4439   4.091   6.943   6.780  0.8235  0.0702  0.1103
 1180SOL    HW2 4440   3.980   7.063   6.786 -0.9475 -1.5681  0.9147
 1181SOL     OW 4441   1.702   6.221   4.726  0.1159 -0.7208  0.0426
 1181SOL    HW1 4442   1.752   6.207   4.640  1.6766 -1.1321  0.9673
 1181SOL    HW2 4443   1.739   6.302   4.772  0.7641 -1.6898  1.2854
 1182SOL     OW 4444   5.531   3.420   3.969  0.7360 -0.2996 -0.3444
 1182SOL    HW1 4445   5.454   3.373   4.012  0.7246  0.0395  0.0185
 1182SOL    HW2 4446   5.540   3.512   4.008 -0.0911  0.5247 -1.9993
 1183SOL     OW 4447   1.571   3.747   0.087 -0.1092 -0.8406  0.4654
 1183SOL    HW1 4448   1.603   3.652   0.089  1.9205 -0.2063  0.8818
 1183SOL    HW2 4449   1.632   3.804   0.143 -0.3875  0.9564 -0.9508
 1184SOL     OW 4450   6.955   1.187   4.090 -0.0309  0.1936 -0.6910
 1184SOL    HW1 4451   7.047   1.209   4.122 -0.3478 -1.8454  1.9447
 1184SOL    HW2 4452   6.938   1.089   4.100 -3.0178  0.6999  0.5362
 1185SOL     OW 4453   6.949   4.302   5.316  0.2079  0.7550 -0.1191
 1185SOL    HW1 4454   6.894   4.369   5.367 -0.4613  0.2680 -0.1866
 1185SOL    HW2 4455   7.009   4.253   5.379 -1.0418 -0.2665  0.3335
 1186SOL     OW 4456   5.196   6.978   4.308 -0.0547  0.0966  0.3970
 1186SOL    HW1 4457   5.101   6.998   4.285  0.3581  0.6239 -0.9850
 1186SOL    HW2 4458   5.214   6.880   4.296  0.1318  0.3399 -1.6774
 1187SOL     OW 4459   4.719   0.826   0.533  0.1303 -0.1375 -0.5809
 1187SOL    HW1 4460   4.694   0.896   0.465  1.5765  0.7508 -0.2399
 1187SOL    HW2 4461   4.655   0.830   0.610  0.0274  0.6266 -0.6991
 1188SOL     OW 4462   4.336   2.520   6.824 -0.3229 -0.8008  0.3916
 1188SOL    HW1 4463   4.387   2.603   6.844 -0.9201 -0.5284  0.8345
 1188SOL    HW2 4464   4.392   2.458   6.769  0.8111 -0.9173  1.6325
 1189SOL     OW 4465   0.318   2.604   3.798 -0.0331 -0.2263  0.3876
 1189SOL    HW1 4466   0.396   2.643   3.846 -1.6385  1.1309  2.0558
 1189SOL    HW2 4467   0.279   2.672   3.736  0.2604 -0.9957 -0.6699
 1190SOL     OW 4468   0.674   0.515   4.483  0.1680 -0.4990 -0.2545
 1190SOL    HW1 4469   0.707   0.578   4.553 -1.0068 -1.5950  1.3667
 1190SOL    HW2 4470   0.688   0.421   4.513 -2.5034 -1.0119 -0.3393
 1191SOL     OW 4471   3.353   5.584   2.536 -0.0450  0.5000  0.3684
 1191SOL    HW1 4472   3.360   5.588   2.636 -2.2831  0.4659  0.5826
 1191SOL    HW2 4473   3.268   5.628   2.507 -0.1546 -0.7764 -1.3913
 1192SOL     OW 4474   3.957   5.180   3.175 -0.0317 -0.1396 -0.3423
 1192SOL    HW1 4475   3.901   5.207   3.253 -1.2484  1.1061 -1.5976
 1192SOL    HW2 4476   4.036   5.240   3.167 -1.0511  1.1185 -1.2843
 1193SOL     OW 4477   6.877   6.037   3.542 -1.0549  0.6321  0.4719
 1193SOL    HW1 4478   6.822   5.986   3.476 -1.0225  0.2685  0.7212
 1193SOL    HW2 4479   6.929   5.973   3.599  0.3517  0.9945 -0.3718
 1194SOL     OW 4480   4.844   6.680   1.423 -0.3684 -0.0630  0.2806
 1194SOL    HW1 4481   4.870   6.758   1.367 -2.0908 -0.2047 -0.7860
 1194SOL    HW2 4482   4.892   6.598   1.391 -1.0533 -0.0670 -0.7729
 1195SOL     OW 4483   5.244   3.906   3.677  0.5344 -0.1270  0.1237
 1195SOL    HW1 4484   5.199   3.887   3.764  0.9882 -0.7000  0.2351
 1195SOL    HW2 4485   5.336   3.867   3.677  0.8199  0.5268 -0.3246
 1196SOL     OW 4486   0.113   6.420   6.498  0.4788 -0.9186  0.3724
 1196SOL    HW1 4487   0.154   6.330   6.487  0.4864 -1.0974  1.7703
 1196SOL    HW2 4488   0.056   6.422   6.580  1.4773  0.6883  1.0926
 1197SOL     OW 4489   2.197   6.882   5.382 -1.1783 -0.0193 -0.4836
 1197SOL    HW1 4490   2.171   6.885   5.285 -3.4259 -0.0621  0.0714
 1197SOL    HW2 4491   2.290   6.918   5.393 -0.7552 -0.3154 -2.6810
 1198SOL     OW 4492   1.826   0.558   0.204 -0.3934  0.3130 -0.6327
 1198SOL    HW1 4493   1.855   0.463   0.215  0.0548  0.1721 -2.6757
 1198SOL    HW2 4494   1.848   0.610   0.286 -0.3830 -1.2783  0.3980
 1199SOL     OW 4495   5.038   0.009   2.872  0.0594 -0.1680 -0.2289
 1199SOL    HW1 4496   5.052   0.043   2.779  0.6730 -0.2479 -0.1709
 1199SOL    HW2 4497   5.097  -0.071   2.887  2.0172  1.4244  1.0952
 1200SOL     OW 4498   3.931   4.353   1.080 -0.2798 -0.1269  0.0569
 1200SOL    HW1 4499   3.889   4.263   1.089  1.2874 -1.0460 -1.3403
 1200SOL    HW2 4500   3.998   4.351   1.006  0.5435  1.9175  0.6973
 1201SOL     OW 4501   0.862   4.020   5.111 -0.3072  0.0450 -0.1230
 1201SOL    HW1 4502   0.845   4.101   5.167 -0.1630 -0.0886  0.1150
 1201SOL    HW2 4503   0.790   4.012   5.041  0.6445  1.3772 -1.3195
 1202SOL     OW 4504   6.064   5.847   4.564  0.9127 -0.0946  0.2125
 1202SOL    HW1 4505   6.032   5.801   4.646 -0.7644 -0.8931 -0.8407
 1202SOL    HW2 4506   5.995   5.912   4.532  1.5809  0.2762 -0.5131
 1203SOL     OW 4507   3.520   0.158   5.152  0.0154  0.1138  0.0448
 1203SOL    HW1 4508   3.487   0.205   5.071  0.7558  0.9100  0.1924
 1203SOL    HW2 4509   3.539   0.224   5.224 -0.5408 -0.5729  0.8482
 1204SOL     OW 4510   3.509   6.233   2.755  0.0281 -0.2021  0.1134
 1204SOL    HW1 4511   3.509   6.201   2.660 -0.8848  0.2799 -0.0655
 1204SOL    HW2 4512   3.418   6.218   2.795  0.0361  0.7265  0.5179
 1205SOL     OW 4513   6.355   4.382   1.997 -0.3856 -0.2638 -0.2225
 1205SOL    HW1 4514   6.298   4.350   2.072 -0.3968  0.0214 -0.1052
 1205SOL    HW2 4515   6.324   4.473   1.968 -0.0689 -0.1618 -0.2417
 1206SOL     OW 4516   4.041   3.148   3.316 -0.2013 -0.1282 -0.2426
 1206SOL    HW1 4517   4.052   3.073   3.252 -0.2336  0.5035 -1.0029
 1206SOL    HW2 4518   4.002   3.113   3.402  1.2738 -1.2321  0.0233
 1207SOL     OW 4519   1.024   6.102   0.642 -0.3076  0.0311 -0.1141
 1207SOL    HW1 4520   1.009   6.004   0.626 -0.6108 -0.0927  0.8540
 1207SOL    HW2 4521   1.081   6.139   0.569  0.5458 -1.0530 -0.0295
 1208SOL     OW 4522   2.459   2.740   0.195  0.6921  0.3664  0.1066
 1208SOL    HW1 4523   2.431   2.825   0.151 -2.1751 -1.0202 -1.0554
 1208SOL    HW2 4524   2.411   2.730   0.283 -0.2087 -0.6716 -0.4715
 1209SOL     OW 4525   4.035   5.728   5.868  0.4363  0.0631  0.4355
 1209SOL    HW1 4526   3.995   5.767   5.951  0.4568  0.3695  0.3015
 1209SOL    HW2 4527   4.102   5.659   5.893 -0.2025 -0.4815  0.6617
 1210SOL     OW 4528   2.318   0.194   2.226 -0.0011 -0.1995 -0.0785
 1210SOL    HW1 4529   2.268   0.111   2.250  0.1621 -0.2041  0.2412
 1210SOL    HW2 4530   2.311   0.209   2.127 -0.7459 -0.1285 -0.0231
 1211SOL     OW 4531   1.608   1.587   1.165  0.2932  0.0088 -0.0370
 1211SOL    HW1 4532   1.609   1.490   1.140 -0.5681 -0.8425  2.7837
 1211SOL    HW2 4533   1.577   1.596   1.260  0.6155  3.0583 -0.1276
 1212SOL     OW 4534   0.508   6.299   1.307  0.1336 -0.4645 -0.0458
 1212SOL    HW1 4535   0.508   6.313   1.208  0.0809 -2.5370 -0.3798
 1212SOL    HW2 4536   0.553   6.376   1.351 -0.7722  1.0358 -1.5765
 1213SOL     OW 4537   4.999   3.610   2.565 -0.1618 -0.0384  0.0383
 1213SOL    HW1 4538   5.003   3.516   2.597 -0.5999 -0.3505 -0.7908
 1213SOL    HW2 4539   4.927   3.619   2.496  0.7056  0.6085 -0.8143
 1214SOL     OW 4540   1.458   2.515   2.604  0.3280  0.0329  0.2692
 1214SOL    HW1 4541   1.412   2.466   2.677  1.7694 -1.4142  0.2705
 1214SOL    HW2 4542   1.472   2.610   2.632 -1.3222  0.1409  0.8279
 1215SOL     OW 4543   2.812   5.557   3.434  0.2990  0.4107  0.2864
 1215SOL    HW1 4544   2.770   5.573   3.523  0.5936  0.6930  0.3770
 1215SOL    HW2 4545   2.827   5.645   3.388 -0.8874  0.2031 -0.5262
 1216SOL     OW 4546   3.238   1.365   1.802 -0.1988 -0.2275  0.4396
 1216SOL    HW1 4547   3.207   1.414   1.884 -0.6732 -1.0528  0.7704
 1216SOL    HW2 4548   3.159   1.346   1.743 -0.4384 -2.5663  1.4077
 1217SOL     OW 4549   1.936   3.933   2.840 -0.1882  0.0779 -0.4471
 1217SOL    HW1 4550   1.856   3.914   2.784 -0.6711  0.9555 -0.0677
 1217SOL    HW2 4551   2.001   3.857   2.832 -1.1212 -0.7257 -0.6318
 1218SOL     OW 4552   6.853   4.389   2.853  0.3227  0.3842  0.1780
 1218SOL    HW1 4553   6.848   4.398   2.754 -2.1089 -1.0495  0.1078
 1218SOL    HW2 4554   6.857   4.481   2.894 -0.3102  1.0484 -1.1841
 1219SOL     OW 4555   2.260   4.360   1.576 -0.6719 -0.2204 -0.1264
 1219SOL    HW1 4556   2.351   4.318   1.571 -0.3618  0.1987  1.5550
 1219SOL    HW2 4557   2.193   4.290   1.602 -0.6094 -0.2335 -0.0027
 1220SOL     OW 4558   0.812   5.399   1.467 -0.2511 -0.1551  0.1964
 1220SOL    HW1 4559   0.881   5.467   1.441 -0.4052 -0.1157 -0.1146
 1220SOL    HW2 4560   0.765   5.366   1.385 -0.2227 -0.5911  0.3538
 1221SOL     OW 4561   6.164   2.630   0.319 -0.2075  0.1221  0.3082
 1221SOL    HW1 4562   6.120   2.694   0.382  0.8140  1.8811 -0.7027
 1221SOL    HW2 4563   6.136   2.650   0.225  0.8840 -0.2758 -0.1235
 1222SOL     OW 4564   6.427   3.374   0.191  0.3284 -0.2746  0.1340
 1222SOL    HW1 4565   6.438   3.460   0.240 -0.1941 -0.0883 -0.0700
 1222SOL    HW2 4566   6.409   3.301   0.256  1.3417 -0.3443  0.3596
 1223SOL     OW 4567   4.739   4.728   1.617 -0.0417  0.8358 -0.4085
 1223SOL    HW1 4568   4.754   4.661   1.691 -0.2454  0.3344 -0.8154
 1223SOL    HW2 4569   4.699   4.682   1.538 -0.6348  1.5430 -0.5239
 1224SOL     OW 4570   3.117   6.757   1.457 -0.0663  0.3925 -0.6173
 1224SOL    HW1 4571   3.131   6.713   1.368  0.0884 -0.1090 -0.3507
 1224SOL    HW2 4572   3.179   6.716   1.524 -1.1173 -0.1805  0.0292
 1225SOL     OW 4573   3.876   3.146   5.929  0.4382  0.1957  0.4489
 1225SOL    HW1 4574   3.793   3.174   5.977  0.2161  0.3462 -0.0203
 1225SOL    HW2 4575   3.923   3.076   5.983 -0.5639 -0.6940  0.2073
 1226SOL     OW 4576   0.819   6.111   1.982  0.0549 -0.5581  0.1331
 1226SOL    HW1 4577   0.864   6.130   1.895 -1.9023  0.1858 -0.7531
 1226SOL    HW2 4578   0.801   6.013   1.990  2.0938 -0.9447  0.6863
 1227SOL     OW 4579   1.527   3.475   6.694 -0.4147 -0.7541  0.3303
 1227SOL    HW1 4580   1.465   3.523   6.757 -2.1020 -1.4535 -0.7138
 1227SOL    HW2 4581   1.520   3.376   6.711  1.8807 -0.7793  1.4458
 1228SOL     OW 4582   3.042   3.694   0.074 -0.2206  0.1926  0.0642
 1228SOL    HW1 4583   3.130   3.700   0.027  0.3995  1.3978  1.3006
 1228SOL    HW2 4584   3.028   3.601   0.107  1.9957  0.5314  2.3282
 1229SOL     OW 4585   3.148   4.026   0.426 -0.0594  0.2835 -0.7494
 1229SOL    HW1 4586   3.094   3.943   0.430 -0.4392  0.5792  0.9829
 1229SOL    HW2 4587   3.120   4.088   0.499  1.5645  1.0909 -0.7570
 1230SOL     OW 4588   5.113   1.719   2.517 -0.1506  0.2322  0.0383
 1230SOL    HW1 4589   5.054   1.797   2.496 -0.3012  0.3437  0.8191
 1230SOL    HW2 4590   5.058   1.635   2.513  0.4924 -0.1461 -3.0403
 1231SOL     OW 4591   6.905   2.730   2.988  0.1221  0.7005 -0.1013
 1231SOL    HW1 4592   6.812   2.765   2.998 -0.0859 -0.0893  0.8096
 1231SOL    HW2 4593   6.903   2.646   2.934  0.3134  0.6837 -0.0841
 1232SOL     OW 4594   2.563   2.022   2.306  0.0418 -0.3781  0.8938
 1232SOL    HW1 4595   2.484   2.028   2.245  0.3860 -2.7087  0.0946
 1232SOL    HW2 4596   2.533   2.032   2.401 -0.6580  2.2166  0.4767
 1233SOL     OW 4597   6.728   2.455   3.757 -0.4938 -0.0514  0.8398
 1233SOL    HW1 4598   6.791   2.420   3.826 -0.8358 -0.9501  0.7132
 1233SOL    HW2 4599   6.736   2.554   3.752  1.9679 -0.2390 -0.2052
 1234SOL     OW 4600   5.219   3.021   3.475 -0.0757  0.1581 -0.7364
 1234SOL    HW1 4601   5.177   3.078   3.546  1.3499 -0.9509  1.1049
 1234SOL    HW2 4602   5.158   2.945   3.453 -0.2452  0.1237 -0.1721
 1235SOL     OW 4603   6.035   5.300   4.376  0.0076 -0.0341 -0.3090
 1235SOL    HW1 4604   6.004   5.345   4.292 -0.5180  0.8058  0.3280
 1235SOL    HW2 4605   5.972   5.225   4.399 -0.8876  0.8850  0.3088
 1236SOL     OW 4606   4.817   0.181   0.372 -0.0535  0.1642 -0.3487
 1236SOL    HW1 4607   4.801   0.250   0.301  1.0754  0.7133 -0.0941
 1236SOL    HW2 4608   4.763   0.203   0.453  1.6607  1.8249  0.4059
 1237SOL     OW 4609   2.303   1.505   0.258 -0.1606 -0.0678  0.1092
 1237SOL    HW1 4610   2.353   1.434   0.309 -0.8748 -0.9980 -0.4474
 1237SOL    HW2 4611   2.367   1.553   0.197  0.1535 -0.9462 -0.2772
 1238SOL     OW 4612   1.533   1.939   1.642  0.0373 -0.7042  0.2376
 1238SOL    HW1 4613   1.546   1.861   1.703  0.5602 -0.4614  0.4411
 1238SOL    HW2 4614   1.487   2.013   1.692 -0.4970 -0.8949  0.0329
 1239SOL     OW 4615   6.508   6.856   3.952  0.3861  0.0393 -0.1308
 1239SOL    HW1 4616   6.555   6.928   3.903  0.2511  1.7514  2.0962
 1239SOL    HW2 4617   6.565   6.824   4.028  0.7548 -2.7970 -1.4555
 1240SOL     OW 4618   6.993   0.506   0.460 -0.5039 -0.3304  0.7256
 1240SOL    HW1 4619   7.044   0.552   0.387  0.1286  2.8830  2.9489
 1240SOL    HW2 4620   6.895   0.505   0.436 -0.1335 -0.9595 -0.8874
 1241SOL     OW 4621   2.215   2.747   4.071 -0.3030  0.5198  0.4570
 1241SOL    HW1 4622   2.175   2.815   4.010 -1.1185 -0.4141 -0.0906
 1241SOL    HW2 4623   2.145   2.714   4.135  0.7539  2.1886  2.6406
 1242SOL     OW 4624   1.270   0.794   6.924 -0.8825 -0.1325 -0.3633
 1242SOL    HW1 4625   1.277   0.812   6.826 -0.5110 -0.0896 -0.3300
 1242SOL    HW2 4626   1.224   0.706   6.939  0.5389 -0.9511 -0.6272
 1243SOL     OW 4627   3.219   5.267   3.700 -0.1206 -0.1072 -0.1251
 1243SOL    HW1 4628   3.122   5.287   3.690 -0.9835 -3.6246 -0.3058
 1243SOL    HW2 4629   3.242   5.259   3.797 -0.6858 -1.6326 -0.0794
 1244SOL     OW 4630   1.229   3.266   2.403  0.2075 -0.0647  0.2187
 1244SOL    HW1 4631   1.256   3.250   2.498  3.0283 -0.8159 -0.5978
 1244SOL    HW2 4632   1.244   3.183   2.349  3.1399  1.4795 -1.6902
 1245SOL     OW 4633   3.309   4.210   5.189  0.8220 -0.1222 -0.0491
 1245SOL    HW1 4634   3.225   4.165   5.219  1.3373 -0.6591  0.5899
 1245SOL    HW2 4635   3.332   4.180   5.096 -0.1341  0.6600 -0.5608
 1246SOL     OW 4636   0.132   1.131   2.639 -0.4808 -0.3962 -0.0511
 1246SOL    HW1 4637   0.138   1.055   2.703  0.8845  0.8505  1.4094
 1246SOL    HW2 4638   0.103   1.098   2.550 -1.6372 -2.3326  0.9838
 1247SOL     OW 4639   0.355   0.482   0.423  0.4449 -0.0839  0.3430
 1247SOL    HW1 4640   0.372   0.384   0.407  2.4383  0.3107 -0.2288
 1247SOL    HW2 4641   0.442   0.528   0.441 -0.4794  1.5865  0.7190
 1248SOL     OW 4642   1.875   6.301   3.805 -0.1240 -0.1469  0.0919
 1248SOL    HW1 4643   1.950   6.311   3.740  0.1150  0.4481  0.4561
 1248SOL    HW2 4644   1.797   6.355   3.775 -1.2232 -2.4348 -1.4441
 1249SOL     OW 4645   0.259   1.867   3.044 -0.1578 -0.5696  0.3120
 1249SOL    HW1 4646   0.282   1.932   3.116 -0.3990 -1.9284  1.6554
 1249SOL    HW2 4647   0.161   1.848   3.045 -0.2196 -0.3481 -0.5994
 1250SOL     OW 4648   5.361   2.391   4.577 -0.4271 -0.2384  0.0794
 1250SOL    HW1 4649   5.398   2.459   4.641 -1.1591  0.1563  0.0960
 1250SOL    HW2 4650   5.284   2.344   4.621  1.3813 -2.6381  0.9194
 1251SOL     OW 4651   3.154   6.449   6.281  0.2456  0.4539  0.4473
 1251SOL    HW1 4652   3.200   6.535   6.257 -0.1170  0.4191 -0.3983
 1251SOL    HW2 4653   3.127   6.401   6.198  2.2179 -1.4807  0.8308
 1252SOL     OW 4654   4.540   2.853   1.439 -0.6640  0.4312  0.1319
 1252SOL    HW1 4655   4.582   2.898   1.517 -0.0984  1.4478 -0.7263
 1252SOL    HW2 4656   4.473   2.915   1.397 -0.3392  0.2449 -0.6870
 1253SOL     OW 4657   6.145   0.179   3.032  0.2770 -0.8024  0.2063
 1253SOL    HW1 4658   6.215   0.118   3.069  1.1273  0.7875  1.3265
 1253SOL    HW2 4659   6.062   0.172   3.087  1.0809  0.5445  1.6586
 1254SOL     OW 4660   4.615   1.474   0.500 -0.3587 -0.3648 -0.2317
 1254SOL    HW1 4661   4.645   1.569   0.503 -3.1099  0.7273 -2.4009
 1254SOL    HW2 4662   4.554   1.456   0.577 -0.2134 -0.2176 -0.0815
 1255SOL     OW 4663   6.449   0.578   6.700  0.2136 -0.0966 -0.3037
 1255SOL    HW1 4664   6.510   0.505   6.671 -0.4106 -0.6104 -0.3452
 1255SOL    HW2 4665   6.462   0.658   6.642  1.1414 -0.0525 -0.0407
 1256SOL     OW 4666   5.757   4.414   3.565 -0.1086 -0.6048 -0.1312
 1256SOL    HW1 4667   5.814   4.453   3.492  0.3415 -0.6213  0.2073
 1256SOL    HW2 4668   5.695   4.346   3.525 -2.0673  1.5556 -1.0190
 1257SOL     OW 4669   5.282   1.203   3.798  0.3668 -0.5406 -0.3977
 1257SOL    HW1 4670   5.287   1.255   3.712  0.8802  0.8753  0.4553
 1257SOL    HW2 4671   5.209   1.240   3.855 -1.5620 -2.9510 -1.1033
 1258SOL     OW 4672   0.778   5.563   2.158  0.0578  0.0477  0.0265
 1258SOL    HW1 4673   0.735   5.623   2.225 -0.7920 -0.4830 -0.0245
 1258SOL    HW2 4674   0.867   5.600   2.132  0.8561 -0.2258  2.1758
 1259SOL     OW 4675   6.418   1.959   6.901 -0.2997 -0.2023 -0.1615
 1259SOL    HW1 4676   6.326   1.921   6.909 -1.2773  1.8186 -1.1720
 1259SOL    HW2 4677   6.432   2.029   6.971  0.8090 -1.0262  0.4944
 1260SOL     OW 4678   2.664   2.021   4.522  0.0823  0.3055  0.0351
 1260SOL    HW1 4679   2.621   1.953   4.581 -0.8187  2.3671  1.9341
 1260SOL    HW2 4680   2.763   2.004   4.518 -0.2625 -1.7550 -0.5245
 1261SOL     OW 4681   0.488   4.400   1.185 -0.3990 -0.2569  0.2548
 1261SOL    HW1 4682   0.399   4.384   1.144 -1.2205  1.8537  1.0717
 1261SOL    HW2 4683   0.560   4.383   1.117 -1.4756 -0.9004 -0.7455
 1262SOL     OW 4684   4.433   6.381   1.061 -0.3066 -0.5422  0.1671
 1262SOL    HW1 4685   4.350   6.409   1.013  0.2206 -0.9382 -1.0196
 1262SOL    HW2 4686   4.416   6.297   1.113 -0.0629 -2.0797 -2.0862
 1263SOL     OW 4687   0.789   0.902   3.110  0.0467  0.0515  0.1766
 1263SOL    HW1 4688   0.724   0.827   3.106  0.3473 -0.2867  1.3596
 1263SOL    HW2 4689   0.797   0.935   3.204  2.4279 -0.6773  0.2961
 1264SOL     OW 4690   0.657   1.716   5.391 -0.3069 -0.3351  0.1761
 1264SOL    HW1 4691   0.558   1.710   5.398 -0.3173 -0.3133  0.0582
 1264SOL    HW2 4692   0.685   1.812   5.396 -0.2712 -0.3606  0.4631
 1265SOL     OW 4693   0.875   2.551   5.527 -0.3753  0.3561 -0.5447
 1265SOL    HW1 4694   0.953   2.614   5.520 -0.1519  0.6702  2.8683
 1265SOL    HW2 4695   0.793   2.602   5.549 -0.5498 -0.3501  0.5314
 1266SOL     OW 4696   4.484   1.759   0.773  0.0736 -0.2692 -0.1881
 1266SOL    HW1 4697   4.434   1.798   0.851 -0.0035  1.6840 -1.1437
 1266SOL    HW2 4698   4.458   1.664   0.761 -3.0645  0.4858 -0.3033
 1267SOL     OW 4699   2.746   2.202   1.726 -0.8911 -0.0584 -0.2141
 1267SOL    HW1 4700   2.842   2.189   1.703 -1.1152  0.2201 -1.3479
 1267SOL    HW2 4701   2.730   2.171   1.820  0.3150 -0.0186  0.0212
 1268SOL     OW 4702   4.359   6.612   5.214  0.2483  0.3474  0.0916
 1268SOL    HW1 4703   4.331   6.534   5.270  0.1672  0.1880 -0.1706
 1268SOL    HW2 4704   4.451   6.598   5.179 -0.4778 -0.5708 -1.5979
 1269SOL     OW 4705   5.787   2.789   3.334  0.8422  0.1690  0.5482
 1269SOL    HW1 4706   5.836   2.719   3.385  0.4495 -2.3771 -2.2998
 1269SOL    HW2 4707   5.724   2.746   3.269  0.5173  3.1649 -1.3284
 1270SOL     OW 4708   5.677   0.260   3.038  0.3046 -0.2339  0.4514
 1270SOL    HW1 4709   5.633   0.340   3.079 -0.8217 -1.0680  0.9308
 1270SOL    HW2 4710   5.762   0.241   3.086  1.1475  1.2969 -0.3669
 1271SOL     OW 4711   0.536   1.560   1.988 -0.1446 -0.1296  0.0618
 1271SOL    HW1 4712   0.468   1.576   2.059 -0.8328  1.8369 -0.9784
 1271SOL    HW2 4713   0.583   1.473   2.006 -0.3525  0.2625  2.8276
 1272SOL     OW 4714   6.139   2.703   0.055  0.0756  0.5346  0.1612
 1272SOL    HW1 4715   6.109   2.783   0.004  2.4692  0.9510 -0.7452
 1272SOL    HW2 4716   6.138   2.623  -0.006  0.8079  0.5678  0.1007
 1273SOL     OW 4717   1.725   3.070   2.504 -0.1813  0.2175  0.2585
 1273SOL    HW1 4718   1.787   3.042   2.577  0.6086  1.8705  0.2794
 1273SOL    HW2 4719   1.749   3.163   2.475 -1.7942  0.3664 -0.6852
 1274SOL     OW 4720   2.141   3.183   6.460 -0.2662  0.1993  0.2688
 1274SOL    HW1 4721   2.117   3.137   6.545  2.6884 -0.9400  0.6368
 1274SOL    HW2 4722   2.191   3.119   6.401  1.4241  2.1096 -0.5004
 1275SOL     OW 4723   1.526   1.699   3.022  0.2492 -0.1626  0.2597
 1275SOL    HW1 4724   1.576   1.758   2.958  0.1880  0.1438  0.4915
 1275SOL    HW2 4725   1.429   1.725   3.021  0.4131  0.5305  1.2261
 1276SOL     OW 4726   5.261   4.649   2.285 -0.1920 -0.1965 -0.4150
 1276SOL    HW1 4727   5.286   4.556   2.312 -1.8317 -0.1804  1.3652
 1276SOL    HW2 4728   5.164   4.651   2.258 -0.1525  0.9762 -0.5324
 1277SOL     OW 4729   0.437   5.137   5.156  0.3341 -0.4894  0.1499
 1277SOL    HW1 4730   0.440   5.166   5.060  2.7642 -1.2326 -0.0725
 1277SOL    HW2 4731   0.343   5.121   5.183 -0.6146  1.8284 -1.4497
 1278SOL     OW 4732   5.991   5.736   5.270 -0.1839  0.3981 -0.4755
 1278SOL    HW1 4733   6.081   5.773   5.248 -0.5591  0.9580 -1.0970
 1278SOL    HW2 4734   5.928   5.755   5.195 -0.5607 -0.9237 -0.5192
 1279SOL     OW 4735   4.041   1.757   4.797  0.4242  0.1830 -0.1198
 1279SOL    HW1 4736   4.087   1.673   4.825  0.7573 -0.0838 -1.4291
 1279SOL    HW2 4737   4.077   1.834   4.850  1.1013 -0.2857  0.1163
 1280SOL     OW 4738   3.020   2.241   2.962  0.5687  0.3471  0.3021
 1280SOL    HW1 4739   3.063   2.297   2.891  1.7831  0.5356  1.1447
 1280SOL    HW2 4740   3.080   2.164   2.985  1.6549  1.8825  3.1353
 1281SOL     OW 4741   4.218   6.302   5.611  0.2398  0.1339 -0.7762
 1281SOL    HW1 4742   4.184   6.383   5.563 -1.3107 -0.5353 -0.8730
 1281SOL    HW2 4743   4.142   6.240   5.629  1.2319 -0.8404  0.2134
 1282SOL     OW 4744   6.586   4.657   1.953  0.1574  0.3712  0.2317
 1282SOL    HW1 4745   6.588   4.691   2.047  1.6855 -0.2271  0.4465
 1282SOL    HW2 4746   6.531   4.718   1.897 -1.6983  0.1434  1.7207
 1283SOL     OW 4747   1.976   1.157   6.571 -0.3709  0.2540 -0.1672
 1283SOL    HW1 4748   2.061   1.196   6.608 -0.7514 -0.8425  2.0222
 1283SOL    HW2 4749   1.911   1.141   6.645 -2.3738  0.6535 -1.7365
 1284SOL     OW 4750   4.661   2.366   1.983 -0.4190 -0.1651 -0.3053
 1284SOL    HW1 4751   4.653   2.283   2.039  0.1171 -0.7908 -1.1276
 1284SOL    HW2 4752   4.740   2.419   2.015 -0.0354 -0.5859 -0.5335
 1285SOL     OW 4753   4.068   1.042   5.240  0.1854  0.1184 -0.0615
 1285SOL    HW1 4754   4.023   1.080   5.321  1.3507  0.4543  0.4520
 1285SOL    HW2 4755   4.167   1.041   5.255  0.4473  0.5484 -1.6418
 1286SOL     OW 4756   4.247   1.893   2.734  0.2185 -0.9743  0.4589
 1286SOL    HW1 4757   4.215   1.857   2.647  1.4289 -1.0534  0.0256
 1286SOL    HW2 4758   4.347   1.890   2.737  0.1994 -1.1568  1.9264
 1287SOL     OW 4759   6.434   2.682   0.304 -0.6156  0.2261 -0.0749
 1287SOL    HW1 4760   6.334   2.682   0.305 -0.6482 -1.4222 -0.0490
 1287SOL    HW2 4761   6.467   2.587   0.305  0.9427  0.7308 -0.8124
 1288SOL     OW 4762   4.931   4.006   5.411 -0.0825  0.2545 -0.1882
 1288SOL    HW1 4763   4.947   4.019   5.313 -0.1901 -0.2579 -0.2754
 1288SOL    HW2 4764   4.840   4.042   5.434 -1.1092 -1.7991 -0.7633
 1289SOL     OW 4765   1.084   4.415   6.337 -0.1545  0.0626 -0.2336
 1289SOL    HW1 4766   1.160   4.351   6.332 -0.3048 -0.1736  0.4654
 1289SOL    HW2 4767   1.089   4.466   6.423  0.4644  1.6249 -1.1364
 1290SOL     OW 4768   2.137   5.130   4.731  0.3481  0.1261  0.6310
 1290SOL    HW1 4769   2.109   5.087   4.645 -0.5070 -0.2113  1.0691
 1290SOL    HW2 4770   2.212   5.079   4.772  0.0914 -0.2901  0.5828
 1291SOL     OW 4771   3.553   0.489   3.596  0.5159 -0.2202  0.1000
 1291SOL    HW1 4772   3.518   0.444   3.514 -0.1826  1.3054 -0.4765
 1291SOL    HW2 4773   3.524   0.438   3.677 -0.0002 -0.9622 -0.5387
 1292SOL     OW 4774   5.339   6.996   2.771 -0.3362 -0.5099 -0.3193
 1292SOL    HW1 4775   5.427   6.962   2.804 -0.8195 -0.2570  1.3485
 1292SOL    HW2 4776   5.320   7.085   2.813 -1.7428 -0.9353  0.0198
 1293SOL     OW 4777   4.615   0.813   1.770 -0.6490 -0.4550 -0.2923
 1293SOL    HW1 4778   4.588   0.818   1.866 -1.4873  1.1895 -0.5741
 1293SOL    HW2 4779   4.620   0.717   1.742 -1.4600 -0.9349  1.1007
 1294SOL     OW 4780   2.776   4.586   5.617 -0.0246 -0.3411  0.5558
 1294SOL    HW1 4781   2.771   4.686   5.625 -0.3970 -0.3982  1.0944
 1294SOL    HW2 4782   2.773   4.545   5.709 -0.7803 -0.8804  0.3043
 1295SOL     OW 4783   6.004   3.871   0.811  0.7772 -0.3183 -0.4099
 1295SOL    HW1 4784   6.098   3.899   0.797  0.4970 -0.2453 -2.4138
 1295SOL    HW2 4785   5.943   3.950   0.797  0.3083 -0.8022 -1.1814
 1296SOL     OW 4786   4.049   6.114   5.854  0.1739 -0.2383 -0.2524
 1296SOL    HW1 4787   4.059   6.031   5.799 -0.7659 -0.6013  0.1139
 1296SOL    HW2 4788   3.962   6.112   5.903 -1.6232  2.5713 -2.9571
 1297SOL     OW 4789   5.483   6.311   4.795 -0.3946 -0.1906 -0.1401
 1297SOL    HW1 4790   5.399   6.361   4.816 -1.3732 -0.3342 -3.2696
 1297SOL    HW2 4791   5.561   6.372   4.806 -1.2590  1.0594 -0.6220
 1298SOL     OW 4792   4.327   1.011   3.779 -0.5849  0.1340 -0.5678
 1298SOL    HW1 4793   4.282   1.084   3.727 -1.1537 -0.0739 -0.3825
 1298SOL    HW2 4794   4.380   1.051   3.853  1.1270  0.5102 -1.9272
 1299SOL     OW 4795   0.810   5.622   4.152  0.4920  0.2183 -0.1247
 1299SOL    HW1 4796   0.744   5.649   4.082 -1.5295 -2.3127  0.6364
 1299SOL    HW2 4797   0.876   5.557   4.112 -0.6462 -1.2067  0.2433
 1300SOL     OW 4798   1.702   3.612   1.583  0.0844  0.3509  0.1055
 1300SOL    HW1 4799   1.726   3.695   1.534  0.8915 -0.4890 -0.9661
 1300SOL    HW2 4800   1.786   3.569   1.617 -0.2906 -0.2700  0.2483
 1301SOL     OW 4801   6.513   2.937   5.964 -0.1730 -0.1264 -0.9975
 1301SOL    HW1 4802   6.594   2.880   5.949 -0.9761 -0.7580 -3.4382
 1301SOL    HW2 4803   6.471   2.912   6.051  0.2400 -2.3581 -1.3586
 1302SOL     OW 4804   0.140   6.669   5.038  0.1158  0.2254  0.2984
 1302SOL    HW1 4805   0.192   6.634   5.116 -1.0802 -2.2727  0.0810
 1302SOL    HW2 4806   0.181   6.638   4.953 -0.4802  0.1051  0.0515
 1303SOL     OW 4807   3.107   1.136   0.517 -0.0114 -0.1384 -0.0998
 1303SOL    HW1 4808   3.171   1.156   0.442 -0.6857  0.7239 -0.4685
 1303SOL    HW2 4809   3.126   1.198   0.593 -0.6221  0.3650 -0.3486
 1304SOL     OW 4810   6.666   1.056   6.904  0.5186 -0.2299  0.0653
 1304SOL    HW1 4811   6.656   1.133   6.967 -0.0912 -1.4232  1.4970
 1304SOL    HW2 4812   6.588   1.054   6.842  0.8066  0.5949 -0.3430
 1305SOL     OW 4813   3.747   4.413   6.777  0.1406 -0.2394  1.0452
 1305SOL    HW1 4814   3.763   4.439   6.873  0.3950  0.9764  0.6911
 1305SOL    HW2 4815   3.766   4.491   6.718 -0.8088 -0.7248  0.0593
 1306SOL     OW 4816   0.851   4.515   5.397 -0.7802  0.3201 -0.0116
 1306SOL    HW1 4817   0.885   4.543   5.307 -2.9453  2.0877 -0.3632
 1306SOL    HW2 4818   0.810   4.594   5.443  0.5411 -0.4511  2.7273
 1307SOL     OW 4819   1.678   5.089   2.666  0.2412  0.1495 -0.5344
 1307SOL    HW1 4820   1.684   5.118   2.761 -0.8905 -1.7062  0.1668
 1307SOL    HW2 4821   1.764   5.109   2.619  0.7399  1.2790  0.8147
 1308SOL     OW 4822   0.123   4.776   6.196  0.0280 -0.1464 -0.3918
 1308SOL    HW1 4823   0.123   4.862   6.247 -4.0980 -0.8119  1.1185
 1308SOL    HW2 4824   0.101   4.794   6.100 -2.0879  0.4955  0.1659
 1309SOL     OW 4825   5.579   3.744   0.685 -0.3728  0.9637  0.8313
 1309SOL    HW1 4826   5.676   3.744   0.661 -0.3486 -0.7432  0.8352
 1309SOL    HW2 4827   5.569   3.763   0.783 -0.0068  0.5923  0.9404
 1310SOL     OW 4828   2.091   1.484   2.884 -0.1621  0.2046 -0.1004
 1310SOL    HW1 4829   2.010   1.540   2.867 -0.1086  1.0558  2.0916
 1310SOL    HW2 4830   2.070   1.417   2.956  0.8999  0.0168  0.0501
 1311SOL     OW 4831   6.608   4.326   6.882 -0.6997  0.3787 -0.4290
 1311SOL    HW1 4832   6.556   4.250   6.842 -0.9298 -0.2697  1.0387
 1311SOL    HW2 4833   6.697   4.332   6.838 -0.9794 -0.2416 -1.1021
 1312SOL     OW 4834   0.691   0.882   4.842 -0.2877 -0.3799 -0.1990
 1312SOL    HW1 4835   0.625   0.952   4.867  0.0756  0.0534 -0.4345
 1312SOL    HW2 4836   0.783   0.922   4.837  0.4629 -1.4866  2.7213
 1313SOL     OW 4837   4.583   6.458   3.798  0.1989  1.0344 -0.2973
 1313SOL    HW1 4838   4.580   6.426   3.892  0.3253  3.4585  0.6083
 1313SOL    HW2 4839   4.668   6.507   3.781 -0.2339  1.4674 -1.3683
 1314SOL     OW 4840   1.604   1.390   2.018 -0.5985 -0.5566  0.1696
 1314SOL    HW1 4841   1.505   1.380   2.013 -0.6866  0.4268 -0.2973
 1314SOL    HW2 4842   1.627   1.464   2.081 -0.1753 -0.5152 -0.0321
 1315SOL     OW 4843   5.117   1.651   3.583 -0.2187  0.3920 -0.6149
 1315SOL    HW1 4844   5.172   1.594   3.522  0.6949  0.2331  0.3206
 1315SOL    HW2 4845   5.076   1.594   3.654 -0.1368  0.7536 -0.2719
 1316SOL     OW 4846   5.526   1.219   4.575  0.3994  0.9514  0.6503
 1316SOL    HW1 4847   5.528   1.202   4.477  0.4377 -0.0377  0.8149
 1316SOL    HW2 4848   5.568   1.307   4.595 -1.5147  2.1724 -0.4131
 1317SOL     OW 4849   2.982   3.166   4.519 -0.4277 -0.0308  0.3191
 1317SOL    HW1 4850   2.901   3.108   4.509 -1.1203  0.6735  1.5771
 1317SOL    HW2 4851   3.053   3.116   4.569 -0.6132 -0.1822  0.4352
 1318SOL     OW 4852   0.479   6.647   0.232  0.2959 -0.2387 -0.3531
 1318SOL    HW1 4853   0.380   6.653   0.244  0.1163 -0.6568 -1.5472
 1318SOL    HW2 4854   0.524   6.702   0.302 -0.6926 -1.8760  1.6640
 1319SOL     OW 4855   6.087   0.567   6.640  0.0362 -0.0375  0.1053
 1319SOL    HW1 4856   6.139   0.632   6.585  0.4501  0.3002  0.8834
 1319SOL    HW2 4857   6.138   0.543   6.723 -0.2636 -1.0944  0.0012
 1320SOL     OW 4858   2.618   3.827   5.305 -0.1661 -0.4206 -0.2666
 1320SOL    HW1 4859   2.558   3.877   5.244 -0.6266 -1.3462 -0.5878
 1320SOL    HW2 4860   2.573   3.743   5.335 -0.1201  0.1956  1.6715
 1321SOL     OW 4861   5.182   3.291   1.494 -0.5171 -0.2869  0.0601
 1321SOL    HW1 4862   5.095   3.316   1.536 -0.8172  1.1846 -1.3065
 1321SOL    HW2 4863   5.193   3.192   1.496 -1.8755 -0.4457  0.9122
 1322SOL     OW 4864   1.160   1.727   0.233 -0.3081  0.5204 -0.0111
 1322SOL    HW1 4865   1.260   1.726   0.239 -0.2896  0.6584 -0.2867
 1322SOL    HW2 4866   1.130   1.812   0.190 -0.6248  1.1659  1.4469
 1323SOL     OW 4867   5.608   0.722   0.573  0.7355 -0.0064  0.4284
 1323SOL    HW1 4868   5.639   0.700   0.665  0.7047  0.7508  0.6303
 1323SOL    HW2 4869   5.549   0.803   0.576 -2.1751 -1.9889  0.1873
 1324SOL     OW 4870   2.965   4.158   6.155  0.6379  0.2729 -0.5234
 1324SOL    HW1 4871   2.867   4.140   6.166  0.8346  0.0674  1.1452
 1324SOL    HW2 4872   3.017   4.101   6.218  1.8416  0.4355 -1.3380
 1325SOL     OW 4873   3.287   5.782   6.518  0.5437 -0.0197 -0.0434
 1325SOL    HW1 4874   3.257   5.720   6.591 -0.6907  1.6448  0.9488
 1325SOL    HW2 4875   3.315   5.729   6.439 -0.6689 -1.8406  0.6733
 1326SOL     OW 4876   5.299   0.130   6.171  0.4837 -0.2135  0.0875
 1326SOL    HW1 4877   5.255   0.166   6.090  1.4049 -0.8504 -0.7223
 1326SOL    HW2 4878   5.384   0.181   6.189  0.3254 -0.1248  0.6083
 1327SOL     OW 4879   5.260   0.126   2.360 -0.2302 -0.2959 -0.2261
 1327SOL    HW1 4880   5.248   0.222   2.334 -0.5535 -0.1530  0.4436
 1327SOL    HW2 4881   5.352   0.114   2.399 -0.6622  0.0248  0.9173
 1328SOL     OW 4882   1.422   1.761   4.318  0.4100 -0.6363 -0.5085
 1328SOL    HW1 4883   1.500   1.805   4.273 -0.3367 -1.0343 -2.2887
 1328SOL    HW2 4884   1.448   1.668   4.345  1.1842 -0.0431  0.8699
 1329SOL     OW 4885   2.875   2.001   4.130  0.4824  0.0265  0.6467
 1329SOL    HW1 4886   2.797   2.033   4.184  0.2988 -0.8164  0.8886
 1329SOL    HW2 4887   2.844   1.938   4.060  0.8350  0.4353  0.1157
 1330SOL     OW 4888   6.016   3.607   2.908  0.0306  0.1244 -0.8633
 1330SOL    HW1 4889   6.007   3.512   2.939 -0.0273  1.2065  2.9907
 1330SOL    HW2 4890   5.928   3.639   2.873 -0.0308 -1.1188 -1.8968
 1331SOL     OW 4891   2.798   1.789   2.487  0.3633 -0.2758  0.4056
 1331SOL    HW1 4892   2.803   1.847   2.406 -0.8302 -1.0792 -0.2678
 1331SOL    HW2 4893   2.752   1.704   2.465  2.5325 -1.7614  1.2455
 1332SOL     OW 4894   1.922   1.011   1.430 -0.0008 -0.1736 -0.7419
 1332SOL    HW1 4895   1.953   0.980   1.519 -0.8829 -0.4955 -0.5397
 1332SOL    HW2 4896   1.836   1.061   1.440 -0.1323 -0.2575 -1.4198
 1333SOL     OW 4897   4.826   3.157   1.374  0.7817 -0.1322 -0.5513
 1333SOL    HW1 4898   4.833   3.195   1.466 -0.7090 -0.2733 -0.3646
 1333SOL    HW2 4899   4.817   3.232   1.308 -0.7732 -0.0897 -0.3149
 1334SOL     OW 4900   6.613   3.809   1.434  0.2419 -0.2344  0.3002
 1334SOL    HW1 4901   6.603   3.713   1.459  1.1425 -0.7203 -1.0506
 1334SOL    HW2 4902   6.659   3.858   1.508  0.4598 -1.0248  0.6999
 1335SOL     OW 4903   6.202   3.207   2.857  0.0281  0.5465 -0.0297
 1335SOL    HW1 4904   6.249   3.127   2.820  1.0776  0.7235  0.8540
 1335SOL    HW2 4905   6.268   3.263   2.908 -0.8778  1.5109  0.1036
 1336SOL     OW 4906   2.109   4.498   6.403 -0.0162 -1.0174  0.4177
 1336SOL    HW1 4907   2.055   4.438   6.344 -0.2371  1.9421 -2.7552
 1336SOL    HW2 4908   2.205   4.495   6.374 -0.2064  0.8414 -0.5214
 1337SOL     OW 4909   6.202   6.288   0.886 -0.0131 -0.6513 -0.0391
 1337SOL    HW1 4910   6.166   6.303   0.794 -0.8142 -1.3290  0.1525
 1337SOL    HW2 4911   6.298   6.259   0.881 -0.4491 -2.0505 -0.7432
 1338SOL     OW 4912   6.739   4.187   3.646 -0.3248 -0.0133 -0.1255
 1338SOL    HW1 4913   6.740   4.272   3.594  1.0179 -1.1306 -2.0535
 1338SOL    HW2 4914   6.820   4.184   3.705 -0.2568 -0.0607 -0.2218
 1339SOL     OW 4915   5.139   6.465   6.671 -0.2067 -0.0882  0.1691
 1339SOL    HW1 4916   5.121   6.411   6.589 -1.6120 -0.1267  0.4696
 1339SOL    HW2 4917   5.208   6.420   6.727  1.1895  0.2217 -1.2335
 1340SOL     OW 4918   3.498   2.305   6.486 -0.6403 -0.3444  0.2946
 1340SOL    HW1 4919   3.479   2.227   6.426 -0.5082 -1.1228  1.2409
 1340SOL    HW2 4920   3.462   2.286   6.577 -1.3696  1.0758  0.3285
 1341SOL     OW 4921   4.192   5.031   0.025 -0.1169 -0.0149 -0.3556
 1341SOL    HW1 4922   4.112   4.999   0.076  1.0202 -2.0697  0.2407
 1341SOL    HW2 4923   4.216   4.964  -0.045  1.3333  0.3488 -0.2386
 1342SOL     OW 4924   2.607   5.483   2.038 -0.2629  0.6035  0.0854
 1342SOL    HW1 4925   2.619   5.582   2.031 -1.0069  0.7258  0.4234
 1342SOL    HW2 4926   2.625   5.454   2.132 -1.3611  0.6285  0.3233
 1343SOL     OW 4927   3.778   5.169   3.445 -0.1821  0.2819 -0.3952
 1343SOL    HW1 4928   3.848   5.211   3.503 -0.0197  0.0391 -0.4146
 1343SOL    HW2 4929   3.773   5.071   3.465 -1.3070  0.4850  0.4319
 1344SOL     OW 4930   0.994   5.610   1.331 -0.8248  0.3230 -0.1250
 1344SOL    HW1 4931   0.955   5.686   1.277  0.1025  0.9159  0.0271
 1344SOL    HW2 4932   1.078   5.578   1.288 -0.5969  0.1448  0.4464
 1345SOL     OW 4933   0.085   6.712   5.511 -0.0473 -0.2561 -0.7364
 1345SOL    HW1 4934   0.152   6.780   5.483 -1.0363  0.4941 -1.3038
 1345SOL    HW2 4935   0.101   6.627   5.461 -0.5288  0.4359 -2.0971
 1346SOL     OW 4936   3.971   6.195   2.706  0.0388  0.1859  0.5910
 1346SOL    HW1 4937   4.049   6.170   2.648  0.3128  0.8685  0.6605
 1346SOL    HW2 4938   3.927   6.112   2.739  1.4303 -0.2411  1.4738
 1347SOL     OW 4939   5.563   0.097   4.500  0.0767  0.5562 -0.6343
 1347SOL    HW1 4940   5.600   0.183   4.535 -1.3182  1.0046 -0.1716
 1347SOL    HW2 4941   5.465   0.093   4.520 -0.6969  0.5057 -3.8967
 1348SOL     OW 4942   2.046   5.226   3.509 -0.1632 -0.1298 -0.3259
 1348SOL    HW1 4943   1.981   5.236   3.585 -0.1580  0.6217 -0.4121
 1348SOL    HW2 4944   2.111   5.302   3.511  2.5611 -2.2583  1.4886
 1349SOL     OW 4945   5.256   3.288   3.785 -0.0248 -0.3797  0.1044
 1349SOL    HW1 4946   5.193   3.211   3.775 -0.5111  0.0404 -0.1524
 1349SOL    HW2 4947   5.313   3.295   3.703  0.7606 -1.1005  0.5697
 1350SOL     OW 4948   5.156   3.861   6.847 -0.7763  0.3276  0.0926
 1350SOL    HW1 4949   5.165   3.837   6.750  2.0578  0.9409  0.1148
 1350SOL    HW2 4950   5.169   3.779   6.903 -0.0629  0.3559 -0.0203
 1351SOL     OW 4951   6.467   2.375   6.964 -0.2559 -0.2898 -0.0065
 1351SOL    HW1 4952   6.423   2.393   6.876  0.4543  0.3283 -0.2424
 1351SOL    HW2 4953   6.549   2.431   6.973 -2.3834  2.8388  2.7118
 1352SOL     OW 4954   2.777   1.838   3.932  0.3938 -0.2443 -0.0413
 1352SOL    HW1 4955   2.868   1.827   3.891  0.6701  0.6459  0.2910
 1352SOL    HW2 4956   2.717   1.886   3.868  0.1426 -0.8505 -0.2690
 1353SOL     OW 4957   5.919   3.054   4.935  0.0410  0.5182 -0.6391
 1353SOL    HW1 4958   5.927   2.969   4.987  0.5858  0.6160 -0.5558
 1353SOL    HW2 4959   5.861   3.039   4.855 -0.7039  0.3364 -0.0747
 1354SOL     OW 4960   5.097   5.756   3.214 -0.1364 -0.1652 -0.0869
 1354SOL    HW1 4961   5.079   5.847   3.251 -0.9601 -1.5841  3.3702
 1354SOL    HW2 4962   5.019   5.697   3.232  0.6201 -1.7506 -1.7253
 1355SOL     OW 4963   2.951   3.857   2.613  0.9273  0.1081 -0.3054
 1355SOL    HW1 4964   2.969   3.763   2.641 -0.8524 -0.1670  0.0435
 1355SOL    HW2 4965   2.923   3.858   2.517  1.4174  0.3545 -0.4497
 1356SOL     OW 4966   3.229   3.299   0.222 -0.2937  0.5385  0.7556
 1356SOL    HW1 4967   3.239   3.240   0.302 -0.8540  1.2531  1.3629
 1356SOL    HW2 4968   3.149   3.358   0.233 -0.5333  0.4700 -0.4530
 1357SOL     OW 4969   5.783   3.979   0.157  0.0605  0.2225  0.1395
 1357SOL    HW1 4970   5.857   4.004   0.095 -0.3526 -0.2804 -0.5709
 1357SOL    HW2 4971   5.822   3.945   0.243  0.7048 -1.3631 -0.7358
 1358SOL     OW 4972   0.751   5.240   6.341 -0.1972  0.7726  0.1496
 1358SOL    HW1 4973   0.754   5.237   6.241 -2.3218 -0.3322  0.0551
 1358SOL    HW2 4974   0.656   5.240   6.371  0.3160 -2.2553  2.1890
 1359SOL     OW 4975   5.430   4.989   6.121 -0.6435 -0.0870  0.0644
 1359SOL    HW1 4976   5.507   4.960   6.064  0.8660  3.8458 -0.1815
 1359SOL    HW2 4977   5.433   4.939   6.208  2.0083 -0.3588 -0.0917
 1360SOL     OW 4978   1.963   1.171   1.844  0.0925 -0.3319  0.4237
 1360SOL    HW1 4979   1.976   1.253   1.899 -2.0082 -1.0735  2.1611
 1360SOL    HW2 4980   1.866   1.146   1.843  0.2998 -1.3869 -2.1915
 1361SOL     OW 4981   5.648   5.774   4.193  0.1068  0.3030 -0.0991
 1361SOL    HW1 4982   5.652   5.694   4.252 -1.0653 -0.9647 -1.6580
 1361SOL    HW2 4983   5.740   5.801   4.166  0.4990 -0.6353  0.2904
 1362SOL     OW 4984   3.216   3.653   3.685  0.0947 -0.5300 -0.1280
 1362SOL    HW1 4985   3.140   3.664   3.749 -0.0277  0.3990 -0.4193
 1362SOL    HW2 4986   3.281   3.728   3.698  1.5995 -1.9442  0.9472
 1363SOL     OW 4987   6.657   6.801   3.516  0.6360 -1.0072 -0.2458
 1363SOL    HW1 4988   6.596   6.857   3.461  0.1698 -2.2830 -1.0525
 1363SOL    HW2 4989   6.751   6.834   3.506  0.3154 -0.1333 -0.3923
 1364SOL     OW 4990   3.777   3.963   0.136  0.2422 -0.3397  0.3649
 1364SOL    HW1 4991   3.701   4.025   0.159 -0.3016 -0.5803 -0.7220
 1364SOL    HW2 4992   3.786   3.957   0.037 -0.2856 -2.6685  0.4082
 1365SOL     OW 4993   5.873   2.418   5.834 -0.4088 -0.2766 -0.4801
 1365SOL    HW1 4994   5.885   2.492   5.768  2.4934 -0.6097 -0.4586
 1365SOL    HW2 4995   5.807   2.446   5.903  0.3526  2.1846 -0.6471
 1366SOL     OW 4996   1.888   6.173   4.514 -0.1669  0.6982  0.3603
 1366SOL    HW1 4997   1.870   6.075   4.517  0.5001  0.5452 -0.3931
 1366SOL    HW2 4998   1.978   6.190   4.473  1.7718  1.4118  4.3801
 1367SOL     OW 4999   2.543   1.833   1.003 -0.1898 -0.2769 -0.3964
 1367SOL    HW1 5000   2.529   1.902   0.932 -4.9680 -2.2147 -1.7395
 1367SOL    HW2 5001   2.553   1.743   0.961 -0.4549 -1.1457  1.3186
 1368SOL     OW 5002   3.331   6.477   2.472 -0.0037  0.2806 -0.3015
 1368SOL    HW1 5003   3.239   6.511   2.457  0.4821  0.5266 -3.5025
 1368SOL    HW2 5004   3.392   6.552   2.496 -0.6984 -0.0089  2.7184
 1369SOL     OW 5005   0.061   0.033   2.624  0.4959  0.1798 -0.3822
 1369SOL    HW1 5006   0.021  -0.051   2.587 -0.5258 -0.5189  2.1020
 1369SOL    HW2 5007   0.160   0.033   2.610  0.4609 -1.2466 -0.7168
 1370SOL     OW 5008   6.552   1.084   1.474  0.2450 -0.2452 -0.0151
 1370SOL    HW1 5009   6.520   1.124   1.560  2.0126 -0.6016  0.8628
 1370SOL    HW2 5010   6.621   1.015   1.494  1.0500  0.0155 -1.7526
 1371SOL     OW 5011   2.118   1.043   4.915  0.6745  0.4185  0.0233
 1371SOL    HW1 5012   2.102   1.128   4.865 -0.3618  0.1285 -0.1506
 1371SOL    HW2 5013   2.031   1.004   4.945  1.1915 -0.1811  0.7776
 1372SOL     OW 5014   2.956   1.701   0.299  0.3235 -0.1874  0.1824
 1372SOL    HW1 5015   2.870   1.750   0.289 -0.8994 -2.1886  0.3737
 1372SOL    HW2 5016   3.000   1.727   0.384  0.3404  1.4470 -0.2973
 1373SOL     OW 5017   0.273   4.561   5.942  0.4187  0.2112 -0.4469
 1373SOL    HW1 5018   0.183   4.528   5.970  0.1918  1.6386  0.6343
 1373SOL    HW2 5019   0.262   4.646   5.891  1.1370  0.1632 -0.6871
 1374SOL     OW 5020   3.414   1.919   2.786  0.2069  0.3619 -0.3248
 1374SOL    HW1 5021   3.482   1.871   2.841  1.2439 -0.3106 -2.1097
 1374SOL    HW2 5022   3.460   1.987   2.728 -1.1004  2.8301  1.3250
 1375SOL     OW 5023   0.074   3.488   2.943 -0.3568  0.5469 -0.4901
 1375SOL    HW1 5024   0.085   3.572   2.995 -0.0936  0.2191 -0.0086
 1375SOL    HW2 5025   0.161   3.464   2.899 -0.8501  1.4082 -2.0002
 1376SOL     OW 5026   5.201   0.818   3.354 -0.0254  0.3588  0.0222
 1376SOL    HW1 5027   5.295   0.784   3.353  0.4935  1.7640 -0.4837
 1376SOL    HW2 5028   5.191   0.886   3.427 -0.4683  0.7168 -0.3698
 1377SOL     OW 5029   6.777   3.318   6.329  0.1199 -0.0470  0.2980
 1377SOL    HW1 5030   6.841   3.316   6.252 -1.3187 -2.2916 -0.9383
 1377SOL    HW2 5031   6.810   3.259   6.402  0.7903  1.0017  0.8786
 1378SOL     OW 5032   2.781   1.897   1.351  0.6940 -0.4576 -0.3157
 1378SOL    HW1 5033   2.880   1.911   1.350  0.7033 -0.5326 -0.6281
 1378SOL    HW2 5034   2.735   1.983   1.376  0.7710  0.0412 -1.7605
 1379SOL     OW 5035   4.735   6.094   0.257 -0.0542  0.3318 -0.6250
 1379SOL    HW1 5036   4.666   6.162   0.281 -0.6286 -0.6870  0.7503
 1379SOL    HW2 5037   4.711   6.006   0.298  2.0469 -0.0632 -0.1015
 1380SOL     OW 5038   5.607   6.736   3.140  0.2686  0.0561 -0.3092
 1380SOL    HW1 5039   5.664   6.699   3.213  1.1138  0.5237 -0.7082
 1380SOL    HW2 5040   5.575   6.828   3.165  2.1924  1.0713 -1.2788
 1381SOL     OW 5041   3.193   0.828   1.828 -0.2726  0.4110 -0.1550
 1381SOL    HW1 5042   3.246   0.895   1.777  1.5724 -0.3570  0.6497
 1381SOL    HW2 5043   3.126   0.875   1.886 -1.2533  1.3566 -1.9679
 1382SOL     OW 5044   6.721   4.040   1.007 -0.6851 -0.3778  0.1960
 1382SOL    HW1 5045   6.783   3.982   1.059 -1.9413  0.0062  2.2325
 1382SOL    HW2 5046   6.774   4.100   0.946  1.1467  1.0123  2.9187
 1383SOL     OW 5047   5.537   6.270   0.298  0.0319  0.1743 -0.0807
 1383SOL    HW1 5048   5.449   6.253   0.253  0.6970 -1.5164 -0.8147
 1383SOL    HW2 5049   5.541   6.366   0.327 -1.7014  0.5052 -0.7906
 1384SOL     OW 5050   1.151   1.842   1.014  0.5947  0.1599 -0.5416
 1384SOL    HW1 5051   1.066   1.895   1.013  0.7453  0.4169 -0.1313
 1384SOL    HW2 5052   1.220   1.891   1.067  0.8394 -0.2908 -0.4343
 1385SOL     OW 5053   4.970   2.483   5.416 -1.1143  0.3427  0.0056
 1385SOL    HW1 5054   5.007   2.498   5.325 -1.6966  0.1785 -0.2659
 1385SOL    HW2 5055   5.020   2.409   5.461 -1.8028 -0.6265 -0.7751
 1386SOL     OW 5056   2.641   2.440   2.826 -0.1498  0.2631 -0.1948
 1386SOL    HW1 5057   2.721   2.390   2.793  0.3409  0.2839  0.9338
 1386SOL    HW2 5058   2.610   2.400   2.912 -1.0730  0.5615 -0.3765
 1387SOL     OW 5059   2.794   1.330   5.753  0.3555  0.2225  0.0259
 1387SOL    HW1 5060   2.793   1.282   5.841 -1.7107  0.2404  0.0683
 1387SOL    HW2 5061   2.844   1.416   5.762  0.0066  0.3182  1.2514
 1388SOL     OW 5062   4.199   1.804   3.293  0.1597  0.3397 -0.0217
 1388SOL    HW1 5063   4.208   1.845   3.384 -2.1524  3.6129 -1.0826
 1388SOL    HW2 5064   4.264   1.849   3.231  0.8273 -0.9775 -0.3054
 1389SOL     OW 5065   6.904   2.948   4.180  0.0930  0.6504  0.4065
 1389SOL    HW1 5066   6.939   2.998   4.259  0.2058  0.4527  0.4813
 1389SOL    HW2 5067   6.889   3.012   4.105 -1.4637  1.0863  1.0533
 1390SOL     OW 5068   6.734   3.434   1.235 -0.3613  0.5735 -0.3496
 1390SOL    HW1 5069   6.691   3.348   1.211 -0.1775  0.7445 -1.3466
 1390SOL    HW2 5070   6.713   3.503   1.166 -0.7950  1.4387  0.6082
 1391SOL     OW 5071   4.648   6.818   5.454  0.0650 -0.0727 -0.2457
 1391SOL    HW1 5072   4.696   6.750   5.398  0.8680 -0.6471  1.0837
 1391SOL    HW2 5073   4.705   6.899   5.465 -0.0257 -0.0198 -0.1622
 1392SOL     OW 5074   4.924   0.893   6.265  0.5724  0.9410 -0.3745
 1392SOL    HW1 5075   4.882   0.825   6.205  1.0733  1.3147 -1.1688
 1392SOL    HW2 5076   4.862   0.971   6.276 -0.1206  0.2496  0.7653
 1393SOL     OW 5077   3.194   5.953   6.230 -0.5932 -0.5846 -0.1845
 1393SOL    HW1 5078   3.268   5.984   6.290 -0.9847 -0.1541  0.0827
 1393SOL    HW2 5079   3.162   6.030   6.174 -0.0434 -1.0399 -1.1615
 1394SOL     OW 5080   2.409   1.317   5.858  0.0536  0.5316 -0.1844
 1394SOL    HW1 5081   2.472   1.334   5.782  0.4560 -0.8112 -0.1800
 1394SOL    HW2 5082   2.461   1.287   5.938 -0.5891 -0.7178 -0.2181
 1395SOL     OW 5083   1.526   5.874   1.320 -0.2585 -0.1046 -0.0807
 1395SOL    HW1 5084   1.523   5.807   1.394  0.4464 -1.6315 -1.3988
 1395SOL    HW2 5085   1.620   5.899   1.301 -0.4816  0.8266 -0.0105
 1396SOL     OW 5086   1.863   1.631   2.851  0.0686 -0.1542 -0.1753
 1396SOL    HW1 5087   1.792   1.631   2.781  0.8820 -1.5750 -1.0484
 1396SOL    HW2 5088   1.874   1.724   2.887 -1.7047  0.2338 -0.5171
 1397SOL     OW 5089   1.717   4.957   6.565  0.4884  0.8456  0.2167
 1397SOL    HW1 5090   1.648   4.901   6.519 -0.3144  1.4448  0.6543
 1397SOL    HW2 5091   1.748   4.910   6.647 -0.8305  1.3882  1.0637
 1398SOL     OW 5092   2.612   6.933   6.264 -0.0564  0.7926  0.0126
 1398SOL    HW1 5093   2.548   6.869   6.221 -0.9914  1.7875 -0.1097
 1398SOL    HW2 5094   2.677   6.966   6.195  2.3176 -2.1449  0.6229
 1399SOL     OW 5095   1.993   6.832   6.164 -0.4575 -0.4622 -0.3790
 1399SOL    HW1 5096   2.005   6.871   6.073  0.4704 -2.8215 -1.3359
 1399SOL    HW2 5097   1.913   6.772   6.165 -0.0301 -1.0384  0.1358
 1400SOL     OW 5098   0.765   0.727   4.622 -0.0967 -0.2373 -0.1525
 1400SOL    HW1 5099   0.764   0.791   4.544 -1.8492  0.4373  0.3850
 1400SOL    HW2 5100   0.729   0.773   4.703 -0.7904 -1.7131  0.4071
 1401SOL     OW 5101   4.801   0.526   3.411 -0.2754  0.2926 -0.3270
 1401SOL    HW1 5102   4.896   0.554   3.400 -0.6077  1.2493 -0.8656
 1401SOL    HW2 5103   4.789   0.433   3.377  0.4301  0.2205 -0.3925
 1402SOL     OW 5104   5.904   4.474   1.649  0.2254  0.8771  0.2807
 1402SOL    HW1 5105   5.882   4.377   1.661  0.4281  0.7160 -0.5845
 1402SOL    HW2 5106   5.859   4.528   1.720 -1.0587  0.3011 -0.0847
 1403SOL     OW 5107   3.886   3.516   6.742  0.0326 -0.2311  0.2451
 1403SOL    HW1 5108   3.877   3.465   6.828 -1.4089 -2.3351 -1.0630
 1403SOL    HW2 5109   3.977   3.502   6.704 -0.1451 -1.4307  0.2043
 1404SOL     OW 5110   4.208   3.772   6.944 -0.5993 -0.2852 -0.5355
 1404SOL    HW1 5111   4.222   3.869   6.959 -1.3867 -0.1703 -0.4690
 1404SOL    HW2 5112   4.114   3.757   6.912 -0.0683 -0.8735 -1.9051
 1405SOL     OW 5113   0.470   4.223   5.168  0.7042 -0.7749  0.4517
 1405SOL    HW1 5114   0.485   4.124   5.169  0.4775 -0.8352  2.2907
 1405SOL    HW2 5115   0.522   4.265   5.243  1.0223  0.5571 -0.4688
 1406SOL     OW 5116   6.763   0.013   5.977 -0.4338 -0.1541  0.7556
 1406SOL    HW1 5117   6.852  -0.032   5.975 -0.4930 -0.2462 -0.3620
 1406SOL    HW2 5118   6.735   0.027   6.072  1.1870  0.6924  1.1485
 1407SOL     OW 5119   5.901   4.526   6.330 -0.3457 -0.4534  0.2422
 1407SOL    HW1 5120   5.991   4.492   6.356 -0.2068 -0.5550 -0.3603
 1407SOL    HW2 5121   5.886   4.616   6.370  0.2824 -0.1605 -0.1804
 1408SOL     OW 5122   6.136   5.204   0.984  0.0737  0.6244 -0.1086
 1408SOL    HW1 5123   6.038   5.225   0.981 -0.1923  0.3853  2.9609
 1408SOL    HW2 5124   6.157   5.158   1.070  2.4913 -1.7934 -1.8202
 1409SOL     OW 5125   5.143   0.576   6.379  0.0165 -0.0962 -0.0953
 1409SOL    HW1 5126   5.182   0.495   6.423 -2.3815  0.1104  2.6452
 1409SOL    HW2 5127   5.196   0.657   6.404  0.6911 -0.4141 -0.4632
 1410SOL     OW 5128   5.874   6.955   6.102 -0.3964  0.4207  0.5102
 1410SOL    HW1 5129   5.791   6.903   6.082 -1.2772  1.0403  2.2870
 1410SOL    HW2 5130   5.869   6.991   6.196  3.4947 -2.6395  2.2037
 1411SOL     OW 5131   3.929   5.979   0.330 -0.0040  0.2569 -0.0761
 1411SOL    HW1 5132   3.965   5.889   0.306  1.3989  0.5441  0.7956
 1411SOL    HW2 5133   3.974   6.049   0.275  0.8312  0.6211  1.0187
 1412SOL     OW 5134   2.445   0.218   5.942 -0.3437 -0.3823  0.2931
 1412SOL    HW1 5135   2.459   0.270   6.026 -2.3279 -0.2969  0.6193
 1412SOL    HW2 5136   2.432   0.281   5.865 -1.8118 -0.3720  0.5253
 1413SOL     OW 5137   3.340   1.402   3.561 -0.7833 -0.6625 -0.0311
 1413SOL    HW1 5138   3.258   1.441   3.519  0.2076  0.5819 -0.8815
 1413SOL    HW2 5139   3.418   1.415   3.500  0.2526 -0.9052  1.2026
 1414SOL     OW 5140   0.409   5.912   3.449 -0.1132  0.2485 -0.1438
 1414SOL    HW1 5141   0.404   5.988   3.383  0.1590 -1.2352 -1.9731
 1414SOL    HW2 5142   0.317   5.887   3.478 -0.4771 -0.6827 -1.9569
 1415SOL     OW 5143   3.186   2.484   5.977 -0.5205  0.8685 -0.4000
 1415SOL    HW1 5144   3.228   2.417   5.915  0.0715  0.7498  0.1203
 1415SOL    HW2 5145   3.217   2.576   5.952  1.3334  0.6650  0.9266
 1416SOL     OW 5146   4.839   0.378   5.324 -0.6209  0.1305  0.6604
 1416SOL    HW1 5147   4.745   0.374   5.357 -0.3069  0.5416  1.6452
 1416SOL    HW2 5148   4.888   0.453   5.370 -0.0420  0.4643 -0.4528
 1417SOL     OW 5149   3.968   3.081   4.029 -0.7474 -0.6195 -0.0771
 1417SOL    HW1 5150   3.929   3.023   3.958 -0.8035 -1.4842  0.6426
 1417SOL    HW2 5151   3.918   3.067   4.115  0.5035 -0.9964  0.6095
 1418SOL     OW 5152   1.745   3.892   6.554 -0.4821 -0.7549 -0.2523
 1418SOL    HW1 5153   1.714   3.835   6.630 -1.3898 -1.1770 -0.9294
 1418SOL    HW2 5154   1.842   3.916   6.568 -0.4612 -1.3395  0.7112
 1419SOL     OW 5155   1.074   4.054   1.522 -0.9374 -0.1627  0.0511
 1419SOL    HW1 5156   1.007   4.096   1.460 -0.4385 -1.7606 -1.6567
 1419SOL    HW2 5157   1.036   3.969   1.558 -0.6279  0.0024  0.7762
 1420SOL     OW 5158   3.324   0.154   3.051  0.1830 -0.0643 -0.0546
 1420SOL    HW1 5159   3.404   0.213   3.060  0.9627 -0.8643 -1.4052
 1420SOL    HW2 5160   3.338   0.071   3.105 -0.6700  0.6756  1.3838
 1421SOL     OW 5161   0.542   3.834   1.874 -0.2176 -0.2374  0.4450
 1421SOL    HW1 5162   0.560   3.764   1.804  0.5703  1.0724 -0.7166
 1421SOL    HW2 5163   0.471   3.801   1.936 -0.9673 -1.4643 -0.9813
 1422SOL     OW 5164   2.893   3.179   6.235 -0.1457 -0.4554 -0.1936
 1422SOL    HW1 5165   2.914   3.168   6.138  0.1521 -4.1356  0.1205
 1422SOL    HW2 5166   2.807   3.133   6.256 -0.4695  0.7262  1.2329
 1423SOL     OW 5167   5.186   1.309   4.489  0.4760  0.1612  0.0638
 1423SOL    HW1 5168   5.229   1.338   4.574  1.0187 -0.6527  0.0706
 1423SOL    HW2 5169   5.158   1.390   4.437  3.2485  0.7765 -0.5932
 1424SOL     OW 5170   6.014   4.863   3.050  0.6403 -0.5664 -0.3394
 1424SOL    HW1 5171   6.012   4.794   2.978  1.3517 -0.5006 -0.4265
 1424SOL    HW2 5172   6.001   4.820   3.139 -0.0699 -0.6692 -0.4854
 1425SOL     OW 5173   5.423   0.785   1.085  0.0233  0.2862  0.5488
 1425SOL    HW1 5174   5.352   0.715   1.097  0.9280 -1.0162 -1.1991
 1425SOL    HW2 5175   5.496   0.770   1.152 -0.1494  0.0223  0.6790
 1426SOL     OW 5176   4.463   6.223   6.670  0.7532  0.1648  0.5866
 1426SOL    HW1 5177   4.376   6.233   6.717  0.4252 -0.8015  0.2188
 1426SOL    HW2 5178   4.538   6.234   6.735  0.4421  2.8750  0.5683
 1427SOL     OW 5179   2.491   1.784   4.566 -0.4154 -0.3885 -0.1695
 1427SOL    HW1 5180   2.425   1.809   4.495  0.6984  1.6771 -0.5787
 1427SOL    HW2 5181   2.450   1.799   4.656 -1.0395 -0.6882 -0.3982
 1428SOL     OW 5182   1.372   3.144   2.919  0.2236 -0.3034 -0.3315
 1428SOL    HW1 5183   1.452   3.201   2.902  0.6976 -0.5692  0.8702
 1428SOL    HW2 5184   1.370   3.117   3.016 -2.7285  1.8649  0.3492
 1429SOL     OW 5185   1.096   0.437   1.581 -0.0515 -0.2895  0.3478
 1429SOL    HW1 5186   1.067   0.476   1.494 -1.5857  0.6731  1.2516
 1429SOL    HW2 5187   1.132   0.510   1.640 -0.2814 -0.7004  1.0060
 1430SOL     OW 5188   0.710   2.766   3.389  0.5504 -0.3363 -0.0507
 1430SOL    HW1 5189   0.696   2.678   3.435  2.1122  0.0623  1.2841
 1430SOL    HW2 5190   0.808   2.784   3.382  0.2569  1.3144 -0.2869
 1431SOL     OW 5191   3.420   1.360   6.814  0.3932  0.0548 -0.1082
 1431SOL    HW1 5192   3.350   1.313   6.760 -0.6166  0.1837  1.0530
 1431SOL    HW2 5193   3.495   1.297   6.833  0.5333 -0.1404 -1.2113
 1432SOL     OW 5194   2.852   0.577   4.150 -0.0430  0.6128  0.2550
 1432SOL    HW1 5195   2.913   0.636   4.097  0.0660  0.7948  0.5867
 1432SOL    HW2 5196   2.889   0.484   4.151  0.0980  0.6690  0.2472
 1433SOL     OW 5197   3.649   1.966   5.132 -0.0267  0.0523  0.7880
 1433SOL    HW1 5198   3.601   1.945   5.218 -0.3828  1.9805  1.1019
 1433SOL    HW2 5199   3.724   2.029   5.151  0.1113  0.2119 -0.2727
 1434SOL     OW 5200   0.849   2.884   1.588  0.1176  0.5784 -0.1905
 1434SOL    HW1 5201   0.885   2.923   1.503 -2.0682  0.9104 -1.0487
 1434SOL    HW2 5202   0.749   2.880   1.582  0.0319 -1.3937  1.5292
 1435SOL     OW 5203   2.067   5.713   3.827 -0.2704 -0.0499  0.5465
 1435SOL    HW1 5204   2.066   5.669   3.917 -1.1282 -0.2658  0.4417
 1435SOL    HW2 5205   2.034   5.807   3.835  1.4946  0.5960  0.7585
 1436SOL     OW 5206   5.528   0.049   6.459  0.3071 -0.1001 -0.0650
 1436SOL    HW1 5207   5.443   0.097   6.440  0.6022  1.2312  1.7371
 1436SOL    HW2 5208   5.593   0.111   6.501  0.7082 -2.0187  2.3913
 1437SOL     OW 5209   2.922   0.670   0.379  0.2033  0.4914 -0.5813
 1437SOL    HW1 5210   3.009   0.640   0.340  0.0673 -0.7533  0.0419
 1437SOL    HW2 5211   2.928   0.671   0.479 -0.6168  0.0307 -0.5198
 1438SOL     OW 5212   3.314   6.954   2.378  0.1533 -1.1787  0.1029
 1438SOL    HW1 5213   3.259   6.928   2.457  1.0887 -1.7448  0.5917
 1438SOL    HW2 5214   3.313   6.881   2.310  0.0954 -1.0833  0.0002
 1439SOL     OW 5215   0.193   0.249   4.873  0.7464 -0.2797 -0.2008
 1439SOL    HW1 5216   0.272   0.277   4.927  0.6568  1.2930 -0.8336
 1439SOL    HW2 5217   0.112   0.300   4.902  0.0254 -1.6103  0.1903
 1440SOL     OW 5218   3.005   3.707   1.717 -0.6658  0.0211 -0.0412
 1440SOL    HW1 5219   3.048   3.793   1.741 -0.5585  0.7058 -2.4573
 1440SOL    HW2 5220   2.905   3.718   1.716 -0.7731 -0.5319  1.8407
 1441SOL     OW 5221   0.629   2.748   5.815  0.4615 -0.3503  0.2332
 1441SOL    HW1 5222   0.711   2.769   5.868  0.6303  1.2651 -0.5787
 1441SOL    HW2 5223   0.600   2.830   5.765 -2.3236 -0.5320  1.3648
 1442SOL     OW 5224   2.345   5.842   1.308 -0.0723 -0.4805  0.4802
 1442SOL    HW1 5225   2.376   5.750   1.329 -3.1738 -1.7330  0.1019
 1442SOL    HW2 5226   2.357   5.860   1.211 -0.0478 -0.7262  0.4371
 1443SOL     OW 5227   1.386   2.125   4.335 -0.9782  0.5125 -0.2869
 1443SOL    HW1 5228   1.340   2.036   4.332  0.6598 -0.5349  2.2685
 1443SOL    HW2 5229   1.349   2.179   4.411  0.0930  0.7683  0.0677
 1444SOL     OW 5230   4.616   6.673   5.164  0.0262 -0.3058 -0.3384
 1444SOL    HW1 5231   4.681   6.634   5.229  1.6466  1.0477 -1.0900
 1444SOL    HW2 5232   4.648   6.659   5.071 -0.9654  0.0461 -0.7514
 1445SOL     OW 5233   5.666   2.471   5.433  0.1569  0.7613  0.1376
 1445SOL    HW1 5234   5.758   2.484   5.395 -0.2671  0.3379 -1.0872
 1445SOL    HW2 5235   5.655   2.375   5.460 -1.0890 -0.1666 -3.1545
 1446SOL     OW 5236   1.832   5.345   2.074 -0.0351  0.1872 -0.6747
 1446SOL    HW1 5237   1.820   5.292   1.991  1.0410 -0.1247 -0.6482
 1446SOL    HW2 5238   1.854   5.440   2.050  2.3761 -0.3299 -0.8523
 1447SOL     OW 5239   0.023   1.371   4.809 -0.0917  0.0247 -0.5081
 1447SOL    HW1 5240   0.105   1.413   4.847 -0.3409  0.4806 -0.4666
 1447SOL    HW2 5241  -0.024   1.437   4.750 -0.1132 -0.4285 -1.0065
 1448SOL     OW 5242   6.388   1.286   0.148  0.3593  0.2020  0.7574
 1448SOL    HW1 5243   6.483   1.309   0.168  0.9655 -1.2043 -0.3178
 1448SOL    HW2 5244   6.364   1.199   0.190  0.2244 -0.4854 -0.6571
 1449SOL     OW 5245   5.944   0.512   3.738  0.0820 -0.5403  0.6329
 1449SOL    HW1 5246   5.930   0.595   3.792 -0.4172  0.4996 -1.0172
 1449SOL    HW2 5247   5.858   0.461   3.732  0.0969 -0.5715  0.6845
 1450SOL     OW 5248   3.837   0.932   4.086  0.4227 -0.2773 -0.3148
 1450SOL    HW1 5249   3.855   0.840   4.050 -1.5831 -1.0097  0.4064
 1450SOL    HW2 5250   3.829   0.997   4.011 -0.4857 -1.1521 -0.9911
 1451SOL     OW 5251   0.378   5.266   3.066  0.2573 -0.4883 -0.0084
 1451SOL    HW1 5252   0.444   5.341   3.060  0.5408 -0.8678 -2.0823
 1451SOL    HW2 5253   0.395   5.199   2.994 -0.9757 -1.7729  0.8288
 1452SOL     OW 5254   1.234   0.743   5.536  0.3412 -0.4888  0.5726
 1452SOL    HW1 5255   1.260   0.707   5.626  2.5446 -0.8001 -0.1216
 1452SOL    HW2 5256   1.260   0.677   5.466 -0.1433  0.3263 -0.3889
 1453SOL     OW 5257   5.812   2.857   4.211  0.3206 -0.0212 -0.1535
 1453SOL    HW1 5258   5.755   2.912   4.150 -0.5975  1.2414  1.7154
 1453SOL    HW2 5259   5.773   2.765   4.219 -1.1261  0.6216  0.5691
 1454SOL     OW 5260   5.692   6.480   1.876  0.3168 -0.3073  0.3360
 1454SOL    HW1 5261   5.763   6.501   1.809  0.9810  1.9546  1.6540
 1454SOL    HW2 5262   5.659   6.564   1.917 -1.7942 -1.4663  1.1510
 1455SOL     OW 5263   1.760   2.775   2.093 -0.0522 -0.2799 -0.3408
 1455SOL    HW1 5264   1.763   2.818   2.003  0.6830  2.5444  0.9439
 1455SOL    HW2 5265   1.800   2.836   2.161 -0.8046 -2.2141  1.9755
 1456SOL     OW 5266   0.544   2.948   4.092  0.3520 -0.2752 -0.2887
 1456SOL    HW1 5267   0.578   2.908   4.177 -1.9108  0.9425  1.2851
 1456SOL    HW2 5268   0.557   3.047   4.093 -0.9672 -0.0722 -0.6847
 1457SOL     OW 5269   1.951   0.703   5.727 -0.1044 -0.1714  0.0270
 1457SOL    HW1 5270   2.018   0.775   5.709 -0.0091 -0.3855 -0.4673
 1457SOL    HW2 5271   1.993   0.632   5.783  0.1004 -0.3356 -0.3350
 1458SOL     OW 5272   4.449   3.632   5.916 -0.5167 -0.6689  0.4887
 1458SOL    HW1 5273   4.442   3.729   5.893  2.5004  0.0481  2.0426
 1458SOL    HW2 5274   4.473   3.580   5.833  0.9908  0.4325  0.1929
 1459SOL     OW 5275   4.110   0.728   6.843  0.0316  0.4854  0.6552
 1459SOL    HW1 5276   4.075   0.647   6.796 -3.0659  1.1041  1.6626
 1459SOL    HW2 5277   4.157   0.788   6.777 -0.9719 -0.3547 -0.8646
 1460SOL     OW 5278   0.182   1.519   6.310 -0.2699 -0.2215  0.4255
 1460SOL    HW1 5279   0.270   1.479   6.336 -0.2498 -0.0431  0.6395
 1460SOL    HW2 5280   0.122   1.522   6.389  0.4355  2.0252  0.9700
 1461SOL     OW 5281   5.687   4.593   3.955 -0.1688  0.0911  0.5625
 1461SOL    HW1 5282   5.783   4.603   3.978 -0.0910  2.0998 -0.3768
 1461SOL    HW2 5283   5.671   4.504   3.913  1.6676  0.3711 -0.8498
 1462SOL     OW 5284   5.902   6.741   3.729 -0.2937 -0.2891 -0.1063
 1462SOL    HW1 5285   5.842   6.820   3.748 -0.3921 -0.3940  0.0218
 1462SOL    HW2 5286   5.992   6.758   3.770 -1.0207 -1.2816  2.0663
 1463SOL     OW 5287   0.192   3.086   0.887 -0.0856  0.1120 -0.2056
 1463SOL    HW1 5288   0.151   3.006   0.843  0.6688  0.7089 -2.0871
 1463SOL    HW2 5289   0.268   3.120   0.832  1.0256  0.8517  1.6589
 1464SOL     OW 5290   1.054   0.093   1.199 -0.3132  0.3472 -0.1990
 1464SOL    HW1 5291   1.127   0.090   1.131  0.5214  1.5906  0.5793
 1464SOL    HW2 5292   1.093   0.079   1.290 -1.3305 -0.7677  0.0911
 1465SOL     OW 5293   3.435   1.960   4.460  0.2231  0.1462  0.4069
 1465SOL    HW1 5294   3.456   2.001   4.371 -0.7352  1.0519  0.5786
 1465SOL    HW2 5295   3.493   2.001   4.530 -0.8206  1.3620  0.5996
 1466SOL     OW 5296   5.320   6.194   1.823 -0.1154 -0.1719  0.5127
 1466SOL    HW1 5297   5.264   6.143   1.758  1.2318  1.1276 -1.7988
 1466SOL    HW2 5298   5.278   6.283   1.840  0.5155  0.2713 -0.1736
 1467SOL     OW 5299   0.601   3.478   4.620  0.2894  0.7500  0.3009
 1467SOL    HW1 5300   0.531   3.459   4.552  0.0022 -0.0646  0.8168
 1467SOL    HW2 5301   0.654   3.396   4.639  2.3502  1.6696 -1.1224
 1468SOL     OW 5302   4.212   1.506   1.467 -0.3515  0.1358  0.4454
 1468SOL    HW1 5303   4.256   1.461   1.389  2.1921  0.6250  1.4927
 1468SOL    HW2 5304   4.227   1.605   1.461 -1.3944  0.3292  0.8309
 1469SOL     OW 5305   6.136   6.415   1.155 -0.0258 -0.4328 -0.0197
 1469SOL    HW1 5306   6.135   6.369   1.066 -0.3824 -1.6290  0.5878
 1469SOL    HW2 5307   6.226   6.458   1.169  1.1056 -2.6880  0.2338
 1470SOL     OW 5308   0.732   6.693   2.800 -0.1300  0.5274 -0.1083
 1470SOL    HW1 5309   0.745   6.716   2.897 -2.1818 -0.3772  0.4381
 1470SOL    HW2 5310   0.771   6.603   2.782 -0.6452  0.2474  0.1464
 1471SOL     OW 5311   4.994   0.849   1.115  0.5729 -0.1485 -0.1414
 1471SOL    HW1 5312   5.089   0.877   1.106  0.7614 -0.9468 -0.8216
 1471SOL    HW2 5313   4.934   0.920   1.076  0.9948 -0.3623 -1.2166
 1472SOL     OW 5314   4.719   4.382   4.091 -0.0591  0.4467  0.1674
 1472SOL    HW1 5315   4.704   4.323   4.171 -0.7814  1.4956  0.8336
 1472SOL    HW2 5316   4.702   4.330   4.008  0.6306 -0.6538  0.6847
 1473SOL     OW 5317   1.801   2.862   3.064 -0.6644  0.0699  0.3177
 1473SOL    HW1 5318   1.808   2.906   3.153 -0.7255 -1.9302  1.3762
 1473SOL    HW2 5319   1.847   2.773   3.068 -0.3723  0.0827 -1.7615
 1474SOL     OW 5320   2.778   4.723   2.316  0.2829  0.6917  0.2313
 1474SOL    HW1 5321   2.810   4.790   2.249  0.3460 -0.9389 -1.4495
 1474SOL    HW2 5322   2.820   4.634   2.298 -0.8202 -0.1463  1.5432
 1475SOL     OW 5323   6.693   0.619   2.524 -0.0960  0.3885  0.2477
 1475SOL    HW1 5324   6.784   0.623   2.485 -0.0818 -0.7417  0.1203
 1475SOL    HW2 5325   6.689   0.547   2.593 -1.6627 -1.8233 -1.9520
 1476SOL     OW 5326   0.248   2.799   6.529  0.2926 -0.1685 -0.1239
 1476SOL    HW1 5327   0.200   2.865   6.587  0.0697 -0.9554  0.6098
 1476SOL    HW2 5328   0.213   2.804   6.436  0.8688  1.3291 -0.2812
 1477SOL     OW 5329   3.963   6.760   2.959 -0.5232  0.2262  0.3501
 1477SOL    HW1 5330   4.021   6.786   3.036  0.2602 -0.6044  0.0553
 1477SOL    HW2 5331   3.929   6.667   2.974 -0.0102 -0.1084 -0.5120
 1478SOL     OW 5332   0.654   4.149   2.263  0.3582 -0.0324 -0.9106
 1478SOL    HW1 5333   0.712   4.215   2.215 -0.3395  0.7796 -0.6710
 1478SOL    HW2 5334   0.709   4.099   2.330  0.5844  1.6368  0.2416
 1479SOL     OW 5335   1.766   2.153   6.421 -0.1007 -0.6788 -0.5689
 1479SOL    HW1 5336   1.762   2.121   6.327 -1.9676 -0.3034 -0.6512
 1479SOL    HW2 5337   1.677   2.189   6.448  0.2824 -1.1095  1.4608
 1480SOL     OW 5338   3.214   7.002   0.717  0.1849 -0.0111 -0.9441
 1480SOL    HW1 5339   3.211   6.902   0.718 -1.7134  0.0257 -0.2113
 1480SOL    HW2 5340   3.283   7.033   0.783 -0.8079 -0.8274  0.5348
 1481SOL     OW 5341   1.297   3.594   0.595  0.0275  0.6508  0.3229
 1481SOL    HW1 5342   1.316   3.503   0.558 -0.9063  0.4820  0.2488
 1481SOL    HW2 5343   1.203   3.620   0.574  0.3592  1.7357  0.1423
 1482SOL     OW 5344   5.425   6.168   3.691 -0.7570 -0.3183 -0.6311
 1482SOL    HW1 5345   5.341   6.177   3.743  0.3272 -0.2162  1.1733
 1482SOL    HW2 5346   5.484   6.099   3.733  0.0816 -0.3780 -1.8398
 1483SOL     OW 5347   1.133   3.013   0.247 -0.2326 -0.4742 -0.0696
 1483SOL    HW1 5348   1.049   3.060   0.272  0.4688  0.9745 -0.3664
 1483SOL    HW2 5349   1.123   2.973   0.156 -0.2654  0.5765 -0.5432
 1484SOL     OW 5350   4.938   1.075   3.681  0.5623 -0.2748  0.1785
 1484SOL    HW1 5351   4.884   1.057   3.599 -0.6565 -1.5501  1.1875
 1484SOL    HW2 5352   4.923   1.169   3.710  0.2866 -0.0806 -0.5623
 1485SOL     OW 5353   5.284   4.360   5.661  0.3516 -0.1464  0.0592
 1485SOL    HW1 5354   5.230   4.310   5.594  1.6769 -0.6485 -0.6738
 1485SOL    HW2 5355   5.277   4.458   5.642 -1.2372 -0.1089  0.7219
 1486SOL     OW 5356   5.817   3.577   1.858 -0.5843  0.1197  0.0565
 1486SOL    HW1 5357   5.785   3.544   1.948 -0.6640  2.0569  0.7865
 1486SOL    HW2 5358   5.755   3.543   1.787 -0.3611 -1.6866  0.6682
 1487SOL     OW 5359   1.009   5.130   4.756 -0.4012 -0.0544 -0.6471
 1487SOL    HW1 5360   0.918   5.104   4.789 -0.5694  1.2788 -0.0111
 1487SOL    HW2 5361   1.064   5.047   4.741 -1.0559 -0.7965  0.8564
 1488SOL     OW 5362   4.546   2.556   4.231 -0.1379  0.0991  0.0229
 1488SOL    HW1 5363   4.596   2.637   4.261 -0.3977 -0.1585  1.2091
 1488SOL    HW2 5364   4.507   2.510   4.311  2.7020 -3.0072 -0.1347
 1489SOL     OW 5365   3.843   0.201   3.296 -0.6036  0.1657  0.0021
 1489SOL    HW1 5366   3.823   0.161   3.207  0.5310  1.5504 -0.9196
 1489SOL    HW2 5367   3.924   0.259   3.289 -1.2175  1.2927  1.6593
 1490SOL     OW 5368   3.625   2.537   0.372 -0.2781 -0.2861  0.0873
 1490SOL    HW1 5369   3.704   2.596   0.389 -0.8144 -0.0676  2.0424
 1490SOL    HW2 5370   3.589   2.503   0.459 -1.2901 -1.7914 -0.8671
 1491SOL     OW 5371   2.313   2.926   4.736 -0.6239  0.6991 -0.0410
 1491SOL    HW1 5372   2.291   2.981   4.656  2.0485 -0.2963 -1.5918
 1491SOL    HW2 5373   2.330   2.986   4.814  1.2299  2.1264 -1.4321
 1492SOL     OW 5374   4.787   2.868   1.717  0.5952  0.0112  0.9363
 1492SOL    HW1 5375   4.750   2.775   1.711  1.5908 -0.3539  0.2721
 1492SOL    HW2 5376   4.732   2.921   1.782 -0.3945 -0.8354  0.8256
 1493SOL     OW 5377   5.815   3.211   5.223 -0.9967  0.1118 -0.0783
 1493SOL    HW1 5378   5.863   3.186   5.140 -1.7461 -0.7511 -0.2730
 1493SOL    HW2 5379   5.850   3.157   5.300 -0.4278  0.7786  0.1381
 1494SOL     OW 5380   6.251   2.418   5.620  0.2936 -0.0266 -0.0151
 1494SOL    HW1 5381   6.242   2.513   5.590  2.0757 -0.5020 -2.4275
 1494SOL    HW2 5382   6.219   2.357   5.547 -1.2125 -1.3271  1.6505
 1495SOL     OW 5383   0.967   2.105   2.281 -0.3032  0.7656 -0.1647
 1495SOL    HW1 5384   1.034   2.095   2.355  0.4243  1.7455 -0.6661
 1495SOL    HW2 5385   0.879   2.133   2.320  0.7714  4.0290  0.1566
 1496SOL     OW 5386   1.875   6.691   1.685 -0.2476  0.0004  0.3094
 1496SOL    HW1 5387   1.776   6.704   1.689 -0.4424 -1.3860  0.5241
 1496SOL    HW2 5388   1.919   6.741   1.759 -0.7719  0.6675  0.1815
 1497SOL     OW 5389   5.927   4.160   6.756  0.3318  0.0945 -0.7173
 1497SOL    HW1 5390   5.913   4.082   6.695  0.8994  0.4189 -1.2845
 1497SOL    HW2 5391   5.863   4.233   6.733  1.2915  0.6643 -1.7305
 1498SOL     OW 5392   2.313   6.161   6.700 -0.0351 -0.4455 -0.1001
 1498SOL    HW1 5393   2.349   6.071   6.724 -2.6877 -1.1298  1.8642
 1498SOL    HW2 5394   2.213   6.156   6.694 -0.3222  2.4708  0.7120
 1499SOL     OW 5395   0.588   3.352   4.232 -0.1120 -0.1722  0.1264
 1499SOL    HW1 5396   0.624   3.443   4.213 -3.6211  1.2699 -0.4328
 1499SOL    HW2 5397   0.661   3.294   4.268  2.4703  2.5427 -0.3344
 1500SOL     OW 5398   2.627   4.666   4.291  0.5242 -0.4578 -0.0713
 1500SOL    HW1 5399   2.570   4.634   4.367 -2.1388  0.1187 -1.6975
 1500SOL    HW2 5400   2.714   4.701   4.327 -0.1773 -1.1906  2.5645
 1501SOL     OW 5401   3.632   0.992   2.194 -0.3755  0.4085 -0.2492
 1501SOL    HW1 5402   3.646   1.054   2.272  1.0582  0.0805 -0.2206
 1501SOL    HW2 5403   3.545   1.013   2.150 -1.7808 -0.1350  2.1095
 1502SOL     OW 5404   0.705   0.103   4.837  0.4781  0.0045  0.0735
 1502SOL    HW1 5405   0.697   0.145   4.927  0.3865  0.6138 -0.2095
 1502SOL    HW2 5406   0.757   0.018   4.844 -0.0049 -0.2365  0.7823
 1503SOL     OW 5407   5.006   4.083   6.636  0.3736  0.6867  0.5955
 1503SOL    HW1 5408   5.032   4.145   6.710  0.7795 -0.8864  1.8082
 1503SOL    HW2 5409   4.957   4.004   6.673  0.4625 -0.0752 -0.8248
 1504SOL     OW 5410   2.778   1.193   4.965 -0.4820 -0.2661  0.1759
 1504SOL    HW1 5411   2.822   1.267   5.015 -0.2412 -0.8340  0.8158
 1504SOL    HW2 5412   2.685   1.220   4.940 -0.0585  0.6211 -0.4584
 1505SOL     OW 5413   5.350   5.928   2.829 -0.2728  0.2840  0.1076
 1505SOL    HW1 5414   5.346   6.027   2.818 -1.2133  0.1980 -0.4434
 1505SOL    HW2 5415   5.315   5.903   2.919 -1.4391  0.3632 -0.3089
 1506SOL     OW 5416   6.413   1.457   3.709 -0.5517 -0.2123 -0.3896
 1506SOL    HW1 5417   6.400   1.521   3.784 -0.3458  0.0192 -0.5513
 1506SOL    HW2 5418   6.335   1.394   3.704 -0.2291 -0.6978  0.4805
 1507SOL     OW 5419   1.238   1.508   0.042 -0.2084  0.0261  0.3584
 1507SOL    HW1 5420   1.207   1.602   0.051 -0.9736 -0.2271  0.4525
 1507SOL    HW2 5421   1.163   1.451   0.007  0.1097 -0.6210  0.7103
 1508SOL     OW 5422   6.892   6.126   0.377 -0.3173 -0.2858 -0.7984
 1508SOL    HW1 5423   6.886   6.081   0.288 -0.2469 -0.2609 -0.8151
 1508SOL    HW2 5424   6.934   6.064   0.443  0.3263 -0.0286 -0.9641
 1509SOL     OW 5425   4.780   2.347   5.956  0.2945 -0.2523 -0.3332
 1509SOL    HW1 5426   4.817   2.366   6.047 -1.7450 -0.2030  0.5394
 1509SOL    HW2 5427   4.759   2.434   5.911 -0.1049 -0.2916 -0.2266
 1510SOL     OW 5428   6.208   2.997   3.440  0.7995 -0.3834 -0.2397
 1510SOL    HW1 5429   6.185   3.045   3.355 -1.4826 -0.7126  0.1279
 1510SOL    HW2 5430   6.260   3.058   3.500 -1.7733  1.6327  0.1123
 1511SOL     OW 5431   6.355   1.716   6.186  0.5315 -0.0239  0.4036
 1511SOL    HW1 5432   6.378   1.664   6.269  1.4158 -0.1515  0.0963
 1511SOL    HW2 5433   6.381   1.663   6.106 -1.4073 -0.4010 -0.0029
 1512SOL     OW 5434   1.689   0.574   4.444  0.2440  1.0361 -0.2692
 1512SOL    HW1 5435   1.705   0.538   4.536 -2.2908 -0.1686 -0.2186
 1512SOL    HW2 5436   1.769   0.625   4.414  2.3029 -0.9885  1.4253
 1513SOL     OW 5437   4.221   0.306   3.104  0.0132  0.2461  0.5144
 1513SOL    HW1 5438   4.140   0.362   3.121  0.9322  1.1512  2.2323
 1513SOL    HW2 5439   4.213   0.219   3.153 -0.5593 -0.3344 -0.5701
 1514SOL     OW 5440   4.090   0.725   5.057  0.2537 -0.0442  0.0398
 1514SOL    HW1 5441   4.019   0.762   5.117  1.4336 -1.0212  2.1498
 1514SOL    HW2 5442   4.111   0.631   5.084  3.4151  0.7049  0.5772
 1515SOL     OW 5443   5.710   5.804   3.400 -0.0677  0.1594  0.2834
 1515SOL    HW1 5444   5.772   5.871   3.360  1.4107 -1.3624 -0.1307
 1515SOL    HW2 5445   5.759   5.752   3.471 -0.4538 -1.8475 -0.8275
 1516SOL     OW 5446   6.063   2.630   3.222 -0.7157 -0.3549  0.3691
 1516SOL    HW1 5447   6.010   2.600   3.302 -2.2618  0.0100 -0.4776
 1516SOL    HW2 5448   6.008   2.621   3.140  1.2831 -1.9114 -0.8913
 1517SOL     OW 5449   2.913   6.075   1.190 -1.0180  0.2185  0.0747
 1517SOL    HW1 5450   2.864   6.156   1.156  0.8399  1.4809  0.2446
 1517SOL    HW2 5451   2.958   6.029   1.113 -0.5171  0.4617  0.2183
 1518SOL     OW 5452   6.097   3.589   1.775  0.0723  0.0971 -0.1557
 1518SOL    HW1 5453   6.005   3.579   1.814  0.1851 -0.1688  0.0401
 1518SOL    HW2 5454   6.161   3.615   1.847 -0.2066  2.2984 -0.6251
 1519SOL     OW 5455   0.459   2.173   2.583 -0.0793 -0.8478 -0.1240
 1519SOL    HW1 5456   0.398   2.181   2.662 -1.3915  2.6046 -1.2765
 1519SOL    HW2 5457   0.553   2.157   2.614 -0.5555  0.3583  2.1477
 1520SOL     OW 5458   2.132   3.263   2.124  0.4845 -0.5284  0.3056
 1520SOL    HW1 5459   2.220   3.279   2.078 -0.4504  0.0239 -1.4064
 1520SOL    HW2 5460   2.093   3.351   2.152 -0.1790 -0.6209 -0.2894
 1521SOL     OW 5461   0.990   3.314   5.057 -0.2010 -0.9380  0.2811
 1521SOL    HW1 5462   0.956   3.221   5.048 -1.3834 -0.6232  1.1174
 1521SOL    HW2 5463   1.086   3.318   5.030 -0.7104 -1.9485 -1.8234
 1522SOL     OW 5464   1.960   1.666   2.546 -0.3054 -0.4833  0.0649
 1522SOL    HW1 5465   2.056   1.661   2.574  0.0704  0.2379 -0.9951
 1522SOL    HW2 5466   1.953   1.725   2.465 -1.7406  0.0652  0.5600
 1523SOL     OW 5467   4.437   1.528   2.327 -0.3242  0.4804 -0.2145
 1523SOL    HW1 5468   4.488   1.481   2.254  0.6876  1.0148  0.1299
 1523SOL    HW2 5469   4.358   1.472   2.353  1.0296 -1.2665  0.4324
 1524SOL     OW 5470   7.004   1.973   2.824  0.0825  0.1202 -0.3368
 1524SOL    HW1 5471   7.031   2.050   2.881 -0.3741 -0.6974  1.0421
 1524SOL    HW2 5472   7.012   1.888   2.877  0.0299 -0.7117 -1.6316
 1525SOL     OW 5473   5.500   0.616   5.871  0.2923  0.0012  0.2306
 1525SOL    HW1 5474   5.511   0.523   5.836  1.4364  0.0669  0.3892
 1525SOL    HW2 5475   5.566   0.677   5.827 -1.9191  1.2543 -1.5658
 1526SOL     OW 5476   5.088   1.738   2.983  0.2074 -0.8128 -0.4596
 1526SOL    HW1 5477   5.149   1.732   2.904 -2.1418 -2.3175 -2.3093
 1526SOL    HW2 5478   5.048   1.648   3.001  0.2079 -0.3645  2.1253
 1527SOL     OW 5479   2.024   6.838   5.853  0.5990 -0.2105 -0.2371
 1527SOL    HW1 5480   2.041   6.856   5.756 -0.3236  1.0720 -0.1842
 1527SOL    HW2 5481   1.926   6.845   5.872  0.9054  0.9200  1.0442
 1528SOL     OW 5482   3.503   6.537   4.025  0.8569  0.3078 -0.2276
 1528SOL    HW1 5483   3.537   6.464   4.084  0.2938 -0.5112 -0.8969
 1528SOL    HW2 5484   3.551   6.622   4.047  1.8022 -0.3400  0.2921
 1529SOL     OW 5485   1.220   1.174   4.661  0.2274  0.6702 -0.5272
 1529SOL    HW1 5486   1.300   1.191   4.718  0.5769 -2.5182  0.1506
 1529SOL    HW2 5487   1.155   1.117   4.711 -1.2073  0.9028 -2.0426
 1530SOL     OW 5488   4.877   0.217   0.793  0.1317  0.1483  0.0272
 1530SOL    HW1 5489   4.922   0.297   0.754 -0.1133 -0.3161 -1.2621
 1530SOL    HW2 5490   4.795   0.195   0.739  1.1151 -1.9621 -0.6972
 1531SOL     OW 5491   4.774   2.354   1.595  0.2281 -0.1803  0.2804
 1531SOL    HW1 5492   4.710   2.288   1.634  1.2706 -1.5872 -0.3123
 1531SOL    HW2 5493   4.855   2.359   1.653 -1.0622  2.9841  2.0766
 1532SOL     OW 5494   2.152   6.866   5.110  0.0967 -0.1993  0.2123
 1532SOL    HW1 5495   2.236   6.878   5.057 -1.0544 -0.2852 -1.7188
 1532SOL    HW2 5496   2.120   6.956   5.141  0.3507 -0.0523  0.0607
 1533SOL     OW 5497   3.789   3.974   2.661 -0.1175 -0.5848 -0.5090
 1533SOL    HW1 5498   3.718   3.905   2.644 -0.3714 -0.7796  1.1676
 1533SOL    HW2 5499   3.871   3.951   2.609 -0.0760 -2.3876  0.2634
 1534SOL     OW 5500   6.196   1.607   1.003 -0.3303  0.1976  0.5697
 1534SOL    HW1 5501   6.230   1.516   0.981 -0.8409 -0.1240  1.0937
 1534SOL    HW2 5502   6.181   1.615   1.101  0.3553  1.0753  0.6184
 1535SOL     OW 5503   3.377   5.620   4.510 -0.2103 -0.2373  0.4843
 1535SOL    HW1 5504   3.381   5.625   4.610  0.4461 -2.4588  0.6145
 1535SOL    HW2 5505   3.425   5.699   4.471 -1.1948  1.1130  1.8769
 1536SOL     OW 5506   4.072   4.820   3.729 -0.7872 -0.2630  0.1056
 1536SOL    HW1 5507   4.093   4.797   3.824  0.8371  1.7498  0.3065
 1536SOL    HW2 5508   4.068   4.919   3.719 -0.9315 -0.4346 -1.9363
 1537SOL     OW 5509   2.361   4.916   5.285 -0.5433  0.0406  0.1314
 1537SOL    HW1 5510   2.395   4.982   5.352  0.1754 -1.1361  0.9683
 1537SOL    HW2 5511   2.431   4.846   5.268 -1.9861 -1.6899  0.8753
 1538SOL     OW 5512   4.223   6.507   1.255 -0.6616 -0.0371  0.1561
 1538SOL    HW1 5513   4.256   6.474   1.344 -1.0439 -1.2538 -0.1263
 1538SOL    HW2 5514   4.184   6.430   1.204 -2.7880  1.0956 -0.0350
 1539SOL     OW 5515   2.264   5.571   1.992  0.0371 -0.2183 -0.3337
 1539SOL    HW1 5516   2.319   5.487   1.990  0.1005 -0.2011  0.3861
 1539SOL    HW2 5517   2.273   5.619   1.905  3.0397  1.0105  0.5586
 1540SOL     OW 5518   0.529   0.459   4.017  0.7539  0.0640 -0.0282
 1540SOL    HW1 5519   0.581   0.504   4.090  0.2606  0.9054 -0.1769
 1540SOL    HW2 5520   0.432   0.479   4.029  0.3388 -2.2231  0.7588
 1541SOL     OW 5521   3.736   2.325   1.586  0.4962 -0.3981  0.0739
 1541SOL    HW1 5522   3.662   2.326   1.653  0.9676  1.1836  0.6272
 1541SOL    HW2 5523   3.823   2.335   1.633  0.9703 -0.9300 -0.6686
 1542SOL     OW 5524   5.658   5.358   5.426  0.2650  0.2034  0.4951
 1542SOL    HW1 5525   5.637   5.352   5.329 -0.0753 -0.8593  0.6194
 1542SOL    HW2 5526   5.735   5.299   5.447  0.1001  0.1367  0.9292
 1543SOL     OW 5527   4.321   3.983   1.678  0.1242  0.0269  0.0650
 1543SOL    HW1 5528   4.258   3.933   1.737 -0.1605 -0.3453 -0.5469
 1543SOL    HW2 5529   4.356   4.064   1.727 -0.6597  0.1210  0.4811
 1544SOL     OW 5530   2.385   3.369   6.801 -0.1114 -0.3462 -0.6126
 1544SOL    HW1 5531   2.429   3.455   6.827 -1.3913  0.3472 -0.6711
 1544SOL    HW2 5532   2.309   3.350   6.864 -0.7172 -0.7063 -1.4323
 1545SOL     OW 5533   0.031   0.025   5.306 -0.4455  0.3876  0.4573
 1545SOL    HW1 5534   0.112  -0.002   5.358 -1.8859  1.0553  3.2655
 1545SOL    HW2 5535   0.022  -0.033   5.225  1.2907 -1.5847  1.5779
 1546SOL     OW 5536   4.989   0.006   0.231  0.0946 -0.9996  0.3290
 1546SOL    HW1 5537   4.925   0.082   0.246  0.1296 -0.6989 -0.9260
 1546SOL    HW2 5538   5.040   0.022   0.147  0.1941 -2.3719  0.1060
 1547SOL     OW 5539   3.065   0.909   2.372 -0.0244 -0.2141  0.2244
 1547SOL    HW1 5540   2.998   0.887   2.301 -0.1836  0.0032  0.3071
 1547SOL    HW2 5541   3.019   0.919   2.460 -0.0380  0.9877  0.0945
 1548SOL     OW 5542   6.117   4.497   2.574 -0.4291  0.5748  0.5037
 1548SOL    HW1 5543   6.150   4.588   2.599  2.1113  0.5289 -2.1302
 1548SOL    HW2 5544   6.154   4.430   2.639 -0.4427  1.1644  1.1379
 1549SOL     OW 5545   6.558   1.902   1.023  0.2706 -0.2501 -0.0065
 1549SOL    HW1 5546   6.486   1.865   0.964  0.6360 -0.3657 -0.3848
 1549SOL    HW2 5547   6.548   2.001   1.030  1.2818  0.0181 -1.7461
 1550SOL     OW 5548   2.663   4.655   2.778 -0.5765  0.3020 -0.4737
 1550SOL    HW1 5549   2.676   4.700   2.690  1.7290  0.1698 -0.2703
 1550SOL    HW2 5550   2.584   4.594   2.773 -0.6322  0.4697 -2.3559
 1551SOL     OW 5551   1.664   0.346   2.053  0.5428  0.2968 -0.0463
 1551SOL    HW1 5552   1.628   0.262   2.012 -0.7889  0.0816  1.4663
 1551SOL    HW2 5553   1.589   0.397   2.095  1.6557  1.1445  0.9699
 1552SOL     OW 5554   1.056   0.152   3.557 -0.3654 -0.4704  0.1833
 1552SOL    HW1 5555   1.119   0.113   3.624 -0.5701 -0.4178  0.4109
 1552SOL    HW2 5556   0.963   0.148   3.593 -0.4674 -0.3670 -0.0654
 1553SOL     OW 5557   6.338   1.807   6.536 -0.2660  0.0565 -0.2769
 1553SOL    HW1 5558   6.364   1.728   6.481 -1.4331  0.9155 -2.1916
 1553SOL    HW2 5559   6.299   1.878   6.476 -3.5114  0.2882  1.8413
 1554SOL     OW 5560   1.760   6.846   5.942  0.6010 -0.0332 -0.0904
 1554SOL    HW1 5561   1.737   6.943   5.928 -1.7694 -0.5088  0.1630
 1554SOL    HW2 5562   1.697   6.806   6.008  1.6682 -1.7414 -0.0500
 1555SOL     OW 5563   3.503   0.731   1.508  0.0125  0.1077  0.7472
 1555SOL    HW1 5564   3.568   0.674   1.458 -0.6002  0.1715 -0.1492
 1555SOL    HW2 5565   3.501   0.703   1.604  1.2264 -0.0058  0.7536
 1556SOL     OW 5566   2.699   1.797   0.247  0.5036 -0.7564  0.5781
 1556SOL    HW1 5567   2.642   1.793   0.329 -0.7382 -2.1301 -0.3121
 1556SOL    HW2 5568   2.666   1.871   0.188  0.1831 -0.9959  0.4552
 1557SOL     OW 5569   2.197   1.066   0.209  0.2284  0.2145 -1.2030
 1557SOL    HW1 5570   2.258   1.092   0.133  0.1776  0.5992 -1.1141
 1557SOL    HW2 5571   2.122   1.132   0.215  0.7126  0.6951 -0.2670
 1558SOL     OW 5572   6.676   2.808   0.436  0.3469 -0.1544  0.0564
 1558SOL    HW1 5573   6.608   2.771   0.374  0.6070 -2.5271  1.0688
 1558SOL    HW2 5574   6.675   2.908   0.432 -3.5512 -0.0539  0.4517
 1559SOL     OW 5575   2.663   5.263   3.769 -0.1479 -1.0241 -0.0516
 1559SOL    HW1 5576   2.638   5.337   3.833 -0.9308  0.3961 -1.8961
 1559SOL    HW2 5577   2.592   5.193   3.770 -1.0396 -0.1568 -0.5812
 1560SOL     OW 5578   4.103   1.158   1.195 -0.2440  0.1596  0.1890
 1560SOL    HW1 5579   4.072   1.214   1.118 -0.9279  0.9679  1.0408
 1560SOL    HW2 5580   4.068   1.065   1.184  2.5418 -0.7763 -2.3074
 1561SOL     OW 5581   5.833   0.066   6.326  0.1518 -0.2304  0.2140
 1561SOL    HW1 5582   5.825   0.164   6.312  1.6233 -0.0753  0.3124
 1561SOL    HW2 5583   5.749   0.031   6.369 -0.4525  0.9354  0.0086
 1562SOL     OW 5584   0.203   0.906   5.559  0.0345  0.1400 -0.2912
 1562SOL    HW1 5585   0.229   0.812   5.540  1.3570  0.3566  0.3286
 1562SOL    HW2 5586   0.175   0.951   5.474  0.3572 -0.5244 -0.7572
 1563SOL     OW 5587   2.190   3.002   3.924  0.6811  0.8930 -0.2897
 1563SOL    HW1 5588   2.210   3.033   4.017  0.0238  1.6083 -0.3817
 1563SOL    HW2 5589   2.222   3.071   3.859  2.1655 -0.1015 -0.6735
 1564SOL     OW 5590   2.536   0.790   3.652  0.2255 -0.2228  0.2210
 1564SOL    HW1 5591   2.478   0.829   3.581  0.3154  1.3079  0.9641
 1564SOL    HW2 5592   2.496   0.703   3.682 -1.9978  0.9787  1.0260
 1565SOL     OW 5593   6.985   2.481   5.713  0.7393 -0.8344 -0.1131
 1565SOL    HW1 5594   7.035   2.524   5.788  0.2120 -1.3228  0.5313
 1565SOL    HW2 5595   6.914   2.422   5.750 -0.3074 -0.1758 -1.0020
 1566SOL     OW 5596   2.628   2.097   4.274  0.3052 -0.4607 -0.1603
 1566SOL    HW1 5597   2.661   2.191   4.260 -0.8455  0.2456  1.4936
 1566SOL    HW2 5598   2.634   2.074   4.371 -0.2623 -1.7836 -0.4154
 1567SOL     OW 5599   5.725   0.593   2.049 -0.6992  0.2465  0.4401
 1567SOL    HW1 5600   5.712   0.692   2.058  1.6094  0.6989 -0.4706
 1567SOL    HW2 5601   5.823   0.571   2.056 -1.0683 -1.8708 -0.2585
 1568SOL     OW 5602   1.584   3.431   1.336  0.4560  0.4710 -0.3730
 1568SOL    HW1 5603   1.532   3.505   1.377  0.6238 -0.3855  1.5161
 1568SOL    HW2 5604   1.656   3.402   1.400 -0.5283 -2.2604 -0.3833
 1569SOL     OW 5605   1.794   1.490   3.407  0.8596  0.0338 -0.5709
 1569SOL    HW1 5606   1.804   1.396   3.441  0.1736 -0.0889 -0.7020
 1569SOL    HW2 5607   1.784   1.552   3.485  0.6694 -0.0828 -0.4996
 1570SOL     OW 5608   1.037   0.269   5.533 -0.4184 -0.0403  0.2496
 1570SOL    HW1 5609   0.993   0.350   5.570  1.6469  1.2078  0.0965
 1570SOL    HW2 5610   1.079   0.291   5.445  0.0824 -1.3180  0.1426
 1571SOL     OW 5611   1.565   1.603   5.520  0.0962  0.1748 -0.4668
 1571SOL    HW1 5612   1.646   1.631   5.572  0.5662 -2.2407  0.2244
 1571SOL    HW2 5613   1.484   1.609   5.579  0.3582 -0.8483  0.0229
 1572SOL     OW 5614   1.719   6.505   6.813 -0.1446  0.0031 -0.2445
 1572SOL    HW1 5615   1.729   6.424   6.756  0.8417  1.0426 -1.6239
 1572SOL    HW2 5616   1.760   6.488   6.902  1.1070 -0.6561 -0.9129
 1573SOL     OW 5617   4.588   0.377   6.621  0.2787  0.1803  0.1218
 1573SOL    HW1 5618   4.683   0.372   6.590  0.1540 -0.6312 -0.1596
 1573SOL    HW2 5619   4.553   0.469   6.605  0.9724  0.4540  0.1105
 1574SOL     OW 5620   2.202   4.965   3.763  0.5052  0.1905  0.1062
 1574SOL    HW1 5621   2.199   4.910   3.680 -0.1093  0.6482 -0.1821
 1574SOL    HW2 5622   2.286   4.945   3.813  1.7590  1.1675 -1.4966
 1575SOL     OW 5623   6.312   1.690   0.582 -0.1978 -0.3751  0.7508
 1575SOL    HW1 5624   6.360   1.615   0.537  0.1416 -1.1911  2.3975
 1575SOL    HW2 5625   6.216   1.664   0.597  0.0457 -0.7336  1.7959
 1576SOL     OW 5626   1.761   6.412   2.864 -0.3776  0.0822  0.0601
 1576SOL    HW1 5627   1.839   6.442   2.809 -0.4565  0.9060  0.3779
 1576SOL    HW2 5628   1.742   6.481   2.935 -0.1119 -1.0707  1.2965
 1577SOL     OW 5629   3.812   4.910   2.253 -0.1381 -0.2428  0.3455
 1577SOL    HW1 5630   3.812   4.994   2.199 -1.3798  1.3152  2.6174
 1577SOL    HW2 5631   3.759   4.840   2.206 -0.4699  0.7590 -0.8238
 1578SOL     OW 5632   5.625   3.518   3.283 -0.8154  0.4594 -0.1504
 1578SOL    HW1 5633   5.691   3.469   3.339 -0.4331  1.3301  0.1802
 1578SOL    HW2 5634   5.651   3.512   3.187 -1.0245 -0.3570 -0.1610
 1579SOL     OW 5635   2.203   3.677   1.769 -0.7275 -0.2340  0.2286
 1579SOL    HW1 5636   2.198   3.648   1.865 -1.0583  1.4774  0.7737
 1579SOL    HW2 5637   2.272   3.749   1.760 -0.6326 -0.4492 -0.8375
 1580SOL     OW 5638   3.791   4.085   2.319  0.0313 -0.2684  0.5610
 1580SOL    HW1 5639   3.734   4.150   2.369  0.3820 -0.5471  1.3226
 1580SOL    HW2 5640   3.838   4.025   2.383  2.7073  1.1600  0.0983
 1581SOL     OW 5641   6.457   5.815   4.670  0.1533  0.1071 -0.0038
 1581SOL    HW1 5642   6.474   5.913   4.670 -0.8580  0.3442  1.9824
 1581SOL    HW2 5643   6.412   5.788   4.585  1.8436  1.0500 -1.2620
 1582SOL     OW 5644   3.043   0.464   5.734 -0.2753 -0.0510 -0.1037
 1582SOL    HW1 5645   3.052   0.420   5.823  2.0438  0.0846 -0.2029
 1582SOL    HW2 5646   2.948   0.460   5.704 -0.8808 -1.1893  1.8062
 1583SOL     OW 5647   2.635   5.103   5.706  0.2505 -0.1994  0.5113
 1583SOL    HW1 5648   2.538   5.089   5.729  0.0933  0.0369  0.0112
 1583SOL    HW2 5649   2.659   5.199   5.721  0.4793 -0.3142  0.8876
 1584SOL     OW 5650   6.660   3.718   2.335  0.0946 -0.5319 -0.3062
 1584SOL    HW1 5651   6.732   3.775   2.373 -0.2063 -0.4841  0.2101
 1584SOL    HW2 5652   6.690   3.622   2.334  0.3903 -0.4387 -0.6621
 1585SOL     OW 5653   3.435   0.051   5.679  0.4240  0.6136  0.5005
 1585SOL    HW1 5654   3.408   0.140   5.718 -1.4568  0.5064 -0.4494
 1585SOL    HW2 5655   3.481   0.066   5.592  0.0126  0.6585  0.2897
 1586SOL     OW 5656   5.905   6.283   1.944 -0.2606  0.2818  0.1005
 1586SOL    HW1 5657   5.885   6.243   2.034 -0.6665 -2.3120 -1.0342
 1586SOL    HW2 5658   5.857   6.370   1.934  1.7402  1.9546  3.2689
 1587SOL     OW 5659   5.153   6.360   5.773 -0.4390  0.0888 -0.2448
 1587SOL    HW1 5660   5.144   6.411   5.688 -1.3193 -0.3033 -0.3977
 1587SOL    HW2 5661   5.064   6.323   5.799 -0.8778  2.6291  2.3957
 1588SOL     OW 5662   6.702   0.727   3.321 -0.0572 -0.3882  0.4434
 1588SOL    HW1 5663   6.701   0.827   3.311 -0.2821 -0.3554  0.7833
 1588SOL    HW2 5664   6.754   0.687   3.245  3.8421  0.2153  2.5449
 1589SOL     OW 5665   5.311   0.904   3.104  0.1117 -0.0101 -0.0027
 1589SOL    HW1 5666   5.261   0.934   3.185 -0.7636  2.7088 -1.4553
 1589SOL    HW2 5667   5.377   0.974   3.077  0.2969 -0.7932 -1.7191
 1590SOL     OW 5668   4.679   6.895   3.380  0.1113  0.6671 -0.3457
 1590SOL    HW1 5669   4.583   6.870   3.372 -0.5087  2.1338  1.5564
 1590SOL    HW2 5670   4.718   6.908   3.289 -1.1268 -1.1321 -1.1854
 1591SOL     OW 5671   0.727   4.620   0.335  0.5017  0.0402  0.1614
 1591SOL    HW1 5672   0.806   4.602   0.394  0.7738 -0.1289 -0.2474
 1591SOL    HW2 5673   0.662   4.679   0.383 -0.2423 -1.7129  1.3941
 1592SOL     OW 5674   6.939   4.259   3.846  0.6453  0.2507  0.2255
 1592SOL    HW1 5675   7.024   4.206   3.839  1.1310  0.9230  0.8827
 1592SOL    HW2 5676   6.907   4.258   3.940  0.2053  0.4493  0.0810
 1593SOL     OW 5677   5.452   5.647   4.029 -0.5402 -0.5275 -0.3718
 1593SOL    HW1 5678   5.516   5.683   4.097 -2.9056  2.5595  0.4595
 1593SOL    HW2 5679   5.467   5.694   3.942 -1.8406  0.5310 -0.0579
 1594SOL     OW 5680   6.664   1.143   0.841 -0.2942 -0.3065  0.1129
 1594SOL    HW1 5681   6.715   1.089   0.908  1.0149  1.0495  0.2602
 1594SOL    HW2 5682   6.652   1.236   0.875 -1.0122 -0.0289 -0.8572
 1595SOL     OW 5683   0.416   3.920   1.507  0.2357 -0.1712  0.3059
 1595SOL    HW1 5684   0.410   3.999   1.446 -0.5903 -1.0294 -0.7686
 1595SOL    HW2 5685   0.512   3.902   1.529  0.6377 -0.3593 -1.4631
 1596SOL     OW 5686   4.862   2.448   4.301 -0.2574 -0.2449 -0.0108
 1596SOL    HW1 5687   4.953   2.439   4.260 -0.3039  1.2206 -0.4951
 1596SOL    HW2 5688   4.793   2.449   4.229 -0.4600  0.8987  0.1804
 1597SOL     OW 5689   3.261   0.385   1.704 -0.2703  0.3482  0.3713
 1597SOL    HW1 5690   3.308   0.337   1.630  1.3228 -0.3566  1.7734
 1597SOL    HW2 5691   3.205   0.458   1.666  0.1553 -0.2596 -1.5456
 1598SOL     OW 5692   1.433   4.989   5.337  0.4188 -0.2761 -0.5374
 1598SOL    HW1 5693   1.468   4.895   5.339 -0.0080 -0.5369 -2.5904
 1598SOL    HW2 5694   1.507   5.053   5.358  0.8751 -1.0191  0.1922
 1599SOL     OW 5695   4.417   5.280   4.074  0.0381  0.2002 -0.3419
 1599SOL    HW1 5696   4.510   5.249   4.056 -0.0307  0.4635 -1.1718
 1599SOL    HW2 5697   4.360   5.261   3.994 -0.6391 -0.0289  0.1893
 1600SOL     OW 5698   3.085   1.216   2.316  0.0041  0.6539  0.1862
 1600SOL    HW1 5699   3.167   1.189   2.267 -0.3092  0.1769 -0.0835
 1600SOL    HW2 5700   3.069   1.152   2.392 -3.3194 -3.0766 -3.1647
 1601SOL     OW 5701   5.156   1.679   5.834 -0.2295  0.3302 -0.4055
 1601SOL    HW1 5702   5.117   1.605   5.779  0.2267 -0.5953  0.4860
 1601SOL    HW2 5703   5.202   1.745   5.775  1.8558 -1.5925 -1.0379
 1602SOL     OW 5704   4.548   0.594   1.541  0.0388  0.1448 -0.3577
 1602SOL    HW1 5705   4.572   0.658   1.468 -1.2134  0.0895 -0.8520
 1602SOL    HW2 5706   4.526   0.505   1.500  0.8901 -0.3548  0.2441
 1603SOL     OW 5707   5.121   5.630   0.094 -0.3127  0.2326  0.4338
 1603SOL    HW1 5708   5.164   5.687   0.024 -0.7194 -0.9666 -0.8302
 1603SOL    HW2 5709   5.157   5.537   0.088  1.2311  0.5225  3.2304
 1604SOL     OW 5710   5.502   4.356   0.422  0.0698  0.3810  0.3187
 1604SOL    HW1 5711   5.555   4.305   0.490  3.5082  2.1100 -0.8312
 1604SOL    HW2 5712   5.513   4.312   0.332 -0.2817  0.8635  0.0361
 1605SOL     OW 5713   3.011   3.963   6.678 -0.3692  0.1950 -0.0542
 1605SOL    HW1 5714   2.942   3.984   6.748  1.1128 -1.0204  1.8662
 1605SOL    HW2 5715   3.093   4.017   6.695  1.1238 -2.2636  1.0869
 1606SOL     OW 5716   5.150   3.629   3.793 -0.4631 -0.1576  0.1173
 1606SOL    HW1 5717   5.163   3.543   3.743 -1.7486  0.0625 -0.6570
 1606SOL    HW2 5718   5.234   3.654   3.840  0.4811 -0.9141 -1.1095
 1607SOL     OW 5719   5.529   6.847   2.904  0.0386  0.0680  0.0485
 1607SOL    HW1 5720   5.469   6.777   2.865 -0.3722  0.4993 -0.1054
 1607SOL    HW2 5721   5.573   6.811   2.987 -1.9707  0.3683  1.3248
 1608SOL     OW 5722   6.653   2.847   2.966 -0.5027 -0.3135 -0.1765
 1608SOL    HW1 5723   6.605   2.934   2.978  0.0074 -0.0117 -0.2839
 1608SOL    HW2 5724   6.652   2.822   2.869  1.2822  0.7251 -0.5121
 1609SOL     OW 5725   6.876   0.737   1.974 -0.1813 -0.0202 -0.1841
 1609SOL    HW1 5726   6.910   0.648   2.004 -0.2008  0.1447  0.3246
 1609SOL    HW2 5727   6.789   0.758   2.019 -1.0558 -0.4906 -1.5568
 1610SOL     OW 5728   5.221   6.036   0.328 -0.5993 -0.3123  0.4217
 1610SOL    HW1 5729   5.151   6.051   0.258  0.3469 -0.6605 -0.6410
 1610SOL    HW2 5730   5.261   5.945   0.316 -0.4882 -0.4132  1.4966
 1611SOL     OW 5731   6.961   2.664   5.546 -0.0090 -0.5588 -0.4351
 1611SOL    HW1 5732   6.986   2.597   5.616  0.0920 -0.2536 -0.1748
 1611SOL    HW2 5733   6.862   2.663   5.532  0.0118 -0.8779 -0.5486
 1612SOL     OW 5734   4.299   0.794   2.767 -0.3239 -0.4757 -0.3784
 1612SOL    HW1 5735   4.358   0.775   2.845 -1.0618 -2.9958 -0.3485
 1612SOL    HW2 5736   4.243   0.875   2.786  1.6879  0.8338  0.3527
 1613SOL     OW 5737   0.647   5.133   3.117  0.1389 -0.1747  0.4881
 1613SOL    HW1 5738   0.625   5.069   3.190  2.3692 -0.1052  1.3002
 1613SOL    HW2 5739   0.643   5.227   3.152  0.6876 -0.1122  0.4028
 1614SOL     OW 5740   5.962   0.541   0.709  0.3092  0.1047  0.1134
 1614SOL    HW1 5741   5.946   0.547   0.807 -0.0480  0.9066  0.0126
 1614SOL    HW2 5742   6.059   0.552   0.690  0.1439  2.0087  0.2327
 1615SOL     OW 5743   5.116   4.006   6.161 -0.3465  0.0586 -0.1659
 1615SOL    HW1 5744   5.178   3.939   6.203 -0.3374  0.9095  1.2499
 1615SOL    HW2 5745   5.029   4.005   6.209 -1.0408 -0.2845 -1.3876
 1616SOL     OW 5746   2.089   1.187   3.507  0.6897 -0.3899  0.4137
 1616SOL    HW1 5747   2.146   1.259   3.546  0.1329  1.4039 -1.9209
 1616SOL    HW2 5748   2.132   1.150   3.425 -0.6733 -0.1574 -0.4504
 1617SOL     OW 5749   1.041   5.936   4.059  0.0072 -0.3338  0.1673
 1617SOL    HW1 5750   1.037   5.970   3.965 -1.4264 -1.8449 -0.3575
 1617SOL    HW2 5751   1.119   5.874   4.069  1.5289  1.5398  0.6455
 1618SOL     OW 5752   2.618   5.737   3.076 -0.3187 -0.5080  0.0824
 1618SOL    HW1 5753   2.686   5.759   3.145  0.7925 -2.1778 -0.4159
 1618SOL    HW2 5754   2.607   5.638   3.070 -2.6570 -0.3122 -0.0193
 1619SOL     OW 5755   1.653   5.267   6.281 -0.1559 -0.4158 -0.2773
 1619SOL    HW1 5756   1.663   5.253   6.380 -2.1540  2.0892  0.3584
 1619SOL    HW2 5757   1.557   5.268   6.257  0.1999  1.2823 -1.8438
 1620SOL     OW 5758   3.144   0.337   4.772 -0.6353  0.0654 -0.3696
 1620SOL    HW1 5759   3.184   0.428   4.760  1.1258 -0.5159  0.6988
 1620SOL    HW2 5760   3.059   0.331   4.719 -0.6026  2.1832 -0.7705
 1621SOL     OW 5761   4.658   5.024   1.629 -0.2663 -0.1553  0.6357
 1621SOL    HW1 5762   4.655   4.932   1.668  1.2577 -0.6579 -0.3207
 1621SOL    HW2 5763   4.750   5.042   1.594 -0.5049  1.7846  0.8814
 1622SOL     OW 5764   6.509   4.056   4.408  0.7710 -0.3751  0.6146
 1622SOL    HW1 5765   6.534   4.009   4.323 -0.0092  0.9542 -0.3889
 1622SOL    HW2 5766   6.592   4.085   4.456  1.2148 -0.6101  0.0022
 1623SOL     OW 5767   1.025   3.443   4.021  0.0331  0.1187  0.5555
 1623SOL    HW1 5768   1.109   3.389   4.022 -0.2423 -0.3175  0.0199
 1623SOL    HW2 5769   1.048   3.539   4.038  0.8837  0.3424 -1.5789
 1624SOL     OW 5770   3.037   0.513   6.646  0.4371  0.2146  0.4812
 1624SOL    HW1 5771   3.025   0.610   6.666  1.6053  0.3028  0.8075
 1624SOL    HW2 5772   2.953   0.464   6.670 -0.8740  1.3916 -1.4730
 1625SOL     OW 5773   2.404   0.050   0.374 -0.1330 -0.7015  0.0251
 1625SOL    HW1 5774   2.429   0.123   0.311  0.8065 -1.6724 -0.7543
 1625SOL    HW2 5775   2.483  -0.010   0.390 -0.0640 -0.0268  2.7992
 1626SOL     OW 5776   2.946   0.087   2.319  0.0067  0.3416 -0.3848
 1626SOL    HW1 5777   2.990   0.053   2.237 -0.9061  0.1285 -0.8014
 1626SOL    HW2 5778   2.935   0.186   2.313 -1.7766  0.1316 -1.4182
 1627SOL     OW 5779   3.380   1.509   6.415  0.0335 -0.0790 -0.2281
 1627SOL    HW1 5780   3.430   1.423   6.426 -1.4667 -0.8536  1.0271
 1627SOL    HW2 5781   3.359   1.524   6.319  0.3279 -1.1130 -0.4604
 1628SOL     OW 5782   5.303   4.889   5.760 -0.1078 -0.1477  0.0296
 1628SOL    HW1 5783   5.356   4.824   5.814 -0.9586  0.4448  1.6777
 1628SOL    HW2 5784   5.327   4.982   5.788 -0.6759  0.1671 -0.5094
 1629SOL     OW 5785   6.424   5.719   3.304  0.3904  0.1450  0.2935
 1629SOL    HW1 5786   6.374   5.785   3.249 -1.9486 -0.7747  1.1252
 1629SOL    HW2 5787   6.476   5.658   3.245 -0.8436  0.1128 -0.8073
 1630SOL     OW 5788   0.452   6.191   4.642 -0.6718  0.2614  0.2483
 1630SOL    HW1 5789   0.401   6.106   4.627 -1.1043  0.7939 -1.5478
 1630SOL    HW2 5790   0.513   6.207   4.565 -2.9561  3.1963 -1.1536
 1631SOL     OW 5791   4.270   5.256   5.775 -0.0142  0.1006  0.0869
 1631SOL    HW1 5792   4.339   5.311   5.729 -0.2357 -0.1234 -0.5261
 1631SOL    HW2 5793   4.230   5.192   5.710  0.7316 -1.2804  0.9190
 1632SOL     OW 5794   5.587   6.335   2.764  0.5417 -0.8271 -0.1443
 1632SOL    HW1 5795   5.677   6.293   2.776  0.7440 -0.3335  0.0782
 1632SOL    HW2 5796   5.590   6.395   2.684  0.3660 -0.9223 -0.2228
 1633SOL     OW 5797   0.252   4.542   6.283  0.6438 -0.1937  0.1075
 1633SOL    HW1 5798   0.205   4.624   6.253  0.3625  0.1050  1.3079
 1633SOL    HW2 5799   0.330   4.524   6.223  1.0381  1.2526  0.1540
 1634SOL     OW 5800   2.581   3.045   6.797  0.0475  0.1003  0.4392
 1634SOL    HW1 5801   2.546   3.125   6.848  0.3865 -0.0633  0.9391
 1634SOL    HW2 5802   2.649   3.075   6.731 -2.0320  0.6229 -1.5932
 1635SOL     OW 5803   2.304   0.818   6.060  0.1566  0.0248 -0.0998
 1635SOL    HW1 5804   2.276   0.770   6.143  0.6256  0.3064  0.2242
 1635SOL    HW2 5805   2.387   0.776   6.024 -0.6700 -0.8290 -1.0761
 1636SOL     OW 5806   6.572   6.746   0.970 -0.3835 -0.2261  0.3900
 1636SOL    HW1 5807   6.485   6.731   1.016 -0.6832  1.3384  0.4046
 1636SOL    HW2 5808   6.572   6.700   0.881  0.1587 -3.2083  1.7994
 1637SOL     OW 5809   5.937   0.768   1.388  0.2566  0.2374  0.5310
 1637SOL    HW1 5810   6.031   0.800   1.392 -0.3464  2.0140  1.6340
 1637SOL    HW2 5811   5.880   0.836   1.341 -0.8060  0.1379  1.6159
 1638SOL     OW 5812   5.806   2.046   3.728  0.3785  0.4700  0.0160
 1638SOL    HW1 5813   5.819   1.955   3.768  0.7957  1.1565  1.5294
 1638SOL    HW2 5814   5.748   2.101   3.789  3.0779  2.3887  1.0558
 1639SOL     OW 5815   6.790   2.732   0.669  0.4722 -0.3429 -0.0546
 1639SOL    HW1 5816   6.850   2.810   0.686  0.4722 -0.5423  0.9496
 1639SOL    HW2 5817   6.743   2.743   0.582  1.3774  0.1977 -0.4829
 1640SOL     OW 5818   1.222   4.850   0.155  0.3446 -0.2568 -0.1598
 1640SOL    HW1 5819   1.318   4.873   0.143  0.3286 -0.0334  0.1301
 1640SOL    HW2 5820   1.165   4.916   0.105  0.3335 -0.2744 -0.1707
 1641SOL     OW 5821   0.036   1.643   4.103  0.1023 -0.2194 -0.0548
 1641SOL    HW1 5822   0.014   1.738   4.127  0.3903  0.3436 -1.8507
 1641SOL    HW2 5823   0.058   1.638   4.006  1.1190 -1.9711  0.2343
 1642SOL     OW 5824   6.702   3.501   6.695  0.5418 -0.1570 -1.0670
 1642SOL    HW1 5825   6.621   3.475   6.748 -0.1163  0.6244 -1.6547
 1642SOL    HW2 5826   6.677   3.573   6.630  1.0146 -1.9042 -3.3092
 1643SOL     OW 5827   1.521   3.147   4.406  0.5166 -0.8545  0.6663
 1643SOL    HW1 5828   1.576   3.229   4.391 -0.9260  0.1145  0.5637
 1643SOL    HW2 5829   1.483   3.148   4.498  0.7155 -1.5540  0.7624
 1644SOL     OW 5830   5.039   2.394   1.711  0.2826 -0.5585 -0.2120
 1644SOL    HW1 5831   5.083   2.481   1.732 -0.1033 -0.6463  1.0688
 1644SOL    HW2 5832   5.102   2.319   1.730  0.4956 -0.5808 -0.9822
 1645SOL     OW 5833   1.459   1.284   4.057 -0.3015 -0.2678  0.3529
 1645SOL    HW1 5834   1.454   1.341   3.975 -3.0551  0.4048  0.8678
 1645SOL    HW2 5835   1.552   1.251   4.069  0.9840  2.4432 -1.1142
 1646SOL     OW 5836   0.432   6.101   1.097  0.2420  0.1984 -0.3639
 1646SOL    HW1 5837   0.452   6.011   1.059  1.6476  0.6369 -0.7018
 1646SOL    HW2 5838   0.509   6.133   1.152 -0.6077  0.8133  0.5162
 1647SOL     OW 5839   5.949   4.687   5.251  0.3544 -0.4060 -0.0253
 1647SOL    HW1 5840   6.037   4.728   5.277 -0.1119  0.4125  0.2903
 1647SOL    HW2 5841   5.922   4.720   5.161  0.7526 -1.2868 -0.4750
 1648SOL     OW 5842   5.755   5.534   3.113  0.1744 -0.4549  0.5457
 1648SOL    HW1 5843   5.710   5.445   3.109  0.5726 -0.6355 -0.1619
 1648SOL    HW2 5844   5.706   5.599   3.056  0.2484 -0.3942  0.5503
 1649SOL     OW 5845   4.065   2.227   3.891 -0.0287  0.1016 -0.7263
 1649SOL    HW1 5846   4.108   2.166   3.825 -1.7690 -1.1784 -0.7543
 1649SOL    HW2 5847   4.130   2.250   3.964  0.3732 -2.8083 -0.0383
 1650SOL     OW 5848   3.892   3.393   7.017 -0.1523  0.6236  0.4893
 1650SOL    HW1 5849   3.914   3.296   7.006 -0.2026  0.6389  0.2406
 1650SOL    HW2 5850   3.853   3.409   7.107 -1.7321  0.1182 -0.0624
 1651SOL     OW 5851   0.975   2.298   5.440 -0.2494  0.1860  0.0781
 1651SOL    HW1 5852   0.898   2.235   5.453  0.0497 -0.2058 -0.0580
 1651SOL    HW2 5853   0.947   2.390   5.470 -1.7393  0.7205 -2.6337
 1652SOL     OW 5854   6.878   5.385   1.634 -0.1378  0.0813 -0.0236
 1652SOL    HW1 5855   6.840   5.338   1.554  0.4972 -1.3173  0.4819
 1652SOL    HW2 5856   6.885   5.322   1.710  0.8883  0.9621  0.6359
 1653SOL     OW 5857   6.893   6.548   0.979  0.3732 -0.0698 -0.0029
 1653SOL    HW1 5858   6.855   6.562   0.887  0.5325  0.3639 -0.0081
 1653SOL    HW2 5859   6.989   6.519   0.971  0.5643  0.5369  0.0289
 1654SOL     OW 5860   1.929   2.541   2.089 -0.6673 -0.5264  0.4476
 1654SOL    HW1 5861   1.960   2.550   1.994  0.9342 -0.9255  0.9059
 1654SOL    HW2 5862   1.875   2.621   2.114 -0.6904 -0.1879 -0.6506
 1655SOL     OW 5863   5.121   2.795   4.789 -0.3547  0.2929  0.2654
 1655SOL    HW1 5864   5.195   2.727   4.792  0.4571  1.1714  1.9313
 1655SOL    HW2 5865   5.067   2.788   4.873 -1.6021  0.3063 -0.5146
 1656SOL     OW 5866   1.959   6.823   2.693  0.5515  0.1682 -0.7643
 1656SOL    HW1 5867   2.047   6.836   2.647  0.2273 -0.9283 -1.7494
 1656SOL    HW2 5868   1.961   6.869   2.782  1.7801  0.9506 -1.1636
 1657SOL     OW 5869   0.921   2.659   6.474 -0.0441 -0.1735  0.1120
 1657SOL    HW1 5870   0.933   2.717   6.554  1.8433  0.2182 -0.3962
 1657SOL    HW2 5871   0.914   2.716   6.392 -2.0042 -0.5650 -0.0471
 1658SOL     OW 5872   3.306   6.665   5.895  0.0152 -0.2112 -0.2253
 1658SOL    HW1 5873   3.219   6.621   5.873 -0.7685 -0.4799  2.9080
 1658SOL    HW2 5874   3.357   6.608   5.959 -0.0013  2.2751  2.1958
 1659SOL     OW 5875   3.315   0.555   6.949 -0.1117  0.2065 -0.0566
 1659SOL    HW1 5876   3.238   0.499   6.919 -0.6563  0.7620  0.2933
 1659SOL    HW2 5877   3.381   0.497   6.996 -0.9634 -0.0570  0.8489
 1660SOL     OW 5878   5.322   6.636   2.158  0.1404  0.1909  0.0337
 1660SOL    HW1 5879   5.364   6.694   2.228 -0.2637 -1.0261  1.3457
 1660SOL    HW2 5880   5.240   6.680   2.122  1.3455  1.6484 -1.0336
 1661SOL     OW 5881   5.753   4.969   2.756  0.4175 -0.0068  0.2612
 1661SOL    HW1 5882   5.826   5.038   2.755  0.0701  0.4936 -2.7357
 1661SOL    HW2 5883   5.664   5.015   2.759  0.1980 -0.3268 -0.8531
 1662SOL     OW 5884   1.646   1.378   4.360 -0.6083 -0.0595  0.6993
 1662SOL    HW1 5885   1.729   1.402   4.410 -0.1798  1.7424 -0.7732
 1662SOL    HW2 5886   1.670   1.346   4.269 -1.4994  1.9460 -0.3209
 1663SOL     OW 5887   5.995   4.860   0.141 -0.2391  0.2905 -0.1018
 1663SOL    HW1 5888   5.969   4.957   0.141 -0.3522  0.2600  0.2010
 1663SOL    HW2 5889   6.056   4.842   0.218  0.3338  0.2651 -0.5520
 1664SOL     OW 5890   2.407   2.046   5.006  0.2656  0.2967  0.0130
 1664SOL    HW1 5891   2.388   2.101   5.087 -1.3998 -2.0159  1.2876
 1664SOL    HW2 5892   2.506   2.045   4.988  0.5315  1.8564  1.2300
 1665SOL     OW 5893   0.317   3.408   6.428 -0.0533  0.4422 -0.2221
 1665SOL    HW1 5894   0.221   3.417   6.399  0.3438  1.3210 -1.3232
 1665SOL    HW2 5895   0.345   3.312   6.418 -1.1399 -0.0707  1.2415
 1666SOL     OW 5896   6.085   6.419   3.052 -0.2018  0.4210  0.0288
 1666SOL    HW1 5897   6.094   6.351   2.979 -0.0492  0.0616  0.3776
 1666SOL    HW2 5898   6.096   6.374   3.140 -2.0666  0.5459  0.3601
 1667SOL     OW 5899   6.927   0.038   1.245  0.1076  0.4991  0.4137
 1667SOL    HW1 5900   7.012   0.046   1.298  1.5312  3.3675 -1.9992
 1667SOL    HW2 5901   6.949   0.017   1.150 -1.7502  2.4260 -0.5291
 1668SOL     OW 5902   1.783   2.129   1.476 -0.2426 -0.7044 -0.7607
 1668SOL    HW1 5903   1.852   2.184   1.522 -0.4479  2.3868 -3.7471
 1668SOL    HW2 5904   1.700   2.126   1.532  0.3367  0.6787  0.2224
 1669SOL     OW 5905   6.300   6.386   3.786 -0.0052  0.1099  0.2627
 1669SOL    HW1 5906   6.209   6.359   3.817  0.3781 -0.8645  0.5795
 1669SOL    HW2 5907   6.320   6.479   3.817 -0.8278  0.2735  0.3139
 1670SOL     OW 5908   3.472   4.164   4.095  0.0576 -0.2340 -0.0392
 1670SOL    HW1 5909   3.455   4.258   4.067  0.7801  0.6705  2.2825
 1670SOL    HW2 5910   3.474   4.105   4.015 -2.0940  1.4227 -1.4332
 1671SOL     OW 5911   6.450   4.139   1.082 -0.3794 -0.3891 -0.0329
 1671SOL    HW1 5912   6.535   4.087   1.082 -0.5732 -0.7181  0.6686
 1671SOL    HW2 5913   6.464   4.226   1.128  0.4132  1.0150 -2.7406
 1672SOL     OW 5914   6.990   2.609   2.205 -0.1680  0.4098  0.2463
 1672SOL    HW1 5915   6.948   2.523   2.175  2.8766 -0.3476 -2.3231
 1672SOL    HW2 5916   7.071   2.589   2.261  0.5131  1.5747 -0.2895
 1673SOL     OW 5917   2.138   0.378   6.130  0.2520 -0.0605 -0.2483
 1673SOL    HW1 5918   2.166   0.287   6.100 -1.9266 -0.9719  0.3240
 1673SOL    HW2 5919   2.177   0.397   6.220  1.6421  0.0999 -0.8436
 1674SOL     OW 5920   5.564   1.656   1.197  0.0286 -0.1539 -0.0319
 1674SOL    HW1 5921   5.479   1.670   1.247  1.6289  1.1289  2.5564
 1674SOL    HW2 5922   5.626   1.601   1.253  1.3768  0.0148 -1.3111
 1675SOL     OW 5923   3.951   1.188   2.971 -0.4219  0.0950  0.2916
 1675SOL    HW1 5924   3.863   1.209   2.928  0.1487  2.0275 -0.0540
 1675SOL    HW2 5925   3.994   1.273   3.000  1.1759 -0.8500  0.7848
 1676SOL     OW 5926   3.737   1.471   4.313 -0.0735 -0.3329 -0.2149
 1676SOL    HW1 5927   3.772   1.499   4.223 -0.3882 -0.4572 -0.3815
 1676SOL    HW2 5928   3.747   1.546   4.378  1.4266 -0.7087  0.0090
 1677SOL     OW 5929   1.995   4.811   1.771  0.0826 -0.0225 -0.0920
 1677SOL    HW1 5930   2.004   4.776   1.864 -1.5961  0.2608  0.2135
 1677SOL    HW2 5931   1.994   4.911   1.774 -0.6168 -0.0200 -0.3324
 1678SOL     OW 5932   0.144   0.217   0.198  0.3709  0.2120 -0.2242
 1678SOL    HW1 5933   0.241   0.237   0.212  0.4786 -1.5308  2.3089
 1678SOL    HW2 5934   0.097   0.219   0.286 -2.3505  2.7952 -1.6090
 1679SOL     OW 5935   6.134   0.147   5.671  0.3367  0.1875  0.4473
 1679SOL    HW1 5936   6.109   0.067   5.726  0.1429  0.0020  0.0935
 1679SOL    HW2 5937   6.221   0.185   5.705  2.8354 -2.7820 -1.9736
 1680SOL     OW 5938   4.442   2.420   5.438  0.1358 -0.8659 -0.0289
 1680SOL    HW1 5939   4.532   2.464   5.441 -0.0172 -0.6200  1.1033
 1680SOL    HW2 5940   4.396   2.430   5.526 -1.8336  0.7361 -1.1442
 1681SOL     OW 5941   3.806   6.743   5.106 -0.6969  0.0632  0.2475
 1681SOL    HW1 5942   3.893   6.729   5.154 -0.4519  0.4786 -0.0696
 1681SOL    HW2 5943   3.733   6.757   5.172 -1.0046 -2.7555  0.6336
 1682SOL     OW 5944   4.476   1.103   4.229  0.2379  0.2334 -0.1057
 1682SOL    HW1 5945   4.497   1.196   4.197  2.1752  0.5878  1.9279
 1682SOL    HW2 5946   4.532   1.083   4.309 -0.7700 -2.4135  0.0074
 1683SOL     OW 5947   6.352   3.441   5.726 -0.0263  0.2748 -0.3214
 1683SOL    HW1 5948   6.292   3.517   5.750 -1.3891 -0.4814 -1.1888
 1683SOL    HW2 5949   6.309   3.386   5.654  1.7419 -0.2828 -1.0088
 1684SOL     OW 5950   4.053   4.324   0.322  0.0875 -0.6606  0.3431
 1684SOL    HW1 5951   4.119   4.250   0.314  1.1777  0.3482 -0.3250
 1684SOL    HW2 5952   4.062   4.367   0.412  1.0137  0.0686 -0.0836
 1685SOL     OW 5953   0.246   3.108   5.564 -0.1742  0.3046 -0.3332
 1685SOL    HW1 5954   0.171   3.053   5.600 -0.8938  0.1776 -1.9849
 1685SOL    HW2 5955   0.310   3.130   5.639 -0.7753 -1.2913  0.6853
 1686SOL     OW 5956   1.994   4.689   1.508 -0.2312 -0.1484  0.3162
 1686SOL    HW1 5957   1.920   4.622   1.495 -2.0005  1.7093  0.2856
 1686SOL    HW2 5958   1.997   4.717   1.604 -0.2603  0.5309  0.1239
 1687SOL     OW 5959   4.544   4.035   6.349 -0.0544  0.3407  0.0480
 1687SOL    HW1 5960   4.595   3.984   6.418 -0.8020  0.2748  0.5704
 1687SOL    HW2 5961   4.544   4.132   6.373  0.0784  0.3827 -0.1180
 1688SOL     OW 5962   2.882   0.180   1.318 -0.7017  0.2111 -0.3807
 1688SOL    HW1 5963   2.902   0.168   1.415  2.2114 -1.9768 -1.1072
 1688SOL    HW2 5964   2.790   0.146   1.299 -1.6851  1.5133  1.6839
 1689SOL     OW 5965   2.729   1.105   1.383  0.2130  0.0217  0.3374
 1689SOL    HW1 5966   2.660   1.167   1.347  0.6522  0.8271  0.8620
 1689SOL    HW2 5967   2.816   1.122   1.337  0.1581 -0.7698 -0.0917
 1690SOL     OW 5968   1.780   4.926   3.761 -0.0312 -0.0366 -0.0467
 1690SOL    HW1 5969   1.778   4.829   3.739 -2.3308  0.0474 -0.4039
 1690SOL    HW2 5970   1.698   4.971   3.725  1.5729  2.3242 -1.0967
 1691SOL     OW 5971   4.903   2.440   3.823 -0.2013 -0.8814 -0.4888
 1691SOL    HW1 5972   4.859   2.523   3.788 -2.5425 -1.6192  0.5189
 1691SOL    HW2 5973   4.919   2.449   3.921  2.0170 -0.6433 -0.8215
 1692SOL     OW 5974   5.966   5.469   2.954  0.2741 -0.0310 -0.0345
 1692SOL    HW1 5975   5.983   5.562   2.921 -0.6058  0.3507  0.5383
 1692SOL    HW2 5976   5.906   5.473   3.033 -0.0418 -1.1149 -0.2076
 1693SOL     OW 5977   1.800   1.726   5.677  0.3323  0.8377 -0.4226
 1693SOL    HW1 5978   1.755   1.812   5.702  0.5699  0.8584 -0.0512
 1693SOL    HW2 5979   1.770   1.654   5.740 -0.5974  0.4224 -1.3086
 1694SOL     OW 5980   4.836   1.131   6.034 -0.2561 -0.4235  0.1129
 1694SOL    HW1 5981   4.877   1.165   6.119  0.8207 -0.9025 -0.1982
 1694SOL    HW2 5982   4.893   1.156   5.957 -2.3140  1.8946 -0.7741
 1695SOL     OW 5983   0.416   1.650   3.935 -0.0444  0.1769  0.1642
 1695SOL    HW1 5984   0.461   1.662   4.023 -0.3562  0.7090  0.2563
 1695SOL    HW2 5985   0.485   1.648   3.862  0.3419 -1.7907  0.5346
 1696SOL     OW 5986   6.389   6.489   6.965 -0.3535 -0.0511 -0.0417
 1696SOL    HW1 5987   6.338   6.403   6.974 -0.1742 -0.3326 -1.4431
 1696SOL    HW2 5988   6.337   6.563   7.007 -1.4998 -0.4939 -0.6447
 1697SOL     OW 5989   2.989   3.371   1.642 -0.1129  0.5823 -0.2799
 1697SOL    HW1 5990   2.930   3.401   1.717  0.0746 -0.8276  0.4714
 1697SOL    HW2 5991   3.081   3.351   1.678 -0.2569 -0.9421 -0.6917
 1698SOL     OW 5992   4.958   2.706   2.303 -0.0159 -0.3291 -0.3737
 1698SOL    HW1 5993   4.875   2.756   2.278 -1.4273 -2.5192 -0.4455
 1698SOL    HW2 5994   5.027   2.769   2.336 -1.5588  1.6441 -0.7298
 1699SOL     OW 5995   2.075   6.067   1.783  0.2440 -0.2239 -0.4025
 1699SOL    HW1 5996   1.995   6.111   1.743 -0.1876  0.9695  1.6150
 1699SOL    HW2 5997   2.156   6.123   1.764 -0.3926  1.9944  2.6737
 1700SOL     OW 5998   5.328   3.617   2.794 -0.6432  0.1168  0.1986
 1700SOL    HW1 5999   5.302   3.709   2.767  0.1380  0.7947  1.5959
 1700SOL    HW2 6000   5.251   3.572   2.839 -1.2395 -0.1876 -1.0902
 1701SOL     OW 6001   0.638   6.199   6.148 -0.3095  0.2116 -0.0521
 1701SOL    HW1 6002   0.672   6.267   6.083  1.2068 -0.0983  0.3608
 1701SOL    HW2 6003   0.691   6.114   6.138 -1.6716 -0.6601 -0.0537
 1702SOL     OW 6004   2.203   2.319   0.964  0.2194  0.1210 -0.0393
 1702SOL    HW1 6005   2.167   2.321   1.058 -1.3839 -0.0761 -0.6202
 1702SOL    HW2 6006   2.303   2.329   0.967  0.2887 -0.6461  1.7273
 1703SOL     OW 6007   0.033   6.542   2.837  0.5823  0.0478 -0.0357
 1703SOL    HW1 6008  -0.020   6.603   2.778  1.0528  1.5843  1.0402
 1703SOL    HW2 6009   0.129   6.572   2.838  0.9046 -0.9503  0.2395
 1704SOL     OW 6010   3.506   1.873   6.525  0.0214  0.1481  0.2651
 1704SOL    HW1 6011   3.443   1.950   6.513  0.3470  0.5015  0.7818
 1704SOL    HW2 6012   3.455   1.794   6.559 -0.6929 -0.5219 -2.2196
 1705SOL     OW 6013   6.141   3.099   6.515 -0.7372 -0.5725  0.3952
 1705SOL    HW1 6014   6.093   3.174   6.470  0.6957  0.7727  0.9960
 1705SOL    HW2 6015   6.133   3.110   6.614  2.8405  1.2684  0.6500
 1706SOL     OW 6016   5.439   1.381   4.054  0.3106  0.2605  0.8958
 1706SOL    HW1 6017   5.472   1.333   4.136 -3.1238 -1.3353  1.5144
 1706SOL    HW2 6018   5.435   1.316   3.978 -0.1283  0.7445  0.5055
 1707SOL     OW 6019   2.765   1.911   3.498  0.1405  0.5127 -0.5713
 1707SOL    HW1 6020   2.669   1.932   3.477  0.1855  0.5257 -0.7628
 1707SOL    HW2 6021   2.774   1.814   3.517 -0.2017  0.7587  1.0332
 1708SOL     OW 6022   3.240   5.381   3.010 -0.1945 -0.2518  0.3971
 1708SOL    HW1 6023   3.273   5.475   3.014 -1.5475  0.3199 -1.2264
 1708SOL    HW2 6024   3.144   5.377   3.039 -0.0644 -1.2044  0.7700
 1709SOL     OW 6025   6.672   0.372   1.637 -0.1785 -0.6232 -0.3425
 1709SOL    HW1 6026   6.654   0.400   1.542 -1.9320 -1.0794 -0.1779
 1709SOL    HW2 6027   6.725   0.288   1.637  0.2813 -0.3424 -0.9122
 1710SOL     OW 6028   5.796   3.752   2.829  0.0058  0.2174  0.1635
 1710SOL    HW1 6029   5.847   3.833   2.799  3.4525 -0.5062  3.3270
 1710SOL    HW2 6030   5.766   3.765   2.923  1.0383 -2.2491  0.9035
 1711SOL     OW 6031   3.629   4.954   0.291 -0.1620 -0.2129 -0.5565
 1711SOL    HW1 6032   3.557   4.889   0.315 -2.2961  2.3284  0.4600
 1711SOL    HW2 6033   3.659   5.002   0.374 -2.5571  3.7601 -1.7121
 1712SOL     OW 6034   6.481   4.134   3.708  0.0420  0.0400  0.6944
 1712SOL    HW1 6035   6.428   4.062   3.664 -0.8861  0.9826  0.2304
 1712SOL    HW2 6036   6.569   4.143   3.662 -0.6338  0.5390 -0.5399
 1713SOL     OW 6037   2.279   2.461   0.623 -0.9563  0.4056  0.2330
 1713SOL    HW1 6038   2.356   2.432   0.680 -0.4017  0.8916 -0.2514
 1713SOL    HW2 6039   2.194   2.457   0.676 -0.9630 -2.2608  0.1578
 1714SOL     OW 6040   2.037   4.910   6.003  0.4102 -0.0891 -0.1722
 1714SOL    HW1 6041   2.072   4.818   6.022 -0.1049  0.1094  2.0763
 1714SOL    HW2 6042   2.108   4.964   5.957  1.9446 -0.6558  1.4132
 1715SOL     OW 6043   3.097   3.564   1.221  0.4217 -0.0225 -0.2042
 1715SOL    HW1 6044   3.120   3.661   1.219  2.1409 -0.2652  2.6179
 1715SOL    HW2 6045   3.000   3.553   1.197  0.2034  2.3581 -0.6862
 1716SOL     OW 6046   3.676   1.377   2.156 -0.2415 -0.0333  0.1436
 1716SOL    HW1 6047   3.737   1.453   2.136  0.4005 -0.6413 -0.2573
 1716SOL    HW2 6048   3.660   1.372   2.254 -1.4451  1.4773  0.0716
 1717SOL     OW 6049   1.582   6.720   0.366 -0.1161 -0.5257  0.4439
 1717SOL    HW1 6050   1.499   6.675   0.334 -0.7433 -0.2286  1.6217
 1717SOL    HW2 6051   1.585   6.814   0.331  0.9085 -1.2189 -1.5302
 1718SOL     OW 6052   1.095   3.575   3.745  0.0667 -0.2692  0.1461
 1718SOL    HW1 6053   1.107   3.624   3.659  0.8087  0.1626  0.4889
 1718SOL    HW2 6054   1.181   3.531   3.771 -0.0436 -0.0866  0.8570
 1719SOL     OW 6055   0.169   5.177   1.795  0.2962 -0.6538  1.0778
 1719SOL    HW1 6056   0.229   5.244   1.839  2.7023 -1.5393 -0.6912
 1719SOL    HW2 6057   0.165   5.094   1.852  0.5006 -0.4906  1.3332
 1720SOL     OW 6058   1.120   1.922   6.094  0.1220 -0.5472 -0.7940
 1720SOL    HW1 6059   1.168   2.002   6.130  1.5729 -1.6814 -0.0692
 1720SOL    HW2 6060   1.075   1.873   6.169  0.3950 -1.1403 -1.0077
 1721SOL     OW 6061   1.638   1.682   3.277  0.2995  0.6239 -0.2383
 1721SOL    HW1 6062   1.586   1.674   3.192 -2.0974  2.3700  0.9503
 1721SOL    HW2 6063   1.685   1.595   3.296 -0.2161 -0.2343 -2.6156
 1722SOL     OW 6064   4.983   2.744   3.010 -0.6853 -0.4595  0.0308
 1722SOL    HW1 6065   5.055   2.808   2.982 -1.9254  0.6980 -0.6555
 1722SOL    HW2 6066   5.020   2.678   3.075  1.0431 -0.0494 -0.4821
 1723SOL     OW 6067   6.825   6.063   2.914 -0.4254 -0.1213 -0.2141
 1723SOL    HW1 6068   6.916   6.033   2.886 -0.4953 -1.2662  0.7266
 1723SOL    HW2 6069   6.821   6.163   2.912  1.0461 -0.0287  0.2540
 1724SOL     OW 6070   6.560   5.271   6.793  0.1293 -0.1834 -0.2472
 1724SOL    HW1 6071   6.586   5.271   6.696 -1.1104 -0.1963 -0.5967
 1724SOL    HW2 6072   6.528   5.362   6.818 -2.0500 -0.8033 -0.5787
 1725SOL     OW 6073   1.460   5.894   5.719  0.4041  0.3800  0.0546
 1725SOL    HW1 6074   1.484   5.813   5.773 -0.8667 -1.1106 -1.5170
 1725SOL    HW2 6075   1.424   5.965   5.779 -1.0571 -1.2598  1.1953
 1726SOL     OW 6076   6.195   6.708   3.262 -0.6142  0.5873 -0.1804
 1726SOL    HW1 6077   6.175   6.700   3.164  0.8083 -0.8380 -0.3916
 1726SOL    HW2 6078   6.196   6.617   3.304  2.2257  0.8092  0.4050
 1727SOL     OW 6079   2.930   3.766   3.594  0.0729  0.1427 -0.0292
 1727SOL    HW1 6080   3.015   3.814   3.614  0.2661 -0.1056 -0.2457
 1727SOL    HW2 6081   2.916   3.763   3.495  0.9177 -1.6925 -0.1262
 1728SOL     OW 6082   6.249   1.310   3.376  0.1052  0.1081  0.1852
 1728SOL    HW1 6083   6.255   1.256   3.291 -1.1898 -0.7935  0.6373
 1728SOL    HW2 6084   6.341   1.334   3.406  0.7357 -1.8080 -0.0727
 1729SOL     OW 6085   1.218   3.441   3.367  0.0918 -0.0415 -0.3984
 1729SOL    HW1 6086   1.277   3.375   3.412 -0.4104 -0.2673 -0.0723
 1729SOL    HW2 6087   1.250   3.455   3.273 -0.3682 -1.4729 -0.7885
 1730SOL     OW 6088   2.300   1.027   3.698  0.3201  0.0835 -0.4605
 1730SOL    HW1 6089   2.277   1.124   3.706 -0.4612 -0.0032 -1.5072
 1730SOL    HW2 6090   2.255   0.976   3.771 -0.4892  0.3146 -0.7885
 1731SOL     OW 6091   6.792   4.543   4.387  0.6177  0.3297  0.7783
 1731SOL    HW1 6092   6.723   4.529   4.458  1.2516  0.5268  1.4440
 1731SOL    HW2 6093   6.861   4.608   4.420 -0.9744  3.3204 -1.3185
 1732SOL     OW 6094   3.877   2.951   2.700  0.2663  0.1682  0.3420
 1732SOL    HW1 6095   3.910   2.878   2.760  0.3316  0.4259  0.6214
 1732SOL    HW2 6096   3.883   2.921   2.604 -0.4107 -0.4799  0.4915
 1733SOL     OW 6097   1.370   2.447   0.628 -0.4348  0.0578  0.2380
 1733SOL    HW1 6098   1.455   2.398   0.606 -0.0580  0.0558  1.5707
 1733SOL    HW2 6099   1.393   2.532   0.676 -1.2021 -0.7951  2.2249
 1734SOL     OW 6100   1.268   6.303   1.764  0.0692 -0.0984  0.0146
 1734SOL    HW1 6101   1.355   6.273   1.802  0.4369  0.2172 -0.5677
 1734SOL    HW2 6102   1.276   6.397   1.732 -0.3915 -0.1778 -0.3522
 1735SOL     OW 6103   2.699   5.904   6.168  0.2330  0.1649 -0.1064
 1735SOL    HW1 6104   2.611   5.901   6.120  0.5095 -0.8423 -0.5647
 1735SOL    HW2 6105   2.773   5.882   6.105  0.6362 -0.8425  0.6824
 1736SOL     OW 6106   3.359   1.163   2.245  0.2228  0.3356 -0.1302
 1736SOL    HW1 6107   3.375   1.081   2.300 -0.6322 -0.3518 -0.8721
 1736SOL    HW2 6108   3.366   1.140   2.148  1.7295  1.5379 -0.3410
 1737SOL     OW 6109   1.428   0.596   0.539 -0.3333  0.3243 -0.3863
 1737SOL    HW1 6110   1.485   0.623   0.617  0.7927  0.8445 -1.3655
 1737SOL    HW2 6111   1.483   0.596   0.456 -0.9366 -2.4282 -0.8741
 1738SOL     OW 6112   0.278   4.863   3.225 -0.2591  0.4037 -0.0881
 1738SOL    HW1 6113   0.283   4.778   3.278 -0.2231 -0.3962 -1.3428
 1738SOL    HW2 6114   0.185   4.875   3.190 -0.3178  1.0035  0.2515
 1739SOL     OW 6115   5.100   0.522   2.107  0.2491 -0.5665 -0.6528
 1739SOL    HW1 6116   5.130   0.512   2.202 -2.2141 -1.0493  0.1437
 1739SOL    HW2 6117   5.176   0.500   2.046  1.9475 -0.0884  1.1755
 1740SOL     OW 6118   0.114   2.572   4.268 -0.1153 -0.2295  0.6629
 1740SOL    HW1 6119   0.066   2.574   4.356 -0.7650  1.5010  0.3090
 1740SOL    HW2 6120   0.048   2.561   4.194  0.4740 -2.1675  0.3829
 1741SOL     OW 6121   2.355   2.588   5.273 -0.8583 -0.1939  0.2560
 1741SOL    HW1 6122   2.364   2.657   5.345  1.6900 -0.9513  0.7783
 1741SOL    HW2 6123   2.389   2.626   5.187 -0.0814 -0.5250  0.3995
 1742SOL     OW 6124   6.636   0.794   0.549 -0.3303 -0.3508 -0.3661
 1742SOL    HW1 6125   6.696   0.743   0.611  0.3824 -0.9367 -1.4983
 1742SOL    HW2 6126   6.643   0.892   0.569 -0.7691 -0.5876  1.0183
 1743SOL     OW 6127   1.869   2.218   2.947 -0.3064 -0.3485  0.0675
 1743SOL    HW1 6128   1.778   2.180   2.964 -1.0120  1.2628  0.0516
 1743SOL    HW2 6129   1.879   2.304   2.997  1.0014 -0.1977 -0.4098
 1744SOL     OW 6130   4.046   1.841   6.175  0.2260  0.0886  0.3768
 1744SOL    HW1 6131   3.962   1.815   6.222  0.1927  0.0800  0.3123
 1744SOL    HW2 6132   4.110   1.881   6.241  0.6273 -0.9720  0.6595
 1745SOL     OW 6133   6.328   0.043   1.790  0.1304  0.5072  0.7324
 1745SOL    HW1 6134   6.273   0.108   1.843  0.6308 -0.8722  3.1429
 1745SOL    HW2 6135   6.425   0.064   1.803  0.2710 -0.1960  0.8647
 1746SOL     OW 6136   0.846   4.657   2.658 -0.5094  0.3225  0.2812
 1746SOL    HW1 6137   0.924   4.694   2.608  0.3715 -0.0349  1.3551
 1746SOL    HW2 6138   0.854   4.680   2.755 -2.4393  1.4351  0.2275
 1747SOL     OW 6139   2.277   6.442   3.113  0.2172 -0.2960  0.0515
 1747SOL    HW1 6140   2.186   6.400   3.115  1.6758 -3.8570  0.0380
 1747SOL    HW2 6141   2.280   6.519   3.176 -3.1781  1.0235 -1.1587
 1748SOL     OW 6142   5.684   1.085   4.760 -0.3788  0.2072  0.7357
 1748SOL    HW1 6143   5.676   1.132   4.848 -0.0294  1.4278  0.1367
 1748SOL    HW2 6144   5.640   1.140   4.689 -0.1154 -0.4705  0.0386
 1749SOL     OW 6145   0.459   5.291   1.327  0.3411 -0.4056 -0.2827
 1749SOL    HW1 6146   0.473   5.207   1.379 -0.5963  0.5451  1.5912
 1749SOL    HW2 6147   0.548   5.334   1.309  0.6945 -0.8057  0.4708
 1750SOL     OW 6148   1.260   2.926   1.888  0.0002 -0.3539  0.1655
 1750SOL    HW1 6149   1.276   3.023   1.908  1.1165 -0.7741  1.4515
 1750SOL    HW2 6150   1.165   2.913   1.860  0.2479  1.3631 -1.7679
 1751SOL     OW 6151   6.768   2.193   6.304 -0.4568 -0.1382 -0.2550
 1751SOL    HW1 6152   6.738   2.282   6.271  0.1655  0.7056  1.3394
 1751SOL    HW2 6153   6.689   2.133   6.317 -0.8103 -0.1059 -2.0656
 1752SOL     OW 6154   6.957   6.365   2.338  0.3839 -0.1671  0.5498
 1752SOL    HW1 6155   7.038   6.409   2.299  1.4645 -1.7549  0.8897
 1752SOL    HW2 6156   6.924   6.418   2.416  1.1853  0.4171  0.5054
 1753SOL     OW 6157   1.030   2.198   0.838 -0.0724  0.7802  0.1384
 1753SOL    HW1 6158   1.003   2.145   0.758 -1.3125 -1.0825  1.6842
 1753SOL    HW2 6159   0.954   2.202   0.903  1.0825  1.6743  1.5105
 1754SOL     OW 6160   1.212   5.123   2.424  0.3470  0.4620 -0.3168
 1754SOL    HW1 6161   1.181   5.112   2.519  1.5974 -3.1329 -0.1724
 1754SOL    HW2 6162   1.287   5.189   2.421 -0.2272  1.2315  1.0378
 1755SOL     OW 6163   6.644   5.747   5.731 -0.0402 -0.2196 -0.3236
 1755SOL    HW1 6164   6.646   5.841   5.697  1.3390 -0.4520 -0.9870
 1755SOL    HW2 6165   6.595   5.744   5.818  2.3346  1.6841  1.2441
 1756SOL     OW 6166   4.494   4.562   1.585  0.0810  0.7038  0.6183
 1756SOL    HW1 6167   4.455   4.569   1.493  0.7867  0.0569  0.2526
 1756SOL    HW2 6168   4.422   4.573   1.653 -0.7342 -0.3611 -0.0306
 1757SOL     OW 6169   1.465   4.486   5.892 -0.2660  0.3997 -0.0824
 1757SOL    HW1 6170   1.431   4.576   5.919  0.3491  0.4020  0.7061
 1757SOL    HW2 6171   1.525   4.495   5.812 -0.7100  0.6034 -0.3978
 1758SOL     OW 6172   0.387   6.493   3.945  0.0811  0.2837  0.0853
 1758SOL    HW1 6173   0.302   6.458   3.907 -0.6429  1.3142  0.7094
 1758SOL    HW2 6174   0.375   6.589   3.971  1.0537  0.0988  1.3250
 1759SOL     OW 6175   0.626   5.665   0.399  0.4815  0.5910 -0.1432
 1759SOL    HW1 6176   0.585   5.678   0.489  1.2578 -1.0932  0.4877
 1759SOL    HW2 6177   0.720   5.699   0.400  0.9880 -0.7266  0.1685
 1760SOL     OW 6178   5.509   2.678   3.675  0.4170  0.3809  0.2967
 1760SOL    HW1 6179   5.418   2.717   3.686  1.0211  2.0014 -0.1872
 1760SOL    HW2 6180   5.569   2.713   3.748  0.8952  0.1174  0.0362
 1761SOL     OW 6181   4.613   0.923   4.666 -0.2475 -0.3354  0.2443
 1761SOL    HW1 6182   4.587   0.841   4.616  1.8918  0.4974 -2.5099
 1761SOL    HW2 6183   4.686   0.902   4.730  0.1421 -0.6675 -0.2985
 1762SOL     OW 6184   0.753   0.054   4.402  0.4440  0.0227 -0.5216
 1762SOL    HW1 6185   0.776  -0.018   4.337  0.3069  0.8952 -1.5817
 1762SOL    HW2 6186   0.836   0.090   4.444  0.4364 -1.5180  0.9154
 1763SOL     OW 6187   0.598   5.883   6.629 -0.2862  0.4677  0.1213
 1763SOL    HW1 6188   0.640   5.848   6.713  0.4438 -0.7691 -0.7199
 1763SOL    HW2 6189   0.499   5.883   6.639 -0.2386 -0.2698  0.7606
 1764SOL     OW 6190   0.246   5.043   3.766 -0.1790  0.1891  0.2601
 1764SOL    HW1 6191   0.187   5.120   3.788 -0.6778 -0.2854  0.5918
 1764SOL    HW2 6192   0.292   5.060   3.678 -0.1097  0.9587  0.4387
 1765SOL     OW 6193   6.964   4.485   4.130  0.0982 -0.1568  0.0564
 1765SOL    HW1 6194   6.984   4.517   4.222 -0.1766 -0.2879  0.1645
 1765SOL    HW2 6195   6.881   4.530   4.097 -0.2762 -0.7287  0.2007
 1766SOL     OW 6196   6.956   4.346   3.213 -0.2681  0.4500 -0.4667
 1766SOL    HW1 6197   6.920   4.312   3.127  0.3239 -0.0480 -0.5285
 1766SOL    HW2 6198   7.027   4.414   3.196  1.1176 -0.9234 -0.4473
 1767SOL     OW 6199   2.030   3.799   3.979 -0.5015 -0.3278  0.5128
 1767SOL    HW1 6200   2.059   3.804   3.883 -0.1508 -1.2395  0.5597
 1767SOL    HW2 6201   1.989   3.886   4.006 -0.7157 -0.0978 -0.5027
 1768SOL     OW 6202   3.247   0.595   1.934  0.3501 -0.4763 -1.1009
 1768SOL    HW1 6203   3.263   0.527   1.863  1.1865 -0.6463 -0.7646
 1768SOL    HW2 6204   3.212   0.680   1.893 -2.4146 -1.6373 -1.3494
 1769SOL     OW 6205   6.372   6.573   5.915  0.4525  0.1565 -0.0755
 1769SOL    HW1 6206   6.456   6.520   5.931 -0.0832 -0.3875  1.0690
 1769SOL    HW2 6207   6.333   6.548   5.827  0.0124 -1.6741  0.5996
 1770SOL     OW 6208   1.966   1.417   6.975 -0.0096 -0.2923 -0.8202
 1770SOL    HW1 6209   1.950   1.515   6.982 -0.5729 -0.3760 -0.8913
 1770SOL    HW2 6210   2.052   1.400   6.927  0.3585  0.1714 -0.3414
 1771SOL     OW 6211   2.204   3.216   6.118  0.0683  0.0707 -0.3196
 1771SOL    HW1 6212   2.281   3.238   6.178  0.9128 -0.3291 -1.2187
 1771SOL    HW2 6213   2.163   3.130   6.148  0.5273 -0.1629 -0.3470
 1772SOL     OW 6214   1.139   4.587   1.399 -0.3807  0.0637 -0.0355
 1772SOL    HW1 6215   1.199   4.624   1.469 -0.0181  1.1537 -0.8998
 1772SOL    HW2 6216   1.099   4.501   1.431  0.2478  0.2363  1.2482
 1773SOL     OW 6217   1.384   3.185   4.638  0.1126  0.1991  0.0824
 1773SOL    HW1 6218   1.365   3.282   4.655 -0.7565  0.4231 -1.8319
 1773SOL    HW2 6219   1.307   3.130   4.669  1.7206 -0.2696  3.7293
 1774SOL     OW 6220   5.509   5.612   1.857  0.0860 -0.2194 -0.2890
 1774SOL    HW1 6221   5.582   5.622   1.925  0.0138  0.5463 -0.3191
 1774SOL    HW2 6222   5.459   5.527   1.875 -0.1950  0.1684  0.8630
 1775SOL     OW 6223   1.534   6.249   6.128  0.7322 -0.4718  0.7069
 1775SOL    HW1 6224   1.571   6.232   6.219  1.9332  1.7533  0.7028
 1775SOL    HW2 6225   1.567   6.338   6.095 -3.2227  0.8971 -0.0610
 1776SOL     OW 6226   6.126   5.386   5.557  0.3348  0.6608  0.1753
 1776SOL    HW1 6227   6.085   5.470   5.593 -1.7156 -0.7676  1.3477
 1776SOL    HW2 6228   6.063   5.310   5.570  2.5244 -1.2775  0.0304
 1777SOL     OW 6229   4.590   5.013   6.115  0.0524  0.5079 -0.8242
 1777SOL    HW1 6230   4.683   4.984   6.137 -0.4100 -0.0993  0.4310
 1777SOL    HW2 6231   4.558   4.962   6.035 -0.0060 -1.0361  0.1210
 1778SOL     OW 6232   6.513   6.593   0.709  0.4452  0.2279 -0.5031
 1778SOL    HW1 6233   6.504   6.609   0.610 -1.7274  0.5943 -0.2992
 1778SOL    HW2 6234   6.447   6.523   0.737 -2.8714  3.7640  1.4386
 1779SOL     OW 6235   1.227   4.055   4.533  0.5226  0.0254 -0.0232
 1779SOL    HW1 6236   1.324   4.037   4.548  0.3304 -0.2871  0.8725
 1779SOL    HW2 6237   1.208   4.152   4.551  0.9033  0.3969 -1.4879
 1780SOL     OW 6238   3.502   0.065   4.002 -0.1828  0.3217  0.1727
 1780SOL    HW1 6239   3.545   0.068   3.911 -0.6691 -0.1997 -0.0834
 1780SOL    HW2 6240   3.503   0.156   4.042  1.3606  0.2947  0.2716
 1781SOL     OW 6241   4.084   1.349   6.766  0.0681  0.3716 -0.2752
 1781SOL    HW1 6242   4.113   1.259   6.798  0.6981  0.5847 -0.2220
 1781SOL    HW2 6243   4.142   1.377   6.689  1.6847  1.8630  1.3821
 1782SOL     OW 6244   5.574   0.491   2.366  0.0398 -0.1953  0.2184
 1782SOL    HW1 6245   5.618   0.435   2.436 -0.3675 -1.5403 -0.5639
 1782SOL    HW2 6246   5.572   0.440   2.280  1.3385  1.7620 -1.0386
 1783SOL     OW 6247   1.551   2.838   0.577 -0.1696 -0.0267 -0.7248
 1783SOL    HW1 6248   1.604   2.901   0.634  1.7783 -0.0175 -2.4283
 1783SOL    HW2 6249   1.473   2.887   0.539 -0.1751  0.6035  0.0518
 1784SOL     OW 6250   1.273   5.711   2.027 -0.5584  0.3269 -0.7467
 1784SOL    HW1 6251   1.290   5.618   2.061 -0.3064  0.4624 -0.4978
 1784SOL    HW2 6252   1.355   5.766   2.040 -1.1208  0.9446  0.3203
 1785SOL     OW 6253   2.346   4.908   0.232  0.2005 -1.0507 -0.1062
 1785SOL    HW1 6254   2.273   4.878   0.171  0.8634 -2.8017 -0.0917
 1785SOL    HW2 6255   2.430   4.858   0.210  0.9638 -0.2770  0.9600
 1786SOL     OW 6256   1.345   5.700   2.905  0.3189 -0.1144 -0.0749
 1786SOL    HW1 6257   1.329   5.784   2.854  2.6839 -0.5020 -1.5956
 1786SOL    HW2 6258   1.442   5.677   2.903 -0.0376 -2.0978  1.5857
 1787SOL     OW 6259   1.564   0.678   5.834  0.1733 -0.4900 -0.2574
 1787SOL    HW1 6260   1.631   0.751   5.846  0.8763 -1.3417  1.1338
 1787SOL    HW2 6261   1.543   0.668   5.736 -0.3666  1.9189 -0.4606
 1788SOL     OW 6262   2.482   4.167   6.996  0.2643 -0.1581 -0.0943
 1788SOL    HW1 6263   2.540   4.137   7.072  0.1618 -0.8985 -0.3019
 1788SOL    HW2 6264   2.434   4.088   6.957 -3.5822  0.6910  2.2886
 1789SOL     OW 6265   4.723   2.295   3.673 -0.0709  0.0392 -0.1814
 1789SOL    HW1 6266   4.638   2.271   3.721 -0.0816  0.8972  0.2393
 1789SOL    HW2 6267   4.788   2.334   3.738 -0.6427  2.7000 -1.0765
 1790SOL     OW 6268   2.860   2.234   2.641 -0.1904  0.1698 -0.0557
 1790SOL    HW1 6269   2.956   2.227   2.671  0.0060  1.2295 -0.3888
 1790SOL    HW2 6270   2.858   2.268   2.547 -0.8977  0.0466 -0.0849
 1791SOL     OW 6271   4.843   1.056   3.037  0.8452 -0.0348  0.5485
 1791SOL    HW1 6272   4.855   1.093   3.129 -0.1425 -1.8694  1.4671
 1791SOL    HW2 6273   4.747   1.030   3.024  1.1777 -0.7406 -0.6333
 1792SOL     OW 6274   0.482   4.177   6.722 -0.2807 -0.2591  0.9948
 1792SOL    HW1 6275   0.507   4.114   6.649 -0.5998  0.1377  0.5383
 1792SOL    HW2 6276   0.394   4.219   6.702  0.6842  1.6317  0.3938
 1793SOL     OW 6277   1.366   2.086   5.022 -0.0633 -0.2679  0.0735
 1793SOL    HW1 6278   1.456   2.124   5.003  0.2021  0.9288  3.1634
 1793SOL    HW2 6279   1.295   2.148   4.985  0.4041  1.6135  2.1232
 1794SOL     OW 6280   0.243   2.527   6.575  0.4287 -0.0627 -0.2189
 1794SOL    HW1 6281   0.188   2.493   6.499 -2.4750 -0.0111  1.7045
 1794SOL    HW2 6282   0.233   2.627   6.582 -1.4630 -0.3000  1.6275
 1795SOL     OW 6283   0.217   6.072   1.326 -0.0465 -0.1138  0.4966
 1795SOL    HW1 6284   0.240   5.994   1.385 -1.2206 -1.4901 -0.7896
 1795SOL    HW2 6285   0.284   6.078   1.252  0.5849  0.7147  1.1145
 1796SOL     OW 6286   5.778   6.494   0.182 -0.2193 -0.1189 -0.2635
 1796SOL    HW1 6287   5.756   6.522   0.275  1.2006  0.8168 -0.1771
 1796SOL    HW2 6288   5.782   6.574   0.122  0.9711 -0.4420 -0.6562
 1797SOL     OW 6289   4.022   0.129   5.043  0.5183  0.0908 -0.1410
 1797SOL    HW1 6290   4.017   0.224   5.011 -0.6629  0.0084 -0.2397
 1797SOL    HW2 6291   4.115   0.110   5.076  0.7934  1.2506 -0.1996
 1798SOL     OW 6292   4.054   3.762   6.361  0.0665 -0.8313  0.4883
 1798SOL    HW1 6293   4.027   3.774   6.456  2.0838 -2.2196  1.3106
 1798SOL    HW2 6294   3.974   3.771   6.302 -1.2250  0.0851  2.2797
 1799SOL     OW 6295   3.447   1.318   1.626 -0.2193 -0.7854 -0.0018
 1799SOL    HW1 6296   3.510   1.252   1.669 -0.8432 -0.0847  2.1117
 1799SOL    HW2 6297   3.396   1.366   1.697  0.7668  2.6006 -1.3697
 1800SOL     OW 6298   4.734   3.531   6.389  0.1146 -0.2242 -0.1690
 1800SOL    HW1 6299   4.748   3.626   6.418 -0.7531 -0.1085 -0.0961
 1800SOL    HW2 6300   4.657   3.527   6.326  0.1938 -0.8734 -0.2237
 1801SOL     OW 6301   0.778   1.175   4.172  0.7028 -0.4574 -0.3625
 1801SOL    HW1 6302   0.840   1.117   4.120  0.0661 -0.3447 -1.2717
 1801SOL    HW2 6303   0.757   1.257   4.119  0.2724 -0.2018  0.1949
 1802SOL     OW 6304   6.073   5.164   5.008 -0.2374 -0.2870 -0.1739
 1802SOL    HW1 6305   6.009   5.201   5.076 -1.3374  1.7497 -2.2255
 1802SOL    HW2 6306   6.022   5.130   4.929  1.0692 -2.0512 -0.3345
 1803SOL     OW 6307   5.520   1.077   3.465  0.4012 -0.3587 -0.1799
 1803SOL    HW1 6308   5.506   1.088   3.564 -1.4116 -0.8236 -0.3383
 1803SOL    HW2 6309   5.517   0.980   3.442 -0.1754 -0.2042 -0.7892
 1804SOL     OW 6310   3.336   2.138   5.974  0.3710  0.4793 -0.3257
 1804SOL    HW1 6311   3.280   2.145   5.891  1.0675  0.6779 -0.7894
 1804SOL    HW2 6312   3.305   2.205   6.041 -0.6635 -0.1662 -0.1337
 1805SOL     OW 6313   6.724   5.315   3.889  0.3488 -0.0306  0.0846
 1805SOL    HW1 6314   6.725   5.336   3.987 -2.0839  2.9692 -0.3910
 1805SOL    HW2 6315   6.649   5.252   3.869  1.0946 -0.9659  0.1426
 1806SOL     OW 6316   6.601   2.730   2.424  0.2195  0.4524  0.7326
 1806SOL    HW1 6317   6.699   2.739   2.438  0.4308  0.4781 -0.6379
 1806SOL    HW2 6318   6.563   2.666   2.492  1.5242 -1.1162  0.0298
 1807SOL     OW 6319   1.147   1.761   3.326 -0.0857  0.5116  0.0916
 1807SOL    HW1 6320   1.119   1.791   3.417  0.0379 -1.5597  0.8693
 1807SOL    HW2 6321   1.080   1.697   3.289  0.3684  0.5463 -0.8302
 1808SOL     OW 6322   6.939   0.526   4.677 -0.2424 -0.5074 -0.0499
 1808SOL    HW1 6323   6.883   0.564   4.750 -1.7283  1.7875 -2.1991
 1808SOL    HW2 6324   6.906   0.435   4.654 -1.3730 -0.2527  0.5064
 1809SOL     OW 6325   4.020   0.954   4.746  0.1586  0.5372  0.2572
 1809SOL    HW1 6326   3.926   0.948   4.778 -0.2011  0.1134 -0.8312
 1809SOL    HW2 6327   4.066   0.866   4.760  0.1972  0.5472  0.1914
 1810SOL     OW 6328   2.012   1.564   4.688 -0.1702  0.0238  0.0878
 1810SOL    HW1 6329   2.110   1.573   4.703 -0.4163  0.4326  1.6295
 1810SOL    HW2 6330   1.967   1.650   4.714 -0.9158 -0.0593 -0.8838
 1811SOL     OW 6331   2.883   4.531   0.287 -0.1044  0.2869 -1.1034
 1811SOL    HW1 6332   2.884   4.450   0.228 -0.5921 -0.2692 -0.3641
 1811SOL    HW2 6333   2.847   4.609   0.235 -0.0840 -0.0825 -1.6808
 1812SOL     OW 6334   2.393   1.581   6.122  0.1411 -0.5578  0.6165
 1812SOL    HW1 6335   2.322   1.587   6.192 -0.0853  1.0373  0.2864
 1812SOL    HW2 6336   2.370   1.642   6.046  2.0112  0.2944  0.6691
 1813SOL     OW 6337   5.109   5.429   2.132 -0.4976 -0.1103  0.2418
 1813SOL    HW1 6338   5.041   5.440   2.204 -0.4267 -0.3853  0.3509
 1813SOL    HW2 6339   5.195   5.474   2.160 -0.7344  0.5244 -0.0372
 1814SOL     OW 6340   6.237   6.820   0.802 -0.4011 -0.0404 -0.1204
 1814SOL    HW1 6341   6.256   6.783   0.893 -0.3633 -0.8916 -0.4596
 1814SOL    HW2 6342   6.180   6.755   0.751 -2.4989  1.4877  0.1272
 1815SOL     OW 6343   4.669   6.134   1.369 -0.3221  0.3234 -0.0508
 1815SOL    HW1 6344   4.706   6.223   1.396 -1.0239  0.4596  0.4961
 1815SOL    HW2 6345   4.629   6.089   1.448  0.2850 -0.6193 -0.2661
 1816SOL     OW 6346   3.115   5.255   5.021 -0.2723  0.2655  0.1992
 1816SOL    HW1 6347   3.017   5.268   5.035 -0.6787 -1.1619 -1.0847
 1816SOL    HW2 6348   3.165   5.326   5.071 -1.9430  1.0923  0.7854
 1817SOL     OW 6349   6.801   2.748   3.615  0.6739  0.0313 -0.5779
 1817SOL    HW1 6350   6.804   2.806   3.696  0.9524 -1.3739  0.4651
 1817SOL    HW2 6351   6.734   2.784   3.550  0.5608  1.2736  0.2020
 1818SOL     OW 6352   2.094   2.149   2.805  0.2316  0.0497  0.7903
 1818SOL    HW1 6353   2.005   2.185   2.835  0.9478  1.6022  1.2037
 1818SOL    HW2 6354   2.081   2.062   2.759 -1.6544  0.8040 -0.2440
 1819SOL     OW 6355   0.247   0.396   6.815  0.1505  0.0695 -0.4987
 1819SOL    HW1 6356   0.163   0.412   6.868  0.0460 -0.4951 -0.4804
 1819SOL    HW2 6357   0.226   0.402   6.717  0.1272  0.1101 -0.4914
 1820SOL     OW 6358   4.314   5.917   2.828 -0.3386  0.6234 -0.0388
 1820SOL    HW1 6359   4.313   5.979   2.906  2.7006  2.6393 -1.4584
 1820SOL    HW2 6360   4.283   5.826   2.858 -0.5825  1.6327  3.1389
 1821SOL     OW 6361   3.387   1.747   2.002 -0.3320 -0.0313  0.9421
 1821SOL    HW1 6362   3.469   1.759   1.946  0.6565  1.4310  2.5748
 1821SOL    HW2 6363   3.407   1.684   2.077 -2.0646 -3.1384 -0.9949
 1822SOL     OW 6364   1.450   3.751   4.764  0.0288 -0.1822  0.1954
 1822SOL    HW1 6365   1.484   3.845   4.770  1.6633 -0.7006 -0.2164
 1822SOL    HW2 6366   1.382   3.735   4.836  0.0457  1.1827  0.5419
 1823SOL     OW 6367   3.017   6.680   5.867 -0.8863 -0.4261 -0.3133
 1823SOL    HW1 6368   2.994   6.651   5.774 -1.7676 -0.6138 -0.0504
 1823SOL    HW2 6369   2.933   6.686   5.922 -0.3586 -0.5519  0.5370
 1824SOL     OW 6370   5.239   2.895   0.644 -0.1033  0.1402  0.4990
 1824SOL    HW1 6371   5.288   2.962   0.698  1.1190 -0.9892  0.8372
 1824SOL    HW2 6372   5.169   2.851   0.701  0.0572  0.1235  0.6824
 1825SOL     OW 6373   1.686   3.374   0.215  0.5951 -0.4732 -0.4418
 1825SOL    HW1 6374   1.679   3.446   0.285  2.1009 -0.0392 -0.7088
 1825SOL    HW2 6375   1.732   3.411   0.134 -3.5730 -0.0952 -2.9289
 1826SOL     OW 6376   2.982   3.663   5.597  0.0736  0.2431 -0.4634
 1826SOL    HW1 6377   2.884   3.683   5.588  0.1116  0.9382  0.4738
 1826SOL    HW2 6378   3.005   3.651   5.694  0.8185 -0.4607 -0.7154
 1827SOL     OW 6379   5.706   4.587   0.865  0.5432 -0.3692  0.4992
 1827SOL    HW1 6380   5.769   4.517   0.829  0.4674 -0.3579  0.3415
 1827SOL    HW2 6381   5.737   4.617   0.955  1.5487  0.6412 -0.1534
 1828SOL     OW 6382   2.458   6.816   0.135 -0.0080  0.0615  0.1547
 1828SOL    HW1 6383   2.481   6.719   0.130  1.8060  0.4523  0.2790
 1828SOL    HW2 6384   2.510   6.859   0.209 -1.1100  1.0571  0.3777
 1829SOL     OW 6385   0.446   4.719   2.160 -0.7237  0.1007 -0.0862
 1829SOL    HW1 6386   0.520   4.691   2.222 -0.5417  0.1138 -0.2969
 1829SOL    HW2 6387   0.484   4.738   2.070 -0.8280  1.1324  0.0809
 1830SOL     OW 6388   4.798   1.334   6.490  0.3068  0.2567 -0.5771
 1830SOL    HW1 6389   4.710   1.308   6.528  1.7014 -2.4880  1.1272
 1830SOL    HW2 6390   4.864   1.347   6.565  1.1521  3.4429 -1.7102
 1831SOL     OW 6391   4.043   4.836   6.676 -0.5188 -0.8264  0.2774
 1831SOL    HW1 6392   4.139   4.829   6.704 -0.9792 -1.6584  1.7733
 1831SOL    HW2 6393   4.001   4.745   6.679 -1.5733 -0.3510  0.5085
 1832SOL     OW 6394   6.894   2.356   4.662  0.1558 -0.6684 -0.4325
 1832SOL    HW1 6395   6.913   2.354   4.760  0.3167  0.5106 -0.4263
 1832SOL    HW2 6396   6.804   2.397   4.646  0.5532  0.0798 -0.8159
 1833SOL     OW 6397   4.262   1.256   0.839  0.2915 -0.2728  0.2105
 1833SOL    HW1 6398   4.193   1.245   0.767  1.1081 -2.1024 -0.3430
 1833SOL    HW2 6399   4.225   1.314   0.912 -1.6162 -0.7608 -0.3172
 1834SOL     OW 6400   1.791   4.091   5.085 -0.1029 -0.1692 -0.1349
 1834SOL    HW1 6401   1.740   4.060   5.166 -0.7662 -0.8712 -0.7959
 1834SOL    HW2 6402   1.887   4.103   5.108  0.1156 -2.3286  0.2955
 1835SOL     OW 6403   0.032   0.482   6.268 -0.5494  0.0689 -0.1778
 1835SOL    HW1 6404   0.100   0.411   6.247 -0.0529 -0.0170  1.5031
 1835SOL    HW2 6405   0.080   0.565   6.296 -1.1410  0.8259 -1.3696
 1836SOL     OW 6406   4.421   0.548   4.280 -0.4385 -0.7619  0.0146
 1836SOL    HW1 6407   4.444   0.475   4.217 -1.2109 -1.4978  0.5585
 1836SOL    HW2 6408   4.445   0.636   4.240  2.6369 -1.3817  0.2392
 1837SOL     OW 6409   1.914   1.514   1.286 -0.7678  0.8839 -0.2406
 1837SOL    HW1 6410   1.904   1.510   1.187 -1.4179  2.4653 -0.2678
 1837SOL    HW2 6411   1.828   1.544   1.327 -0.6666 -0.2512  0.8571
 1838SOL     OW 6412   6.480   0.544   0.079 -0.2352 -0.1568  0.5321
 1838SOL    HW1 6413   6.558   0.593   0.119  1.5922  0.4029 -3.2274
 1838SOL    HW2 6414   6.399   0.602   0.083  0.0471  0.1577  2.5804
 1839SOL     OW 6415   6.807   4.167   0.042  0.4091 -0.5257  0.0969
 1839SOL    HW1 6416   6.886   4.206  -0.006  0.5585 -1.4066 -0.3872
 1839SOL    HW2 6417   6.753   4.113  -0.021 -0.2166 -0.4841  0.5902
 1840SOL     OW 6418   1.295   6.575   0.267 -0.3552  0.3893 -0.0884
 1840SOL    HW1 6419   1.200   6.605   0.273 -0.8001 -0.9048 -0.3623
 1840SOL    HW2 6420   1.323   6.536   0.354  0.0069  0.9834  0.0639
 1841SOL     OW 6421   1.081   2.410   2.573 -0.0577 -0.6316  0.3642
 1841SOL    HW1 6422   1.078   2.493   2.517  0.6658  0.5940  2.0609
 1841SOL    HW2 6423   1.098   2.331   2.514  0.9447  0.6298 -1.1194
 1842SOL     OW 6424   0.532   4.879   2.437 -0.8753 -0.2973 -0.4972
 1842SOL    HW1 6425   0.461   4.816   2.470 -1.2915  0.3431 -0.1449
 1842SOL    HW2 6426   0.584   4.835   2.364 -0.5886 -1.3613  0.3377
 1843SOL     OW 6427   3.791   0.457   0.760 -0.0245 -0.0650 -0.3632
 1843SOL    HW1 6428   3.747   0.526   0.703 -3.1088 -2.9236 -1.8143
 1843SOL    HW2 6429   3.792   0.369   0.712  2.1346 -1.4971  2.0225
 1844SOL     OW 6430   6.557   2.662   6.343  0.2161 -0.1443 -0.1294
 1844SOL    HW1 6431   6.532   2.652   6.439  0.5507 -1.8700 -0.2045
 1844SOL    HW2 6432   6.581   2.573   6.304  0.7793  0.6186 -1.6290
 1845SOL     OW 6433   0.501   2.515   5.815  0.2422 -0.2026 -0.5202
 1845SOL    HW1 6434   0.569   2.587   5.803 -0.5753  0.4538 -1.2998
 1845SOL    HW2 6435   0.449   2.531   5.899 -0.0196  0.1924 -0.7546
 1846SOL     OW 6436   4.854   0.464   1.025 -0.5674 -0.4791 -0.4222
 1846SOL    HW1 6437   4.830   0.557   0.998 -0.8687  0.3629  2.3945
 1846SOL    HW2 6438   4.942   0.439   0.983 -1.2272  0.4151 -2.4683
 1847SOL     OW 6439   2.554   6.241   1.542  0.0342 -0.5840  0.4715
 1847SOL    HW1 6440   2.636   6.243   1.598  2.2678  0.1428 -2.5380
 1847SOL    HW2 6441   2.549   6.153   1.494  1.9644  0.9954 -3.0296
 1848SOL     OW 6442   2.507   0.457   4.422  0.8537  0.0078  0.0301
 1848SOL    HW1 6443   2.570   0.534   4.413  1.1132 -0.2546 -0.3652
 1848SOL    HW2 6444   2.553   0.381   4.466  0.8335 -0.2132 -0.3341
 1849SOL     OW 6445   5.093   4.321   1.788  0.1660 -0.3177 -0.4381
 1849SOL    HW1 6446   5.101   4.297   1.692  0.7283  0.6016 -0.6363
 1849SOL    HW2 6447   4.997   4.329   1.813  0.0059 -1.2402 -0.7393
 1850SOL     OW 6448   6.106   6.629   0.677  0.5282  0.2588 -0.0114
 1850SOL    HW1 6449   6.129   6.555   0.613 -2.0446  0.7581 -1.6829
 1850SOL    HW2 6450   6.021   6.605   0.724 -0.1262  1.9426 -0.2842
 1851SOL     OW 6451   1.348   4.943   2.895 -0.0239  0.1458 -0.3333
 1851SOL    HW1 6452   1.276   4.950   2.964  0.5813  1.5570  0.1812
 1851SOL    HW2 6453   1.325   5.003   2.818  0.5393  0.5084 -0.2194
 1852SOL     OW 6454   6.534   0.899   1.994  0.0641 -0.5444 -0.6600
 1852SOL    HW1 6455   6.601   0.902   2.069  0.4442 -1.8421 -0.9254
 1852SOL    HW2 6456   6.468   0.826   2.012  1.6717 -2.6744 -2.8023
 1853SOL     OW 6457   2.100   1.722   4.009 -0.0938  0.4995 -0.0401
 1853SOL    HW1 6458   2.107   1.807   3.956  0.1157  0.1714 -0.5444
 1853SOL    HW2 6459   2.101   1.744   4.106  0.2878  1.0512 -0.1608
 1854SOL     OW 6460   2.147   6.889   4.395  0.0862  0.6229 -0.2214
 1854SOL    HW1 6461   2.066   6.946   4.379 -0.4231  0.0228  0.1320
 1854SOL    HW2 6462   2.147   6.858   4.490 -0.6806 -1.4924 -0.8524
 1855SOL     OW 6463   1.579   0.929   4.665  0.4524 -0.1019  0.1612
 1855SOL    HW1 6464   1.591   1.026   4.643  2.8314 -0.0431  1.3917
 1855SOL    HW2 6465   1.518   0.887   4.598 -0.0574  2.0753 -0.8265
 1856SOL     OW 6466   5.134   4.229   5.482  0.5406 -0.3974 -0.0775
 1856SOL    HW1 6467   5.069   4.153   5.481  1.8387 -1.5646 -0.0105
 1856SOL    HW2 6468   5.107   4.298   5.415 -3.1663  1.3598  2.8537
 1857SOL     OW 6469   3.250   1.219   0.934  0.5369  0.4730  0.4480
 1857SOL    HW1 6470   3.219   1.256   1.022  0.1588  1.1024  0.0595
 1857SOL    HW2 6471   3.236   1.120   0.933 -0.9047  0.6559  0.5246
 1858SOL     OW 6472   4.555   2.219   4.556 -0.1623  0.4286  0.3002
 1858SOL    HW1 6473   4.548   2.119   4.557 -1.5543  0.4748 -1.0291
 1858SOL    HW2 6474   4.651   2.246   4.545  0.1309 -0.7791 -0.2928
 1859SOL     OW 6475   1.357   5.392   3.545  0.4607  0.1074 -0.2502
 1859SOL    HW1 6476   1.431   5.326   3.530  1.7167  1.5992 -0.8806
 1859SOL    HW2 6477   1.391   5.484   3.529 -1.5952  0.8426 -0.6511
 1860SOL     OW 6478   1.124   1.745   6.757  0.3608  0.5534  0.3273
 1860SOL    HW1 6479   1.057   1.687   6.804  0.4968  0.1164 -0.0198
 1860SOL    HW2 6480   1.158   1.814   6.821 -0.5987  0.9377  0.4482
 1861SOL     OW 6481   6.646   6.988   3.747  0.0044  0.2901  0.0634
 1861SOL    HW1 6482   6.586   7.065   3.730 -0.6156 -0.0502  0.6528
 1861SOL    HW2 6483   6.636   6.920   3.675 -0.2246  0.2962  0.0887
 1862SOL     OW 6484   2.874   4.807   5.263  0.5590 -0.0341 -0.3111
 1862SOL    HW1 6485   2.950   4.789   5.325 -0.2214  1.4175  1.1561
 1862SOL    HW2 6486   2.862   4.730   5.201  2.8135 -0.5573 -0.1656
 1863SOL     OW 6487   5.363   2.235   1.010 -0.3505 -0.0255  0.4727
 1863SOL    HW1 6488   5.354   2.155   0.949 -0.7975  0.4297 -0.0742
 1863SOL    HW2 6489   5.459   2.245   1.038 -0.3293 -0.8978  0.7539
 1864SOL     OW 6490   4.196   6.293   2.041 -0.0603  0.2014  0.0775
 1864SOL    HW1 6491   4.225   6.224   1.974  1.5101 -0.2800  1.1836
 1864SOL    HW2 6492   4.157   6.371   1.994  2.6351  0.6663 -1.5876
 1865SOL     OW 6493   5.118   3.161   5.486 -0.1457  0.7537  0.5879
 1865SOL    HW1 6494   5.051   3.126   5.551 -0.8028  1.6411  0.3991
 1865SOL    HW2 6495   5.182   3.221   5.534 -0.0365  0.6332  0.5941
 1866SOL     OW 6496   6.502   2.643   5.696 -0.4298  0.2835  0.3571
 1866SOL    HW1 6497   6.415   2.692   5.706  0.5258  1.8440  1.6670
 1866SOL    HW2 6498   6.494   2.552   5.736 -1.7201  0.0622 -0.3749
 1867SOL     OW 6499   1.507   6.588   6.675  0.3392  0.3120  0.1969
 1867SOL    HW1 6500   1.587   6.581   6.735 -0.3816  0.4452  1.2077
 1867SOL    HW2 6501   1.489   6.684   6.655 -0.2183  0.3684  0.9076
 1868SOL     OW 6502   5.844   2.883   0.127  0.2157 -0.3705 -0.4605
 1868SOL    HW1 6503   5.895   2.966   0.150 -0.5878  0.6489 -2.1380
 1868SOL    HW2 6504   5.872   2.809   0.188  1.8564  0.7934  0.2940
 1869SOL     OW 6505   3.792   2.463   5.488  0.1698 -0.2713  0.1496
 1869SOL    HW1 6506   3.816   2.417   5.573  0.4710  0.0309  0.2276
 1869SOL    HW2 6507   3.836   2.553   5.484  2.4821 -1.3988 -1.5856
 1870SOL     OW 6508   3.874   2.210   5.938 -0.2286  0.0710  0.4947
 1870SOL    HW1 6509   3.955   2.157   5.912  0.4646  1.3466 -0.0133
 1870SOL    HW2 6510   3.806   2.202   5.865  0.6967  1.5296 -0.5799
 1871SOL     OW 6511   3.547   4.162   0.595  0.8184 -0.0359  0.4950
 1871SOL    HW1 6512   3.588   4.181   0.684 -0.9154  4.7960  0.5812
 1871SOL    HW2 6513   3.617   4.171   0.524  1.3850  0.6062  1.1106
 1872SOL     OW 6514   1.924   4.138   6.033  0.2611  0.4957 -0.2115
 1872SOL    HW1 6515   1.883   4.197   5.963 -0.0503  1.2576  0.6011
 1872SOL    HW2 6516   1.993   4.079   5.990 -0.6995  0.1623 -1.3541
 1873SOL     OW 6517   5.079   3.534   2.901  0.0702  0.0571  0.1229
 1873SOL    HW1 6518   5.069   3.477   2.820 -1.7295  1.0925 -0.4434
 1873SOL    HW2 6519   5.011   3.508   2.970 -0.8412  1.5108 -0.1777
 1874SOL     OW 6520   2.730   4.397   0.070 -0.2680  0.0261  0.4230
 1874SOL    HW1 6521   2.727   4.456  -0.012  1.5882  0.8787  0.9179
 1874SOL    HW2 6522   2.644   4.407   0.120  0.0705  2.6341  0.6543
 1875SOL     OW 6523   5.914   1.638   3.187  0.5354  0.0846 -0.4103
 1875SOL    HW1 6524   5.906   1.675   3.279  1.8649  2.7070 -1.2488
 1875SOL    HW2 6525   5.830   1.657   3.136  0.4173  0.0548 -0.2293
 1876SOL     OW 6526   1.849   3.480   3.339  0.1220 -0.4262 -0.0296
 1876SOL    HW1 6527   1.946   3.487   3.316  0.0333  0.7493 -0.0836
 1876SOL    HW2 6528   1.836   3.501   3.436 -0.1888  0.4120 -0.2473
 1877SOL     OW 6529   0.525   1.219   3.056 -0.6176  0.0924 -0.5789
 1877SOL    HW1 6530   0.435   1.257   3.035  0.3657  3.9028  1.2651
 1877SOL    HW2 6531   0.547   1.238   3.152  2.3153 -0.3727 -1.0883
 1878SOL     OW 6532   5.256   3.626   3.282 -0.3607  0.3890 -0.1379
 1878SOL    HW1 6533   5.212   3.709   3.248 -0.2015  1.3223  1.7754
 1878SOL    HW2 6534   5.342   3.651   3.327  0.1961 -0.9569 -0.4135
 1879SOL     OW 6535   1.278   7.015   5.237 -0.3175 -0.3201 -0.2272
 1879SOL    HW1 6536   1.337   7.077   5.186  0.1462 -0.2519  0.3706
 1879SOL    HW2 6537   1.237   6.948   5.175  0.6388 -0.5633 -0.6148
 1880SOL     OW 6538   1.157   4.006   2.035  0.7857  0.4729 -0.7620
 1880SOL    HW1 6539   1.060   4.003   2.058  1.1838  0.2257  1.0682
 1880SOL    HW2 6540   1.190   3.914   2.016  1.0135  0.3152  0.3318
 1881SOL     OW 6541   3.811   1.524   2.953  0.4551  0.2503 -0.3983
 1881SOL    HW1 6542   3.901   1.502   2.988  0.0975 -0.4657  0.0955
 1881SOL    HW2 6543   3.770   1.443   2.912 -0.6518  0.1051  0.9306
 1882SOL     OW 6544   2.630   6.636   6.685  0.7098 -0.3146  0.0571
 1882SOL    HW1 6545   2.605   6.710   6.747 -0.9992 -0.6653 -0.1697
 1882SOL    HW2 6546   2.643   6.672   6.593 -0.8288 -0.3495 -0.2043
 1883SOL     OW 6547   2.028   3.325   1.841 -0.5560  0.2291 -0.1650
 1883SOL    HW1 6548   2.122   3.359   1.849  0.4221 -0.7049 -4.6577
 1883SOL    HW2 6549   2.022   3.234   1.883  0.0948  0.9098  1.4592
 1884SOL     OW 6550   6.352   1.271   2.045  0.4743  0.2695  0.8699
 1884SOL    HW1 6551   6.431   1.252   2.104  0.6523 -0.4207  0.4197
 1884SOL    HW2 6552   6.311   1.185   2.017 -0.2159  0.6212  0.7923
 1885SOL     OW 6553   5.576   3.786   0.969  0.4729 -0.3156  0.5969
 1885SOL    HW1 6554   5.500   3.757   1.027  1.0964 -2.1813  0.5518
 1885SOL    HW2 6555   5.595   3.882   0.985 -0.8887 -0.2017  1.7430
 1886SOL     OW 6556   4.080   3.416   3.246 -0.0667  0.2289  0.3651
 1886SOL    HW1 6557   4.082   3.485   3.319 -2.1392 -1.2458  1.9137
 1886SOL    HW2 6558   4.085   3.325   3.286  0.0833 -0.6073 -1.4700
 1887SOL     OW 6559   1.542   5.637   5.822  0.4956 -0.5232  0.1093
 1887SOL    HW1 6560   1.509   5.542   5.820  0.1904 -0.4020 -0.8710
 1887SOL    HW2 6561   1.604   5.648   5.900 -1.7553 -0.7506  2.0308
 1888SOL     OW 6562   2.740   2.509   6.092 -0.2561 -0.2065 -0.3603
 1888SOL    HW1 6563   2.650   2.552   6.094  0.3126  1.0248 -0.1216
 1888SOL    HW2 6564   2.804   2.569   6.044  0.6624 -0.6099  0.3371
 1889SOL     OW 6565   3.647   3.441   5.803  0.2903 -0.5756  0.0585
 1889SOL    HW1 6566   3.694   3.356   5.782  1.7636 -0.0633  1.1109
 1889SOL    HW2 6567   3.701   3.494   5.869 -0.3826  1.3427 -0.8391
 1890SOL     OW 6568   5.255   0.315   5.266  0.3681 -0.4991  0.3855
 1890SOL    HW1 6569   5.299   0.318   5.176  2.1874  0.3122  1.2628
 1890SOL    HW2 6570   5.315   0.357   5.334 -1.7761  0.6347  1.6678
 1891SOL     OW 6571   4.867   1.896   6.926  0.7720 -0.4691 -0.0810
 1891SOL    HW1 6572   4.926   1.894   7.006  0.0142 -2.2294  0.4716
 1891SOL    HW2 6573   4.773   1.915   6.954  0.5378 -0.8925 -0.5657
 1892SOL     OW 6574   2.665   1.122   3.495  0.0566  0.0487  0.4186
 1892SOL    HW1 6575   2.704   1.146   3.584 -0.4978 -1.0526  0.9800
 1892SOL    HW2 6576   2.599   1.192   3.467 -0.1106  0.1714  1.1061
 1893SOL     OW 6577   2.182   4.620   6.644  0.7507 -0.0323 -0.9545
 1893SOL    HW1 6578   2.268   4.671   6.651 -0.5475  2.4065 -1.3455
 1893SOL    HW2 6579   2.162   4.602   6.548  0.9443 -0.8330 -0.8476
 1894SOL     OW 6580   6.948   4.720   1.669 -0.0133  0.1845  0.3846
 1894SOL    HW1 6581   6.955   4.627   1.704 -1.3931  0.4612  1.4743
 1894SOL    HW2 6582   6.903   4.778   1.737  1.9927  1.9755  0.3104
 1895SOL     OW 6583   4.511   1.846   2.724  0.0537 -0.2252 -0.0821
 1895SOL    HW1 6584   4.556   1.930   2.694  0.5749 -1.5228 -3.5075
 1895SOL    HW2 6585   4.581   1.777   2.745 -0.3715 -0.0797  1.9670
 1896SOL     OW 6586   0.197   4.670   3.968 -0.3209 -0.3129  0.2498
 1896SOL    HW1 6587   0.105   4.704   3.988 -0.1290 -0.0003  0.6042
 1896SOL    HW2 6588   0.190   4.581   3.924 -0.8712  0.6437 -1.7071
 1897SOL     OW 6589   4.868   6.915   1.792 -0.6983  0.3766 -0.4080
 1897SOL    HW1 6590   4.813   6.894   1.872 -0.3897  0.9864 -0.0305
 1897SOL    HW2 6591   4.918   7.000   1.807  0.7357 -0.4139 -0.5401
 1898SOL     OW 6592   4.272   4.180   5.851  1.3565 -0.6545  0.2546
 1898SOL    HW1 6593   4.250   4.201   5.755 -2.2291 -0.1608  1.0256
 1898SOL    HW2 6594   4.289   4.265   5.901 -0.8622 -0.4743  0.8138
 1899SOL     OW 6595   2.488   1.867   3.889 -0.2187 -0.0562  0.0981
 1899SOL    HW1 6596   2.475   1.857   3.988  0.2600 -1.1831  0.0602
 1899SOL    HW2 6597   2.459   1.959   3.861 -0.9782  0.0486  1.1708
 1900SOL     OW 6598   1.920   5.451   2.335  0.3318 -0.1618 -0.0128
 1900SOL    HW1 6599   2.012   5.442   2.297  0.7024 -0.0724  0.8420
 1900SOL    HW2 6600   1.855   5.402   2.277  0.9514 -0.4087 -0.5089
 1901SOL     OW 6601   1.512   2.051   0.812 -0.7315  0.1669  0.6090
 1901SOL    HW1 6602   1.442   2.122   0.803 -0.9856 -0.0361  0.9850
 1901SOL    HW2 6603   1.567   2.067   0.894 -0.8745 -0.1447  0.7675
 1902SOL     OW 6604   1.964   3.246   5.914 -0.0544 -0.6281  0.2189
 1902SOL    HW1 6605   2.043   3.186   5.930 -0.3251 -1.6414 -1.8551
 1902SOL    HW2 6606   1.948   3.254   5.816 -0.5047  2.3132  0.4384
 1903SOL     OW 6607   1.540   4.929   4.003 -0.0156 -0.6086 -0.7272
 1903SOL    HW1 6608   1.448   4.895   4.023  0.4958 -2.1078 -0.8554
 1903SOL    HW2 6609   1.555   4.931   3.905  0.5285 -1.6120 -0.6761
 1904SOL     OW 6610   1.860   0.764   4.273  0.5789  0.3630  0.1520
 1904SOL    HW1 6611   1.956   0.761   4.245  0.5105 -1.3952 -0.0085
 1904SOL    HW2 6612   1.803   0.741   4.194  0.1834 -1.1744  0.8750
 1905SOL     OW 6613   4.858   3.077   4.520  0.1399  0.1934 -0.0887
 1905SOL    HW1 6614   4.942   3.028   4.541 -0.8504 -2.0930 -1.1001
 1905SOL    HW2 6615   4.836   3.066   4.423 -2.0252 -0.5579  0.4106
 1906SOL     OW 6616   0.522   5.912   0.674  0.5162 -0.8111 -0.2325
 1906SOL    HW1 6617   0.503   5.816   0.655  2.0119 -1.4618  1.2414
 1906SOL    HW2 6618   0.598   5.918   0.740 -0.1445  1.3593  0.4141
 1907SOL     OW 6619   5.268   1.715   2.757  0.2270 -0.3173  0.4212
 1907SOL    HW1 6620   5.346   1.654   2.740 -0.0918 -0.5435 -0.2789
 1907SOL    HW2 6621   5.218   1.729   2.671 -1.4487 -1.4868  1.1650
 1908SOL     OW 6622   1.559   4.665   5.704  0.2572 -0.7103 -0.2984
 1908SOL    HW1 6623   1.616   4.685   5.624 -0.7535  0.1156 -0.8405
 1908SOL    HW2 6624   1.463   4.677   5.680 -0.2253 -2.8156  0.3920
 1909SOL     OW 6625   4.542   5.913   4.327  0.3610  0.3758  0.1786
 1909SOL    HW1 6626   4.494   5.884   4.410  0.0986 -0.6744 -0.3265
 1909SOL    HW2 6627   4.576   5.832   4.278  0.2562  0.9659 -0.8880
 1910SOL     OW 6628   5.001   4.872   4.048  0.0705  0.7290 -0.3069
 1910SOL    HW1 6629   4.936   4.796   4.055  0.0761  0.7691  0.1852
 1910SOL    HW2 6630   4.989   4.933   4.126 -0.1471  1.4101 -0.8644
 1911SOL     OW 6631   1.978   2.792   6.067 -0.6265  0.1314  0.5085
 1911SOL    HW1 6632   1.948   2.880   6.028 -0.0859 -0.2469 -0.8273
 1911SOL    HW2 6633   2.055   2.808   6.129  2.2419  0.3319 -2.7896
 1912SOL     OW 6634   3.890   1.737   0.582  0.2050  0.9386  0.5444
 1912SOL    HW1 6635   3.890   1.828   0.541 -0.4227  1.0839  0.8586
 1912SOL    HW2 6636   3.945   1.739   0.666 -0.2261  1.1590  0.8250
 1913SOL     OW 6637   3.716   4.496   0.062  0.3068 -0.5896 -0.0896
 1913SOL    HW1 6638   3.696   4.470   0.156 -2.7876  2.7437  0.4164
 1913SOL    HW2 6639   3.764   4.584   0.061 -0.4916 -0.1285 -1.5944
 1914SOL     OW 6640   4.415   1.714   5.607  0.7963 -0.6929  0.1666
 1914SOL    HW1 6641   4.392   1.800   5.653  2.4517  0.3708 -0.9196
 1914SOL    HW2 6642   4.330   1.668   5.580 -0.1173  0.7568  0.4455
 1915SOL     OW 6643   1.199   6.718   4.719  0.2936 -0.0199  0.0591
 1915SOL    HW1 6644   1.245   6.669   4.644 -0.3333  0.8219 -0.8942
 1915SOL    HW2 6645   1.111   6.675   4.738 -1.3076  1.9969 -2.3235
 1916SOL     OW 6646   4.176   1.904   4.522  0.0616 -0.0239  0.3189
 1916SOL    HW1 6647   4.144   1.984   4.573 -1.8021 -0.0028 -0.7719
 1916SOL    HW2 6648   4.135   1.821   4.560 -0.8146 -0.0737 -0.6621
 1917SOL     OW 6649   3.469   3.027   2.377 -0.5807  0.3061 -0.7680
 1917SOL    HW1 6650   3.541   3.095   2.393  0.7577 -0.8592 -1.6135
 1917SOL    HW2 6651   3.404   3.063   2.311 -0.0867  0.9080 -0.9437
 1918SOL     OW 6652   1.054   6.486   5.408 -0.3841 -0.4032  0.6734
 1918SOL    HW1 6653   1.101   6.475   5.321  0.2274  0.1846  0.9210
 1918SOL    HW2 6654   1.023   6.581   5.417  2.0221  0.3304  2.2792
 1919SOL     OW 6655   4.535   0.365   6.239 -0.1161 -0.1170 -0.1132
 1919SOL    HW1 6656   4.574   0.287   6.287 -1.8813 -1.0236 -0.0904
 1919SOL    HW2 6657   4.502   0.337   6.149 -1.7920  0.3141  0.3322
 1920SOL     OW 6658   0.254   6.133   3.975  0.1546  0.2361  0.5494
 1920SOL    HW1 6659   0.290   6.163   4.063  0.6502  0.1456  0.3803
 1920SOL    HW2 6660   0.167   6.085   3.989  0.9453 -1.0738  1.1453
 1921SOL     OW 6661   3.054   5.962   0.333  0.1695 -0.0779 -0.3758
 1921SOL    HW1 6662   3.071   5.867   0.360  0.9426  0.0818 -0.2792
 1921SOL    HW2 6663   2.966   5.968   0.286  0.2463 -0.8952 -0.6412
 1922SOL     OW 6664   2.966   4.430   1.479  0.5950 -0.1923  0.1710
 1922SOL    HW1 6665   3.002   4.493   1.548  1.1154  0.6256 -0.8303
 1922SOL    HW2 6666   2.882   4.388   1.513  0.3796  0.8467  0.9592
 1923SOL     OW 6667   1.260   4.168   1.846  0.1196  0.6458 -0.0322
 1923SOL    HW1 6668   1.273   4.263   1.875 -0.6037  1.0324 -0.9182
 1923SOL    HW2 6669   1.216   4.117   1.919  1.9710  0.5674  1.0740
 1924SOL     OW 6670   1.318   3.052   1.405 -0.0678 -0.4545  0.4166
 1924SOL    HW1 6671   1.345   3.042   1.501 -1.1142 -2.2811  0.5640
 1924SOL    HW2 6672   1.375   2.992   1.348 -2.1721 -2.6643  0.4752
 1925SOL     OW 6673   3.124   6.251   1.303  0.0646  0.3783 -0.2225
 1925SOL    HW1 6674   3.091   6.168   1.258 -0.4083  0.5565 -0.2092
 1925SOL    HW2 6675   3.112   6.242   1.402 -1.4880  1.0841 -0.3086
 1926SOL     OW 6676   6.710   0.321   3.273  0.2393 -0.5159  0.3289
 1926SOL    HW1 6677   6.689   0.374   3.191  1.1296  0.0580  0.4655
 1926SOL    HW2 6678   6.626   0.276   3.305 -0.0267 -1.1776 -1.1703
 1927SOL     OW 6679   5.451   1.870   0.675 -0.2715 -0.1484  0.3735
 1927SOL    HW1 6680   5.521   1.932   0.710 -0.1388 -1.1906  2.0937
 1927SOL    HW2 6681   5.454   1.869   0.575  0.5974  1.5706  0.3439
 1928SOL     OW 6682   5.440   3.754   1.447  0.2251  0.0508  0.0215
 1928SOL    HW1 6683   5.382   3.716   1.375  0.5256 -1.8376  0.7271
 1928SOL    HW2 6684   5.534   3.721   1.434  0.6006  0.9521  0.3910
 1929SOL     OW 6685   0.020   5.003   3.999  0.1830 -0.1544  0.2106
 1929SOL    HW1 6686  -0.007   5.060   3.921  0.9859 -0.9139 -0.6400
 1929SOL    HW2 6687   0.117   5.018   4.019  0.0313 -0.1154  0.9527
 1930SOL     OW 6688   0.031   6.136   6.451  0.2487 -0.2485 -0.0682
 1930SOL    HW1 6689   0.029   6.038   6.435 -1.2930 -0.5639  1.7066
 1930SOL    HW2 6690   0.003   6.184   6.367 -0.3413 -1.3913 -0.5470
 1931SOL     OW 6691   4.289   1.616   3.768 -0.3169  0.1970 -0.5350
 1931SOL    HW1 6692   4.314   1.562   3.687 -0.7524  0.4122 -0.8152
 1931SOL    HW2 6693   4.373   1.648   3.813  0.0279 -1.9714  0.5142
 1932SOL     OW 6694   6.211   3.467   3.783 -0.0630  0.5558  0.3719
 1932SOL    HW1 6695   6.170   3.550   3.823  1.5409  1.5351  0.0693
 1932SOL    HW2 6696   6.190   3.389   3.841 -0.3139  1.4427  1.5203
 1933SOL     OW 6697   3.939   4.133   6.727 -0.3849  0.5986 -0.1414
 1933SOL    HW1 6698   3.868   4.064   6.712  0.1150 -0.2227  1.0936
 1933SOL    HW2 6699   4.029   4.092   6.708 -0.1359  1.1852 -0.2504
 1934SOL     OW 6700   0.419   5.937   4.316  0.3203 -0.4236  0.5436
 1934SOL    HW1 6701   0.477   6.019   4.316 -0.3390  0.0720 -0.6166
 1934SOL    HW2 6702   0.368   5.932   4.401  1.3928 -0.3790  1.2002
 1935SOL     OW 6703   6.146   1.591   2.657 -0.0053 -0.1965 -0.3671
 1935SOL    HW1 6704   6.059   1.570   2.611  0.3922 -1.8501 -0.4392
 1935SOL    HW2 6705   6.186   1.506   2.691  1.5735  0.5542 -0.2953
 1936SOL     OW 6706   1.080   3.015   5.213 -0.5747  0.4972  0.3855
 1936SOL    HW1 6707   1.019   3.012   5.292 -0.8869  1.7920  0.2203
 1936SOL    HW2 6708   1.128   3.103   5.211  1.1986 -0.4279  0.4200
 1937SOL     OW 6709   4.880   2.933   3.211 -0.2302  0.1750  0.1522
 1937SOL    HW1 6710   4.908   2.868   3.140  2.1477 -0.6893  1.7445
 1937SOL    HW2 6711   4.859   3.022   3.169 -2.2891 -1.1999 -1.9277
 1938SOL     OW 6712   4.173   1.767   2.504  0.1231  0.2938  0.2641
 1938SOL    HW1 6713   4.156   1.674   2.538 -0.7389 -0.0645 -1.0604
 1938SOL    HW2 6714   4.243   1.764   2.433 -1.4140  0.2786 -1.3374
 1939SOL     OW 6715   1.808   1.232   5.120 -0.1943  0.2723 -0.2015
 1939SOL    HW1 6716   1.774   1.282   5.200 -0.1497  0.7577 -0.4773
 1939SOL    HW2 6717   1.794   1.134   5.133 -0.2818  0.3558  0.3546
 1940SOL     OW 6718   0.568   1.198   0.252 -0.2288 -0.3412 -0.8916
 1940SOL    HW1 6719   0.584   1.291   0.286  0.6681 -0.3240 -1.3427
 1940SOL    HW2 6720   0.631   1.135   0.297  0.6621 -0.3878 -2.1728
 1941SOL     OW 6721   4.722   6.407   2.420 -0.2462 -1.2655 -0.1631
 1941SOL    HW1 6722   4.644   6.446   2.470 -0.4683 -1.2746 -0.4978
 1941SOL    HW2 6723   4.780   6.482   2.388  0.2224 -1.2826  0.6220
 1942SOL     OW 6724   6.569   5.272   1.862  0.4879  0.5617 -0.0665
 1942SOL    HW1 6725   6.596   5.278   1.958  0.2755 -1.7304  0.1813
 1942SOL    HW2 6726   6.587   5.180   1.827  0.2062  1.2232 -2.1427
 1943SOL     OW 6727   4.278   5.256   1.498  0.7533  0.1401  0.0958
 1943SOL    HW1 6728   4.237   5.340   1.463  0.9740  0.5846  0.8882
 1943SOL    HW2 6729   4.378   5.265   1.497  0.8443 -0.7282 -1.3124
 1944SOL     OW 6730   5.542   6.161   2.265 -0.2842  0.2645  0.0635
 1944SOL    HW1 6731   5.489   6.115   2.194  0.2015  2.6341 -2.0035
 1944SOL    HW2 6732   5.503   6.141   2.355 -2.2555 -1.1426 -1.0370
 1945SOL     OW 6733   1.809   3.922   2.615  0.1403  0.2694  0.1726
 1945SOL    HW1 6734   1.846   3.989   2.550  3.1670 -1.1067  0.3123
 1945SOL    HW2 6735   1.830   3.830   2.582 -2.5368 -0.6302  0.7723
 1946SOL     OW 6736   1.525   4.981   0.085 -0.4703 -0.6801 -0.2571
 1946SOL    HW1 6737   1.572   4.953   0.168 -1.3048  1.1174  0.9061
 1946SOL    HW2 6738   1.523   5.081   0.080 -3.6392 -0.6444 -0.4849
 1947SOL     OW 6739   3.839   1.499   4.051  0.6842  0.8588  0.2316
 1947SOL    HW1 6740   3.920   1.549   4.081  1.2739 -0.3829  0.8248
 1947SOL    HW2 6741   3.857   1.454   3.963 -0.5988  3.4217 -1.4625
 1948SOL     OW 6742   6.411   3.074   6.457  0.5679 -0.6303 -0.2499
 1948SOL    HW1 6743   6.444   3.168   6.443 -0.0697 -0.3684 -0.0270
 1948SOL    HW2 6744   6.312   3.075   6.469  0.4370 -1.4392 -1.1938
 1949SOL     OW 6745   3.025   4.067   5.186 -0.5125  0.1490  0.5352
 1949SOL    HW1 6746   3.009   4.051   5.088 -2.8752  1.4668  0.6192
 1949SOL    HW2 6747   2.996   3.987   5.238  3.3042 -1.7032  0.1174
 1950SOL     OW 6748   3.216   4.098   0.094 -0.3135 -0.0716  0.0984
 1950SOL    HW1 6749   3.249   4.188   0.067 -0.2437  0.5150  1.9886
 1950SOL    HW2 6750   3.237   4.083   0.191 -0.1944 -2.1900 -0.2101
 1951SOL     OW 6751   6.221   2.091   6.062 -0.2637 -0.0557 -0.1008
 1951SOL    HW1 6752   6.179   2.166   6.011 -1.6314 -1.6835 -1.4445
 1951SOL    HW2 6753   6.197   2.100   6.159 -0.1248  1.4021 -0.1721
 1952SOL     OW 6754   3.710   2.876   4.132 -0.1026 -0.0134  0.4547
 1952SOL    HW1 6755   3.754   2.942   4.193 -0.9001  0.2087  0.7923
 1952SOL    HW2 6756   3.728   2.902   4.037 -0.4194  0.6934  0.5846
 1953SOL     OW 6757   2.424   1.613   5.559 -0.0737  0.2566 -0.0914
 1953SOL    HW1 6758   2.474   1.526   5.559 -1.3415 -0.6401 -3.5219
 1953SOL    HW2 6759   2.331   1.598   5.527 -0.6493  2.7656  0.1874
 1954SOL     OW 6760   2.398   1.058   4.853 -0.3105  0.3296  0.1940
 1954SOL    HW1 6761   2.393   1.014   4.763 -0.6631 -1.8038  1.2030
 1954SOL    HW2 6762   2.306   1.079   4.885 -0.4893 -1.9312  1.3963
 1955SOL     OW 6763   6.142   1.404   2.130  0.4873  0.2542  0.3477
 1955SOL    HW1 6764   6.063   1.377   2.075  0.2980  0.5075  0.4851
 1955SOL    HW2 6765   6.226   1.370   2.089  0.3950  0.8384 -0.3607
 1956SOL     OW 6766   3.445   6.889   4.655  0.1385  0.1764  0.2932
 1956SOL    HW1 6767   3.495   6.902   4.741 -2.1925 -0.0022  1.7955
 1956SOL    HW2 6768   3.410   6.978   4.624 -0.5776  0.0175  0.6019
 1957SOL     OW 6769   2.615   6.236   5.409  0.4880  0.1502 -0.0665
 1957SOL    HW1 6770   2.628   6.193   5.319 -1.8444 -2.6529  0.7705
 1957SOL    HW2 6771   2.518   6.234   5.432  1.0844  0.2901  2.7433
 1958SOL     OW 6772   3.317   2.918   4.891 -0.3884  0.1222  0.1784
 1958SOL    HW1 6773   3.256   2.847   4.854  1.3211 -1.3650  0.0735
 1958SOL    HW2 6774   3.387   2.941   4.823 -1.1848  2.3162  0.0333
 1959SOL     OW 6775   3.618   6.348   0.523  0.3464  0.5395 -0.1764
 1959SOL    HW1 6776   3.645   6.298   0.441 -1.6889 -0.3185 -0.3985
 1959SOL    HW2 6777   3.667   6.311   0.602 -0.6162 -1.4511 -0.4300
 1960SOL     OW 6778   5.389   0.541   1.709 -0.3674  0.2078  0.4200
 1960SOL    HW1 6779   5.299   0.583   1.704 -0.1169  0.6801 -0.4210
 1960SOL    HW2 6780   5.391   0.458   1.652 -0.8163 -0.9018  1.9578
 1961SOL     OW 6781   5.744   5.575   4.649 -0.3383 -0.0554 -0.0525
 1961SOL    HW1 6782   5.711   5.596   4.557  1.0552 -2.0842 -1.0919
 1961SOL    HW2 6783   5.723   5.652   4.710 -2.8158  0.6350 -1.6174
 1962SOL     OW 6784   0.234   0.891   3.000 -0.1547  0.0422  0.5648
 1962SOL    HW1 6785   0.149   0.888   3.052 -0.2450 -0.9967  0.3800
 1962SOL    HW2 6786   0.306   0.843   3.052 -0.2400 -0.9885 -0.2339
 1963SOL     OW 6787   3.201   1.160   5.458 -0.0718 -0.3612  0.5256
 1963SOL    HW1 6788   3.280   1.102   5.437 -0.6007 -1.0433  0.4030
 1963SOL    HW2 6789   3.151   1.180   5.373 -0.5007 -0.6227  0.7129
 1964SOL     OW 6790   6.105   2.740   2.005  0.3624  0.0068  0.1025
 1964SOL    HW1 6791   6.198   2.708   2.023  0.6203  1.5331  1.7955
 1964SOL    HW2 6792   6.108   2.827   1.957 -0.2219 -0.1548 -0.2440
 1965SOL     OW 6793   2.546   6.284   3.081  0.0355 -0.0695 -0.2364
 1965SOL    HW1 6794   2.457   6.327   3.098  0.5806  0.8224  0.4295
 1965SOL    HW2 6795   2.593   6.333   3.008 -0.6970 -1.5646 -1.7567
 1966SOL     OW 6796   0.446   0.353   1.075  0.2992 -0.0111 -0.2037
 1966SOL    HW1 6797   0.525   0.334   1.017  0.0746 -0.3492 -0.4019
 1966SOL    HW2 6798   0.373   0.392   1.019  0.0583 -0.3999 -0.1580
 1967SOL     OW 6799   6.854   2.579   4.113  0.5737 -0.3634  0.3133
 1967SOL    HW1 6800   6.832   2.496   4.164  0.9652 -0.4774  0.2954
 1967SOL    HW2 6801   6.781   2.646   4.127 -2.1097 -2.2045 -3.1826
 1968SOL     OW 6802   3.616   6.232   4.880  0.5809  0.0024  0.5115
 1968SOL    HW1 6803   3.689   6.193   4.936  1.2969  0.5639 -0.0002
 1968SOL    HW2 6804   3.657   6.288   4.808 -0.4024  1.4720  1.0548
 1969SOL     OW 6805   6.099   6.975   2.125 -0.6937  0.4079 -0.1840
 1969SOL    HW1 6806   6.024   6.956   2.062 -2.0614  1.1852  1.1404
 1969SOL    HW2 6807   6.094   7.070   2.156  1.0222  0.5674 -0.2563
 1970SOL     OW 6808   4.433   2.433   4.435 -0.5763  0.6804 -0.5471
 1970SOL    HW1 6809   4.356   2.378   4.403 -0.0354 -0.5343  0.1969
 1970SOL    HW2 6810   4.482   2.384   4.507  0.5519  1.6908 -0.5983
 1971SOL     OW 6811   6.391   0.297   5.714  0.4497  0.0312  0.8160
 1971SOL    HW1 6812   6.362   0.393   5.713 -0.5803 -0.2682 -0.3244
 1971SOL    HW2 6813   6.486   0.291   5.685  0.2688  0.6468  0.0575
 1972SOL     OW 6814   2.549   6.184   5.078  0.2362 -0.2444 -0.1083
 1972SOL    HW1 6815   2.503   6.097   5.092  0.2478 -0.3631 -0.7512
 1972SOL    HW2 6816   2.482   6.254   5.056  0.3334 -0.3748 -0.8529
 1973SOL     OW 6817   3.540   2.745   0.552 -0.1332 -0.2010  0.0815
 1973SOL    HW1 6818   3.561   2.675   0.621 -2.1752 -1.7220 -0.7504
 1973SOL    HW2 6819   3.442   2.760   0.549  0.1733  1.9197 -0.5840
 1974SOL     OW 6820   6.988   4.816   4.517 -0.4769 -0.0879 -0.2595
 1974SOL    HW1 6821   6.971   4.753   4.592  0.2708  0.7098  0.6131
 1974SOL    HW2 6822   7.079   4.800   4.479 -0.3894  0.2795 -0.2125
 1975SOL     OW 6823   1.400   1.326   5.129  0.1702 -0.0421  0.1691
 1975SOL    HW1 6824   1.322   1.371   5.086 -0.4145 -0.3378  0.9040
 1975SOL    HW2 6825   1.450   1.392   5.186 -0.1018 -0.0831  0.4550
 1976SOL     OW 6826   4.613   5.269   6.303 -0.0883 -0.1780  0.0496
 1976SOL    HW1 6827   4.682   5.305   6.239  0.6231 -0.3302  0.7100
 1976SOL    HW2 6828   4.557   5.201   6.256 -0.9003  1.1588 -0.9813
 1977SOL     OW 6829   4.615   1.730   4.339  0.7174 -0.0438 -0.3786
 1977SOL    HW1 6830   4.520   1.722   4.370  0.5907  1.4531 -0.3419
 1977SOL    HW2 6831   4.649   1.822   4.359  2.1799 -0.5567 -0.3994
 1978SOL     OW 6832   5.976   1.123   5.240 -0.0102 -0.4807  0.0469
 1978SOL    HW1 6833   5.884   1.111   5.201  0.1059  2.6236 -1.4559
 1978SOL    HW2 6834   5.969   1.123   5.339 -1.1797 -2.9416  0.0433
 1979SOL     OW 6835   0.143   3.921   3.178 -0.6814  0.2424  0.1864
 1979SOL    HW1 6836   0.223   3.957   3.130 -0.4546 -1.2019 -0.5804
 1979SOL    HW2 6837   0.093   3.997   3.220  0.6202  1.2580 -0.0195
 1980SOL     OW 6838   1.972   1.456   1.604 -0.3991  0.0738  0.3049
 1980SOL    HW1 6839   1.890   1.433   1.656  0.2121  1.1793  1.8426
 1980SOL    HW2 6840   1.961   1.547   1.564 -1.5684 -1.4048 -3.1117
 1981SOL     OW 6841   6.104   3.484   4.274 -0.7775  0.1397 -0.1085
 1981SOL    HW1 6842   6.031   3.510   4.210  0.5159  0.8968 -1.3605
 1981SOL    HW2 6843   6.175   3.435   4.224 -0.4622 -0.6638  1.1066
 1982SOL     OW 6844   0.036   4.946   5.489  0.3311 -0.3032  0.1489
 1982SOL    HW1 6845   0.035   4.862   5.434 -1.6605 -0.3938  0.2592
 1982SOL    HW2 6846  -0.021   4.932   5.570  1.4352  0.5794  1.1029
 1983SOL     OW 6847   6.912   4.831   1.137 -0.2773 -0.1565  0.4190
 1983SOL    HW1 6848   6.975   4.867   1.069 -1.7909 -0.2307 -1.0891
 1983SOL    HW2 6849   6.952   4.841   1.228  1.4719  0.6651 -0.3930
 1984SOL     OW 6850   3.007   6.012   5.747  0.6918 -0.2834 -0.3831
 1984SOL    HW1 6851   2.933   6.047   5.689  0.4391 -0.7058 -0.3191
 1984SOL    HW2 6852   3.089   5.999   5.692  1.2780  1.8667 -0.1238
 1985SOL     OW 6853   1.304   5.995   1.859  0.2321 -0.0203  0.1538
 1985SOL    HW1 6854   1.254   5.985   1.945  1.0023  0.0084  0.6143
 1985SOL    HW2 6855   1.386   5.938   1.861  0.1718 -0.1516 -0.6325
 1986SOL     OW 6856   5.960   2.538   1.770  0.4082  0.0978 -0.2987
 1986SOL    HW1 6857   5.991   2.562   1.679  0.1928  0.8412 -0.1779
 1986SOL    HW2 6858   6.007   2.595   1.838  0.7022 -0.5694  0.0740
 1987SOL     OW 6859   0.815   3.714   0.377 -0.5498 -0.0302  0.4982
 1987SOL    HW1 6860   0.888   3.752   0.321 -0.4462 -0.2640  0.4754
 1987SOL    HW2 6861   0.749   3.786   0.398  0.4954  0.5594  1.8409
 1988SOL     OW 6862   5.479   3.112   1.713 -1.1618  0.4520 -0.1510
 1988SOL    HW1 6863   5.569   3.103   1.670 -0.8321  1.1244  0.3741
 1988SOL    HW2 6864   5.418   3.041   1.678 -0.5903  0.3241 -0.9192
 1989SOL     OW 6865   2.847   1.046   4.217  0.6426  0.4056 -0.2358
 1989SOL    HW1 6866   2.922   0.994   4.258 -1.2164 -0.4076  2.4164
 1989SOL    HW2 6867   2.840   1.136   4.262 -0.1957  0.3143 -0.1673
 1990SOL     OW 6868   6.426   6.317   3.548  0.0525 -0.1223 -0.3055
 1990SOL    HW1 6869   6.368   6.340   3.627  1.1641 -0.3072  0.5920
 1990SOL    HW2 6870   6.485   6.395   3.527  2.2043 -1.2176  1.2869
 1991SOL     OW 6871   6.783   6.765   1.645  0.4568 -0.0079  0.7165
 1991SOL    HW1 6872   6.865   6.810   1.679  0.4748 -0.2351  0.9735
 1991SOL    HW2 6873   6.787   6.759   1.545  1.0096 -0.5172  0.7662
 1992SOL     OW 6874   1.583   4.361   5.609 -0.0812 -0.2250  0.2939
 1992SOL    HW1 6875   1.681   4.339   5.601 -0.1340 -0.6670  0.7969
 1992SOL    HW2 6876   1.573   4.460   5.625  0.3161 -0.2480  0.7305
 1993SOL     OW 6877   3.151   3.173   3.596  0.0557  0.0914  0.8965
 1993SOL    HW1 6878   3.086   3.249   3.588  0.3005  0.1896 -0.5704
 1993SOL    HW2 6879   3.190   3.172   3.688  1.2264  2.7674  0.5476
 1994SOL     OW 6880   6.305   1.197   0.529 -0.4548  0.0156  0.6078
 1994SOL    HW1 6881   6.213   1.171   0.558  0.1343 -2.6540  0.2966
 1994SOL    HW2 6882   6.371   1.163   0.595  0.4008  0.9997  0.2786
 1995SOL     OW 6883   4.315   2.295   2.103 -0.0100  0.1509  0.1587
 1995SOL    HW1 6884   4.350   2.330   2.016  0.2286  0.0104  0.1970
 1995SOL    HW2 6885   4.378   2.319   2.176  1.0172 -1.7703 -0.0453
 1996SOL     OW 6886   1.244   0.620   5.817  0.4218 -0.3078 -0.2911
 1996SOL    HW1 6887   1.236   0.521   5.806  0.7666 -0.0785 -3.7218
 1996SOL    HW2 6888   1.338   0.642   5.842 -0.2009 -0.8641  3.0702
 1997SOL     OW 6889   6.291   0.270   4.824 -0.5991  0.5233  0.3103
 1997SOL    HW1 6890   6.378   0.290   4.868 -0.6346  2.2452 -0.3400
 1997SOL    HW2 6891   6.223   0.247   4.894  0.3100 -0.7137  0.8246
 1998SOL     OW 6892   3.316   6.064   4.458 -0.3205  0.2227  0.0934
 1998SOL    HW1 6893   3.326   6.096   4.552 -0.7759  0.7275 -0.0250
 1998SOL    HW2 6894   3.330   6.141   4.395  1.5145 -0.4035 -0.3309
 1999SOL     OW 6895   2.616   0.762   1.772 -0.1542 -0.0439 -0.0266
 1999SOL    HW1 6896   2.522   0.738   1.747 -0.4900 -0.1406  1.2644
 1999SOL    HW2 6897   2.616   0.847   1.825  0.3028 -0.8279  1.2827
 2000SOL     OW 6898   3.020   1.358   6.847 -0.5664 -0.0568 -0.4319
 2000SOL    HW1 6899   3.063   1.439   6.886  0.2095 -0.4785 -0.3862
 2000SOL    HW2 6900   2.960   1.316   6.915 -1.1260  0.5697 -0.5178
 2001SOL     OW 6901   2.809   0.934   1.587 -0.3928 -0.0733  0.3586
 2001SOL    HW1 6902   2.758   1.005   1.540 -0.6265 -0.2708  0.3133
 2001SOL    HW2 6903   2.747   0.863   1.619 -0.1451 -0.3543  0.2319
 2002SOL     OW 6904   2.399   5.374   5.426 -0.1756  0.2695  1.0723
 2002SOL    HW1 6905   2.345   5.351   5.344  1.3388 -0.5153  0.2549
 2002SOL    HW2 6906   2.342   5.426   5.489 -2.5258 -2.0817  1.1069
 2003SOL     OW 6907   5.813   4.045   3.327  0.2537  0.4005 -0.0744
 2003SOL    HW1 6908   5.775   4.109   3.261  1.1313 -0.5024 -1.5377
 2003SOL    HW2 6909   5.792   3.951   3.298 -0.1042 -0.0197  1.4372
 2004SOL     OW 6910   4.346   6.780   0.263 -0.4639 -0.1098 -0.0779
 2004SOL    HW1 6911   4.430   6.760   0.212 -1.4692 -0.6431 -1.5718
 2004SOL    HW2 6912   4.314   6.872   0.240 -0.7690 -0.2476 -0.2105
 2005SOL     OW 6913   2.409   5.111   0.081 -0.3515  0.0879 -0.6935
 2005SOL    HW1 6914   2.380   5.030   0.133 -0.5622  0.9720  0.6329
 2005SOL    HW2 6915   2.341   5.131   0.010 -1.1381  0.0285  0.0189
 2006SOL     OW 6916   5.320   1.892   0.928  0.3497  0.2055  0.2087
 2006SOL    HW1 6917   5.299   1.795   0.926 -0.9356  0.4734 -0.4048
 2006SOL    HW2 6918   5.388   1.913   0.859 -2.4111  0.3432 -2.7057
 2007SOL     OW 6919   6.930   5.548   1.285 -0.2754 -0.2820 -0.2796
 2007SOL    HW1 6920   6.889   5.629   1.327  0.8948  1.0572 -1.6092
 2007SOL    HW2 6921   6.908   5.467   1.340  0.2881  1.2064  2.2982
 2008SOL     OW 6922   0.570   4.787   5.830  0.1464 -0.2016  0.6595
 2008SOL    HW1 6923   0.604   4.781   5.924 -0.7822 -0.6702  0.9721
 2008SOL    HW2 6924   0.608   4.711   5.777  0.3672 -0.1546  0.7484
 2009SOL     OW 6925   6.629   0.296   5.608 -0.3502  0.5226 -0.2027
 2009SOL    HW1 6926   6.639   0.320   5.511  0.9792 -2.7702 -1.0294
 2009SOL    HW2 6927   6.719   0.291   5.650 -0.4999 -2.1920 -0.0266
 2010SOL     OW 6928   3.926   0.437   2.219 -0.3691 -0.4700  0.2326
 2010SOL    HW1 6929   3.870   0.355   2.234  0.6157 -1.1328  0.3927
 2010SOL    HW2 6930   3.866   0.517   2.212 -1.2980 -1.0670  1.0003
 2011SOL     OW 6931   6.423   1.021   5.020  0.5519  0.0914 -0.1662
 2011SOL    HW1 6932   6.511   1.052   5.057  0.4365 -0.6427  0.7437
 2011SOL    HW2 6933   6.419   0.921   5.021  0.1586  0.0783 -1.2987
 2012SOL     OW 6934   6.309   4.999   2.504  0.4367 -0.2459 -0.4832
 2012SOL    HW1 6935   6.283   5.080   2.451 -2.0463 -1.6909 -1.6676
 2012SOL    HW2 6936   6.242   4.984   2.577  0.4684 -1.5780 -0.7076
 2013SOL     OW 6937   3.776   2.087   2.661 -0.1052 -0.1286 -0.4741
 2013SOL    HW1 6938   3.845   2.063   2.592 -0.9638 -0.4271 -1.2554
 2013SOL    HW2 6939   3.691   2.114   2.615  0.0967  2.2329  0.4260
 2014SOL     OW 6940   4.881   6.055   3.020  0.3131 -0.3614  0.2347
 2014SOL    HW1 6941   4.911   5.993   2.948 -1.9235 -3.3174  1.6588
 2014SOL    HW2 6942   4.815   6.121   2.982  2.8768  1.4885 -1.3330
 2015SOL     OW 6943   3.248   5.545   0.547  0.3051 -0.2834 -0.2798
 2015SOL    HW1 6944   3.259   5.455   0.505 -0.2942 -1.3028  1.6451
 2015SOL    HW2 6945   3.186   5.538   0.625  2.0036  1.3344  1.3146
 2016SOL     OW 6946   3.901   6.419   5.145 -0.1701  0.4239  0.3133
 2016SOL    HW1 6947   3.955   6.367   5.079 -0.8740 -0.8725  0.7279
 2016SOL    HW2 6948   3.945   6.508   5.161  0.2729  0.5756 -1.5134
 2017SOL     OW 6949   1.764   4.673   1.998 -0.9312 -0.1142  0.0005
 2017SOL    HW1 6950   1.854   4.694   2.038 -0.5306 -1.3186 -0.2116
 2017SOL    HW2 6951   1.743   4.739   1.927 -1.1468  1.3983  1.4079
 2018SOL     OW 6952   0.201   3.403   4.051  0.1090 -0.5794 -0.3066
 2018SOL    HW1 6953   0.131   3.350   4.099  0.5458 -0.9765 -0.0997
 2018SOL    HW2 6954   0.198   3.498   4.083  0.2707 -0.7944  0.3823
 2019SOL     OW 6955   0.233   2.072   1.343  0.0040  0.0537 -0.5478
 2019SOL    HW1 6956   0.146   2.054   1.297  0.3573 -1.5105 -0.6716
 2019SOL    HW2 6957   0.292   1.991   1.335  0.9174  0.5567  0.7666
 2020SOL     OW 6958   2.949   5.278   3.751 -0.6514 -0.0095 -0.4680
 2020SOL    HW1 6959   2.849   5.277   3.753 -0.6521  0.3982  2.0811
 2020SOL    HW2 6960   2.984   5.189   3.780 -0.2851  0.2015 -0.2524
 2021SOL     OW 6961   1.896   0.268   2.172 -0.0699  0.2941  0.1749
 2021SOL    HW1 6962   1.816   0.307   2.127 -0.9797 -2.3077 -0.6109
 2021SOL    HW2 6963   1.977   0.286   2.117 -0.8925 -1.2007 -1.6465
 2022SOL     OW 6964   4.590   3.310   1.629  0.5654 -0.1092 -0.2296
 2022SOL    HW1 6965   4.569   3.212   1.622  1.1891 -0.3324  0.8164
 2022SOL    HW2 6966   4.505   3.362   1.624  0.3547 -0.5543 -2.6253
 2023SOL     OW 6967   6.000   1.724   6.514  0.3082  0.3069  0.0488
 2023SOL    HW1 6968   6.043   1.637   6.490  1.1799  0.4747  0.9600
 2023SOL    HW2 6969   6.052   1.768   6.587 -0.7095  1.1105  0.3079
 2024SOL     OW 6970   3.797   5.496   3.019  0.2534  0.6489 -0.1537
 2024SOL    HW1 6971   3.851   5.444   2.952  0.6259  1.2912 -0.3613
 2024SOL    HW2 6972   3.702   5.467   3.014  0.6686 -0.9983  0.7016
 2025SOL     OW 6973   0.308   2.791   1.165  0.2594  0.2131  0.1469
 2025SOL    HW1 6974   0.288   2.765   1.070  1.8529 -1.8777  0.3220
 2025SOL    HW2 6975   0.222   2.809   1.213 -0.7377 -1.1428 -1.0302
 2026SOL     OW 6976   2.818   2.838   6.086 -0.3074 -0.6666 -0.0361
 2026SOL    HW1 6977   2.752   2.861   6.014  0.2817 -0.8700 -0.6455
 2026SOL    HW2 6978   2.798   2.893   6.167 -0.7360 -0.1471 -0.4811
 2027SOL     OW 6979   6.176   0.629   1.713  0.5057 -0.1581 -0.0897
 2027SOL    HW1 6980   6.266   0.607   1.750  0.2184 -2.1692 -0.4793
 2027SOL    HW2 6981   6.181   0.637   1.614  0.1874 -0.7456 -0.1588
 2028SOL     OW 6982   3.150   4.645   6.339 -0.0744 -0.2877  0.1980
 2028SOL    HW1 6983   3.084   4.588   6.292 -1.1494 -0.5971  2.0026
 2028SOL    HW2 6984   3.157   4.734   6.292 -0.7738 -0.7187 -0.7504
 2029SOL     OW 6985   1.616   6.494   1.094 -0.3140  0.0974 -0.5104
 2029SOL    HW1 6986   1.681   6.484   1.019  1.4364 -0.2874  0.9639
 2029SOL    HW2 6987   1.547   6.422   1.089  0.7871 -0.9731 -0.8136
 2030SOL     OW 6988   3.256   2.092   2.918 -0.1260 -0.3209 -0.2663
 2030SOL    HW1 6989   3.320   2.024   2.881  1.2957 -0.0238  1.5035
 2030SOL    HW2 6990   3.262   2.091   3.018 -1.1455  1.4101 -0.1653
 2031SOL     OW 6991   6.515   5.474   2.679 -0.2095  0.2454 -0.4350
 2031SOL    HW1 6992   6.474   5.544   2.738 -0.8261 -0.2478 -0.2650
 2031SOL    HW2 6993   6.567   5.518   2.606  2.0459  0.9174  1.4375
 2032SOL     OW 6994   5.030   0.071   2.592 -0.5085  0.2123  0.1965
 2032SOL    HW1 6995   5.110   0.069   2.532  0.4181  1.2276  1.3345
 2032SOL    HW2 6996   4.990   0.163   2.592 -1.3377 -0.1395  0.0767
 2033SOL     OW 6997   1.789   3.606   0.860 -0.5252  0.1502 -0.1010
 2033SOL    HW1 6998   1.836   3.518   0.856 -0.9043 -0.0303 -0.6703
 2033SOL    HW2 6999   1.770   3.630   0.955 -1.9979 -1.2261 -0.0149
 2034SOL     OW 7000   1.774   3.523   4.145 -0.4576  0.5062  0.3144
 2034SOL    HW1 7001   1.726   3.582   4.080 -0.8807 -0.2467 -0.0696
 2034SOL    HW2 7002   1.869   3.510   4.116  0.0576  2.0901  1.1339
 2035SOL     OW 7003   2.105   0.995   3.247 -0.1019  0.5614 -0.0675
 2035SOL    HW1 7004   2.140   0.903   3.266  0.9964  0.9809  0.0473
 2035SOL    HW2 7005   2.024   1.012   3.303 -0.2325 -0.2887  0.0159
 2036SOL     OW 7006   0.661   5.900   2.119  0.1074  0.2795 -0.2896
 2036SOL    HW1 7007   0.634   5.849   2.200 -0.5094  0.5143 -0.3445
 2036SOL    HW2 7008   0.630   5.853   2.036  1.5892 -0.4788 -0.4521
 2037SOL     OW 7009   2.250   3.551   6.046  0.3580 -0.2332 -0.3831
 2037SOL    HW1 7010   2.202   3.463   6.050 -0.3100  0.1594  0.7599
 2037SOL    HW2 7011   2.230   3.596   5.959 -1.0548 -0.2506 -0.0886
 2038SOL     OW 7012   1.745   6.648   3.026 -0.0391  0.4765 -0.6520
 2038SOL    HW1 7013   1.653   6.622   3.059  0.3957 -0.3682 -0.0488
 2038SOL    HW2 7014   1.749   6.747   3.014 -0.2252  0.8781  1.9349
 2039SOL     OW 7015   1.274   5.450   1.204  0.1125 -0.0839 -0.1268
 2039SOL    HW1 7016   1.316   5.420   1.289  0.7713 -1.8306 -1.0068
 2039SOL    HW2 7017   1.335   5.513   1.157  0.7130 -0.7560 -0.2732
 2040SOL     OW 7018   3.470   3.177   5.349  0.4442 -0.4647 -0.1398
 2040SOL    HW1 7019   3.463   3.116   5.270  0.4544  0.1569 -0.6235
 2040SOL    HW2 7020   3.480   3.271   5.318 -3.7399  0.3738  0.5365
 2041SOL     OW 7021   4.437   5.596   1.044  0.1880 -0.2929 -0.3342
 2041SOL    HW1 7022   4.360   5.542   1.009  1.4416 -3.6133  1.5820
 2041SOL    HW2 7023   4.496   5.622   0.968 -0.9996 -0.7055 -1.4386
 2042SOL     OW 7024   3.935   1.513   5.232 -0.7028 -0.2986 -0.6101
 2042SOL    HW1 7025   3.934   1.597   5.178 -1.7782  0.5175  0.6225
 2042SOL    HW2 7026   3.955   1.435   5.172  0.0913  0.7924 -1.8067
 2043SOL     OW 7027   4.623   5.506   3.126  0.0454 -0.3588 -0.2309
 2043SOL    HW1 7028   4.665   5.448   3.056 -1.1756 -0.7553 -0.6662
 2043SOL    HW2 7029   4.568   5.577   3.081 -0.0540 -0.0778  0.3278
 2044SOL     OW 7030   6.566   2.567   0.764 -0.3006 -0.7893  0.0108
 2044SOL    HW1 7031   6.582   2.567   0.862 -1.9719 -0.1563  0.3252
 2044SOL    HW2 7032   6.643   2.609   0.717 -0.6379  1.4294  1.3095
 2045SOL     OW 7033   3.400   5.141   4.794 -0.4177 -0.6614  0.0532
 2045SOL    HW1 7034   3.474   5.092   4.747  1.7980  0.6931  1.9609
 2045SOL    HW2 7035   3.362   5.082   4.865  0.9540 -0.3431  1.0907
 2046SOL     OW 7036   4.405   1.433   5.610 -0.0144  0.0616 -0.0286
 2046SOL    HW1 7037   4.390   1.401   5.517 -1.2009 -0.3246  0.2874
 2046SOL    HW2 7038   4.452   1.522   5.607  0.8430 -0.4019 -0.9599
 2047SOL     OW 7039   5.000   2.195   1.085 -0.0196 -0.3048 -0.2173
 2047SOL    HW1 7040   5.081   2.232   1.131 -0.2456 -2.3766  2.0448
 2047SOL    HW2 7041   5.025   2.112   1.035 -0.2278  0.7160 -2.1273
 2048SOL     OW 7042   3.356   6.166   4.706  0.1669  0.1403 -0.0570
 2048SOL    HW1 7043   3.376   6.247   4.761  3.0122  1.1147 -2.2592
 2048SOL    HW2 7044   3.390   6.085   4.753  1.6970  0.8404  0.1269
 2049SOL     OW 7045   6.382   5.992   5.057 -0.4856  0.1587  0.2044
 2049SOL    HW1 7046   6.434   6.068   5.018  0.3046  1.3292  3.2458
 2049SOL    HW2 7047   6.392   5.912   4.998  3.9238  0.6191 -0.0238
 2050SOL     OW 7048   6.180   0.599   3.300  0.0727 -0.3393  0.3769
 2050SOL    HW1 7049   6.263   0.556   3.264 -0.6998 -0.4217 -1.4251
 2050SOL    HW2 7050   6.203   0.653   3.381  1.8747 -0.3800 -0.0576
 2051SOL     OW 7051   6.346   6.119   0.632 -0.3007  0.0337  0.2613
 2051SOL    HW1 7052   6.414   6.062   0.589 -1.3294 -1.5409  0.6456
 2051SOL    HW2 7053   6.307   6.182   0.565 -0.2460 -0.7836 -0.5483
 2052SOL     OW 7054   6.863   3.280   6.732 -0.1157  0.2822  0.8351
 2052SOL    HW1 7055   6.942   3.269   6.672 -0.6496 -0.5510  0.2614
 2052SOL    HW2 7056   6.814   3.364   6.707 -0.1768  0.0854  0.2782
 2053SOL     OW 7057   4.076   2.498   0.560 -0.7714 -0.1759  0.3184
 2053SOL    HW1 7058   4.158   2.441   0.556 -0.7690 -0.0994 -1.8481
 2053SOL    HW2 7059   4.066   2.535   0.652  0.5928 -1.6664  1.1123
 2054SOL     OW 7060   1.316   3.845   1.622  0.2706  0.7039 -0.0822
 2054SOL    HW1 7061   1.299   3.848   1.524 -0.5352 -0.5913 -0.0048
 2054SOL    HW2 7062   1.281   3.929   1.664 -0.1038  0.9165 -0.7963
 2055SOL     OW 7063   6.651   0.451   4.549  0.0140 -0.0996 -0.7958
 2055SOL    HW1 7064   6.735   0.494   4.515  0.0557  0.5763  0.1203
 2055SOL    HW2 7065   6.641   0.360   4.508  1.7076 -0.6084 -0.1764
 2056SOL     OW 7066   0.509   1.144   0.721  0.1842  0.0217 -0.0934
 2056SOL    HW1 7067   0.542   1.171   0.631 -1.1901 -1.6115 -1.1439
 2056SOL    HW2 7068   0.467   1.222   0.766 -0.7320  0.4499 -1.6358
 2057SOL     OW 7069   5.283   3.230   4.046 -0.1415  0.1520 -0.1214
 2057SOL    HW1 7070   5.208   3.229   4.112 -0.5831  1.0787 -0.5970
 2057SOL    HW2 7071   5.256   3.283   3.965 -0.3059 -2.3761 -1.8745
 2058SOL     OW 7072   6.732   1.845   2.378  0.0900 -0.5958  0.1224
 2058SOL    HW1 7073   6.813   1.787   2.365  1.9525  2.0184 -0.9096
 2058SOL    HW2 7074   6.706   1.886   2.291 -0.5802  0.7990  0.9427
 2059SOL     OW 7075   2.991   6.369   0.396  0.0776  0.5084 -0.2164
 2059SOL    HW1 7076   3.081   6.371   0.351  0.6184  0.1837  0.8221
 2059SOL    HW2 7077   2.995   6.423   0.481  0.2937 -2.1715  1.5876
 2060SOL     OW 7078   0.680   4.482   3.577  0.1309 -0.2276  0.3779
 2060SOL    HW1 7079   0.755   4.443   3.631 -0.2781  1.2807  2.1319
 2060SOL    HW2 7080   0.693   4.581   3.569 -1.0574 -0.1188 -0.3139
 2061SOL     OW 7081   0.348   0.949   0.652 -0.1765 -0.0202 -0.2587
 2061SOL    HW1 7082   0.404   1.031   0.663  0.1187 -0.1596 -0.7054
 2061SOL    HW2 7083   0.334   0.930   0.555 -2.4655  0.9918 -0.1834
 2062SOL     OW 7084   4.454   2.185   2.893 -0.0321  0.4439  0.0502
 2062SOL    HW1 7085   4.409   2.179   2.803 -0.0376  1.7839 -0.0568
 2062SOL    HW2 7086   4.545   2.223   2.882 -0.3630  1.4617  0.7028
 2063SOL     OW 7087   3.536   2.706   0.849 -0.0901 -0.1954 -0.5055
 2063SOL    HW1 7088   3.583   2.714   0.937 -1.2285 -0.1110  0.1184
 2063SOL    HW2 7089   3.534   2.611   0.821 -1.1759 -0.4726  0.4142
 2064SOL     OW 7090   6.734   0.381   1.904 -0.6374  0.8679 -0.7545
 2064SOL    HW1 7091   6.706   0.380   1.808 -0.7194 -0.1739 -0.7316
 2064SOL    HW2 7092   6.667   0.331   1.959 -0.2715  0.9316 -0.2359
 2065SOL     OW 7093   0.920   3.857   2.704 -0.0177  0.4581  0.0199
 2065SOL    HW1 7094   0.983   3.905   2.642 -0.2711  0.5617 -0.1562
 2065SOL    HW2 7095   0.921   3.759   2.683 -0.5607  0.5671 -0.5575
 2066SOL     OW 7096   1.607   0.367   2.537 -0.2371 -0.3177 -0.0065
 2066SOL    HW1 7097   1.694   0.378   2.488 -0.8346  0.1085 -1.0031
 2066SOL    HW2 7098   1.609   0.281   2.588  1.6613  0.7716  1.9223
 2067SOL     OW 7099   6.953   5.892   6.752  0.3882  0.2455  0.1056
 2067SOL    HW1 7100   6.975   5.796   6.734  1.0646  0.2486  0.8902
 2067SOL    HW2 7101   6.892   5.926   6.680 -1.1003 -1.1939  0.6151
 2068SOL     OW 7102   3.095   3.194   4.855  0.0082  0.2549  0.4555
 2068SOL    HW1 7103   3.135   3.121   4.800  0.5109 -1.3919  2.8653
 2068SOL    HW2 7104   3.160   3.270   4.862  0.4292 -0.0363 -0.2011
 2069SOL     OW 7105   2.476   2.389   0.934  0.0987 -0.3296  0.3210
 2069SOL    HW1 7106   2.571   2.369   0.957  0.7163 -0.1753 -1.8121
 2069SOL    HW2 7107   2.460   2.487   0.941 -0.1392 -0.4436  1.4414
 2070SOL     OW 7108   0.581   3.089   3.173 -0.0752 -0.0399 -0.2991
 2070SOL    HW1 7109   0.573   3.185   3.200 -1.0255 -0.3874  0.7078
 2070SOL    HW2 7110   0.672   3.074   3.132  0.5487  1.0163  0.6292
 2071SOL     OW 7111   1.773   0.046   6.228 -0.2964  0.1094 -0.2218
 2071SOL    HW1 7112   1.809   0.136   6.201 -0.5951  0.2985  0.0129
 2071SOL    HW2 7113   1.822   0.013   6.309  0.3709 -0.3085 -0.7788
 2072SOL     OW 7114   6.007   4.704   3.558  0.1591  0.1487  0.3814
 2072SOL    HW1 7115   6.068   4.763   3.611 -0.9333  0.8174  0.9351
 2072SOL    HW2 7116   6.000   4.615   3.601  0.6924  0.0893  0.3466
 2073SOL     OW 7117   5.301   0.684   5.265 -0.0642 -0.0947 -0.4216
 2073SOL    HW1 7118   5.329   0.709   5.172  0.1674  1.9230  0.1420
 2073SOL    HW2 7119   5.371   0.714   5.330 -0.2892 -1.3544  0.4337
 2074SOL     OW 7120   3.647   0.914   1.881 -0.1784 -0.4437 -0.2409
 2074SOL    HW1 7121   3.738   0.903   1.923 -0.1105  0.5514 -0.1063
 2074SOL    HW2 7122   3.577   0.911   1.953 -0.0805  1.0061 -0.0618
 2075SOL     OW 7123   3.199   4.124   5.952 -1.1859 -0.2316  0.0889
 2075SOL    HW1 7124   3.156   4.136   6.042 -1.1463 -1.4637  0.2854
 2075SOL    HW2 7125   3.276   4.061   5.960  0.0522  1.1560 -0.4567
 2076SOL     OW 7126   5.382   5.382   6.341 -0.2840  0.9543 -0.2651
 2076SOL    HW1 7127   5.347   5.383   6.435 -2.0695  0.7055 -0.8888
 2076SOL    HW2 7128   5.481   5.369   6.342 -0.4316 -0.3917  1.5503
 2077SOL     OW 7129   3.473   2.861   6.613  0.2299 -0.2082  0.4323
 2077SOL    HW1 7130   3.562   2.817   6.623  0.2759 -0.3436 -0.4329
 2077SOL    HW2 7131   3.423   2.819   6.537 -0.7655 -0.4354  1.1838
 2078SOL     OW 7132   6.055   6.538   3.504 -0.0798  0.2859  0.5775
 2078SOL    HW1 7133   5.993   6.509   3.578  0.1272 -1.5576  0.0776
 2078SOL    HW2 7134   6.123   6.601   3.541 -0.7452  0.3855  1.6828
 2079SOL     OW 7135   6.752   5.118   3.184  0.7238  0.2103 -0.3002
 2079SOL    HW1 7136   6.760   5.152   3.090 -0.5275 -0.9122 -0.8340
 2079SOL    HW2 7137   6.656   5.105   3.207  1.0487 -0.1466  0.9271
 2080SOL     OW 7138   3.809   0.561   3.316 -0.4064  0.1875 -0.5009
 2080SOL    HW1 7139   3.741   0.619   3.272 -0.2447  0.6536 -0.1472
 2080SOL    HW2 7140   3.870   0.618   3.372  0.2226 -0.2293 -0.7474
 2081SOL     OW 7141   6.114   6.357   4.230  0.5155 -0.6158 -0.2622
 2081SOL    HW1 7142   6.143   6.355   4.134  0.3659 -2.2660 -0.3009
 2081SOL    HW2 7143   6.172   6.420   4.281  1.8727 -1.1675 -1.0621
 2082SOL     OW 7144   4.303   1.575   1.939  0.5217 -0.6480 -0.6436
 2082SOL    HW1 7145   4.238   1.570   1.864 -0.2171 -2.0750  0.0519
 2082SOL    HW2 7146   4.301   1.489   1.991  2.3283 -0.3926 -0.0767
 2083SOL     OW 7147   3.551   3.902   6.404 -0.0855  0.2596 -0.1979
 2083SOL    HW1 7148   3.603   3.817   6.407 -1.7569 -0.8543 -1.3773
 2083SOL    HW2 7149   3.569   3.949   6.317 -1.9592 -0.7918 -1.2071
 2084SOL     OW 7150   6.382   2.156   3.661 -0.4054  0.3289 -0.3616
 2084SOL    HW1 7151   6.337   2.198   3.740 -1.6797  0.9818 -1.4082
 2084SOL    HW2 7152   6.315   2.107   3.606  0.5365 -0.4479 -0.8671
 2085SOL     OW 7153   5.818   0.086   1.585 -0.6902 -0.4742 -0.2009
 2085SOL    HW1 7154   5.888   0.023   1.552  1.5053  0.2580  2.6441
 2085SOL    HW2 7155   5.842   0.179   1.557 -1.2922 -0.3525 -0.3283
 2086SOL     OW 7156   3.398   0.487   1.359 -1.0539  0.4505  0.3727
 2086SOL    HW1 7157   3.328   0.503   1.289 -1.0146 -0.4738  0.1142
 2086SOL    HW2 7158   3.401   0.565   1.421 -0.7308  1.5350 -0.9537
 2087SOL     OW 7159   5.545   6.176   4.576 -0.3406 -0.1647  0.0696
 2087SOL    HW1 7160   5.639   6.146   4.591 -0.2487 -0.5614 -1.2140
 2087SOL    HW2 7161   5.509   6.215   4.661  1.3215  0.9287  0.3308
 2088SOL     OW 7162   3.194   6.642   1.208  0.6499 -0.5928  0.2317
 2088SOL    HW1 7163   3.172   6.545   1.213  0.7163 -0.6595 -0.5521
 2088SOL    HW2 7164   3.153   6.681   1.125 -0.3742  0.3226  1.1334
 2089SOL     OW 7165   1.006   1.490   6.074  0.1186 -0.0128  0.0063
 2089SOL    HW1 7166   0.919   1.532   6.051  0.1914  1.4040  2.0302
 2089SOL    HW2 7167   1.078   1.529   6.017 -0.4259 -0.5078 -1.0337
 2090SOL     OW 7168   3.287   2.899   4.364  0.2401 -0.0573  0.2799
 2090SOL    HW1 7169   3.372   2.854   4.391 -0.2205 -0.6267  0.8042
 2090SOL    HW2 7170   3.252   2.953   4.440 -0.4809 -0.7723  0.4620
 2091SOL     OW 7171   0.843   4.360   0.835 -0.7333 -0.4434  0.2098
 2091SOL    HW1 7172   0.797   4.446   0.812 -2.6114 -1.6130 -0.6182
 2091SOL    HW2 7173   0.913   4.340   0.767 -1.3109 -0.2999 -0.4336
 2092SOL     OW 7174   0.161   0.488   0.639 -0.5053 -0.5170  0.1959
 2092SOL    HW1 7175   0.082   0.493   0.578  0.3761  3.1782 -0.8625
 2092SOL    HW2 7176   0.241   0.456   0.588 -0.0988  1.1494 -0.2382
 2093SOL     OW 7177   5.937   0.543   0.994  0.0594 -0.1232  0.6385
 2093SOL    HW1 7178   5.880   0.617   1.028  2.3058  0.9801  2.2601
 2093SOL    HW2 7179   5.904   0.456   1.030  0.2131  0.6446  2.7392
 2094SOL     OW 7180   6.134   3.322   1.434  0.0208 -0.4943  0.4862
 2094SOL    HW1 7181   6.205   3.379   1.392  1.2346 -1.8127  0.6452
 2094SOL    HW2 7182   6.044   3.363   1.419  0.8495  1.5371  0.7768
 2095SOL     OW 7183   5.647   5.799   4.786  0.1085  0.3005  0.1431
 2095SOL    HW1 7184   5.728   5.855   4.801 -0.3625  0.6994  1.2841
 2095SOL    HW2 7185   5.568   5.859   4.768 -0.3297  0.0080  1.0434
 2096SOL     OW 7186   5.456   5.556   2.480 -0.2438 -0.6245 -0.0602
 2096SOL    HW1 7187   5.470   5.594   2.572 -0.1912  1.6401 -0.9554
 2096SOL    HW2 7188   5.364   5.519   2.474 -0.2156 -0.9083  0.9150
 2097SOL     OW 7189   1.290   2.295   4.529  0.1697  0.3762 -0.2003
 2097SOL    HW1 7190   1.353   2.365   4.565 -0.2679  0.8464 -0.3319
 2097SOL    HW2 7191   1.196   2.319   4.554  0.0659 -0.5005  0.2867
 2098SOL     OW 7192   3.949   1.229   4.741 -0.5783  0.4886 -0.0207
 2098SOL    HW1 7193   4.005   1.301   4.700  0.0888 -1.3762 -2.6076
 2098SOL    HW2 7194   4.007   1.150   4.762 -1.3893  0.4168  2.2264
 2099SOL     OW 7195   3.367   2.189   5.260 -0.3027  0.1754  0.7911
 2099SOL    HW1 7196   3.302   2.255   5.222 -0.3943  0.2009  0.9889
 2099SOL    HW2 7197   3.435   2.238   5.315  0.9400  0.3495 -0.8416
 2100SOL     OW 7198   5.845   3.671   4.335 -0.6377  0.4428  0.2288
 2100SOL    HW1 7199   5.832   3.678   4.434 -2.3387  1.7582 -0.0322
 2100SOL    HW2 7200   5.842   3.762   4.294  2.6076  0.2051 -0.8228
 2101SOL     OW 7201   5.060   6.092   1.547 -0.5522  0.7352  0.0675
 2101SOL    HW1 7202   5.111   6.087   1.461 -0.5915 -3.2525  0.0739
 2101SOL    HW2 7203   5.122   6.074   1.624 -1.2336 -0.2610  0.4163
 2102SOL     OW 7204   6.829   4.754   0.886 -0.1808  0.2288  0.3502
 2102SOL    HW1 7205   6.740   4.711   0.867 -0.1763  0.1565  0.4941
 2102SOL    HW2 7206   6.842   4.762   0.985  0.3242 -0.4994  0.3496
 2103SOL     OW 7207   4.076   2.613   6.540  0.2467 -0.0131 -0.3736
 2103SOL    HW1 7208   4.153   2.671   6.566  0.7068 -0.5230 -0.5758
 2103SOL    HW2 7209   4.074   2.531   6.597 -1.5790  1.0850  1.2843
 2104SOL     OW 7210   1.236   4.928   0.744  0.4151 -0.0072  0.1984
 2104SOL    HW1 7211   1.170   4.855   0.761 -1.2387  1.1139 -1.0786
 2104SOL    HW2 7212   1.237   4.992   0.821 -0.5862  0.3675 -0.0800
 2105SOL     OW 7213   3.779   0.744   1.205 -0.0174  0.0070 -0.2662
 2105SOL    HW1 7214   3.686   0.780   1.213  0.0759  0.0944  0.5160
 2105SOL    HW2 7215   3.811   0.714   1.295  0.2453 -1.2032 -0.7479
 2106SOL     OW 7216   5.765   0.171   5.494 -0.0427 -0.2400 -0.2953
 2106SOL    HW1 7217   5.857   0.131   5.486  0.0134 -0.9745  2.6473
 2106SOL    HW2 7218   5.768   0.267   5.466  1.5824 -0.3015 -0.4543
 2107SOL     OW 7219   2.999   0.232   1.038  0.1299  0.0739 -0.1161
 2107SOL    HW1 7220   2.985   0.155   1.100  0.2821 -0.0101 -0.1858
 2107SOL    HW2 7221   3.070   0.209   0.972 -0.4127 -0.0437 -0.6651
 2108SOL     OW 7222   5.834   3.281   6.939  0.5615  0.1288  0.2628
 2108SOL    HW1 7223   5.845   3.236   7.028 -0.1191 -0.6053 -0.0223
 2108SOL    HW2 7224   5.923   3.286   6.893  0.9470  0.6468  1.0386
 2109SOL     OW 7225   4.019   5.215   2.133 -0.2858 -0.4620  0.0421
 2109SOL    HW1 7226   3.921   5.228   2.145 -0.0343  1.7280  0.1779
 2109SOL    HW2 7227   4.036   5.175   2.043 -1.2492  0.6284 -0.6553
 2110SOL     OW 7228   0.423   6.187   5.613  0.4551  0.5553  0.2276
 2110SOL    HW1 7229   0.328   6.214   5.595 -0.4351 -0.2075  3.1160
 2110SOL    HW2 7230   0.439   6.190   5.712  1.7895 -4.3330  0.4319
 2111SOL     OW 7231   2.342   1.027   2.472  0.1989 -0.0131 -0.6251
 2111SOL    HW1 7232   2.297   1.072   2.395  0.5582  2.0726  0.3206
 2111SOL    HW2 7233   2.277   1.015   2.546  0.3899 -0.0094 -0.4560
 2112SOL     OW 7234   5.886   3.910   1.489 -0.5985 -0.3656  0.0118
 2112SOL    HW1 7235   5.969   3.855   1.492  0.0940  0.6804  1.3445
 2112SOL    HW2 7236   5.836   3.901   1.575 -2.5590 -1.9161 -1.1971
 2113SOL     OW 7237   6.926   1.888   6.235  0.7751  0.3904 -0.5564
 2113SOL    HW1 7238   6.877   1.974   6.248  1.2104  0.6267 -0.4565
 2113SOL    HW2 7239   6.882   1.816   6.287  1.6359  1.0017  1.0797
 2114SOL     OW 7240   1.351   2.487   6.028  0.0552 -0.0811  0.0022
 2114SOL    HW1 7241   1.381   2.442   5.944  1.3948  1.0791 -0.1696
 2114SOL    HW2 7242   1.269   2.441   6.063  1.0911 -2.3527 -0.3927
 2115SOL     OW 7243   2.915   5.127   1.818  0.4006  0.2231  0.0554
 2115SOL    HW1 7244   2.991   5.064   1.829 -1.6929 -2.4033  0.6375
 2115SOL    HW2 7245   2.929   5.207   1.875  1.5958 -1.3671  2.1254
 2116SOL     OW 7246   2.097   3.322   4.651 -0.0836 -0.5368 -0.4954
 2116SOL    HW1 7247   2.062   3.299   4.560  1.3318  0.8258 -1.4437
 2116SOL    HW2 7248   2.105   3.421   4.659  0.7272 -0.6823  0.7608
 2117SOL     OW 7249   5.639   6.510   3.462 -1.0571  0.3264 -0.1349
 2117SOL    HW1 7250   5.710   6.517   3.532 -1.4715  1.3510  0.2014
 2117SOL    HW2 7251   5.555   6.475   3.505 -1.3369  1.0391 -0.0985
 2118SOL     OW 7252   0.639   3.224   2.868 -0.0434  0.0283 -0.4396
 2118SOL    HW1 7253   0.641   3.245   2.770 -0.6190 -0.4148 -0.5543
 2118SOL    HW2 7254   0.685   3.297   2.919  1.0213 -0.1558 -1.1033
 2119SOL     OW 7255   4.812   6.612   1.021 -0.2426 -0.3014 -0.5558
 2119SOL    HW1 7256   4.727   6.604   1.074 -0.3818 -4.4359 -1.0684
 2119SOL    HW2 7257   4.790   6.635   0.927 -0.3695  2.4342  0.0660
 2120SOL     OW 7258   5.845   3.847   1.740  0.1372 -0.7185 -0.6597
 2120SOL    HW1 7259   5.879   3.881   1.828 -0.3470  0.6967 -0.9990
 2120SOL    HW2 7260   5.834   3.747   1.746 -2.2679 -0.4403  1.7645
 2121SOL     OW 7261   6.965   2.856   4.982  0.0777 -0.0102 -0.0024
 2121SOL    HW1 7262   7.043   2.803   4.948 -1.3095 -2.0122 -0.1983
 2121SOL    HW2 7263   6.907   2.798   5.039 -1.1771  1.4912  0.3220
 2122SOL     OW 7264   3.336   5.308   5.329  0.1638  0.3400 -0.1105
 2122SOL    HW1 7265   3.370   5.365   5.255 -0.0231  0.6396  0.0353
 2122SOL    HW2 7266   3.251   5.263   5.301  0.8542 -0.7054 -0.6142
 2123SOL     OW 7267   3.226   4.946   1.188  0.1224 -0.1907 -0.1393
 2123SOL    HW1 7268   3.192   4.857   1.217  0.4769 -0.7740 -1.4608
 2123SOL    HW2 7269   3.286   4.984   1.259  1.0411 -1.6086 -0.1144
 2124SOL     OW 7270   2.885   2.537   0.617 -0.1992  0.4380  0.7747
 2124SOL    HW1 7271   2.872   2.618   0.560 -0.1208  0.0170  0.1445
 2124SOL    HW2 7272   2.975   2.542   0.661  0.4248  0.0238 -0.4019
 2125SOL     OW 7273   6.909   5.666   5.713 -0.3395  0.1350  0.2002
 2125SOL    HW1 7274   6.980   5.734   5.730  0.1818 -0.8833  2.5387
 2125SOL    HW2 7275   6.819   5.708   5.723 -0.0227  0.4768  1.8349
 2126SOL     OW 7276   2.181   1.293   1.661 -0.4441 -0.2695  0.4565
 2126SOL    HW1 7277   2.127   1.363   1.614 -1.0430 -0.0460  1.4459
 2126SOL    HW2 7278   2.120   1.235   1.715  0.1278 -1.1229  0.2030
 2127SOL     OW 7279   6.397   1.564   6.420 -0.8682  0.1638  0.0299
 2127SOL    HW1 7280   6.345   1.519   6.492 -0.2634 -1.2098 -0.3517
 2127SOL    HW2 7281   6.467   1.501   6.385 -0.8767  0.9286 -1.4661
 2128SOL     OW 7282   1.835   4.428   5.211  0.1802 -0.0576 -0.0643
 2128SOL    HW1 7283   1.893   4.505   5.182 -1.2343  1.4982  1.0128
 2128SOL    HW2 7284   1.869   4.391   5.297  0.0355  0.3529  0.1733
 2129SOL     OW 7285   4.544   2.605   4.685 -0.2030 -0.2887 -0.0365
 2129SOL    HW1 7286   4.484   2.587   4.606  0.6426  0.4092 -0.8550
 2129SOL    HW2 7287   4.565   2.702   4.689  2.2338 -0.7263 -0.7777
 2130SOL     OW 7288   5.747   6.969   3.741 -0.3777 -0.3150  0.2699
 2130SOL    HW1 7289   5.652   6.984   3.715 -0.5290 -1.6984 -0.0884
 2130SOL    HW2 7290   5.758   6.986   3.839 -1.4052 -1.7343  0.6703
 2131SOL     OW 7291   5.890   1.095   6.030 -0.3489  0.0083 -0.2601
 2131SOL    HW1 7292   5.840   1.008   6.027  2.0546 -1.4679 -1.2494
 2131SOL    HW2 7293   5.930   1.107   6.120 -0.0418 -0.3434 -0.3439
 2132SOL     OW 7294   2.474   2.219   1.969 -0.0108  0.4385 -0.0973
 2132SOL    HW1 7295   2.465   2.292   2.038 -0.2526  0.2689  0.0528
 2132SOL    HW2 7296   2.567   2.221   1.931 -0.5351  1.9994 -1.4168
 2133SOL     OW 7297   2.827   5.697   7.014  0.2366  0.2497 -0.1557
 2133SOL    HW1 7298   2.913   5.666   6.974 -0.6713 -1.3445 -0.9900
 2133SOL    HW2 7299   2.799   5.784   6.972  0.6448 -0.0415 -1.0328
 2134SOL     OW 7300   6.196   5.486   0.522 -0.1188  0.4481  0.8639
 2134SOL    HW1 7301   6.283   5.534   0.515 -0.7835  1.5557 -0.3881
 2134SOL    HW2 7302   6.148   5.515   0.605 -0.4934  2.0115  0.1502
 2135SOL     OW 7303   4.955   5.894   6.082 -0.7862  0.1974 -0.1443
 2135SOL    HW1 7304   4.933   5.964   6.149 -0.2294 -0.9223  1.2531
 2135SOL    HW2 7305   5.032   5.925   6.025  0.9646 -0.0957  1.9134
 2136SOL     OW 7306   2.186   4.177   6.844  0.2745  0.0732 -0.0791
 2136SOL    HW1 7307   2.184   4.275   6.827  3.0847  0.3151  0.6016
 2136SOL    HW2 7308   2.256   4.134   6.787 -0.9544 -1.6007 -0.4366
 2137SOL     OW 7309   3.887   4.996   4.945  0.3067 -0.6534  0.5872
 2137SOL    HW1 7310   3.803   5.034   4.984  0.9250  0.6551  0.6746
 2137SOL    HW2 7311   3.909   4.911   4.993 -1.2018 -1.2704  0.2542
 2138SOL     OW 7312   5.623   2.942   1.251  0.2637 -0.0560  0.4250
 2138SOL    HW1 7313   5.543   3.001   1.254 -0.8828 -1.5811  1.3590
 2138SOL    HW2 7314   5.635   2.906   1.159 -0.2925 -0.0271  0.3410
 2139SOL     OW 7315   1.701   6.058   1.213  0.3454  0.8060  0.4888
 2139SOL    HW1 7316   1.649   6.122   1.269 -0.1158  0.8917 -0.0284
 2139SOL    HW2 7317   1.723   6.100   1.125 -0.8639 -0.0755 -0.2782
 2140SOL     OW 7318   2.399   2.438   4.367 -0.2049 -0.5537 -0.1886
 2140SOL    HW1 7319   2.408   2.503   4.292 -0.8543  0.6047  0.7086
 2140SOL    HW2 7320   2.481   2.440   4.424  0.2355 -1.3434 -0.7657
 2141SOL     OW 7321   1.193   2.522   2.981 -0.0750  0.6794  0.0555
 2141SOL    HW1 7322   1.154   2.604   2.938  1.4865  1.3008 -0.2484
 2141SOL    HW2 7323   1.226   2.460   2.910  1.3566  1.1268  0.2938
 2142SOL     OW 7324   1.136   2.265   3.131 -0.0872  0.0284  0.1559
 2142SOL    HW1 7325   1.156   2.318   3.049  0.9823  0.7357  0.8580
 2142SOL    HW2 7326   1.052   2.212   3.117  0.5918 -0.6162 -1.7466
 2143SOL     OW 7327   1.425   4.515   4.467  0.1034 -0.2803  0.2253
 2143SOL    HW1 7328   1.415   4.538   4.371  0.2165  0.6081  0.4236
 2143SOL    HW2 7329   1.393   4.591   4.524  2.1007  0.1090  0.8896
 2144SOL     OW 7330   5.865   5.920   4.888 -0.1952  0.1241 -0.2744
 2144SOL    HW1 7331   5.804   5.938   4.965 -0.1299 -1.3908  0.1738
 2144SOL    HW2 7332   5.951   5.970   4.901 -0.4086  0.3336  0.3447
 2145SOL     OW 7333   4.987   1.839   3.801 -0.1027 -0.3067 -0.2183
 2145SOL    HW1 7334   5.086   1.824   3.800 -0.1456 -0.6374  0.4287
 2145SOL    HW2 7335   4.946   1.788   3.725  0.5129  2.0973 -2.3318
 2146SOL     OW 7336   0.829   1.402   0.235 -0.0798 -0.4681 -0.0111
 2146SOL    HW1 7337   0.898   1.350   0.284 -1.2756 -1.8185  0.3246
 2146SOL    HW2 7338   0.853   1.499   0.236  2.0678 -0.9482 -0.4152
 2147SOL     OW 7339   5.594   1.550   3.479  0.4901  0.4780 -0.2390
 2147SOL    HW1 7340   5.623   1.459   3.449  0.5669  0.4731 -0.1508
 2147SOL    HW2 7341   5.671   1.614   3.472 -0.2443  1.1700 -2.8554
 2148SOL     OW 7342   3.019   3.156   6.649 -0.2569 -0.4128 -0.1853
 2148SOL    HW1 7343   3.047   3.238   6.598  2.7202 -1.0589  0.2190
 2148SOL    HW2 7344   3.066   3.155   6.737 -2.1971 -1.3582  0.8973
 2149SOL     OW 7345   0.243   0.643   5.792 -0.7885  0.4060 -0.5285
 2149SOL    HW1 7346   0.209   0.559   5.833 -0.3502  0.4785 -0.0072
 2149SOL    HW2 7347   0.202   0.655   5.701  0.1869 -1.0678 -1.2031
 2150SOL     OW 7348   2.096   2.140   0.019  0.5175 -0.4819  0.0739
 2150SOL    HW1 7349   2.059   2.210   0.081  1.7206  1.9295 -1.7555
 2150SOL    HW2 7350   2.032   2.124  -0.056  0.1674 -1.5329  0.5792
 2151SOL     OW 7351   0.848   4.517   5.967  0.0071  0.1844  0.5040
 2151SOL    HW1 7352   0.948   4.514   5.972  0.1224  0.9063 -0.9561
 2151SOL    HW2 7353   0.815   4.604   6.004  0.1255  1.0596 -1.3734
 2152SOL     OW 7354   4.705   6.497   4.768 -0.2620  0.4371 -0.0216
 2152SOL    HW1 7355   4.726   6.581   4.719 -1.3458  0.5159 -0.3809
 2152SOL    HW2 7356   4.609   6.473   4.754  0.2865 -1.4705 -0.8576
 2153SOL     OW 7357   3.865   0.985   3.758  0.0682  0.0606 -0.5159
 2153SOL    HW1 7358   3.836   0.948   3.670 -2.1737 -0.0051  0.1853
 2153SOL    HW2 7359   3.855   1.084   3.758  1.7784  0.2561 -0.8977
 2154SOL     OW 7360   2.750   6.617   0.733  0.0415  0.2504 -0.1686
 2154SOL    HW1 7361   2.773   6.525   0.764  1.9588  0.1878 -1.5262
 2154SOL    HW2 7362   2.831   6.675   0.740 -0.9789  1.6891  0.1092
 2155SOL     OW 7363   4.646   0.693   6.305 -0.4623 -0.6710  0.4582
 2155SOL    HW1 7364   4.721   0.627   6.300 -0.3841 -0.5018 -0.9503
 2155SOL    HW2 7365   4.683   0.782   6.332 -0.3626 -0.8754  1.0153
 2156SOL     OW 7366   5.997   0.947   4.329  0.5679 -0.1354 -0.0707
 2156SOL    HW1 7367   6.025   0.962   4.424 -0.1438  0.6867  0.0356
 2156SOL    HW2 7368   6.076   0.955   4.268  0.7777  0.9398  0.3183
 2157SOL     OW 7369   4.067   6.273   2.262 -0.6108 -0.3653  0.5532
 2157SOL    HW1 7370   3.989   6.336   2.261 -0.9352 -0.6970 -1.8764
 2157SOL    HW2 7371   4.111   6.273   2.172  0.7084 -1.9948  1.1452
 2158SOL     OW 7372   3.870   6.832   6.325  0.1409  0.2701  0.2491
 2158SOL    HW1 7373   3.918   6.919   6.312 -0.3454  0.6255  0.7569
 2158SOL    HW2 7374   3.900   6.790   6.411  0.3276 -0.0323  0.0350
 2159SOL     OW 7375   3.038   1.465   6.096 -0.1860 -0.3877 -0.2759
 2159SOL    HW1 7376   2.941   1.440   6.101  0.2433 -1.9610  1.1282
 2159SOL    HW2 7377   3.087   1.393   6.046 -0.0570  1.6411 -3.3565
 2160SOL     OW 7378   0.097   6.951   6.238  0.1965 -0.1116  0.2636
 2160SOL    HW1 7379   0.192   6.934   6.214  0.5319 -0.3932  1.6904
 2160SOL    HW2 7380   0.087   6.953   6.338 -1.1629  0.6639  0.1484
 2161SOL     OW 7381   1.502   2.239   6.469 -0.4390  0.0389  0.0490
 2161SOL    HW1 7382   1.486   2.304   6.395 -0.7543 -0.6793 -0.5262
 2161SOL    HW2 7383   1.416   2.196   6.496 -0.1826 -0.4301  0.1422
 2162SOL     OW 7384   1.407   6.258   0.609  0.2339 -0.4026  0.1329
 2162SOL    HW1 7385   1.342   6.209   0.551 -0.7434  0.4791  0.4476
 2162SOL    HW2 7386   1.368   6.270   0.700 -0.2230  2.1825 -0.3235
 2163SOL     OW 7387   1.508   2.380   3.802  0.5320  0.8461 -0.3190
 2163SOL    HW1 7388   1.442   2.307   3.783  0.0571  1.5673 -1.5790
 2163SOL    HW2 7389   1.462   2.454   3.851  0.8421  0.6226  0.3271
 2164SOL     OW 7390   1.922   5.089   2.342 -0.3605 -0.2042  0.1904
 2164SOL    HW1 7391   1.938   5.130   2.432  0.4670 -1.1617  0.5080
 2164SOL    HW2 7392   1.884   4.997   2.354 -2.3328  0.4589 -0.5045
 2165SOL     OW 7393   5.026   3.479   0.027  0.1349 -0.5483 -0.1001
 2165SOL    HW1 7394   5.106   3.436   0.070 -0.6761 -2.4870 -0.4465
 2165SOL    HW2 7395   4.955   3.410   0.012 -0.8971  0.7642 -1.5032
 2166SOL     OW 7396   0.322   3.463   2.792  0.0328 -0.9392 -0.1102
 2166SOL    HW1 7397   0.334   3.459   2.693  1.0479 -1.1967  0.0093
 2166SOL    HW2 7398   0.335   3.371   2.830  1.3938 -0.5376  0.4349
 2167SOL     OW 7399   0.586   2.809   1.310 -0.1010  0.0201  0.6452
 2167SOL    HW1 7400   0.655   2.865   1.265 -1.7393  1.4167 -0.2384
 2167SOL    HW2 7401   0.506   2.800   1.251 -1.6108  0.3878  2.5376
 2168SOL     OW 7402   3.599   2.095   4.620  0.3384  0.1204  0.0386
 2168SOL    HW1 7403   3.677   2.149   4.588  0.5884 -0.1565  0.1796
 2168SOL    HW2 7404   3.596   2.096   4.720  2.2353 -2.7263  0.2320
 2169SOL     OW 7405   6.986   1.031   0.832 -0.0914 -0.1991  0.4407
 2169SOL    HW1 7406   6.991   1.025   0.733  0.2193 -3.5772  0.5361
 2169SOL    HW2 7407   7.061   1.089   0.866  2.2808 -2.1261 -1.1734
 2170SOL     OW 7408   2.332   2.099   4.759 -0.4953  0.3564  0.2822
 2170SOL    HW1 7409   2.353   2.196   4.752  2.4497 -0.0723  1.3977
 2170SOL    HW2 7410   2.354   2.067   4.852 -0.1166 -1.5873 -0.4175
 2171SOL     OW 7411   1.815   0.497   0.901 -0.2379 -0.0116 -0.3910
 2171SOL    HW1 7412   1.869   0.457   0.827 -0.7778 -2.2569  0.3451
 2171SOL    HW2 7413   1.875   0.520   0.978  0.0352  0.1299 -0.6485
 2172SOL     OW 7414   4.106   0.301   4.604 -0.0846 -0.2954 -0.6891
 2172SOL    HW1 7415   4.127   0.340   4.514 -0.2370 -0.2814 -0.7189
 2172SOL    HW2 7416   4.162   0.220   4.619 -0.2788 -0.4786 -0.9288
 2173SOL     OW 7417   3.436   0.673   5.441 -0.2665  0.5376 -0.5672
 2173SOL    HW1 7418   3.341   0.642   5.436 -1.2337  3.2238 -0.6458
 2173SOL    HW2 7419   3.481   0.630   5.519 -1.4654 -0.9443 -0.6441
 2174SOL     OW 7420   5.512   0.376   5.735 -0.0338 -0.3528  0.4838
 2174SOL    HW1 7421   5.418   0.348   5.718 -0.1762  0.7250 -0.5881
 2174SOL    HW2 7422   5.573   0.298   5.719 -0.4569 -0.2443 -2.0512
 2175SOL     OW 7423   2.665   1.732   6.007  0.1356 -0.4563 -0.0690
 2175SOL    HW1 7424   2.688   1.826   6.033 -1.2781  0.1253 -0.8405
 2175SOL    HW2 7425   2.585   1.732   5.947  0.3219 -2.1367 -0.3694
 2176SOL     OW 7426   0.468   0.317   2.590 -0.1538  0.3402 -0.0316
 2176SOL    HW1 7427   0.496   0.407   2.625  2.0445 -0.3332  0.1072
 2176SOL    HW2 7428   0.529   0.291   2.515 -0.8625 -0.9726 -0.1742
 2177SOL     OW 7429   0.076   6.941   6.537 -0.2152  0.1135 -0.2732
 2177SOL    HW1 7430   0.129   7.000   6.599 -0.6051 -0.4278  0.5970
 2177SOL    HW2 7431   0.104   6.846   6.550 -0.8057 -0.0831 -0.4199
 2178SOL     OW 7432   3.774   1.278   2.794  0.5349  0.2483 -0.1543
 2178SOL    HW1 7433   3.864   1.256   2.756  0.5428 -0.4383  0.2525
 2178SOL    HW2 7434   3.716   1.197   2.790  0.2254  0.4419  0.4149
 2179SOL     OW 7435   1.726   3.098   0.367  0.5385  0.2651  0.0342
 2179SOL    HW1 7436   1.641   3.110   0.418  0.3998  1.4924 -0.4488
 2179SOL    HW2 7437   1.742   3.178   0.308  2.9551  0.9773  1.4940
 2180SOL     OW 7438   0.717   4.022   3.405 -0.2305  0.4608 -0.9341
 2180SOL    HW1 7439   0.801   4.044   3.456  0.3756 -0.7115 -1.4013
 2180SOL    HW2 7440   0.643   4.080   3.438 -0.1675 -0.9659  2.1195
 2181SOL     OW 7441   4.903   5.555   1.668  0.6102 -0.2667  0.3095
 2181SOL    HW1 7442   4.979   5.537   1.605  1.3295  0.6613  0.8842
 2181SOL    HW2 7443   4.918   5.504   1.753 -0.0159 -0.9882  0.0001
 2182SOL     OW 7444   0.973   5.588   0.452 -0.1073 -0.2556 -0.0253
 2182SOL    HW1 7445   0.987   5.533   0.535 -1.3764  0.2013  0.5264
 2182SOL    HW2 7446   0.958   5.527   0.374 -1.8036 -0.7379  0.6316
 2183SOL     OW 7447   3.411   2.816   6.876  0.4571  0.5134 -0.1879
 2183SOL    HW1 7448   3.441   2.832   6.782 -0.8049  3.0480 -0.2455
 2183SOL    HW2 7449   3.483   2.845   6.939  1.2461 -1.0529 -0.3166
 2184SOL     OW 7450   0.053   3.856   4.798  0.4791 -0.4758  0.3225
 2184SOL    HW1 7451  -0.003   3.883   4.876  0.4213  0.2845  0.0288
 2184SOL    HW2 7452   0.006   3.785   4.745  0.7284 -1.3432  1.2297
 2185SOL     OW 7453   6.407   3.853   5.948  0.0175  0.6813  0.0762
 2185SOL    HW1 7454   6.441   3.766   5.983 -1.0150  0.6954  1.2128
 2185SOL    HW2 7455   6.311   3.865   5.975  0.1286  2.1592 -0.0623
 2186SOL     OW 7456   6.695   3.619   4.373 -0.1277  0.4149  0.1311
 2186SOL    HW1 7457   6.646   3.548   4.322  1.2463 -1.2460  1.0043
 2186SOL    HW2 7458   6.726   3.690   4.310 -2.7223  1.0047 -0.5734
 2187SOL     OW 7459   5.080   4.664   0.833  0.2561  0.3435 -0.0824
 2187SOL    HW1 7460   5.146   4.623   0.770  1.2870  0.6913  0.7544
 2187SOL    HW2 7461   4.988   4.630   0.811  1.0646 -2.6984  0.7907
 2188SOL     OW 7462   1.680   0.970   0.050 -0.6280  0.2731  0.1123
 2188SOL    HW1 7463   1.677   1.056   0.000  0.3925  0.0344 -0.4087
 2188SOL    HW2 7464   1.744   0.908   0.005 -1.1179 -0.6520  0.6489
 2189SOL     OW 7465   3.268   6.664   2.733 -0.1753 -0.2807  0.0291
 2189SOL    HW1 7466   3.203   6.588   2.735  0.4871 -0.9625 -1.9221
 2189SOL    HW2 7467   3.356   6.634   2.771 -0.3882  0.0216  0.7737
 2190SOL     OW 7468   2.305   4.177   2.342  0.6344 -0.4297 -0.3180
 2190SOL    HW1 7469   2.280   4.080   2.342 -0.1969 -0.2274  0.6108
 2190SOL    HW2 7470   2.331   4.205   2.435  1.4704  0.0933 -0.6978
 2191SOL     OW 7471   1.874   0.301   6.200 -0.8351 -0.0266  0.5925
 2191SOL    HW1 7472   1.824   0.363   6.140 -0.7237 -1.9935 -1.7013
 2191SOL    HW2 7473   1.971   0.302   6.175 -0.4484  0.3981  1.9796
 2192SOL     OW 7474   3.951   2.086   3.261 -0.1786 -0.1662  0.3181
 2192SOL    HW1 7475   3.962   1.990   3.233  0.1481 -0.5705  1.7605
 2192SOL    HW2 7476   3.856   2.114   3.246 -0.7777 -1.3387  1.6736
 2193SOL     OW 7477   0.911   1.131   6.890 -0.1924  0.1331  0.6458
 2193SOL    HW1 7478   0.972   1.075   6.946  2.5978  0.4688 -1.7844
 2193SOL    HW2 7479   0.849   1.072   6.839  0.8657 -0.5869  0.1500
 2194SOL     OW 7480   1.441   4.265   5.397  0.1030 -0.0427  0.0464
 2194SOL    HW1 7481   1.446   4.166   5.413  1.1508 -0.0935 -0.5137
 2194SOL    HW2 7482   1.488   4.313   5.471 -1.1869  0.0993  0.7984
 2195SOL     OW 7483   6.868   5.051   6.179 -0.7402  0.0110  0.7473
 2195SOL    HW1 7484   6.782   5.089   6.214 -1.4305 -1.5102  0.7464
 2195SOL    HW2 7485   6.885   5.086   6.087 -1.9793 -0.6108  0.2681
 2196SOL     OW 7486   3.774   5.989   6.475  0.2687 -0.0607  0.7093
 2196SOL    HW1 7487   3.718   5.911   6.447 -0.4510 -0.2874  2.6583
 2196SOL    HW2 7488   3.718   6.072   6.471  0.7823  0.2566 -0.5007
 2197SOL     OW 7489   1.471   4.824   6.883  0.0698 -0.0195 -0.5947
 2197SOL    HW1 7490   1.384   4.873   6.871  0.5577  2.1462  3.1509
 2197SOL    HW2 7491   1.534   4.881   6.936  3.0490 -2.3896 -1.3356
 2198SOL     OW 7492   1.057   1.232   5.282 -0.3865 -0.3429  0.3915
 2198SOL    HW1 7493   0.984   1.271   5.225 -0.5620 -1.8132 -0.4356
 2198SOL    HW2 7494   1.076   1.294   5.358 -1.2313  0.9313 -0.3940
 2199SOL     OW 7495   4.933   0.606   4.600  0.0628 -0.0183  0.0410
 2199SOL    HW1 7496   4.895   0.593   4.509  1.6834  0.1262 -0.6872
 2199SOL    HW2 7497   4.964   0.518   4.636 -1.7390 -0.3019  1.0404
 2200SOL     OW 7498   2.276   4.162   5.599  0.2491  0.7819 -0.3309
 2200SOL    HW1 7499   2.269   4.087   5.533  0.0988  2.3269 -2.1619
 2200SOL    HW2 7500   2.371   4.191   5.606  0.1458  1.1638 -0.5050
 2201SOL     OW 7501   5.732   3.038   4.737  0.0020 -0.1129 -0.3055
 2201SOL    HW1 7502   5.655   3.102   4.738  1.8523  2.2582 -0.6821
 2201SOL    HW2 7503   5.756   3.017   4.642 -0.1083 -0.7993 -0.1880
 2202SOL     OW 7504   3.856   1.873   4.242  0.2529  0.1653 -0.0623
 2202SOL    HW1 7505   3.811   1.838   4.160  1.9295  1.2070 -1.4806
 2202SOL    HW2 7506   3.839   1.971   4.250  0.5012  0.1624  0.5752
 2203SOL     OW 7507   3.562   4.805   1.435  0.3603  0.6361  0.3029
 2203SOL    HW1 7508   3.620   4.796   1.355 -0.1027  0.0819  0.0246
 2203SOL    HW2 7509   3.506   4.723   1.445 -1.1383  1.5841 -0.0501
 2204SOL     OW 7510   5.261   3.766   0.311 -0.0216 -0.1567  0.1041
 2204SOL    HW1 7511   5.357   3.741   0.320  0.1424  0.1960 -0.5677
 2204SOL    HW2 7512   5.217   3.763   0.400  1.2233  2.2032  0.8872
 2205SOL     OW 7513   4.839   6.543   1.666 -0.1237 -0.1842  0.0765
 2205SOL    HW1 7514   4.864   6.606   1.593  0.8276  0.5972  1.0406
 2205SOL    HW2 7515   4.852   6.449   1.635  0.0629  0.1285 -0.8218
 2206SOL     OW 7516   2.937   3.948   4.948  0.2487  0.6289 -0.2379
 2206SOL    HW1 7517   2.866   4.000   4.902  0.1167  0.4134 -0.2786
 2206SOL    HW2 7518   2.990   3.897   4.880 -0.0661  0.1616 -0.1394
 2207SOL     OW 7519   4.057   5.113   1.428  0.1554 -0.4785 -0.0972
 2207SOL    HW1 7520   4.127   5.176   1.461  1.3623 -1.1359 -1.3001
 2207SOL    HW2 7521   4.051   5.120   1.328 -4.7986  2.9792  0.0377
 2208SOL     OW 7522   6.547   0.460   2.770  0.5589 -0.0214  0.4273
 2208SOL    HW1 7523   6.469   0.403   2.796  0.9442 -0.0815  1.4711
 2208SOL    HW2 7524   6.522   0.556   2.776  0.3616 -0.0495  0.0936
 2209SOL     OW 7525   1.641   4.326   4.479 -0.6845  0.2763 -0.1109
 2209SOL    HW1 7526   1.572   4.389   4.445  0.0310  1.1556  0.0307
 2209SOL    HW2 7527   1.696   4.371   4.549  0.6283 -0.0862 -0.8707
 2210SOL     OW 7528   5.527   0.353   3.450 -0.4607  0.6234  0.5342
 2210SOL    HW1 7529   5.569   0.417   3.386  1.3679  0.0974  1.1377
 2210SOL    HW2 7530   5.500   0.270   3.401 -1.0212  1.0630  0.0930
 2211SOL     OW 7531   0.543   0.896   6.567  0.5139  0.6310 -0.5548
 2211SOL    HW1 7532   0.584   0.877   6.478 -0.4181 -0.5059 -0.7673
 2211SOL    HW2 7533   0.543   0.812   6.622 -0.2215  0.9681 -0.0266
 2212SOL     OW 7534   2.682   0.682   6.750  0.1736  0.0332 -0.1445
 2212SOL    HW1 7535   2.732   0.663   6.835  1.5527  0.0234 -0.9392
 2212SOL    HW2 7536   2.659   0.779   6.746  0.1000  0.0353  0.2247
 2213SOL     OW 7537   3.266   2.682   5.584 -0.0338 -0.4724  0.7310
 2213SOL    HW1 7538   3.208   2.747   5.534 -0.9523 -0.6122  1.5825
 2213SOL    HW2 7539   3.325   2.634   5.519  2.0219  2.4556  0.2348
 2214SOL     OW 7540   4.983   5.011   5.003 -0.2407 -0.6687 -0.0131
 2214SOL    HW1 7541   4.886   5.026   5.023  0.0004 -0.3412  0.9734
 2214SOL    HW2 7542   5.002   5.034   4.907 -0.6029  1.9400  0.4686
 2215SOL     OW 7543   1.971   5.262   5.357  0.1746 -0.2639 -0.4483
 2215SOL    HW1 7544   1.895   5.198   5.351  2.1713 -2.9989  1.1221
 2215SOL    HW2 7545   1.972   5.306   5.447  0.4603 -0.2438 -0.4588
 2216SOL     OW 7546   2.023   4.156   6.620 -0.3787  0.3581  0.1589
 2216SOL    HW1 7547   2.032   4.158   6.720 -0.6313 -1.2679  0.2432
 2216SOL    HW2 7548   2.112   4.171   6.578  0.3928 -2.1549  0.7259
 2217SOL     OW 7549   4.645   2.396   2.845  0.2572 -0.6156 -0.4434
 2217SOL    HW1 7550   4.720   2.454   2.879 -0.3326  0.4032 -0.8344
 2217SOL    HW2 7551   4.671   2.358   2.756  1.8537 -3.3838  1.0640
 2218SOL     OW 7552   6.705   6.804   0.390 -0.1007  0.9405  0.1900
 2218SOL    HW1 7553   6.641   6.854   0.448 -1.1275 -0.6759  0.5217
 2218SOL    HW2 7554   6.785   6.777   0.443 -0.9308 -0.3338  0.8508
 2219SOL     OW 7555   5.711   4.754   0.190  0.2726  0.4020 -0.0557
 2219SOL    HW1 7556   5.797   4.750   0.138  0.1044 -0.2520 -0.2963
 2219SOL    HW2 7557   5.689   4.849   0.210 -0.1192  0.7653 -1.9777
 2220SOL     OW 7558   0.602   3.916   4.664  0.5162  0.3673 -0.0113
 2220SOL    HW1 7559   0.504   3.896   4.663  0.9710 -2.3826 -2.1543
 2220SOL    HW2 7560   0.620   4.000   4.611 -0.4846 -0.8320 -2.4040
 2221SOL     OW 7561   5.340   0.235   2.890 -0.2407  0.9210  0.4955
 2221SOL    HW1 7562   5.313   0.244   2.986  0.6867  0.8281  0.7743
 2221SOL    HW2 7563   5.396   0.313   2.863 -2.0434  1.9475 -0.5488
 2222SOL     OW 7564   5.373   1.689   6.166 -0.0072 -0.3243 -0.0905
 2222SOL    HW1 7565   5.314   1.748   6.222 -1.5362 -1.8241 -0.0279
 2222SOL    HW2 7566   5.430   1.746   6.106  0.0340  1.2431  1.3636
 2223SOL     OW 7567   6.968   1.168   5.202 -0.3497  0.1868 -0.1191
 2223SOL    HW1 7568   6.952   1.112   5.120  0.6697  0.1004 -0.2681
 2223SOL    HW2 7569   6.953   1.264   5.180 -0.2182  0.1511 -0.3692
 2224SOL     OW 7570   4.842   5.367   6.155 -0.2582  0.2488  0.3351
 2224SOL    HW1 7571   4.935   5.380   6.189  0.1943 -1.3497 -0.2444
 2224SOL    HW2 7572   4.804   5.456   6.129  0.6630  1.0769  1.6419
 2225SOL     OW 7573   0.782   1.401   0.797  0.3527  0.1938  0.3584
 2225SOL    HW1 7574   0.769   1.302   0.804  2.6467 -0.1925 -0.1634
 2225SOL    HW2 7575   0.726   1.436   0.722  0.6517 -0.9784 -0.4512
 2226SOL     OW 7576   3.165   4.033   6.297 -0.0498 -0.0452 -0.1356
 2226SOL    HW1 7577   3.114   4.059   6.379 -1.2158  0.4284 -0.9766
 2226SOL    HW2 7578   3.254   4.078   6.297 -0.4156  0.6890  0.4241
 2227SOL     OW 7579   3.536   2.048   0.845 -0.3308 -0.1330  0.5388
 2227SOL    HW1 7580   3.531   1.996   0.930 -0.4269 -0.7978  0.1272
 2227SOL    HW2 7581   3.460   2.113   0.842  0.0300  0.3423  1.2439
 2228SOL     OW 7582   5.020   6.678   5.769  0.5098 -0.3675 -0.0226
 2228SOL    HW1 7583   5.109   6.715   5.797 -0.7878  2.5044  0.7268
 2228SOL    HW2 7584   4.950   6.748   5.781 -1.5780 -1.8421 -2.4527
 2229SOL     OW 7585   3.407   2.928   4.115 -0.6472  0.4335 -0.2445
 2229SOL    HW1 7586   3.358   2.919   4.201 -1.1180 -1.1543 -0.6355
 2229SOL    HW2 7587   3.505   2.918   4.130 -0.7977 -0.7475  0.0093
 2230SOL     OW 7588   0.209   2.959   5.318 -0.2426  0.5099 -0.2684
 2230SOL    HW1 7589   0.205   2.990   5.413  1.3160  0.0015 -0.0060
 2230SOL    HW2 7590   0.140   3.007   5.264 -1.8709  0.0742  1.3086
 2231SOL     OW 7591   6.476   0.298   5.225 -0.2400 -0.0282 -0.2218
 2231SOL    HW1 7592   6.413   0.330   5.296 -0.5957 -0.9717 -0.0933
 2231SOL    HW2 7593   6.468   0.199   5.216  0.7262 -0.0753 -0.7005
 2232SOL     OW 7594   1.357   2.568   5.591 -0.4075 -0.4209  0.4012
 2232SOL    HW1 7595   1.424   2.616   5.648 -0.4203 -0.3774  0.3801
 2232SOL    HW2 7596   1.327   2.485   5.637  2.4138 -2.4815 -1.1682
 2233SOL     OW 7597   1.745   6.571   0.861  0.1271  0.1716  0.0092
 2233SOL    HW1 7598   1.705   6.608   0.777 -0.7634  0.5695  0.6025
 2233SOL    HW2 7599   1.823   6.512   0.837 -1.1140 -1.0462 -1.2045
 2234SOL     OW 7600   5.345   3.430   1.329 -0.2022 -0.2990 -0.1611
 2234SOL    HW1 7601   5.430   3.378   1.324 -0.7572 -1.3086  0.7079
 2234SOL    HW2 7602   5.275   3.377   1.376 -1.5609  0.2023 -1.5281
 2235SOL     OW 7603   0.049   3.728   3.040  0.1141  0.0577 -0.2922
 2235SOL    HW1 7604   0.096   3.809   3.074  1.6932 -1.1459  0.5660
 2235SOL    HW2 7605  -0.033   3.711   3.095  0.9330 -0.0867  0.9253
 2236SOL     OW 7606   3.475   5.384   6.276  0.0205  0.2245  0.5416
 2236SOL    HW1 7607   3.555   5.427   6.235  0.5272  1.0287  2.3073
 2236SOL    HW2 7608   3.489   5.285   6.280 -0.0540  0.1099 -1.1710
 2237SOL     OW 7609   6.032   1.010   0.261 -0.3694 -0.0477  0.3879
 2237SOL    HW1 7610   6.028   0.912   0.241  0.2462  0.0360 -0.1716
 2237SOL    HW2 7611   5.943   1.041   0.294 -0.5065 -0.8421  0.7951
 2238SOL     OW 7612   6.258   5.742   0.138 -0.0124  1.0211  0.0592
 2238SOL    HW1 7613   6.235   5.652   0.175 -2.2395  1.0579 -1.1000
 2238SOL    HW2 7614   6.229   5.813   0.201 -0.2894  0.9833 -0.0257
 2239SOL     OW 7615   3.673   6.293   2.176 -0.6935  0.1384  0.2707
 2239SOL    HW1 7616   3.738   6.347   2.230  0.0791 -1.4180  0.9629
 2239SOL    HW2 7617   3.581   6.306   2.212 -0.8682  2.5309 -0.8502
 2240SOL     OW 7618   5.672   5.250   1.975  0.8320 -0.4122  0.0639
 2240SOL    HW1 7619   5.699   5.185   1.904 -0.5260  1.5560 -2.4456
 2240SOL    HW2 7620   5.709   5.341   1.952 -1.9049  0.8598  0.3024
 2241SOL     OW 7621   1.882   3.014   6.184  0.5577 -0.3460  0.9641
 2241SOL    HW1 7622   1.913   3.004   6.278 -0.4534 -1.5760  1.1920
 2241SOL    HW2 7623   1.815   2.942   6.163  1.6422 -0.8241 -1.0588
 2242SOL     OW 7624   4.835   1.820   2.665 -0.6218  0.8034  0.2941
 2242SOL    HW1 7625   4.855   1.746   2.730  0.5125  0.0617 -0.8318
 2242SOL    HW2 7626   4.837   1.783   2.572  1.9282  2.5624 -0.4523
 2243SOL     OW 7627   0.647   0.698   5.672  0.2728  0.2661  0.7560
 2243SOL    HW1 7628   0.719   0.644   5.628 -0.9046  1.0280 -2.3560
 2243SOL    HW2 7629   0.590   0.638   5.728  1.0476 -1.0534  0.1823
 2244SOL     OW 7630   0.776   0.286   2.187  0.1937  0.0540  0.0520
 2244SOL    HW1 7631   0.760   0.375   2.145 -1.1279  0.1153  0.6651
 2244SOL    HW2 7632   0.791   0.218   2.115  0.1048  0.5580 -0.4526
 2245SOL     OW 7633   0.961   1.740   1.840 -0.3102 -0.7558  0.5719
 2245SOL    HW1 7634   0.994   1.739   1.746  0.9953 -0.1257  1.0068
 2245SOL    HW2 7635   0.861   1.743   1.840 -0.3008  0.8464 -0.8295
 2246SOL     OW 7636   6.309   1.185   5.904 -0.7324 -0.0510 -0.2531
 2246SOL    HW1 7637   6.388   1.178   5.844 -0.8802 -1.8005 -0.2997
 2246SOL    HW2 7638   6.333   1.239   5.985 -1.0145  3.8227 -2.5263
 2247SOL     OW 7639   4.270   2.825   0.386 -0.4865 -0.2721 -0.7463
 2247SOL    HW1 7640   4.258   2.879   0.469  0.2930 -1.0973 -0.0685
 2247SOL    HW2 7641   4.188   2.771   0.369  0.0867 -1.6984  0.7150
 2248SOL     OW 7642   4.781   3.938   4.395  0.9530  0.1978 -0.5369
 2248SOL    HW1 7643   4.705   3.993   4.362  0.3718  0.1758  0.6970
 2248SOL    HW2 7644   4.779   3.935   4.495  2.5648  0.1739 -0.4765
 2249SOL     OW 7645   2.209   5.052   3.331 -0.0127 -0.4057 -0.0105
 2249SOL    HW1 7646   2.302   5.037   3.364 -0.0119  0.7892  0.5737
 2249SOL    HW2 7647   2.150   5.079   3.407 -0.4998  0.2509 -0.6044
 2250SOL     OW 7648   3.456   6.494   0.146 -0.4068  0.5613  0.5322
 2250SOL    HW1 7649   3.406   6.580   0.133  0.0431  0.6246 -0.9100
 2250SOL    HW2 7650   3.443   6.436   0.066 -1.7000 -1.2635  1.9657
 2251SOL     OW 7651   4.314   5.920   5.999  0.0330 -0.1253  0.5117
 2251SOL    HW1 7652   4.308   5.857   5.921  1.1096  0.5921 -0.1677
 2251SOL    HW2 7653   4.290   5.871   6.083 -0.4013 -1.1055 -0.1623
 2252SOL     OW 7654   3.405   1.136   3.047 -0.1102 -0.1345 -0.0831
 2252SOL    HW1 7655   3.460   1.193   3.108 -1.2841  0.1713  0.7167
 2252SOL    HW2 7656   3.339   1.084   3.100 -1.7945  0.8307 -1.1436
 2253SOL     OW 7657   1.402   2.594   1.783 -0.6837  0.5244  0.4756
 2253SOL    HW1 7658   1.307   2.580   1.809 -0.1276 -1.0563  1.8863
 2253SOL    HW2 7659   1.417   2.689   1.756 -2.8894  0.5262 -0.8976
 2254SOL     OW 7660   2.677   2.603   1.116 -0.2817 -0.2665 -0.0233
 2254SOL    HW1 7661   2.702   2.587   1.020 -3.3288  0.1454 -0.9723
 2254SOL    HW2 7662   2.672   2.701   1.134  3.6491 -0.1637  1.6665
 2255SOL     OW 7663   1.707   2.514   4.198  0.5920  0.1678  0.3629
 2255SOL    HW1 7664   1.760   2.536   4.116 -1.0892  1.2780 -0.4794
 2255SOL    HW2 7665   1.737   2.571   4.273  0.2207  1.2091 -0.2646
 2256SOL     OW 7666   6.388   1.375   2.505  0.5628 -0.3395 -0.0619
 2256SOL    HW1 7667   6.315   1.383   2.438 -0.5076  2.4710  1.2951
 2256SOL    HW2 7668   6.350   1.376   2.597  2.2383  0.1279  0.6744
 2257SOL     OW 7669   1.500   1.841   5.008 -0.2938 -0.1280  0.7479
 2257SOL    HW1 7670   1.447   1.917   4.969 -1.4524 -0.3599  1.8179
 2257SOL    HW2 7671   1.525   1.863   5.102  2.7409  0.5507 -0.1212
 2258SOL     OW 7672   1.058   0.571   4.441  0.7928  0.3878  0.3605
 2258SOL    HW1 7673   1.038   0.669   4.445  0.1958  0.3309 -0.7559
 2258SOL    HW2 7674   1.057   0.541   4.346  2.7931 -0.3543  0.5211
 2259SOL     OW 7675   0.504   0.050   3.158 -0.2544 -0.1916  0.2716
 2259SOL    HW1 7676   0.596   0.029   3.192  0.0438 -0.3579 -0.5991
 2259SOL    HW2 7677   0.440  -0.020   3.189  0.0844 -0.5426  0.1942
 2260SOL     OW 7678   1.631   2.935   1.234 -0.1639 -0.0441 -0.5498
 2260SOL    HW1 7679   1.647   2.943   1.332  1.8068  2.4867 -0.9551
 2260SOL    HW2 7680   1.719   2.936   1.186 -1.1060  2.4146 -2.4666
 2261SOL     OW 7681   4.911   5.325   5.635 -0.2317 -0.6177 -0.4366
 2261SOL    HW1 7682   4.969   5.385   5.689 -1.5085  1.6473 -1.4308
 2261SOL    HW2 7683   4.865   5.260   5.695  2.0885 -1.4634  0.5306
 2262SOL     OW 7684   5.667   1.505   4.281  0.3577  0.3623 -0.0897
 2262SOL    HW1 7685   5.699   1.520   4.187 -1.3560  2.1456 -0.4752
 2262SOL    HW2 7686   5.704   1.577   4.340  2.7155 -1.6465  1.0148
 2263SOL     OW 7687   0.742   4.297   6.703  0.0475 -0.2377  0.0190
 2263SOL    HW1 7688   0.716   4.385   6.663  0.5856 -0.2733 -0.4116
 2263SOL    HW2 7689   0.668   4.264   6.762 -0.6616 -0.0748 -0.7646
 2264SOL     OW 7690   0.279   1.252   6.124 -0.2158 -0.2477 -0.0506
 2264SOL    HW1 7691   0.326   1.193   6.189 -0.4087  0.4554  0.7384
 2264SOL    HW2 7692   0.345   1.288   6.058  0.7951  2.2354  2.1582
 2265SOL     OW 7693   0.648   6.187   3.690 -0.2367 -0.0795  0.1180
 2265SOL    HW1 7694   0.680   6.264   3.634  0.6885 -0.7698 -0.3245
 2265SOL    HW2 7695   0.549   6.193   3.701 -0.4451  0.0859 -1.6001
 2266SOL     OW 7696   4.107   4.019   6.008  0.0390 -0.9580 -0.2848
 2266SOL    HW1 7697   4.171   4.070   5.951 -1.1859 -0.6521 -1.4375
 2266SOL    HW2 7698   4.141   4.016   6.102  0.9219  0.6091 -0.5222
 2267SOL     OW 7699   4.943   2.697   4.510  0.4215  0.3483 -0.1389
 2267SOL    HW1 7700   5.016   2.761   4.487  2.5037 -1.6123  0.7653
 2267SOL    HW2 7701   4.929   2.634   4.434 -0.9786  1.1930 -0.6400
 2268SOL     OW 7702   0.459   0.162   5.176  0.3592 -0.2018 -0.3103
 2268SOL    HW1 7703   0.374   0.193   5.217 -0.9822  0.5989 -3.4292
 2268SOL    HW2 7704   0.456   0.062   5.165  1.4949 -0.7052  2.8798
 2269SOL     OW 7705   6.793   0.846   5.245 -0.1955  0.0528 -0.2371
 2269SOL    HW1 7706   6.882   0.843   5.200  0.1241  1.2187  0.2893
 2269SOL    HW2 7707   6.788   0.774   5.315  0.2018 -0.2233 -0.4917
 2270SOL     OW 7708   5.694   1.457   6.950  0.2555  0.4840 -0.1915
 2270SOL    HW1 7709   5.638   1.477   6.870 -0.0580  2.2851  0.4241
 2270SOL    HW2 7710   5.775   1.516   6.949  0.7703 -0.2004  0.3002
 2271SOL     OW 7711   3.006   5.081   3.514 -0.1135  0.2730  0.7297
 2271SOL    HW1 7712   3.033   5.046   3.603 -0.3295  1.0040  1.0927
 2271SOL    HW2 7713   3.038   5.175   3.503  2.3478 -0.6647 -1.0918
 2272SOL     OW 7714   2.224   1.205   4.282 -0.6423 -0.4518  0.2675
 2272SOL    HW1 7715   2.207   1.228   4.378 -0.8798 -0.1889  0.1654
 2272SOL    HW2 7716   2.322   1.213   4.263 -0.6647  0.0701  0.3453
 2273SOL     OW 7717   1.933   2.578   4.586  0.2812 -0.1056  0.6642
 2273SOL    HW1 7718   2.029   2.559   4.609  0.2713  0.5729  1.3363
 2273SOL    HW2 7719   1.882   2.492   4.581  0.9130 -0.4680  0.3639
 2274SOL     OW 7720   1.118   1.988   5.827 -0.7350  0.1832  0.8253
 2274SOL    HW1 7721   1.115   1.960   5.923 -0.9003  0.5057  0.9174
 2274SOL    HW2 7722   1.144   2.085   5.822 -0.8682  0.2058  0.5530
 2275SOL     OW 7723   6.338   3.156   3.883  0.4906  0.1672  0.1842
 2275SOL    HW1 7724   6.406   3.227   3.904  2.0366 -0.6832 -1.7398
 2275SOL    HW2 7725   6.346   3.082   3.950  3.0906 -0.9836 -1.2814
 2276SOL     OW 7726   6.465   2.360   1.293 -0.3947 -0.3312 -0.1748
 2276SOL    HW1 7727   6.372   2.370   1.330 -0.0362  0.1696  0.6010
 2276SOL    HW2 7728   6.531   2.400   1.356  0.4797 -1.7400 -0.1439
 2277SOL     OW 7729   4.143   3.879   1.863 -0.2935 -0.3451 -0.0869
 2277SOL    HW1 7730   4.171   3.894   1.958 -0.9346 -1.3713  0.2852
 2277SOL    HW2 7731   4.043   3.872   1.859 -0.3093  0.2019 -0.9287
 2278SOL     OW 7732   0.023   2.530   4.506  0.5231  0.1967 -0.5840
 2278SOL    HW1 7733   0.119   2.546   4.529  1.0514 -0.9669 -1.8581
 2278SOL    HW2 7734  -0.011   2.451   4.558  0.9151 -0.7381 -1.7149
 2279SOL     OW 7735   1.023   5.801   5.550  0.5801 -0.0302  0.2445
 2279SOL    HW1 7736   1.016   5.765   5.456 -0.1708  0.5126  0.0803
 2279SOL    HW2 7737   1.106   5.766   5.593  0.7741 -0.5379 -0.5175
 2280SOL     OW 7738   5.562   2.948   5.420  0.1096  0.3251  0.0326
 2280SOL    HW1 7739   5.510   2.982   5.498  1.3046  2.7103 -0.1033
 2280SOL    HW2 7740   5.550   3.011   5.343  1.2444 -0.4232 -0.7814
 2281SOL     OW 7741   5.920   6.887   0.943  0.3573 -0.0089  0.7423
 2281SOL    HW1 7742   5.963   6.797   0.943 -0.6785 -0.5330 -0.4071
 2281SOL    HW2 7743   5.909   6.919   0.849  0.8164  1.3793  1.1466
 2282SOL     OW 7744   2.506   5.296   4.043  0.5279  0.2538 -0.3998
 2282SOL    HW1 7745   2.410   5.318   4.062  0.3995 -0.7147  0.1513
 2282SOL    HW2 7746   2.565   5.363   4.088  0.1622 -0.8115  1.8397
 2283SOL     OW 7747   0.597   5.921   5.104  0.0565  0.9081  0.2273
 2283SOL    HW1 7748   0.586   5.859   5.026 -1.0861  1.7238 -0.2858
 2283SOL    HW2 7749   0.695   5.935   5.121  0.3314 -0.3589 -0.1677
 2284SOL     OW 7750   1.410   4.568   6.913 -0.3491  0.4607  0.4198
 2284SOL    HW1 7751   1.363   4.553   6.825 -0.1561  0.4733  0.3146
 2284SOL    HW2 7752   1.440   4.663   6.919  1.9227 -0.1089 -0.6339
 2285SOL     OW 7753   2.464   4.441   0.167 -0.5393  0.2571 -0.4816
 2285SOL    HW1 7754   2.512   4.395   0.241  0.6227 -0.7759 -1.8397
 2285SOL    HW2 7755   2.371   4.405   0.160 -0.6814  0.4029  0.4739
 2286SOL     OW 7756   4.242   4.751   1.134  0.8957  0.2270  0.4144
 2286SOL    HW1 7757   4.245   4.825   1.066 -1.0606  0.2094  0.2476
 2286SOL    HW2 7758   4.228   4.664   1.087 -0.7986  0.2530  0.8083
 2287SOL     OW 7759   3.847   0.882   5.192 -0.4652 -0.0187  0.2794
 2287SOL    HW1 7760   3.804   0.843   5.273  0.0299 -2.0100 -0.3526
 2287SOL    HW2 7761   3.902   0.962   5.218 -0.5405 -0.4467  1.8399
 2288SOL     OW 7762   6.236   6.286   2.259  0.2526  0.0146 -0.3550
 2288SOL    HW1 7763   6.242   6.284   2.358  0.8436 -0.2234 -0.3891
 2288SOL    HW2 7764   6.327   6.306   2.220 -0.2471  1.4940 -0.8092
 2289SOL     OW 7765   0.409   4.386   2.028 -0.0059 -0.4685 -0.0989
 2289SOL    HW1 7766   0.417   4.418   2.122  1.2678 -1.0690  0.0288
 2289SOL    HW2 7767   0.330   4.326   2.020  0.0938 -0.7210  0.6938
 2290SOL     OW 7768   6.960   5.818   0.302  0.5234  0.2776  0.3792
 2290SOL    HW1 7769   6.987   5.845   0.395 -0.4767  1.8030  0.2615
 2290SOL    HW2 7770   6.946   5.900   0.247 -1.6770 -0.4908 -0.3163
 2291SOL     OW 7771   1.318   2.174   0.335 -0.2727  0.3927  0.4023
 2291SOL    HW1 7772   1.259   2.110   0.384 -0.8608  1.6256  1.3619
 2291SOL    HW2 7773   1.262   2.230   0.274 -0.1474  1.6027  1.3505
 2292SOL     OW 7774   2.487   1.496   4.585 -0.2634 -0.5588  0.2312
 2292SOL    HW1 7775   2.495   1.595   4.572  0.3401 -0.6766 -0.3032
 2292SOL    HW2 7776   2.422   1.478   4.659 -0.2517  0.2419  0.4471
 2293SOL     OW 7777   4.891   3.354   3.668  0.1607 -0.4974 -0.9924
 2293SOL    HW1 7778   4.800   3.313   3.659  0.3074 -1.0949  0.0412
 2293SOL    HW2 7779   4.937   3.354   3.579 -1.1038  0.4618 -1.6798
 2294SOL     OW 7780   2.448   6.460   6.921 -0.7550  0.1865 -0.3236
 2294SOL    HW1 7781   2.404   6.541   6.882  1.3883  1.2490 -0.6851
 2294SOL    HW2 7782   2.538   6.448   6.880  0.3804 -0.3851  2.1804
 2295SOL     OW 7783   5.691   4.225   3.118 -0.5193  0.5098  0.0191
 2295SOL    HW1 7784   5.695   4.320   3.087 -0.3195  0.5499  0.1608
 2295SOL    HW2 7785   5.613   4.213   3.179 -0.8544  0.4545 -0.4146
 2296SOL     OW 7786   1.863   0.097   6.850  0.2603 -0.1005 -0.0204
 2296SOL    HW1 7787   1.868   0.125   6.754 -1.0417 -1.0290 -0.3888
 2296SOL    HW2 7788   1.956   0.088   6.887  0.7634  1.2505 -0.8793
 2297SOL     OW 7789   0.973   5.865   6.576  0.3209 -0.2341  0.5257
 2297SOL    HW1 7790   0.897   5.828   6.522 -0.7623 -0.3802  2.0884
 2297SOL    HW2 7791   1.040   5.793   6.592 -1.2636 -1.3600  2.6432
 2298SOL     OW 7792   5.125   2.855   1.228  0.8537 -0.0426  0.0172
 2298SOL    HW1 7793   5.101   2.780   1.167  0.1100  1.1041 -1.1451
 2298SOL    HW2 7794   5.201   2.906   1.189  0.3440  0.7231 -0.0003
 2299SOL     OW 7795   3.689   0.749   2.339  0.0881 -0.2170 -0.2710
 2299SOL    HW1 7796   3.655   0.746   2.433 -0.6813 -0.4279 -0.5480
 2299SOL    HW2 7797   3.657   0.833   2.295  0.6404 -0.0074 -0.2756
 2300SOL     OW 7798   6.454   4.842   1.808 -0.0754  0.3350 -0.0645
 2300SOL    HW1 7799   6.427   4.890   1.891 -0.9604 -2.4695  1.3974
 2300SOL    HW2 7800   6.457   4.906   1.731 -3.6341  2.2320  1.1993
 2301SOL     OW 7801   4.172   1.979   1.938  0.7061 -0.4306  0.3900
 2301SOL    HW1 7802   4.119   2.060   1.964  0.9668 -0.4386  0.9682
 2301SOL    HW2 7803   4.167   1.911   2.011 -0.0217 -1.2050 -0.3580
 2302SOL     OW 7804   4.162   5.421   2.604 -0.0614  0.0965  0.0959
 2302SOL    HW1 7805   4.175   5.395   2.508  1.7305  0.5918  0.1698
 2302SOL    HW2 7806   4.119   5.511   2.609 -0.9807 -0.3134 -0.2155
 2303SOL     OW 7807   0.315   3.479   4.750 -0.2422 -0.1747 -0.3543
 2303SOL    HW1 7808   0.307   3.551   4.818  1.9270 -0.5423  0.3682
 2303SOL    HW2 7809   0.321   3.390   4.795  0.4764 -0.4927 -1.0509
 2304SOL     OW 7810   1.071   1.548   5.711  0.3623  0.4436 -0.3407
 2304SOL    HW1 7811   0.982   1.520   5.677  0.7266 -0.0819 -0.8840
 2304SOL    HW2 7812   1.084   1.646   5.696  0.3340  0.3040 -1.2981
 2305SOL     OW 7813   3.557   5.466   0.575 -0.0717 -0.0115 -0.2404
 2305SOL    HW1 7814   3.552   5.461   0.475  0.1834  0.1114 -0.2598
 2305SOL    HW2 7815   3.465   5.460   0.613 -0.3581  1.6751 -0.5642
 2306SOL     OW 7816   6.794   5.499   0.162  0.2677 -0.1018 -0.7847
 2306SOL    HW1 7817   6.853   5.537   0.233  0.2073  0.5572 -1.0838
 2306SOL    HW2 7818   6.701   5.488   0.198  0.7667 -2.1063  0.0176
 2307SOL     OW 7819   0.827   1.406   2.596 -0.5928 -0.6352  0.4530
 2307SOL    HW1 7820   0.800   1.502   2.608  0.9336  0.1053 -1.4693
 2307SOL    HW2 7821   0.887   1.379   2.671 -0.6104  0.0848  0.7389
 2308SOL     OW 7822   0.967   6.967   6.271 -0.4544  0.0965 -0.8471
 2308SOL    HW1 7823   0.874   6.953   6.237 -0.2136  0.5425 -1.7293
 2308SOL    HW2 7824   0.981   6.914   6.355 -2.3518  2.0583  0.8112
 2309SOL     OW 7825   1.562   6.459   4.893  0.2958 -0.0226 -0.0714
 2309SOL    HW1 7826   1.566   6.513   4.809  1.8048 -0.1131 -0.0806
 2309SOL    HW2 7827   1.652   6.421   4.913 -0.2874 -0.9058  1.0115
 2310SOL     OW 7828   4.513   1.217   3.581 -0.7319  0.6917  0.5439
 2310SOL    HW1 7829   4.575   1.143   3.607  0.5478  1.4347 -0.2627
 2310SOL    HW2 7830   4.441   1.182   3.520 -0.0086  0.1451 -0.0091
 2311SOL     OW 7831   5.274   0.059   1.873  0.2775 -0.1373  0.7305
 2311SOL    HW1 7832   5.199   0.125   1.868 -1.1450 -1.7400 -0.2998
 2311SOL    HW2 7833   5.268  -0.004   1.795  1.4348 -1.6139  1.7771
 2312SOL     OW 7834   3.323   6.741   2.213 -0.0363  0.0040 -0.4148
 2312SOL    HW1 7835   3.421   6.740   2.234  0.2669  1.1476 -1.5868
 2312SOL    HW2 7836   3.304   6.679   2.137 -0.1829 -0.0421 -0.3412
 2313SOL     OW 7837   3.826   0.094   2.239  0.2978  0.0594 -0.1979
 2313SOL    HW1 7838   3.734   0.060   2.221  0.1602  0.1185  0.3731
 2313SOL    HW2 7839   3.866   0.043   2.316  0.4712  0.5013  0.0116
 2314SOL     OW 7840   5.585   5.866   0.457 -0.2309  0.2085 -0.7277
 2314SOL    HW1 7841   5.622   5.774   0.472 -0.5193 -0.0867 -1.7689
 2314SOL    HW2 7842   5.568   5.880   0.360 -1.0941  1.0184 -0.4741
 2315SOL     OW 7843   5.277   0.777   5.896 -0.0291  0.1244  0.0839
 2315SOL    HW1 7844   5.240   0.788   5.989 -0.7301 -0.4723 -0.1069
 2315SOL    HW2 7845   5.365   0.731   5.901  0.5274  1.2150  0.5299
 2316SOL     OW 7846   5.424   3.783   4.876  0.3312  0.4897 -0.1142
 2316SOL    HW1 7847   5.502   3.737   4.919 -0.6919 -0.8045  0.4161
 2316SOL    HW2 7848   5.426   3.767   4.777  0.3280 -0.1642 -0.0090
 2317SOL     OW 7849   0.434   4.499   2.712  0.5986  0.2485 -0.0825
 2317SOL    HW1 7850   0.449   4.415   2.660  2.3006  0.8082 -0.5423
 2317SOL    HW2 7851   0.428   4.576   2.649 -2.4578  0.3652  0.2133
 2318SOL     OW 7852   0.557   4.223   3.523 -0.4911 -0.0541 -0.0074
 2318SOL    HW1 7853   0.585   4.319   3.521  0.0860 -0.2300 -0.5435
 2318SOL    HW2 7854   0.513   4.203   3.610 -0.3341  0.6216  0.2304
 2319SOL     OW 7855   3.091   5.978   3.332 -0.0507  0.0134  0.0622
 2319SOL    HW1 7856   3.166   5.924   3.294  0.2145 -0.2174  0.8741
 2319SOL    HW2 7857   3.102   5.985   3.431  0.1696  1.9700 -0.0629
 2320SOL     OW 7858   3.055   2.784   5.335 -0.0900  0.3867  0.3308
 2320SOL    HW1 7859   3.018   2.695   5.308 -1.2647  1.5730 -2.2788
 2320SOL    HW2 7860   3.134   2.806   5.278 -0.2757  1.3495  0.4224
 2321SOL     OW 7861   1.032   4.987   5.897 -0.6651  0.2649  0.5318
 2321SOL    HW1 7862   1.024   5.086   5.885 -2.2506  0.1048  0.0702
 2321SOL    HW2 7863   0.955   4.954   5.952  1.0395 -0.4332  2.6500
 2322SOL     OW 7864   1.481   2.829   1.725 -0.0362  0.9713  0.1903
 2322SOL    HW1 7865   1.438   2.915   1.752  0.3499  0.8725  1.1662
 2322SOL    HW2 7866   1.574   2.825   1.761 -0.3738 -0.2521  1.0101
 2323SOL     OW 7867   2.972   0.245   0.678  0.3135  0.4165  0.1864
 2323SOL    HW1 7868   2.897   0.310   0.694  0.3171  0.5380 -0.2860
 2323SOL    HW2 7869   3.055   0.278   0.723 -0.2627 -0.4588  2.0247
 2324SOL     OW 7870   1.242   4.720   1.109 -1.0483  0.1121  0.1568
 2324SOL    HW1 7871   1.194   4.673   1.183 -0.9109  2.2809  1.7185
 2324SOL    HW2 7872   1.268   4.654   1.039 -2.6446 -1.7652  1.2311
 2325SOL     OW 7873   6.108   3.022   5.783 -0.4838  0.0167  0.3329
 2325SOL    HW1 7874   6.070   2.930   5.777  3.0020 -1.5407  0.0149
 2325SOL    HW2 7875   6.125   3.045   5.879  0.4761 -0.5203  0.2992
 2326SOL     OW 7876   2.380   6.014   1.885 -0.6640  0.7470  0.1127
 2326SOL    HW1 7877   2.345   5.968   1.967 -1.1550  0.4197 -0.2753
 2326SOL    HW2 7878   2.478   5.994   1.876 -0.4020  1.4937  1.0865
 2327SOL     OW 7879   4.924   5.401   2.362 -0.4328 -0.3608  0.1935
 2327SOL    HW1 7880   4.875   5.317   2.342  0.4894 -1.0164  0.6086
 2327SOL    HW2 7881   4.877   5.451   2.435 -2.4596  0.8372 -1.8197
 2328SOL     OW 7882   1.355   2.369   3.261  0.3997  0.2015 -0.1068
 2328SOL    HW1 7883   1.388   2.294   3.319  0.4891  0.4029  0.1076
 2328SOL    HW2 7884   1.269   2.343   3.218 -0.2745  0.4845  1.0384
 2329SOL     OW 7885   0.976   5.058   1.924  0.5535 -0.4058 -0.3349
 2329SOL    HW1 7886   0.992   4.973   1.974 -0.3884 -0.1050  0.5118
 2329SOL    HW2 7887   1.061   5.109   1.915  0.9491 -1.0072 -0.0450
 2330SOL     OW 7888   6.457   4.532   3.014  0.2817 -0.2543  0.1461
 2330SOL    HW1 7889   6.519   4.550   3.090 -1.7474  0.6862  1.6807
 2330SOL    HW2 7890   6.499   4.467   2.951  2.1452 -0.8664  1.9160
 2331SOL     OW 7891   4.661   6.229   0.972  0.2479 -0.1714  0.0872
 2331SOL    HW1 7892   4.587   6.289   1.001 -0.4167  0.0314 -1.8589
 2331SOL    HW2 7893   4.627   6.135   0.966  1.2016 -0.7902  2.8201
 2332SOL     OW 7894   0.168   0.837   5.979 -0.0142 -0.0153  0.1480
 2332SOL    HW1 7895   0.209   0.765   5.924 -0.2241 -1.6656  2.0154
 2332SOL    HW2 7896   0.197   0.827   6.074 -0.2569  2.2598  0.5201
 2333SOL     OW 7897   1.627   5.125   2.229 -0.3131 -0.3037 -0.2973
 2333SOL    HW1 7898   1.643   5.147   2.133 -0.4359 -0.6185 -0.3897
 2333SOL    HW2 7899   1.713   5.131   2.279  0.1641 -2.1951 -0.8315
 2334SOL     OW 7900   4.043   2.353   6.634 -0.5850 -0.0811 -0.1339
 2334SOL    HW1 7901   4.011   2.261   6.657  0.1750 -0.3223 -0.0102
 2334SOL    HW2 7902   4.034   2.367   6.535 -0.5072 -0.3707 -0.1854
 2335SOL     OW 7903   6.183   6.362   3.332  0.1395 -0.2722 -0.1978
 2335SOL    HW1 7904   6.243   6.314   3.396  0.8421  0.5996 -0.1878
 2335SOL    HW2 7905   6.125   6.426   3.382  1.4613  1.2153 -0.5152
 2336SOL     OW 7906   2.075   1.254   2.368 -0.5088 -0.2938 -0.3589
 2336SOL    HW1 7907   2.067   1.162   2.331  0.3309  0.0514 -1.4334
 2336SOL    HW2 7908   2.053   1.321   2.297  2.9289  0.4439 -0.8817
 2337SOL     OW 7909   4.100   3.169   1.418 -0.2422  0.3976  0.3257
 2337SOL    HW1 7910   4.017   3.162   1.473 -1.5765  2.3083 -1.2897
 2337SOL    HW2 7911   4.079   3.142   1.324  1.4869 -0.9286  0.2866
 2338SOL     OW 7912   0.220   2.522   2.364  0.2932 -0.0231  0.1197
 2338SOL    HW1 7913   0.293   2.589   2.375  0.4434 -0.4468  1.9631
 2338SOL    HW2 7914   0.259   2.434   2.337  0.1455  0.4153 -1.7245
 2339SOL     OW 7915   3.176   4.072   1.330  0.0164 -0.2790  0.0687
 2339SOL    HW1 7916   3.180   4.170   1.312 -0.5646 -0.3616 -0.5547
 2339SOL    HW2 7917   3.097   4.052   1.388 -0.6968 -0.5313 -0.9573
 2340SOL     OW 7918   1.991   4.516   0.115 -0.4769  0.5333  0.2814
 2340SOL    HW1 7919   1.899   4.525   0.077 -1.2940  1.8185  2.3966
 2340SOL    HW2 7920   2.035   4.606   0.117  0.7187 -0.0135 -0.3910
 2341SOL     OW 7921   3.133   4.880   2.761 -0.0030  0.2166 -0.3530
 2341SOL    HW1 7922   3.133   4.780   2.768  1.0798  0.2057 -0.2895
 2341SOL    HW2 7923   3.181   4.919   2.840 -2.4549  0.9286  0.9012
 2342SOL     OW 7924   3.003   1.514   5.388 -0.1428  0.0774 -0.1850
 2342SOL    HW1 7925   3.065   1.562   5.449  1.1705  0.6767 -1.9088
 2342SOL    HW2 7926   2.929   1.576   5.360  0.0298  0.2364 -0.2892
 2343SOL     OW 7927   5.404   1.270   2.753 -0.8772 -0.5876  0.1059
 2343SOL    HW1 7928   5.311   1.260   2.788 -0.4518 -1.6071  1.0197
 2343SOL    HW2 7929   5.423   1.197   2.687 -0.5809 -0.6741  0.2822
 2344SOL     OW 7930   6.855   5.485   0.662 -0.4988 -0.2380 -0.1118
 2344SOL    HW1 7931   6.768   5.440   0.681 -0.3099 -0.1901  0.9877
 2344SOL    HW2 7932   6.901   5.440   0.586 -1.3879 -0.3951 -0.5594
 2345SOL     OW 7933   3.821   5.395   1.836 -0.6088 -0.2194  0.1168
 2345SOL    HW1 7934   3.776   5.428   1.753  1.0353 -2.9609 -2.0493
 2345SOL    HW2 7935   3.915   5.369   1.815 -0.3428 -1.7130  2.6701
 2346SOL     OW 7936   5.461   2.513   0.392 -0.0400 -0.0671 -0.4220
 2346SOL    HW1 7937   5.415   2.428   0.419  1.6319 -0.7217  0.5015
 2346SOL    HW2 7938   5.393   2.579   0.363 -1.3694 -1.8768 -1.6617
 2347SOL     OW 7939   2.803   0.788   1.230 -0.9133 -0.3438 -0.6276
 2347SOL    HW1 7940   2.759   0.718   1.174 -0.7079 -0.4838 -0.6146
 2347SOL    HW2 7941   2.774   0.879   1.199 -0.1652 -0.3931 -1.5035
 2348SOL     OW 7942   0.775   5.209   1.996  0.3859 -0.3809 -0.2182
 2348SOL    HW1 7943   0.697   5.179   1.940 -0.1570 -0.2948  0.4773
 2348SOL    HW2 7944   0.858   5.162   1.966  0.4871  0.9882 -2.2963
 2349SOL     OW 7945   2.143   4.635   4.093 -0.6910 -0.4188 -0.5539
 2349SOL    HW1 7946   2.211   4.614   4.024 -0.8957  2.5643 -1.8105
 2349SOL    HW2 7947   2.083   4.708   4.060  0.1034  2.2699  3.1895
 2350SOL     OW 7948   5.403   4.836   0.736 -0.2336  0.3814 -0.1147
 2350SOL    HW1 7949   5.346   4.884   0.668  0.9741  1.1203 -0.6456
 2350SOL    HW2 7950   5.484   4.799   0.691  0.6941  1.0551  0.9587
 2351SOL     OW 7951   3.522   5.786   2.717 -0.2370  0.0157  0.4499
 2351SOL    HW1 7952   3.561   5.746   2.633 -1.8010  0.7639 -0.6770
 2351SOL    HW2 7953   3.450   5.726   2.752  0.3349 -0.2376  1.2366
 2352SOL     OW 7954   0.458   0.978   4.392  0.0734 -0.8237 -0.5886
 2352SOL    HW1 7955   0.389   0.997   4.322 -0.0376 -1.4074 -0.6478
 2352SOL    HW2 7956   0.434   0.894   4.440 -1.3183  0.9648  2.0431
 2353SOL     OW 7957   2.355   5.845   5.252  0.0486  0.7229 -0.4773
 2353SOL    HW1 7958   2.377   5.832   5.155 -1.1568  0.3474 -0.7147
 2353SOL    HW2 7959   2.428   5.806   5.308  0.2918  0.0607 -1.2344
 2354SOL     OW 7960   1.860   2.329   4.487 -0.2001 -0.4701 -0.4659
 2354SOL    HW1 7961   1.933   2.291   4.430  0.4668  1.8757 -1.3251
 2354SOL    HW2 7962   1.772   2.318   4.441  0.0463 -0.5153 -0.9324
 2355SOL     OW 7963   1.751   6.460   0.060  0.3357 -0.0874 -0.1050
 2355SOL    HW1 7964   1.776   6.534   0.122  0.3298 -0.5762  0.4953
 2355SOL    HW2 7965   1.657   6.432   0.077  0.0083  0.4209 -1.0074
 2356SOL     OW 7966   6.997   1.863   6.698  0.2156  0.1390 -0.2687
 2356SOL    HW1 7967   6.912   1.907   6.726  0.7878  0.7835  0.5021
 2356SOL    HW2 7968   7.075   1.910   6.741  0.8932 -1.0912 -0.0987
 2357SOL     OW 7969   1.493   6.776   4.128  0.4661 -0.6242  0.5130
 2357SOL    HW1 7970   1.474   6.866   4.166  1.9282 -0.3158  0.5784
 2357SOL    HW2 7971   1.519   6.785   4.032  1.1849 -0.8959  0.6729
 2358SOL     OW 7972   2.903   5.249   0.061  1.2649  0.5896 -0.6780
 2358SOL    HW1 7973   2.813   5.288   0.081 -0.3613 -3.8078  1.9679
 2358SOL    HW2 7974   2.901   5.206  -0.030  0.8074  0.8503 -0.7947
 2359SOL     OW 7975   0.818   6.953   5.168 -0.5693 -0.0777  0.7805
 2359SOL    HW1 7976   0.799   7.045   5.132 -0.3930 -0.4682 -0.3470
 2359SOL    HW2 7977   0.908   6.953   5.213 -1.2629  0.6830  2.2317
 2360SOL     OW 7978   1.025   3.799   0.223  0.2834 -0.6218 -0.4023
 2360SOL    HW1 7979   1.112   3.805   0.271 -0.6359  0.0414  1.2533
 2360SOL    HW2 7980   1.008   3.885   0.174  1.2792 -1.3435 -2.1212
 2361SOL     OW 7981   3.751   1.330   0.435  0.6412  0.5382 -0.3487
 2361SOL    HW1 7982   3.838   1.294   0.402  2.8423  6.0537 -1.6356
 2361SOL    HW2 7983   3.685   1.334   0.360 -0.4618 -2.3981  0.3223
 2362SOL     OW 7984   1.872   6.698   4.132  0.3681 -0.2669 -0.1523
 2362SOL    HW1 7985   1.802   6.635   4.164 -1.2476  0.7368 -1.5558
 2362SOL    HW2 7986   1.957   6.648   4.113  0.3205 -1.3965  2.2320
 2363SOL     OW 7987   3.742   1.782   2.884  0.0152 -0.1689 -0.3045
 2363SOL    HW1 7988   3.760   1.824   2.795 -1.5253 -0.1966 -0.6680
 2363SOL    HW2 7989   3.788   1.693   2.889 -1.3724 -1.0342 -1.8569
 2364SOL     OW 7990   0.967   1.660   2.143 -0.2791  0.1842  0.3456
 2364SOL    HW1 7991   1.033   1.690   2.075 -0.0432  2.6359  1.5089
 2364SOL    HW2 7992   0.887   1.720   2.140 -1.2301 -1.0296  0.7819
 2365SOL     OW 7993   3.438   0.167   1.498  0.1497 -0.1153 -0.0355
 2365SOL    HW1 7994   3.365   0.100   1.486  0.3113 -0.5940  1.4903
 2365SOL    HW2 7995   3.459   0.209   1.410 -1.7333 -0.1994 -0.5640
 2366SOL     OW 7996   4.543   5.029   0.125  0.5315 -0.4131 -0.5102
 2366SOL    HW1 7997   4.463   5.084   0.149 -0.0046 -0.7718 -1.4278
 2366SOL    HW2 7998   4.538   4.941   0.172  0.1118 -0.6336 -0.9501
 2367SOL     OW 7999   3.737   3.785   5.794 -0.6126 -0.2490 -0.0444
 2367SOL    HW1 8000   3.682   3.734   5.727 -0.9308  0.2101 -0.1327
 2367SOL    HW2 8001   3.715   3.882   5.789  2.6257  0.5662 -2.5342
 2368SOL     OW 8002   4.875   0.379   1.589 -0.2268  0.2193 -0.0317
 2368SOL    HW1 8003   4.853   0.398   1.493  3.0465 -2.2395 -1.4556
 2368SOL    HW2 8004   4.818   0.304   1.622 -0.3973  0.1352 -0.5108
 2369SOL     OW 8005   2.325   1.473   2.521  0.2466 -0.0581  0.5239
 2369SOL    HW1 8006   2.251   1.494   2.456  1.0230 -1.2840 -0.8059
 2369SOL    HW2 8007   2.299   1.393   2.576 -0.2668  0.7748  1.5235
 2370SOL     OW 8008   0.137   3.599   0.427 -0.2074  0.5570  0.1844
 2370SOL    HW1 8009   0.187   3.684   0.412 -1.7050  1.4208 -0.1153
 2370SOL    HW2 8010   0.092   3.571   0.343 -1.3448  0.5650  0.7617
 2371SOL     OW 8011   3.290   5.336   3.273  0.4460  0.4127 -0.3702
 2371SOL    HW1 8012   3.363   5.268   3.271 -0.4541 -0.6234  0.7878
 2371SOL    HW2 8013   3.253   5.349   3.181  0.4146 -0.9122 -0.5591
 2372SOL     OW 8014   5.369   2.215   5.361 -0.2723  0.1310  0.0324
 2372SOL    HW1 8015   5.291   2.155   5.381 -0.2237  0.5309  1.5310
 2372SOL    HW2 8016   5.406   2.251   5.447 -0.2506  2.2576 -0.8127
 2373SOL     OW 8017   2.205   4.530   1.364  0.5874  0.1181 -0.0775
 2373SOL    HW1 8018   2.227   4.457   1.429  1.0839  0.6605  0.3806
 2373SOL    HW2 8019   2.131   4.586   1.401 -0.0929 -0.4159 -0.6305
 2374SOL     OW 8020   5.210   1.406   5.155 -0.5461 -0.5056  0.2097
 2374SOL    HW1 8021   5.276   1.350   5.205 -0.2091 -0.0580  0.2691
 2374SOL    HW2 8022   5.119   1.364   5.162 -0.5791 -0.2458  1.5150
 2375SOL     OW 8023   7.024   6.428   5.323 -0.2018  0.0315 -0.6612
 2375SOL    HW1 8024   7.034   6.368   5.402 -0.6342  0.1886 -0.4795
 2375SOL    HW2 8025   6.978   6.379   5.249  3.2612 -1.2493 -2.1371
 2376SOL     OW 8026   1.269   2.578   3.438  0.4747 -0.2527 -0.5117
 2376SOL    HW1 8027   1.185   2.536   3.472  1.6268 -1.4783  1.0309
 2376SOL    HW2 8028   1.313   2.516   3.373  0.8348 -0.2150 -0.3062
 2377SOL     OW 8029   3.287   3.579   3.195  0.4604  1.0628  0.7980
 2377SOL    HW1 8030   3.207   3.589   3.255  1.8700 -0.4469  3.1145
 2377SOL    HW2 8031   3.332   3.667   3.184  0.6288  1.2583  2.7402
 2378SOL     OW 8032   6.890   2.542   0.240  0.4887  0.1627 -0.2043
 2378SOL    HW1 8033   6.895   2.478   0.163  0.3551  0.6650 -0.6385
 2378SOL    HW2 8034   6.868   2.633   0.205 -0.5891  0.2062  0.5240
 2379SOL     OW 8035   4.127   6.618   6.119 -0.5330 -0.4236  0.1778
 2379SOL    HW1 8036   4.122   6.712   6.084 -1.6333  0.3493  2.2807
 2379SOL    HW2 8037   4.044   6.568   6.093  0.2692 -1.0214 -1.3688
 2380SOL     OW 8038   5.688   2.481   4.788 -0.5977  0.0967  0.3161
 2380SOL    HW1 8039   5.763   2.506   4.726  0.2477  2.3953  2.1227
 2380SOL    HW2 8040   5.601   2.514   4.751 -0.3974 -0.3769 -0.6008
 2381SOL     OW 8041   2.040   6.015   2.476 -0.0993 -0.1907  0.1284
 2381SOL    HW1 8042   1.965   5.958   2.444  0.4831 -0.5056 -0.7152
 2381SOL    HW2 8043   2.072   6.073   2.401  0.9244 -0.5286  0.2833
 2382SOL     OW 8044   1.744   2.722   6.584 -0.8423 -0.3252  0.1742
 2382SOL    HW1 8045   1.791   2.655   6.642 -0.4139  1.5169  2.0573
 2382SOL    HW2 8046   1.811   2.781   6.540 -1.2487 -0.7108 -1.0041
 2383SOL     OW 8047   6.260   5.380   2.785  0.1249 -0.0856  0.1103
 2383SOL    HW1 8048   6.251   5.406   2.882  1.3665 -0.7007  0.4126
 2383SOL    HW2 8049   6.357   5.368   2.763 -0.0696  1.1974 -1.5381
 2384SOL     OW 8050   4.251   0.337   2.822 -0.4101 -0.0623  0.0611
 2384SOL    HW1 8051   4.279   0.275   2.748 -1.9049 -0.0023 -0.5798
 2384SOL    HW2 8052   4.278   0.297   2.910  1.9816  0.1698 -0.4859
 2385SOL     OW 8053   0.476   2.478   0.746 -0.6387  0.3025 -0.1097
 2385SOL    HW1 8054   0.455   2.572   0.719 -1.3997 -0.1678 -1.2321
 2385SOL    HW2 8055   0.559   2.447   0.700 -0.5458  0.3222  0.0418
 2386SOL     OW 8056   2.647   5.941   1.872  0.1465 -0.3880  0.0499
 2386SOL    HW1 8057   2.688   5.855   1.840  1.0671  0.1914 -0.3655
 2386SOL    HW2 8058   2.719   6.010   1.881 -0.7719  0.7175 -0.8609
 2387SOL     OW 8059   6.919   4.041   1.576 -1.1650  0.3925  0.2363
 2387SOL    HW1 8060   6.905   4.041   1.477 -1.1902  0.9462  0.2344
 2387SOL    HW2 8061   6.952   4.131   1.604  2.6037 -0.8240  0.2401
 2388SOL     OW 8062   6.880   1.915   4.357 -0.1593 -0.1926  0.0380
 2388SOL    HW1 8063   6.897   1.920   4.259  3.1531 -0.2949  0.4908
 2388SOL    HW2 8064   6.871   2.007   4.395 -1.8023 -0.1606 -0.3540
 2389SOL     OW 8065   2.963   5.320   2.004 -0.2518  0.3406  0.3000
 2389SOL    HW1 8066   3.062   5.330   2.014  0.0266  2.3665 -2.8139
 2389SOL    HW2 8067   2.917   5.362   2.082  1.4191  3.7515 -0.3417
 2390SOL     OW 8068   4.583   4.359   0.209 -0.5552  0.1330 -0.0255
 2390SOL    HW1 8069   4.576   4.260   0.206  1.2782 -0.1837  2.3667
 2390SOL    HW2 8070   4.496   4.398   0.239 -1.9911 -0.4788 -3.1114
 2391SOL     OW 8071   2.894   6.379   4.827 -0.1640  0.3246  0.2503
 2391SOL    HW1 8072   2.913   6.282   4.845  1.1090  0.5777  0.3498
 2391SOL    HW2 8073   2.976   6.433   4.844 -0.6924  1.3617 -0.3710
 2392SOL     OW 8074   3.752   1.504   0.634  0.9386  0.0048  0.3748
 2392SOL    HW1 8075   3.802   1.582   0.597 -1.2726  1.4984  0.3108
 2392SOL    HW2 8076   3.742   1.435   0.563  4.8437 -1.5006  1.0416
 2393SOL     OW 8077   2.119   5.007   4.489 -0.3115 -0.1538 -0.4353
 2393SOL    HW1 8078   2.159   4.916   4.500 -1.0370 -0.6190 -1.4746
 2393SOL    HW2 8079   2.069   5.011   4.402 -0.9014  1.0037 -0.0592
 2394SOL     OW 8080   6.201   5.484   4.452 -0.6230  0.0403  0.0422
 2394SOL    HW1 8081   6.155   5.400   4.423  0.3056 -0.5734  0.2959
 2394SOL    HW2 8082   6.162   5.515   4.538  1.4455 -2.2875  2.0165
 2395SOL     OW 8083   3.061   5.207   6.264 -0.6801 -0.1555 -0.3382
 2395SOL    HW1 8084   3.073   5.291   6.210 -0.7985 -0.6573 -1.1654
 2395SOL    HW2 8085   2.963   5.187   6.272 -0.7124  0.4488  0.9181
 2396SOL     OW 8086   1.639   5.744   0.508  0.2229 -0.1617 -0.0901
 2396SOL    HW1 8087   1.707   5.686   0.553  1.6797  0.5508 -1.2576
 2396SOL    HW2 8088   1.673   5.838   0.505 -0.7085  0.1643 -0.9516
 2397SOL     OW 8089   2.180   4.699   5.529 -0.0211  0.2234 -0.2236
 2397SOL    HW1 8090   2.107   4.686   5.596  1.1716 -0.4102  1.0160
 2397SOL    HW2 8091   2.167   4.785   5.482 -2.3894 -0.5529 -1.1328
 2398SOL     OW 8092   6.223   3.629   3.191 -0.5656 -0.0719  0.0958
 2398SOL    HW1 8093   6.150   3.625   3.124 -0.7143 -2.2091  0.3012
 2398SOL    HW2 8094   6.192   3.588   3.277  0.4924  0.0412  0.5550
 2399SOL     OW 8095   5.425   2.685   1.004 -0.0773 -0.0832  0.6951
 2399SOL    HW1 8096   5.429   2.660   0.907  1.7662 -0.2558  0.7730
 2399SOL    HW2 8097   5.517   2.708   1.036 -0.7883  0.8018  2.2051
 2400SOL     OW 8098   6.661   2.606   6.646  0.3196 -0.1761  0.4805
 2400SOL    HW1 8099   6.674   2.581   6.742  0.5268 -1.6571  0.0943
 2400SOL    HW2 8100   6.749   2.630   6.605  0.4002 -0.6144  0.3898
 2401SOL     OW 8101   0.339   6.625   0.820  0.0764 -0.4234 -0.5512
 2401SOL    HW1 8102   0.308   6.658   0.910  1.2599 -0.8102  0.0179
 2401SOL    HW2 8103   0.428   6.581   0.830  1.7613  2.2843 -2.3993
 2402SOL     OW 8104   6.379   6.565   3.078  0.0303 -0.0385 -0.4447
 2402SOL    HW1 8105   6.310   6.495   3.059  0.1641 -0.5144  0.7287
 2402SOL    HW2 8106   6.337   6.656   3.070  0.2205 -0.1239 -3.4707
 2403SOL     OW 8107   4.313   6.096   1.885  0.2515 -0.4873  0.3024
 2403SOL    HW1 8108   4.408   6.122   1.900 -0.2439  0.5402  2.0322
 2403SOL    HW2 8109   4.292   6.096   1.788  1.4200  1.5884 -0.0073
 2404SOL     OW 8110   6.539   6.989   5.782 -0.7817 -0.3273 -0.0446
 2404SOL    HW1 8111   6.528   7.081   5.744  1.6336 -0.6528 -1.7168
 2404SOL    HW2 8112   6.615   6.989   5.847 -0.5667 -1.2148 -0.2871
 2405SOL     OW 8113   2.779   4.758   1.018  0.5367 -0.0550 -0.1101
 2405SOL    HW1 8114   2.773   4.673   1.071  1.6351  0.7685  1.4196
 2405SOL    HW2 8115   2.799   4.736   0.922 -0.8542 -1.5621 -0.1034
 2406SOL     OW 8116   3.960   1.522   1.487 -0.2613  0.0096  0.0354
 2406SOL    HW1 8117   3.914   1.466   1.417  0.5541  0.9548 -1.3010
 2406SOL    HW2 8118   4.059   1.511   1.479 -0.0525  2.0431 -0.6427
 2407SOL     OW 8119   3.406   6.121   3.341 -0.2698  0.1753  0.1121
 2407SOL    HW1 8120   3.469   6.065   3.288  0.2950 -0.8467  1.7930
 2407SOL    HW2 8121   3.365   6.066   3.413 -0.4209  1.6868  1.2301
 2408SOL     OW 8122   5.448   5.087   0.149 -0.0514  0.6272 -0.0259
 2408SOL    HW1 8123   5.546   5.087   0.169 -0.2742  2.5757  1.3451
 2408SOL    HW2 8124   5.397   5.113   0.231 -1.8450 -1.5756 -0.3634
 2409SOL     OW 8125   1.157   3.152   0.543 -0.1648 -0.4944 -0.0919
 2409SOL    HW1 8126   1.099   3.233   0.537 -1.7537 -1.4954  0.9275
 2409SOL    HW2 8127   1.102   3.070   0.528  0.7566 -1.5435  1.7883
 2410SOL     OW 8128   4.098   2.722   1.603  0.2874  0.0119  0.5330
 2410SOL    HW1 8129   4.153   2.666   1.664  1.1919  1.6840  1.3144
 2410SOL    HW2 8130   4.056   2.664   1.533  1.8153 -1.5229  0.8247
 2411SOL     OW 8131   5.534   1.896   6.390 -0.0482 -0.0322  0.2687
 2411SOL    HW1 8132   5.562   1.800   6.397 -0.4840 -0.2816 -1.1815
 2411SOL    HW2 8133   5.435   1.901   6.377  0.3055  0.3586 -3.2669
 2412SOL     OW 8134   4.558   3.404   0.495  0.8906  0.1806  0.1004
 2412SOL    HW1 8135   4.549   3.495   0.535  0.6031  0.7401 -1.1927
 2412SOL    HW2 8136   4.614   3.410   0.412 -0.4856 -0.5274 -0.9091
 2413SOL     OW 8137   3.461   1.418   2.302 -0.6265 -0.5358 -0.4621
 2413SOL    HW1 8138   3.430   1.325   2.324  0.1004 -0.8127 -0.5646
 2413SOL    HW2 8139   3.492   1.420   2.207 -2.6543  0.3546 -1.1602
 2414SOL     OW 8140   4.851   3.981   2.422 -0.3924  0.1583 -0.5372
 2414SOL    HW1 8141   4.808   4.017   2.339 -0.2120 -1.5644 -1.4292
 2414SOL    HW2 8142   4.951   3.991   2.414 -0.2784 -1.3621 -1.2277
 2415SOL     OW 8143   5.193   6.180   2.108  0.3983 -0.0201 -1.0995
 2415SOL    HW1 8144   5.287   6.215   2.105  2.4845 -4.8152 -1.2560
 2415SOL    HW2 8145   5.166   6.148   2.017  0.6977 -3.0913 -0.2115
 2416SOL     OW 8146   6.853   2.800   0.227 -0.8039 -0.2089 -0.1674
 2416SOL    HW1 8147   6.788   2.799   0.304  1.8876 -0.5145  2.2634
 2416SOL    HW2 8148   6.912   2.880   0.235  0.7510 -1.2525 -0.8086
 2417SOL     OW 8149   3.561   4.400   6.381  0.0897 -0.9349  0.4180
 2417SOL    HW1 8150   3.603   4.414   6.291  0.3634 -1.7404  0.4107
 2417SOL    HW2 8151   3.631   4.376   6.448  0.6033  3.8546  1.9168
 2418SOL     OW 8152   2.275   2.321   2.326 -0.1388  0.1615  0.3994
 2418SOL    HW1 8153   2.290   2.235   2.278  2.1135 -0.2873  1.7632
 2418SOL    HW2 8154   2.279   2.306   2.424  1.4184  1.9763  0.6739
 2419SOL     OW 8155   0.463   0.242   2.973 -0.3690  0.1780  0.1811
 2419SOL    HW1 8156   0.375   0.212   2.937  0.6844 -1.6474 -1.0102
 2419SOL    HW2 8157   0.481   0.195   3.060  1.2142 -2.8778 -1.6125
 2420SOL     OW 8158   2.300   6.784   2.275 -0.0740  0.8711  0.1936
 2420SOL    HW1 8159   2.257   6.730   2.348 -0.9262 -0.1239 -1.0114
 2420SOL    HW2 8160   2.326   6.724   2.200  2.2238  1.6540  0.2791
 2421SOL     OW 8161   5.490   3.053   3.963  0.0946  0.2049 -0.4691
 2421SOL    HW1 8162   5.453   2.974   4.013  0.8302  0.7769  1.0109
 2421SOL    HW2 8163   5.418   3.122   3.953  0.4092  0.8927  1.5314
 2422SOL     OW 8164   6.543   3.138   0.742 -0.1988 -0.9563  0.4770
 2422SOL    HW1 8165   6.517   3.135   0.839 -0.8743 -2.0778  0.2707
 2422SOL    HW2 8166   6.620   3.202   0.731 -2.5307  2.1954  1.1390
 2423SOL     OW 8167   1.100   3.901   5.997 -0.0792 -0.1265  0.1336
 2423SOL    HW1 8168   1.178   3.846   6.026  0.3608  0.1415 -0.5209
 2423SOL    HW2 8169   1.067   3.868   5.908 -0.9787 -0.5041  0.5923
 2424SOL     OW 8170   6.103   6.499   0.061 -0.4985 -0.2036 -0.1438
 2424SOL    HW1 8171   6.070   6.512   0.155  1.0365  0.4118  0.3417
 2424SOL    HW2 8172   6.095   6.584   0.010  1.2726  0.2933  0.3227
 2425SOL     OW 8173   0.239   0.181   3.527  0.8428  0.2431  0.5022
 2425SOL    HW1 8174   0.309   0.149   3.591 -0.6111 -1.0604  1.5117
 2425SOL    HW2 8175   0.253   0.138   3.438  0.4730 -1.1545  1.1099
 2426SOL     OW 8176   2.255   0.038   6.609  0.0499 -0.2985  0.2844
 2426SOL    HW1 8177   2.345   0.031   6.651  1.0015  1.1215 -1.3566
 2426SOL    HW2 8178   2.184   0.025   6.678  1.5003  0.4445  1.9895
 2427SOL     OW 8179   6.641   6.823   2.612  0.4127 -0.3061 -0.1909
 2427SOL    HW1 8180   6.550   6.781   2.605  0.4835 -0.4073 -0.5267
 2427SOL    HW2 8181   6.638   6.916   2.576  0.5397 -0.4607 -0.6023
 2428SOL     OW 8182   4.934   1.365   1.188 -0.4897 -0.3936 -0.4712
 2428SOL    HW1 8183   4.881   1.446   1.161 -1.9281 -1.2933 -0.4894
 2428SOL    HW2 8184   4.925   1.351   1.287  0.3732 -0.1155 -0.3485
 2429SOL     OW 8185   5.959   5.335   2.269 -1.0020 -0.3100  0.2050
 2429SOL    HW1 8186   5.951   5.419   2.214  2.1104  1.7102  2.5274
 2429SOL    HW2 8187   6.011   5.267   2.218 -0.1869  0.6531 -0.2949
 2430SOL     OW 8188   3.131   1.726   1.916  0.1390 -0.7921 -0.0112
 2430SOL    HW1 8189   3.230   1.738   1.922  0.3472 -1.8467 -0.9265
 2430SOL    HW2 8190   3.085   1.807   1.952  1.3411  0.6492 -1.5876
 2431SOL     OW 8191   5.358   0.607   2.238 -0.7740 -0.2857  0.3408
 2431SOL    HW1 8192   5.362   0.707   2.242 -0.4478 -0.3151  0.8644
 2431SOL    HW2 8193   5.417   0.568   2.309 -0.5215 -0.8526 -0.1599
 2432SOL     OW 8194   2.700   5.635   1.098  0.1719  0.3605 -0.2342
 2432SOL    HW1 8195   2.687   5.538   1.078  2.5932 -0.3088  1.0893
 2432SOL    HW2 8196   2.676   5.689   1.017 -2.2622 -1.2061 -0.6489
 2433SOL     OW 8197   5.556   6.653   5.630 -0.6074  0.1296 -0.0494
 2433SOL    HW1 8198   5.476   6.666   5.571 -0.0635  0.7938 -0.6559
 2433SOL    HW2 8199   5.607   6.738   5.636  0.4131 -0.4565 -0.2026
 2434SOL     OW 8200   3.867   4.059   5.389 -0.0104 -0.0796 -0.1473
 2434SOL    HW1 8201   3.933   3.984   5.387  0.3565  0.1736  1.0723
 2434SOL    HW2 8202   3.788   4.037   5.332  0.5251 -0.9742 -0.5581
 2435SOL     OW 8203   0.950   4.892   4.948  0.2518 -0.0638  0.2972
 2435SOL    HW1 8204   0.876   4.934   5.001 -0.5661  0.1120 -0.9485
 2435SOL    HW2 8205   1.021   4.960   4.931  0.8243 -0.2897  1.6785
 2436SOL     OW 8206   1.406   3.272   0.231 -0.1360  0.0661 -0.0264
 2436SOL    HW1 8207   1.405   3.207   0.155  0.6374 -0.0371  0.0435
 2436SOL    HW2 8208   1.480   3.338   0.218 -1.2517  1.2687 -0.3594
 2437SOL     OW 8209   6.931   0.912   5.526 -0.5118  0.0865 -0.0775
 2437SOL    HW1 8210   6.998   0.907   5.600 -1.0278  0.4940  0.4230
 2437SOL    HW2 8211   6.976   0.944   5.443  0.1854 -0.8990 -0.0914
 2438SOL     OW 8212   4.432   3.777   6.610  0.9654  0.5299 -0.3966
 2438SOL    HW1 8213   4.395   3.724   6.534  1.7791 -0.6468 -0.0070
 2438SOL    HW2 8214   4.369   3.850   6.634 -0.0360 -0.0513 -1.1836
 2439SOL     OW 8215   0.209   4.190   0.802 -0.0546 -0.3863 -0.1666
 2439SOL    HW1 8216   0.198   4.106   0.748  2.8945 -0.2104 -1.2168
 2439SOL    HW2 8217   0.146   4.259   0.768  1.5208 -0.3443 -3.4362
 2440SOL     OW 8218   5.158   4.277   0.429  0.0084 -0.3867 -0.3933
 2440SOL    HW1 8219   5.094   4.353   0.423  1.6004  1.0733  0.3132
 2440SOL    HW2 8220   5.197   4.273   0.521  1.2756 -0.9488 -0.9257
 2441SOL     OW 8221   5.980   1.866   0.422 -0.3815  0.0799 -1.0739
 2441SOL    HW1 8222   5.940   1.789   0.373 -0.9298 -0.3842  0.0769
 2441SOL    HW2 8223   6.079   1.867   0.407 -0.4151 -0.6342 -1.3935
 2442SOL     OW 8224   0.176   2.801   5.753  0.4247 -0.6235 -0.0828
 2442SOL    HW1 8225   0.161   2.739   5.830 -0.4228 -1.5921 -0.9947
 2442SOL    HW2 8226   0.089   2.818   5.706  0.9836 -0.4064 -1.0756
 2443SOL     OW 8227   0.961   4.490   0.087 -0.2517 -0.9715  0.1718
 2443SOL    HW1 8228   1.000   4.459   0.000 -0.8790 -0.2129 -0.3991
 2443SOL    HW2 8229   0.978   4.587   0.098 -1.7821 -0.6591 -0.0087
 2444SOL     OW 8230   4.246   3.999   6.648  1.0389 -0.4063  0.0466
 2444SOL    HW1 8231   4.215   3.967   6.737  0.6878 -1.4234 -0.4289
 2444SOL    HW2 8232   4.305   4.079   6.660 -1.6632  1.5756  0.9702
 2445SOL     OW 8233   1.053   0.959   0.006  0.6352  0.0698 -0.8237
 2445SOL    HW1 8234   1.014   0.931   0.094  1.7043  0.7770 -0.1092
 2445SOL    HW2 8235   1.132   0.902  -0.015  1.5891  1.1726 -0.3405
 2446SOL     OW 8236   5.519   1.770   0.144  0.3375 -0.2418 -0.4615
 2446SOL    HW1 8237   5.509   1.781   0.045  0.7997 -2.0339 -0.7411
 2446SOL    HW2 8238   5.608   1.804   0.173  0.0203  0.7051 -0.5785
 2447SOL     OW 8239   6.330   4.927   0.398  0.0808  0.1346 -0.3689
 2447SOL    HW1 8240   6.426   4.928   0.427 -0.0907 -0.0464  0.2158
 2447SOL    HW2 8241   6.272   4.914   0.478 -0.4012 -0.4705 -0.8114
 2448SOL     OW 8242   4.379   0.823   4.137  0.1413  0.2401  0.7455
 2448SOL    HW1 8243   4.399   0.792   4.044 -0.1914  1.4067  0.2637
 2448SOL    HW2 8244   4.421   0.912   4.152 -0.8586  0.6392  1.2763
 2449SOL     OW 8245   5.711   3.712   0.070 -0.0953 -0.2127 -0.4127
 2449SOL    HW1 8246   5.793   3.655   0.080 -0.3103 -0.7208 -1.3880
 2449SOL    HW2 8247   5.733   3.806   0.095  0.0997 -0.8007  1.8917
 2450SOL     OW 8248   1.147   1.062   1.898  0.3731  0.2211  0.0474
 2450SOL    HW1 8249   1.141   0.994   1.825 -0.3285  0.4341 -0.1019
 2450SOL    HW2 8250   1.206   1.027   1.970 -1.4386 -1.3951  0.8565
 2451SOL     OW 8251   1.432   6.341   3.756 -0.0593  0.3316 -0.1338
 2451SOL    HW1 8252   1.427   6.339   3.856 -0.1311 -1.8585 -0.1371
 2451SOL    HW2 8253   1.491   6.267   3.724  0.0111  1.0309 -1.7401
 2452SOL     OW 8254   1.318   0.150   4.663  0.1546  0.2779 -0.1569
 2452SOL    HW1 8255   1.334   0.119   4.570  1.2027 -0.2354  0.1767
 2452SOL    HW2 8256   1.236   0.106   4.700 -1.5030  2.0861 -1.5321
 2453SOL     OW 8257   1.365   4.402   0.977  0.1967  0.2131 -0.1912
 2453SOL    HW1 8258   1.279   4.362   1.007 -0.0416  1.2817  0.5991
 2453SOL    HW2 8259   1.362   4.420   0.878 -0.8725  1.1747  0.0044
 2454SOL     OW 8260   0.638   6.329   3.229 -0.9597 -0.2064 -0.3972
 2454SOL    HW1 8261   0.729   6.326   3.187  0.6866  0.7833  2.8052
 2454SOL    HW2 8262   0.585   6.403   3.189  1.8901  3.1538  1.5052
 2455SOL     OW 8263   6.370   3.149   0.372  0.5117 -0.0905  0.0064
 2455SOL    HW1 8264   6.365   3.081   0.446 -0.6701 -1.4543 -1.2399
 2455SOL    HW2 8265   6.361   3.102   0.284 -1.5967  1.7938 -0.8761
 2456SOL     OW 8266   2.622   5.273   1.563  0.9601 -0.7787  0.6847
 2456SOL    HW1 8267   2.613   5.346   1.632  0.3339 -0.5604  0.3844
 2456SOL    HW2 8268   2.718   5.245   1.557  1.2682  0.2381  0.5921
 2457SOL     OW 8269   5.617   6.617   0.659  0.3007 -0.1403  0.3730
 2457SOL    HW1 8270   5.697   6.666   0.694 -0.2044  0.0147  1.3114
 2457SOL    HW2 8271   5.535   6.646   0.708 -0.9562  2.1776 -2.7515
 2458SOL     OW 8272   6.275   6.732   0.102  0.3329 -0.8046 -0.0494
 2458SOL    HW1 8273   6.362   6.781   0.091 -0.8454  0.9698 -2.6411
 2458SOL    HW2 8274   6.237   6.752   0.192  1.2950  0.7148  0.0599
 2459SOL     OW 8275   0.706   1.909   5.986 -1.1276  0.0637  0.2570
 2459SOL    HW1 8276   0.733   1.989   5.933 -0.4628 -0.6765 -0.5499
 2459SOL    HW2 8277   0.760   1.905   6.070 -0.0676 -0.3403 -0.4206
 2460SOL     OW 8278   2.237   2.624   6.677 -0.4178 -0.9696  0.5700
 2460SOL    HW1 8279   2.252   2.660   6.585  0.9773  2.6484  2.0127
 2460SOL    HW2 8280   2.311   2.561   6.700 -0.8064 -1.9518 -0.7334
 2461SOL     OW 8281   4.363   1.921   3.871 -0.2563 -0.7113  0.1539
 2461SOL    HW1 8282   4.271   1.887   3.850 -0.8351  2.2056 -2.8501
 2461SOL    HW2 8283   4.357   1.986   3.947 -0.8944  0.2394 -0.6871
 2462SOL     OW 8284   4.305   4.374   6.041 -0.2640 -0.0704  0.1726
 2462SOL    HW1 8285   4.270   4.463   6.012  1.6298  1.0183  1.0661
 2462SOL    HW2 8286   4.403   4.368   6.022 -0.6436 -2.7151 -1.5507
 2463SOL     OW 8287   2.372   3.842   6.154 -0.6944  0.0313 -0.1033
 2463SOL    HW1 8288   2.292   3.782   6.151 -0.8928  0.2791  0.1964
 2463SOL    HW2 8289   2.345   3.932   6.188 -0.5349  0.5127 -1.2002
 2464SOL     OW 8290   1.261   3.851   0.389  0.8310  0.5050  0.0526
 2464SOL    HW1 8291   1.272   3.758   0.352  0.0539  1.1430 -1.9364
 2464SOL    HW2 8292   1.345   3.902   0.374  0.2505  1.0104 -1.7095
 2465SOL     OW 8293   6.522   1.939   3.724  0.1230  0.1525  0.0995
 2465SOL    HW1 8294   6.465   2.019   3.706  0.1975  0.2448  0.2756
 2465SOL    HW2 8295   6.521   1.919   3.822  1.7995  1.2255  0.3793
 2466SOL     OW 8296   2.857   1.247   0.752 -0.0600  0.2955  0.3185
 2466SOL    HW1 8297   2.938   1.189   0.756  0.5831  1.1210 -0.3560
 2466SOL    HW2 8298   2.884   1.343   0.755 -1.0971  0.5734  1.2236
 2467SOL     OW 8299   0.227   0.482   3.331  0.5863 -0.2244 -0.3480
 2467SOL    HW1 8300   0.181   0.488   3.420  0.4210 -2.2622 -0.2595
 2467SOL    HW2 8301   0.160   0.491   3.258  0.4067 -0.7377 -0.2460
 2468SOL     OW 8302   0.018   6.094   6.893 -0.1138  0.1565 -0.4967
 2468SOL    HW1 8303  -0.026   6.158   6.831 -2.4665 -1.5730 -0.7156
 2468SOL    HW2 8304  -0.009   6.001   6.871  0.0909 -0.6415  2.2152
 2469SOL     OW 8305   1.548   1.473   7.022  0.2057  0.3021 -0.1822
 2469SOL    HW1 8306   1.587   1.565   7.010  1.9257 -0.1940  1.1804
 2469SOL    HW2 8307   1.454   1.481   7.053 -0.0150  1.5791 -1.0792
 2470SOL     OW 8308   4.327   3.010   0.139 -0.2223 -0.0261 -0.5435
 2470SOL    HW1 8309   4.305   3.096   0.093  0.5037 -0.0616 -0.9717
 2470SOL    HW2 8310   4.249   2.981   0.195 -0.7597  0.5070 -1.0039
 2471SOL     OW 8311   5.728   2.119   3.207 -0.1149 -0.1073 -0.5209
 2471SOL    HW1 8312   5.802   2.155   3.264 -0.6097 -0.6018  0.4500
 2471SOL    HW2 8313   5.723   2.020   3.217  0.4338 -0.3380 -2.2192
 2472SOL     OW 8314   0.356   6.235   3.719  0.1753  0.2011  0.1231
 2472SOL    HW1 8315   0.315   6.183   3.794  1.8315  1.2654  1.8199
 2472SOL    HW2 8316   0.315   6.326   3.714 -0.4218 -0.0917 -0.7698
 2473SOL     OW 8317   5.951   4.450   4.278  0.1367 -0.1138  0.0565
 2473SOL    HW1 8318   5.978   4.464   4.182  0.6056 -0.1274  0.1857
 2473SOL    HW2 8319   5.901   4.364   4.286 -0.5239  0.2245 -0.2979
 2474SOL     OW 8320   5.842   0.316   5.967  0.0487  0.4275  0.6284
 2474SOL    HW1 8321   5.908   0.366   5.911 -1.6385 -0.1536 -2.0150
 2474SOL    HW2 8322   5.890   0.244   6.018  1.3486 -1.0541 -2.4450
 2475SOL     OW 8323   4.397   3.895   0.354 -0.3405  0.1404  0.5468
 2475SOL    HW1 8324   4.433   3.823   0.295  0.0092  0.5410  0.2565
 2475SOL    HW2 8325   4.365   3.856   0.440 -1.1538 -0.4981 -0.0366
 2476SOL     OW 8326   1.061   1.943   3.860  0.4721  0.0929 -0.5900
 2476SOL    HW1 8327   1.055   2.041   3.881 -0.0219  0.0299 -0.4311
 2476SOL    HW2 8328   0.989   1.894   3.908  0.0798 -0.2217 -1.4809
 2477SOL     OW 8329   5.095   3.951   1.545  0.4719 -0.2500 -0.1448
 2477SOL    HW1 8330   5.129   3.866   1.584 -0.1447 -0.0606  0.8345
 2477SOL    HW2 8331   4.998   3.943   1.526  0.5337  0.0398 -0.5964
 2478SOL     OW 8332   6.813   6.766   2.078  0.2143  0.1702 -0.9558
 2478SOL    HW1 8333   6.901   6.734   2.043  0.2637  0.6723 -1.2931
 2478SOL    HW2 8334   6.783   6.706   2.152 -0.6206 -1.8756 -2.8348
 2479SOL     OW 8335   1.861   1.684   0.006  0.9679  0.3132 -0.4297
 2479SOL    HW1 8336   1.765   1.705  -0.011  0.0732 -3.1156 -0.3075
 2479SOL    HW2 8337   1.876   1.668   0.103  1.1401 -1.2183 -0.6843
 2480SOL     OW 8338   7.001   6.575   0.256  0.1006 -0.1134  0.6226
 2480SOL    HW1 8339   6.990   6.617   0.166  0.1767  2.2683  1.6462
 2480SOL    HW2 8340   7.005   6.476   0.246  0.3551  0.0815 -2.0066
 2481SOL     OW 8341   4.452   0.225   3.914 -0.0603  0.4475  0.0560
 2481SOL    HW1 8342   4.475   0.246   4.008  2.2500 -0.1031 -0.3251
 2481SOL    HW2 8343   4.535   0.222   3.858 -1.3101  0.4010 -1.9391
 2482SOL     OW 8344   5.046   3.768   4.415 -0.6940  0.3231  0.2729
 2482SOL    HW1 8345   4.946   3.777   4.409 -0.7557  0.5411  1.4494
 2482SOL    HW2 8346   5.071   3.730   4.505  0.0820 -3.1243 -1.2104
 2483SOL     OW 8347   1.058   3.858   5.746 -0.6190 -0.3524 -0.4398
 2483SOL    HW1 8348   1.017   3.944   5.714  0.9685 -0.0097 -1.7215
 2483SOL    HW2 8349   1.022   3.782   5.693 -2.5430 -0.6224  1.1560
 2484SOL     OW 8350   2.965   4.327   5.371 -0.0149  0.0072 -0.0748
 2484SOL    HW1 8351   2.925   4.385   5.300  0.3656  1.0517  0.5576
 2484SOL    HW2 8352   2.975   4.234   5.335 -2.7790 -0.2763 -0.3489
 2485SOL     OW 8353   1.853   4.614   6.348 -0.1194 -0.1863  0.2239
 2485SOL    HW1 8354   1.803   4.529   6.366 -1.3344 -0.4310 -3.3919
 2485SOL    HW2 8355   1.951   4.597   6.351 -0.2984 -2.3516 -2.2107
 2486SOL     OW 8356   0.016   5.090   1.203  0.1396 -0.1390  0.0004
 2486SOL    HW1 8357   0.045   5.110   1.296  1.3423 -0.7048 -0.2333
 2486SOL    HW2 8358   0.083   5.030   1.159 -1.0608 -0.9175 -0.8117
 2487SOL     OW 8359   3.535   0.240   0.721  0.1165  0.0307 -0.3051
 2487SOL    HW1 8360   3.557   0.315   0.657 -2.4739 -1.6029 -3.3885
 2487SOL    HW2 8361   3.437   0.235   0.734  0.3874 -1.5730  1.5207
 2488SOL     OW 8362   3.579   5.898   0.545 -0.0420  0.4653 -0.0286
 2488SOL    HW1 8363   3.666   5.928   0.586  1.2894 -1.3134 -1.4182
 2488SOL    HW2 8364   3.588   5.896   0.446 -2.0548  1.2331 -0.2648
 2489SOL     OW 8365   6.358   4.713   3.498  0.3729  0.2453 -0.4788
 2489SOL    HW1 8366   6.369   4.763   3.584  2.7630 -0.0692 -0.5286
 2489SOL    HW2 8367   6.353   4.615   3.516  1.6186  0.1217 -0.6926
 2490SOL     OW 8368   5.432   5.477   2.783  0.4741 -0.2515 -0.0225
 2490SOL    HW1 8369   5.512   5.438   2.738  0.4720 -0.5136  0.1993
 2490SOL    HW2 8370   5.447   5.575   2.799  0.5650 -0.2011 -0.3864
 2491SOL     OW 8371   6.992   4.515   2.588  0.3775  0.0904 -0.0337
 2491SOL    HW1 8372   6.911   4.482   2.540  0.9499 -1.5535  0.0645
 2491SOL    HW2 8373   7.073   4.499   2.532  0.6839  1.6390 -0.0960
 2492SOL     OW 8374   2.507   1.624   0.106 -0.1342 -0.1253 -0.1693
 2492SOL    HW1 8375   2.582   1.656   0.164  0.3966 -0.8939 -0.4194
 2492SOL    HW2 8376   2.473   1.700   0.051  0.2711  0.2980  0.1535
 2493SOL     OW 8377   5.593   0.043   5.243 -0.1059 -0.5680 -0.3878
 2493SOL    HW1 8378   5.629  -0.045   5.272 -1.1162 -0.8116  0.1602
 2493SOL    HW2 8379   5.633   0.116   5.299 -0.9827 -0.9023  0.6935
 2494SOL     OW 8380   4.445   5.791   0.389  0.7101  0.0049  0.2614
 2494SOL    HW1 8381   4.541   5.818   0.391  0.3735  1.4318 -1.0783
 2494SOL    HW2 8382   4.392   5.859   0.339 -0.5235 -2.2593 -1.7295
 2495SOL     OW 8383   6.541   1.158   2.502 -0.7076 -0.1096 -0.1448
 2495SOL    HW1 8384   6.506   1.251   2.486  0.5160  0.0985 -1.9109
 2495SOL    HW2 8385   6.476   1.091   2.465 -0.9193  0.0993 -0.1553
 2496SOL     OW 8386   1.021   3.283   6.677 -0.6842 -0.7128  0.5284
 2496SOL    HW1 8387   1.047   3.364   6.624 -0.2132 -0.8735  0.5121
 2496SOL    HW2 8388   0.925   3.292   6.706 -0.7145 -0.2712  0.3061
 2497SOL     OW 8389   5.287   1.436   6.046  0.5498  0.2411  0.5524
 2497SOL    HW1 8390   5.190   1.418   6.030  0.7328  0.6635 -1.2126
 2497SOL    HW2 8391   5.297   1.523   6.094  0.0626  0.1196  0.8850
 2498SOL     OW 8392   1.523   5.036   3.706  0.0222 -0.3026  0.0544
 2498SOL    HW1 8393   1.491   5.121   3.748  0.1484  0.2024 -0.8449
 2498SOL    HW2 8394   1.455   5.004   3.639  0.9557  0.3243 -1.2499
 2499SOL     OW 8395   4.469   6.827   1.064 -0.3074  0.0573 -0.4056
 2499SOL    HW1 8396   4.502   6.912   1.104  0.8208  0.1928 -1.5756
 2499SOL    HW2 8397   4.409   6.847   0.987 -2.2303 -0.2108  0.9327
 2500SOL     OW 8398   4.500   2.232   4.046 -0.2675 -0.7797 -0.3207
 2500SOL    HW1 8399   4.509   2.208   3.949 -0.7109 -1.0221 -0.3067
 2500SOL    HW2 8400   4.462   2.154   4.096  1.4510 -1.2115  0.3482
 2501SOL     OW 8401   4.893   1.688   0.176 -0.2187 -0.0383  0.1503
 2501SOL    HW1 8402   4.887   1.625   0.099 -0.1113  1.2966 -0.9885
 2501SOL    HW2 8403   4.989   1.712   0.192 -0.0960 -1.3170  1.5868
 2502SOL     OW 8404   0.953   4.941   2.921 -0.1281 -0.1394  0.1998
 2502SOL    HW1 8405   1.022   4.872   2.900 -1.2599 -0.5390 -2.6329
 2502SOL    HW2 8406   0.883   4.902   2.980 -0.1416 -1.0645 -0.4192
 2503SOL     OW 8407   4.799   5.861   1.423 -0.0079  0.3217 -0.7584
 2503SOL    HW1 8408   4.874   5.820   1.372 -1.5232  0.0610 -2.9099
 2503SOL    HW2 8409   4.819   5.958   1.440  0.1893  0.6438 -2.6332
 2504SOL     OW 8410   3.945   5.374   2.840 -0.4532 -0.3731  0.0414
 2504SOL    HW1 8411   3.985   5.394   2.751 -0.5573 -0.2531  0.0211
 2504SOL    HW2 8412   3.936   5.275   2.851  1.4958 -0.5191  0.7649
 2505SOL     OW 8413   4.925   4.538   4.589  0.1332 -0.1738 -0.3442
 2505SOL    HW1 8414   4.985   4.553   4.510  1.8713 -2.7361  0.3825
 2505SOL    HW2 8415   4.840   4.495   4.558 -0.1438  0.8398 -1.0450
 2506SOL     OW 8416   1.772   1.943   5.383  0.7665 -0.2722 -0.5972
 2506SOL    HW1 8417   1.741   1.960   5.476 -0.7548 -0.9402 -0.9578
 2506SOL    HW2 8418   1.794   2.030   5.338  1.6008  0.0482  0.3874
 2507SOL     OW 8419   6.934   0.486   2.041 -0.7232  0.1064 -0.0192
 2507SOL    HW1 8420   6.964   0.405   2.092 -0.7549 -0.7472 -1.2916
 2507SOL    HW2 8421   6.862   0.459   1.978 -1.7714  1.4510  0.5712
 2508SOL     OW 8422   0.684   0.539   0.809 -0.1446 -0.0785  0.1342
 2508SOL    HW1 8423   0.695   0.505   0.715  2.3047  0.4338  0.1690
 2508SOL    HW2 8424   0.694   0.463   0.873  0.6899 -0.0435  0.0540
 2509SOL     OW 8425   4.929   6.858   4.263  0.3047 -0.0876  0.0676
 2509SOL    HW1 8426   4.843   6.865   4.212 -0.2488 -0.5770  0.9011
 2509SOL    HW2 8427   4.909   6.825   4.356  1.3250  0.4263  0.4770
 2510SOL     OW 8428   5.039   6.614   1.165 -0.1870 -0.3442  0.1150
 2510SOL    HW1 8429   4.947   6.604   1.128  0.2514 -0.2896 -1.0158
 2510SOL    HW2 8430   5.092   6.533   1.145 -0.2048 -0.7209  1.4714
 2511SOL     OW 8431   6.824   5.371   3.498 -0.4271  0.2188 -0.2846
 2511SOL    HW1 8432   6.882   5.312   3.442  0.5887 -0.0442  0.9867
 2511SOL    HW2 8433   6.840   5.351   3.595 -1.1266  1.5836  0.1388
 2512SOL     OW 8434   6.705   1.364   4.520 -0.1239  0.4968 -0.5397
 2512SOL    HW1 8435   6.763   1.445   4.534 -1.3422  1.2750  0.1570
 2512SOL    HW2 8436   6.679   1.326   4.609 -0.1101 -0.2817 -0.8590
 2513SOL     OW 8437   6.852   4.051   2.040  0.5854 -0.1662 -0.2336
 2513SOL    HW1 8438   6.785   4.099   2.097  0.2922  0.1342 -0.8127
 2513SOL    HW2 8439   6.824   4.058   1.944  0.5753 -1.4490 -0.3331
 2514SOL     OW 8440   6.949   2.187   4.449  0.4644 -0.2006 -0.2951
 2514SOL    HW1 8441   6.913   2.231   4.531 -2.7700 -2.3774 -0.3633
 2514SOL    HW2 8442   7.042   2.155   4.466  0.2928  0.4293  2.1012
 2515SOL     OW 8443   0.055   4.892   6.691  0.5919  0.4264  0.0368
 2515SOL    HW1 8444   0.068   4.977   6.641 -0.2845  1.2747  1.1976
 2515SOL    HW2 8445   0.012   4.911   6.779  0.0142 -1.2597  0.1576
 2516SOL     OW 8446   5.452   5.512   5.540 -0.5473  0.0771  0.0118
 2516SOL    HW1 8447   5.469   5.569   5.621 -0.7558 -0.6887  0.6007
 2516SOL    HW2 8448   5.540   5.485   5.500 -0.4392  0.1691  0.1833
 2517SOL     OW 8449   3.378   0.164   0.077  0.0255 -0.2040  0.6862
 2517SOL    HW1 8450   3.426   0.141  -0.008  1.3366  0.6763  1.1516
 2517SOL    HW2 8451   3.432   0.232   0.128 -0.8589 -0.5393  2.1115
 2518SOL     OW 8452   0.675   0.511   6.647  0.4263  0.2106 -0.4491
 2518SOL    HW1 8453   0.631   0.582   6.702 -1.0386 -1.1318  0.1894
 2518SOL    HW2 8454   0.683   0.427   6.701 -1.0485 -1.1567 -2.2194
 2519SOL     OW 8455   5.393   3.443   4.728  0.6427  0.9034 -0.2042
 2519SOL    HW1 8456   5.329   3.447   4.805  2.6892  3.3390  1.5443
 2519SOL    HW2 8457   5.407   3.534   4.692  2.1657  0.2416 -1.3839
 2520SOL     OW 8458   4.657   5.491   1.585  0.3153  0.2755  0.1945
 2520SOL    HW1 8459   4.742   5.507   1.636  0.2638  1.3319 -0.0174
 2520SOL    HW2 8460   4.623   5.579   1.552  1.5294 -0.5289 -3.6213
 2521SOL     OW 8461   5.333   6.943   0.077 -0.2621 -0.0484  0.2546
 2521SOL    HW1 8462   5.287   6.950  -0.012  2.0851 -0.1527 -1.0604
 2521SOL    HW2 8463   5.430   6.922   0.062  0.4768  1.1893  2.8328
 2522SOL     OW 8464   3.038   4.847   4.596  0.3723 -0.7601  0.3335
 2522SOL    HW1 8465   3.021   4.832   4.693  1.0237  0.7957  0.7256
 2522SOL    HW2 8466   3.104   4.921   4.585 -1.8674  1.1510 -1.3061
 2523SOL     OW 8467   0.368   0.924   2.089  0.1016 -0.0497 -0.6936
 2523SOL    HW1 8468   0.338   0.829   2.084 -0.5496  0.1479 -0.6843
 2523SOL    HW2 8469   0.453   0.930   2.141 -0.0993 -0.5715 -0.2926
 2524SOL     OW 8470   2.797   0.489   4.946  0.2300 -0.4936 -0.1597
 2524SOL    HW1 8471   2.796   0.551   4.867  0.0136 -0.2522  0.0284
 2524SOL    HW2 8472   2.713   0.502   5.000  2.1683  2.5010  2.5247
 2525SOL     OW 8473   2.756   6.084   3.525 -0.9599 -0.6535 -0.4198
 2525SOL    HW1 8474   2.681   6.137   3.566 -0.6066 -0.9281  0.6296
 2525SOL    HW2 8475   2.718   6.010   3.470 -1.4585 -0.4455 -0.3654
 2526SOL     OW 8476   2.266   4.116   4.142  0.0671 -0.2742 -0.4883
 2526SOL    HW1 8477   2.245   4.025   4.177 -1.9184 -0.2058 -1.3334
 2526SOL    HW2 8478   2.299   4.108   4.048  1.4644 -0.2021 -0.0199
 2527SOL     OW 8479   6.676   5.804   4.962 -0.1035  0.0619 -0.4819
 2527SOL    HW1 8480   6.766   5.838   4.989 -0.2520 -0.2398  0.4150
 2527SOL    HW2 8481   6.628   5.769   5.042 -2.0539  2.5646 -0.3970
 2528SOL     OW 8482   5.476   5.343   0.568  0.0539  0.2666  0.0762
 2528SOL    HW1 8483   5.462   5.441   0.580  0.8522  0.1762  2.0233
 2528SOL    HW2 8484   5.441   5.294   0.647  2.6517 -0.7146  0.7065
 2529SOL     OW 8485   4.637   5.263   5.228  0.0501 -0.1428  0.1860
 2529SOL    HW1 8486   4.551   5.306   5.201 -0.2601 -2.7302 -3.7889
 2529SOL    HW2 8487   4.689   5.327   5.285 -2.9285  2.9013 -0.1375
 2530SOL     OW 8488   1.836   0.216   3.499  0.5803  0.2325 -0.4794
 2530SOL    HW1 8489   1.816   0.167   3.584 -0.3410 -1.7573 -1.7824
 2530SOL    HW2 8490   1.777   0.296   3.493  0.3594  0.1678  0.5451
 2531SOL     OW 8491   4.687   2.557   5.050 -0.5400  0.1971 -0.1636
 2531SOL    HW1 8492   4.618   2.597   5.111 -1.4150  0.1753 -1.1120
 2531SOL    HW2 8493   4.659   2.464   5.027  0.9354 -0.6129  1.1771
 2532SOL     OW 8494   5.802   5.392   4.868  0.1773 -0.2390  0.2470
 2532SOL    HW1 8495   5.772   5.440   4.786 -0.4990  1.0675  1.2255
 2532SOL    HW2 8496   5.897   5.417   4.889 -0.0327  0.3314  0.5133
 2533SOL     OW 8497   4.770   6.574   5.385 -0.1360 -0.5178  0.3385
 2533SOL    HW1 8498   4.866   6.602   5.381 -0.8693  2.3427  0.4466
 2533SOL    HW2 8499   4.746   6.553   5.480  0.5249 -2.0382  0.2042
 2534SOL     OW 8500   6.526   5.734   3.556 -0.7405  0.5319  0.1513
 2534SOL    HW1 8501   6.460   5.760   3.485  0.9709  0.7211 -1.4467
 2534SOL    HW2 8502   6.514   5.794   3.636 -2.4196  0.6100 -0.1230
 2535SOL     OW 8503   2.441   1.985   1.600 -0.4818  0.0197  0.1116
 2535SOL    HW1 8504   2.426   1.887   1.586 -0.7612  0.1233 -0.3536
 2535SOL    HW2 8505   2.482   2.025   1.518 -1.9745  0.6091 -0.3872
 2536SOL     OW 8506   6.098   5.385   2.558 -0.1775 -0.3927 -0.4643
 2536SOL    HW1 8507   6.027   5.454   2.572 -1.3888 -1.6200 -0.3092
 2536SOL    HW2 8508   6.150   5.375   2.643  0.4197  0.7454 -0.6747
 2537SOL     OW 8509   2.982   6.595   1.899 -0.0684  0.9163  0.3655
 2537SOL    HW1 8510   2.974   6.692   1.921  0.8079  0.4267  3.2339
 2537SOL    HW2 8511   3.034   6.549   1.970 -1.1844 -1.8322 -0.4674
 2538SOL     OW 8512   0.991   4.139   6.347 -0.0711  0.1899 -0.0590
 2538SOL    HW1 8513   1.064   4.136   6.414 -0.6455  0.5686  0.5942
 2538SOL    HW2 8514   1.008   4.212   6.281  0.1688  0.2283  0.0469
 2539SOL     OW 8515   6.400   5.673   6.137 -0.5551  0.1088 -0.4571
 2539SOL    HW1 8516   6.366   5.591   6.181 -0.9366  0.9586  0.8835
 2539SOL    HW2 8517   6.476   5.711   6.190  1.5243 -0.8900 -2.5631
 2540SOL     OW 8518   6.449   3.999   2.064 -0.1339  0.1446 -0.0860
 2540SOL    HW1 8519   6.442   3.902   2.041  1.7062 -0.4551  1.5948
 2540SOL    HW2 8520   6.358   4.035   2.085 -0.5778 -2.0177  2.1378
 2541SOL     OW 8521   0.303   1.017   5.795 -0.2091 -0.0395 -0.6310
 2541SOL    HW1 8522   0.276   0.972   5.709  0.0590  0.1541 -0.8178
 2541SOL    HW2 8523   0.251   0.978   5.870  0.4802 -1.1095 -0.6956
 2542SOL     OW 8524   5.526   1.589   2.453  0.1507 -0.2993 -0.8906
 2542SOL    HW1 8525   5.496   1.505   2.407  1.1912  0.2384 -2.6556
 2542SOL    HW2 8526   5.515   1.667   2.391 -1.4387  1.0356  0.9324
 2543SOL     OW 8527   4.956   5.392   5.134 -0.9789 -0.2729 -0.5100
 2543SOL    HW1 8528   4.929   5.358   5.225 -2.0107 -0.0961 -0.7441
 2543SOL    HW2 8529   4.896   5.467   5.107 -0.9286 -0.5845 -1.5175
 2544SOL     OW 8530   6.513   0.818   6.612  0.0857 -0.6136 -0.2248
 2544SOL    HW1 8531   6.602   0.783   6.644 -0.6302 -0.6244  1.9287
 2544SOL    HW2 8532   6.513   0.918   6.619 -0.1169 -0.6243 -0.0722
 2545SOL     OW 8533   0.033   1.126   0.286 -0.3546 -0.0818 -0.1478
 2545SOL    HW1 8534   0.000   1.213   0.247 -1.6137 -0.8701 -0.9393
 2545SOL    HW2 8535   0.132   1.121   0.277 -0.3674  0.8434 -1.0510
 2546SOL     OW 8536   6.544   3.002   2.406  0.0159 -0.3169 -0.2789
 2546SOL    HW1 8537   6.545   2.904   2.424  0.8299  0.1355  2.4646
 2546SOL    HW2 8538   6.449   3.034   2.404 -0.2113 -0.9320  0.2492
 2547SOL     OW 8539   6.534   3.901   0.823 -0.1459 -0.1883  0.1843
 2547SOL    HW1 8540   6.593   3.874   0.747 -0.1096  3.1608 -1.1659
 2547SOL    HW2 8541   6.589   3.945   0.894 -0.6807  0.6404  0.0979
 2548SOL     OW 8542   5.895   6.961   3.060  0.2460  0.3706 -0.5663
 2548SOL    HW1 8543   5.853   6.980   3.149  1.1384  1.3713 -0.3415
 2548SOL    HW2 8544   5.950   6.878   3.067  0.6596  0.6793 -0.0557
 2549SOL     OW 8545   2.286   5.054   0.480 -0.5129 -0.5732  0.0224
 2549SOL    HW1 8546   2.326   5.002   0.556 -1.9322 -0.8567  0.6098
 2549SOL    HW2 8547   2.303   5.005   0.394  3.2340  0.9387 -0.2850
 2550SOL     OW 8548   2.341   0.068   1.677 -0.4198  0.3342  0.3636
 2550SOL    HW1 8549   2.441   0.058   1.679 -0.2254  1.2284 -1.6512
 2550SOL    HW2 8550   2.299  -0.000   1.736  1.3525 -0.9102  0.2600
 2551SOL     OW 8551   3.398   3.931   0.299 -0.0555 -0.3438  0.0167
 2551SOL    HW1 8552   3.427   4.026   0.284 -0.8004 -0.4003 -2.1876
 2551SOL    HW2 8553   3.325   3.928   0.366  1.2870  0.3939  1.5729
 2552SOL     OW 8554   3.854   6.259   1.188  0.5994  0.4350  0.2829
 2552SOL    HW1 8555   3.775   6.198   1.200  1.5619 -1.1615 -1.1247
 2552SOL    HW2 8556   3.928   6.230   1.248  2.1812 -1.8850 -2.5592
 2553SOL     OW 8557   3.803   1.070   0.288 -0.0482 -0.2838 -0.0079
 2553SOL    HW1 8558   3.879   1.130   0.312 -1.0087  2.6821 -3.4873
 2553SOL    HW2 8559   3.816   1.035   0.195 -2.3375 -0.6818 -0.2367
 2554SOL     OW 8560   1.651   6.212   0.944  0.6088  0.6662 -0.1600
 2554SOL    HW1 8561   1.738   6.180   0.906  0.2110 -0.0067 -0.5272
 2554SOL    HW2 8562   1.610   6.279   0.882  0.9065  1.0656  0.0654
 2555SOL     OW 8563   0.049   6.016   4.433 -0.0329  0.0272 -0.0314
 2555SOL    HW1 8564  -0.028   6.079   4.441 -0.4560 -0.3033 -1.1965
 2555SOL    HW2 8565   0.024   5.941   4.371  1.8393  0.9205 -2.0293
 2556SOL     OW 8566   6.086   6.727   5.003 -0.1544  0.2511  0.0083
 2556SOL    HW1 8567   6.001   6.750   4.955  0.6209  0.0155 -1.5616
 2556SOL    HW2 8568   6.094   6.782   5.086 -0.1509  2.9334 -1.6476
 2557SOL     OW 8569   2.230   0.820   0.714  0.0374 -0.1606  0.1033
 2557SOL    HW1 8570   2.206   0.794   0.807 -2.7452 -1.5400 -0.8863
 2557SOL    HW2 8571   2.221   0.919   0.703 -0.1059 -0.0443  1.1687
 2558SOL     OW 8572   5.401   3.650   1.185 -0.4004 -0.4012 -0.9475
 2558SOL    HW1 8573   5.309   3.660   1.148 -0.2334 -1.9355 -1.8855
 2558SOL    HW2 8574   5.410   3.560   1.228 -0.2416  0.8720  1.9391
 2559SOL     OW 8575   6.625   6.381   1.973  0.5413 -0.0887  0.2648
 2559SOL    HW1 8576   6.553   6.319   1.941 -1.0295  2.0840 -0.6165
 2559SOL    HW2 8577   6.680   6.411   1.895  1.3549 -0.4087  0.6987
 2560SOL     OW 8578   4.509   3.037   1.660 -0.1109  0.0856 -0.0834
 2560SOL    HW1 8579   4.541   2.994   1.744  1.1127 -1.3999 -1.2373
 2560SOL    HW2 8580   4.413   3.014   1.645 -0.5248  0.8815  1.1805
 2561SOL     OW 8581   4.368   0.754   4.637  0.0579  0.4632  0.5134
 2561SOL    HW1 8582   4.322   0.822   4.579 -1.1295 -1.1921 -0.5746
 2561SOL    HW2 8583   4.335   0.763   4.731 -0.1414  1.3274  0.3770
 2562SOL     OW 8584   1.727   0.054   5.139  0.2244 -0.2640 -0.2198
 2562SOL    HW1 8585   1.660   0.113   5.093 -0.6719 -0.6851  0.5182
 2562SOL    HW2 8586   1.769  -0.007   5.072 -0.7548 -0.5761 -0.5698
 2563SOL     OW 8587   4.366   0.340   6.819 -0.0984  0.0315  0.3143
 2563SOL    HW1 8588   4.455   0.385   6.808  0.0101 -0.3518 -0.4892
 2563SOL    HW2 8589   4.379   0.250   6.861 -0.0027 -0.3571 -0.5212
 2564SOL     OW 8590   0.991   5.698   2.049 -0.0107 -0.2076  0.7580
 2564SOL    HW1 8591   0.974   5.660   1.958 -0.4991  1.7503 -0.0111
 2564SOL    HW2 8592   1.085   5.731   2.055 -0.1949  0.3495  0.6840
 2565SOL     OW 8593   6.467   1.245   6.926  0.0953  0.9218  0.0051
 2565SOL    HW1 8594   6.429   1.284   7.009 -0.4855  3.0168 -1.1934
 2565SOL    HW2 8595   6.451   1.306   6.849  1.9224 -0.2450 -1.4056
 2566SOL     OW 8596   1.234   1.671   1.879 -0.0336  0.0472 -0.4344
 2566SOL    HW1 8597   1.295   1.613   1.824 -0.0508  0.0302 -0.4352
 2566SOL    HW2 8598   1.144   1.675   1.836  0.0094  0.1892 -0.5105
 2567SOL     OW 8599   2.510   2.686   6.134 -0.4537 -0.1842 -0.0333
 2567SOL    HW1 8600   2.463   2.601   6.107  0.9670 -0.6247 -1.2943
 2567SOL    HW2 8601   2.466   2.764   6.089 -0.0228 -0.5919 -1.2107
 2568SOL     OW 8602   3.459   6.637   1.269 -0.2183 -0.1554 -1.1375
 2568SOL    HW1 8603   3.364   6.663   1.248 -0.5518  0.3195  0.7950
 2568SOL    HW2 8604   3.511   6.631   1.184 -1.7574  0.4504 -2.1714
 2569SOL     OW 8605   3.124   5.848   6.912  0.4264 -0.5222 -0.0649
 2569SOL    HW1 8606   3.113   5.749   6.909  0.1769 -0.4780 -0.7734
 2569SOL    HW2 8607   3.049   5.892   6.863 -1.1211  0.1771  2.6866
 2570SOL     OW 8608   4.778   0.029   4.521 -0.6656 -0.1477  0.1426
 2570SOL    HW1 8609   4.858   0.059   4.470  0.2310 -1.3361  0.7919
 2570SOL    HW2 8610   4.801   0.020   4.618 -1.0270 -2.2951  0.0713
 2571SOL     OW 8611   3.404   2.982   2.804  0.0143 -0.3245 -0.3807
 2571SOL    HW1 8612   3.360   2.958   2.717 -1.2340 -0.6566  0.3219
 2571SOL    HW2 8613   3.497   3.014   2.786 -0.2203 -0.3802 -1.8406
 2572SOL     OW 8614   2.948   5.864   2.680  0.3704  0.1273 -0.4672
 2572SOL    HW1 8615   3.047   5.854   2.669  0.5578  1.9176 -0.6694
 2572SOL    HW2 8616   2.921   5.823   2.767  1.3015 -0.3006 -0.3585
 2573SOL     OW 8617   5.109   0.282   1.079  0.3486 -0.4264 -0.2313
 2573SOL    HW1 8618   5.109   0.198   1.025  1.0132 -0.1067 -0.7383
 2573SOL    HW2 8619   5.095   0.259   1.176 -0.5662 -1.0256 -0.4807
 2574SOL     OW 8620   0.057   3.567   2.539  0.6719  0.1534 -0.2798
 2574SOL    HW1 8621  -0.010   3.501   2.573 -0.6035  0.7469 -1.5387
 2574SOL    HW2 8622   0.147   3.524   2.535  0.1998 -0.9477  0.6054
 2575SOL     OW 8623   4.016   3.648   5.152 -0.0886 -0.1766  0.2012
 2575SOL    HW1 8624   4.067   3.571   5.111 -0.1906 -0.2166  0.1487
 2575SOL    HW2 8625   3.971   3.617   5.235  1.1627  0.2179  1.0614
 2576SOL     OW 8626   1.412   0.173   2.654 -0.0825 -0.4658 -0.5304
 2576SOL    HW1 8627   1.436   0.098   2.714  2.6004 -0.0492 -0.9386
 2576SOL    HW2 8628   1.373   0.248   2.707 -0.1577 -1.0723  0.2830
 2577SOL     OW 8629   1.768   3.423   6.801  0.5140 -0.5349  0.2314
 2577SOL    HW1 8630   1.821   3.420   6.717  0.1207 -2.9349 -0.0199
 2577SOL    HW2 8631   1.673   3.446   6.781  0.9276  1.5180  0.4049
 2578SOL     OW 8632   4.847   1.520   5.272  0.4793  0.5560  0.4692
 2578SOL    HW1 8633   4.922   1.578   5.305  1.0722 -0.2593  0.5828
 2578SOL    HW2 8634   4.780   1.509   5.345 -0.3471  2.1982  0.0206
 2579SOL     OW 8635   1.384   3.514   0.013 -0.0299  0.1846  0.1379
 2579SOL    HW1 8636   1.423   3.595  -0.031 -0.8189  0.4389 -0.0968
 2579SOL    HW2 8637   1.289   3.502  -0.016  0.0316 -0.7467  0.2786
 2580SOL     OW 8638   0.226   1.289   5.607 -0.4396 -0.9177  0.1757
 2580SOL    HW1 8639   0.235   1.202   5.654 -0.8551 -1.4800 -0.7661
 2580SOL    HW2 8640   0.266   1.283   5.516 -0.3176 -0.0687  0.1590
 2581SOL     OW 8641   3.916   5.557   2.386  0.2461 -0.1620 -0.5284
 2581SOL    HW1 8642   3.898   5.529   2.292 -0.1160 -0.0964 -0.4799
 2581SOL    HW2 8643   3.879   5.488   2.449  0.0455  0.0409 -0.4243
 2582SOL     OW 8644   0.120   5.618   3.376  0.3004  0.7161 -0.1314
 2582SOL    HW1 8645   0.141   5.714   3.353 -1.2494  0.5701 -2.4604
 2582SOL    HW2 8646   0.027   5.612   3.412  0.6809  0.1548  0.7865
 2583SOL     OW 8647   3.051   6.784   6.945  0.7079 -0.2369 -0.1401
 2583SOL    HW1 8648   2.992   6.828   7.012  1.3139 -0.2518  0.4167
 2583SOL    HW2 8649   3.052   6.838   6.861  0.1289 -0.0938 -0.0598
 2584SOL     OW 8650   4.543   0.569   4.543 -0.0881  0.2101 -0.1954
 2584SOL    HW1 8651   4.463   0.604   4.592 -1.3861 -2.9218  0.1845
 2584SOL    HW2 8652   4.521   0.559   4.446  0.2131  0.3666 -0.2798
 2585SOL     OW 8653   3.166   2.188   5.460  0.3130 -0.1730  0.6193
 2585SOL    HW1 8654   3.240   2.179   5.394 -1.1560 -1.7781 -0.9184
 2585SOL    HW2 8655   3.153   2.285   5.482 -0.0375  0.6307 -2.6036
 2586SOL     OW 8656   1.908   4.034   4.024  0.0076  0.6826 -0.5433
 2586SOL    HW1 8657   1.929   4.097   4.098 -0.5391  0.7415 -0.4324
 2586SOL    HW2 8658   1.826   4.065   3.976 -0.4518 -0.1022 -0.2862
 2587SOL     OW 8659   1.017   5.366   5.219 -0.0978  0.2384  0.2654
 2587SOL    HW1 8660   1.000   5.333   5.126  2.0517 -1.6600  0.4384
 2587SOL    HW2 8661   0.932   5.364   5.271 -1.1528  0.4244 -1.3708
 2588SOL     OW 8662   3.432   6.281   2.314 -0.2727  0.0875 -0.0181
 2588SOL    HW1 8663   3.400   6.348   2.381 -1.1251 -0.7799  0.4692
 2588SOL    HW2 8664   3.359   6.260   2.249 -0.0965 -0.5326 -0.0306
 2589SOL     OW 8665   3.992   0.439   3.124 -0.2468  0.5321  0.3700
 2589SOL    HW1 8666   3.946   0.498   3.191  0.1799 -0.3246  1.4356
 2589SOL    HW2 8667   3.938   0.435   3.040 -0.7401  1.6979  0.6129
 2590SOL     OW 8668   2.452   4.877   2.479 -0.4509 -0.0202  0.0833
 2590SOL    HW1 8669   2.376   4.827   2.521  0.4050 -0.9569  0.5640
 2590SOL    HW2 8670   2.474   4.835   2.391  0.2257 -0.4678  0.4574
 2591SOL     OW 8671   4.230   1.392   7.009  0.3285  0.5998 -0.5039
 2591SOL    HW1 8672   4.200   1.386   6.914  0.5045 -2.0524 -0.4832
 2591SOL    HW2 8673   4.249   1.487   7.032 -0.3699  1.4012 -2.8935
 2592SOL     OW 8674   2.656   4.100   1.287  0.8597 -0.1708  0.2373
 2592SOL    HW1 8675   2.594   4.047   1.345  1.5507  0.2950  1.4433
 2592SOL    HW2 8676   2.634   4.197   1.295  0.4200 -0.1570 -0.9649
 2593SOL     OW 8677   1.619   0.235   5.638 -0.4299  0.3451 -0.3496
 2593SOL    HW1 8678   1.713   0.255   5.612 -0.3762 -0.5951 -0.9285
 2593SOL    HW2 8679   1.561   0.315   5.620  0.6817  1.9954  2.5833
 2594SOL     OW 8680   6.039   6.617   5.434 -0.9036  0.4167  0.2910
 2594SOL    HW1 8681   6.051   6.703   5.485 -1.9517  0.8459 -0.1566
 2594SOL    HW2 8682   5.949   6.579   5.454 -0.9414  0.0778 -0.5019
 2595SOL     OW 8683   5.912   3.732   5.218  0.5091 -0.1141 -0.1610
 2595SOL    HW1 8684   5.943   3.813   5.269  0.4952  1.0871 -1.9588
 2595SOL    HW2 8685   5.982   3.705   5.152 -0.3935 -0.1766 -1.1188
 2596SOL     OW 8686   2.747   2.471   6.948 -0.0010 -0.6865 -0.2560
 2596SOL    HW1 8687   2.686   2.519   6.885  2.3755  2.1227 -0.6434
 2596SOL    HW2 8688   2.817   2.422   6.897  0.8690  0.1025  0.1509
 2597SOL     OW 8689   2.683   2.272   4.668 -0.4748 -0.5643  0.3590
 2597SOL    HW1 8690   2.684   2.182   4.626  1.6182  0.2021 -1.4651
 2597SOL    HW2 8691   2.734   2.270   4.754  1.3906 -0.7554 -0.7000
 2598SOL     OW 8692   6.893   2.366   3.964 -0.3406 -0.3322  0.1025
 2598SOL    HW1 8693   6.965   2.318   4.013  0.0194 -0.5155 -0.5943
 2598SOL    HW2 8694   6.876   2.454   4.009  0.5506 -0.1367  0.0832
 2599SOL     OW 8695   4.727   6.653   6.620  0.1793 -0.3956 -0.2804
 2599SOL    HW1 8696   4.749   6.602   6.537  2.2344  0.1920 -0.1558
 2599SOL    HW2 8697   4.799   6.639   6.688  0.5847  2.2382 -0.0571
 2600SOL     OW 8698   5.940   3.732   5.553  0.0668  0.4661  0.3221
 2600SOL    HW1 8699   6.011   3.779   5.501 -0.3678  1.0147  0.2159
 2600SOL    HW2 8700   5.978   3.650   5.595  1.4321  2.0810  2.4244
 2601SOL     OW 8701   3.927   4.405   5.402 -0.1322  0.5914 -0.1533
 2601SOL    HW1 8702   3.965   4.347   5.474 -0.1181 -2.1867 -2.2245
 2601SOL    HW2 8703   3.829   4.387   5.392  0.1185 -0.1291 -1.6527
 2602SOL     OW 8704   0.085   0.785   2.175 -0.0543  0.4600 -0.0080
 2602SOL    HW1 8705   0.054   0.751   2.087  0.1764  0.1770  0.0195
 2602SOL    HW2 8706   0.120   0.878   2.164  0.7906  0.1064 -0.3862
 2603SOL     OW 8707   2.704   0.922   6.353 -0.3092 -0.0600 -0.1659
 2603SOL    HW1 8708   2.697   1.000   6.416 -2.3952  0.4645 -0.9811
 2603SOL    HW2 8709   2.631   0.857   6.372 -0.6100 -0.1827 -1.6529
 2604SOL     OW 8710   6.709   2.004   7.018  0.5473 -0.2532 -0.1338
 2604SOL    HW1 8711   6.625   2.001   7.073 -0.3619 -0.9289 -1.4848
 2604SOL    HW2 8712   6.690   2.053   6.933  1.4670 -0.6283 -0.5606
 2605SOL     OW 8713   6.136   6.870   6.418  0.3538 -0.1785  0.4367
 2605SOL    HW1 8714   6.065   6.848   6.351 -0.1536 -2.0385  1.5247
 2605SOL    HW2 8715   6.111   6.955   6.465  0.2930  0.6961 -1.0776
 2606SOL     OW 8716   6.899   3.747   1.580 -0.2730  0.6016  0.0663
 2606SOL    HW1 8717   6.923   3.843   1.595  0.4077  0.2470  1.4028
 2606SOL    HW2 8718   6.913   3.724   1.484  1.0010  1.4589  0.0208
 2607SOL     OW 8719   6.546   6.109   3.210  0.0907  0.1320  0.0786
 2607SOL    HW1 8720   6.515   6.097   3.304  2.0793 -0.9096  0.6709
 2607SOL    HW2 8721   6.620   6.176   3.207  0.0487  0.1585 -0.7556
 2608SOL     OW 8722   4.476   1.188   0.032 -0.2910  0.3505 -0.1738
 2608SOL    HW1 8723   4.433   1.155   0.116 -1.8402 -1.1122 -1.4676
 2608SOL    HW2 8724   4.509   1.281   0.046 -0.5509  0.1745  2.0205
 2609SOL     OW 8725   1.584   3.039   3.762  0.0125 -0.6115 -0.2117
 2609SOL    HW1 8726   1.636   2.988   3.693  0.5101 -1.7950  1.0060
 2609SOL    HW2 8727   1.510   2.983   3.796 -0.8633  0.3466 -0.4841
 2610SOL     OW 8728   6.396   4.145   6.805  0.2862  0.0051  0.2422
 2610SOL    HW1 8729   6.317   4.204   6.785  1.9768  2.2472 -0.2927
 2610SOL    HW2 8730   6.398   4.069   6.741 -1.6306 -0.3350  0.5283
 2611SOL     OW 8731   3.999   0.574   1.610 -0.5212 -0.4879  0.1670
 2611SOL    HW1 8732   4.061   0.644   1.576  0.7198 -2.1424 -1.1174
 2611SOL    HW2 8733   3.974   0.595   1.705  0.3218  1.3050  0.0277
 2612SOL     OW 8734   2.727   6.724   3.795 -0.3432 -0.2004 -0.1559
 2612SOL    HW1 8735   2.650   6.691   3.742 -0.9586  0.1851  0.4806
 2612SOL    HW2 8736   2.757   6.652   3.858  1.2019 -1.1226 -1.8543
 2613SOL     OW 8737   1.497   1.399   0.602 -0.7287 -0.1604  0.6140
 2613SOL    HW1 8738   1.511   1.308   0.640 -1.2691 -0.7366 -0.5250
 2613SOL    HW2 8739   1.447   1.455   0.667 -0.8316 -0.8358  1.1197
 2614SOL     OW 8740   6.941   6.065   5.251  0.3943  0.0658 -0.0827
 2614SOL    HW1 8741   6.893   6.086   5.166 -1.5142  2.2274  1.3975
 2614SOL    HW2 8742   7.035   6.098   5.247  0.0431  0.9667 -1.0313
 2615SOL     OW 8743   1.449   3.452   1.066 -0.5615 -0.2547  0.5071
 2615SOL    HW1 8744   1.386   3.406   1.003 -0.8427 -0.5496  0.9889
 2615SOL    HW2 8745   1.511   3.385   1.106 -0.0600  0.0100  0.1704
 2616SOL     OW 8746   4.117   2.389   1.559 -0.5909  0.2559 -0.1537
 2616SOL    HW1 8747   4.035   2.361   1.608 -0.0535 -1.2603 -0.0710
 2616SOL    HW2 8748   4.183   2.429   1.623 -2.0235  3.5451 -0.5074
 2617SOL     OW 8749   4.054   0.539   2.771 -0.3711  0.4655 -0.1508
 2617SOL    HW1 8750   4.126   0.482   2.810 -2.5724 -2.2215  0.2639
 2617SOL    HW2 8751   4.066   0.545   2.672 -0.0380 -0.6233 -0.1824
 2618SOL     OW 8752   2.355   4.764   0.928  0.1401 -0.3163  0.1291
 2618SOL    HW1 8753   2.419   4.689   0.910  0.0491 -0.5108  0.5856
 2618SOL    HW2 8754   2.278   4.729   0.982 -0.1406  0.0069 -0.0542
 2619SOL     OW 8755   5.629   1.931   2.580 -0.0793 -0.0948  0.2262
 2619SOL    HW1 8756   5.558   1.881   2.530  0.2206 -0.0048 -0.2958
 2619SOL    HW2 8757   5.594   2.021   2.607 -0.9053 -0.8547  1.8783
 2620SOL     OW 8758   1.682   6.015   5.836  0.2450  0.3564  0.1470
 2620SOL    HW1 8759   1.782   6.016   5.831  0.2790  1.5991  0.5427
 2620SOL    HW2 8760   1.645   5.969   5.755  1.1332 -0.5517  0.2302
 2621SOL     OW 8761   0.638   5.799   5.817  0.0174  0.0637  0.0993
 2621SOL    HW1 8762   0.568   5.785   5.747 -0.2730  1.1060  0.1688
 2621SOL    HW2 8763   0.594   5.817   5.905  0.3669  0.6448  0.1598
 2622SOL     OW 8764   0.804   1.868   5.598  0.2928  0.5020 -0.4424
 2622SOL    HW1 8765   0.756   1.805   5.660  0.5529  1.1311  0.4158
 2622SOL    HW2 8766   0.902   1.865   5.616  0.3489  0.8507 -0.6859
 2623SOL     OW 8767   4.332   6.353   0.151 -0.3651 -0.3919 -0.6404
 2623SOL    HW1 8768   4.406   6.342   0.218  1.6749 -0.7948 -2.8193
 2623SOL    HW2 8769   4.319   6.267   0.101 -0.6396  0.3507 -1.8913
 2624SOL     OW 8770   4.824   0.677   5.155  0.8458 -0.5160 -0.0419
 2624SOL    HW1 8771   4.880   0.607   5.201  1.3293 -1.1313 -1.5052
 2624SOL    HW2 8772   4.868   0.703   5.069 -0.5270 -0.1213 -0.6518
 2625SOL     OW 8773   2.679   6.023   4.793  0.0210  0.2848  0.5302
 2625SOL    HW1 8774   2.758   5.965   4.773  0.6164  0.9974  0.7838
 2625SOL    HW2 8775   2.693   6.113   4.753  0.3228  1.1068  2.4035
 2626SOL     OW 8776   3.013   5.964   3.036  0.4656  0.0829 -0.3828
 2626SOL    HW1 8777   3.015   5.981   3.134 -0.2140  0.4979 -0.4387
 2626SOL    HW2 8778   2.970   6.041   2.989 -2.4358 -1.5480 -0.6547
 2627SOL     OW 8779   2.514   6.229   3.377 -0.8053  0.8096  0.2956
 2627SOL    HW1 8780   2.597   6.277   3.349 -2.0652  2.2949 -1.1742
 2627SOL    HW2 8781   2.496   6.155   3.312 -0.9886  0.9519  0.1813
 2628SOL     OW 8782   5.306   5.755   0.286 -0.0943  0.3547 -0.2172
 2628SOL    HW1 8783   5.228   5.704   0.248 -1.0261  1.3873  0.2597
 2628SOL    HW2 8784   5.378   5.761   0.217  0.2619 -1.9941 -0.1422
 2629SOL     OW 8785   2.738   3.888   0.796 -0.0227  1.0466 -0.0886
 2629SOL    HW1 8786   2.663   3.886   0.863 -1.5258  0.9781 -1.6975
 2629SOL    HW2 8787   2.826   3.882   0.844 -1.0628 -0.1040  1.8022
 2630SOL     OW 8788   5.281   2.273   4.335  0.4383 -0.1015  0.5939
 2630SOL    HW1 8789   5.303   2.318   4.421 -0.1559  2.0115 -0.2884
 2630SOL    HW2 8790   5.184   2.248   4.334  0.4060  0.0233  0.4960
 2631SOL     OW 8791   3.142   5.644   4.841 -0.0986 -0.3583  0.0445
 2631SOL    HW1 8792   3.140   5.558   4.790 -0.5868  1.9464 -4.2929
 2631SOL    HW2 8793   3.051   5.661   4.880 -1.1854 -0.1848 -2.3640
 2632SOL     OW 8794   2.640   0.997   1.935 -0.4234 -0.9076  0.4738
 2632SOL    HW1 8795   2.706   1.038   1.997  0.5558 -2.5654  0.5937
 2632SOL    HW2 8796   2.612   1.064   1.866  0.8872  0.0234  0.8200
 2633SOL     OW 8797   6.880   2.768   1.860  0.4114  0.4573  0.4783
 2633SOL    HW1 8798   6.809   2.795   1.925 -0.3700  0.3759 -0.3289
 2633SOL    HW2 8799   6.897   2.669   1.868  0.6044  0.5156  0.8264
 2634SOL     OW 8800   4.880   4.893   6.106  0.4425  0.3115  0.5209
 2634SOL    HW1 8801   4.898   4.857   6.198  1.3408 -1.2972 -0.2494
 2634SOL    HW2 8802   4.963   4.889   6.051 -0.2795  0.4979 -0.6212
 2635SOL     OW 8803   5.612   4.167   4.761 -0.1179 -0.4630  0.5915
 2635SOL    HW1 8804   5.533   4.228   4.758 -0.2870 -0.6743  0.7189
 2635SOL    HW2 8805   5.585   4.076   4.730 -0.1693 -0.7931  1.5621
 2636SOL     OW 8806   3.615   3.137   6.024 -0.7295 -0.3418  0.3262
 2636SOL    HW1 8807   3.618   3.047   6.066  0.8534 -0.0067  0.9919
 2636SOL    HW2 8808   3.592   3.206   6.093 -0.3179 -0.0435  0.1665
 2637SOL     OW 8809   6.024   5.038   3.917 -0.2064 -0.1789 -0.6700
 2637SOL    HW1 8810   5.985   4.989   3.995  1.3887 -0.5155 -0.0507
 2637SOL    HW2 8811   5.954   5.098   3.877 -0.7504  0.8520  1.6866
 2638SOL     OW 8812   5.405   5.547   1.135  0.6255  0.0672  0.1910
 2638SOL    HW1 8813   5.483   5.573   1.192 -0.9754  0.1972  2.4749
 2638SOL    HW2 8814   5.385   5.450   1.150 -0.6735  0.4385  0.9986
 2639SOL     OW 8815   6.192   1.133   0.966  0.1392  0.5342  0.1896
 2639SOL    HW1 8816   6.101   1.111   0.932  0.4715 -0.0082 -0.3655
 2639SOL    HW2 8817   6.222   1.061   1.029  0.9046 -0.2392 -1.0181
 2640SOL     OW 8818   0.159   0.428   6.551  0.3961 -0.2096 -0.1318
 2640SOL    HW1 8819   0.182   0.350   6.494  2.0359  1.1661 -1.4256
 2640SOL    HW2 8820   0.094   0.487   6.503 -0.7431 -0.6598  0.7915
 2641SOL     OW 8821   0.288   6.774   1.630  0.3017 -0.0347  0.2648
 2641SOL    HW1 8822   0.352   6.830   1.577 -0.2747  0.6349  0.2551
 2641SOL    HW2 8823   0.251   6.829   1.705 -0.9226 -0.1214 -0.2460
 2642SOL     OW 8824   0.324   0.784   3.843 -0.3492  0.0996  0.1312
 2642SOL    HW1 8825   0.348   0.830   3.929  0.3806 -1.2661  0.6968
 2642SOL    HW2 8826   0.406   0.743   3.803 -1.0675 -1.3531  0.0729
 2643SOL     OW 8827   3.855   0.125   1.983  0.0355  0.1258 -0.0240
 2643SOL    HW1 8828   3.898   0.047   1.937  0.5006  1.2339 -1.5588
 2643SOL    HW2 8829   3.851   0.108   2.081 -1.0764 -2.3857 -0.4234
 2644SOL     OW 8830   4.548   5.867   5.433  0.1774 -0.0054 -0.2124
 2644SOL    HW1 8831   4.632   5.883   5.485 -0.8300  0.9269  1.1950
 2644SOL    HW2 8832   4.492   5.949   5.434 -0.3758 -0.3201 -1.9073
 2645SOL     OW 8833   4.952   5.555   5.456 -0.0259 -0.0934 -0.4968
 2645SOL    HW1 8834   4.925   5.463   5.486  1.5515  0.0375  1.4594
 2645SOL    HW2 8835   5.050   5.556   5.436 -0.2084  0.9587 -1.4158
 2646SOL     OW 8836   5.555   6.593   5.929 -0.5528 -0.1151  0.4786
 2646SOL    HW1 8837   5.553   6.601   5.829 -0.7137  0.1493  0.5015
 2646SOL    HW2 8838   5.477   6.538   5.959 -1.1782  0.7771  0.5405
 2647SOL     OW 8839   4.324   4.246   0.979 -0.0636  0.4529  0.3973
 2647SOL    HW1 8840   4.390   4.305   0.932  0.7135 -0.4803  0.2727
 2647SOL    HW2 8841   4.345   4.243   1.076 -0.5765  0.9759  0.5302
 2648SOL     OW 8842   5.848   1.964   2.396 -0.0906 -0.0066  0.1143
 2648SOL    HW1 8843   5.859   2.058   2.430  0.9882 -0.4853  1.1629
 2648SOL    HW2 8844   5.771   1.921   2.442  0.3782 -0.1258  0.8123
 2649SOL     OW 8845   3.125   3.777   6.182 -0.2891 -0.0252 -0.1469
 2649SOL    HW1 8846   3.148   3.864   6.225 -2.0513  1.2988 -1.6941
 2649SOL    HW2 8847   3.027   3.775   6.161 -0.4373 -2.6928  0.4418
 2650SOL     OW 8848   5.707   2.250   2.616  0.2060 -0.1518 -0.1047
 2650SOL    HW1 8849   5.748   2.239   2.525 -0.9018  0.4769 -0.6913
 2650SOL    HW2 8850   5.691   2.347   2.634 -1.0571 -0.3870  0.0969
 2651SOL     OW 8851   3.851   6.990   4.913  0.5126 -0.3027  0.9296
 2651SOL    HW1 8852   3.922   7.044   4.959  2.3904 -3.0174  1.4292
 2651SOL    HW2 8853   3.826   7.035   4.827  1.2794  1.7905  1.7351
 2652SOL     OW 8854   3.438   3.515   1.735  0.0949 -0.0217 -0.3077
 2652SOL    HW1 8855   3.363   3.573   1.702 -0.1546  0.9289  1.7436
 2652SOL    HW2 8856   3.523   3.568   1.734 -0.2457  0.6987  2.1752
 2653SOL     OW 8857   4.881   6.017   6.762  0.2539 -0.3449 -0.1100
 2653SOL    HW1 8858   4.845   5.973   6.680 -1.0356 -1.8373  1.2013
 2653SOL    HW2 8859   4.835   6.105   6.776 -0.3783 -0.6342 -0.3337
 2654SOL     OW 8860   6.238   1.056   6.173 -0.1694 -0.2924 -0.2174
 2654SOL    HW1 8861   6.183   0.973   6.160 -1.7794  0.6631  0.2945
 2654SOL    HW2 8862   6.237   1.081   6.270 -1.9352  1.7754 -0.7025
 2655SOL     OW 8863   4.936   5.419   1.885 -0.7032  0.3211 -0.4124
 2655SOL    HW1 8864   4.861   5.366   1.926 -0.9032  0.3227 -0.7684
 2655SOL    HW2 8865   5.010   5.428   1.951 -0.1424 -1.4708 -0.7468
 2656SOL     OW 8866   6.509   3.045   5.460 -0.0923 -0.0960 -0.3410
 2656SOL    HW1 8867   6.560   2.997   5.532 -2.2471  0.4064  1.6583
 2656SOL    HW2 8868   6.506   3.142   5.481 -1.5355 -0.0731 -0.5828
 2657SOL     OW 8869   3.383   1.968   0.295 -0.3022  1.0586 -0.6714
 2657SOL    HW1 8870   3.382   2.067   0.286 -0.4750  1.2250  0.8819
 2657SOL    HW2 8871   3.475   1.938   0.323 -0.6280  0.9535  0.3301
 2658SOL     OW 8872   6.487   3.542   0.387  0.3641 -0.1623 -0.3338
 2658SOL    HW1 8873   6.417   3.496   0.442  1.9538 -1.0588  1.0253
 2658SOL    HW2 8874   6.457   3.635   0.367 -0.3357  0.1996  2.0494
 2659SOL     OW 8875   5.909   2.567   3.008  0.5595  0.5091 -0.4027
 2659SOL    HW1 8876   5.892   2.616   2.923 -0.2343  0.0947 -0.4919
 2659SOL    HW2 8877   5.827   2.570   3.065  1.2735  1.2992  0.6232
 2660SOL     OW 8878   0.850   1.497   3.663 -0.4845  0.4685  0.0307
 2660SOL    HW1 8879   0.797   1.417   3.692  0.1140  0.0378 -0.0382
 2660SOL    HW2 8880   0.882   1.547   3.743  2.6229 -1.6694  0.3140
 2661SOL     OW 8881   2.746   0.636   4.395 -0.0282 -0.0640  0.2307
 2661SOL    HW1 8882   2.804   0.710   4.429  1.1850 -1.0067  0.2962
 2661SOL    HW2 8883   2.765   0.620   4.298  0.4063 -0.8920  0.4428
 2662SOL     OW 8884   5.274   2.712   5.422  0.1565 -0.5284  0.2255
 2662SOL    HW1 8885   5.361   2.686   5.465  0.1725 -0.2534  0.3592
 2662SOL    HW2 8886   5.223   2.629   5.398 -0.3758 -0.6784  1.8193
 2663SOL     OW 8887   2.037   4.284   4.148  0.0570  0.6768  1.2194
 2663SOL    HW1 8888   2.057   4.373   4.189  1.0525 -0.1820  2.6822
 2663SOL    HW2 8889   2.122   4.236   4.129 -0.4151  0.6069 -0.9581
 2664SOL     OW 8890   5.765   4.618   1.840  0.0873 -0.0307  0.3420
 2664SOL    HW1 8891   5.705   4.696   1.820 -0.9452 -0.8409  0.2413
 2664SOL    HW2 8892   5.730   4.568   1.919  0.5848 -0.5729  0.2302
 2665SOL     OW 8893   3.622   6.830   4.877 -0.2051 -0.2637  0.1620
 2665SOL    HW1 8894   3.653   6.737   4.856  1.9431  0.6062 -0.8591
 2665SOL    HW2 8895   3.697   6.881   4.919 -1.1800  1.1770  0.2263
 2666SOL     OW 8896   4.687   5.858   0.398 -0.1084 -0.5125 -0.3329
 2666SOL    HW1 8897   4.779   5.820   0.394 -0.0949 -0.8864  2.0990
 2666SOL    HW2 8898   4.672   5.900   0.488 -2.7161 -1.5549 -0.2105
 2667SOL     OW 8899   0.915   6.565   1.607  0.7172 -0.1317 -0.1011
 2667SOL    HW1 8900   0.996   6.619   1.586  0.8109  0.0238  0.6250
 2667SOL    HW2 8901   0.938   6.496   1.676  0.6835 -1.3362 -1.2644
 2668SOL     OW 8902   6.069   2.777   6.083  0.3244 -0.5246  0.1327
 2668SOL    HW1 8903   6.076   2.875   6.066 -0.4085 -0.8901 -2.9221
 2668SOL    HW2 8904   6.073   2.728   5.996  1.2378 -3.2848  1.5961
 2669SOL     OW 8905   4.818   4.974   5.736  0.0090 -0.1515  0.3769
 2669SOL    HW1 8906   4.824   4.982   5.835  0.2728 -1.3285  0.4643
 2669SOL    HW2 8907   4.764   5.050   5.700 -0.6618 -0.0852  1.4888
 2670SOL     OW 8908   1.824   6.625   6.193  0.0848  0.0412  0.1736
 2670SOL    HW1 8909   1.764   6.660   6.264  0.3031 -0.2934  0.5234
 2670SOL    HW2 8910   1.904   6.582   6.234  0.0386 -0.4803 -0.2609
 2671SOL     OW 8911   2.783   3.814   5.813 -0.0117 -0.4668 -0.0512
 2671SOL    HW1 8912   2.758   3.769   5.728  1.6509 -1.2867 -0.1458
 2671SOL    HW2 8913   2.702   3.858   5.853 -1.2171 -1.6661 -1.0784
 2672SOL     OW 8914   1.969   2.528   6.683  0.2861  0.6064  0.0483
 2672SOL    HW1 8915   2.068   2.535   6.694  0.4968 -1.0094 -0.4701
 2672SOL    HW2 8916   1.934   2.455   6.742 -0.8707  2.2214  1.4544
 2673SOL     OW 8917   4.793   1.953   3.959 -0.0741 -0.4622 -0.0232
 2673SOL    HW1 8918   4.882   1.931   3.919 -0.6934 -0.6716 -1.3263
 2673SOL    HW2 8919   4.724   1.958   3.887 -0.6231  2.4696  0.5611
 2674SOL     OW 8920   3.812   6.438   4.770  0.3418  0.1342 -0.0843
 2674SOL    HW1 8921   3.885   6.505   4.757 -0.7542  0.8465 -3.4420
 2674SOL    HW2 8922   3.753   6.468   4.845  0.3362  2.5752 -0.9580
 2675SOL     OW 8923   5.352   5.094   4.273 -0.0353  0.1778  0.3142
 2675SOL    HW1 8924   5.420   5.051   4.332  0.0278  0.0630  0.1603
 2675SOL    HW2 8925   5.276   5.128   4.328  0.0193  0.0649  0.4591
 2676SOL     OW 8926   4.027   5.457   0.221 -0.1227  0.7266  0.2459
 2676SOL    HW1 8927   4.106   5.436   0.163  0.1009  0.5248  0.6160
 2676SOL    HW2 8928   3.980   5.371   0.243 -1.3621  0.9793 -1.2402
 2677SOL     OW 8929   1.926   5.736   3.192 -0.2882  0.0631  0.6012
 2677SOL    HW1 8930   1.948   5.775   3.281  0.3795 -0.8454  0.8513
 2677SOL    HW2 8931   1.853   5.668   3.202  0.6702 -0.9798  0.6856
 2678SOL     OW 8932   0.805   4.419   6.278 -0.2601  0.0316 -0.3911
 2678SOL    HW1 8933   0.899   4.419   6.313  0.2171 -0.3119 -1.6408
 2678SOL    HW2 8934   0.777   4.514   6.260  0.3457  0.0491 -1.2953
 2679SOL     OW 8935   2.180   6.365   0.643 -0.1196 -0.6827 -0.0706
 2679SOL    HW1 8936   2.179   6.270   0.672 -0.5147 -1.6781 -3.0300
 2679SOL    HW2 8937   2.271   6.388   0.608 -1.0146 -1.3309 -3.1150
 2680SOL     OW 8938   5.599   2.430   0.145 -0.3393  0.1091 -0.2874
 2680SOL    HW1 8939   5.574   2.451   0.240  0.2934  1.2357 -0.3465
 2680SOL    HW2 8940   5.690   2.467   0.126  0.7893 -2.5817 -0.5134
 2681SOL     OW 8941   1.035   6.192   2.868 -0.1021  0.3472  0.7115
 2681SOL    HW1 8942   0.948   6.229   2.836 -0.5995 -1.7346 -0.4514
 2681SOL    HW2 8943   1.110   6.247   2.830 -0.8537  1.6891  1.1052
 2682SOL     OW 8944   6.001   4.121   4.087 -0.0007  0.4087  0.1181
 2682SOL    HW1 8945   6.009   4.214   4.051 -0.8803  0.4521  0.0310
 2682SOL    HW2 8946   6.092   4.088   4.113  0.2200  1.5801  0.8830
 2683SOL     OW 8947   0.854   1.711   1.193  0.0148  0.0680 -0.2115
 2683SOL    HW1 8948   0.860   1.800   1.147 -0.6023 -0.0970 -0.6235
 2683SOL    HW2 8949   0.837   1.640   1.125  0.2143 -0.3271  0.1528
 2684SOL     OW 8950   3.382   5.595   3.077 -0.2758 -0.3689  0.3344
 2684SOL    HW1 8951   3.338   5.666   3.131  0.6919  0.1748  0.4445
 2684SOL    HW2 8952   3.458   5.555   3.129 -1.1989 -1.9584  0.5285
 2685SOL     OW 8953   3.567   4.885   5.535 -0.4253 -0.1483 -0.0062
 2685SOL    HW1 8954   3.661   4.899   5.503 -0.8838 -1.3162 -2.0670
 2685SOL    HW2 8955   3.521   4.819   5.475 -2.2272 -0.4675  1.6373
 2686SOL     OW 8956   2.009   4.810   3.939  0.1504 -0.4410 -0.0540
 2686SOL    HW1 8957   1.934   4.868   3.909  0.5242  0.9271  1.5178
 2686SOL    HW2 8958   2.095   4.843   3.900  0.0082 -2.0845 -1.9610
 2687SOL     OW 8959   5.177   3.640   1.001  0.8149 -0.4258 -0.0263
 2687SOL    HW1 8960   5.255   3.589   0.965 -0.5974 -1.4591 -1.8484
 2687SOL    HW2 8961   5.173   3.730   0.958 -0.7940 -1.6085 -2.6413
 2688SOL     OW 8962   3.391   5.635   6.306 -0.2356  0.2493 -0.0070
 2688SOL    HW1 8963   3.407   5.536   6.309 -0.9780  0.1351  1.4393
 2688SOL    HW2 8964   3.361   5.661   6.215 -1.5895 -1.1404 -0.0018
 2689SOL     OW 8965   6.762   1.021   3.780  0.4530  0.6272 -0.2674
 2689SOL    HW1 8966   6.812   0.934   3.786  1.5237  1.3054  1.0545
 2689SOL    HW2 8967   6.664   1.003   3.790  0.7071 -0.3892  0.6145
 2690SOL     OW 8968   3.711   3.458   2.680  0.8001  0.3446 -0.1150
 2690SOL    HW1 8969   3.737   3.415   2.766 -0.3107 -0.8616 -0.3494
 2690SOL    HW2 8970   3.647   3.533   2.699  1.4459  0.8309  0.1788
 2691SOL     OW 8971   0.982   5.009   1.140 -0.6850  0.2078 -0.5430
 2691SOL    HW1 8972   1.081   5.014   1.152 -0.5243  3.6212 -2.0856
 2691SOL    HW2 8973   0.937   5.004   1.229  0.7378 -3.9408  0.1905
 2692SOL     OW 8974   1.339   4.024   3.939  0.3713 -0.5514  0.2053
 2692SOL    HW1 8975   1.299   3.957   3.876 -1.2478 -1.2152  1.8412
 2692SOL    HW2 8976   1.315   4.000   4.033 -0.4436  2.3968  0.8758
 2693SOL     OW 8977   1.442   3.422   2.350 -0.0238 -0.6029 -0.7008
 2693SOL    HW1 8978   1.498   3.439   2.431  1.6915  1.2860 -2.1677
 2693SOL    HW2 8979   1.356   3.378   2.377  0.5036 -0.0892  2.1080
 2694SOL     OW 8980   3.039   1.875   2.835  0.2740 -0.2930 -0.0587
 2694SOL    HW1 8981   3.076   1.889   2.927  1.3868  1.7882 -0.7556
 2694SOL    HW2 8982   3.108   1.829   2.778 -0.1879 -1.0448 -0.0233
 2695SOL     OW 8983   2.954   1.932   2.013 -0.1691 -0.3083 -0.3290
 2695SOL    HW1 8984   2.914   1.913   2.103 -0.3639 -2.0788 -0.7537
 2695SOL    HW2 8985   2.890   1.984   1.958 -1.1618 -1.5138 -0.3477
 2696SOL     OW 8986   2.916   4.395   0.762 -0.5735  0.7348  0.5229
 2696SOL    HW1 8987   2.846   4.331   0.796  0.5280  0.2071  1.8911
 2696SOL    HW2 8988   3.006   4.362   0.787  0.1241  1.9765 -0.2590
 2697SOL     OW 8989   1.926   6.967   6.424 -0.5727  0.5056 -0.0270
 2697SOL    HW1 8990   2.016   6.976   6.381 -0.6705 -0.7224 -0.5121
 2697SOL    HW2 8991   1.881   6.883   6.393 -2.2195  1.4665 -0.3840
 2698SOL     OW 8992   3.272   6.917   0.235  0.0079  0.2167  0.1955
 2698SOL    HW1 8993   3.294   6.998   0.288  0.8380  1.2849 -1.6794
 2698SOL    HW2 8994   3.174   6.899   0.241 -0.0529  0.8147  1.3328
 2699SOL     OW 8995   1.884   3.774   2.155 -0.1563 -0.1479  0.9027
 2699SOL    HW1 8996   1.802   3.725   2.183 -0.7001  1.2455  1.8416
 2699SOL    HW2 8997   1.865   3.872   2.153  1.0869  0.0976 -0.2905
 2700SOL     OW 8998   1.146   4.284   3.444  0.0730  0.7880 -0.3939
 2700SOL    HW1 8999   1.190   4.331   3.520 -0.6322  2.1434 -0.7826
 2700SOL    HW2 9000   1.060   4.243   3.474  0.0174  0.9362 -0.3493
 2701SOL     OW 9001   1.700   0.840   3.029  0.1799 -0.0347 -0.4798
 2701SOL    HW1 9002   1.695   0.889   3.116 -2.9451 -0.4460 -0.3123
 2701SOL    HW2 9003   1.738   0.749   3.045 -0.6981 -0.2444  0.5501
 2702SOL     OW 9004   6.609   4.476   2.170 -0.2245 -0.2260  0.8266
 2702SOL    HW1 9005   6.545   4.400   2.155 -0.7178  0.0406  1.5371
 2702SOL    HW2 9006   6.619   4.528   2.086 -0.5877 -0.5404  0.5828
 2703SOL     OW 9007   1.906   2.689   1.613 -0.0240 -0.7425 -0.3636
 2703SOL    HW1 9008   1.993   2.674   1.567 -0.3658  0.2610 -1.3807
 2703SOL    HW2 9009   1.834   2.640   1.565  0.2014 -3.1482  1.5635
 2704SOL     OW 9010   0.537   5.867   6.969 -0.1772  0.4092  0.3759
 2704SOL    HW1 9011   0.587   5.788   6.934  0.3192 -0.4984  2.8865
 2704SOL    HW2 9012   0.439   5.851   6.962 -0.0771 -0.3685  0.6504
 2705SOL     OW 9013   5.983   2.103   3.069 -0.2932 -0.6141  0.1519
 2705SOL    HW1 9014   5.983   2.047   2.986  0.4913 -2.4808  1.3637
 2705SOL    HW2 9015   5.890   2.133   3.089 -0.4427  0.2701 -1.6150
 2706SOL     OW 9016   5.610   0.789   2.876 -0.0696 -0.1526  0.0982
 2706SOL    HW1 9017   5.705   0.763   2.858  0.0784 -0.6582  1.5004
 2706SOL    HW2 9018   5.561   0.798   2.789  1.3468  0.5123 -0.6747
 2707SOL     OW 9019   3.276   1.286   0.354  0.1918  0.3163 -0.1853
 2707SOL    HW1 9020   3.357   1.324   0.398 -1.0773  1.0640  1.6233
 2707SOL    HW2 9021   3.229   1.358   0.303  0.0639  0.1414 -0.3169
 2708SOL     OW 9022   0.121   6.105   6.035  0.4891 -0.0797 -0.2254
 2708SOL    HW1 9023   0.202   6.144   6.078  0.8955 -1.2496  0.1019
 2708SOL    HW2 9024   0.042   6.117   6.095  0.8982 -1.0150  0.5151
 2709SOL     OW 9025   5.486   0.113   2.564  0.4873 -0.0168  0.7521
 2709SOL    HW1 9026   5.509   0.033   2.508 -0.9759  1.1913 -1.7327
 2709SOL    HW2 9027   5.411   0.090   2.625 -1.4571 -0.0722 -1.5014
 2710SOL     OW 9028   5.303   4.257   1.930 -0.3631  0.3394 -0.3217
 2710SOL    HW1 9029   5.223   4.285   1.877  0.2153 -3.4030 -3.6041
 2710SOL    HW2 9030   5.276   4.187   1.996  0.2512 -2.8399 -3.1552
 2711SOL     OW 9031   0.038   6.301   1.235  0.1921 -0.5028 -0.7832
 2711SOL    HW1 9032   0.096   6.382   1.237 -1.1778  0.5267 -1.7703
 2711SOL    HW2 9033   0.092   6.221   1.264  1.2669  0.9065  1.3305
 2712SOL     OW 9034   4.143   2.015   2.968 -0.0090 -0.2571  0.4292
 2712SOL    HW1 9035   4.175   1.977   2.881  0.8372 -0.5049  0.8367
 2712SOL    HW2 9036   4.134   2.114   2.960  0.2055 -0.2626  0.0968
 2713SOL     OW 9037   0.790   2.226   4.601 -0.6154 -0.5439  0.0254
 2713SOL    HW1 9038   0.722   2.153   4.589 -0.0656 -1.1085  0.2823
 2713SOL    HW2 9039   0.826   2.222   4.694 -0.0074 -0.4500 -0.2057
 2714SOL     OW 9040   6.947   0.149   6.214  0.2854 -0.2538  0.2679
 2714SOL    HW1 9041   6.848   0.137   6.220  0.0617  1.3141  0.2802
 2714SOL    HW2 9042   6.993   0.061   6.228 -1.0690 -0.8568  1.1225
 2715SOL     OW 9043   6.607   5.755   6.353 -0.3771 -0.0662  1.0234
 2715SOL    HW1 9044   6.534   5.793   6.411 -0.6268  0.2004  0.5365
 2715SOL    HW2 9045   6.693   5.800   6.375 -0.6720  0.8000  0.4428
 2716SOL     OW 9046   5.647   6.700   2.047  0.6858 -0.0187  0.3798
 2716SOL    HW1 9047   5.708   6.653   2.111  1.4873  0.6496  0.1251
 2716SOL    HW2 9048   5.645   6.797   2.068  0.1327  0.0513  0.0278
 2717SOL     OW 9049   5.613   2.402   2.088  0.0441 -0.5776  0.7198
 2717SOL    HW1 9050   5.518   2.373   2.098 -0.2398  0.4267  1.1039
 2717SOL    HW2 9051   5.639   2.456   2.168  0.9501 -0.8723  0.6301
 2718SOL     OW 9052   6.285   2.910   4.012  0.0546  0.4301  0.4436
 2718SOL    HW1 9053   6.258   2.815   4.026  2.0040 -0.2965 -0.3579
 2718SOL    HW2 9054   6.235   2.947   3.933  2.1946 -1.3364 -1.9224
 2719SOL     OW 9055   5.501   3.631   4.126  0.0187 -0.6922 -0.6551
 2719SOL    HW1 9056   5.514   3.693   4.203  3.2044  0.0477 -1.6477
 2719SOL    HW2 9057   5.425   3.663   4.070 -0.3282  0.5592  0.4858
 2720SOL     OW 9058   6.799   1.087   4.514  0.0622  0.1040  0.1603
 2720SOL    HW1 9059   6.761   1.177   4.494  1.6625  0.4536 -1.5787
 2720SOL    HW2 9060   6.732   1.016   4.491  0.0318  0.7368 -1.9082
 2721SOL     OW 9061   5.040   5.972   1.889  0.5105 -0.9660  0.2340
 2721SOL    HW1 9062   4.988   5.954   1.805 -0.8161 -1.7925  1.1796
 2721SOL    HW2 9063   5.077   5.886   1.924 -0.3525 -0.9081  1.3511
 2722SOL     OW 9064   6.739   5.839   3.388 -0.4425 -0.1523 -0.0621
 2722SOL    HW1 9065   6.745   5.848   3.289 -3.1047 -2.7935 -0.6095
 2722SOL    HW2 9066   6.652   5.796   3.413  0.5861 -0.5818  3.3567
 2723SOL     OW 9067   3.409   6.903   6.585  0.1445  0.0991 -0.0922
 2723SOL    HW1 9068   3.494   6.854   6.569  0.2988  0.1659  0.4944
 2723SOL    HW2 9069   3.348   6.846   6.641 -0.4824 -0.2385 -1.0822
 2724SOL     OW 9070   3.573   5.508   5.535  0.1977  0.0226 -0.3151
 2724SOL    HW1 9071   3.538   5.420   5.566 -0.2099  0.3529  0.1653
 2724SOL    HW2 9072   3.618   5.496   5.446  3.1520 -1.3541  1.1883
 2725SOL     OW 9073   0.933   5.954   1.785 -0.0756 -0.5047  0.4277
 2725SOL    HW1 9074   1.032   5.964   1.776 -0.2782  1.1042 -0.3495
 2725SOL    HW2 9075   0.912   5.868   1.831  1.6574 -1.1059  0.1509
 2726SOL     OW 9076   2.606   5.208   2.861  0.5048 -0.2445 -0.1754
 2726SOL    HW1 9077   2.574   5.171   2.948  0.8525 -2.2629 -0.8383
 2726SOL    HW2 9078   2.540   5.185   2.789  0.5390  0.8216 -0.5596
 2727SOL     OW 9079   1.890   4.094   4.629  0.2265 -0.0898  0.2341
 2727SOL    HW1 9080   1.976   4.044   4.631 -0.3021 -1.0101  0.9709
 2727SOL    HW2 9081   1.829   4.054   4.560  0.5025  0.7826 -0.5388
 2728SOL     OW 9082   1.357   0.556   3.856 -0.3463  0.1975  0.2413
 2728SOL    HW1 9083   1.330   0.648   3.827 -0.4077  0.1903  0.2772
 2728SOL    HW2 9084   1.308   0.488   3.801  2.0205  0.1736 -2.0516
 2729SOL     OW 9085   6.164   2.340   2.378 -0.1533  0.6081 -0.3646
 2729SOL    HW1 9086   6.187   2.351   2.475 -0.9363 -0.5032 -0.0287
 2729SOL    HW2 9087   6.203   2.254   2.344 -2.7569 -0.8425 -0.0358
 2730SOL     OW 9088   2.471   2.255   0.702 -0.1530 -0.1816 -0.3855
 2730SOL    HW1 9089   2.555   2.286   0.658 -0.3143  0.2373 -0.4082
 2730SOL    HW2 9090   2.463   2.297   0.793  0.2971 -1.2256  0.1585
 2731SOL     OW 9091   0.630   5.007   4.612 -0.2211  0.2521  0.8974
 2731SOL    HW1 9092   0.710   4.954   4.642  0.0377  0.1356  0.0323
 2731SOL    HW2 9093   0.548   4.971   4.657  0.1242 -0.0622  1.2867
 2732SOL     OW 9094   5.081   2.581   3.192  0.5163 -0.7218  0.3989
 2732SOL    HW1 9095   4.990   2.546   3.216  0.4983 -0.1692  1.1619
 2732SOL    HW2 9096   5.146   2.555   3.263  0.2587  1.8354  1.6614
 2733SOL     OW 9097   3.363   1.249   2.748  0.8607 -0.0581 -0.2383
 2733SOL    HW1 9098   3.298   1.305   2.697  1.7997 -0.8123 -2.3640
 2733SOL    HW2 9099   3.400   1.303   2.824 -0.2278  1.2762 -0.6163
 2734SOL     OW 9100   1.455   0.177   3.588  0.6304  0.1581 -0.3637
 2734SOL    HW1 9101   1.529   0.238   3.616  1.1186  0.5180 -2.3083
 2734SOL    HW2 9102   1.470   0.086   3.629  0.7967  0.8622  1.2025
 2735SOL     OW 9103   3.242   6.164   2.114 -0.0958  0.0653 -0.2901
 2735SOL    HW1 9104   3.242   6.141   2.016 -0.3162  1.4214 -0.6288
 2735SOL    HW2 9105   3.284   6.090   2.165  1.9292  0.2043 -1.6305
 2736SOL     OW 9106   6.995   1.426   5.172 -0.1072  0.0486 -0.4768
 2736SOL    HW1 9107   7.056   1.440   5.094 -0.7595 -0.2430 -1.0622
 2736SOL    HW2 9108   6.945   1.510   5.191 -0.7072 -0.1681 -1.0557
 2737SOL     OW 9109   3.892   4.714   5.371  0.3417 -0.1478 -0.0156
 2737SOL    HW1 9110   3.942   4.768   5.439 -0.1974 -0.4991  0.6788
 2737SOL    HW2 9111   3.951   4.640   5.337  0.5891 -0.0150  0.1210
 2738SOL     OW 9112   6.856   5.015   5.308 -0.3958  0.7024  0.0434
 2738SOL    HW1 9113   6.765   5.041   5.338 -1.5992 -1.6494 -1.2575
 2738SOL    HW2 9114   6.901   4.963   5.380 -0.9767  0.0110 -0.0779
 2739SOL     OW 9115   4.333   4.724   6.490 -0.3196 -0.7688 -0.1866
 2739SOL    HW1 9116   4.431   4.731   6.506 -0.4442 -0.4181  0.4331
 2739SOL    HW2 9117   4.307   4.628   6.482 -0.3705 -1.0493  2.5297
 2740SOL     OW 9118   1.962   2.959   3.670  0.7062 -0.3624 -0.5946
 2740SOL    HW1 9119   1.991   3.053   3.654  1.9734 -0.6433 -0.1054
 2740SOL    HW2 9120   2.038   2.907   3.710 -0.7220 -0.9383  1.5439
 2741SOL     OW 9121   2.814   3.465   6.586  0.4774 -0.0953 -0.8393
 2741SOL    HW1 9122   2.799   3.559   6.555  1.7087  1.0850  1.7877
 2741SOL    HW2 9123   2.729   3.413   6.578 -0.7021  1.7385 -0.7974
 2742SOL     OW 9124   3.924   6.953   4.447  0.0275  0.1262 -0.3314
 2742SOL    HW1 9125   4.016   6.953   4.408  0.5229  1.6385  0.7403
 2742SOL    HW2 9126   3.908   7.039   4.495 -1.5721 -0.5326  0.4000
 2743SOL     OW 9127   5.931   4.189   0.940 -0.1974  0.3121  0.1018
 2743SOL    HW1 9128   6.031   4.201   0.939  0.1634 -2.1688  0.2239
 2743SOL    HW2 9129   5.891   4.250   1.009  1.6755 -1.2395  2.7359
 2744SOL     OW 9130   5.276   4.805   0.257 -0.1104  0.2139  0.8430
 2744SOL    HW1 9131   5.199   4.768   0.205  1.4143 -0.1863 -1.2795
 2744SOL    HW2 9132   5.314   4.734   0.316 -0.1723 -0.1629  0.4328
 2745SOL     OW 9133   3.959   6.808   2.246 -0.2903 -0.1308 -0.2876
 2745SOL    HW1 9134   4.039   6.832   2.190  0.0717 -0.8209 -0.0759
 2745SOL    HW2 9135   3.957   6.865   2.328 -0.6761  0.7060 -0.8661
 2746SOL     OW 9136   1.707   2.950   5.590 -0.2012  0.5016  0.3212
 2746SOL    HW1 9137   1.769   2.890   5.541 -0.9635 -2.0397  2.2493
 2746SOL    HW2 9138   1.627   2.970   5.533  0.1331 -0.2071 -0.4105
 2747SOL     OW 9139   4.035   5.662   2.661 -0.1431 -0.2347  0.4830
 2747SOL    HW1 9140   3.938   5.688   2.668 -0.2735 -0.5557 -0.0250
 2747SOL    HW2 9141   4.081   5.680   2.748 -0.4590  0.7150  0.4573
 2748SOL     OW 9142   5.262   0.282   5.731  0.1803 -0.2393  0.1374
 2748SOL    HW1 9143   5.185   0.295   5.669  0.5742  0.3551 -0.2470
 2748SOL    HW2 9144   5.232   0.295   5.825 -0.4293 -1.1741  0.0812
 2749SOL     OW 9145   0.532   5.688   3.355  0.0835  0.5433  0.0945
 2749SOL    HW1 9146   0.486   5.771   3.387 -1.5007 -1.0788  2.2905
 2749SOL    HW2 9147   0.484   5.608   3.389  1.3933 -1.3479 -2.2019
 2750SOL     OW 9148   1.530   0.594   0.239  0.0906  0.5955  0.2551
 2750SOL    HW1 9149   1.487   0.673   0.195  0.2784  0.7127  0.2822
 2750SOL    HW2 9150   1.616   0.573   0.193 -0.7946 -0.6881 -0.9135
 2751SOL     OW 9151   0.815   0.756   1.906 -0.0229 -0.5179  0.4360
 2751SOL    HW1 9152   0.837   0.854   1.907 -0.4158 -0.4293  0.4860
 2751SOL    HW2 9153   0.771   0.731   1.992 -1.8815 -0.2783 -0.4149
 2752SOL     OW 9154   6.839   4.936   5.671 -0.0231 -0.3508 -0.2192
 2752SOL    HW1 9155   6.873   5.025   5.703  1.0704 -0.9709  0.4311
 2752SOL    HW2 9156   6.742   4.943   5.651  0.5445  1.6781 -2.7804
 2753SOL     OW 9157   0.480   5.575   1.729 -0.0514  0.7315  0.4956
 2753SOL    HW1 9158   0.396   5.629   1.724  0.1846  1.0263 -0.4004
 2753SOL    HW2 9159   0.456   5.478   1.738 -0.5762  0.5248 -2.2309
 2754SOL     OW 9160   1.187   5.560   5.252  0.5324 -0.2229 -0.0989
 2754SOL    HW1 9161   1.121   5.487   5.239 -0.2879  0.1460  1.7269
 2754SOL    HW2 9162   1.154   5.623   5.322  2.4904  0.3739  0.3461
 2755SOL     OW 9163   3.720   0.828   0.629 -0.0015  0.0009 -0.3911
 2755SOL    HW1 9164   3.777   0.803   0.707 -0.1465  0.5380 -0.1153
 2755SOL    HW2 9165   3.669   0.747   0.598 -0.5127 -0.0378  0.5341
 2756SOL     OW 9166   0.250   3.009   4.104  0.1161  0.5899 -0.3265
 2756SOL    HW1 9167   0.337   2.966   4.081  0.0140  0.3420 -0.2502
 2756SOL    HW2 9168   0.266   3.084   4.169 -0.1576 -2.5312  3.7430
 2757SOL     OW 9169   6.691   4.058   5.024 -0.2593  0.4809  0.0558
 2757SOL    HW1 9170   6.774   4.109   5.046 -0.0619  0.6291 -0.9738
 2757SOL    HW2 9171   6.702   3.962   5.050  0.1163  0.5644  0.2080
 2758SOL     OW 9172   5.975   6.963   6.815 -0.2033  0.5434 -0.1854
 2758SOL    HW1 9173   5.981   7.009   6.726 -0.1368  1.0688  0.0829
 2758SOL    HW2 9174   6.047   6.894   6.822  0.1206  0.8631 -0.3360
 2759SOL     OW 9175   3.788   3.631   4.377 -0.0441 -0.1533 -0.3395
 2759SOL    HW1 9176   3.859   3.696   4.403 -0.6787  0.4072  0.0444
 2759SOL    HW2 9177   3.708   3.644   4.437 -0.2728 -1.1133 -0.4273
 2760SOL     OW 9178   4.309   5.880   4.181 -0.2043 -1.0264  0.5955
 2760SOL    HW1 9179   4.322   5.932   4.096  0.0642 -1.2719  0.4868
 2760SOL    HW2 9180   4.390   5.888   4.238 -1.0839  0.7351  1.7149
 2761SOL     OW 9181   2.808   2.307   3.827 -0.8701 -0.3492  0.0476
 2761SOL    HW1 9182   2.737   2.377   3.822 -1.3679 -0.8789 -0.4771
 2761SOL    HW2 9183   2.848   2.293   3.737  1.8948  1.9095  0.7794
 2762SOL     OW 9184   4.254   2.534   1.767  0.2023  0.3662  0.1226
 2762SOL    HW1 9185   4.332   2.557   1.708  0.6987 -0.3312  0.4919
 2762SOL    HW2 9186   4.284   2.470   1.837 -1.1208 -1.4271 -0.8782
 2763SOL     OW 9187   5.294   0.266   4.212  0.4333  0.0521 -0.1906
 2763SOL    HW1 9188   5.287   0.189   4.148  0.0377  0.2199 -0.3501
 2763SOL    HW2 9189   5.239   0.248   4.293  0.7156 -0.0386 -0.0167
 2764SOL     OW 9190   1.797   3.301   2.155  0.2469  0.4547 -0.0197
 2764SOL    HW1 9191   1.846   3.229   2.105 -0.7668 -0.7239  0.6276
 2764SOL    HW2 9192   1.846   3.388   2.145  0.8109 -0.0339 -1.8938
 2765SOL     OW 9193   6.696   6.761   4.898 -0.2318  0.3476 -0.3264
 2765SOL    HW1 9194   6.689   6.663   4.884  2.6002  0.2440 -1.9553
 2765SOL    HW2 9195   6.776   6.781   4.955  0.1969  1.7038 -1.3396
 2766SOL     OW 9196   6.232   0.486   6.856 -0.1558  0.3624  0.0829
 2766SOL    HW1 9197   6.321   0.524   6.829 -0.1402 -0.5221 -1.2135
 2766SOL    HW2 9198   6.247   0.403   6.909 -0.2054  0.8577  0.8764
 2767SOL     OW 9199   5.523   0.050   4.940 -0.7784  0.5421 -0.3314
 2767SOL    HW1 9200   5.567   0.013   5.021 -2.3560 -1.2541 -0.2358
 2767SOL    HW2 9201   5.540   0.149   4.935  1.8920  0.1955  0.4876
 2768SOL     OW 9202   5.079   1.155   3.349 -0.2204 -0.7210  0.4493
 2768SOL    HW1 9203   5.008   1.085   3.364 -0.8069 -0.6015 -1.4265
 2768SOL    HW2 9204   5.047   1.243   3.385 -1.6099 -0.4041 -1.3991
 2769SOL     OW 9205   0.974   5.115   5.646 -0.5065 -0.0981  0.3239
 2769SOL    HW1 9206   1.041   5.052   5.607 -0.4136 -1.2819  2.2572
 2769SOL    HW2 9207   1.010   5.208   5.644  1.3728 -0.7462  1.6261
 2770SOL     OW 9208   3.291   6.748   1.907  0.2569 -0.5155  0.1147
 2770SOL    HW1 9209   3.208   6.764   1.961 -0.6797 -2.1268 -0.7954
 2770SOL    HW2 9210   3.370   6.777   1.961 -0.8010  0.2312  1.3611
 2771SOL     OW 9211   5.009   5.382   0.743 -0.3260 -0.1965  0.5528
 2771SOL    HW1 9212   5.078   5.326   0.789  0.4305  0.8670  0.7273
 2771SOL    HW2 9213   4.969   5.446   0.809 -0.8568 -0.2064  0.2468
 2772SOL     OW 9214   5.723   4.733   2.091 -0.5268  0.4239  0.6279
 2772SOL    HW1 9215   5.811   4.780   2.095 -0.1266 -0.3544  2.0996
 2772SOL    HW2 9216   5.673   4.762   2.010  0.2009  2.4446  0.8268
 2773SOL     OW 9217   3.691   0.563   5.848 -0.1082 -0.5029  0.0216
 2773SOL    HW1 9218   3.790   0.560   5.865 -0.3597  1.5886  2.5110
 2773SOL    HW2 9219   3.645   0.601   5.928 -2.9549 -1.2915 -1.1341
 2774SOL     OW 9220   6.122   0.986   3.644 -0.4843  0.0043  0.2113
 2774SOL    HW1 9221   6.083   0.998   3.736  0.6310 -1.1903  0.8725
 2774SOL    HW2 9222   6.196   1.052   3.632  0.3323 -0.7968  0.7484
 2775SOL     OW 9223   0.041   2.446   3.150 -0.0195 -0.4505 -0.0459
 2775SOL    HW1 9224  -0.040   2.397   3.182 -0.1363 -0.7850 -0.8373
 2775SOL    HW2 9225   0.041   2.539   3.188 -0.3329 -0.7206  0.6281
 2776SOL     OW 9226   6.269   3.285   1.117 -0.3965  0.1566 -0.5746
 2776SOL    HW1 9227   6.293   3.353   1.185  0.8208 -1.4676  0.7173
 2776SOL    HW2 9228   6.352   3.257   1.067 -1.0624  0.4061 -1.8685
 2777SOL     OW 9229   1.797   2.538   1.190 -0.1337 -0.0579  0.1093
 2777SOL    HW1 9230   1.722   2.543   1.124  0.2891  0.0986 -0.3711
 2777SOL    HW2 9231   1.813   2.443   1.216  0.0637 -0.1815 -0.4511
 2778SOL     OW 9232   3.692   0.249   5.679  0.4517  0.1585  0.9448
 2778SOL    HW1 9233   3.708   0.345   5.656  3.5318 -0.5596 -0.4245
 2778SOL    HW2 9234   3.667   0.198   5.596  1.6657 -0.7033  1.0883
 2779SOL     OW 9235   6.637   1.866   1.407 -0.8483 -0.5227 -0.2252
 2779SOL    HW1 9236   6.604   1.960   1.410 -0.1736 -0.2801 -0.2345
 2779SOL    HW2 9237   6.683   1.850   1.319  1.6901  0.0705  0.9054
 2780SOL     OW 9238   0.200   1.193   5.320  0.1093  0.1446  0.6003
 2780SOL    HW1 9239   0.254   1.266   5.278 -0.5329  0.7779  0.8564
 2780SOL    HW2 9240   0.107   1.194   5.284  0.3403 -1.1919 -0.1292
 2781SOL     OW 9241   1.262   0.999   3.605 -0.1962  0.3355 -0.1267
 2781SOL    HW1 9242   1.235   0.935   3.677  1.1867  1.2532  1.2581
 2781SOL    HW2 9243   1.319   1.070   3.643 -1.3712  2.2296 -1.7034
 2782SOL     OW 9244   4.457   0.219   4.762 -0.5382  0.2187  0.3549
 2782SOL    HW1 9245   4.379   0.175   4.718 -0.7012  0.2695  0.5930
 2782SOL    HW2 9246   4.519   0.150   4.798  2.1257 -0.1344 -4.0988
 2783SOL     OW 9247   0.950   2.431   1.058  0.1742  0.3358 -0.4961
 2783SOL    HW1 9248   0.933   2.455   1.154 -0.1681 -4.1580  0.7967
 2783SOL    HW2 9249   1.004   2.503   1.015  0.2415  2.6206  2.9882
 2784SOL     OW 9250   3.428   1.330   4.688 -0.1361  0.0708 -0.1836
 2784SOL    HW1 9251   3.513   1.369   4.652 -1.0327  0.5248 -1.9694
 2784SOL    HW2 9252   3.350   1.377   4.646 -1.3331  0.7507  2.5676
 2785SOL     OW 9253   5.448   3.634   5.516 -0.4397  0.3736 -0.1463
 2785SOL    HW1 9254   5.470   3.616   5.613  1.9853  4.1036  0.2233
 2785SOL    HW2 9255   5.468   3.552   5.462  1.2198 -0.8602  2.1400
 2786SOL     OW 9256   0.433   5.466   0.345  0.5825  0.3928 -0.6651
 2786SOL    HW1 9257   0.337   5.490   0.362  0.0955 -1.1593 -1.0687
 2786SOL    HW2 9258   0.491   5.545   0.365 -0.8552  1.6714 -1.3204
 2787SOL     OW 9259   6.978   0.356   4.438 -0.9787  0.2126 -0.3997
 2787SOL    HW1 9260   7.022   0.402   4.362 -0.7823  0.6249 -0.0401
 2787SOL    HW2 9261   7.045   0.338   4.510 -1.5885  1.8231  0.6161
 2788SOL     OW 9262   2.884   6.997   5.862 -0.1017 -0.1489  0.5130
 2788SOL    HW1 9263   2.855   7.011   5.768  0.7508 -1.4964  0.0066
 2788SOL    HW2 9264   2.955   6.926   5.864  1.3618  1.2713  1.9457
 2789SOL     OW 9265   2.092   2.168   5.685 -0.5929  0.7439 -0.5800
 2789SOL    HW1 9266   2.103   2.207   5.593 -0.3897  3.2491  0.4491
 2789SOL    HW2 9267   2.005   2.197   5.724 -0.9497 -0.7945 -0.1750
 2790SOL     OW 9268   0.628   5.965   1.773 -0.1974 -0.0136 -0.0567
 2790SOL    HW1 9269   0.604   6.050   1.726 -1.2396  0.1437  0.7184
 2790SOL    HW2 9270   0.723   5.942   1.754 -0.7702 -0.3901 -2.9089
 2791SOL     OW 9271   0.283   5.900   6.628  0.4949  0.4091 -0.4151
 2791SOL    HW1 9272   0.280   5.877   6.725 -0.8466 -0.3769 -0.6057
 2791SOL    HW2 9273   0.203   5.956   6.604 -0.2771 -1.0309 -1.4055
 2792SOL     OW 9274   3.798   3.351   6.458 -0.0176 -0.3848  0.2049
 2792SOL    HW1 9275   3.818   3.307   6.371  1.3813  0.0110  0.3005
 2792SOL    HW2 9276   3.761   3.443   6.441 -1.1662 -0.8609  0.0328
 2793SOL     OW 9277   3.452   4.597   5.553 -0.6969  0.3440 -0.1500
 2793SOL    HW1 9278   3.545   4.561   5.561 -0.6047  0.6641  0.2803
 2793SOL    HW2 9279   3.411   4.566   5.467 -0.5535 -0.6221  0.1199
 2794SOL     OW 9280   5.851   1.890   1.176  0.6275  0.1699 -0.1199
 2794SOL    HW1 9281   5.919   1.820   1.199 -0.5880 -1.1177 -0.2948
 2794SOL    HW2 9282   5.822   1.877   1.081 -2.5922 -1.8053  0.9822
 2795SOL     OW 9283   0.761   0.766   0.928  0.2089 -0.1802 -0.3413
 2795SOL    HW1 9284   0.810   0.738   1.011 -0.4097 -0.9720 -0.2290
 2795SOL    HW2 9285   0.707   0.689   0.894  0.5281  0.1074 -1.5443
 2796SOL     OW 9286   2.839   4.681   0.766 -0.1601  0.8953 -0.4792
 2796SOL    HW1 9287   2.867   4.732   0.685 -0.2687  1.3939 -0.2035
 2796SOL    HW2 9288   2.878   4.589   0.762  1.7554  1.6323  0.0001
 2797SOL     OW 9289   3.869   3.512   4.647 -0.0100  0.6551  0.2454
 2797SOL    HW1 9290   3.936   3.451   4.604 -0.3092  0.7851 -0.4126
 2797SOL    HW2 9291   3.905   3.606   4.647  0.1222  0.6071  0.5682
 2798SOL     OW 9292   5.311   3.864   4.538 -0.3910 -0.5125 -0.1289
 2798SOL    HW1 9293   5.285   3.944   4.591 -1.4057 -1.7117  1.2494
 2798SOL    HW2 9294   5.240   3.843   4.471  0.4987  0.4946 -1.4502
 2799SOL     OW 9295   4.038   1.420   5.465  0.2154 -0.3681 -0.6685
 2799SOL    HW1 9296   4.006   1.462   5.380 -0.7529  0.6288  0.1657
 2799SOL    HW2 9297   4.036   1.321   5.455 -0.8059 -0.2835 -1.4887
 2800SOL     OW 9298   3.205   2.553   0.955  0.4534 -0.1717  0.2660
 2800SOL    HW1 9299   3.300   2.535   0.980  0.2117 -0.6539  0.8513
 2800SOL    HW2 9300   3.145   2.488   1.001 -0.2309  0.6242  0.5217
 2801SOL     OW 9301   1.296   4.257   3.178  0.5622  0.0565 -0.0165
 2801SOL    HW1 9302   1.270   4.269   3.274  0.1814  0.5952 -0.1809
 2801SOL    HW2 9303   1.217   4.222   3.127  0.3446  1.0677 -0.3931
 2802SOL     OW 9304   1.511   3.277   2.114 -0.2087  0.4215  0.3860
 2802SOL    HW1 9305   1.464   3.337   2.179 -1.4313  1.1038 -1.0548
 2802SOL    HW2 9306   1.609   3.278   2.133 -0.4076  1.4628  1.5093
 2803SOL     OW 9307   1.936   1.898   2.372 -0.0501  0.1004  0.1397
 2803SOL    HW1 9308   1.932   1.995   2.399 -1.5112 -0.2344  1.2670
 2803SOL    HW2 9309   1.905   1.889   2.278  1.1613  0.8339 -0.3557
 2804SOL     OW 9310   4.764   2.238   3.157  0.2876 -0.4722  0.3356
 2804SOL    HW1 9311   4.832   2.235   3.085  1.8780 -2.4018  1.8104
 2804SOL    HW2 9312   4.801   2.286   3.237 -0.6153 -0.2804  0.6547
 2805SOL     OW 9313   0.894   5.205   0.632  0.1539 -0.1212  0.2463
 2805SOL    HW1 9314   0.962   5.277   0.642 -0.8720  1.2820 -2.0933
 2805SOL    HW2 9315   0.936   5.125   0.590  0.4553  0.6314 -0.9344
 2806SOL     OW 9316   2.140   2.726   4.809 -0.4325 -0.2005 -0.6860
 2806SOL    HW1 9317   2.171   2.671   4.887 -0.6079  0.5953 -0.0292
 2806SOL    HW2 9318   2.201   2.804   4.798  0.1059 -0.7805 -1.9227
 2807SOL     OW 9319   5.458   6.107   2.535  0.0233  0.0208  0.2477
 2807SOL    HW1 9320   5.499   6.035   2.591  3.0219  0.5054 -1.0816
 2807SOL    HW2 9321   5.489   6.196   2.568  0.9402  0.3583 -1.4178
 2808SOL     OW 9322   0.977   6.015   6.820 -0.6628  0.5144 -0.6528
 2808SOL    HW1 9323   0.990   6.109   6.787 -0.1286  0.4264 -0.7049
 2808SOL    HW2 9324   0.976   5.953   6.741  1.1151  0.2466 -0.4934
 2809SOL     OW 9325   0.644   6.455   1.488 -0.1911  0.4493 -0.5983
 2809SOL    HW1 9326   0.733   6.469   1.532 -0.1832 -1.2376 -0.0115
 2809SOL    HW2 9327   0.571   6.470   1.554 -0.1746 -2.2453  0.1447
 2810SOL     OW 9328   0.022   6.834   3.813 -0.0515 -0.4426  0.4345
 2810SOL    HW1 9329  -0.046   6.907   3.811  1.3700  0.8945 -0.4508
 2810SOL    HW2 9330   0.070   6.835   3.900  0.9935  0.6786 -0.1347
 2811SOL     OW 9331   0.702   6.388   0.398  0.0631  0.2690  0.6463
 2811SOL    HW1 9332   0.795   6.426   0.404 -0.1874  0.8865  0.7002
 2811SOL    HW2 9333   0.679   6.373   0.302  0.1424  0.3054  0.6208
 2812SOL     OW 9334   1.332   0.162   6.877  0.4200 -0.3158 -0.2980
 2812SOL    HW1 9335   1.420   0.181   6.833  0.7772  0.4902  0.7273
 2812SOL    HW2 9336   1.316   0.229   6.950 -1.0170 -0.4936 -0.4218
 2813SOL     OW 9337   5.061   3.279   4.211  0.4004 -0.0303 -0.1653
 2813SOL    HW1 9338   5.056   3.329   4.125  0.2208 -0.4483 -0.3988
 2813SOL    HW2 9339   5.053   3.343   4.287 -0.6405  0.2104 -0.4684
 2814SOL     OW 9340   1.943   3.522   5.929  0.1235 -0.6496  0.2899
 2814SOL    HW1 9341   1.917   3.538   6.024 -1.1188 -0.2442 -0.1058
 2814SOL    HW2 9342   1.965   3.426   5.916  0.2142 -0.7217  0.9702
 2815SOL     OW 9343   4.547   6.015   4.849 -0.2570 -0.6140  0.0099
 2815SOL    HW1 9344   4.625   6.070   4.817  0.5643 -2.0017 -0.4524
 2815SOL    HW2 9345   4.546   6.014   4.949  0.5217 -0.8279  0.0259
 2816SOL     OW 9346   0.270   6.512   5.780  0.2074  0.4692  0.6350
 2816SOL    HW1 9347   0.210   6.544   5.854 -0.6888 -0.0344  0.1541
 2816SOL    HW2 9348   0.326   6.588   5.747  0.0248  0.8936  1.2865
 2817SOL     OW 9349   3.942   0.018   0.262  0.3552 -0.2553 -0.0221
 2817SOL    HW1 9350   3.985  -0.054   0.316  0.3173  0.9772  1.7669
 2817SOL    HW2 9351   3.849   0.034   0.297  1.2897  2.4811  1.5799
 2818SOL     OW 9352   2.311   6.554   0.264  0.7347 -0.5521 -0.3871
 2818SOL    HW1 9353   2.233   6.613   0.242  0.4129 -1.0360 -0.5389
 2818SOL    HW2 9354   2.396   6.599   0.234  0.3804 -0.7821 -1.7496
 2819SOL     OW 9355   0.037   1.405   6.930  0.1180  0.0672  0.3897
 2819SOL    HW1 9356  -0.029   1.426   7.002  0.7355  0.1229  0.9504
 2819SOL    HW2 9357   0.067   1.491   6.887 -0.3911  0.0205 -0.0682
 2820SOL     OW 9358   1.452   1.716   0.233 -0.2368 -0.8938  0.1414
 2820SOL    HW1 9359   1.521   1.759   0.291 -0.7268  1.4654 -0.9217
 2820SOL    HW2 9360   1.443   1.620   0.258  2.9855 -1.1594  0.7123
 2821SOL     OW 9361   3.808   2.888   5.227  0.2412 -0.1004 -0.4414
 2821SOL    HW1 9362   3.711   2.878   5.206  0.0510 -0.2069  0.4539
 2821SOL    HW2 9363   3.846   2.963   5.173 -0.6941  0.9517  0.3149
 2822SOL     OW 9364   3.813   2.205   0.970  0.4858 -0.5009 -0.3044
 2822SOL    HW1 9365   3.736   2.211   1.033  0.2029  1.2840 -0.7525
 2822SOL    HW2 9366   3.804   2.122   0.915 -1.1238 -0.3662 -0.3191
 2823SOL     OW 9367   4.036   4.839   2.078 -0.1774  0.0734  0.1080
 2823SOL    HW1 9368   4.129   4.852   2.112 -0.3340  0.8974  0.2417
 2823SOL    HW2 9369   3.971   4.857   2.152 -0.4121 -3.9514  1.1119
 2824SOL     OW 9370   0.738   2.928   5.374 -0.7232 -0.0456 -0.1874
 2824SOL    HW1 9371   0.669   2.998   5.393 -1.5617 -0.7849 -0.3859
 2824SOL    HW2 9372   0.778   2.897   5.460  1.0525  1.9977 -0.2163
 2825SOL     OW 9373   5.105   3.252   5.171  0.1169  0.3636 -0.1695
 2825SOL    HW1 9374   5.016   3.297   5.168 -0.5018 -0.8111 -0.5424
 2825SOL    HW2 9375   5.099   3.171   5.230  0.9519  0.3107 -0.1530
 2826SOL     OW 9376   3.708   1.353   6.552  0.1341  0.0919  0.4453
 2826SOL    HW1 9377   3.635   1.340   6.486 -2.0671  1.3585  2.4700
 2826SOL    HW2 9378   3.760   1.435   6.529 -1.7152  1.5198  1.1561
 2827SOL     OW 9379   6.659   1.466   1.868 -0.2254  0.0895 -0.8382
 2827SOL    HW1 9380   6.736   1.463   1.932 -1.1520 -0.1640  0.2904
 2827SOL    HW2 9381   6.671   1.395   1.799  0.5511  0.0409 -0.6661
 2828SOL     OW 9382   0.976   3.270   0.374  0.0685 -0.1435 -0.0852
 2828SOL    HW1 9383   0.889   3.319   0.369  0.2567  0.1444 -0.5624
 2828SOL    HW2 9384   1.051   3.333   0.355  0.4272 -0.2746  0.8380
 2829SOL     OW 9385   4.702   4.098   1.066  0.1700  0.2181 -0.3086
 2829SOL    HW1 9386   4.682   4.136   1.156  1.3640 -2.4503  1.1892
 2829SOL    HW2 9387   4.799   4.075   1.059  0.3588  1.3912 -2.7610
 2830SOL     OW 9388   4.660   5.191   3.440  0.0717 -0.0871 -0.2698
 2830SOL    HW1 9389   4.665   5.133   3.521  0.6205  1.5772  0.9476
 2830SOL    HW2 9390   4.743   5.247   3.434 -0.2333  0.2478 -1.6428
 2831SOL     OW 9391   5.093   3.109   0.111  0.1057  0.0344 -0.6092
 2831SOL    HW1 9392   5.066   3.032   0.053 -0.4949  0.9437 -1.5729
 2831SOL    HW2 9393   5.045   3.102   0.198 -0.2665 -0.4613 -0.8435
 2832SOL     OW 9394   2.120   2.693   0.834 -0.3149  0.4618  0.2684
 2832SOL    HW1 9395   2.063   2.661   0.758 -0.7713  1.7579  0.0353
 2832SOL    HW2 9396   2.166   2.778   0.807 -0.4571  0.9174  1.4193
 2833SOL     OW 9397   0.412   2.297   3.241 -0.1728  0.2560  0.0851
 2833SOL    HW1 9398   0.507   2.327   3.229  0.6624 -2.4023 -0.6609
 2833SOL    HW2 9399   0.376   2.334   3.327  0.8789  2.7570 -0.4496
 2834SOL     OW 9400   3.406   1.283   4.221 -0.3442 -0.1329  0.2160
 2834SOL    HW1 9401   3.416   1.366   4.166  0.1904 -0.0756  0.3980
 2834SOL    HW2 9402   3.495   1.240   4.234 -0.7122 -1.1611 -0.5210
 2835SOL     OW 9403   0.585   1.882   1.611  0.2036 -0.3652 -0.0741
 2835SOL    HW1 9404   0.523   1.953   1.644 -0.2103 -0.7341 -0.0441
 2835SOL    HW2 9405   0.667   1.924   1.571 -0.8004  0.2077 -1.6386
 2836SOL     OW 9406   4.045   6.264   3.401  0.0239 -0.6203  0.3667
 2836SOL    HW1 9407   4.092   6.200   3.340 -1.0454 -0.2117 -0.9257
 2836SOL    HW2 9408   3.947   6.264   3.381 -0.1762  0.4645  1.2381
 2837SOL     OW 9409   4.215   4.994   2.538  0.3219 -0.8617 -0.4018
 2837SOL    HW1 9410   4.216   4.918   2.603  1.4239 -1.1844 -0.7730
 2837SOL    HW2 9411   4.125   5.037   2.538  0.3685 -0.6829  1.5158
 2838SOL     OW 9412   5.916   6.074   6.107  0.5121  0.3726 -1.0015
 2838SOL    HW1 9413   5.962   6.031   6.185  1.8185  1.0249 -1.3909
 2838SOL    HW2 9414   5.945   6.029   6.023 -1.0518 -0.4658 -1.1318
 2839SOL     OW 9415   0.325   3.033   1.697 -0.4717  0.2576  0.4789
 2839SOL    HW1 9416   0.290   2.952   1.650  0.3196  0.2786 -0.1724
 2839SOL    HW2 9417   0.250   3.097   1.713 -1.1606 -0.7133  1.2570
 2840SOL     OW 9418   6.632   5.116   5.453 -0.2930  0.3964  0.0316
 2840SOL    HW1 9419   6.564   5.063   5.503  1.6538 -1.6595  0.6391
 2840SOL    HW2 9420   6.685   5.171   5.517  0.9499 -0.7886  0.0630
 2841SOL     OW 9421   5.938   2.220   3.336  0.8993 -0.5867  0.1938
 2841SOL    HW1 9422   6.009   2.205   3.267  1.2717  0.3519  0.3477
 2841SOL    HW2 9423   5.969   2.292   3.399 -0.9017  1.1223 -0.7661
 2842SOL     OW 9424   1.012   5.058   4.392 -0.2882  0.5515 -0.2333
 2842SOL    HW1 9425   1.066   5.107   4.459 -1.2149  1.3967 -0.0821
 2842SOL    HW2 9426   0.957   5.122   4.338  1.4222  0.0546 -2.7617
 2843SOL     OW 9427   0.131   2.827   2.009  0.0531 -0.0771 -0.0847
 2843SOL    HW1 9428   0.083   2.798   1.926 -1.3005 -1.3173  1.0730
 2843SOL    HW2 9429   0.086   2.909   2.046 -0.1044 -0.2355  0.0759
 2844SOL     OW 9430   6.468   4.464   0.481 -0.2102  0.3930  0.5110
 2844SOL    HW1 9431   6.391   4.514   0.521 -0.2217 -0.0265  1.0062
 2844SOL    HW2 9432   6.534   4.530   0.445 -0.8169  0.7584  0.0402
 2845SOL     OW 9433   3.520   1.920   1.115 -0.0535 -0.0995 -0.0509
 2845SOL    HW1 9434   3.492   1.871   1.198  0.6555 -0.6292 -0.1111
 2845SOL    HW2 9435   3.593   1.984   1.138 -0.8743  0.8316 -0.0018
 2846SOL     OW 9436   5.237   1.701   5.151  0.3684 -0.0698 -0.0670
 2846SOL    HW1 9437   5.327   1.740   5.170  0.2533 -0.3206  1.1053
 2846SOL    HW2 9438   5.244   1.602   5.147  0.3378 -0.0390 -1.1736
 2847SOL     OW 9439   5.419   0.713   3.761  0.0676 -0.2586  0.0042
 2847SOL    HW1 9440   5.409   0.812   3.768  0.6988 -0.1930  0.0452
 2847SOL    HW2 9441   5.474   0.690   3.680 -2.1061 -0.7062 -1.4462
 2848SOL     OW 9442   6.935   2.669   6.579 -0.2887  0.0893 -0.6678
 2848SOL    HW1 9443   6.999   2.629   6.513 -0.1640 -1.3231  0.2729
 2848SOL    HW2 9444   6.987   2.720   6.648 -0.4175  1.5413 -1.6000
 2849SOL     OW 9445   3.907   1.524   0.189 -0.4322 -0.6377 -0.5642
 2849SOL    HW1 9446   3.849   1.452   0.227 -0.0230 -1.0251 -0.6589
 2849SOL    HW2 9447   4.002   1.506   0.213 -0.4977  0.9148  1.0378
 2850SOL     OW 9448   0.855   6.942   6.710 -0.1706  0.4676 -0.3353
 2850SOL    HW1 9449   0.921   6.988   6.769 -0.7064  1.2738 -0.3423
 2850SOL    HW2 9450   0.764   6.947   6.752 -0.0220 -1.9583  0.4364
 2851SOL     OW 9451   3.195   4.097   2.743  0.0173 -0.1468 -0.5658
 2851SOL    HW1 9452   3.272   4.085   2.679 -0.3012  1.0764 -1.2153
 2851SOL    HW2 9453   3.110   4.101   2.691 -0.2543  0.8139 -0.0578
 2852SOL     OW 9454   0.604   4.907   3.699  0.2477  0.2241  0.2242
 2852SOL    HW1 9455   0.636   4.849   3.624 -0.9581 -0.3204  0.1076
 2852SOL    HW2 9456   0.511   4.939   3.680 -0.6701 -1.1326  2.1203
 2853SOL     OW 9457   6.795   3.760   6.272 -0.5287 -0.1708  0.0037
 2853SOL    HW1 9458   6.846   3.846   6.264 -0.5106 -0.3186 -1.8247
 2853SOL    HW2 9459   6.856   3.683   6.253 -0.7899 -0.5344  0.6047
 2854SOL     OW 9460   5.168   6.469   5.109 -1.2220  0.2728  0.6839
 2854SOL    HW1 9461   5.109   6.394   5.140 -2.2926  0.8663  0.1337
 2854SOL    HW2 9462   5.192   6.455   5.013  0.7349 -0.7063  1.2779
 2855SOL     OW 9463   3.395   1.582   5.875 -0.0443 -0.0777  0.4081
 2855SOL    HW1 9464   3.337   1.662   5.858 -0.9028 -1.0578 -1.5324
 2855SOL    HW2 9465   3.400   1.526   5.792  1.9305 -1.1666  1.2015
 2856SOL     OW 9466   0.289   3.568   3.330 -0.0739  0.2961 -0.0612
 2856SOL    HW1 9467   0.280   3.637   3.402  1.4980 -0.2556  0.7132
 2856SOL    HW2 9468   0.202   3.521   3.318 -0.6562  1.1520  0.7099
 2857SOL     OW 9469   0.299   5.476   6.928 -0.0558 -0.1032  0.3679
 2857SOL    HW1 9470   0.350   5.465   7.013  0.6973 -1.0060 -0.1948
 2857SOL    HW2 9471   0.201   5.466   6.947  0.1212 -0.5228  1.0859
 2858SOL     OW 9472   6.795   3.313   4.279  0.6074  0.7077  0.1003
 2858SOL    HW1 9473   6.832   3.343   4.191 -0.3272  0.2266 -0.4763
 2858SOL    HW2 9474   6.727   3.242   4.263  2.1093 -1.1074  1.3656
 2859SOL     OW 9475   5.927   4.938   2.103  0.9509  0.0572 -0.1640
 2859SOL    HW1 9476   5.861   4.982   2.164  0.2059 -1.2502  0.0238
 2859SOL    HW2 9477   6.016   4.984   2.110  0.7352  0.2767  1.4802
 2860SOL     OW 9478   0.352   0.526   2.942  0.3664  0.3059 -0.1756
 2860SOL    HW1 9479   0.379   0.430   2.937 -0.6242  0.0542 -1.1787
 2860SOL    HW2 9480   0.353   0.566   2.850 -0.1148  0.9940  0.1073
 2861SOL     OW 9481   5.015   2.845   4.258 -0.0102 -0.1917  0.1079
 2861SOL    HW1 9482   4.953   2.924   4.251 -0.1770 -0.4219 -1.5180
 2861SOL    HW2 9483   4.983   2.773   4.197 -0.0928 -1.7245  1.8871
 2862SOL     OW 9484   5.229   0.702   0.308 -1.0914 -0.3020 -0.0246
 2862SOL    HW1 9485   5.210   0.770   0.379  0.7230  2.0076 -1.5834
 2862SOL    HW2 9486   5.308   0.648   0.334  0.1403  1.1563 -0.5913
 2863SOL     OW 9487   3.473   1.427   1.112 -0.4087 -0.1701 -0.7099
 2863SOL    HW1 9488   3.392   1.400   1.164 -0.8674  1.4606 -0.5293
 2863SOL    HW2 9489   3.452   1.425   1.014 -0.6777  0.2402 -0.6639
 2864SOL     OW 9490   4.753   3.526   1.773 -0.2535 -0.0854 -0.1509
 2864SOL    HW1 9491   4.683   3.465   1.735 -1.6886  1.2806  0.2353
 2864SOL    HW2 9492   4.724   3.621   1.764  1.4891  0.5227  0.1885
 2865SOL     OW 9493   6.750   4.714   6.779  0.1756  0.4212 -0.6262
 2865SOL    HW1 9494   6.651   4.702   6.790  0.0019  1.9714 -0.3443
 2865SOL    HW2 9495   6.768   4.785   6.712  1.1296 -0.2796 -1.1391
 2866SOL     OW 9496   5.212   4.626   5.526  0.6640 -0.4456  0.5839
 2866SOL    HW1 9497   5.249   4.710   5.564  0.2424 -0.5920  1.3324
 2866SOL    HW2 9498   5.151   4.647   5.450  1.6138 -0.1583 -0.1128
 2867SOL     OW 9499   0.957   0.035   5.679  0.1891  0.0544  0.3288
 2867SOL    HW1 9500   1.025  -0.039   5.681 -0.3657 -0.4862 -0.3429
 2867SOL    HW2 9501   0.985   0.103   5.611 -0.2776 -0.5231 -0.4673
 2868SOL     OW 9502   4.480   0.262   5.214 -0.1715 -0.1882  0.2335
 2868SOL    HW1 9503   4.555   0.263   5.147  1.3494 -0.6182  1.8763
 2868SOL    HW2 9504   4.441   0.354   5.221  0.7619  0.2429 -0.0478
 2869SOL     OW 9505   2.720   3.565   5.990 -0.1803  0.1499  0.7890
 2869SOL    HW1 9506   2.808   3.542   6.031  0.6334 -1.5928 -1.6306
 2869SOL    HW2 9507   2.721   3.660   5.959  0.2945  0.5633  2.0304
 2870SOL     OW 9508   6.086   2.042   1.812  0.3230  0.0358  0.4628
 2870SOL    HW1 9509   6.087   2.066   1.909  1.0238  0.4826  0.3522
 2870SOL    HW2 9510   6.028   2.106   1.762  1.1320  0.7073  0.3692
 2871SOL     OW 9511   6.129   3.275   2.605  0.4389 -0.1794  0.8044
 2871SOL    HW1 9512   6.036   3.244   2.587  0.9439 -2.1900  1.3503
 2871SOL    HW2 9513   6.150   3.263   2.702  0.5050  2.5662  1.2142
 2872SOL     OW 9514   2.633   6.703   2.537  0.2102  0.0511  0.6737
 2872SOL    HW1 9515   2.675   6.621   2.576  0.8200  0.5544  1.0923
 2872SOL    HW2 9516   2.704   6.765   2.505 -0.2689 -0.1149 -0.7917
 2873SOL     OW 9517   0.456   0.714   3.103  0.5228  0.2580 -0.5553
 2873SOL    HW1 9518   0.499   0.712   3.193  0.1102  0.1966 -0.3550
 2873SOL    HW2 9519   0.428   0.621   3.078  0.8062  0.2457 -0.8322
 2874SOL     OW 9520   0.846   1.199   3.105 -0.3597  0.0496 -1.0593
 2874SOL    HW1 9521   0.898   1.161   3.028  2.2287  0.2304  0.4743
 2874SOL    HW2 9522   0.844   1.132   3.179 -1.4300  0.4962 -0.6632
 2875SOL     OW 9523   2.839   1.270   4.357 -0.3850  0.3199 -0.3231
 2875SOL    HW1 9524   2.924   1.304   4.397 -0.6950 -0.1502  0.7600
 2875SOL    HW2 9525   2.763   1.328   4.387 -0.8658 -1.0596  1.2449
 2876SOL     OW 9526   0.206   0.300   1.406  0.5232  0.5192  0.3587
 2876SOL    HW1 9527   0.286   0.359   1.395  0.7003  0.2639  0.2691
 2876SOL    HW2 9528   0.133   0.351   1.451  0.9061  0.6057  0.8896
 2877SOL     OW 9529   1.583   3.687   5.338  0.7110  0.3424  0.1959
 2877SOL    HW1 9530   1.661   3.692   5.277  0.5015  2.5154  0.0302
 2877SOL    HW2 9531   1.499   3.707   5.287 -0.1726 -2.9143  0.1475
 2878SOL     OW 9532   3.814   3.337   2.909 -0.1488  0.1521  0.9169
 2878SOL    HW1 9533   3.766   3.385   2.983 -0.4238 -0.0651  0.8781
 2878SOL    HW2 9534   3.907   3.373   2.902  0.1593 -0.4024  1.9299
 2879SOL     OW 9535   0.196   5.008   2.008  0.3871 -0.0029 -0.0254
 2879SOL    HW1 9536   0.196   5.078   2.079  2.5744 -0.7085  0.7268
 2879SOL    HW2 9537   0.163   4.922   2.047 -0.2048  0.0547 -0.3829
 2880SOL     OW 9538   2.346   0.650   2.325 -0.0794  0.2833 -0.6955
 2880SOL    HW1 9539   2.287   0.642   2.405  0.2029  2.6855 -0.1926
 2880SOL    HW2 9540   2.318   0.729   2.270  1.7021  0.5792 -1.2446
 2881SOL     OW 9541   4.907   5.206   5.951  0.5784 -0.1949  0.1939
 2881SOL    HW1 9542   4.874   5.249   6.035 -0.6516 -2.1299  0.7743
 2881SOL    HW2 9543   5.004   5.227   5.937  0.7692  0.2518  2.0334
 2882SOL     OW 9544   5.005   4.410   5.262 -0.1059 -0.3290 -0.4164
 2882SOL    HW1 9545   5.052   4.396   5.175  0.1646 -1.5242 -0.0921
 2882SOL    HW2 9546   5.022   4.503   5.295  0.5049 -0.1526 -1.2062
 2883SOL     OW 9547   5.811   6.203   2.184 -0.0486  0.4552 -0.1243
 2883SOL    HW1 9548   5.716   6.184   2.208  0.3027  0.1091  1.0861
 2883SOL    HW2 9549   5.870   6.132   2.223  0.7140  0.7065 -0.7964
 2884SOL     OW 9550   2.468   4.990   3.404 -0.2753  0.2931 -0.4763
 2884SOL    HW1 9551   2.521   4.906   3.391 -0.2438  0.4323 -1.2962
 2884SOL    HW2 9552   2.530   5.066   3.422 -0.1261  0.5571 -1.9544
 2885SOL     OW 9553   1.773   3.598   3.083 -0.2822 -0.0246  0.3528
 2885SOL    HW1 9554   1.674   3.606   3.072 -0.3102 -1.3384 -0.6968
 2885SOL    HW2 9555   1.792   3.544   3.165 -0.3973  0.8560  0.9724
 2886SOL     OW 9556   6.873   6.188   5.005  0.2145  0.2290 -0.4524
 2886SOL    HW1 9557   6.905   6.282   5.009 -1.2701  0.7701 -0.9042
 2886SOL    HW2 9558   6.926   6.138   4.937 -0.3703  1.3046 -1.7292
 2887SOL     OW 9559   6.953   5.563   2.277 -0.0105 -0.3135 -0.1554
 2887SOL    HW1 9560   6.956   5.569   2.177  0.0380 -0.0261 -0.1377
 2887SOL    HW2 9561   7.042   5.532   2.312  0.0016 -0.3221 -0.1941
 2888SOL     OW 9562   3.392   6.803   5.299 -0.5788 -0.3610  0.0480
 2888SOL    HW1 9563   3.347   6.857   5.370  1.0601  0.2450  0.6785
 2888SOL    HW2 9564   3.401   6.858   5.216  0.5956  0.1763  0.5122
 2889SOL     OW 9565   4.653   6.912   4.148 -0.8711  0.6404 -0.0369
 2889SOL    HW1 9566   4.572   6.889   4.201  0.0044 -1.5201  0.4580
 2889SOL    HW2 9567   4.651   6.864   4.061 -0.7581  1.6565 -0.6156
 2890SOL     OW 9568   0.177   0.657   0.307 -0.1177 -0.3370 -1.0677
 2890SOL    HW1 9569   0.244   0.600   0.353 -1.9915 -2.2954 -0.6010
 2890SOL    HW2 9570   0.154   0.617   0.218 -1.9644 -0.7744 -0.4473
 2891SOL     OW 9571   1.716   0.520   6.019 -0.4128  0.0610  0.0196
 2891SOL    HW1 9572   1.663   0.572   5.951 -0.9254 -0.2337  0.1927
 2891SOL    HW2 9573   1.772   0.583   6.072  0.6211  0.2259 -1.2116
 2892SOL     OW 9574   6.033   4.636   2.866 -0.3283 -0.4514 -0.1113
 2892SOL    HW1 9575   6.021   4.551   2.815  0.1689 -0.1289 -0.7746
 2892SOL    HW2 9576   6.094   4.619   2.944 -0.7466 -0.8479  0.1296
 2893SOL     OW 9577   5.503   6.172   4.029  0.1268  0.1013  0.2905
 2893SOL    HW1 9578   5.429   6.108   4.013 -0.5245  0.8380  0.2814
 2893SOL    HW2 9579   5.489   6.255   3.974  0.2966  0.7576  1.2010
 2894SOL     OW 9580   1.314   0.508   1.298 -0.1841  0.4911  0.4575
 2894SOL    HW1 9581   1.216   0.512   1.316 -0.2337  0.3110  0.2425
 2894SOL    HW2 9582   1.359   0.587   1.338 -0.5917  1.2218 -0.4853
 2895SOL     OW 9583   4.765   4.280   6.576 -0.0060  0.3979 -0.2139
 2895SOL    HW1 9584   4.819   4.334   6.641  0.9969 -1.1249  0.2799
 2895SOL    HW2 9585   4.823   4.252   6.500 -0.6416  0.4252 -0.7163
 2896SOL     OW 9586   6.574   6.911   6.813  0.2124 -0.0151  0.0584
 2896SOL    HW1 9587   6.562   7.000   6.769  0.9146  0.0900  0.0696
 2896SOL    HW2 9588   6.644   6.859   6.764 -0.6694 -0.8415 -0.3687
 2897SOL     OW 9589   2.930   5.643   5.930  0.2145  0.1697 -0.1626
 2897SOL    HW1 9590   2.952   5.736   5.960  0.5053 -0.5184  1.9169
 2897SOL    HW2 9591   2.896   5.590   6.007 -0.7849 -1.2349 -1.5038
 2898SOL     OW 9592   5.332   4.359   2.345  0.6205 -0.2063 -0.3718
 2898SOL    HW1 9593   5.367   4.304   2.421  1.1048 -1.3050 -1.3717
 2898SOL    HW2 9594   5.243   4.324   2.316 -0.6829  1.6015  1.1071
 2899SOL     OW 9595   0.134   4.500   2.832  0.0906 -0.2166  0.0828
 2899SOL    HW1 9596   0.058   4.438   2.852  1.0306 -1.1192  0.9944
 2899SOL    HW2 9597   0.168   4.483   2.740 -1.3377  0.7881 -0.6588
 2900SOL     OW 9598   4.063   3.596   3.426  0.3959  0.2798  0.4140
 2900SOL    HW1 9599   4.089   3.688   3.397 -1.0765  0.2896 -1.0622
 2900SOL    HW2 9600   3.987   3.602   3.491 -1.0023  0.1099 -1.1447
 2901SOL     OW 9601   1.748   1.437   0.703  0.0565  0.3223  0.2425
 2901SOL    HW1 9602   1.774   1.533   0.689 -0.8932  0.4299 -0.9376
 2901SOL    HW2 9603   1.679   1.411   0.636 -0.4722 -0.8970  1.2209
 2902SOL     OW 9604   3.687   5.433   3.479 -0.4601  0.3640 -0.1045
 2902SOL    HW1 9605   3.735   5.348   3.457 -0.8348 -0.0348  0.5711
 2902SOL    HW2 9606   3.636   5.421   3.565 -0.2659  1.3691  0.1678
 2903SOL     OW 9607   0.401   5.111   2.279 -0.9477 -0.2204  0.2056
 2903SOL    HW1 9608   0.458   5.187   2.311 -0.5284  0.4630 -1.9998
 2903SOL    HW2 9609   0.460   5.035   2.250 -1.0977  0.4111 -1.8940
 2904SOL     OW 9610   4.675   5.180   4.006 -0.0108  0.1493  0.4564
 2904SOL    HW1 9611   4.752   5.243   3.993 -0.6680  0.7774 -0.4897
 2904SOL    HW2 9612   4.701   5.089   3.975  0.4406  0.2885  0.4106
 2905SOL     OW 9613   3.149   1.932   6.806  0.1712 -0.9260  0.3761
 2905SOL    HW1 9614   3.127   1.847   6.855  0.0749  0.0114  2.0191
 2905SOL    HW2 9615   3.245   1.956   6.823  0.5147 -1.2195 -0.9537
 2906SOL     OW 9616   6.614   4.743   6.086  0.0023 -0.2879 -0.4157
 2906SOL    HW1 9617   6.698   4.689   6.082  0.3342  0.1287  0.6089
 2906SOL    HW2 9618   6.541   4.696   6.036  0.4591 -1.3502 -0.0995
 2907SOL     OW 9619   2.039   1.889   5.343  0.6147  0.1342  0.4788
 2907SOL    HW1 9620   1.940   1.882   5.328  0.7839 -0.6401 -0.4376
 2907SOL    HW2 9621   2.065   1.834   5.422  0.1958  1.0881  1.2860
 2908SOL     OW 9622   5.831   6.267   5.769 -0.5244  0.3266  0.3654
 2908SOL    HW1 9623   5.762   6.222   5.826  0.2873 -0.4499  0.7435
 2908SOL    HW2 9624   5.803   6.261   5.673 -0.2153 -1.4222  0.3548
 2909SOL     OW 9625   2.254   6.663   6.717 -0.2942 -0.4843 -0.3804
 2909SOL    HW1 9626   2.290   6.599   6.649  0.7770 -1.4491  1.0267
 2909SOL    HW2 9627   2.320   6.737   6.731 -0.6052 -0.1769 -0.5395
 2910SOL     OW 9628   1.506   6.954   6.150 -0.1076  0.0519  0.2665
 2910SOL    HW1 9629   1.421   7.005   6.158 -0.3617 -0.3327 -0.0108
 2910SOL    HW2 9630   1.582   7.018   6.139 -0.5999  0.3495 -1.8016
 2911SOL     OW 9631   6.817   2.544   3.354  0.1274 -0.0565 -0.5558
 2911SOL    HW1 9632   6.721   2.528   3.376  0.1321 -1.6398 -1.5724
 2911SOL    HW2 9633   6.873   2.523   3.434 -0.1900 -1.5907 -0.7132
 2912SOL     OW 9634   6.188   0.617   2.837  0.1033  0.1947 -0.0920
 2912SOL    HW1 9635   6.147   0.657   2.918  0.8496 -0.2762  0.5268
 2912SOL    HW2 9636   6.270   0.667   2.811  0.9068 -0.7547  0.5452
 2913SOL     OW 9637   0.395   6.756   5.699 -0.1200  0.2671 -0.1760
 2913SOL    HW1 9638   0.459   6.789   5.629 -0.1400 -0.9141 -0.7746
 2913SOL    HW2 9639   0.410   6.807   5.784 -1.3365  3.0516 -1.5077
 2914SOL     OW 9640   3.073   4.244   1.742 -0.9337 -0.1343  0.1047
 2914SOL    HW1 9641   3.081   4.274   1.647 -1.7763 -1.3001 -0.3623
 2914SOL    HW2 9642   2.994   4.287   1.784  0.1537  1.3645  0.7011
 2915SOL     OW 9643   2.405   5.108   2.213 -0.1764  0.4083 -0.3024
 2915SOL    HW1 9644   2.383   5.189   2.159 -1.2516  0.7573  0.6395
 2915SOL    HW2 9645   2.330   5.042   2.207 -0.4810  0.6058  1.0380
 2916SOL     OW 9646   1.156   6.603   6.660 -0.2639 -0.1914 -0.5896
 2916SOL    HW1 9647   1.187   6.542   6.588  1.2013  0.1817 -0.3143
 2916SOL    HW2 9648   1.159   6.555   6.748 -1.8342 -0.5779 -0.7266
 2917SOL     OW 9649   1.293   3.244   4.307 -0.0274 -0.2380  0.1824
 2917SOL    HW1 9650   1.257   3.305   4.376  1.1504 -0.3687  0.9497
 2917SOL    HW2 9651   1.386   3.216   4.332 -0.0641 -1.3370 -0.7852
 2918SOL     OW 9652   4.944   1.057   1.561  0.2107 -0.1203  0.0239
 2918SOL    HW1 9653   4.917   1.147   1.526  1.0097  0.8223  1.6891
 2918SOL    HW2 9654   5.035   1.035   1.528  0.1876 -0.1088 -0.0470
 2919SOL     OW 9655   1.783   5.864   6.256  0.6870  0.0515  0.1117
 2919SOL    HW1 9656   1.842   5.885   6.178 -1.6624  2.4271 -1.2239
 2919SOL    HW2 9657   1.723   5.788   6.232 -1.2876  1.9082 -1.3236
 2920SOL     OW 9658   2.556   6.562   2.288  0.1719 -0.8479  0.0514
 2920SOL    HW1 9659   2.628   6.524   2.230 -0.1546 -1.6218  0.1365
 2920SOL    HW2 9660   2.592   6.639   2.340  0.7503 -0.7981 -0.4084
 2921SOL     OW 9661   6.715   5.686   1.974  0.6138  0.4260  0.4583
 2921SOL    HW1 9662   6.721   5.784   1.995  0.9521  0.5373 -0.1435
 2921SOL    HW2 9663   6.733   5.671   1.877 -2.3672  0.0810 -0.1378
 2922SOL     OW 9664   2.769   5.983   4.200  0.3335  0.7492  0.0480
 2922SOL    HW1 9665   2.833   5.989   4.276 -0.9405  1.4863  1.1043
 2922SOL    HW2 9666   2.744   5.887   4.185 -0.5725  0.7156  1.5959
 2923SOL     OW 9667   6.646   4.410   4.200 -0.1889  0.8128 -0.6843
 2923SOL    HW1 9668   6.704   4.447   4.273 -0.4739  0.7248 -0.4116
 2923SOL    HW2 9669   6.636   4.478   4.127  1.4648  0.3066 -1.4304
 2924SOL     OW 9670   2.447   1.439   6.939 -0.3013  0.2242 -0.1776
 2924SOL    HW1 9671   2.452   1.492   7.024 -0.4793 -0.9515  0.5846
 2924SOL    HW2 9672   2.530   1.456   6.886  0.9342 -0.8007  1.3274
 2925SOL     OW 9673   3.832   6.467   4.475 -0.6101 -0.6850  0.0809
 2925SOL    HW1 9674   3.914   6.421   4.508  0.3828  0.5757 -0.5097
 2925SOL    HW2 9675   3.837   6.565   4.496 -1.8064 -0.5244 -0.2661
 2926SOL     OW 9676   0.883   0.932   3.726  0.6154  0.5303 -0.5373
 2926SOL    HW1 9677   0.785   0.936   3.706  0.2989  0.4150  0.8448
 2926SOL    HW2 9678   0.934   0.974   3.652 -0.4948  0.7175 -1.2197
 2927SOL     OW 9679   2.022   6.971   2.910 -0.4246 -0.0803  0.2116
 2927SOL    HW1 9680   2.021   7.063   2.871 -0.9451  0.6753  1.9127
 2927SOL    HW2 9681   2.116   6.946   2.932 -0.3042  0.1384 -0.0371
 2928SOL     OW 9682   4.051   6.281   5.374  0.0617  0.4699 -0.2275
 2928SOL    HW1 9683   4.024   6.203   5.430  1.4215  0.5320  0.5713
 2928SOL    HW2 9684   3.970   6.326   5.337 -0.7753 -0.7615  0.0615
 2929SOL     OW 9685   3.176   0.201   4.086  0.2902  0.0631  0.3087
 2929SOL    HW1 9686   3.258   0.256   4.099 -0.5470  1.2318  0.8346
 2929SOL    HW2 9687   3.196   0.105   4.106  1.3978  0.4044  0.8992
 2930SOL     OW 9688   2.538   1.497   3.735  0.1067  0.1117 -0.6227
 2930SOL    HW1 9689   2.448   1.519   3.774  0.1046  1.5175 -1.3718
 2930SOL    HW2 9690   2.574   1.415   3.780 -0.6673  0.6487  1.0729
 2931SOL     OW 9691   6.690   4.574   6.316 -0.1211  0.1228 -0.0381
 2931SOL    HW1 9692   6.630   4.565   6.237  0.0521 -0.8689 -0.0727
 2931SOL    HW2 9693   6.637   4.567   6.400 -0.3261  1.3264 -0.0547
 2932SOL     OW 9694   5.888   6.763   0.400  0.0990  0.6358 -0.3386
 2932SOL    HW1 9695   5.811   6.776   0.338 -0.0231 -0.4340 -0.4246
 2932SOL    HW2 9696   5.916   6.667   0.400  0.2653  0.6599  1.0631
 2933SOL     OW 9697   6.783   1.095   5.886  0.0776  0.1138 -0.6652
 2933SOL    HW1 9698   6.834   1.010   5.879 -0.1765 -0.2624  1.4035
 2933SOL    HW2 9699   6.685   1.077   5.878  0.0360  0.2248 -0.4452
 2934SOL     OW 9700   6.942   6.104   2.245  0.0437  0.2632 -0.3355
 2934SOL    HW1 9701   7.027   6.052   2.255  0.1863  0.9010  3.1197
 2934SOL    HW2 9702   6.956   6.196   2.280 -1.7481  0.8124 -0.9678
 2935SOL     OW 9703   5.710   4.583   6.103 -0.2329 -0.2790 -0.5435
 2935SOL    HW1 9704   5.775   4.575   6.179  0.2729  2.7493 -0.5216
 2935SOL    HW2 9705   5.758   4.569   6.017 -0.7387 -3.3773 -0.4263
 2936SOL     OW 9706   3.512   5.440   1.863 -0.3783 -0.0245 -0.2323
 2936SOL    HW1 9707   3.523   5.403   1.955  0.2949 -1.0435 -0.7143
 2936SOL    HW2 9708   3.455   5.378   1.809  0.8185 -0.4300 -1.0678
 2937SOL     OW 9709   0.430   1.625   4.855  0.7162  0.0276 -0.1546
 2937SOL    HW1 9710   0.475   1.652   4.940  1.5564  0.6582 -0.7946
 2937SOL    HW2 9711   0.476   1.545   4.817 -0.6784 -1.3235  0.8081
 2938SOL     OW 9712   0.030   5.589   1.624  0.1652  0.1762 -0.3990
 2938SOL    HW1 9713  -0.051   5.532   1.633 -1.2818  1.8691 -2.0626
 2938SOL    HW2 9714   0.096   5.543   1.564  0.3539 -1.0543  0.6971
 2939SOL     OW 9715   6.896   5.770   0.700  0.7134  0.4602 -0.0219
 2939SOL    HW1 9716   6.876   5.683   0.745  1.8793  1.0207  1.6717
 2939SOL    HW2 9717   6.837   5.841   0.739  1.6689  0.9319  0.6106
 2940SOL     OW 9718   3.814   5.837   2.459  0.0139 -0.1007 -0.1856
 2940SOL    HW1 9719   3.798   5.919   2.404  0.1160  0.5848  0.7708
 2940SOL    HW2 9720   3.730   5.782   2.464  0.2338 -0.6262 -1.7057
 2941SOL     OW 9721   2.240   4.910   1.143 -0.4619 -0.5359  0.0038
 2941SOL    HW1 9722   2.239   4.917   1.043 -2.4381  0.6405  0.0427
 2941SOL    HW2 9723   2.257   4.815   1.170  0.3437 -0.8234 -1.4406
 2942SOL     OW 9724   3.098   0.574   0.817 -0.1972  0.8023 -0.4434
 2942SOL    HW1 9725   3.076   0.637   0.891  0.9445  1.2722 -0.4953
 2942SOL    HW2 9726   3.021   0.570   0.753 -0.9715  0.8084  0.4674
 2943SOL     OW 9727   0.364   5.379   3.705 -0.0862  0.1993 -0.3114
 2943SOL    HW1 9728   0.323   5.360   3.794  0.3303 -2.4626 -0.6067
 2943SOL    HW2 9729   0.463   5.372   3.712  0.0793  1.8112 -0.6395
 2944SOL     OW 9730   1.055   5.651   3.742  0.0832  0.1065 -0.1173
 2944SOL    HW1 9731   0.991   5.597   3.687 -1.6055  1.0260  0.8701
 2944SOL    HW2 9732   1.091   5.595   3.816 -2.7749  0.5511  1.7936
 2945SOL     OW 9733   5.301   3.478   6.018 -0.2972 -0.3745 -0.0755
 2945SOL    HW1 9734   5.250   3.411   5.964 -1.5385 -0.2355  0.8644
 2945SOL    HW2 9735   5.253   3.566   6.016  0.8324  0.2529 -0.5577
 2946SOL     OW 9736   3.790   4.073   3.338 -0.1119 -0.3113 -0.2768
 2946SOL    HW1 9737   3.725   4.056   3.264 -0.4346 -1.5741  0.2747
 2946SOL    HW2 9738   3.838   4.159   3.321 -1.7667  0.5537 -0.7937
 2947SOL     OW 9739   5.926   0.339   6.674 -0.1003 -0.2152 -0.4026
 2947SOL    HW1 9740   5.962   0.428   6.647 -2.6384  1.5345  1.4055
 2947SOL    HW2 9741   5.940   0.325   6.772 -3.5911  0.4289  0.3545
 2948SOL     OW 9742   6.442   5.584   0.483 -0.6186  0.4682  0.0344
 2948SOL    HW1 9743   6.449   5.510   0.416  1.6541 -0.8223  1.5329
 2948SOL    HW2 9744   6.499   5.661   0.453 -1.4868  0.8638 -0.6238
 2949SOL     OW 9745   6.877   6.259   1.993 -0.2334  0.4262 -0.5649
 2949SOL    HW1 9746   6.787   6.303   1.994 -1.1986 -1.4317 -1.6151
 2949SOL    HW2 9747   6.891   6.211   2.080 -0.4655  0.2786 -0.6102
 2950SOL     OW 9748   5.021   6.181   3.535  0.5850  0.5060 -0.4178
 2950SOL    HW1 9749   4.937   6.134   3.561 -0.0506  2.3941  1.1618
 2950SOL    HW2 9750   5.017   6.206   3.438 -0.9983  1.1785 -0.2022
 2951SOL     OW 9751   0.684   4.284   6.055 -0.1905 -0.2266 -0.6968
 2951SOL    HW1 9752   0.742   4.246   5.983 -1.9680  0.3182 -2.5297
 2951SOL    HW2 9753   0.736   4.351   6.108  1.2498 -0.8314 -1.3054
 2952SOL     OW 9754   0.608   3.303   4.884  0.1331  0.0448  0.5746
 2952SOL    HW1 9755   0.577   3.254   4.966 -0.8219 -1.2535 -0.5251
 2952SOL    HW2 9756   0.529   3.331   4.829  0.7443 -2.6248 -1.8786
 2953SOL     OW 9757   0.896   5.538   3.551 -0.1593  0.1426 -0.1713
 2953SOL    HW1 9758   0.922   5.468   3.484 -0.6222 -0.0232 -0.1770
 2953SOL    HW2 9759   0.881   5.624   3.504 -0.7771 -0.0450 -0.3230
 2954SOL     OW 9760   0.149   4.500   5.373 -0.3426  0.1494  0.5211
 2954SOL    HW1 9761   0.141   4.442   5.291  0.0948  0.9988 -0.1376
 2954SOL    HW2 9762   0.113   4.451   5.452 -0.5074 -0.8020 -0.1285
 2955SOL     OW 9763   0.548   5.458   5.668 -0.4038  0.0386 -0.4121
 2955SOL    HW1 9764   0.597   5.516   5.603  1.1573  0.9313  1.4786
 2955SOL    HW2 9765   0.459   5.499   5.689  0.3660  1.3638  0.3263
 2956SOL     OW 9766   5.854   4.563   5.874  0.6462 -0.2321 -0.2644
 2956SOL    HW1 9767   5.788   4.499   5.833 -0.7331  0.6387  0.5302
 2956SOL    HW2 9768   5.923   4.587   5.806  0.9335 -2.1772 -0.7261
 2957SOL     OW 9769   1.634   4.175   1.260  0.5776 -0.1089  0.1218
 2957SOL    HW1 9770   1.539   4.148   1.246 -0.5488  2.6512  1.4962
 2957SOL    HW2 9771   1.695   4.110   1.215 -1.7515 -3.8544  1.9377
 2958SOL     OW 9772   1.565   1.189   0.746 -0.2012 -0.3024  0.2894
 2958SOL    HW1 9773   1.644   1.206   0.805 -0.1114  0.9128 -0.1327
 2958SOL    HW2 9774   1.530   1.097   0.762 -0.5556  0.1759  2.6697
 2959SOL     OW 9775   6.730   3.019   6.741  0.2950 -0.0788 -0.1915
 2959SOL    HW1 9776   6.659   3.015   6.671  1.6768 -1.7766 -1.5910
 2959SOL    HW2 9777   6.778   3.107   6.735 -0.7320  0.4965 -0.1777
 2960SOL     OW 9778   5.760   4.352   7.013 -0.5039 -0.1713  0.1089
 2960SOL    HW1 9779   5.761   4.367   7.112  2.3708 -0.6811  0.2510
 2960SOL    HW2 9780   5.715   4.266   6.993 -0.3783 -0.4804  1.0728
 2961SOL     OW 9781   5.675   2.407   0.624 -0.0972 -0.0330 -0.3796
 2961SOL    HW1 9782   5.576   2.412   0.617 -0.0703 -1.2665 -2.9708
 2961SOL    HW2 9783   5.705   2.447   0.710 -2.9553 -1.3279  1.3398
 2962SOL     OW 9784   5.252   2.432   3.367 -0.6389 -0.0128  0.6308
 2962SOL    HW1 9785   5.234   2.339   3.336 -0.7120  0.4145 -0.7114
 2962SOL    HW2 9786   5.351   2.443   3.382 -0.3267  0.2605 -1.3408
 2963SOL     OW 9787   1.831   0.176   6.601  0.2390  0.2595 -0.4866
 2963SOL    HW1 9788   1.873   0.252   6.551  1.7356  0.2434  0.6869
 2963SOL    HW2 9789   1.847   0.091   6.551  3.9037 -0.1509  1.0132
 2964SOL     OW 9790   0.791   5.970   5.434  0.0753 -0.4110 -0.0312
 2964SOL    HW1 9791   0.855   5.913   5.484 -0.7508 -0.7904  0.6288
 2964SOL    HW2 9792   0.803   5.956   5.335  0.0866 -1.5210  0.1102
 2965SOL     OW 9793   5.090   0.795   4.452 -0.0798 -0.3169 -0.1645
 2965SOL    HW1 9794   5.071   0.889   4.480  0.8395 -0.5971  1.5572
 2965SOL    HW2 9795   5.067   0.733   4.528  0.2222 -1.3787 -0.9220
 2966SOL     OW 9796   3.310   6.852   3.000  0.1839  0.3395  0.3606
 2966SOL    HW1 9797   3.214   6.881   3.006  0.6344  1.5888  2.1880
 2966SOL    HW2 9798   3.322   6.767   3.051 -0.2072 -0.6418 -1.1161
 2967SOL     OW 9799   2.746   0.318   5.855 -0.2517 -0.1110  0.1565
 2967SOL    HW1 9800   2.839   0.292   5.879 -0.9918 -1.6489  1.5339
 2967SOL    HW2 9801   2.737   0.418   5.861  0.9991 -0.0323  1.1685
 2968SOL     OW 9802   0.347   2.456   3.459 -0.7901  0.6893  0.3382
 2968SOL    HW1 9803   0.300   2.407   3.533  1.3302  0.7526  1.8116
 2968SOL    HW2 9804   0.298   2.541   3.439 -1.5534  0.5466  1.4984
 2969SOL     OW 9805   3.637   2.792   5.530  0.5818  0.5648 -0.5047
 2969SOL    HW1 9806   3.658   2.760   5.622  1.0938 -0.6817 -1.0409
 2969SOL    HW2 9807   3.716   2.780   5.470 -0.6507 -1.4738 -1.8328
 2970SOL     OW 9808   3.372   3.321   5.817 -0.1442 -0.0905 -0.3660
 2970SOL    HW1 9809   3.452   3.381   5.822  0.3103 -0.7657  2.0809
 2970SOL    HW2 9810   3.365   3.283   5.725  3.5379 -1.5240 -0.2472
 2971SOL     OW 9811   3.931   3.170   4.600 -0.2740 -0.1099  0.1687
 2971SOL    HW1 9812   3.996   3.245   4.587 -1.2061  0.7444  0.2905
 2971SOL    HW2 9813   3.838   3.205   4.592 -0.7306 -1.5019 -1.1146
 2972SOL     OW 9814   0.872   6.709   0.538  0.1496  0.2295  0.4390
 2972SOL    HW1 9815   0.870   6.793   0.593  0.0500  1.8531 -1.8482
 2972SOL    HW2 9816   0.933   6.642   0.581  1.2038  1.9433  1.7671
 2973SOL     OW 9817   5.312   1.543   3.401  0.2626  0.7958 -0.0389
 2973SOL    HW1 9818   5.308   1.615   3.332 -0.1278  1.2491  0.4435
 2973SOL    HW2 9819   5.407   1.529   3.430  0.4174  0.6622 -0.5974
 2974SOL     OW 9820   4.778   5.902   3.252  0.8398 -0.4010  0.5170
 2974SOL    HW1 9821   4.683   5.872   3.243  1.4566 -2.3777  0.1776
 2974SOL    HW2 9822   4.800   5.964   3.176  0.0839 -0.6600  0.0726
 2975SOL     OW 9823   6.141   4.380   6.288 -0.0608  0.1932  0.5928
 2975SOL    HW1 9824   6.217   4.384   6.352  1.5975  0.5066 -1.2889
 2975SOL    HW2 9825   6.173   4.345   6.200 -2.1075  0.3062 -0.2584
 2976SOL     OW 9826   5.380   0.312   1.594 -0.4633 -0.1462  0.3074
 2976SOL    HW1 9827   5.303   0.314   1.529  0.1212  0.3389 -0.3828
 2976SOL    HW2 9828   5.420   0.220   1.595  1.3414  0.4870 -2.2422
 2977SOL     OW 9829   0.963   2.493   1.869 -0.3205  0.4631  0.3651
 2977SOL    HW1 9830   1.059   2.467   1.883 -0.1808  0.0907 -1.1073
 2977SOL    HW2 9831   0.903   2.421   1.905 -0.0281  0.4356  0.7933
 2978SOL     OW 9832   1.093   4.734   5.298 -0.0793 -0.6919 -0.8425
 2978SOL    HW1 9833   1.021   4.698   5.239 -0.4785 -1.5749  0.1415
 2978SOL    HW2 9834   1.182   4.723   5.254 -0.3572 -1.4296 -1.2301
 2979SOL     OW 9835   1.384   0.323   6.536 -0.5353 -0.1336 -0.1171
 2979SOL    HW1 9836   1.383   0.247   6.471 -0.8608  0.8757 -1.3217
 2979SOL    HW2 9837   1.319   0.393   6.507  2.9615  2.7960 -1.7347
 2980SOL     OW 9838   3.790   2.940   2.431  0.1261 -0.5147  0.1888
 2980SOL    HW1 9839   3.861   2.995   2.388 -0.7058  0.0753 -0.4476
 2980SOL    HW2 9840   3.724   2.909   2.362 -0.6140 -0.4825  0.8596
 2981SOL     OW 9841   2.834   1.517   3.494 -0.4171 -0.2456 -0.4886
 2981SOL    HW1 9842   2.884   1.457   3.431  1.7037 -0.6103  1.4006
 2981SOL    HW2 9843   2.768   1.572   3.442  2.8119  1.2334 -3.4171
 2982SOL     OW 9844   2.429   6.772   2.910 -0.3875  0.2194 -0.2287
 2982SOL    HW1 9845   2.516   6.811   2.880  0.0659 -0.2379  0.4553
 2982SOL    HW2 9846   2.378   6.839   2.964  0.2429 -0.0029  0.6699
 2983SOL     OW 9847   6.631   2.914   6.321  0.5060  0.4218 -0.0479
 2983SOL    HW1 9848   6.596   2.821   6.308  0.3698  0.4577  0.0503
 2983SOL    HW2 9849   6.566   2.965   6.377  0.1551  0.8289 -0.8065
 2984SOL     OW 9850   0.467   4.477   6.135 -0.4576  0.2279  0.1924
 2984SOL    HW1 9851   0.530   4.400   6.121 -2.6380 -2.0150  1.9012
 2984SOL    HW2 9852   0.421   4.498   6.049  0.0943 -0.4698 -0.2877
 2985SOL     OW 9853   0.837   5.860   0.843 -0.0044  0.3885  0.2215
 2985SOL    HW1 9854   0.804   5.950   0.872 -2.0230  0.3450 -1.6804
 2985SOL    HW2 9855   0.877   5.867   0.752  1.9457 -0.2820  0.9832
 2986SOL     OW 9856   3.994   3.918   2.462  0.2170 -0.4190 -0.3420
 2986SOL    HW1 9857   4.001   3.849   2.534  0.1046  1.0342  1.1211
 2986SOL    HW2 9858   4.059   3.897   2.389  1.9087 -0.7975  1.1899
 2987SOL     OW 9859   1.862   5.422   0.482 -0.0215  0.6298 -0.1237
 2987SOL    HW1 9860   1.856   5.513   0.523 -0.9562  1.0420 -1.1524
 2987SOL    HW2 9861   1.953   5.409   0.442  0.8284  0.3164  1.7949
 2988SOL     OW 9862   0.911   6.405   4.337  0.3430  0.3394  0.0644
 2988SOL    HW1 9863   0.905   6.362   4.427  1.4785  0.8247  0.3930
 2988SOL    HW2 9864   0.940   6.338   4.269  0.3045  0.1617  0.2240
 2989SOL     OW 9865   3.836   2.930   6.281 -0.4437  0.2873 -0.3102
 2989SOL    HW1 9866   3.738   2.947   6.292 -0.2128  1.4429  0.0473
 2989SOL    HW2 9867   3.861   2.847   6.330 -1.8114 -1.8740 -3.0088
 2990SOL     OW 9868   6.202   1.198   5.084  0.4006  0.1960  0.0871
 2990SOL    HW1 9869   6.113   1.166   5.118  0.6199 -0.0350  0.4503
 2990SOL    HW2 9870   6.260   1.119   5.063  0.6388  0.3465  0.1688
 2991SOL     OW 9871   6.422   2.155   0.074  0.3913  0.4051  0.3389
 2991SOL    HW1 9872   6.462   2.237   0.033  0.9680 -0.4608 -0.9013
 2991SOL    HW2 9873   6.331   2.177   0.110  1.1117  1.9060  1.3441
 2992SOL     OW 9874   2.972   5.025   6.875  0.0019 -0.3417  0.1516
 2992SOL    HW1 9875   3.021   5.095   6.822 -1.1699  1.5237  1.3721
 2992SOL    HW2 9876   3.008   4.935   6.854  0.5377  0.4395 -2.7195
 2993SOL     OW 9877   3.329   5.295   0.893  0.3668  0.4748  0.1665
 2993SOL    HW1 9878   3.245   5.350   0.899 -0.0681 -0.2817  1.0526
 2993SOL    HW2 9879   3.388   5.316   0.971  1.0699  1.0762 -0.5045
 2994SOL     OW 9880   3.642   5.784   6.374 -0.4041  0.4512  0.0221
 2994SOL    HW1 9881   3.658   5.802   6.276 -0.3201 -0.4690 -0.1385
 2994SOL    HW2 9882   3.563   5.723   6.384  0.3236 -0.4306  0.4620
 2995SOL     OW 9883   5.581   6.503   2.549 -0.1493  0.2010 -0.8555
 2995SOL    HW1 9884   5.643   6.572   2.586 -0.5368  0.5455 -0.8377
 2995SOL    HW2 9885   5.627   6.453   2.476  0.1589  0.4322 -0.8236
 2996SOL     OW 9886   5.637   5.288   6.876 -0.3742  0.2283 -0.0858
 2996SOL    HW1 9887   5.574   5.357   6.841 -1.0385  0.2797  1.1434
 2996SOL    HW2 9888   5.656   5.220   6.805 -0.0709  1.4059 -1.1639
 2997SOL     OW 9889   5.837   6.604   2.198  0.1193 -0.1365  0.0327
 2997SOL    HW1 9890   5.922   6.561   2.167 -0.4445  0.8772 -3.3614
 2997SOL    HW2 9891   5.857   6.670   2.270  2.9649  2.8902 -3.2070
 2998SOL     OW 9892   4.410   6.326   2.242  0.1764  0.0584 -0.3142
 2998SOL    HW1 9893   4.487   6.301   2.184  0.5406  1.1148 -0.2961
 2998SOL    HW2 9894   4.325   6.317   2.191  0.2928 -1.1220 -0.3302
 2999SOL     OW 9895   2.773   3.706   6.469  0.1610 -0.3117 -0.1664
 2999SOL    HW1 9896   2.703   3.698   6.398  0.5209  0.2870 -0.6007
 2999SOL    HW2 9897   2.830   3.786   6.451  0.5041 -0.3757  0.5868
 3000SOL     OW 9898   2.671   4.155   5.708 -0.1201  1.1478  0.7829
 3000SOL    HW1 9899   2.666   4.129   5.611 -0.5462 -1.9629  1.5310
 3000SOL    HW2 9900   2.767   4.165   5.735  0.0862 -0.0216  0.5047
 3001SOL     OW 9901   0.815   0.437   5.125  0.3868  0.5574 -0.2020
 3001SOL    HW1 9902   0.879   0.456   5.050 -0.2452  0.1490 -0.8604
 3001SOL    HW2 9903   0.751   0.513   5.133  1.0750  1.0759  0.6114
 3002SOL     OW 9904   1.063   2.625   0.084  0.0771  0.2581 -0.4021
 3002SOL    HW1 9905   1.156   2.628   0.121 -0.6672  0.7318  1.5701
 3002SOL    HW2 9906   1.058   2.559   0.009  1.9209  0.0222 -0.3541
 3003SOL     OW 9907   2.192   0.250   0.793  0.2726 -0.0853  0.3184
 3003SOL    HW1 9908   2.272   0.243   0.853 -0.9714 -1.2535  1.9458
 3003SOL    HW2 9909   2.217   0.219   0.701  1.7227 -0.2662  0.7451
 3004SOL     OW 9910   3.148   3.001   5.717  0.2063 -0.0222 -0.0500
 3004SOL    HW1 9911   3.198   3.006   5.804  1.3892 -1.2012 -0.6343
 3004SOL    HW2 9912   3.201   3.046   5.645 -0.5225  0.4862 -0.2725
 3005SOL     OW 9913   2.495   1.601   1.865  0.5830 -0.2694  0.3258
 3005SOL    HW1 9914   2.510   1.700   1.867 -1.0538  0.0366 -0.5185
 3005SOL    HW2 9915   2.401   1.582   1.836  0.4415 -2.0560  1.7224
 3006SOL     OW 9916   6.062   0.364   6.358 -0.2519  0.3526 -0.4169
 3006SOL    HW1 9917   6.106   0.427   6.422  0.4023  0.1802 -0.6874
 3006SOL    HW2 9918   6.002   0.415   6.297  1.6906  1.0352 -1.8776
 3007SOL     OW 9919   0.078   5.978   4.874  0.5177  0.5958  0.3306
 3007SOL    HW1 9920   0.135   6.025   4.941  0.6447 -0.9829  1.3981
 3007SOL    HW2 9921   0.031   5.901   4.918 -0.6600  0.4809 -1.0455
 3008SOL     OW 9922   5.970   4.480   4.534  0.2679  0.6094  0.2848
 3008SOL    HW1 9923   5.973   4.477   4.434  0.7452 -0.8993  0.3278
 3008SOL    HW2 9924   5.917   4.402   4.568 -1.7114  2.2149  1.1709
 3009SOL     OW 9925   5.634   4.675   0.602 -0.2278 -1.1258 -0.2975
 3009SOL    HW1 9926   5.641   4.621   0.685  1.3920 -2.3026 -1.1568
 3009SOL    HW2 9927   5.692   4.636   0.531 -0.1671  0.8922 -1.4367
 3010SOL     OW 9928   5.196   2.200   1.328  0.0368 -0.6923  1.2267
 3010SOL    HW1 9929   5.268   2.265   1.301 -0.2270 -0.5531  0.8518
 3010SOL    HW2 9930   5.208   2.115   1.276  0.0720 -0.7579  1.3410
 3011SOL     OW 9931   4.411   1.026   1.531  0.2762  0.5264 -0.8054
 3011SOL    HW1 9932   4.363   1.049   1.616 -1.0140  1.5123 -1.7586
 3011SOL    HW2 9933   4.508   1.011   1.551  0.9008  4.7377  0.3476
 3012SOL     OW 9934   2.285   1.550   4.778 -0.3636 -0.0202  0.3435
 3012SOL    HW1 9935   2.295   1.646   4.804  1.0705  0.0914 -0.5464
 3012SOL    HW2 9936   2.278   1.493   4.860  0.2442  0.6959  0.8959
 3013SOL     OW 9937   0.110   5.891   5.383 -0.2153  0.3388 -0.0767
 3013SOL    HW1 9938   0.184   5.852   5.328  0.3273  1.5095 -0.2228
 3013SOL    HW2 9939   0.025   5.892   5.330 -0.3321 -0.9716  0.0736
 3014SOL     OW 9940   4.231   1.321   2.250  0.2334  0.5176  0.6249
 3014SOL    HW1 9941   4.171   1.401   2.255 -1.6473 -0.8854  1.3683
 3014SOL    HW2 9942   4.195   1.248   2.307  2.4165 -0.5792  0.7016
 3015SOL     OW 9943   1.357   6.503   6.877 -0.0605  0.0115 -0.2616
 3015SOL    HW1 9944   1.422   6.510   6.801  1.8848 -1.3128  1.1739
 3015SOL    HW2 9945   1.352   6.591   6.924  1.1273  0.0003 -0.0857
 3016SOL     OW 9946   2.415   0.440   5.758 -0.4066 -0.3980  0.0430
 3016SOL    HW1 9947   2.475   0.509   5.717  0.0739  0.1003  1.5232
 3016SOL    HW2 9948   2.331   0.433   5.704 -0.1415  0.7960 -0.5642
 3017SOL     OW 9949   0.685   4.653   6.219  0.5740  0.2055  0.0782
 3017SOL    HW1 9950   0.605   4.604   6.186  1.5946 -0.7878 -1.0388
 3017SOL    HW2 9951   0.670   4.751   6.212 -1.2964  0.1033  1.8193
 3018SOL     OW 9952   0.895   3.736   2.340  1.0257  0.2041 -0.2303
 3018SOL    HW1 9953   0.900   3.688   2.252  0.5825 -0.6381  0.1942
 3018SOL    HW2 9954   0.934   3.678   2.412 -0.0779  0.2131  0.3961
 3019SOL     OW 9955   0.403   1.751   5.468 -0.0434  0.1475  0.4254
 3019SOL    HW1 9956   0.348   1.812   5.410  0.6337  1.0304  0.6917
 3019SOL    HW2 9957   0.373   1.760   5.563 -1.6961 -1.8908  0.1668
 3020SOL     OW 9958   5.087   2.974   0.404  0.0107 -0.4001 -0.2290
 3020SOL    HW1 9959   5.135   2.933   0.481 -0.5334 -0.0687  0.2910
 3020SOL    HW2 9960   5.015   3.035   0.437 -1.8446 -2.0892 -0.9484
 3021SOL     OW 9961   3.959   5.313   3.601 -0.1082 -0.0075  0.7654
 3021SOL    HW1 9962   3.996   5.375   3.532 -0.8061  0.3639  0.7252
 3021SOL    HW2 9963   3.904   5.364   3.666 -0.5472 -0.5558  0.8309
 3022SOL     OW 9964   4.473   4.821   1.784  0.0792 -0.1071  0.2137
 3022SOL    HW1 9965   4.473   4.857   1.690  2.0034  0.9610  0.5604
 3022SOL    HW2 9966   4.464   4.722   1.782  2.2906 -0.3584 -1.2963
 3023SOL     OW 9967   6.092   4.653   6.918 -0.3752  0.1776 -0.1551
 3023SOL    HW1 9968   6.152   4.629   6.994 -1.2194 -2.0284 -0.1056
 3023SOL    HW2 9969   6.064   4.748   6.926  1.5179  0.6996  0.8949
 3024SOL     OW 9970   4.899   0.298   6.924 -0.2210 -0.1510  0.5140
 3024SOL    HW1 9971   4.982   0.352   6.911  0.3750 -1.0434  0.6160
 3024SOL    HW2 9972   4.823   0.344   6.878 -0.1681  1.8675  2.2726
 3025SOL     OW 9973   4.201   4.169   1.445  0.0616  0.3687 -0.4870
 3025SOL    HW1 9974   4.220   4.224   1.527  0.5607  0.7656 -0.8585
 3025SOL    HW2 9975   4.105   4.143   1.444  0.0119  0.4997  0.1396
 3026SOL     OW 9976   1.085   5.257   3.558 -0.8353  0.9081  0.0716
 3026SOL    HW1 9977   1.041   5.282   3.472 -1.5971  1.4985  0.6330
 3026SOL    HW2 9978   1.159   5.321   3.577  0.8852 -0.5523 -1.2858
 3027SOL     OW 9979   3.800   5.826   0.713  0.8442  0.1812 -0.1414
 3027SOL    HW1 9980   3.877   5.789   0.766  1.5067 -0.5203 -1.5231
 3027SOL    HW2 9981   3.714   5.791   0.750  1.2919 -0.3391  0.4310
 3028SOL     OW 9982   3.055   3.065   2.591 -0.0044 -0.1164  0.5591
 3028SOL    HW1 9983   3.034   3.112   2.505  2.2265  4.2190  2.0804
 3028SOL    HW2 9984   3.139   3.012   2.580 -0.2028 -0.2953 -0.1350
 3029SOL     OW 9985   0.264   1.746   4.643 -0.4370  0.2892  0.1371
 3029SOL    HW1 9986   0.196   1.740   4.716 -2.0462 -1.1953 -1.4071
 3029SOL    HW2 9987   0.227   1.799   4.567  0.1315 -0.5046 -0.7105
 3030SOL     OW 9988   1.011   4.502   4.657 -0.5012 -0.0518 -0.1633
 3030SOL    HW1 9989   0.922   4.504   4.612 -0.1558  1.0296 -0.8642
 3030SOL    HW2 9990   1.002   4.468   4.750 -1.8510  1.2377  0.2031
 3031SOL     OW 9991   5.961   1.766   0.932 -0.4284 -0.3513  0.2642
 3031SOL    HW1 9992   6.050   1.720   0.927 -0.5171 -0.4516 -0.7578
 3031SOL    HW2 9993   5.895   1.715   0.876 -0.0117  2.0753 -2.7060
 3032SOL     OW 9994   2.143   2.300   1.977 -0.1731 -0.2732 -0.0123
 3032SOL    HW1 9995   2.115   2.395   1.990 -2.2048 -0.5863 -1.6664
 3032SOL    HW2 9996   2.205   2.294   1.898  1.3927 -0.1407  1.1552
 3033SOL     OW 9997   1.965   6.662   6.563  0.3239  0.7191  0.5420
 3033SOL    HW1 9998   1.895   6.634   6.629  0.6583  0.8087  0.9413
 3033SOL    HW2 9999   2.051   6.681   6.611  0.1768  2.2212  0.2609
 3034SOL     OW10000   6.055   5.921   2.818  0.5548 -0.4204 -0.1920
 3034SOL    HW110001   6.033   5.960   2.729  2.1781  0.7664 -0.1038
 3034SOL    HW210002   6.115   5.842   2.807 -2.3156 -2.7702 -0.3346
 3035SOL     OW10003   6.841   4.947   0.694  0.1060  0.4221  0.0898
 3035SOL    HW110004   6.846   4.918   0.790  0.1669  0.5204  0.1179
 3035SOL    HW210005   6.932   4.977   0.664  0.6954 -2.0195 -0.7862
 3036SOL     OW10006   3.631   3.198   0.573  0.2374 -0.0895  0.2347
 3036SOL    HW110007   3.724   3.235   0.569 -0.5584  2.0232  0.1085
 3036SOL    HW210008   3.588   3.207   0.483  0.0063 -1.4231  0.1833
 3037SOL     OW10009   1.565   4.324   6.074 -0.0299  0.0072  0.1439
 3037SOL    HW110010   1.532   4.389   6.005  0.2544 -1.8775 -1.8515
 3037SOL    HW210011   1.490   4.265   6.103  0.2355 -0.3107  0.1884
 3038SOL     OW10012   5.881   4.821   6.241  0.1932  0.3153 -0.0237
 3038SOL    HW110013   5.807   4.804   6.306  0.3216  1.6805  0.5161
 3038SOL    HW210014   5.860   4.902   6.187  0.5844 -0.1938 -0.9743
 3039SOL     OW10015   6.355   3.569   6.298  0.7871 -0.7416  0.3175
 3039SOL    HW110016   6.278   3.631   6.314  1.4718  0.6742 -1.4020
 3039SOL    HW210017   6.384   3.528   6.384 -0.6001  0.2435  1.3038
 3040SOL     OW10018   2.225   6.914   0.020  1.2057  0.1268 -0.0405
 3040SOL    HW110019   2.185   6.827  -0.009  0.2244 -0.1431  1.9623
 3040SOL    HW210020   2.297   6.897   0.087 -0.5597  0.8444  2.1709
 3041SOL     OW10021   2.081   4.820   0.121  0.0195  0.5551  0.5928
 3041SOL    HW110022   2.036   4.851   0.037 -0.3915 -2.1489 -0.2646
 3041SOL    HW210023   2.034   4.860   0.200 -1.5842  0.7014 -0.3885
 3042SOL     OW10024   0.137   5.193   4.929  0.0291 -0.0989 -0.5527
 3042SOL    HW110025   0.068   5.214   4.998 -0.3029 -2.4446 -0.0865
 3042SOL    HW210026   0.160   5.276   4.877 -2.2175  0.9842  0.0998
 3043SOL     OW10027   0.325   1.735   3.642 -0.6096 -0.0964  0.1051
 3043SOL    HW110028   0.393   1.668   3.670  0.5858  0.7828 -0.6031
 3043SOL    HW210029   0.324   1.743   3.542 -2.4286 -0.7534  0.0287
 3044SOL     OW10030   3.638   3.373   2.009  0.4863  0.1843 -0.1209
 3044SOL    HW110031   3.688   3.441   1.955 -0.2803  0.3431 -0.6567
 3044SOL    HW210032   3.606   3.299   1.950  0.6420 -0.2477  0.3235
 3045SOL     OW10033   5.956   0.959   2.172 -0.0530 -0.0079 -0.2128
 3045SOL    HW110034   5.982   0.863   2.166 -2.1589 -0.6449  0.0665
 3045SOL    HW210035   5.999   1.001   2.252 -1.0117 -1.3962  1.0734
 3046SOL     OW10036   5.791   6.208   0.274 -0.2047 -0.0639 -0.7736
 3046SOL    HW110037   5.697   6.237   0.293 -0.2931 -0.9980  0.3278
 3046SOL    HW210038   5.850   6.288   0.269 -0.6803  0.4229  0.7938
 3047SOL     OW10039   3.814   0.525   3.664  0.0757  0.3575 -0.2381
 3047SOL    HW110040   3.870   0.443   3.678 -0.2141  0.4478  1.6196
 3047SOL    HW210041   3.735   0.501   3.606  1.2538 -0.0804 -1.7280
 3048SOL     OW10042   4.717   4.119   0.364 -0.3326 -0.1269 -0.6357
 3048SOL    HW110043   4.655   4.040   0.364  0.3723 -0.6892 -1.3547
 3048SOL    HW210044   4.798   4.098   0.309 -0.3114  1.2382 -1.1532
 3049SOL     OW10045   0.326   0.490   1.596 -0.1717 -0.2109 -0.2216
 3049SOL    HW110046   0.394   0.467   1.527 -0.6507 -2.5813 -0.0038
 3049SOL    HW210047   0.368   0.490   1.687 -0.5534 -2.6476  0.0217
 3050SOL     OW10048   4.354   4.383   0.419  0.4604 -0.2594  0.1373
 3050SOL    HW110049   4.320   4.290   0.405  0.8372 -0.4159  0.2329
 3050SOL    HW210050   4.434   4.381   0.478 -0.2770  0.2633  1.1820
 3051SOL     OW10051   2.268   5.650   4.463 -0.0640  0.5533  0.7536
 3051SOL    HW110052   2.319   5.564   4.456 -1.2158 -0.1247  0.3609
 3051SOL    HW210053   2.253   5.688   4.372 -2.8410 -0.8709  0.5010
 3052SOL     OW10054   5.268   6.445   4.848  0.0371 -0.2918 -0.2495
 3052SOL    HW110055   5.189   6.413   4.796 -2.3927 -0.0540  3.0125
 3052SOL    HW210056   5.272   6.545   4.846 -0.4296 -0.2540  0.4849
 3053SOL     OW10057   1.252   4.180   6.048 -0.2339 -0.6222 -0.1132
 3053SOL    HW110058   1.222   4.267   6.009  1.2505  0.0199  0.1402
 3053SOL    HW210059   1.185   4.109   6.025 -1.4286  0.5537 -0.3830
 3054SOL     OW10060   5.855   6.202   2.662  0.3168  0.2826 -0.6864
 3054SOL    HW110061   5.831   6.109   2.633 -1.9190  0.2287  1.0267
 3054SOL    HW210062   5.849   6.264   2.585 -0.5622 -0.6027 -1.3530
 3055SOL     OW10063   5.350   5.650   6.246  0.1256  0.1728  0.7018
 3055SOL    HW110064   5.267   5.703   6.265 -0.2129 -0.4464  1.0346
 3055SOL    HW210065   5.347   5.565   6.300  2.0599  1.1557  2.5230
 3056SOL     OW10066   4.039   2.590   0.799 -0.4494  0.5190  0.2696
 3056SOL    HW110067   3.964   2.656   0.797 -0.4734  0.4888  0.0491
 3056SOL    HW210068   4.041   2.544   0.887 -0.3837  0.8698  0.4563
 3057SOL     OW10069   6.074   2.883   3.084  0.0585 -0.0050 -0.1852
 3057SOL    HW110070   6.128   2.959   3.120  0.8409 -0.1763 -0.9583
 3057SOL    HW210071   6.066   2.812   3.154 -1.5925  1.1882  0.9400
 3058SOL     OW10072   6.756   4.436   0.230 -0.0092  0.0175  0.0395
 3058SOL    HW110073   6.782   4.340   0.221 -1.2633 -0.4670  1.3480
 3058SOL    HW210074   6.827   4.493   0.188 -0.6784 -1.5541 -3.6668
 3059SOL     OW10075   2.607   1.391   2.154 -0.6184 -0.4869 -0.3549
 3059SOL    HW110076   2.545   1.326   2.110 -0.4498 -2.0238  1.5428
 3059SOL    HW210077   2.695   1.389   2.107 -0.2826 -2.4497  0.2513
 3060SOL     OW10078   4.731   2.833   4.641 -0.0915  0.4326 -0.0864
 3060SOL    HW110079   4.747   2.932   4.636 -0.4875  0.5177  0.2433
 3060SOL    HW210080   4.807   2.785   4.598 -0.7351  0.9292 -1.8481
 3061SOL     OW10081   5.095   0.535   1.691 -0.0650  0.3266  0.4476
 3061SOL    HW110082   5.022   0.469   1.705  0.5593 -0.3504  0.5704
 3061SOL    HW210083   5.083   0.613   1.753  0.5298 -0.8145  2.0571
 3062SOL     OW10084   4.961   2.877   6.827  0.1205  0.2039 -0.0400
 3062SOL    HW110085   4.895   2.951   6.837  0.7045  0.8014 -0.4698
 3062SOL    HW210086   5.007   2.885   6.738  0.9025 -0.0767  0.3279
 3063SOL     OW10087   6.110   0.216   6.929  0.4433 -0.3163  0.0469
 3063SOL    HW110088   6.078   0.308   6.951 -0.7196 -0.3992 -1.1974
 3063SOL    HW210089   6.069   0.151   6.994  2.5858  0.1641  2.0093
 3064SOL     OW10090   4.157   0.479   6.666  0.0891  0.3142  0.2161
 3064SOL    HW110091   4.214   0.500   6.587  0.8941  1.3300  1.0335
 3064SOL    HW210092   4.209   0.423   6.731 -1.4690 -2.9692 -1.1604
 3065SOL     OW10093   4.060   0.209   5.405  0.1735  0.0862  0.9197
 3065SOL    HW110094   4.122   0.257   5.343 -0.6311 -0.2093 -0.1559
 3065SOL    HW210095   3.966   0.218   5.371 -0.2771 -0.1783  2.0550
 3066SOL     OW10096   0.105   1.646   6.817 -0.4094 -0.4860 -0.1850
 3066SOL    HW110097   0.049   1.716   6.771 -0.7501 -0.5403  0.1428
 3066SOL    HW210098   0.192   1.686   6.844 -0.1994 -0.4517 -0.8778
 3067SOL     OW10099   0.555   2.460   5.013  0.1045 -1.0703 -0.2871
 3067SOL    HW110100   0.468   2.463   5.061 -0.2410  1.3138 -0.9751
 3067SOL    HW210101   0.630   2.477   5.078 -0.3585  2.1357 -0.4646
 3068SOL     OW10102   0.828   0.149   1.953  0.3056 -0.0452 -0.0463
 3068SOL    HW110103   0.884   0.211   1.898  0.8146 -1.6118 -1.3830
 3068SOL    HW210104   0.887   0.088   2.005 -0.1802  1.1300  1.9993
 3069SOL     OW10105   4.408   5.833   3.494 -0.5175 -0.2841  0.3112
 3069SOL    HW110106   4.344   5.756   3.495 -0.8904  0.0196  0.3445
 3069SOL    HW210107   4.363   5.912   3.452  0.2182 -0.3916 -0.7094
 3070SOL     OW10108   1.584   6.887   6.926  0.2580  0.1236 -0.5246
 3070SOL    HW110109   1.622   6.930   7.008  0.5948 -0.4155 -0.3927
 3070SOL    HW210110   1.493   6.849   6.948 -0.4513  1.5619 -0.8862
 3071SOL     OW10111   4.768   4.794   4.398  0.4879 -0.0492  0.2385
 3071SOL    HW110112   4.776   4.893   4.386 -0.6118  0.1967  1.3457
 3071SOL    HW210113   4.776   4.772   4.495  3.0521 -1.3158 -0.1819
 3072SOL     OW10114   2.075   0.490   4.374  0.2123  0.3319 -0.3661
 3072SOL    HW110115   2.139   0.434   4.322 -0.0323 -2.2422  1.8753
 3072SOL    HW210116   2.125   0.545   4.441  0.2564 -1.5898  1.3034
 3073SOL     OW10117   0.347   5.838   1.669 -0.5789  0.0226 -0.9432
 3073SOL    HW110118   0.307   5.867   1.756 -1.5378  0.4783 -1.5242
 3073SOL    HW210119   0.414   5.905   1.639 -1.1307  0.4896 -1.1493
 3074SOL     OW10120   2.100   5.168   2.151 -0.0648  0.1695  0.0742
 3074SOL    HW110121   2.130   5.260   2.178 -0.6680  0.4981 -0.3597
 3074SOL    HW210122   2.039   5.131   2.222  0.4412 -0.0424  0.4103
 3075SOL     OW10123   4.619   5.025   6.885 -0.0249  0.2785  0.0723
 3075SOL    HW110124   4.665   5.110   6.860  0.8883  0.3583  1.8713
 3075SOL    HW210125   4.603   5.024   6.984  0.9259 -2.0675  0.2606
 3076SOL     OW10126   2.392   0.541   6.373 -0.4199 -0.0067 -0.4431
 3076SOL    HW110127   2.327   0.615   6.351 -0.1446  0.7850  1.2276
 3076SOL    HW210128   2.472   0.580   6.418  0.3665 -1.2008 -0.7596
 3077SOL     OW10129   6.868   2.474   2.871 -0.4990 -0.0145  0.3328
 3077SOL    HW110130   6.856   2.451   2.775 -1.6108  1.4580  0.0705
 3077SOL    HW210131   6.922   2.404   2.916 -2.0382 -2.0189 -0.7886
 3078SOL     OW10132   6.163   5.892   0.372 -0.1279  0.2746  0.4340
 3078SOL    HW110133   6.215   5.866   0.454 -0.5549  2.0068  1.2955
 3078SOL    HW210134   6.066   5.895   0.394 -0.5699 -1.8773 -0.8904
 3079SOL     OW10135   1.693   4.935   2.943  0.0557 -0.3474  0.1186
 3079SOL    HW110136   1.677   5.034   2.945  0.9978 -0.1789 -0.1337
 3079SOL    HW210137   1.634   4.893   2.874 -1.2253 -0.1402  1.0641
 3080SOL     OW10138   3.721   4.988   1.909  0.2731 -0.2248 -0.2916
 3080SOL    HW110139   3.676   4.920   1.966  1.1123  0.0434  0.7247
 3080SOL    HW210140   3.701   4.970   1.813 -1.6126 -0.3541  0.0983
 3081SOL     OW10141   4.420   2.534   6.032 -0.2982  0.2494  0.2118
 3081SOL    HW110142   4.330   2.550   6.073 -0.5392  1.0918 -0.6162
 3081SOL    HW210143   4.458   2.449   6.068 -1.7674 -0.5450 -0.0231
 3082SOL     OW10144   5.922   2.632   5.617  0.9638 -0.0075 -0.2291
 3082SOL    HW110145   5.903   2.591   5.528 -2.8482 -0.8359  0.7877
 3082SOL    HW210146   5.877   2.721   5.623  1.5984  0.2630  0.6817
 3083SOL     OW10147   2.823   5.086   2.544 -0.1376  0.1093 -0.3101
 3083SOL    HW110148   2.885   5.088   2.622 -1.2574 -1.1310  0.6608
 3083SOL    HW210149   2.782   4.995   2.536 -1.4347  0.7418 -1.2262
 3084SOL     OW10150   0.657   5.359   3.264 -0.0450 -0.2429 -0.3791
 3084SOL    HW110151   0.617   5.402   3.184 -0.8587 -0.3776 -0.0474
 3084SOL    HW210152   0.596   5.368   3.342  1.2296  0.8913  0.5391
 3085SOL     OW10153   5.827   6.739   6.718  0.5722  0.1746 -0.0677
 3085SOL    HW110154   5.852   6.809   6.785 -0.5888  1.1556 -0.6107
 3085SOL    HW210155   5.906   6.682   6.697  1.0415  0.0263  1.8935
 3086SOL     OW10156   6.288   6.888   5.979  0.0655  0.4767  0.0739
 3086SOL    HW110157   6.329   6.961   6.032  0.2326 -0.4091  1.2049
 3086SOL    HW210158   6.353   6.812   5.971  0.3294  0.8459 -2.0416
 3087SOL     OW10159   2.084   5.451   2.996 -0.0060  0.0481 -0.6824
 3087SOL    HW110160   2.145   5.530   2.997 -2.0638  1.7370 -0.8066
 3087SOL    HW210161   2.134   5.370   3.027  2.2119  1.3454 -0.6333
 3088SOL     OW10162   0.851   4.608   6.765 -0.1038 -0.5861 -0.2028
 3088SOL    HW110163   0.849   4.631   6.862 -0.5793  3.1593 -0.9493
 3088SOL    HW210164   0.758   4.604   6.730  0.0403 -2.4560 -0.4784
 3089SOL     OW10165   4.654   6.998   0.687  0.2436  0.1654  0.3084
 3089SOL    HW110166   4.636   6.902   0.708 -2.8905  0.8327  1.1522
 3089SOL    HW210167   4.637   7.054   0.768  3.1035  1.4127  0.1706
 3090SOL     OW10168   0.159   6.704   3.100  0.3303  0.1596  0.0599
 3090SOL    HW110169   0.201   6.787   3.138 -1.7234  0.3988  2.0712
 3090SOL    HW210170   0.222   6.627   3.109  1.2181  0.9437  0.8104
 3091SOL     OW10171   0.980   2.047   6.706  0.4921  0.3005 -0.7666
 3091SOL    HW110172   1.043   2.005   6.771  0.2814  0.8012 -0.2291
 3091SOL    HW210173   0.888   2.014   6.724 -0.0177  2.4070  0.9682
 3092SOL     OW10174   5.392   1.635   3.675  0.0224  0.5921  0.6584
 3092SOL    HW110175   5.481   1.596   3.653  0.8098  1.3392  2.3445
 3092SOL    HW210176   5.338   1.644   3.591 -0.2617 -4.0124  0.0861
 3093SOL     OW10177   4.560   5.661   6.811  0.3337  0.4302 -0.4455
 3093SOL    HW110178   4.629   5.641   6.741 -1.3351 -2.2041 -1.4770
 3093SOL    HW210179   4.599   5.643   6.901  1.1421 -0.5700 -0.9723
 3094SOL     OW10180   1.535   0.599   5.580 -0.2639 -0.0889 -0.7810
 3094SOL    HW110181   1.546   0.647   5.494  0.8608 -1.0272 -1.1931
 3094SOL    HW210182   1.469   0.524   5.568 -1.0162  0.5215 -0.4948
 3095SOL     OW10183   2.351   4.735   5.884 -0.1205  0.1448 -0.6457
 3095SOL    HW110184   2.299   4.669   5.940 -0.6112  0.8386 -0.2754
 3095SOL    HW210185   2.312   4.826   5.894  1.5392  0.8198  0.1466
 3096SOL     OW10186   2.495   4.539   4.536  0.0962  0.4073 -0.0554
 3096SOL    HW110187   2.550   4.614   4.571  0.9264  0.0700 -0.6014
 3096SOL    HW210188   2.455   4.488   4.612  2.2498 -0.6082  0.4762
 3097SOL     OW10189   4.849   1.386   0.560 -0.1329 -0.4645  0.1125
 3097SOL    HW110190   4.919   1.441   0.515 -0.2844 -0.0342  0.3978
 3097SOL    HW210191   4.759   1.408   0.521 -0.4023  0.6306  1.2599
 3098SOL     OW10192   2.729   5.093   4.018  0.3654  0.0566 -0.0576
 3098SOL    HW110193   2.772   5.121   3.933  0.8293 -0.0820  0.1310
 3098SOL    HW210194   2.661   5.162   4.045  0.2153  0.1007 -0.5329
 3099SOL     OW10195   0.326   6.896   4.927 -0.9137  0.5242 -0.1728
 3099SOL    HW110196   0.234   6.867   4.951 -1.5096  1.7390 -0.9053
 3099SOL    HW210197   0.329   6.921   4.830  0.2569  0.2241 -0.2277
 3100SOL     OW10198   5.210   5.770   2.348 -0.2311  0.5251  0.2498
 3100SOL    HW110199   5.166   5.694   2.395  0.4554  0.1452  0.3014
 3100SOL    HW210200   5.144   5.842   2.331 -1.0532 -0.3798 -0.4451
 3101SOL     OW10201   4.425   7.012   5.720  0.4185  0.4693 -0.5647
 3101SOL    HW110202   4.403   6.927   5.670  1.1243  0.2904 -0.5753
 3101SOL    HW210203   4.406   7.090   5.661  0.5620  0.2837 -0.8630
 3102SOL     OW10204   5.052   2.816   3.410  0.0762 -0.1297 -0.3701
 3102SOL    HW110205   5.007   2.870   3.338 -0.8005  3.0920  2.3013
 3102SOL    HW210206   4.984   2.762   3.458  0.1319 -0.0237 -0.1703
 3103SOL     OW10207   1.386   5.594   1.746  0.3761 -0.3433  0.1084
 3103SOL    HW110208   1.324   5.525   1.708  0.0038 -0.8825  1.6158
 3103SOL    HW210209   1.336   5.652   1.810  0.8301  0.9975 -0.6976
 3104SOL     OW10210   5.736   3.080   4.068 -0.1908  0.3527  0.3599
 3104SOL    HW110211   5.798   3.144   4.022  0.1257 -0.0231  0.2649
 3104SOL    HW210212   5.650   3.075   4.018  0.3034 -0.3741 -0.4360
 3105SOL     OW10213   6.021   6.232   6.985  0.5580 -0.3110 -0.5060
 3105SOL    HW110214   5.937   6.247   6.933  1.4200  0.1601 -1.8029
 3105SOL    HW210215   6.060   6.320   7.012  2.1986 -0.3416 -2.5305
 3106SOL     OW10216   4.808   1.255   4.289 -0.1070  0.6727 -0.1165
 3106SOL    HW110217   4.755   1.336   4.264  1.0645  2.7441  3.2707
 3106SOL    HW210218   4.763   1.207   4.364 -0.3203 -1.3710 -1.4852
 3107SOL     OW10219   5.313   2.643   3.039  0.3556  0.2678 -0.3795
 3107SOL    HW110220   5.335   2.553   3.002  1.5514 -0.0324  0.9659
 3107SOL    HW210221   5.234   2.636   3.100  0.6290  0.0524 -0.0429
 3108SOL     OW10222   1.895   5.572   4.847 -0.5644 -0.2016  0.5956
 3108SOL    HW110223   1.990   5.598   4.826 -1.0082  0.2941 -0.9665
 3108SOL    HW210224   1.868   5.611   4.934  0.2160  0.8783  0.3734
 3109SOL     OW10225   0.778   4.947   4.186 -0.2784 -0.6511 -0.3467
 3109SOL    HW110226   0.852   4.889   4.152 -0.1532 -0.3560 -0.5789
 3109SOL    HW210227   0.778   4.946   4.286 -0.1007 -0.8314 -0.3474
 3110SOL     OW10228   1.872   3.673   4.719 -0.2936  0.3112  0.2484
 3110SOL    HW110229   1.954   3.630   4.754 -0.8232  1.1622  2.7267
 3110SOL    HW210230   1.876   3.772   4.734 -1.9478  0.3233  0.8736
 3111SOL     OW10231   6.431   2.360   5.807  0.5402 -0.3318  0.1547
 3111SOL    HW110232   6.372   2.366   5.727  1.9741 -0.1337 -0.9324
 3111SOL    HW210233   6.398   2.423   5.878 -1.1346 -1.0037  0.0138
 3112SOL     OW10234   4.774   6.510   5.656  0.0809 -0.3028 -0.1971
 3112SOL    HW110235   4.874   6.516   5.651  0.2732 -1.0525  1.8310
 3112SOL    HW210236   4.740   6.574   5.724 -0.9848  0.8654 -1.7806
 3113SOL     OW10237   2.650   5.265   4.949 -0.8348  0.3362  0.0159
 3113SOL    HW110238   2.570   5.244   5.006 -2.5257  0.1864 -2.2470
 3113SOL    HW210239   2.666   5.189   4.885  0.4341  0.8597 -0.3085
 3114SOL     OW10240   4.127   3.472   4.836 -0.2973 -0.4716  0.2564
 3114SOL    HW110241   4.139   3.519   4.748 -2.3344 -0.6543 -0.1586
 3114SOL    HW210242   4.205   3.494   4.895 -0.0906  1.6951 -0.6902
 3115SOL     OW10243   0.257   4.613   3.380 -0.2439  0.0169  0.2874
 3115SOL    HW110244   0.254   4.652   3.472 -1.1000  2.4013 -0.6451
 3115SOL    HW210245   0.348   4.576   3.362  0.2644  0.4791  1.7265
 3116SOL     OW10246   1.542   1.819   5.774  0.2331 -0.3932  0.0311
 3116SOL    HW110247   1.501   1.900   5.733  3.0626  0.9493 -0.3464
 3116SOL    HW210248   1.477   1.778   5.838 -1.5539  1.7045 -0.3311
 3117SOL     OW10249   5.236   0.713   1.366 -0.2948 -0.1182  0.0393
 3117SOL    HW110250   5.202   0.623   1.395  1.3622 -0.1823  1.9804
 3117SOL    HW210251   5.158   0.771   1.342 -1.4541 -1.7473 -0.3387
 3118SOL     OW10252   1.013   2.748   3.258 -0.6660 -0.1942 -0.1406
 3118SOL    HW110253   1.101   2.764   3.214 -0.8665 -0.5392 -0.6708
 3118SOL    HW210254   1.012   2.658   3.301 -0.5315  0.0724  0.4354
 3119SOL     OW10255   4.213   0.492   3.486  0.2463  0.1364 -0.1849
 3119SOL    HW110256   4.134   0.547   3.457  0.2110  0.5014  0.5682
 3119SOL    HW210257   4.240   0.519   3.579 -1.0247 -2.4578  1.0656
 3120SOL     OW10258   3.230   0.111   0.438 -0.4889 -0.2194 -0.1931
 3120SOL    HW110259   3.204   0.080   0.529 -1.1685 -0.6164 -0.5150
 3120SOL    HW210260   3.267   0.204   0.443  1.5842 -1.0279  0.8011
 3121SOL     OW10261   3.822   2.147   4.007  0.1836 -0.0455  0.3793
 3121SOL    HW110262   3.886   2.206   3.957 -0.7563  0.7421  0.0778
 3121SOL    HW210263   3.828   2.167   4.105  0.7644 -0.3563  0.4171
 3122SOL     OW10264   5.478   1.303   6.733 -0.1770  0.4348 -0.4734
 3122SOL    HW110265   5.472   1.256   6.821 -0.4373  0.0135 -0.7136
 3122SOL    HW210266   5.451   1.399   6.744 -0.9222  0.2017 -0.2395
 3123SOL     OW10267   2.026   2.688   2.996  0.3604  0.0539  0.0115
 3123SOL    HW110268   2.023   2.621   2.921 -0.9265  2.0144 -1.8024
 3123SOL    HW210269   2.100   2.753   2.978 -0.1377  0.7008  0.3005
 3124SOL     OW10270   2.868   6.901   5.566  0.1940 -0.6056  0.5767
 3124SOL    HW110271   2.831   6.873   5.478  0.4980 -0.8094  0.5103
 3124SOL    HW210272   2.962   6.866   5.575  1.1165  1.5546 -0.0975
 3125SOL     OW10273   1.853   1.591   4.981 -0.1189  0.2169 -0.3391
 3125SOL    HW110274   1.782   1.628   4.921 -0.3462  2.0056  0.9540
 3125SOL    HW210275   1.819   1.585   5.075  0.3690 -2.1232 -0.2317
 3126SOL     OW10276   4.766   4.623   4.891 -0.3311 -0.0053 -0.3069
 3126SOL    HW110277   4.790   4.677   4.810  1.6907 -1.6604 -0.9018
 3126SOL    HW210278   4.838   4.633   4.960 -0.0732 -1.5988 -0.3059
 3127SOL     OW10279   2.119   1.781   5.964  0.5836 -0.1709  0.0430
 3127SOL    HW110280   2.087   1.694   6.001  0.4559  0.3157  1.1006
 3127SOL    HW210281   2.062   1.806   5.886  0.7104 -1.0968 -0.3644
 3128SOL     OW10282   2.333   2.308   2.596 -0.6299 -0.7526 -0.3848
 3128SOL    HW110283   2.427   2.275   2.607 -1.1034 -1.8087  0.7421
 3128SOL    HW210284   2.296   2.335   2.685 -0.2708  2.9978 -1.2392
 3129SOL     OW10285   4.847   4.953   1.112  0.1919 -0.1479  0.1869
 3129SOL    HW110286   4.817   4.934   1.018  2.5711 -2.5900 -0.1984
 3129SOL    HW210287   4.788   4.905   1.176  0.8590 -1.7406 -0.3389
 3130SOL     OW10288   6.953   5.995   1.355  0.4428  0.4210 -0.2929
 3130SOL    HW110289   6.934   6.053   1.434  0.0266  0.1019 -0.1531
 3130SOL    HW210290   7.051   5.990   1.340  0.5649 -0.0282  0.5996
 3131SOL     OW10291   1.629   0.201   3.316 -0.4337  0.4729  0.3301
 3131SOL    HW110292   1.703   0.177   3.379 -0.8132  0.5440  0.8078
 3131SOL    HW210293   1.541   0.183   3.359 -0.7452  2.7345  0.7413
 3132SOL     OW10294   4.747   5.641   5.792  0.1310  0.2747  0.1000
 3132SOL    HW110295   4.654   5.629   5.828 -1.0492  0.7611 -2.5551
 3132SOL    HW210296   4.777   5.557   5.748 -0.1141  0.8642 -1.2436
 3133SOL     OW10297   5.608   6.646   5.046 -0.2384  0.3388 -0.0050
 3133SOL    HW110298   5.524   6.619   5.093  0.8953 -0.3767  1.6979
 3133SOL    HW210299   5.611   6.604   4.956 -0.2068 -2.3262  1.1678
 3134SOL     OW10300   1.943   6.411   1.948 -0.4343  0.0578 -0.0227
 3134SOL    HW110301   1.961   6.319   1.983 -2.0813  0.2828  1.5748
 3134SOL    HW210302   2.013   6.436   1.882  1.9491 -1.0659  1.9346
 3135SOL     OW10303   2.875   6.768   6.225 -0.0985 -0.2535 -0.6554
 3135SOL    HW110304   2.875   6.677   6.267 -0.9675  0.4732  0.9981
 3135SOL    HW210305   2.828   6.763   6.136  0.1468 -1.4750 -0.7325
 3136SOL     OW10306   6.359   1.034   0.312 -0.3838  0.2758 -0.3151
 3136SOL    HW110307   6.351   1.105   0.382 -1.8053  0.7625 -0.9259
 3136SOL    HW210308   6.329   0.946   0.349  1.4955 -0.0649  0.4801
 3137SOL     OW10309   4.874   4.714   0.432  0.0907 -0.1085  0.0590
 3137SOL    HW110310   4.945   4.693   0.366  0.6464 -1.7745  1.1255
 3137SOL    HW210311   4.816   4.788   0.397  1.8554  0.7634 -1.1662
 3138SOL     OW10312   1.002   6.810   6.513 -0.3373  0.0377 -0.3241
 3138SOL    HW110313   0.963   6.854   6.595 -0.3030  0.3748 -0.4893
 3138SOL    HW210314   1.051   6.727   6.541 -2.5242 -1.3285 -0.2607
 3139SOL     OW10315   0.663   4.075   1.792 -0.8500 -0.1458  0.5667
 3139SOL    HW110316   0.635   3.981   1.811 -2.9740  0.4026  0.3643
 3139SOL    HW210317   0.623   4.136   1.861 -0.6501  0.7721 -0.1120
 3140SOL     OW10318   2.980   5.636   6.786 -0.1580  0.3982  0.1622
 3140SOL    HW110319   2.920   5.709   6.751 -1.6511 -0.1152  1.4943
 3140SOL    HW210320   2.997   5.569   6.714  0.3756  1.5230 -0.7803
 3141SOL     OW10321   5.811   1.662   0.273 -0.2006 -0.1622 -0.5297
 3141SOL    HW110322   5.821   1.608   0.190  0.0255 -0.4404 -0.3252
 3141SOL    HW210323   5.742   1.619   0.332  1.4033 -1.3981  0.5370
 3142SOL     OW10324   4.480   1.748   4.690  0.2843  0.3938 -0.1584
 3142SOL    HW110325   4.513   1.800   4.769 -0.1693  0.7670 -0.2076
 3142SOL    HW210326   4.444   1.812   4.622 -0.0839  0.0257 -0.3081
 3143SOL     OW10327   4.145   1.532   0.675 -0.2156  0.0837 -0.4144
 3143SOL    HW110328   4.093   1.447   0.683  0.0034 -0.1592 -1.4285
 3143SOL    HW210329   4.087   1.610   0.700 -0.7502 -0.2657 -0.5602
 3144SOL     OW10330   3.304   4.455   6.448 -0.0481 -0.2421  0.4578
 3144SOL    HW110331   3.400   4.458   6.420  0.0152 -0.7739  0.6189
 3144SOL    HW210332   3.258   4.537   6.414  0.5807  0.2746  0.8250
 3145SOL     OW10333   6.110   0.311   4.567  0.1629  0.7848  0.1901
 3145SOL    HW110334   6.186   0.324   4.631  0.2279  0.7182  0.1274
 3145SOL    HW210335   6.136   0.242   4.499  0.8610  2.2759 -1.1086
 3146SOL     OW10336   6.676   2.775   4.178 -0.1815 -0.2451  0.8778
 3146SOL    HW110337   6.749   2.840   4.157 -1.0288  0.8531  1.2274
 3146SOL    HW210338   6.628   2.805   4.261 -0.9399 -1.0253  0.7312
 3147SOL     OW10339   4.778   6.303   0.081  0.4347  0.1779  0.1545
 3147SOL    HW110340   4.784   6.240   0.158 -3.3445 -1.3235 -0.5640
 3147SOL    HW210341   4.747   6.392   0.112  1.0633  0.2495  0.5905
 3148SOL     OW10342   0.552   2.836   6.524 -0.2494 -0.2707 -0.3999
 3148SOL    HW110343   0.457   2.807   6.512  0.1074 -1.2762 -0.9263
 3148SOL    HW210344   0.573   2.844   6.621 -1.0874  0.7524 -0.2775
 3149SOL     OW10345   4.986   2.250   0.787 -0.0403  0.0659  0.3282
 3149SOL    HW110346   4.964   2.312   0.863 -2.3604  1.4026 -1.2976
 3149SOL    HW210347   5.014   2.161   0.823  3.0156  1.8180  2.7663
 3150SOL     OW10348   4.721   1.130   2.606  0.2466 -0.5250  0.4976
 3150SOL    HW110349   4.626   1.147   2.580  0.5901  1.3833  0.3468
 3150SOL    HW210350   4.771   1.093   2.528  0.0263  0.1348  0.0374
 3151SOL     OW10351   0.502   0.491   0.163 -0.0344 -0.4709 -0.1830
 3151SOL    HW110352   0.490   0.432   0.083 -1.7292  0.2882 -0.5355
 3151SOL    HW210353   0.425   0.478   0.225  0.8255 -0.3988  0.9217
 3152SOL     OW10354   1.049   1.243   6.200  0.0279 -1.1084  0.1701
 3152SOL    HW110355   1.114   1.198   6.138  1.8701 -0.4383  1.5105
 3152SOL    HW210356   1.027   1.334   6.166  1.8711 -0.3201  0.9490
 3153SOL     OW10357   6.407   5.495   6.862  0.4498  0.4266 -0.0076
 3153SOL    HW110358   6.333   5.503   6.795 -1.3690 -0.5351  1.7859
 3153SOL    HW210359   6.426   5.585   6.901  1.0584  0.8745 -1.2652
 3154SOL     OW10360   4.560   2.111   1.371 -0.1474  0.2157  0.5872
 3154SOL    HW110361   4.565   2.157   1.460  1.2836 -0.8197  1.0711
 3154SOL    HW210362   4.651   2.082   1.344 -0.8801 -1.4608 -0.1683
 3155SOL     OW10363   6.295   5.506   6.342 -0.0266  0.0078 -0.8303
 3155SOL    HW110364   6.257   5.575   6.404  0.8080 -1.2234  1.1081
 3155SOL    HW210365   6.221   5.467   6.287 -0.8040  1.0298 -0.5432
 3156SOL     OW10366   3.790   5.510   6.714 -0.0984  0.2141  0.0173
 3156SOL    HW110367   3.817   5.430   6.767 -0.4672 -0.2534 -0.4833
 3156SOL    HW210368   3.839   5.591   6.747  0.7504 -0.3333  0.1147
 3157SOL     OW10369   1.211   1.871   4.209  0.0700  0.1847 -0.1169
 3157SOL    HW110370   1.237   1.870   4.112 -0.3196 -1.5313 -0.2326
 3157SOL    HW210371   1.286   1.835   4.264 -0.9609 -2.2530 -0.1839
 3158SOL     OW10372   0.187   6.699   6.575 -0.4067 -0.3999 -0.2510
 3158SOL    HW110373   0.162   6.605   6.553  2.1396 -1.7678  2.0020
 3158SOL    HW210374   0.200   6.708   6.674 -0.4105  2.3213 -0.4054
 3159SOL     OW10375   5.268   5.451   6.585  0.0695 -0.6110 -0.2354
 3159SOL    HW110376   5.343   5.459   6.650 -0.9075 -1.4342  1.0225
 3159SOL    HW210377   5.219   5.365   6.599 -0.7400 -0.3891 -1.4533
 3160SOL     OW10378   0.008   0.691   6.510  0.7500  0.1737  0.1283
 3160SOL    HW110379   0.054   0.752   6.445 -0.5173  0.6120 -0.3973
 3160SOL    HW210380  -0.020   0.743   6.590  2.0400 -0.3055  0.9160
 3161SOL     OW10381   0.699   3.517   1.324 -0.3026 -0.3445  0.3786
 3161SOL    HW110382   0.631   3.445   1.342  0.2118 -1.8992 -3.0870
 3161SOL    HW210383   0.652   3.599   1.291 -0.6390 -0.7495 -0.1703
 3162SOL     OW10384   0.578   5.449   3.000 -0.1012 -0.2440 -0.4930
 3162SOL    HW110385   0.618   5.401   2.922 -0.0299  0.8896 -1.1827
 3162SOL    HW210386   0.619   5.540   3.008  0.4813 -0.6197  1.3795
 3163SOL     OW10387   5.538   5.894   1.232  0.2896 -0.5393  0.4060
 3163SOL    HW110388   5.569   5.799   1.231 -2.1786 -1.4057  0.1094
 3163SOL    HW210389   5.479   5.910   1.153 -0.8374  0.7014  1.4776
 3164SOL     OW10390   1.634   6.865   2.564  0.0088  0.7879 -0.0460
 3164SOL    HW110391   1.614   6.844   2.468  0.0885  1.1427 -0.1413
 3164SOL    HW210392   1.715   6.924   2.569 -1.1874  2.4708  0.1089
 3165SOL     OW10393   5.894   4.609   0.520  0.3913  0.0008  0.1028
 3165SOL    HW110394   5.932   4.556   0.444 -1.1103 -0.6455 -0.2311
 3165SOL    HW210395   5.873   4.548   0.596 -0.0286  0.3337  0.2591
 3166SOL     OW10396   3.908   0.179   6.025  0.4792  0.0359  0.6100
 3166SOL    HW110397   3.811   0.202   6.011  0.6842  0.5616  0.0076
 3166SOL    HW210398   3.920   0.139   6.116 -0.0878  1.2906  1.2572
 3167SOL     OW10399   0.637   1.968   4.047  0.4993 -0.0763  0.4928
 3167SOL    HW110400   0.603   2.008   4.132 -1.5104  0.7682 -0.6237
 3167SOL    HW210401   0.562   1.962   3.981  2.1869  0.2078 -1.5704
 3168SOL     OW10402   6.665   1.365   0.198 -0.0411  0.1711 -0.3322
 3168SOL    HW110403   6.651   1.425   0.277 -1.7402 -1.6739  0.8572
 3168SOL    HW210404   6.701   1.277   0.230  2.6773  0.5380 -2.0557
 3169SOL     OW10405   1.093   2.088   1.396 -0.0608  0.7612 -0.5251
 3169SOL    HW110406   1.086   2.135   1.309 -0.7878 -0.9547 -1.4307
 3169SOL    HW210407   1.188   2.090   1.428  0.5724 -0.0781 -2.2460
 3170SOL     OW10408   2.065   4.602   4.666 -0.0420 -0.5366  0.4175
 3170SOL    HW110409   2.065   4.586   4.765  0.3596 -0.6840  0.3954
 3170SOL    HW210410   2.035   4.519   4.619 -2.0699  0.0941  0.4888
 3171SOL     OW10411   0.658   0.428   3.198 -0.0016  0.1614 -0.0912
 3171SOL    HW110412   0.749   0.398   3.228  0.0540 -1.9196 -2.0478
 3171SOL    HW210413   0.588   0.375   3.247 -0.1538  1.0752  0.7057
 3172SOL     OW10414   5.623   4.094   1.040 -0.1133 -0.3891 -0.1141
 3172SOL    HW110415   5.543   4.139   1.080  0.5872  1.7408 -0.9696
 3172SOL    HW210416   5.705   4.148   1.061  0.5012 -0.0741 -2.9016
 3173SOL     OW10417   6.961   3.615   0.060  0.0730  0.0428  0.0107
 3173SOL    HW110418   6.947   3.543   0.128  1.3904  0.7224  1.0659
 3173SOL    HW210419   7.058   3.620   0.036 -0.1739  0.7120 -0.9091
 3174SOL     OW10420   4.241   4.015   6.291  0.0010 -0.0341  0.0456
 3174SOL    HW110421   4.335   3.985   6.308 -0.8244 -2.8375  0.1338
 3174SOL    HW210422   4.178   3.940   6.311 -2.2331  1.5576 -0.6489
 3175SOL     OW10423   5.649   5.026   5.159  0.6244 -0.9809  0.4748
 3175SOL    HW110424   5.677   5.073   5.075  1.3956 -0.6268  0.9217
 3175SOL    HW210425   5.588   4.951   5.136  0.9376 -0.9721 -0.4173
 3176SOL     OW10426   0.107   3.859   5.830 -0.9429  0.0737 -0.0949
 3176SOL    HW110427   0.069   3.767   5.844 -1.2274  0.0916 -0.7137
 3176SOL    HW210428   0.033   3.926   5.838 -1.2365  0.0502 -2.1057
 3177SOL     OW10429   5.599   3.782   3.345  0.1609  0.1107  0.0180
 3177SOL    HW110430   5.615   3.696   3.297  2.4028  0.8004 -0.5920
 3177SOL    HW210431   5.540   3.840   3.289  1.4046  0.2582 -1.1859
 3178SOL     OW10432   3.676   6.484   1.951 -0.1246 -0.1668 -0.1715
 3178SOL    HW110433   3.584   6.524   1.949 -0.3186 -0.6101 -0.2209
 3178SOL    HW210434   3.688   6.434   2.037  0.1066 -0.0231 -0.1209
 3179SOL     OW10435   6.571   4.329   2.880 -0.1070 -0.2982  0.3221
 3179SOL    HW110436   6.664   4.355   2.905 -0.7569  1.2316  1.2827
 3179SOL    HW210437   6.572   4.236   2.843  1.8493 -0.1587 -0.1151
 3180SOL     OW10438   6.385   1.470   0.464 -0.0875  0.2948 -0.3900
 3180SOL    HW110439   6.363   1.376   0.489 -0.1564  1.0470  2.7762
 3180SOL    HW210440   6.319   1.503   0.396 -0.3075 -1.7789 -1.2397
 3181SOL     OW10441   5.392   6.129   3.417 -0.5475  0.0177  0.1721
 3181SOL    HW110442   5.385   6.149   3.515  0.4325 -0.8974  0.4449
 3181SOL    HW210443   5.376   6.213   3.365  1.6178  1.1498  1.2190
 3182SOL     OW10444   1.159   5.853   1.076  0.6903  0.2346 -0.2407
 3182SOL    HW110445   1.204   5.812   0.997 -0.0409 -3.3181  0.9982
 3182SOL    HW210446   1.227   5.869   1.148  0.7319 -0.7055 -0.0536
 3183SOL     OW10447   2.670   3.492   0.007 -0.4275 -0.6744 -0.3437
 3183SOL    HW110448   2.689   3.550   0.087  0.1273  0.2047 -1.0879
 3183SOL    HW210449   2.625   3.547  -0.063 -0.4744 -1.3234 -0.8244
 3184SOL     OW10450   6.649   6.007   4.504  0.0877 -0.3234 -0.1928
 3184SOL    HW110451   6.562   6.054   4.511  0.2356  0.4308 -2.6026
 3184SOL    HW210452   6.676   5.973   4.594 -2.9376 -1.1050  0.5183
 3185SOL     OW10453   0.940   0.679   6.187  0.8169  0.1701  0.1931
 3185SOL    HW110454   0.892   0.652   6.270  1.2804 -0.2957  0.3135
 3185SOL    HW210455   0.874   0.693   6.114  0.3372  1.3386  0.8357
 3186SOL     OW10456   1.560   1.503   6.326  0.0469 -0.1931  0.2678
 3186SOL    HW110457   1.493   1.433   6.349 -1.0622  0.7500  0.0127
 3186SOL    HW210458   1.570   1.566   6.403 -0.0484  0.1895 -0.0288
 3187SOL     OW10459   5.008   1.388   3.441  0.1843 -0.2938  0.3522
 3187SOL    HW110460   4.967   1.437   3.363 -1.2458  0.4084  1.4823
 3187SOL    HW210461   5.028   1.454   3.514 -2.3357 -1.3452  2.1516
 3188SOL     OW10462   0.590   5.314   2.715  0.6042 -0.4530 -0.2858
 3188SOL    HW110463   0.638   5.248   2.657 -0.2481  0.2535 -1.8570
 3188SOL    HW210464   0.505   5.342   2.670 -0.3794 -0.2922  1.5864
 3189SOL     OW10465   2.649   0.581   6.488  0.0479  0.3335  0.2629
 3189SOL    HW110466   2.679   0.572   6.583  0.5678 -0.7977  0.0041
 3189SOL    HW210467   2.606   0.671   6.475  0.4952  0.7295  1.4125
 3190SOL     OW10468   4.272   5.021   3.118  0.1611 -0.1218 -0.4907
 3190SOL    HW110469   4.325   5.007   3.202 -0.4793 -1.0750 -0.2281
 3190SOL    HW210470   4.241   5.116   3.113  0.1288 -0.0795  0.3930
 3191SOL     OW10471   4.159   5.801   6.680  0.1155  0.4757 -0.1744
 3191SOL    HW110472   4.188   5.721   6.628  0.4681 -0.3237  1.2072
 3191SOL    HW210473   4.238   5.859   6.700  0.3228 -0.1947  1.0600
 3192SOL     OW10474   6.417   6.674   2.198  0.5014  0.0064  0.6390
 3192SOL    HW110475   6.411   6.774   2.202  0.7405  0.0063  1.0369
 3192SOL    HW210476   6.411   6.644   2.102  0.2105  0.3855  0.5349
 3193SOL     OW10477   5.886   6.217   4.336  0.1908 -0.4169  0.4215
 3193SOL    HW110478   5.821   6.204   4.262  1.0930  1.0280 -0.6839
 3193SOL    HW210479   5.979   6.208   4.301  0.7703  3.5395  0.5303
 3194SOL     OW10480   3.437   0.979   5.400  0.0655  0.1938 -0.0833
 3194SOL    HW110481   3.510   1.047   5.400 -1.1437  1.5931  1.1750
 3194SOL    HW210482   3.475   0.888   5.412  1.5508  1.0224  2.3180
 3195SOL     OW10483   6.475   6.134   1.720 -0.6479 -0.0685  0.0590
 3195SOL    HW110484   6.571   6.106   1.714 -0.4749  0.8163 -2.7887
 3195SOL    HW210485   6.460   6.180   1.808  0.9188 -2.1386  1.5374
 3196SOL     OW10486   5.446   2.780   2.164  0.2145 -0.2442 -0.6386
 3196SOL    HW110487   5.514   2.830   2.111  1.1062 -0.8322 -0.0830
 3196SOL    HW210488   5.484   2.693   2.193 -1.0427 -0.9164 -0.9296
 3197SOL     OW10489   3.648   0.450   6.254 -0.8307  0.2982 -0.1676
 3197SOL    HW110490   3.690   0.373   6.204 -1.7435  0.1463 -0.7278
 3197SOL    HW210491   3.599   0.508   6.189  0.0472  1.4940  0.2264
 3198SOL     OW10492   5.407   4.218   2.550 -0.0055 -0.0216  0.0153
 3198SOL    HW110493   5.365   4.175   2.629 -1.4740  2.0454  0.4449
 3198SOL    HW210494   5.463   4.295   2.580  1.6867 -0.8886 -0.7962
 3199SOL     OW10495   5.873   3.228   2.510  0.1244  0.3803 -0.2030
 3199SOL    HW110496   5.784   3.273   2.505  0.6465  1.6844  1.4703
 3199SOL    HW210497   5.904   3.206   2.418 -1.7056  0.3087 -0.8446
 3200SOL     OW10498   5.769   2.619   6.941 -0.0794  0.8917 -0.0397
 3200SOL    HW110499   5.691   2.667   6.981  0.0453  0.5407  0.6336
 3200SOL    HW210500   5.812   2.562   7.010 -0.2733 -0.2594 -0.8502
 3201SOL     OW10501   6.237   3.470   2.378  0.2747  0.2424 -0.2503
 3201SOL    HW110502   6.184   3.447   2.459 -1.8153  0.2660 -1.5256
 3201SOL    HW210503   6.268   3.565   2.385 -2.2076  1.1648 -0.5754
 3202SOL     OW10504   4.042   3.207   4.893  0.3992  0.0275  0.1234
 3202SOL    HW110505   4.035   3.172   4.800 -1.3639 -0.3417  0.3746
 3202SOL    HW210506   4.072   3.303   4.890  0.4064  0.0056 -0.8068
 3203SOL     OW10507   2.805   6.546   1.302 -0.3678  0.2704  0.0625
 3203SOL    HW110508   2.798   6.534   1.203  2.1091  0.4940 -0.1994
 3203SOL    HW210509   2.729   6.498   1.346 -1.1093 -0.4736 -1.8932
 3204SOL     OW10510   5.322   2.155   2.622  0.4012  0.0586 -0.2844
 3204SOL    HW110511   5.359   2.247   2.635  0.4835  0.2837 -1.9751
 3204SOL    HW210512   5.329   2.104   2.708 -2.9425  2.7456  1.8380
 3205SOL     OW10513   5.422   3.622   6.598 -0.6525  0.4825 -0.3262
 3205SOL    HW110514   5.427   3.567   6.514  1.5447 -0.6077  0.4448
 3205SOL    HW210515   5.422   3.561   6.677 -2.5673  1.5081  0.5158
 3206SOL     OW10516   3.684   5.787   6.079 -0.0075 -0.6920 -0.1177
 3206SOL    HW110517   3.620   5.852   6.039  1.1095  0.8317  0.5006
 3206SOL    HW210518   3.696   5.709   6.017  0.5259  0.8584 -2.0422
 3207SOL     OW10519   3.576   0.453   2.803  0.2905  0.0379  0.7400
 3207SOL    HW110520   3.675   0.458   2.817  0.3767 -0.2870  0.2639
 3207SOL    HW210521   3.548   0.516   2.731  0.1926 -0.0722  0.6794
 3208SOL     OW10522   1.677   2.870   6.096 -0.0541 -0.5332  0.0557
 3208SOL    HW110523   1.754   2.868   6.033 -0.6225 -1.3284 -0.6320
 3208SOL    HW210524   1.604   2.810   6.063  0.4641 -2.7341  2.5351
 3209SOL     OW10525   4.921   0.646   4.859 -0.3234 -0.0243  0.5854
 3209SOL    HW110526   4.913   0.634   4.760 -0.0121  1.0466  0.4142
 3209SOL    HW210527   4.942   0.558   4.901 -1.1199 -0.6203 -0.2191
 3210SOL     OW10528   5.837   5.219   3.786  0.0729 -0.0426  0.5542
 3210SOL    HW110529   5.916   5.271   3.753  0.3943 -0.5470  0.5114
 3210SOL    HW210530   5.775   5.201   3.710  1.4769 -2.3820 -0.1327
 3211SOL     OW10531   0.754   6.752   5.665  0.4414 -0.1572 -0.0799
 3211SOL    HW110532   0.757   6.818   5.740  1.0297  0.9545 -1.0667
 3211SOL    HW210533   0.812   6.674   5.688  1.1150  0.4572  0.3624
 3212SOL     OW10534   4.450   0.378   3.235  0.1579 -0.1070  0.1322
 3212SOL    HW110535   4.365   0.353   3.188 -0.3122  0.9516  0.3975
 3212SOL    HW210536   4.467   0.312   3.308 -0.5142 -0.2428  0.1777
 3213SOL     OW10537   1.487   5.928   6.018  0.2871 -0.0708  0.1431
 3213SOL    HW110538   1.418   5.995   6.047 -0.0530 -0.4477  0.2139
 3213SOL    HW210539   1.577   5.972   6.016  0.0142  0.4858 -0.1739
 3214SOL     OW10540   3.151   6.832   3.714 -0.5689 -0.0331 -0.3073
 3214SOL    HW110541   3.247   6.813   3.694 -0.6805 -0.1098 -0.7996
 3214SOL    HW210542   3.138   6.843   3.812  0.3939  2.4308 -0.3781
 3215SOL     OW10543   2.180   2.984   0.691  0.4297  0.2829 -0.1516
 3215SOL    HW110544   2.139   3.013   0.605  0.8553  1.0641 -0.0986
 3215SOL    HW210545   2.275   2.957   0.675 -0.1180 -1.7278 -0.3151
 3216SOL     OW10546   5.656   4.353   3.824 -0.1431  0.0341  0.5388
 3216SOL    HW110547   5.589   4.292   3.865 -1.2807  1.6356  1.1664
 3216SOL    HW210548   5.710   4.303   3.757 -1.9427 -1.3395  0.0386
 3217SOL     OW10549   5.044   6.050   4.439  0.3190 -0.4031 -0.3930
 3217SOL    HW110550   5.015   6.127   4.382  0.4165  1.5674  2.0839
 3217SOL    HW210551   5.126   6.075   4.490 -0.0292 -1.9139  0.9771
 3218SOL     OW10552   6.066   2.915   2.412  0.8410 -0.2811  0.0993
 3218SOL    HW110553   5.996   2.955   2.352 -0.2040 -1.7976  0.2435
 3218SOL    HW210554   6.022   2.856   2.479  1.9117  1.7390  2.7559
 3219SOL     OW10555   4.673   1.936   3.691  0.1065 -0.6712 -0.0118
 3219SOL    HW110556   4.691   1.845   3.656 -1.0488 -0.8518 -0.1980
 3219SOL    HW210557   4.738   2.001   3.652  1.6277 -1.5648  0.9603
 3220SOL     OW10558   1.619   3.327   3.239 -0.3482  0.2940 -0.1958
 3220SOL    HW110559   1.687   3.366   3.300 -0.1229  0.1135 -0.3314
 3220SOL    HW210560   1.582   3.243   3.279 -0.7897  0.6071  0.0681
 3221SOL     OW10561   3.002   1.990   1.704 -0.4871 -0.1147  0.1151
 3221SOL    HW110562   3.052   2.073   1.728 -1.6707  1.2324 -1.7716
 3221SOL    HW210563   3.055   1.910   1.730  0.5779  1.1989  2.2476
 3222SOL     OW10564   3.029   1.479   2.796 -0.1418  0.3695 -0.3988
 3222SOL    HW110565   3.086   1.549   2.753 -1.9314  1.6630 -0.7958
 3222SOL    HW210566   3.086   1.401   2.824  1.8451  1.7596 -0.3754
 3223SOL     OW10567   1.146   3.961   0.622 -0.1634 -0.6592 -0.4706
 3223SOL    HW110568   1.048   3.944   0.608  0.0700 -0.6967 -2.2675
 3223SOL    HW210569   1.197   3.927   0.544  1.5366 -2.4497  1.3159
 3224SOL     OW10570   5.812   1.946   4.486 -0.2810 -0.4690 -0.0217
 3224SOL    HW110571   5.898   1.996   4.472 -0.0961  0.0357  2.4907
 3224SOL    HW210572   5.745   2.007   4.528 -1.9191 -0.8701 -1.9118
 3225SOL     OW10573   1.243   0.332   3.731  0.2170 -0.8838  0.1368
 3225SOL    HW110574   1.285   0.259   3.678 -0.2133 -0.7403 -0.4094
 3225SOL    HW210575   1.146   0.312   3.745 -0.2858  0.2802 -1.3209
 3226SOL     OW10576   5.879   0.773   6.853 -0.7725  0.6849 -0.6055
 3226SOL    HW110577   5.976   0.762   6.874 -0.8339 -0.3515 -0.8106
 3226SOL    HW210578   5.864   0.756   6.755 -1.4179 -1.0764 -0.2269
 3227SOL     OW10579   5.621   2.417   6.552  0.0887 -0.6694 -0.2017
 3227SOL    HW110580   5.545   2.425   6.617  0.4919 -1.9038  0.4473
 3227SOL    HW210581   5.703   2.386   6.600  1.4997  2.1483 -0.5776
 3228SOL     OW10582   1.341   5.245   6.840  0.1825 -0.1986  0.3480
 3228SOL    HW110583   1.387   5.286   6.919  1.9208 -1.3411 -0.0183
 3228SOL    HW210584   1.403   5.248   6.761 -0.6688 -1.1292 -0.3649
 3229SOL     OW10585   1.119   1.114   5.762 -0.3808  0.4216 -0.6733
 3229SOL    HW110586   1.029   1.154   5.777 -0.7449 -1.1387  1.9062
 3229SOL    HW210587   1.110   1.032   5.704 -0.7394 -0.0426  0.0212
 3230SOL     OW10588   2.100   5.802   6.506  0.5373  0.2816  0.1168
 3230SOL    HW110589   2.039   5.879   6.527  0.3715 -0.0917  1.0534
 3230SOL    HW210590   2.099   5.785   6.408  0.4023  1.3327 -0.0849
 3231SOL     OW10591   2.980   2.053   3.417 -0.7940  0.5600  0.4315
 3231SOL    HW110592   2.899   1.998   3.439 -0.6957  0.6625  1.0664
 3231SOL    HW210593   2.963   2.103   3.332 -1.0541 -0.1006  0.0783
 3232SOL     OW10594   3.869   5.835   4.505 -0.3920 -0.2570 -0.6596
 3232SOL    HW110595   3.945   5.893   4.474  0.1165 -0.4079  0.2713
 3232SOL    HW210596   3.788   5.892   4.519  0.1173  0.2563  0.3109
 3233SOL     OW10597   2.827   5.094   5.280 -0.2069  0.1091 -0.2123
 3233SOL    HW110598   2.860   5.001   5.262  0.5635  0.3946 -0.3195
 3233SOL    HW210599   2.739   5.090   5.327 -1.4772 -0.6772 -2.5329
 3234SOL     OW10600   3.432   4.154   1.024  0.4428  0.3949  0.1270
 3234SOL    HW110601   3.382   4.241   1.026  0.3201  0.3270  0.0528
 3234SOL    HW210602   3.492   4.151   0.944  0.9223  0.6733  0.4716
 3235SOL     OW10603   6.056   2.076   2.101  0.8158  0.5763 -0.4216
 3235SOL    HW110604   6.141   2.083   2.152  1.2209  1.4757 -1.1780
 3235SOL    HW210605   5.989   2.141   2.138 -0.5696 -2.0113  1.9657
 3236SOL     OW10606   0.407   5.823   0.309  0.1883  0.2694  0.4390
 3236SOL    HW110607   0.480   5.757   0.331  1.6435  1.5602 -0.2904
 3236SOL    HW210608   0.418   5.904   0.367 -0.8911  0.3513  0.5386
 3237SOL     OW10609   5.816   2.920   5.526  0.2164 -0.2215 -0.2621
 3237SOL    HW110610   5.832   2.991   5.595  1.2407 -1.6295  1.0309
 3237SOL    HW210611   5.722   2.927   5.492  0.6962  2.6155 -1.2645
 3238SOL     OW10612   6.901   3.781   6.617 -0.2479  0.2722 -0.1510
 3238SOL    HW110613   6.940   3.813   6.530 -0.3168 -0.8020 -0.5921
 3238SOL    HW210614   6.806   3.755   6.603  0.2136 -1.5458 -0.1880
 3239SOL     OW10615   6.405   1.666   3.889 -0.3119  0.4691 -0.0150
 3239SOL    HW110616   6.430   1.695   3.982  0.4219  0.4970 -0.2133
 3239SOL    HW210617   6.337   1.729   3.851 -1.1192  0.0825  0.7444
 3240SOL     OW10618   6.282   0.153   2.365 -0.3262 -0.1974  0.5847
 3240SOL    HW110619   6.269   0.189   2.457 -1.3133  1.9391 -0.3271
 3240SOL    HW210620   6.202   0.176   2.309  0.8601 -0.2148 -1.1705
 3241SOL     OW10621   4.748   3.373   5.499  0.0285 -0.1021  0.5485
 3241SOL    HW110622   4.746   3.303   5.427  1.9085 -1.4466  1.7278
 3241SOL    HW210623   4.791   3.456   5.463 -1.5573  0.2444 -0.6499
 3242SOL     OW10624   1.681   4.645   5.466  0.0915  0.0143 -0.6183
 3242SOL    HW110625   1.603   4.655   5.405  1.2383  1.3170 -1.9196
 3242SOL    HW210626   1.761   4.689   5.427  1.2479 -0.3703  1.1702
 3243SOL     OW10627   5.419   5.885   4.301 -0.4504 -0.2146  0.2202
 3243SOL    HW110628   5.507   5.857   4.261  0.0583  0.7057  0.6722
 3243SOL    HW210629   5.378   5.807   4.347 -0.4373 -0.9660 -0.9827
 3244SOL     OW10630   3.006   6.388   6.072  0.5884  0.7122  0.4918
 3244SOL    HW110631   3.060   6.429   5.999  2.2891 -0.0207  1.2939
 3244SOL    HW210632   2.909   6.407   6.057  0.7250 -0.6186 -2.7167
 3245SOL     OW10633   1.083   4.472   5.533  0.8801 -0.3114 -0.4794
 3245SOL    HW110634   1.068   4.387   5.582 -0.7381 -0.3613 -0.9904
 3245SOL    HW210635   0.999   4.498   5.486  1.0970  1.9623  0.2687
 3246SOL     OW10636   6.360   5.235   3.430  0.2943  0.0249 -0.3516
 3246SOL    HW110637   6.439   5.288   3.460  1.1334 -1.4512  0.1377
 3246SOL    HW210638   6.315   5.194   3.509  0.9728 -1.7664 -0.8475
 3247SOL     OW10639   2.457   4.415   6.885 -0.2581  0.2117  0.6526
 3247SOL    HW110640   2.366   4.449   6.909 -1.5091 -1.1111 -1.7592
 3247SOL    HW210641   2.467   4.321   6.919 -0.2805 -0.0512 -0.0410
 3248SOL     OW10642   6.489   2.779   5.067  0.6593  0.1980  0.6485
 3248SOL    HW110643   6.549   2.845   5.113 -0.8065  1.8989  0.2482
 3248SOL    HW210644   6.445   2.720   5.136  0.0434  1.3642  1.2889
 3249SOL     OW10645   3.732   3.278   3.968 -0.3228 -0.0423 -0.1485
 3249SOL    HW110646   3.824   3.243   3.991 -0.6322 -0.6795  0.1607
 3249SOL    HW210647   3.729   3.303   3.871  0.7562  1.8774  0.2621
 3250SOL     OW10648   5.170   4.850   3.172 -0.1627 -1.0945  0.6297
 3250SOL    HW110649   5.093   4.897   3.214  1.0568  0.2258  1.4844
 3250SOL    HW210650   5.191   4.893   3.084 -0.2257 -1.2660  0.5312
 3251SOL     OW10651   3.576   1.123   3.287  0.0650 -0.2273 -0.2447
 3251SOL    HW110652   3.647   1.055   3.271  1.3765  0.9480  0.3723
 3251SOL    HW210653   3.495   1.079   3.325  1.1445 -1.3364  0.8395
 3252SOL     OW10654   2.744   0.115   4.018  0.3369 -0.5514  1.1171
 3252SOL    HW110655   2.809   0.183   4.052  0.6696 -1.2353  1.8825
 3252SOL    HW210656   2.794   0.038   3.978 -0.0330 -0.4275  0.4107
 3253SOL     OW10657   4.679   3.921   0.653  0.4234  0.0370  0.2810
 3253SOL    HW110658   4.760   3.863   0.663  0.7475  0.2630 -0.8456
 3253SOL    HW210659   4.641   3.942   0.743  0.1371 -2.1380  0.7254
 3254SOL     OW10660   4.008   0.611   0.190 -0.1454 -0.4732  0.0338
 3254SOL    HW110661   3.927   0.591   0.136 -1.7035  0.9869  1.7145
 3254SOL    HW210662   3.981   0.651   0.278  2.1457 -3.6297  2.4359
 3255SOL     OW10663   1.885   4.841   2.472  0.1432  0.0739 -0.3053
 3255SOL    HW110664   1.812   4.797   2.524 -0.0155  1.0326  0.3081
 3255SOL    HW210665   1.946   4.771   2.434  0.8150 -0.6605  1.9573
 3256SOL     OW10666   5.477   3.183   2.597 -0.3502 -0.3024  0.5513
 3256SOL    HW110667   5.431   3.177   2.508  0.5021  3.3793 -0.2984
 3256SOL    HW210668   5.412   3.158   2.670 -1.3376 -2.4498 -0.9546
 3257SOL     OW10669   3.215   2.118   2.411 -0.0471 -0.4683 -0.4123
 3257SOL    HW110670   3.206   2.081   2.504  1.4991 -1.1617 -0.4985
 3257SOL    HW210671   3.200   2.044   2.345 -0.7666 -0.0596 -0.7129
 3258SOL     OW10672   0.327   4.876   4.669 -0.6521  0.2253 -0.1348
 3258SOL    HW110673   0.326   4.843   4.574  0.8260 -1.2003  0.3102
 3258SOL    HW210674   0.235   4.869   4.708 -1.2632  0.7529 -1.4073
 3259SOL     OW10675   1.236   6.462   3.183  0.4386 -0.6955  0.2396
 3259SOL    HW110676   1.224   6.363   3.174 -1.0454 -0.5610  0.4976
 3259SOL    HW210677   1.168   6.509   3.126  1.3359  0.1866 -0.1324
 3260SOL     OW10678   2.895   5.120   4.248  0.3197  0.2396  0.1902
 3260SOL    HW110679   2.930   5.214   4.245  0.4268  0.1876 -0.5216
 3260SOL    HW210680   2.822   5.110   4.180 -0.6679  0.1779  1.2243
 3261SOL     OW10681   5.692   1.041   3.727 -0.0554 -0.6610  0.5809
 3261SOL    HW110682   5.747   1.068   3.806 -1.2761  1.5236  0.7781
 3261SOL    HW210683   5.600   1.018   3.757 -0.1280 -1.2328 -0.0640
 3262SOL     OW10684   3.042   6.374   2.611 -0.2972 -0.2669  0.1208
 3262SOL    HW110685   3.051   6.405   2.516 -2.5982 -1.9532 -0.7567
 3262SOL    HW210686   3.004   6.281   2.612  1.2726 -0.9830  2.6935
 3263SOL     OW10687   6.222   0.346   5.953 -0.3097 -0.1325  0.1630
 3263SOL    HW110688   6.316   0.342   5.918  0.1304  0.4536  1.2504
 3263SOL    HW210689   6.205   0.269   6.014 -1.4309 -1.7834 -2.0747
 3264SOL     OW10690   1.877   6.243   0.176 -0.1929 -0.3310 -0.2141
 3264SOL    HW110691   1.838   6.331   0.150  2.0175  0.1658 -2.2122
 3264SOL    HW210692   1.940   6.255   0.252  2.2416  0.4865 -2.1953
 3265SOL     OW10693   6.042   5.058   4.720  0.4038 -0.3056 -0.5442
 3265SOL    HW110694   6.100   4.978   4.735  0.5586  0.1244  1.3906
 3265SOL    HW210695   6.097   5.141   4.722 -0.2881  0.2125  2.5114
 3266SOL     OW10696   3.289   5.203   0.622  0.6626 -0.4766 -0.0394
 3266SOL    HW110697   3.295   5.104   0.633 -1.0326 -0.5362  0.6545
 3266SOL    HW210698   3.285   5.246   0.713 -0.7006  0.0376 -0.3107
 3267SOL     OW10699   1.004   1.224   1.465  0.2001 -0.2148 -0.2456
 3267SOL    HW110700   0.991   1.256   1.559  1.1734 -1.5545  0.3797
 3267SOL    HW210701   1.081   1.272   1.424  0.6906 -0.6533  0.1527
 3268SOL     OW10702   5.720   4.478   3.004 -0.0989  0.5132 -0.6364
 3268SOL    HW110703   5.739   4.576   2.994  0.9214  0.4437  0.3129
 3268SOL    HW210704   5.760   4.428   2.927  1.1804  0.6604 -0.0911
 3269SOL     OW10705   6.934   6.299   5.588 -0.2498 -0.2560  0.4282
 3269SOL    HW110706   6.945   6.200   5.584 -0.3521 -0.3065  1.3000
 3269SOL    HW210707   6.838   6.322   5.569 -0.2102 -0.3109  0.1493
 3270SOL     OW10708   3.370   4.380   0.700 -0.3956 -0.2725  0.1035
 3270SOL    HW110709   3.397   4.476   0.699  0.4381 -0.3925 -3.3632
 3270SOL    HW210710   3.443   4.326   0.742  1.1273  0.2777 -1.6628
 3271SOL     OW10711   6.855   5.040   1.493 -0.7662 -0.2485 -0.2706
 3271SOL    HW110712   6.908   4.961   1.462  1.5677  1.4367 -0.7976
 3271SOL    HW210713   6.798   5.013   1.570  0.1109 -2.3825 -0.2915
 3272SOL     OW10714   1.951   0.694   0.401  0.2387  0.1522  0.0764
 3272SOL    HW110715   2.020   0.661   0.466 -0.2556  0.5216  0.7995
 3272SOL    HW210716   1.867   0.717   0.450 -0.2646  0.1031 -0.7434
 3273SOL     OW10717   4.464   2.891   6.113  0.0172 -0.6064 -0.9065
 3273SOL    HW110718   4.560   2.915   6.128  0.0348 -1.4972  0.6228
 3273SOL    HW210719   4.425   2.854   6.197 -1.1495 -2.0588 -2.0296
 3274SOL     OW10720   5.061   0.063   0.941  0.3010  0.2239  0.5474
 3274SOL    HW110721   4.994  -0.004   0.974 -0.7355  0.7363 -0.4423
 3274SOL    HW210722   5.019   0.120   0.870  1.9718  0.1319 -0.5791
 3275SOL     OW10723   3.090   5.122   1.022 -0.2830  0.5448 -0.0247
 3275SOL    HW110724   3.129   5.089   1.108  0.4265  1.5279  0.0516
 3275SOL    HW210725   3.164   5.139   0.957 -0.8838 -1.3471 -1.2794
 3276SOL     OW10726   5.531   5.736   6.703  0.4196  0.6006 -0.6245
 3276SOL    HW110727   5.545   5.802   6.629  1.0773  0.6842 -0.4345
 3276SOL    HW210728   5.599   5.753   6.775 -0.2202  0.5311  0.0019
 3277SOL     OW10729   4.791   0.448   3.008 -0.1484 -0.7589 -0.1243
 3277SOL    HW110730   4.748   0.481   2.924 -0.7811  0.9590  0.8337
 3277SOL    HW210731   4.831   0.525   3.057 -0.8007 -1.5516  1.7215
 3278SOL     OW10732   4.071   1.076   6.837 -0.1337 -0.0855  0.5623
 3278SOL    HW110733   3.985   1.039   6.872  0.4747 -0.4795  1.6725
 3278SOL    HW210734   4.105   1.017   6.764 -2.7853  2.1539 -2.8323
 3279SOL     OW10735   3.300   2.586   1.769  0.4404 -0.1025  0.4155
 3279SOL    HW110736   3.351   2.509   1.732 -0.0898 -0.5615  0.6210
 3279SOL    HW210737   3.361   2.644   1.823  1.1326  0.3636 -0.8295
 3280SOL     OW10738   0.515   1.160   4.057  0.6492 -0.2296  0.1876
 3280SOL    HW110739   0.590   1.159   4.123  0.8743  1.2074 -0.0122
 3280SOL    HW210740   0.498   1.254   4.028 -0.2680 -0.7043 -0.8685
 3281SOL     OW10741   5.619   2.802   1.699 -0.6151  0.0514 -0.2930
 3281SOL    HW110742   5.629   2.718   1.753 -1.0345  0.3622  0.2717
 3281SOL    HW210743   5.522   2.822   1.687 -0.5296 -0.0092 -1.1637
 3282SOL     OW10744   5.494   4.303   6.732 -0.6446 -0.3733 -0.0109
 3282SOL    HW110745   5.592   4.322   6.746 -1.3263  2.0488  2.4259
 3282SOL    HW210746   5.459   4.364   6.661 -0.9884  1.2296  1.4676
 3283SOL     OW10747   2.327   1.007   1.816  0.1571  0.2010 -0.0009
 3283SOL    HW110748   2.312   1.024   1.913 -0.7727  1.0081 -0.2560
 3283SOL    HW210749   2.407   1.057   1.785 -0.1194  0.7494  0.1526
 3284SOL     OW10750   1.013   0.918   5.591 -0.0855 -0.6437 -0.9012
 3284SOL    HW110751   1.084   0.861   5.549 -0.7367 -1.6705 -0.6229
 3284SOL    HW210752   0.946   0.945   5.521 -0.1320 -0.7552 -0.8991
 3285SOL     OW10753   3.816   2.192   5.183 -0.2256  0.4835 -0.0863
 3285SOL    HW110754   3.719   2.203   5.206 -0.3612 -0.3743 -0.1960
 3285SOL    HW210755   3.870   2.264   5.227 -1.2046  2.6743 -2.2270
 3286SOL     OW10756   0.803   4.003   3.104 -0.1328 -0.4484 -0.3703
 3286SOL    HW110757   0.797   3.996   3.203  0.4353  0.8565 -0.2250
 3286SOL    HW210758   0.715   4.032   3.066 -0.2707 -0.6728 -0.2204
 3287SOL     OW10759   2.324   6.247   1.724  0.3179 -0.4856  0.0983
 3287SOL    HW110760   2.339   6.168   1.783  1.1907 -2.8229 -2.9409
 3287SOL    HW210761   2.409   6.269   1.676 -0.4418  0.9678 -0.6441
 3288SOL     OW10762   3.538   4.921   3.169  0.1612 -0.0818 -0.3322
 3288SOL    HW110763   3.630   4.907   3.133  1.3076 -0.9087  2.5859
 3288SOL    HW210764   3.536   4.894   3.265 -2.4031  2.6180  0.5381
 3289SOL     OW10765   5.670   4.810   6.445  0.1468 -0.0291 -0.0898
 3289SOL    HW110766   5.727   4.752   6.503  0.2512 -0.0869 -0.2520
 3289SOL    HW210767   5.576   4.774   6.444 -0.3789  1.1147  1.7062
 3290SOL     OW10768   1.136   3.375   6.101 -0.0239  0.0609 -0.4210
 3290SOL    HW110769   1.156   3.437   6.177 -1.1197  0.0521 -0.1093
 3290SOL    HW210770   1.075   3.421   6.036 -1.4115 -0.8942  0.1556
 3291SOL     OW10771   5.490   6.251   5.242 -0.1407 -0.1444  0.1506
 3291SOL    HW110772   5.431   6.279   5.318 -0.4699  0.4374 -0.3109
 3291SOL    HW210773   5.561   6.320   5.228  0.6208 -0.8038  0.6551
 3292SOL     OW10774   1.057   2.303   6.722 -0.4896  0.6808  0.0135
 3292SOL    HW110775   1.026   2.210   6.705 -1.6948  1.3057 -1.3692
 3292SOL    HW210776   1.157   2.304   6.729 -0.5277 -0.8945  1.4379
 3293SOL     OW10777   6.389   4.817   3.761 -0.6818  0.8010  0.5205
 3293SOL    HW110778   6.393   4.760   3.843 -0.5086 -0.5817 -0.4043
 3293SOL    HW210779   6.480   4.823   3.720 -1.1949 -0.8239 -1.0216
 3294SOL     OW10780   3.463   3.860   4.315 -0.5404  0.2750  0.4555
 3294SOL    HW110781   3.523   3.875   4.236 -1.4965 -1.3559 -0.6365
 3294SOL    HW210782   3.399   3.937   4.323  1.9870  2.3748  2.0203
 3295SOL     OW10783   1.261   3.904   3.706 -0.4897 -0.6570 -0.3226
 3295SOL    HW110784   1.281   3.986   3.652 -0.8740 -1.0222 -1.0394
 3295SOL    HW210785   1.167   3.875   3.688 -1.2848  0.2621  1.9633
 3296SOL     OW10786   1.866   1.524   1.004  0.3346  0.0959 -0.2007
 3296SOL    HW110787   1.796   1.592   1.026  1.7964  1.2467  1.1918
 3296SOL    HW210788   1.906   1.546   0.914  0.5068  0.8492  0.0508
 3297SOL     OW10789   2.256   1.216   6.626 -0.0735  0.2558 -0.5875
 3297SOL    HW110790   2.325   1.215   6.554  2.3507 -1.4204  1.5499
 3297SOL    HW210791   2.256   1.127   6.673 -0.7913  1.5587  2.0939
 3298SOL     OW10792   4.989   4.707   5.378 -0.1384 -0.1684 -0.1736
 3298SOL    HW110793   4.987   4.767   5.458 -0.8441 -0.0391 -0.2774
 3298SOL    HW210794   4.895   4.692   5.346  0.0159 -1.3326 -0.1440
 3299SOL     OW10795   3.137   1.314   2.577  0.0989 -0.0672 -0.5309
 3299SOL    HW110796   3.114   1.234   2.632  1.4943 -0.2315 -0.1411
 3299SOL    HW210797   3.054   1.364   2.554 -0.7031 -1.1183 -0.0031
 3300SOL     OW10798   2.117   0.544   3.991 -0.2993 -0.4610 -0.9192
 3300SOL    HW110799   2.194   0.575   3.935  0.4407  1.1543  0.9067
 3300SOL    HW210800   2.112   0.599   4.074 -1.9914 -2.1247  0.1391
 3301SOL     OW10801   1.581   0.262   1.160 -0.5254  0.1975  0.2521
 3301SOL    HW110802   1.534   0.278   1.247 -1.3324  3.4648 -0.6464
 3301SOL    HW210803   1.680   0.266   1.174 -0.6522  0.7013  1.0367
 3302SOL     OW10804   0.753   4.335   4.231  0.2431  0.2774 -0.9085
 3302SOL    HW110805   0.762   4.238   4.208  0.2449  0.7569 -3.1309
 3302SOL    HW210806   0.818   4.388   4.177  1.2103  1.4351  1.2595
 3303SOL     OW10807   4.560   4.502   0.576 -0.1627  0.6293 -0.3649
 3303SOL    HW110808   4.647   4.455   0.565 -0.9689 -0.9200 -0.4003
 3303SOL    HW210809   4.565   4.593   0.533  1.0239  0.0608 -1.4986
 3304SOL     OW10810   1.255   3.760   0.958 -0.5990  0.3054  0.1478
 3304SOL    HW110811   1.319   3.743   0.883  0.1136  0.4385  0.7147
 3304SOL    HW210812   1.227   3.856   0.957  3.0053  1.6241  2.7033
 3305SOL     OW10813   1.761   0.829   0.554 -0.7074  0.0751 -0.1239
 3305SOL    HW110814   1.776   0.879   0.469  1.2103  0.9884  0.6832
 3305SOL    HW210815   1.676   0.860   0.597  0.0719  2.2323  0.0012
 3306SOL     OW10816   2.273   0.339   1.183 -0.0535  0.4773 -0.6299
 3306SOL    HW110817   2.308   0.311   1.094  2.0418 -0.5608  0.4102
 3306SOL    HW210818   2.226   0.261   1.226  0.8598  0.2523  0.0069
 3307SOL     OW10819   1.530   5.337   5.813  0.2714  0.2633  0.3227
 3307SOL    HW110820   1.630   5.347   5.815  0.0668  2.8241  1.9065
 3307SOL    HW210821   1.501   5.275   5.887  0.6366  0.0420  0.2822
 3308SOL     OW10822   5.583   5.804   3.136  0.7354  0.0726  0.3798
 3308SOL    HW110823   5.519   5.881   3.137  2.6537  1.7650 -0.1468
 3308SOL    HW210824   5.605   5.777   3.230  0.4756  0.5440  0.5776
 3309SOL     OW10825   6.319   3.099   4.696 -0.2216 -0.2991 -0.0685
 3309SOL    HW110826   6.320   3.053   4.785  0.0162 -0.8703 -0.3630
 3309SOL    HW210827   6.408   3.089   4.652  0.0812  1.1055  0.1858
 3310SOL     OW10828   0.508   4.832   6.505  0.2202  0.0441 -0.0682
 3310SOL    HW110829   0.491   4.734   6.518  0.5575 -0.3110 -2.0578
 3310SOL    HW210830   0.538   4.872   6.592 -1.8930 -1.1517  1.3140
 3311SOL     OW10831   0.929   2.657   0.436  0.2270  0.5807  0.3136
 3311SOL    HW110832   0.925   2.665   0.536  1.8076  2.6867  0.2656
 3311SOL    HW210833   1.006   2.598   0.411  0.4360  0.8452  0.3291
 3312SOL     OW10834   5.578   4.982   2.451 -0.3999 -0.0678 -0.0589
 3312SOL    HW110835   5.539   4.905   2.400 -0.3317  1.9441 -3.4347
 3312SOL    HW210836   5.512   5.057   2.454 -0.1702  0.0985  2.4438
 3313SOL     OW10837   1.988   0.096   4.352 -0.5553 -0.4185  0.3957
 3313SOL    HW110838   1.920   0.023   4.341 -0.2408 -0.7441  0.6174
 3313SOL    HW210839   1.942   0.185   4.344 -0.9794 -0.6362  0.3695
 3314SOL     OW10840   3.833   5.599   2.048 -0.1786  0.1475 -0.4343
 3314SOL    HW110841   3.801   5.540   1.974  0.1895  0.7739 -1.0994
 3314SOL    HW210842   3.932   5.604   2.046 -0.1033 -0.5836  0.6952
 3315SOL     OW10843   1.629   4.073   3.972  0.4189  0.7590  0.5331
 3315SOL    HW110844   1.533   4.048   3.959  0.6765 -1.1455  1.8521
 3315SOL    HW210845   1.635   4.163   4.014 -0.8591  0.4664  1.3945
 3316SOL     OW10846   3.039   1.063   1.146 -0.4021  0.3191 -0.1392
 3316SOL    HW110847   3.024   1.012   1.231 -1.4810 -1.7586 -1.5095
 3316SOL    HW210848   3.098   1.141   1.165  0.3757 -0.7536  2.2968
 3317SOL     OW10849   5.120   1.174   6.601  0.0568  0.4346  0.8800
 3317SOL    HW110850   5.111   1.096   6.540 -0.9017 -0.0395  1.5988
 3317SOL    HW210851   5.146   1.143   6.692 -0.1244  0.9615  1.1197
 3318SOL     OW10852   4.398   3.141   1.058  0.0212  0.4352  0.0452
 3318SOL    HW110853   4.404   3.066   0.992  0.1242  0.3542  0.1464
 3318SOL    HW210854   4.391   3.104   1.151 -0.5780  0.5444  0.0475
 3319SOL     OW10855   4.917   6.868   5.045 -0.5042  0.0604 -0.1907
 3319SOL    HW110856   4.946   6.781   5.006 -1.3632 -1.0760  1.5835
 3319SOL    HW210857   4.970   6.887   5.128  0.0397  1.5354 -0.8246
 3320SOL     OW10858   5.826   1.970   4.158  0.1141 -0.1584 -0.2673
 3320SOL    HW110859   5.811   1.959   4.256 -0.7085  1.8975 -0.0979
 3320SOL    HW210860   5.749   1.931   4.107  0.8258 -1.7692 -0.1686
 3321SOL     OW10861   5.030   0.930   5.558  0.0193 -0.4762  0.1861
 3321SOL    HW110862   4.966   1.008   5.558 -0.0203 -0.4945  1.3702
 3321SOL    HW210863   5.112   0.954   5.610  0.3447 -0.9649 -0.0932
 3322SOL     OW10864   4.896   4.581   2.504  0.3689  0.4671  0.0121
 3322SOL    HW110865   4.884   4.561   2.407  1.2179 -0.0698  0.0141
 3322SOL    HW210866   4.906   4.495   2.555  0.0578  0.7490  0.5586
 3323SOL     OW10867   0.522   0.139   1.558  0.9127  0.8325 -0.5817
 3323SOL    HW110868   0.544   0.167   1.652 -1.0776 -0.2413  0.2728
 3323SOL    HW210869   0.427   0.161   1.538  0.4330 -1.5268 -1.2664
 3324SOL     OW10870   6.920   6.030   5.550 -0.2850 -0.1833  0.3029
 3324SOL    HW110871   6.832   6.026   5.503 -0.2274 -0.6554  0.2294
 3324SOL    HW210872   6.994   6.015   5.484 -0.1237  0.6692  0.2848
 3325SOL     OW10873   2.491   0.161   0.714 -0.1080 -0.5706  0.4039
 3325SOL    HW110874   2.470   0.065   0.732 -0.1509 -0.3124  1.8896
 3325SOL    HW210875   2.474   0.182   0.618 -2.2788 -1.5057  0.5191
 3326SOL     OW10876   3.096   0.037   2.647 -0.1274  0.1763 -0.4253
 3326SOL    HW110877   3.058   0.106   2.586  0.6748  0.8438 -0.1900
 3326SOL    HW210878   3.138   0.082   2.727  1.7411 -0.4503 -0.9946
 3327SOL     OW10879   1.545   0.451   6.972 -0.3219  0.5791  0.5672
 3327SOL    HW110880   1.575   0.528   6.916  0.3218  2.0260  2.7411
 3327SOL    HW210881   1.563   0.365   6.924 -0.1504  1.7210 -1.5264
 3328SOL     OW10882   5.783   2.711   5.934  0.5002 -0.2517  0.0216
 3328SOL    HW110883   5.823   2.772   6.002 -0.4244 -0.9509  1.2463
 3328SOL    HW210884   5.715   2.652   5.978 -0.4712 -0.4155 -1.6129
 3329SOL     OW10885   6.853   6.689   5.356 -0.5778 -0.1486 -0.1408
 3329SOL    HW110886   6.893   6.671   5.266  0.6439 -0.6225  0.4693
 3329SOL    HW210887   6.925   6.720   5.418 -1.3043 -0.3489  0.8190
 3330SOL     OW10888   5.858   3.680   4.622  0.2263  0.2242 -0.0074
 3330SOL    HW110889   5.912   3.639   4.696  2.2204  2.6722  0.0378
 3330SOL    HW210890   5.823   3.769   4.652 -0.6781  0.3501 -1.3423
 3331SOL     OW10891   1.656   3.751   1.829 -0.0643  0.4096  0.4772
 3331SOL    HW110892   1.631   3.720   1.737 -0.8967 -0.7697  1.0903
 3331SOL    HW210893   1.720   3.686   1.870 -0.8252  0.1525  1.2806
 3332SOL     OW10894   6.743   3.676   2.757  0.2811  0.0240  0.4649
 3332SOL    HW110895   6.697   3.636   2.677 -0.7062 -1.3999  1.6906
 3332SOL    HW210896   6.841   3.683   2.740  0.0680 -0.1237 -0.9075
 3333SOL     OW10897   2.921   5.005   5.625 -0.2361  0.3961  0.1070
 3333SOL    HW110898   2.824   4.983   5.612  0.0843 -0.9817 -0.1476
 3333SOL    HW210899   2.974   4.967   5.549  0.5576  0.7570  0.4670
 3334SOL     OW10900   1.998   4.278   1.622 -0.6967  0.1553 -0.1270
 3334SOL    HW110901   1.970   4.348   1.557 -1.3648  0.5565  0.5809
 3334SOL    HW210902   1.924   4.212   1.636 -0.8803  0.5538  0.8628
 3335SOL     OW10903   6.383   2.828   6.545  0.0481 -0.2706  0.2326
 3335SOL    HW110904   6.414   2.914   6.502  0.2558 -0.5082 -0.0967
 3335SOL    HW210905   6.420   2.823   6.638  1.2379 -0.6686 -0.2392
 3336SOL     OW10906   1.599   6.867   4.458  0.2827  0.4464 -0.0382
 3336SOL    HW110907   1.596   6.805   4.537  0.2078 -0.1461 -0.4989
 3336SOL    HW210908   1.513   6.916   4.451  0.2321  0.3898  0.1620
 3337SOL     OW10909   4.014   1.295   0.652 -0.1561 -0.2285 -0.0956
 3337SOL    HW110910   3.919   1.296   0.684 -0.4313  1.2091 -0.8783
 3337SOL    HW210911   4.026   1.222   0.585 -1.5353  1.3831 -2.2398
 3338SOL     OW10912   6.784   5.917   6.498 -0.4428  0.4932  1.0131
 3338SOL    HW110913   6.708   5.886   6.556 -1.7481 -0.7533 -1.1843
 3338SOL    HW210914   6.763   6.007   6.461  0.5754  1.4659  2.7193
 3339SOL     OW10915   6.397   4.360   6.429 -0.0326 -0.2329 -0.1942
 3339SOL    HW110916   6.442   4.406   6.352 -2.1289  1.1222 -0.7006
 3339SOL    HW210917   6.414   4.411   6.513  0.2866 -0.3703 -0.1727
 3340SOL     OW10918   6.808   1.596   1.293 -0.2122  0.4565 -0.1707
 3340SOL    HW110919   6.826   1.694   1.304 -1.9483  0.7953 -0.0459
 3340SOL    HW210920   6.845   1.547   1.372 -2.0301  1.4258  1.3746
 3341SOL     OW10921   0.669   6.771   0.355 -0.0772 -0.2223 -0.3079
 3341SOL    HW110922   0.658   6.866   0.328 -2.5191  0.1339  1.5608
 3341SOL    HW210923   0.755   6.759   0.404  0.1473  1.0505 -0.3680
 3342SOL     OW10924   3.401   0.573   3.298  0.4406 -0.3255 -0.0304
 3342SOL    HW110925   3.440   0.649   3.246  1.1119  0.0962  1.0362
 3342SOL    HW210926   3.460   0.493   3.291  1.1715  0.0996  1.0212
 3343SOL     OW10927   5.619   2.926   2.649 -0.4019 -0.3980  0.2526
 3343SOL    HW110928   5.671   2.928   2.563 -0.4031  0.2052  0.2657
 3343SOL    HW210929   5.577   3.015   2.665 -2.7144 -1.2761 -0.5236
 3344SOL     OW10930   0.755   3.030   0.293  0.3852  0.0090 -0.1362
 3344SOL    HW110931   0.787   3.015   0.387  2.0373 -1.3850 -0.8695
 3344SOL    HW210932   0.780   2.951   0.237 -1.4564  0.3874 -1.5451
 3345SOL     OW10933   4.247   3.510   0.334  0.0446 -0.0314  0.1949
 3345SOL    HW110934   4.256   3.416   0.366 -2.4467  0.4013  2.5883
 3345SOL    HW210935   4.338   3.548   0.316  1.1186 -2.8137 -0.8517
 3346SOL     OW10936   2.849   6.326   3.799 -0.3625 -0.3306  0.2054
 3346SOL    HW110937   2.859   6.229   3.819 -0.4670 -0.2926  0.4459
 3346SOL    HW210938   2.858   6.379   3.883 -0.3241 -0.1330  0.0786
 3347SOL     OW10939   3.946   5.842   6.115 -0.1100  0.0807 -0.3396
 3347SOL    HW110940   3.988   5.876   6.200  0.2217 -0.5124 -0.2598
 3347SOL    HW210941   3.847   5.857   6.119 -0.2158 -0.7246  0.5427
 3348SOL     OW10942   3.277   3.097   1.443  0.0295  0.5414  0.0996
 3348SOL    HW110943   3.273   3.052   1.531 -1.8466  1.4192  0.5091
 3348SOL    HW210944   3.310   3.191   1.455  0.4817  0.4376 -0.2602
 3349SOL     OW10945   5.487   2.601   6.886 -0.4886  0.1030 -0.3645
 3349SOL    HW110946   5.524   2.671   6.824 -2.7712  0.8242 -1.0432
 3349SOL    HW210947   5.404   2.636   6.929 -2.0916 -2.3900 -1.2198
 3350SOL     OW10948   1.084   2.807   2.171  0.0448  0.3112  0.0960
 3350SOL    HW110949   1.133   2.729   2.130 -0.3895 -0.7663  1.5379
 3350SOL    HW210950   0.990   2.779   2.191 -0.4103  1.5417 -0.2412
 3351SOL     OW10951   6.331   3.483   1.313 -0.4355  0.2423  0.3518
 3351SOL    HW110952   6.327   3.538   1.230  0.1868 -0.9708 -0.5146
 3351SOL    HW210953   6.380   3.533   1.384  1.0048  0.4367 -0.7360
 3352SOL     OW10954   0.073   4.117   0.251  0.4783  0.2210 -0.0953
 3352SOL    HW110955   0.122   4.203   0.270  0.6582  0.4138 -1.3960
 3352SOL    HW210956   0.096   4.085   0.160 -1.4683  0.0558 -0.5583
 3353SOL     OW10957   1.893   0.813   0.915 -0.4408  0.4589 -0.6302
 3353SOL    HW110958   1.928   0.722   0.935 -1.9662  0.0774  0.4923
 3353SOL    HW210959   1.895   0.869   0.997 -0.8560  0.9647 -0.9552
 3354SOL     OW10960   4.504   0.879   2.607 -0.3574 -0.2681  0.5922
 3354SOL    HW110961   4.437   0.844   2.672 -1.2356  0.3173  0.0347
 3354SOL    HW210962   4.467   0.872   2.514  1.0375 -1.4852  0.0856
 3355SOL     OW10963   6.870   3.013   1.378 -0.5830  0.2028  0.5763
 3355SOL    HW110964   6.908   3.105   1.395 -1.9247  0.9588 -0.3919
 3355SOL    HW210965   6.848   2.970   1.466  0.2594  0.7115  1.0508
 3356SOL     OW10966   2.407   2.368   4.743 -0.4469 -0.2529  0.4798
 3356SOL    HW110967   2.476   2.321   4.688 -0.8281  0.5187 -0.6958
 3356SOL    HW210968   2.449   2.407   4.825  0.2208 -1.0212  0.5094
 3357SOL     OW10969   3.454   6.816   3.856 -0.4186  0.2405  0.1689
 3357SOL    HW110970   3.405   6.881   3.914 -1.7940 -1.8394  1.5105
 3357SOL    HW210971   3.535   6.783   3.904 -0.4620 -0.0020  0.0806
 3358SOL     OW10972   1.547   1.844   3.688  0.7779 -0.7384  0.8380
 3358SOL    HW110973   1.507   1.789   3.762 -0.6060 -0.7401  0.1254
 3358SOL    HW210974   1.474   1.889   3.637  1.8315  0.9383  0.7467
 3359SOL     OW10975   2.436   1.098   2.736  0.3794 -0.2900  0.0862
 3359SOL    HW110976   2.365   1.163   2.762  1.2079  0.2432  1.0795
 3359SOL    HW210977   2.428   1.077   2.639 -0.2951  0.8096 -0.1106
 3360SOL     OW10978   3.010   6.830   0.277 -0.2708 -0.0750  0.1230
 3360SOL    HW110979   2.950   6.799   0.204 -0.6401 -0.0080  0.3943
 3360SOL    HW210980   2.958   6.887   0.341 -0.3724 -1.5304  1.3753
 3361SOL     OW10981   4.112   0.673   4.802  0.1096 -0.0370  0.3159
 3361SOL    HW110982   4.207   0.645   4.787  0.0121 -0.0187 -0.3796
 3361SOL    HW210983   4.099   0.698   4.898  0.5098 -1.1599  0.6770
 3362SOL     OW10984   3.362   1.633   5.256  0.2915 -0.4946 -0.0758
 3362SOL    HW110985   3.293   1.624   5.327  0.2189 -0.3440 -0.1257
 3362SOL    HW210986   3.385   1.730   5.244  1.5604 -0.6470  0.9351
 3363SOL     OW10987   7.000   0.729   5.065 -0.5930 -0.2824 -0.0738
 3363SOL    HW110988   7.060   0.791   5.014 -0.9724  1.1686  1.1497
 3363SOL    HW210989   6.934   0.687   5.003 -0.6956  1.0005 -0.8608
 3364SOL     OW10990   0.922   4.260   5.256 -0.4278 -0.4185  0.2845
 3364SOL    HW110991   1.022   4.253   5.253 -0.3868  0.3574 -0.7206
 3364SOL    HW210992   0.895   4.335   5.317 -0.2956  0.6703 -0.9347
 3365SOL     OW10993   4.762   3.736   5.793  0.3951 -0.3186  0.0327
 3365SOL    HW110994   4.861   3.727   5.811  0.0188 -0.0938  2.6806
 3365SOL    HW210995   4.722   3.645   5.786  0.6530 -0.4176 -0.1919
 3366SOL     OW10996   4.291   0.484   0.535  0.1981  0.5899 -0.8982
 3366SOL    HW110997   4.294   0.584   0.545 -1.2281  0.5820 -0.1174
 3366SOL    HW210998   4.277   0.461   0.439  3.0903  1.0187 -1.5298
 3367SOL     OW10999   1.497   6.993   2.817  0.4991 -0.5593 -0.0195
 3367SOL    HW111000   1.543   6.953   2.738  1.3356  1.6603 -0.7598
 3367SOL    HW211001   1.565   7.018   2.886  0.2088  0.7718 -0.1828
 3368SOL     OW11002   6.379   1.228   4.361 -0.2894 -0.0145 -0.9594
 3368SOL    HW111003   6.387   1.130   4.378 -2.7909  0.1526  2.3289
 3368SOL    HW211004   6.466   1.264   4.328  0.5480 -3.3449 -2.8379
 3369SOL     OW11005   4.121   5.172   0.532 -0.2423  0.1016 -0.4462
 3369SOL    HW111006   4.143   5.268   0.546  0.2787 -0.1446  0.4379
 3369SOL    HW211007   4.164   5.140   0.447 -0.6587  0.7136 -0.8994
 3370SOL     OW11008   6.038   2.440   0.621  0.0167 -0.1012  0.1177
 3370SOL    HW111009   6.091   2.385   0.556  0.2831 -1.1073  1.1616
 3370SOL    HW211010   6.044   2.400   0.712 -0.1585  1.4209  0.8355
 3371SOL     OW11011   2.076   4.032   1.004  0.2178 -0.3185 -0.6441
 3371SOL    HW111012   2.067   4.012   0.907  0.4750 -1.0329 -0.5298
 3371SOL    HW211013   2.061   3.948   1.057 -1.9045  0.4495  0.0549
 3372SOL     OW11014   1.661   2.125   1.063 -0.3917  0.1978  0.1248
 3372SOL    HW111015   1.702   2.154   0.976  0.1862 -0.4558  0.1728
 3372SOL    HW211016   1.688   2.031   1.083 -0.8868  0.1923  0.7957
 3373SOL     OW11017   2.200   1.362   6.873  0.1551 -0.6852 -0.4410
 3373SOL    HW111018   2.228   1.287   6.813  3.4967  1.1353 -1.3957
 3373SOL    HW211019   2.280   1.417   6.896 -2.1124  2.4820  0.4168
 3374SOL     OW11020   1.992   5.268   4.140  0.1095  0.5386  0.2726
 3374SOL    HW111021   1.950   5.272   4.049  1.0161  0.5511 -0.1636
 3374SOL    HW211022   2.038   5.180   4.151  1.6206  1.2553 -0.0449
 3375SOL     OW11023   3.246   3.064   4.583 -0.3287 -0.5582  0.0487
 3375SOL    HW111024   3.333   3.020   4.602 -0.1387  0.5688  2.0559
 3375SOL    HW211025   3.257   3.163   4.586 -1.7279 -0.3986  0.5953
 3376SOL     OW11026   2.229   3.677   1.027 -0.1450 -0.3827 -0.3546
 3376SOL    HW111027   2.231   3.657   0.929  0.9854 -0.2149 -0.3806
 3376SOL    HW211028   2.135   3.700   1.054 -0.2321  1.1263 -1.7262
 3377SOL     OW11029   3.607   5.652   0.805 -0.4561  0.2255 -0.3751
 3377SOL    HW111030   3.588   5.608   0.717  0.4902  0.1403 -0.5412
 3377SOL    HW211031   3.632   5.582   0.872 -0.0430  0.3988 -0.3457
 3378SOL     OW11032   6.396   1.601   1.460  0.3882 -0.0097 -0.1690
 3378SOL    HW111033   6.469   1.597   1.393 -0.0631  2.7245 -0.9631
 3378SOL    HW211034   6.434   1.624   1.550  0.6294  0.1315 -0.3075
 3379SOL     OW11035   5.471   6.654   4.117  0.3336 -0.2046  0.3695
 3379SOL    HW111036   5.439   6.622   4.206  0.6379  0.0494  0.5767
 3379SOL    HW211037   5.555   6.707   4.130 -0.6778  1.5220  0.1687
 3380SOL     OW11038   0.062   3.303   5.026  0.1774  0.0948  0.2500
 3380SOL    HW111039   0.149   3.273   4.986 -0.2069 -2.7281  1.3111
 3380SOL    HW211040  -0.013   3.278   4.965 -0.0485  0.7958  0.2281
 3381SOL     OW11041   3.934   1.864   3.111 -0.4325 -0.2155 -0.2390
 3381SOL    HW111042   4.020   1.884   3.065 -0.9570 -0.2510 -1.2816
 3381SOL    HW211043   3.867   1.833   3.043 -1.3543  0.1004  0.5046
 3382SOL     OW11044   0.416   5.436   4.396  0.5945 -1.0015 -0.4683
 3382SOL    HW111045   0.496   5.459   4.451  0.6923 -1.1885 -0.5329
 3382SOL    HW211046   0.420   5.485   4.309  0.4023 -0.6477 -0.2824
 3383SOL     OW11047   1.562   3.564   0.685 -0.3327  0.1750 -0.0024
 3383SOL    HW111048   1.618   3.586   0.765 -0.6181  2.1121 -0.3088
 3383SOL    HW211049   1.467   3.589   0.703 -0.8931 -1.7487 -0.0311
 3384SOL     OW11050   3.769   2.934   4.593 -0.4130 -0.7834  0.1295
 3384SOL    HW111051   3.802   2.895   4.678  2.1305  0.2195 -0.2905
 3384SOL    HW211052   3.812   3.023   4.578 -1.3504 -0.5885 -1.8486
 3385SOL     OW11053   6.107   2.534   4.223  0.7041  0.7537  0.0652
 3385SOL    HW111054   6.084   2.589   4.303 -0.4711 -0.4220  0.5813
 3385SOL    HW211055   6.172   2.583   4.166  2.6613  1.0560  2.4202
 3386SOL     OW11056   4.353   5.241   4.353  0.2836 -0.0314  0.1675
 3386SOL    HW111057   4.391   5.230   4.260 -0.2472 -0.2005 -0.0304
 3386SOL    HW211058   4.303   5.327   4.358  1.5345  0.6883  0.7244
 3387SOL     OW11059   3.296   2.881   1.231  0.1285  0.3620  0.1585
 3387SOL    HW111060   3.281   2.967   1.279 -1.6928  0.0667  0.1834
 3387SOL    HW211061   3.381   2.839   1.263  0.0274  1.1907  1.5701
 3388SOL     OW11062   5.997   1.698   1.483  0.1858 -0.5381 -0.3856
 3388SOL    HW111063   5.945   1.760   1.542  0.4771 -0.8824  0.2403
 3388SOL    HW211064   5.955   1.607   1.486  0.0837 -0.5106 -0.8722
 3389SOL     OW11065   5.128   5.946   2.609  0.0374 -0.0181  0.0017
 3389SOL    HW111066   5.208   5.910   2.657 -0.7718  2.1856  3.3259
 3389SOL    HW211067   5.155   5.975   2.517  2.8083 -0.2544  0.6536
 3390SOL     OW11068   4.905   2.069   4.596 -0.1045 -0.1307  0.3543
 3390SOL    HW111069   5.000   2.065   4.629 -0.6991 -0.8467  2.1232
 3390SOL    HW211070   4.874   2.164   4.598  0.1311 -0.0615  1.1669
 3391SOL     OW11071   2.511   2.013   5.845 -0.0635 -0.3852  0.0233
 3391SOL    HW111072   2.517   1.926   5.795 -1.3620 -1.6743  1.9611
 3391SOL    HW211073   2.535   1.998   5.941 -2.3410  0.9312  0.8676
 3392SOL     OW11074   3.713   0.135   3.802 -0.3152  0.4629  0.4636
 3392SOL    HW111075   3.763   0.143   3.888 -0.9411  2.6100  0.6700
 3392SOL    HW211076   3.778   0.125   3.726  0.2363 -1.5382  1.1424
 3393SOL     OW11077   0.780   6.260   3.973  0.5841 -0.5422  0.2518
 3393SOL    HW111078   0.738   6.176   3.940 -0.7070  0.0547  0.3067
 3393SOL    HW211079   0.831   6.303   3.899 -0.8026 -0.1305 -0.5115
 3394SOL     OW11080   4.848   1.277   2.815  0.0767  0.1560  0.7487
 3394SOL    HW111081   4.808   1.234   2.734 -0.8614  0.0647  1.2497
 3394SOL    HW211082   4.828   1.222   2.896  0.4049  0.6078  1.1443
 3395SOL     OW11083   1.041   5.269   5.956  0.2272 -0.6460  0.3988
 3395SOL    HW111084   0.950   5.290   5.992 -0.4550 -2.2243 -0.2958
 3395SOL    HW211085   1.082   5.351   5.918  0.1847  0.6725  2.9821
 3396SOL     OW11086   5.249   3.268   4.602 -0.1181  0.4306  0.7679
 3396SOL    HW111087   5.276   3.261   4.506  2.9695  1.1745  1.4592
 3396SOL    HW211088   5.297   3.345   4.645  0.2004 -1.0904  3.3676
 3397SOL     OW11089   2.293   5.938   5.733 -0.2227  0.0805  0.3529
 3397SOL    HW111090   2.380   5.972   5.699  0.2040 -1.1177  0.1781
 3397SOL    HW211091   2.233   5.916   5.656 -0.2036 -0.2654  0.4335
 3398SOL     OW11092   1.752   2.031   5.657 -0.2296  0.0557  0.0694
 3398SOL    HW111093   1.799   2.073   5.734 -1.3428  0.8675  0.3193
 3398SOL    HW211094   1.653   2.033   5.672 -0.3912 -1.2565 -0.6287
 3399SOL     OW11095   4.272   4.162   5.571  0.5144  0.1669 -0.1393
 3399SOL    HW111096   4.231   4.072   5.583 -0.5148  0.5774 -0.4790
 3399SOL    HW211097   4.298   4.175   5.475 -2.8786  1.6257 -1.0132
 3400SOL     OW11098   6.001   2.052   0.850  0.2205 -0.0607 -0.2291
 3400SOL    HW111099   5.970   1.968   0.894 -0.7790 -0.6266 -1.9269
 3400SOL    HW211100   5.972   2.052   0.755 -1.1598  2.8973  0.0915
 3401SOL     OW11101   6.300   5.221   0.524 -0.1164  0.3796  0.3226
 3401SOL    HW111102   6.278   5.314   0.495  1.1274  0.3408 -0.8685
 3401SOL    HW211103   6.398   5.204   0.511 -0.1761 -0.8442  1.2695
 3402SOL     OW11104   6.670   6.292   2.364 -0.4690  0.7129 -0.0345
 3402SOL    HW111105   6.592   6.318   2.306  0.2588 -2.7976 -2.9939
 3402SOL    HW211106   6.754   6.329   2.324 -0.1687  0.2061  0.1204
 3403SOL     OW11107   3.883   2.257   0.634  0.9387  0.4478  0.0667
 3403SOL    HW111108   3.932   2.312   0.566  1.5567  0.3569  0.4382
 3403SOL    HW211109   3.815   2.315   0.681  1.1937  0.7535  0.0621
 3404SOL     OW11110   3.671   0.453   1.873  0.4953  0.0718 -0.0465
 3404SOL    HW111111   3.704   0.379   1.814  2.3748 -0.4431  1.5272
 3404SOL    HW211112   3.635   0.527   1.817  2.6902 -0.1579 -1.8989
 3405SOL     OW11113   6.471   5.344   1.478 -0.1370 -0.2783  0.2972
 3405SOL    HW111114   6.483   5.261   1.424  0.3414  0.1576 -0.2879
 3405SOL    HW211115   6.440   5.419   1.419  0.4777  0.2264  0.5920
 3406SOL     OW11116   6.813   3.281   1.760  0.0202 -0.2857  0.8998
 3406SOL    HW111117   6.802   3.381   1.758  0.1341 -0.2745 -1.2548
 3406SOL    HW211118   6.729   3.239   1.795 -0.1284  0.5464  1.5755
 3407SOL     OW11119   0.551   4.885   3.228  0.3960  0.3588 -0.0835
 3407SOL    HW111120   0.573   4.839   3.315  1.2167 -2.6242 -1.7371
 3407SOL    HW211121   0.452   4.882   3.213  0.4755 -1.6945 -0.4948
 3408SOL     OW11122   5.532   4.578   3.660  0.1856  0.3625  0.4739
 3408SOL    HW111123   5.603   4.509   3.679 -1.2462 -1.0164  1.0471
 3408SOL    HW211124   5.576   4.666   3.644  2.2273 -0.9413 -1.9208
 3409SOL     OW11125   1.873   7.021   5.674  0.5765  0.5700 -0.1026
 3409SOL    HW111126   1.909   7.032   5.582 -0.7445  1.3811 -0.5545
 3409SOL    HW211127   1.779   6.986   5.669  1.2350 -1.4925  1.0232
 3410SOL     OW11128   0.146   6.747   2.510 -0.6683  0.1518  0.6945
 3410SOL    HW111129   0.227   6.698   2.542 -1.9940 -2.1266  0.7889
 3410SOL    HW211130   0.065   6.712   2.556 -1.9063  1.3351 -0.4651
 3411SOL     OW11131   4.465   1.418   3.971 -0.0404 -0.8123 -0.2252
 3411SOL    HW111132   4.365   1.416   3.975 -0.0277 -0.5671  0.4247
 3411SOL    HW211133   4.495   1.493   3.912 -0.2461 -1.5920 -1.3353
 3412SOL     OW11134   5.446   5.702   5.748  0.0832 -0.2044 -0.3706
 3412SOL    HW111135   5.511   5.667   5.816  0.4840 -1.2188 -1.2391
 3412SOL    HW211136   5.449   5.802   5.746  0.5948 -0.1951  0.5798
 3413SOL     OW11137   5.370   1.860   1.589  0.6682 -0.3944  0.0600
 3413SOL    HW111138   5.365   1.952   1.551 -0.3355 -0.6804 -0.5370
 3413SOL    HW211139   5.286   1.840   1.639  1.6200 -0.3376  1.7659
 3414SOL     OW11140   2.738   0.335   5.554  0.7329 -0.3874  0.3782
 3414SOL    HW111141   2.705   0.429   5.557 -0.8228 -0.8495 -0.6815
 3414SOL    HW211142   2.716   0.289   5.640  0.2673 -0.1612  0.3834
 3415SOL     OW11143   1.056   5.584   6.639  0.1083 -0.6006  0.5107
 3415SOL    HW111144   0.967   5.592   6.594 -0.2523 -1.0944  1.1273
 3415SOL    HW211145   1.117   5.528   6.583 -0.5571 -1.7856  0.9499
 3416SOL     OW11146   2.367   4.381   4.229  0.2209 -0.3226  0.0720
 3416SOL    HW111147   2.454   4.380   4.279  0.9056  0.1896 -1.0654
 3416SOL    HW211148   2.327   4.290   4.230  1.5439 -0.9459 -0.6775
 3417SOL     OW11149   6.321   2.648   1.015  0.5891 -0.0834  0.3428
 3417SOL    HW111150   6.336   2.732   0.962 -1.4819 -0.4049 -0.8364
 3417SOL    HW211151   6.263   2.668   1.093  1.9431 -0.0248  1.3749
 3418SOL     OW11152   1.928   2.049   4.216  0.4350  0.2359 -0.4489
 3418SOL    HW111153   1.944   1.988   4.293  2.1508 -1.4436 -2.0181
 3418SOL    HW211154   1.993   2.124   4.218 -0.0923  0.6929  0.1636
 3419SOL     OW11155   0.569   4.232   0.431 -0.4890  0.2549 -0.7212
 3419SOL    HW111156   0.533   4.248   0.523  0.2841  0.2728 -0.4212
 3419SOL    HW211157   0.496   4.249   0.364 -0.8911  0.8110 -0.1563
 3420SOL     OW11158   2.217   6.650   5.953 -0.1038  0.2889  0.0536
 3420SOL    HW111159   2.180   6.557   5.953  0.9420 -0.1451 -0.4166
 3420SOL    HW211160   2.145   6.715   5.926 -0.8886 -0.3538  0.5692
 3421SOL     OW11161   0.296   1.612   2.560  0.9060 -0.2064 -0.9294
 3421SOL    HW111162   0.288   1.666   2.644 -1.6326  0.0522 -1.2461
 3421SOL    HW211163   0.238   1.652   2.489  2.0186 -1.1442 -2.4421
 3422SOL     OW11164   5.061   1.531   4.396 -0.2865  0.2643  0.3541
 3422SOL    HW111165   5.099   1.611   4.442 -0.7120  0.1786  0.8769
 3422SOL    HW211166   4.972   1.554   4.357 -0.3882  0.0671  0.4662
 3423SOL     OW11167   4.969   1.867   2.178 -0.0741  0.5115 -0.0417
 3423SOL    HW111168   4.941   1.955   2.138 -2.0364 -0.1167 -0.1788
 3423SOL    HW211169   5.000   1.806   2.106  1.1103  1.0158  0.0297
 3424SOL     OW11170   4.300   1.949   6.376 -0.1498  0.3741 -0.4769
 3424SOL    HW111171   4.299   1.856   6.341 -1.4843  0.6234 -1.1647
 3424SOL    HW211172   4.328   1.949   6.472  1.8918 -0.4954 -1.0401
 3425SOL     OW11173   4.307   3.808   0.928  0.1469  0.0532  0.2972
 3425SOL    HW111174   4.405   3.825   0.917 -0.1463  0.4934 -2.2225
 3425SOL    HW211175   4.287   3.714   0.899 -0.1244 -0.2085  1.3058
 3426SOL     OW11176   5.891   4.153   1.375  0.4477  0.0210 -0.1491
 3426SOL    HW111177   5.985   4.154   1.410  0.4399 -0.3550 -0.1074
 3426SOL    HW211178   5.841   4.079   1.419  0.6872 -1.0568 -1.6161
 3427SOL     OW11179   0.401   3.465   1.624 -0.6633 -0.0507  0.4977
 3427SOL    HW111180   0.463   3.526   1.674  1.2072 -1.1981 -0.3262
 3427SOL    HW211181   0.328   3.520   1.581 -0.3000  1.3267  1.5692
 3428SOL     OW11182   4.992   5.336   3.038 -0.6863  0.2685 -0.1882
 3428SOL    HW111183   5.078   5.385   3.023 -1.3276  2.0757  1.5355
 3428SOL    HW211184   4.993   5.294   3.129 -0.3041 -2.7926 -1.4707
 3429SOL     OW11185   1.303   3.312   0.867 -0.3935 -0.2272 -0.1541
 3429SOL    HW111186   1.222   3.348   0.822 -0.6565  1.1175  1.2870
 3429SOL    HW211187   1.374   3.292   0.799 -1.0531  0.9219 -1.2188
 3430SOL     OW11188   0.922   3.698   4.882 -0.2887  0.8723  0.3052
 3430SOL    HW111189   0.876   3.616   4.917  0.3389  1.2901  2.2357
 3430SOL    HW211190   0.883   3.723   4.794 -1.4955 -0.6622  0.3664
 3431SOL     OW11191   1.105   4.029   6.862  0.1671 -0.4019 -0.3691
 3431SOL    HW111192   1.040   3.954   6.876  0.5871 -0.7938 -0.5017
 3431SOL    HW211193   1.055   4.111   6.833 -0.3402 -0.5111  0.1771
 3432SOL     OW11194   3.998   4.271   5.664 -0.3327 -0.1334  0.0122
 3432SOL    HW111195   4.094   4.244   5.655 -0.5971 -0.7228 -1.2641
 3432SOL    HW211196   3.939   4.191   5.651 -1.0630  0.6484 -1.9532
 3433SOL     OW11197   2.487   0.032   6.705 -0.4491  0.0861 -0.6155
 3433SOL    HW111198   2.568   0.005   6.653 -1.5685 -0.0053 -2.4296
 3433SOL    HW211199   2.498   0.126   6.737  0.1549  0.2697 -1.3355
 3434SOL     OW11200   3.585   0.361   3.316 -0.3107 -0.1813 -0.0480
 3434SOL    HW111201   3.674   0.408   3.316 -0.1672 -0.3796 -1.6314
 3434SOL    HW211202   3.594   0.273   3.362 -0.1916  0.6146  1.5329
 3435SOL     OW11203   0.617   2.664   5.540 -0.1021 -0.6572  0.5187
 3435SOL    HW111204   0.631   2.695   5.634 -0.8187  1.5758 -0.0450
 3435SOL    HW211205   0.518   2.659   5.521  0.0263  0.1168 -0.4433
 3436SOL     OW11206   4.650   6.947   1.973 -0.2029 -0.1004 -0.5201
 3436SOL    HW111207   4.645   6.866   2.033  1.1217 -0.8624 -1.4036
 3436SOL    HW211208   4.620   7.027   2.024 -1.6943 -1.1517  0.3478
 3437SOL     OW11209   5.327   5.036   6.566  0.3581 -0.0704 -0.1884
 3437SOL    HW111210   5.313   5.100   6.642  0.9593 -1.2197  0.9343
 3437SOL    HW211211   5.249   5.042   6.503 -0.6286  0.2498  1.0166
 3438SOL     OW11212   0.972   4.997   2.398 -0.2699  0.6201 -0.2013
 3438SOL    HW111213   1.059   5.045   2.390 -0.1210  0.1284 -2.0365
 3438SOL    HW211214   0.896   5.062   2.394 -0.0193  0.9497  0.3551
 3439SOL     OW11215   3.121   1.311   4.431  0.3460 -0.8318  0.2435
 3439SOL    HW111216   3.113   1.396   4.379 -1.4653 -0.2929  1.3203
 3439SOL    HW211217   3.179   1.247   4.381  2.7019  1.3919 -0.0709
 3440SOL     OW11218   4.491   2.722   6.971 -0.4547  0.1121 -0.1409
 3440SOL    HW111219   4.501   2.760   7.063  3.4083  1.0023 -0.7899
 3440SOL    HW211220   4.439   2.785   6.914  0.0737  1.1822  0.5471
 3441SOL     OW11221   4.019   6.003   4.852  0.1837  0.1545  0.5726
 3441SOL    HW111222   4.108   6.011   4.807 -0.1768 -0.0396 -0.1981
 3441SOL    HW211223   4.030   5.960   4.941  0.6735 -1.3847 -0.1953
 3442SOL     OW11224   0.894   4.498   4.043 -0.3877  0.0817 -0.1162
 3442SOL    HW111225   0.982   4.460   4.072 -0.8266 -0.6726  0.2554
 3442SOL    HW211226   0.910   4.568   3.974  0.5528  0.4868  0.4860
 3443SOL     OW11227   5.625   6.865   4.402  0.3262 -0.1068  0.9400
 3443SOL    HW111228   5.601   6.957   4.433 -0.2622  0.6713 -1.6355
 3443SOL    HW211229   5.588   6.798   4.467  0.5302  1.4074  2.7175
 3444SOL     OW11230   3.636   5.347   0.060 -0.0116  0.4617 -0.1779
 3444SOL    HW111231   3.641   5.447   0.058  0.2947  0.4550  0.0325
 3444SOL    HW211232   3.729   5.309   0.066 -0.0908  0.1475 -0.8933
 3445SOL     OW11233   6.857   4.625   6.018 -0.0057 -0.3199  0.2029
 3445SOL    HW111234   6.901   4.538   5.997  0.9585 -0.8698  3.9254
 3445SOL    HW211235   6.924   4.690   6.053 -1.1045  1.1389 -0.2819
 3446SOL     OW11236   3.701   6.222   0.769 -0.3283  0.0865  0.4086
 3446SOL    HW111237   3.787   6.200   0.816 -0.4281 -3.0640 -0.6412
 3446SOL    HW211238   3.634   6.255   0.835  1.2860  1.4356  1.4431
 3447SOL     OW11239   5.506   3.652   0.277 -0.2119  0.4870  0.3360
 3447SOL    HW111240   5.513   3.591   0.356  0.7457 -1.2402 -0.9863
 3447SOL    HW211241   5.594   3.654   0.229 -1.6562 -1.5165 -2.7387
 3448SOL     OW11242   3.238   1.619   5.516 -0.1589  0.6254  0.6117
 3448SOL    HW111243   3.215   1.709   5.553 -0.5615  0.1709  1.5202
 3448SOL    HW211244   3.337   1.606   5.519  0.0024  1.4763 -0.6013
 3449SOL     OW11245   6.803   4.892   2.518 -0.0294 -0.2102  0.2905
 3449SOL    HW111246   6.878   4.853   2.570  0.7965  0.0241 -0.7080
 3449SOL    HW211247   6.731   4.923   2.582 -0.8722 -3.5028  1.1274
 3450SOL     OW11248   0.977   2.908   0.654 -0.3446 -0.0978 -0.3537
 3450SOL    HW111249   0.924   2.829   0.681  0.9387 -1.6126 -2.0056
 3450SOL    HW211250   1.074   2.883   0.648  0.0468  1.4796 -1.2676
 3451SOL     OW11251   3.528   6.685   2.563 -0.1298 -0.3946 -0.0574
 3451SOL    HW111252   3.568   6.767   2.603 -2.0272  1.2449 -1.3097
 3451SOL    HW211253   3.570   6.668   2.473 -0.5914 -0.0559 -0.3397
 3452SOL     OW11254   0.709   3.734   6.437 -0.3640 -0.0838  0.3751
 3452SOL    HW111255   0.739   3.639   6.445 -1.1274 -0.2547  1.4108
 3452SOL    HW211256   0.650   3.757   6.514 -0.4169  1.1551 -0.0092
 3453SOL     OW11257   5.133   4.289   6.074 -0.0879  0.3029  0.3303
 3453SOL    HW111258   5.072   4.321   6.001 -0.9596 -0.3956  0.7219
 3453SOL    HW211259   5.122   4.190   6.085 -0.1800  0.4294  1.5817
 3454SOL     OW11260   6.187   1.387   1.548  0.1510  0.4254  0.2379
 3454SOL    HW111261   6.223   1.341   1.630  2.4254 -1.4302 -1.6673
 3454SOL    HW211262   6.238   1.472   1.534  0.9237 -0.0845 -0.1260
 3455SOL     OW11263   2.799   1.569   2.878  0.2258  0.3206  0.2293
 3455SOL    HW111264   2.776   1.657   2.836 -0.6325 -0.0829 -0.1775
 3455SOL    HW211265   2.888   1.538   2.844 -1.1617 -0.8261 -2.7700
 3456SOL     OW11266   6.244   0.544   0.794 -0.4082  0.5444 -0.5522
 3456SOL    HW111267   6.319   0.512   0.735 -1.0534  0.0935 -1.1526
 3456SOL    HW211268   6.226   0.475   0.865  2.5693  2.4859  2.3649
 3457SOL     OW11269   1.307   0.024   4.414 -0.3548  0.3444  0.1712
 3457SOL    HW111270   1.259  -0.063   4.411 -0.1407  0.2020  0.7727
 3457SOL    HW211271   1.302   0.068   4.324  0.2703 -0.6893 -0.3960
 3458SOL     OW11272   5.987   4.895   6.893  0.5625  0.2678 -0.1784
 3458SOL    HW111273   5.941   4.972   6.849  0.4922  0.7214  0.6697
 3458SOL    HW211274   5.920   4.842   6.945  0.5742 -0.4877 -0.9032
 3459SOL     OW11275   0.792   1.234   3.701  0.3888 -0.1151 -0.5048
 3459SOL    HW111276   0.876   1.180   3.696  0.1214 -0.5510 -0.2965
 3459SOL    HW211277   0.718   1.178   3.736  0.9947  1.4017  3.8411
 3460SOL     OW11278   6.217   2.682   5.562 -0.4378  0.1430 -0.3451
 3460SOL    HW111279   6.132   2.673   5.509  0.0040 -0.4736 -0.9710
 3460SOL    HW211280   6.269   2.759   5.526 -1.3637  1.4364  0.9674
 3461SOL     OW11281   2.397   5.874   4.033  0.3339  0.4707  0.0527
 3461SOL    HW111282   2.327   5.930   3.988  0.1959  1.2395  1.1920
 3461SOL    HW211283   2.421   5.914   4.121  0.0284 -1.4001  1.0491
 3462SOL     OW11284   6.352   3.376   3.424  0.1056  0.0820 -0.4612
 3462SOL    HW111285   6.424   3.421   3.372 -0.1935  0.6079 -0.4336
 3462SOL    HW211286   6.275   3.439   3.435 -0.2262 -0.3596 -0.2155
 3463SOL     OW11287   1.117   3.502   2.308  0.0187 -0.3050  0.1204
 3463SOL    HW111288   1.166   3.558   2.374  1.0499 -2.1057  0.9452
 3463SOL    HW211289   1.122   3.406   2.335 -0.1141 -1.0287 -2.2074
 3464SOL     OW11290   4.912   0.592   0.044  0.0467 -0.0071 -0.8336
 3464SOL    HW111291   4.962   0.622  -0.038  0.2482 -2.0972 -1.5424
 3464SOL    HW211292   4.878   0.499   0.029 -1.1334  0.0983  0.9554
 3465SOL     OW11293   1.507   3.661   3.048 -0.1398 -0.2239  0.0049
 3465SOL    HW111294   1.460   3.680   2.962  1.0126  1.8600 -0.2446
 3465SOL    HW211295   1.514   3.745   3.101 -0.3590 -1.3650  1.9294
 3466SOL     OW11296   0.613   2.176   4.966  0.0231  0.1842  0.3828
 3466SOL    HW111297   0.561   2.112   5.022 -0.2276  1.5282  1.7444
 3466SOL    HW211298   0.573   2.267   4.973  2.1443  1.1286  0.9543
 3467SOL     OW11299   2.261   2.849   6.864  0.0023 -0.4045  0.7342
 3467SOL    HW111300   2.198   2.822   6.937 -2.1180 -0.0574 -0.8768
 3467SOL    HW211301   2.264   2.779   6.793  2.6531 -1.1065  1.4146
 3468SOL     OW11302   3.193   1.549   0.530  0.0040 -0.2038 -0.1420
 3468SOL    HW111303   3.193   1.475   0.598 -0.3389  0.0679  0.1537
 3468SOL    HW211304   3.152   1.516   0.445 -1.0306 -0.0806  0.2946
 3469SOL     OW11305   3.096   5.907   4.567 -0.1806 -0.5166 -0.2090
 3469SOL    HW111306   3.108   5.819   4.521  1.8962 -0.1431 -0.4645
 3469SOL    HW211307   3.161   5.973   4.531 -1.1202  0.8982  0.5896
 3470SOL     OW11308   0.667   2.313   0.363  0.0221 -0.1097  0.1408
 3470SOL    HW111309   0.680   2.244   0.434 -1.6953  0.8028  1.4374
 3470SOL    HW211310   0.588   2.287   0.306  0.7564 -0.3160 -0.8061
 3471SOL     OW11311   4.729   2.385   4.067 -0.6666 -0.6598  0.3500
 3471SOL    HW111312   4.688   2.471   4.035 -0.7329 -1.6212 -2.4131
 3471SOL    HW211313   4.657   2.320   4.090 -0.6187  0.0195  2.6682
 3472SOL     OW11314   5.114   2.398   2.064  0.1168 -0.5370  0.1557
 3472SOL    HW111315   5.207   2.422   2.092 -0.9705  1.5332  2.3308
 3472SOL    HW211316   5.089   2.448   1.981  0.4844 -0.0365  0.3460
 3473SOL     OW11317   5.409   5.603   0.498  0.6280 -0.2929  0.4740
 3473SOL    HW111318   5.359   5.651   0.570  0.3873 -0.1399  0.2063
 3473SOL    HW211319   5.406   5.657   0.414 -0.7652 -1.3593 -0.2123
 3474SOL     OW11320   4.839   4.136   2.172  0.6584  0.5727 -0.6523
 3474SOL    HW111321   4.836   4.078   2.091 -0.9631  1.4884 -1.2825
 3474SOL    HW211322   4.784   4.218   2.157  0.6550  0.9626  1.2371
 3475SOL     OW11323   1.789   3.720   3.632  0.0615 -0.1873  0.1515
 3475SOL    HW111324   1.697   3.698   3.665  0.3335 -1.4654  0.1298
 3475SOL    HW211325   1.784   3.797   3.569 -1.2818 -1.3935 -1.3155
 3476SOL     OW11326   6.963   1.692   2.373 -0.1498  0.5447  0.3091
 3476SOL    HW111327   7.037   1.755   2.395 -0.9186  1.8693 -0.7724
 3476SOL    HW211328   6.914   1.668   2.457 -0.1166  1.7426  0.6929
 3477SOL     OW11329   0.004   3.043   2.113 -0.2816  0.1338  0.7289
 3477SOL    HW111330   0.012   3.129   2.064  0.3389 -1.1338 -1.5287
 3477SOL    HW211331  -0.093   3.020   2.122 -0.4921 -1.1411 -2.9955
 3478SOL     OW11332   3.161   0.643   2.183  0.4244  0.4285 -0.2228
 3478SOL    HW111333   3.194   0.613   2.093  0.4467 -3.1841  0.8408
 3478SOL    HW211334   3.078   0.697   2.171  0.3608 -0.0581 -2.4238
 3479SOL     OW11335   0.477   3.154   5.100  0.2652 -0.3056  0.1321
 3479SOL    HW111336   0.487   3.069   5.153  1.5865  0.6009  1.4343
 3479SOL    HW211337   0.444   3.227   5.160  2.7573  1.0021  0.0698
 3480SOL     OW11338   1.495   4.090   6.561  0.1249  0.1652 -0.1488
 3480SOL    HW111339   1.530   4.005   6.521 -1.5626  1.0103 -3.8210
 3480SOL    HW211340   1.571   4.153   6.575  1.3116 -1.5932  1.9706
 3481SOL     OW11341   4.553   1.390   4.222  0.6116  0.0867  0.0422
 3481SOL    HW111342   4.540   1.452   4.299 -1.3216 -1.7483  1.3254
 3481SOL    HW211343   4.518   1.432   4.139 -2.0566  0.2120  1.1472
 3482SOL     OW11344   0.107   2.614   0.367  0.2544  0.1461 -0.5030
 3482SOL    HW111345   0.154   2.615   0.279 -0.1305 -0.0622 -0.7084
 3482SOL    HW211346   0.011   2.590   0.354  0.7680 -2.5925  0.2404
 3483SOL     OW11347   4.238   1.058   5.930  0.1210  0.4118  0.1369
 3483SOL    HW111348   4.338   1.057   5.939  0.0416 -0.4792  1.0649
 3483SOL    HW211349   4.212   1.126   5.862  1.2639  1.8097  1.0455
 3484SOL     OW11350   6.368   2.909   5.734  0.5743 -0.4040  0.2905
 3484SOL    HW111351   6.434   2.918   5.808  0.4526 -0.0251  0.3571
 3484SOL    HW211352   6.293   2.974   5.748  1.8395  1.6140 -1.5414
 3485SOL     OW11353   5.117   4.023   5.847  0.8281  0.7433 -0.0640
 3485SOL    HW111354   5.109   3.925   5.830 -2.1003  1.0287 -0.7370
 3485SOL    HW211355   5.075   4.045   5.935  0.8235  1.4863 -0.2490
 3486SOL     OW11356   0.621   6.768   5.219 -0.1367  0.3587 -0.2146
 3486SOL    HW111357   0.690   6.840   5.204 -1.1916  1.1434 -1.4869
 3486SOL    HW211358   0.607   6.717   5.134 -0.4755 -0.3978  0.2884
 3487SOL     OW11359   3.296   2.332   6.711  0.1344  0.0002 -1.0347
 3487SOL    HW111360   3.239   2.414   6.710 -0.9187 -0.7021 -0.2699
 3487SOL    HW211361   3.243   2.254   6.678  0.5939 -0.6967 -0.1684
 3488SOL     OW11362   4.796   0.180   6.001 -0.5429  0.0637  0.2527
 3488SOL    HW111363   4.767   0.086   6.020 -1.3865  0.1257 -0.6388
 3488SOL    HW211364   4.841   0.218   6.082 -0.9893 -0.8016  0.9249
 3489SOL     OW11365   3.723   4.664   6.603  0.1631 -0.2635 -0.5473
 3489SOL    HW111366   3.740   4.656   6.505  1.2632 -1.1327 -0.3104
 3489SOL    HW211367   3.627   4.689   6.618  0.2023  0.7788 -1.8513
 3490SOL     OW11368   4.494   5.341   0.631 -0.7439  0.2368  0.9395
 3490SOL    HW111369   4.592   5.333   0.614 -1.2945 -2.6128 -2.0419
 3490SOL    HW211370   4.475   5.427   0.678  3.0083  1.5833  0.3518
 3491SOL     OW11371   5.161   4.867   3.804  0.8178  0.2590 -0.2068
 3491SOL    HW111372   5.112   4.881   3.890  0.0743 -1.9268 -0.2174
 3491SOL    HW211373   5.258   4.885   3.818  0.5429  1.0799  0.7710
 3492SOL     OW11374   4.963   4.229   4.418 -0.1618  0.1849 -0.3924
 3492SOL    HW111375   5.015   4.151   4.384  0.0421 -0.0999  0.5326
 3492SOL    HW211376   4.997   4.313   4.377 -1.6516 -0.3377 -2.9314
 3493SOL     OW11377   0.197   4.149   5.181 -0.5272 -0.3156  0.4435
 3493SOL    HW111378   0.180   4.108   5.092 -2.4900 -2.7089  1.7870
 3493SOL    HW211379   0.293   4.176   5.188  0.0093 -1.4333 -1.8434
 3494SOL     OW11380   4.535   1.693   3.923  0.3759  0.0596  0.3542
 3494SOL    HW111381   4.630   1.682   3.951  0.6521  0.0516 -0.5324
 3494SOL    HW211382   4.520   1.787   3.892 -0.1285  0.2884  1.2634
 3495SOL     OW11383   0.963   3.816   1.670 -0.1564 -0.3937  0.2286
 3495SOL    HW111384   0.864   3.809   1.656 -0.0145 -2.3384 -0.0455
 3495SOL    HW211385   0.986   3.786   1.762  0.2409 -0.4134  0.1238
 3496SOL     OW11386   6.385   6.715   2.593  0.3793  0.3763  0.8397
 3496SOL    HW111387   6.370   6.622   2.627  0.4024 -0.3715 -1.0518
 3496SOL    HW211388   6.297   6.759   2.577  0.2826 -0.2229 -0.4715
 3497SOL     OW11389   3.698   6.967   0.045  0.4756 -0.3065  0.4744
 3497SOL    HW111390   3.645   6.927   0.120  0.3909 -2.3205 -0.5971
 3497SOL    HW211391   3.779   6.911   0.027  1.5995  1.2767  0.3529
 3498SOL     OW11392   2.031   0.999   2.342  0.1410 -0.2099 -0.0108
 3498SOL    HW111393   2.068   0.934   2.275 -0.3910 -0.2371 -0.2780
 3498SOL    HW211394   1.979   0.949   2.411  1.4705 -0.2960  0.9858
 3499SOL     OW11395   6.409   6.664   5.211  0.1979  0.3045  0.5964
 3499SOL    HW111396   6.422   6.682   5.113 -0.2558 -0.7311  0.3339
 3499SOL    HW211397   6.493   6.629   5.250  0.9722  2.5160  1.0252
 3500SOL     OW11398   3.258   1.711   2.694 -0.1019  0.1423 -0.0991
 3500SOL    HW111399   3.309   1.681   2.614  0.3007 -0.9861  0.5595
 3500SOL    HW211400   3.319   1.760   2.756 -0.0961 -0.1716  0.1432
 3501SOL     OW11401   0.422   1.828   5.943 -0.4298 -0.3018  0.2755
 3501SOL    HW111402   0.358   1.793   6.011  0.5438 -1.7785  0.4861
 3501SOL    HW211403   0.504   1.862   5.989 -0.8209  1.0643 -0.0196
 3502SOL     OW11404   5.976   3.491   2.091  0.7339  0.6992 -0.0441
 3502SOL    HW111405   5.889   3.458   2.054  0.7804  0.7213 -0.1707
 3502SOL    HW211406   6.039   3.413   2.101  0.0404  0.3142  1.9066
 3503SOL     OW11407   0.901   4.835   6.597 -0.3088  0.2178  0.3252
 3503SOL    HW111408   0.844   4.768   6.548  0.9919 -0.1848 -0.7205
 3503SOL    HW211409   0.875   4.927   6.569 -0.7972  0.0723  0.2784
 3504SOL     OW11410   6.550   0.611   5.525 -0.4522 -0.8023  0.8648
 3504SOL    HW111411   6.534   0.710   5.520 -1.1072 -0.8934  1.0721
 3504SOL    HW211412   6.648   0.593   5.519 -0.2219 -0.0602  2.0693
 3505SOL     OW11413   5.757   0.448   5.437  0.6766 -0.2742 -0.1522
 3505SOL    HW111414   5.824   0.517   5.465 -0.4021  2.0410 -2.8078
 3505SOL    HW211415   5.665   0.487   5.443  0.0507 -1.3545 -1.9984
 3506SOL     OW11416   3.575   5.753   4.242 -0.0216  0.4804  0.1677
 3506SOL    HW111417   3.577   5.796   4.332 -1.1609 -0.1924  0.5280
 3506SOL    HW211418   3.621   5.664   4.247 -0.2478  0.3616  0.1312
 3507SOL     OW11419   2.581   1.846   1.883 -1.1662 -0.2030 -0.4016
 3507SOL    HW111420   2.605   1.942   1.898 -0.1322 -0.2207 -1.7699
 3507SOL    HW211421   2.662   1.795   1.858 -1.9756 -1.1176 -1.2483
 3508SOL     OW11422   2.657   1.272   0.267 -0.2503  0.6143 -0.2073
 3508SOL    HW111423   2.693   1.361   0.240  0.7257  0.5193  0.7155
 3508SOL    HW211424   2.723   1.226   0.327 -0.3770 -1.0762 -1.2959
 3509SOL     OW11425   2.881   5.385   6.672 -0.1219 -0.0671  0.3902
 3509SOL    HW111426   2.842   5.381   6.764  3.0099  3.7188  2.1688
 3509SOL    HW211427   2.967   5.334   6.670 -0.4398 -0.5904 -0.6701
 3510SOL     OW11428   3.757   6.826   1.200 -0.2075 -0.2035  0.3841
 3510SOL    HW111429   3.794   6.733   1.193 -0.0148 -0.0825 -0.2810
 3510SOL    HW211430   3.807   6.876   1.271 -0.6258 -0.7465  1.0738
 3511SOL     OW11431   1.676   4.790   1.777  0.5075  0.3342  0.4031
 3511SOL    HW111432   1.632   4.738   1.704 -0.1143 -0.3300  1.2253
 3511SOL    HW211433   1.717   4.872   1.739  1.2788 -0.6165 -0.8878
 3512SOL     OW11434   0.991   1.032   0.969 -0.0586  0.3858  0.0332
 3512SOL    HW111435   1.056   0.996   1.036  0.8126 -0.1041 -1.0486
 3512SOL    HW211436   0.938   0.957   0.930  0.5125  0.4642 -0.9264
 3513SOL     OW11437   5.771   0.714   1.087  0.2176 -0.3116 -0.4479
 3513SOL    HW111438   5.766   0.704   1.187 -1.1848  1.1941 -0.3221
 3513SOL    HW211439   5.780   0.811   1.064  0.9654 -0.6898 -1.7890
 3514SOL     OW11440   4.953   2.317   2.274 -0.0173  0.2292 -0.1611
 3514SOL    HW111441   4.993   2.355   2.191 -0.2609 -2.0807 -1.4174
 3514SOL    HW211442   5.003   2.351   2.353  1.3280  1.1625 -1.3561
 3515SOL     OW11443   1.802   4.652   4.442 -0.3582 -0.8621  0.1203
 3515SOL    HW111444   1.740   4.637   4.519  0.6722 -2.1656  0.7352
 3515SOL    HW211445   1.895   4.661   4.476  0.0376 -0.8150 -0.9364
 3516SOL     OW11446   4.829   0.808   3.367  0.0071  0.0324 -0.4533
 3516SOL    HW111447   4.842   0.829   3.270  1.2026  2.4853  0.1640
 3516SOL    HW211448   4.792   0.715   3.376 -2.3551  0.5347 -3.3297
 3517SOL     OW11449   6.906   2.846   2.305  0.3840 -0.0568  0.1865
 3517SOL    HW111450   6.940   2.766   2.255  1.3660  0.5135 -0.0786
 3517SOL    HW211451   6.911   2.829   2.404  0.5145 -0.3431  0.1302
 3518SOL     OW11452   4.959   1.424   5.813 -0.0962 -1.0115  0.0547
 3518SOL    HW111453   4.883   1.369   5.780 -0.0381 -0.4857 -0.9874
 3518SOL    HW211454   5.019   1.449   5.737 -0.9123  1.6984  0.1802
 3519SOL     OW11455   2.657   2.330   2.363  0.0360 -0.0749 -0.5772
 3519SOL    HW111456   2.752   2.299   2.360 -0.2176 -0.8348 -1.3953
 3519SOL    HW211457   2.598   2.254   2.388 -0.2308  0.8032  1.6877
 3520SOL     OW11458   3.525   6.646   4.529 -0.1942 -0.1714 -0.3926
 3520SOL    HW111459   3.479   6.720   4.579  0.7351  0.3859 -0.3418
 3520SOL    HW211460   3.622   6.668   4.519  0.1179 -1.4281 -0.3059
 3521SOL     OW11461   1.303   0.403   0.050 -0.0530  0.4089 -0.4407
 3521SOL    HW111462   1.291   0.440   0.142 -2.2021 -1.7417  0.2570
 3521SOL    HW211463   1.394   0.428   0.016  1.0593  0.7877  2.4718
 3522SOL     OW11464   1.719   5.631   2.380  0.2638  0.0237 -0.4580
 3522SOL    HW111465   1.654   5.613   2.453 -0.4293  4.5106  0.3209
 3522SOL    HW211466   1.797   5.568   2.388 -0.8068 -1.0885  2.7084
 3523SOL     OW11467   3.769   4.932   6.153 -0.3112  0.0226 -0.3023
 3523SOL    HW111468   3.839   4.943   6.082 -0.5576  1.0638 -0.3991
 3523SOL    HW211469   3.680   4.961   6.118 -0.8977 -1.6403 -0.3017
 3524SOL     OW11470   4.136   1.780   5.899  0.6116 -0.3585 -0.8341
 3524SOL    HW111471   4.084   1.769   5.983  0.4240  3.2221 -0.3172
 3524SOL    HW211472   4.232   1.755   5.915  0.0654 -2.3413 -0.4287
 3525SOL     OW11473   6.583   1.280   5.544 -0.1649 -0.0111 -0.5902
 3525SOL    HW111474   6.603   1.183   5.559  0.1840  0.4483  2.5028
 3525SOL    HW211475   6.484   1.295   5.549 -0.0655  0.1332  1.8516
 3526SOL     OW11476   6.717   6.303   3.135 -0.3392  0.0495 -0.5812
 3526SOL    HW111477   6.739   6.313   3.038  0.4661 -1.5251 -0.5837
 3526SOL    HW211478   6.793   6.336   3.190 -0.5498  0.3714 -0.4745
 3527SOL     OW11479   6.841   3.814   1.122 -0.5709  0.1210  0.7561
 3527SOL    HW111480   6.899   3.750   1.173 -0.4115  0.2002  0.6750
 3527SOL    HW211481   6.746   3.783   1.127 -0.8428  1.0918  2.6187
 3528SOL     OW11482   3.319   5.409   6.967  0.0711  0.5811  0.1825
 3528SOL    HW111483   3.350   5.316   6.947  0.2376  0.7496 -0.3456
 3528SOL    HW211484   3.397   5.471   6.967 -0.2470  1.0028 -1.1147
 3529SOL     OW11485   5.543   4.442   1.425  0.4041 -0.4043 -0.2882
 3529SOL    HW111486   5.545   4.382   1.505 -1.0179 -0.9421 -0.6320
 3529SOL    HW211487   5.449   4.459   1.397  0.8569 -0.0907 -1.7469
 3530SOL     OW11488   6.602   1.132   1.852  0.4989 -0.9675 -1.4736
 3530SOL    HW111489   6.669   1.152   1.781  2.9235 -1.3207  0.5744
 3530SOL    HW211490   6.616   1.039   1.886  1.4290  0.1120  1.4121
 3531SOL     OW11491   3.167   1.288   1.183 -0.0760 -0.0250 -0.0422
 3531SOL    HW111492   3.074   1.325   1.183 -0.4697 -0.9622 -1.1089
 3531SOL    HW211493   3.208   1.301   1.274 -0.7717  1.5095  0.0831
 3532SOL     OW11494   0.743   1.260   2.400 -0.4251 -0.0806 -0.8544
 3532SOL    HW111495   0.768   1.319   2.477 -0.3929 -0.1182 -0.8361
 3532SOL    HW211496   0.661   1.208   2.423 -1.1119  0.7686 -1.2795
 3533SOL     OW11497   7.023   3.276   1.974  0.2015  0.1565 -0.4400
 3533SOL    HW111498   6.943   3.296   1.918 -0.5308 -0.5612  0.3414
 3533SOL    HW211499   7.105   3.309   1.927 -0.5196  0.7009 -1.3451
 3534SOL     OW11500   1.109   0.869   1.688 -0.0501 -0.1231  0.1884
 3534SOL    HW111501   1.088   0.772   1.702 -0.3382 -0.0050  0.6206
 3534SOL    HW211502   1.035   0.912   1.636 -0.2271 -0.0008  0.5387
 3535SOL     OW11503   5.082   0.481   4.156 -0.0993 -0.3534 -0.3111
 3535SOL    HW111504   5.098   0.567   4.106  0.2785  0.0191  0.4252
 3535SOL    HW211505   5.166   0.427   4.156 -0.3021 -0.6677 -0.6716
 3536SOL     OW11506   5.170   2.023   5.477 -0.2164 -0.2224  0.1010
 3536SOL    HW111507   5.077   1.987   5.477 -0.0646 -0.7527  2.1936
 3536SOL    HW211508   5.229   1.963   5.530  1.2971  0.2214 -1.0242
 3537SOL     OW11509   2.740   5.613   1.408  0.0993  0.0415  0.4541
 3537SOL    HW111510   2.780   5.691   1.456  1.0612  0.6450 -1.2253
 3537SOL    HW211511   2.715   5.641   1.315  1.4278 -1.8696 -0.5471
 3538SOL     OW11512   2.009   4.900   1.345 -0.9815  0.0380  0.2258
 3538SOL    HW111513   2.082   4.908   1.277 -0.1503  1.6509  1.2419
 3538SOL    HW211514   2.016   4.811   1.390 -1.4824 -1.0255 -1.6670
 3539SOL     OW11515   3.307   3.323   4.590  0.0283 -0.9685  0.0577
 3539SOL    HW111516   3.401   3.331   4.556 -0.0721  0.1201 -0.0233
 3539SOL    HW211517   3.298   3.374   4.675 -0.3406 -1.6052  0.4076
 3540SOL     OW11518   1.951   0.664   3.449 -0.0688  0.0324 -0.1169
 3540SOL    HW111519   1.872   0.634   3.397  0.0963 -0.3893 -0.1296
 3540SOL    HW211520   1.936   0.647   3.546 -0.5054  1.1064  0.0113
 3541SOL     OW11521   4.039   3.126   3.692 -0.0632  0.4896  0.3369
 3541SOL    HW111522   3.982   3.067   3.635 -0.0864  1.1332 -0.3248
 3541SOL    HW211523   4.028   3.101   3.788 -0.8295  0.0706  0.1451
 3542SOL     OW11524   1.615   4.812   1.468 -0.8205 -0.1726  0.3281
 3542SOL    HW111525   1.594   4.726   1.515  3.1246 -0.7623  1.3617
 3542SOL    HW211526   1.663   4.791   1.383 -0.2464  1.0212  0.3540
 3543SOL     OW11527   5.873   0.738   4.053  0.0577  0.1177 -0.3035
 3543SOL    HW111528   5.812   0.784   4.117 -0.9311  0.2617 -1.3178
 3543SOL    HW211529   5.886   0.643   4.081  0.9501  0.6003  0.9947
 3544SOL     OW11530   2.881   6.496   6.318 -0.2976  0.7213 -0.8946
 3544SOL    HW111531   2.971   6.474   6.279  0.7017  0.1419  1.5160
 3544SOL    HW211532   2.838   6.413   6.351  0.7901  1.4235  2.8218
 3545SOL     OW11533   3.400   4.632   0.815 -0.7455 -0.1693  0.0575
 3545SOL    HW111534   3.301   4.642   0.810 -0.8745 -0.5637  1.4801
 3545SOL    HW211535   3.424   4.569   0.889  0.6342  1.3625  0.9853
 3546SOL     OW11536   0.178   2.665   3.449 -0.0292 -0.8933 -0.4147
 3546SOL    HW111537   0.132   2.707   3.527  0.3598 -0.6548 -0.3100
 3546SOL    HW211538   0.176   2.729   3.372 -1.2390 -1.4927 -0.9066
 3547SOL     OW11539   4.861   4.734   3.779  0.5375 -0.0368 -0.9727
 3547SOL    HW111540   4.920   4.694   3.850 -0.0226 -0.1769 -0.5810
 3547SOL    HW211541   4.787   4.671   3.757  0.1872  0.3891 -1.0233
 3548SOL     OW11542   5.119   2.963   4.554  0.0630  0.1354 -0.1403
 3548SOL    HW111543   5.133   2.916   4.641 -0.6683 -1.0161 -0.6235
 3548SOL    HW211544   5.207   2.973   4.508  0.5761  1.4357  1.0374
 3549SOL     OW11545   4.206   4.666   0.812  0.5503 -0.3076 -0.7963
 3549SOL    HW111546   4.288   4.614   0.787 -0.1053 -1.2178 -1.0884
 3549SOL    HW211547   4.193   4.741   0.748  1.6290  0.3902 -0.2404
 3550SOL     OW11548   5.778   0.651   2.377 -0.0911  0.4418 -0.7121
 3550SOL    HW111549   5.704   0.588   2.356 -0.7147  1.2329 -0.9380
 3550SOL    HW211550   5.865   0.612   2.346 -0.5771  0.1035 -1.6707
 3551SOL     OW11551   2.472   0.635   0.894 -0.7541 -0.0025 -0.3360
 3551SOL    HW111552   2.450   0.726   0.857 -2.4200 -0.1580  0.2228
 3551SOL    HW211553   2.458   0.566   0.823 -0.4601  0.0662 -0.4628
 3552SOL     OW11554   5.932   5.193   2.848  0.2295  0.9476  0.3470
 3552SOL    HW111555   5.972   5.281   2.873 -1.0712  1.0903  2.1052
 3552SOL    HW211556   5.880   5.157   2.925  0.6786 -1.3608 -0.3406
 3553SOL     OW11557   5.656   2.656   4.208  0.4846  0.1384  0.2835
 3553SOL    HW111558   5.623   2.647   4.302  1.2274  1.8369  0.7279
 3553SOL    HW211559   5.590   2.613   4.146 -0.2428 -0.5946  1.5209
 3554SOL     OW11560   3.708   4.976   6.459 -0.7647  0.2961 -0.1932
 3554SOL    HW111561   3.716   4.914   6.537  0.7622  0.7470  0.0389
 3554SOL    HW211562   3.749   4.934   6.379 -0.8220  0.5104 -0.3354
 3555SOL     OW11563   0.360   2.298   6.131 -0.3316 -0.3957  0.1466
 3555SOL    HW111564   0.333   2.304   6.035  0.8220  2.7031 -0.1016
 3555SOL    HW211565   0.394   2.206   6.150 -1.3472 -1.3385 -2.1605
 3556SOL     OW11566   4.200   1.084   0.488  0.6520 -0.4476 -0.3746
 3556SOL    HW111567   4.155   0.998   0.512 -1.7400  0.8403  0.0297
 3556SOL    HW211568   4.137   1.143   0.438  1.9144  1.4425  0.1335
 3557SOL     OW11569   3.021   0.729   3.954  0.1263  0.5065 -0.2920
 3557SOL    HW111570   2.932   0.766   3.930 -0.5497  0.2908  1.7134
 3557SOL    HW211571   3.083   0.736   3.875 -1.9422 -0.3605 -2.0897
 3558SOL     OW11572   0.311   0.431   6.055 -0.8510  0.1009 -0.3881
 3558SOL    HW111573   0.245   0.399   5.987  0.1747 -0.5227 -1.1135
 3558SOL    HW211574   0.332   0.357   6.119 -2.3624  0.8897  1.1079
 3559SOL     OW11575   6.769   6.296   4.692 -0.1387  0.8694  0.1173
 3559SOL    HW111576   6.834   6.330   4.624 -0.0916 -0.8886 -0.7703
 3559SOL    HW211577   6.795   6.203   4.718 -0.2252  1.4403  2.4883
 3560SOL     OW11578   5.728   6.098   1.242 -0.3240 -0.0371  0.2888
 3560SOL    HW111579   5.821   6.064   1.259 -0.2378  0.2243  0.3545
 3560SOL    HW211580   5.663   6.023   1.249 -0.0627 -0.3215 -0.2667
 3561SOL     OW11581   0.182   6.252   1.665 -0.4306 -0.2849  0.5630
 3561SOL    HW111582   0.095   6.207   1.645  0.7888 -2.1322 -1.0177
 3561SOL    HW211583   0.181   6.345   1.627 -0.6452 -1.3669 -2.3613
 3562SOL     OW11584   2.174   0.956   5.224  0.4534 -0.0221 -0.4836
 3562SOL    HW111585   2.265   0.994   5.243 -0.1899  1.9106 -1.0298
 3562SOL    HW211586   2.165   0.943   5.125 -0.4670  1.5538 -0.6417
 3563SOL     OW11587   3.760   4.237   1.701  0.0290  0.4063  0.1743
 3563SOL    HW111588   3.718   4.262   1.615  0.6654  0.7395 -0.0456
 3563SOL    HW211589   3.729   4.145   1.728 -1.6200  1.0381  0.5465
 3564SOL     OW11590   0.251   4.287   1.073  0.2300  0.1292 -0.8231
 3564SOL    HW111591   0.224   4.248   0.985 -2.6855  1.6884 -0.7421
 3564SOL    HW211592   0.209   4.236   1.147  3.6362 -1.9395 -0.0938
 3565SOL     OW11593   0.628   1.231   6.361  0.1887 -0.1767  0.1367
 3565SOL    HW111594   0.566   1.219   6.438  0.0156 -1.4091 -0.1736
 3565SOL    HW211595   0.613   1.158   6.294  0.9443  0.3640 -0.6484
 3566SOL     OW11596   0.152   5.700   6.037  0.1198  0.4401 -0.3608
 3566SOL    HW111597   0.126   5.748   6.122 -2.8578 -0.4454 -0.6763
 3566SOL    HW211598   0.167   5.767   5.965 -0.3174  1.0667  0.1165
 3567SOL     OW11599   1.645   0.936   1.202 -0.4931  0.1195 -0.8492
 3567SOL    HW111600   1.736   0.971   1.179 -0.5041  1.1388  0.5587
 3567SOL    HW211601   1.576   1.003   1.177 -0.5762  0.8373  1.1062
 3568SOL     OW11602   5.146   6.065   4.732  0.0609 -0.1035 -0.1230
 3568SOL    HW111603   5.156   6.117   4.817 -0.2415  0.5197 -0.4602
 3568SOL    HW211604   5.219   5.998   4.725  0.8793  0.7466 -0.0020
 3569SOL     OW11605   3.012   3.614   2.715 -0.2328  0.4035  0.3103
 3569SOL    HW111606   3.063   3.671   2.779  2.1360 -0.5973 -0.5703
 3569SOL    HW211607   2.966   3.540   2.765 -1.1646  1.5078  1.1522
 3570SOL     OW11608   0.546   0.815   5.279 -0.0310  0.1280  0.4326
 3570SOL    HW111609   0.580   0.759   5.203 -1.2382  0.7106 -0.5860
 3570SOL    HW211610   0.596   0.793   5.362  2.7806  0.9311 -0.9331
 3571SOL     OW11611   3.212   2.092   4.382  0.0959 -0.0634 -0.0574
 3571SOL    HW111612   3.287   2.044   4.428 -1.3936 -1.2586  1.2588
 3571SOL    HW211613   3.138   2.108   4.447 -1.0356  0.5875 -1.4435
 3572SOL     OW11614   5.766   4.619   1.137  0.3093 -0.0959 -0.0406
 3572SOL    HW111615   5.819   4.698   1.106  0.1806  0.0062  0.0000
 3572SOL    HW211616   5.771   4.614   1.237 -0.5704  0.4916  0.0423
 3573SOL     OW11617   6.973   5.791   4.307  0.0408 -0.0474  0.0556
 3573SOL    HW111618   7.043   5.725   4.281  0.5518 -0.0071  1.2664
 3573SOL    HW211619   6.888   5.743   4.330 -0.5379 -0.0567 -1.9783
 3574SOL     OW11620   2.740   2.927   6.388 -0.1986  0.2206 -0.2929
 3574SOL    HW111621   2.817   2.866   6.407  0.1249  0.7449  0.1274
 3574SOL    HW211622   2.683   2.888   6.316 -0.2763 -0.8140  0.3092
 3575SOL     OW11623   4.899   0.928   4.843 -0.1633  0.1002  0.4726
 3575SOL    HW111624   4.910   0.830   4.854  1.6237  0.5326  3.7173
 3575SOL    HW211625   4.953   0.959   4.765 -0.8575 -1.4527 -0.6766
 3576SOL     OW11626   0.588   3.110   6.784  0.9400  0.6411  0.4678
 3576SOL    HW111627   0.492   3.105   6.811  0.6387  2.9308  0.0657
 3576SOL    HW211628   0.644   3.055   6.846 -0.7256 -1.8247 -0.0871
 3577SOL     OW11629   1.446   2.765   3.819  0.3606  0.4168  0.0354
 3577SOL    HW111630   1.473   2.711   3.898  0.7104 -0.6495 -0.7894
 3577SOL    HW211631   1.527   2.786   3.764 -0.0774 -0.2307 -0.8774
 3578SOL     OW11632   4.221   3.587   0.838 -0.8296  0.2118  0.1363
 3578SOL    HW111633   4.175   3.593   0.749 -0.3473 -1.0278 -0.2169
 3578SOL    HW211634   4.240   3.491   0.859 -0.1328  0.5640  1.1675
 3579SOL     OW11635   0.367   4.133   4.231 -0.4324 -0.0780  0.5449
 3579SOL    HW111636   0.432   4.202   4.200  1.6330 -1.7844  0.8596
 3579SOL    HW211637   0.384   4.113   4.328 -0.9351 -1.0893  0.4382
 3580SOL     OW11638   6.236   4.990   2.972 -0.2291  0.1265 -0.1862
 3580SOL    HW111639   6.284   5.040   3.044  0.0793 -0.0358 -0.2781
 3580SOL    HW211640   6.150   4.955   3.008 -1.2981  2.1715 -0.5663
 3581SOL     OW11641   1.550   0.843   4.251 -0.6293 -0.8081  0.0371
 3581SOL    HW111642   1.607   0.762   4.265 -1.1785 -1.2646 -0.3173
 3581SOL    HW211643   1.474   0.843   4.316  0.0779  0.1002  0.8988
 3582SOL     OW11644   4.490   6.105   5.896  0.6788  0.3396 -0.1065
 3582SOL    HW111645   4.417   6.051   5.938  0.7138 -0.0002 -0.4687
 3582SOL    HW211646   4.450   6.186   5.852  0.6544  0.7408  0.6448
 3583SOL     OW11647   0.738   4.617   0.754  0.6159  0.4124  0.0356
 3583SOL    HW111648   0.787   4.629   0.667  1.1068  1.3254  0.4298
 3583SOL    HW211649   0.712   4.706   0.790  2.2611  0.2183  1.8588
 3584SOL     OW11650   5.603   4.564   5.650  0.0468  0.3190 -0.0431
 3584SOL    HW111651   5.692   4.592   5.614 -0.5696  0.7877 -1.3036
 3584SOL    HW211652   5.593   4.465   5.640  1.2052 -0.0560  2.0057
 3585SOL     OW11653   4.003   1.510   2.497 -0.1570  0.2720 -0.1908
 3585SOL    HW111654   4.010   1.541   2.402 -0.4645  0.8979 -0.0139
 3585SOL    HW211655   3.918   1.458   2.509 -0.0976  0.1568 -0.2652
 3586SOL     OW11656   0.763   3.672   5.985  0.1344 -0.1041 -0.1795
 3586SOL    HW111657   0.845   3.633   5.944 -0.4331 -0.2339 -1.2120
 3586SOL    HW211658   0.788   3.753   6.039  0.9170 -0.0681 -0.5841
 3587SOL     OW11659   1.897   0.977   6.094 -0.1699 -0.4091 -0.0885
 3587SOL    HW111660   1.843   1.027   6.161  0.2189 -0.1832  0.0617
 3587SOL    HW211661   1.986   1.022   6.083  0.3329 -1.2919  0.3336
 3588SOL     OW11662   5.122   3.553   4.639 -0.2136  0.2725  0.0867
 3588SOL    HW111663   5.080   3.580   4.725  0.2070 -1.2010  0.7966
 3588SOL    HW211664   5.054   3.508   4.581  0.2001 -1.7192  1.0568
 3589SOL     OW11665   0.651   1.715   5.792 -0.1251  0.0689  0.1055
 3589SOL    HW111666   0.558   1.686   5.812 -0.0084 -0.2594  0.1905
 3589SOL    HW211667   0.680   1.783   5.860  0.6692 -1.8706  1.8472
 3590SOL     OW11668   4.321   6.335   5.303 -0.0435 -0.0076  0.1397
 3590SOL    HW111669   4.229   6.306   5.329  0.2335 -0.6814  0.4003
 3590SOL    HW211670   4.331   6.330   5.203 -0.5618  0.9215  0.0303
 3591SOL     OW11671   6.756   2.160   1.185  0.0259 -0.2431 -0.2920
 3591SOL    HW111672   6.678   2.148   1.247  0.6520 -0.6902  0.4266
 3591SOL    HW211673   6.723   2.164   1.091 -0.7065 -3.6674 -0.3355
 3592SOL     OW11674   0.505   6.529   1.033  0.3394 -0.0284 -0.4597
 3592SOL    HW111675   0.567   6.587   1.086 -0.9717  0.5857  0.4482
 3592SOL    HW211676   0.559   6.471   0.971  1.8287  0.1484  0.6133
 3593SOL     OW11677   4.921   2.927   5.939  0.5298  0.3381  0.3581
 3593SOL    HW111678   4.898   2.830   5.951  0.1801  0.1082 -1.6926
 3593SOL    HW211679   5.005   2.948   5.989  0.4291 -0.9337  1.1096
 3594SOL     OW11680   5.415   4.484   5.385 -0.3705  0.0314 -0.2712
 3594SOL    HW111681   5.340   4.540   5.419  0.0540  1.6741 -1.8426
 3594SOL    HW211682   5.495   4.495   5.445 -0.7603 -0.0935  0.2719
 3595SOL     OW11683   4.469   0.310   5.707 -0.5586 -0.4431  0.6827
 3595SOL    HW111684   4.506   0.298   5.615 -1.2119  0.2976  0.3090
 3595SOL    HW211685   4.372   0.287   5.707 -0.4680 -0.8379  1.2874
 3596SOL     OW11686   1.702   1.441   1.709 -0.7372 -0.0394 -0.4438
 3596SOL    HW111687   1.613   1.398   1.723 -0.2722 -1.4826 -1.7335
 3596SOL    HW211688   1.689   1.531   1.667 -1.7097  1.1074  2.1165
 3597SOL     OW11689   4.237   5.481   4.381 -0.1002  0.6135  0.0370
 3597SOL    HW111690   4.244   5.503   4.284  2.0899 -0.1279 -0.0269
 3597SOL    HW211691   4.242   5.566   4.435 -0.6000  0.9622 -0.4573
 3598SOL     OW11692   6.139   4.882   3.717  0.0718 -0.1829  0.0237
 3598SOL    HW111693   6.103   4.946   3.786 -1.8030 -1.2384  0.1133
 3598SOL    HW211694   6.235   4.862   3.736 -0.5632 -0.9898  2.8163
 3599SOL     OW11695   3.139   1.270   6.409 -0.1564  0.0443  0.3387
 3599SOL    HW111696   3.156   1.368   6.414  1.0926 -0.1413  0.0188
 3599SOL    HW211697   3.049   1.254   6.367 -0.9761  1.0566  1.6222
 3600SOL     OW11698   2.285   4.004   0.675 -0.2393  0.3807  0.4310
 3600SOL    HW111699   2.323   4.027   0.764 -1.3211  1.4370  0.6459
 3600SOL    HW211700   2.187   4.027   0.674 -0.5636 -0.8960 -0.5704
 3601SOL     OW11701   3.237   0.029   6.426  0.0163 -0.6628  0.1588
 3601SOL    HW111702   3.266  -0.031   6.501  0.6928 -1.6941 -0.8858
 3601SOL    HW211703   3.181  -0.024   6.361 -0.0126  0.0421 -0.4002
 3602SOL     OW11704   2.059   1.383   0.209  0.1550 -0.4875 -0.0738
 3602SOL    HW111705   2.025   1.388   0.115 -0.0844  0.5108  0.0513
 3602SOL    HW211706   2.141   1.440   0.218 -0.9211  1.0130  0.7557
 3603SOL     OW11707   0.716   0.679   0.163  0.0915  0.5924 -0.1870
 3603SOL    HW111708   0.800   0.625   0.165 -0.2167 -0.1099 -2.7794
 3603SOL    HW211709   0.637   0.618   0.171 -0.2114  0.9464 -0.4483
 3604SOL     OW11710   6.201   0.264   5.339 -0.5306  0.2118  0.1764
 3604SOL    HW111711   6.196   0.359   5.368  0.4753  0.6305 -0.8952
 3604SOL    HW211712   6.132   0.210   5.386 -2.0564  1.7391 -0.2081
 3605SOL     OW11713   6.114   0.554   4.294  0.6638  0.5317 -0.2787
 3605SOL    HW111714   6.076   0.491   4.226 -1.0697  2.3541 -1.1320
 3605SOL    HW211715   6.043   0.579   4.360  1.3829  1.3358  0.2132
 3606SOL     OW11716   1.769   2.304   2.162 -0.3618  0.3241  0.9830
 3606SOL    HW111717   1.843   2.243   2.189 -0.7506  0.2798  1.9840
 3606SOL    HW211718   1.806   2.380   2.108  0.2383 -0.3315  0.4643
 3607SOL     OW11719   6.571   1.455   4.287 -0.0832  0.4102  0.6212
 3607SOL    HW111720   6.615   1.440   4.199 -2.3983  0.4643 -0.6292
 3607SOL    HW211721   6.627   1.416   4.360  0.2926 -2.7107 -1.1947
 3608SOL     OW11722   4.659   2.617   6.144 -0.3018 -0.1282  0.6427
 3608SOL    HW111723   4.609   2.600   6.059 -0.1906 -0.1334  0.5781
 3608SOL    HW211724   4.594   2.625   6.220 -0.6478  2.5893  0.1650
 3609SOL     OW11725   3.651   6.731   5.363 -0.1622 -0.3151  0.6274
 3609SOL    HW111726   3.553   6.746   5.350  0.1384  1.5602  0.2964
 3609SOL    HW211727   3.679   6.768   5.452  0.2384 -0.9860  0.7912
 3610SOL     OW11728   0.284   5.418   6.478  0.9689  0.2596  0.3633
 3610SOL    HW111729   0.329   5.490   6.530  0.7104  1.1301 -0.5965
 3610SOL    HW211730   0.352   5.351   6.448  1.3316  0.5460  0.5468
 3611SOL     OW11731   6.235   3.381   5.022 -0.1005  0.6083 -0.0882
 3611SOL    HW111732   6.207   3.379   4.926  0.4031 -2.4385 -0.2771
 3611SOL    HW211733   6.335   3.383   5.027 -0.1318  2.0392  0.4432
 3612SOL     OW11734   4.010   0.827   2.366 -0.8130  0.5722  0.3579
 3612SOL    HW111735   4.072   0.797   2.293 -0.8654 -1.3060  1.0188
 3612SOL    HW211736   3.916   0.815   2.336 -0.8337  0.2363  0.5461
 3613SOL     OW11737   4.943   3.211   2.196  0.3873 -0.0112  0.4448
 3613SOL    HW111738   4.954   3.304   2.162  3.6922 -0.9851 -1.6723
 3613SOL    HW211739   4.885   3.159   2.134  0.0151  0.1979  0.6211
 3614SOL     OW11740   2.421   5.856   1.036  0.1531 -0.1237  0.4639
 3614SOL    HW111741   2.363   5.777   1.055 -0.1318  0.3681  1.7224
 3614SOL    HW211742   2.508   5.825   0.997 -0.2699 -0.9895  0.1848
 3615SOL     OW11743   4.986   2.701   0.025 -0.3299  0.1951  0.2966
 3615SOL    HW111744   4.963   2.755  -0.056 -0.3938 -1.4914 -0.8628
 3615SOL    HW211745   5.085   2.686   0.028 -0.5187 -1.3613 -0.5714
 3616SOL     OW11746   2.995   1.694   2.279 -0.0197  0.5981 -0.2329
 3616SOL    HW111747   2.957   1.722   2.367  0.2863 -0.2735  0.1885
 3616SOL    HW211748   3.043   1.607   2.289 -3.0015 -1.4358 -1.9689
 3617SOL     OW11749   4.574   4.821   4.632  0.0696  1.0662  0.3157
 3617SOL    HW111750   4.494   4.767   4.607  0.4940  0.6963 -0.2664
 3617SOL    HW211751   4.555   4.872   4.716 -0.6002  0.6063  0.4492
 3618SOL     OW11752   0.620   6.669   4.705 -0.0790 -0.3727  0.0666
 3618SOL    HW111753   0.577   6.582   4.680  0.1528 -0.6299  0.5502
 3618SOL    HW211754   0.611   6.684   4.803  1.6608 -0.8529  0.3322
 3619SOL     OW11755   0.826   1.524   1.616  0.1991  0.3254 -0.0285
 3619SOL    HW111756   0.752   1.563   1.671  0.0915  1.5537 -0.9943
 3619SOL    HW211757   0.858   1.592   1.550  0.0815 -1.1938 -1.7296
 3620SOL     OW11758   4.179   5.249   5.329  0.2439 -0.0085  0.1029
 3620SOL    HW111759   4.150   5.203   5.412 -1.2195 -1.1975 -1.0116
 3620SOL    HW211760   4.178   5.184   5.253 -1.5155  1.7097 -1.4529
 3621SOL     OW11761   3.653   2.885   3.617 -0.2800 -0.7580 -0.5675
 3621SOL    HW111762   3.633   2.885   3.519 -0.3429  2.2141 -0.6415
 3621SOL    HW211763   3.567   2.890   3.669 -0.1653  0.2552 -0.4660
 3622SOL     OW11764   3.995   6.268   0.749 -0.6227  0.3166 -0.4450
 3622SOL    HW111765   3.994   6.173   0.720  2.3766 -0.6960  2.1225
 3622SOL    HW211766   4.055   6.321   0.689  1.3987 -0.5573  0.7142
 3623SOL     OW11767   0.721   6.136   6.549 -0.5053 -0.4987  0.3645
 3623SOL    HW111768   0.793   6.117   6.482 -0.1525  0.1701  0.5459
 3623SOL    HW211769   0.681   6.050   6.579 -1.2444 -0.7876 -1.3138
 3624SOL     OW11770   2.397   1.716   1.563 -0.0378  0.3042 -0.5597
 3624SOL    HW111771   2.347   1.719   1.477 -0.0687 -0.2326 -0.5666
 3624SOL    HW211772   2.336   1.686   1.637 -0.4316  2.3140 -0.0245
 3625SOL     OW11773   5.350   3.233   2.361  0.1897  0.2011 -0.2264
 3625SOL    HW111774   5.365   3.332   2.352  3.0373  0.0899  1.9497
 3625SOL    HW211775   5.316   3.197   2.275 -0.2863  2.9492 -1.3120
 3626SOL     OW11776   6.971   3.166   6.209 -0.1021  0.1178  0.8419
 3626SOL    HW111777   7.067   3.159   6.237 -0.1715 -1.7751  0.7510
 3626SOL    HW211778   6.965   3.216   6.122  1.0523 -1.4896 -0.2109
 3627SOL     OW11779   2.325   1.826   4.818  0.0711  0.7442 -0.1173
 3627SOL    HW111780   2.348   1.863   4.908 -2.3634  0.8764  0.5225
 3627SOL    HW211781   2.278   1.897   4.764 -2.3014 -0.5279  0.1535
 3628SOL     OW11782   6.220   2.060   2.348 -0.5904 -0.2216  0.1264
 3628SOL    HW111783   6.311   2.043   2.386 -1.0194 -0.5238  1.0350
 3628SOL    HW211784   6.166   1.976   2.351 -0.8924 -0.0558 -0.4479
 3629SOL     OW11785   0.226   1.909   5.284 -0.0729 -0.2085  0.1685
 3629SOL    HW111786   0.208   1.961   5.368 -0.7313 -0.8102  0.4072
 3629SOL    HW211787   0.142   1.901   5.231 -0.6526 -3.2052  1.3799
 3630SOL     OW11788   6.712   3.837   2.970 -0.2240 -0.1758  0.0807
 3630SOL    HW111789   6.728   3.777   2.891  0.8466  1.8684 -1.3436
 3630SOL    HW211790   6.778   3.815   3.042 -1.0326 -1.8841  0.3523
 3631SOL     OW11791   2.121   6.187   2.298  0.8571 -0.7639  0.4805
 3631SOL    HW111792   2.111   6.285   2.285 -0.1571 -0.8306  0.6731
 3631SOL    HW211793   2.085   6.139   2.218 -0.7787 -1.0295  1.3341
 3632SOL     OW11794   4.841   3.954   1.944  1.0817  0.5568 -0.0801
 3632SOL    HW111795   4.822   3.859   1.969  0.3100  0.7309  0.0040
 3632SOL    HW211796   4.769   3.988   1.883  1.7897  0.8293 -0.7847
 3633SOL     OW11797   5.449   4.788   5.101  0.2205  0.1767 -0.3260
 3633SOL    HW111798   5.534   4.748   5.067  0.4028 -0.1787  0.5371
 3633SOL    HW211799   5.375   4.769   5.037  0.6953  0.1047 -0.8607
 3634SOL     OW11800   3.213   5.667   0.271 -0.6439 -0.0969  0.0842
 3634SOL    HW111801   3.189   5.608   0.194  1.9441 -1.4115  0.1694
 3634SOL    HW211802   3.226   5.610   0.353  0.2245  0.8095  0.5960
 3635SOL     OW11803   1.085   5.944   2.912  0.3025  0.0831 -0.1083
 3635SOL    HW111804   1.152   5.922   2.841 -1.5442 -0.2034 -1.8520
 3635SOL    HW211805   1.072   6.043   2.917 -0.7146  0.0362 -1.3479
 3636SOL     OW11806   0.415   5.643   4.191 -0.6366 -0.2282  0.4364
 3636SOL    HW111807   0.419   5.721   4.253  0.2734 -1.3879  1.9040
 3636SOL    HW211808   0.481   5.655   4.117 -2.2428  1.5152 -0.8417
 3637SOL     OW11809   3.916   6.971   2.760  0.0874 -0.6770  0.4219
 3637SOL    HW111810   3.974   7.052   2.751 -0.3238 -0.4163  0.0784
 3637SOL    HW211811   3.971   6.894   2.792  0.5474 -0.3424  0.4465
 3638SOL     OW11812   2.588   2.496   3.804 -0.6432 -0.0719  0.4533
 3638SOL    HW111813   2.543   2.415   3.768 -1.0279 -0.7085  2.2452
 3638SOL    HW211814   2.533   2.577   3.783 -0.4634 -0.2977 -0.9881
 3639SOL     OW11815   3.398   3.895   3.954  0.5166  0.0017 -0.0935
 3639SOL    HW111816   3.443   3.807   3.968  0.9526  0.4662  1.6623
 3639SOL    HW211817   3.463   3.958   3.912  0.4165 -0.3056 -0.7217
 3640SOL     OW11818   5.581   4.139   0.782 -0.6617 -0.4387 -0.3681
 3640SOL    HW111819   5.610   4.102   0.870  1.7562  0.8424 -0.5259
 3640SOL    HW211820   5.530   4.223   0.796 -0.8492 -0.5805 -0.1897
 3641SOL     OW11821   5.427   2.610   2.478 -0.5651  0.4635 -0.0210
 3641SOL    HW111822   5.374   2.694   2.474 -0.6945  0.4086  0.4481
 3641SOL    HW211823   5.523   2.632   2.496 -0.4936  0.5420 -0.4911
 3642SOL     OW11824   3.304   4.954   6.486 -0.0258 -0.2539  0.2040
 3642SOL    HW111825   3.278   4.882   6.551 -1.1576  0.1818  0.2495
 3642SOL    HW211826   3.254   5.037   6.506  0.1347  0.0979 -0.8030
 3643SOL     OW11827   3.730   4.842   5.185  0.0719 -0.1270 -0.4541
 3643SOL    HW111828   3.635   4.811   5.187  0.3467 -1.1525 -1.7296
 3643SOL    HW211829   3.779   4.808   5.265 -1.2203  2.6605  1.7121
 3644SOL     OW11830   1.656   2.146   1.884 -0.3224 -0.4469 -0.0510
 3644SOL    HW111831   1.754   2.154   1.904 -0.6130 -0.9675  1.7595
 3644SOL    HW211832   1.629   2.219   1.822  1.3873 -0.8589 -1.3824
 3645SOL     OW11833   0.353   3.180   5.823  0.4872  0.1659  0.3519
 3645SOL    HW111834   0.373   3.270   5.861  0.2337  0.7060 -0.7376
 3645SOL    HW211835   0.280   3.137   5.875 -0.3579  1.1910  0.0449
 3646SOL     OW11836   3.107   6.140   6.045 -0.3799  0.0881  0.5145
 3646SOL    HW111837   3.088   6.139   5.946  1.0070  1.2670  0.2012
 3646SOL    HW211838   3.064   6.221   6.086 -0.4290 -0.0651  0.7642
 3647SOL     OW11839   5.059   0.994   2.877  0.4063  0.1654  0.3188
 3647SOL    HW111840   4.992   1.018   2.947 -1.0557  0.8574 -1.2207
 3647SOL    HW211841   5.081   0.896   2.884 -1.0928 -0.1760  0.6339
 3648SOL     OW11842   6.207   6.239   4.969  0.1900  0.6944  0.6585
 3648SOL    HW111843   6.215   6.156   5.025  0.5645 -0.5994 -1.2103
 3648SOL    HW211844   6.111   6.264   4.961 -0.0965 -0.5207 -0.0320
 3649SOL     OW11845   3.323   3.841   6.543 -0.1939 -0.3655  0.0637
 3649SOL    HW111846   3.407   3.880   6.505 -1.6847  2.0649 -0.9912
 3649SOL    HW211847   3.343   3.752   6.584  3.1330  0.6438  0.9848
 3650SOL     OW11848   3.732   5.699   0.359  0.3042 -0.3197  0.2713
 3650SOL    HW111849   3.692   5.784   0.325 -0.5461  0.4138  2.8689
 3650SOL    HW211850   3.670   5.623   0.341 -0.6720  0.2412  1.1772
 3651SOL     OW11851   2.118   4.002   5.904 -0.1791  0.5817  0.0497
 3651SOL    HW111852   2.125   4.067   5.828 -0.9063  0.1630 -0.3869
 3651SOL    HW211853   2.113   3.909   5.867  2.8469  0.0720  0.7161
 3652SOL     OW11854   6.568   3.382   2.676  0.1075  0.1052 -0.1070
 3652SOL    HW111855   6.617   3.300   2.644  1.0874  0.8445 -0.5629
 3652SOL    HW211856   6.482   3.355   2.718  0.2097 -1.1329 -0.6420
 3653SOL     OW11857   0.861   1.682   6.476  0.0020 -0.2464 -0.1925
 3653SOL    HW111858   0.957   1.658   6.460  0.1800  0.0892  0.3657
 3653SOL    HW211859   0.821   1.619   6.542  0.3563  0.6994  0.9636
 3654SOL     OW11860   4.847   6.659   0.416  0.0750  0.4512  0.2327
 3654SOL    HW111861   4.873   6.628   0.508  1.0023  0.8153  0.1105
 3654SOL    HW211862   4.849   6.759   0.413  1.8573  0.4304 -0.6461
 3655SOL     OW11863   2.150   1.278   4.785 -0.4197  0.2930  0.8501
 3655SOL    HW111864   2.216   1.327   4.842  1.1433 -0.4218 -0.2793
 3655SOL    HW211865   2.175   1.289   4.689 -1.3377 -0.8809  0.4516
 3656SOL     OW11866   0.740   0.930   6.751 -0.0152  0.0035  0.0322
 3656SOL    HW111867   0.696   0.913   6.839 -2.1765  2.5187 -0.4528
 3656SOL    HW211868   0.671   0.950   6.682  1.7555  1.0712 -1.5368
 3657SOL     OW11869   6.512   4.408   0.112 -0.3665 -0.0789 -0.3461
 3657SOL    HW111870   6.590   4.421   0.174  0.9396  0.0155 -1.9418
 3657SOL    HW211871   6.544   4.369   0.026 -2.0857  0.0777 -1.0960
 3658SOL     OW11872   1.102   4.633   5.893  0.7804  0.0081 -0.5070
 3658SOL    HW111873   1.139   4.540   5.886  0.3542 -0.1992 -0.0996
 3658SOL    HW211874   1.062   4.660   5.805 -0.6651 -0.8835 -0.1558
 3659SOL     OW11875   0.953   1.641   0.380  0.6084  0.7923 -0.1269
 3659SOL    HW111876   0.996   1.596   0.458  0.5046 -2.8697 -1.9594
 3659SOL    HW211877   1.023   1.669   0.315  0.5556 -0.1749 -0.6283
 3660SOL     OW11878   4.974   6.256   3.291 -0.1065  0.2897  0.2789
 3660SOL    HW111879   4.994   6.312   3.211 -0.6039 -0.9515 -0.7532
 3660SOL    HW211880   4.875   6.254   3.307  0.0396  1.0796  1.3506
 3661SOL     OW11881   2.131   0.870   4.452  0.1455 -0.6670  0.0975
 3661SOL    HW111882   2.183   0.795   4.492  0.2034  0.0610  1.4467
 3661SOL    HW211883   2.041   0.875   4.494 -0.0412 -0.2909 -0.3351
 3662SOL     OW11884   3.489   2.945   5.833  0.2219 -0.5124 -0.0765
 3662SOL    HW111885   3.543   2.928   5.750  1.4987 -0.6916  0.7723
 3662SOL    HW211886   3.532   3.016   5.888 -0.1835 -0.9342  0.8126
 3663SOL     OW11887   1.226   1.483   5.923  0.2684 -0.3755  0.4608
 3663SOL    HW111888   1.269   1.565   5.960  0.3388  0.2397 -0.9065
 3663SOL    HW211889   1.183   1.505   5.835 -0.4563 -1.6115  0.4864
 3664SOL     OW11890   1.912   3.631   1.898 -0.2176  0.3138  1.0190
 3664SOL    HW111891   1.970   3.551   1.913 -0.4685  0.2192  1.4874
 3664SOL    HW211892   1.907   3.685   1.982 -1.4165 -0.0722  1.2160
 3665SOL     OW11893   1.051   5.803   4.996  0.8790 -0.1644  0.0891
 3665SOL    HW111894   1.083   5.716   4.961  1.2639 -0.1475  0.3856
 3665SOL    HW211895   1.025   5.863   4.920  0.9237 -0.4191 -0.1263
 3666SOL     OW11896   1.346   3.423   3.828 -0.2702 -0.1324  0.3601
 3666SOL    HW111897   1.359   3.402   3.925 -0.3980 -1.5414  0.1012
 3666SOL    HW211898   1.290   3.352   3.786 -0.6395  0.7251 -0.6475
 3667SOL     OW11899   3.871   6.052   1.879  0.5069 -0.2224 -0.2688
 3667SOL    HW111900   3.780   6.085   1.904  1.8335  3.0413  0.7446
 3667SOL    HW211901   3.899   6.094   1.792  1.4940 -0.3142 -0.0040
 3668SOL     OW11902   5.456   0.173   6.776 -0.3799  0.3721 -0.4304
 3668SOL    HW111903   5.513   0.153   6.855 -0.8604 -1.3493 -0.4690
 3668SOL    HW211904   5.514   0.198   6.698  0.2428 -0.0941 -0.1223
 3669SOL     OW11905   6.518   6.594   2.837  0.3597 -0.5298  0.1022
 3669SOL    HW111906   6.486   6.571   2.929 -2.6824 -0.2136 -0.7522
 3669SOL    HW211907   6.528   6.694   2.829 -1.5317 -0.3391 -0.4395
 3670SOL     OW11908   4.109   6.172   1.397 -0.0256  0.1328 -0.6687
 3670SOL    HW111909   4.189   6.231   1.392  0.6655 -0.6617  0.4313
 3670SOL    HW211910   4.129   6.085   1.352 -0.1540 -0.1895 -0.1117
 3671SOL     OW11911   6.901   6.794   4.253 -0.1049 -0.3839 -0.5705
 3671SOL    HW111912   6.922   6.891   4.261 -0.7625 -0.3836  2.6355
 3671SOL    HW211913   6.955   6.754   4.179  2.6268  1.7688  0.1106
 3672SOL     OW11914   4.062   6.698   2.674  0.3552  0.8977  0.0669
 3672SOL    HW111915   4.060   6.607   2.631  1.5307  0.9209 -0.0725
 3672SOL    HW211916   3.977   6.713   2.723  0.6031 -0.7937  1.1149
 3673SOL     OW11917   0.870   0.994   2.160 -0.7163 -0.2666 -0.0748
 3673SOL    HW111918   0.939   1.059   2.194 -1.7563  0.4255  0.7892
 3673SOL    HW211919   0.864   1.001   2.061 -0.3359  0.4954 -0.0537
 3674SOL     OW11920   6.639   4.651   0.350  0.2190  0.1193  0.7216
 3674SOL    HW111921   6.559   4.678   0.295  0.7779  1.3794  0.4955
 3674SOL    HW211922   6.674   4.564   0.316  0.7500  1.0298 -1.1809
 3675SOL     OW11923   0.019   1.780   0.908 -0.5803  0.0540  0.2800
 3675SOL    HW111924   0.068   1.858   0.948 -1.1972 -0.1712  1.5220
 3675SOL    HW211925  -0.080   1.795   0.917 -0.7345 -0.0712 -1.0668
 3676SOL     OW11926   0.601   6.418   6.333 -0.2962 -0.7342 -0.1738
 3676SOL    HW111927   0.626   6.382   6.243  0.4614 -0.2589 -0.1671
 3676SOL    HW211928   0.684   6.447   6.381 -0.9278  2.4026 -0.7489
 3677SOL     OW11929   6.994   6.895   5.981  0.6913 -0.4500 -0.5582
 3677SOL    HW111930   7.003   6.795   5.982 -0.8176 -0.6066 -0.3451
 3677SOL    HW211931   7.040   6.932   6.062  3.0205 -0.7496 -1.6488
 3678SOL     OW11932   3.567   0.155   3.508  0.4452  0.6646 -0.4221
 3678SOL    HW111933   3.608   0.136   3.598 -0.6608 -2.6952 -0.5032
 3678SOL    HW211934   3.471   0.183   3.521  0.0594 -0.5653 -0.5559
 3679SOL     OW11935   3.664   7.021   1.509 -0.2115  0.1817 -0.3255
 3679SOL    HW111936   3.598   7.086   1.471 -0.1738  0.7923  0.6137
 3679SOL    HW211937   3.749   7.069   1.530 -0.1608 -0.1777  0.3287
 3680SOL     OW11938   5.886   2.248   2.414 -0.3388 -0.1020  0.4860
 3680SOL    HW111939   5.983   2.269   2.423 -0.0614 -1.3529  0.6066
 3680SOL    HW211940   5.855   2.273   2.322  0.1581  0.0719  0.3660
 3681SOL     OW11941   2.317   4.857   3.161 -0.2287  0.1116 -0.2353
 3681SOL    HW111942   2.285   4.924   3.229 -0.7740  0.0634 -0.4366
 3681SOL    HW211943   2.310   4.765   3.200 -0.7480  0.0648 -0.4220
 3682SOL     OW11944   5.843   1.310   1.015 -0.7638  0.0634 -0.2477
 3682SOL    HW111945   5.907   1.290   1.089  1.1535  2.6512 -1.0663
 3682SOL    HW211946   5.871   1.261   0.933 -0.1911  0.6788 -0.4275
 3683SOL     OW11947   5.493   1.518   1.687  0.5488 -0.8847  0.3619
 3683SOL    HW111948   5.488   1.495   1.590  0.0208 -1.5048  0.5335
 3683SOL    HW211949   5.542   1.446   1.736  3.1992  0.6430  0.1818
 3684SOL     OW11950   2.701   5.973   6.638 -0.6131 -0.7504  0.1159
 3684SOL    HW111951   2.692   5.924   6.551 -1.6385  0.0449 -0.2447
 3684SOL    HW211952   2.654   6.061   6.632 -0.4289 -0.5438  1.3745
 3685SOL     OW11953   0.313   5.374   1.914 -0.2092  0.4602 -0.2043
 3685SOL    HW111954   0.246   5.443   1.889 -1.2817 -0.3107  0.4669
 3685SOL    HW211955   0.371   5.410   1.988 -0.1232  0.9859 -0.5195
 3686SOL     OW11956   0.980   5.626   0.841  0.0861 -0.2624  0.0252
 3686SOL    HW111957   0.916   5.699   0.866  0.1240  0.2391 -1.2323
 3686SOL    HW211958   1.073   5.664   0.834  0.4524 -0.8688  1.2965
 3687SOL     OW11959   6.454   4.841   4.065 -0.0256 -0.2268  0.2246
 3687SOL    HW111960   6.432   4.748   4.038 -1.6655  0.5544 -1.3785
 3687SOL    HW211961   6.417   4.905   3.997  1.8008  1.5676  0.8022
 3688SOL     OW11962   6.075   1.824   2.336 -0.1288 -0.1700  0.3216
 3688SOL    HW111963   6.005   1.892   2.359  0.3608 -0.3135  2.5049
 3688SOL    HW211964   6.037   1.756   2.275 -1.5270  0.4369  0.4854
 3689SOL     OW11965   5.342   3.321   5.567 -0.4813  0.0711  0.1343
 3689SOL    HW111966   5.442   3.331   5.565 -0.4281 -0.6091 -1.5488
 3689SOL    HW211967   5.302   3.364   5.486 -1.4804 -0.5604  0.2773
 3690SOL     OW11968   0.284   6.869   3.297  0.7839  0.3468 -0.3031
 3690SOL    HW111969   0.221   6.945   3.283 -0.5114 -0.9182 -1.6271
 3690SOL    HW211970   0.305   6.861   3.394 -0.3658  1.3633  0.0575
 3691SOL     OW11971   4.769   0.065   7.021 -0.3057 -0.3571 -0.0385
 3691SOL    HW111972   4.764   0.048   7.120 -0.0187 -1.3305 -0.1830
 3691SOL    HW211973   4.833   0.141   7.004  0.4756 -0.8912  0.4574
 3692SOL     OW11974   4.284   2.774   6.593 -0.0837  0.4705 -0.4145
 3692SOL    HW111975   4.379   2.749   6.573 -0.9295 -2.8971 -0.8142
 3692SOL    HW211976   4.275   2.793   6.691  0.8476  0.0073 -0.2276
 3693SOL     OW11977   2.025   2.179   2.199  0.0396 -0.5745  0.2522
 3693SOL    HW111978   2.071   2.154   2.285 -1.3054  1.2960  1.5852
 3693SOL    HW211979   2.088   2.230   2.141  0.8203 -1.4625  0.2904
 3694SOL     OW11980   6.379   6.974   2.206 -0.0351 -0.2470 -0.3837
 3694SOL    HW111981   6.296   6.965   2.150  0.3607 -1.0569 -0.8652
 3694SOL    HW211982   6.367   7.046   2.273 -0.6027  0.6351 -1.4036
 3695SOL     OW11983   5.526   3.387   6.421  0.2733  0.0493 -0.4828
 3695SOL    HW111984   5.434   3.395   6.384 -0.2146 -1.2489  0.3844
 3695SOL    HW211985   5.541   3.293   6.453  1.3572  0.6251  0.7808
 3696SOL     OW11986   4.306   6.408   5.002 -0.0677 -0.0270 -0.9760
 3696SOL    HW111987   4.301   6.508   5.006 -1.2159  0.2615 -5.0550
 3696SOL    HW211988   4.214   6.370   4.991  0.0304 -1.9086  2.9911
 3697SOL     OW11989   0.752   4.455   1.307 -0.6879 -0.0174  0.1185
 3697SOL    HW111990   0.744   4.484   1.402 -1.1925 -3.2630  1.2222
 3697SOL    HW211991   0.662   4.455   1.264 -0.8741 -0.9730  0.4905
 3698SOL     OW11992   0.915   0.957   1.536  0.0793  0.3247  0.4705
 3698SOL    HW111993   0.936   1.052   1.513 -1.5068  0.4047 -0.8595
 3698SOL    HW211994   0.821   0.936   1.509  0.1598 -1.4300  1.3961
 3699SOL     OW11995   2.104   1.474   4.285 -0.0490  0.3587  0.3500
 3699SOL    HW111996   2.128   1.391   4.234 -0.6084  1.2136 -1.3964
 3699SOL    HW211997   2.157   1.551   4.250 -2.0220  1.4012 -0.5505
 3700SOL     OW11998   0.731   3.358   5.886  0.3573  0.1102  0.3285
 3700SOL    HW111999   0.730   3.333   5.789 -0.3380 -1.3131  0.6702
 3700SOL    HW212000   0.738   3.275   5.942 -0.0522  0.8425  1.5124
 3701SOL     OW12001   6.343   0.279   2.854  0.2935 -0.1033 -0.0874
 3701SOL    HW112002   6.273   0.267   2.925  0.3660  0.5139  0.0882
 3701SOL    HW212003   6.383   0.190   2.832  0.6369 -0.2378  1.0187
 3702SOL     OW12004   6.295   5.133   4.281  0.0311  0.3927 -0.1149
 3702SOL    HW112005   6.377   5.189   4.293  0.2816  0.6566 -2.6835
 3702SOL    HW212006   6.215   5.186   4.309  0.4957  1.0780 -0.0529
 3703SOL     OW12007   1.986   2.265   3.699 -0.1533  0.0540 -0.1670
 3703SOL    HW112008   1.950   2.320   3.623  0.9458  0.9122 -0.0964
 3703SOL    HW212009   2.029   2.183   3.663  0.1604  0.3442 -0.4649
 3704SOL     OW12010   6.286   0.832   0.619 -0.1209 -0.1298  0.2373
 3704SOL    HW112011   6.370   0.791   0.654  0.2817  0.7547  0.3235
 3704SOL    HW212012   6.271   0.803   0.524 -0.1051 -0.8618  0.4567
 3705SOL     OW12013   0.881   2.759   3.662  0.2921 -0.0899  0.0209
 3705SOL    HW112014   0.811   2.824   3.692 -0.2988  0.3360 -2.1345
 3705SOL    HW212015   0.955   2.809   3.616  0.6533 -0.7927 -0.1733
 3706SOL     OW12016   0.555   6.787   0.621 -0.0650  0.1585  0.2992
 3706SOL    HW112017   0.580   6.738   0.538  3.6396 -0.2358  1.4552
 3706SOL    HW212018   0.503   6.726   0.681 -4.8713  1.1222 -2.3971
 3707SOL     OW12019   1.594   4.848   4.769  0.3202  0.3060 -0.0329
 3707SOL    HW112020   1.613   4.937   4.725  0.5477 -0.2112 -1.0236
 3707SOL    HW212021   1.665   4.830   4.837  1.0481  0.3004 -0.7630
 3708SOL     OW12022   2.019   3.805   0.419 -0.2389 -0.5591  0.2570
 3708SOL    HW112023   2.024   3.716   0.373  0.6537 -0.4383  0.0856
 3708SOL    HW212024   2.000   3.792   0.516 -1.2265 -0.8699  0.0282
 3709SOL     OW12025   1.718   0.603   2.050 -0.8757 -0.9088  0.5192
 3709SOL    HW112026   1.707   0.505   2.034  0.4726 -0.8275 -1.1250
 3709SOL    HW212027   1.762   0.645   1.970 -0.6462  0.8906  1.5528
 3710SOL     OW12028   1.955   2.771   5.229 -0.1591  0.0616  0.5146
 3710SOL    HW112029   2.044   2.804   5.198  0.1099 -0.8222  0.3316
 3710SOL    HW212030   1.945   2.788   5.327 -0.3930  1.4809  0.2744
 3711SOL     OW12031   1.623   3.487   5.836  0.0867  0.2353 -0.3344
 3711SOL    HW112032   1.592   3.582   5.831 -2.9269 -0.6088  0.5883
 3711SOL    HW212033   1.589   3.445   5.920  1.3815 -1.7045 -0.7032
 3712SOL     OW12034   3.495   5.389   3.680 -0.4425  0.2747  0.3302
 3712SOL    HW112035   3.446   5.476   3.683 -0.3264  0.3361  0.4773
 3712SOL    HW212036   3.430   5.314   3.668 -0.5436  0.3797  0.2139
 3713SOL     OW12037   0.227   0.925   6.941  0.1484 -0.5850 -0.5603
 3713SOL    HW112038   0.295   0.852   6.940  0.3410 -0.4182  0.0198
 3713SOL    HW212039   0.136   0.885   6.932  0.1203 -1.0640  1.5051
 3714SOL     OW12040   0.677   4.005   0.865  0.3092  0.3415  0.2716
 3714SOL    HW112041   0.702   4.089   0.914 -1.2707 -0.6257  2.9210
 3714SOL    HW212042   0.587   4.017   0.823  0.2968  0.1159  0.2364
 3715SOL     OW12043   5.495   3.987   4.024  0.5674 -0.2133  0.0350
 3715SOL    HW112044   5.566   4.054   4.003 -1.0525  0.9274 -2.2198
 3715SOL    HW212045   5.468   3.997   4.120  2.2114  0.4874  0.4669
 3716SOL     OW12046   1.076   6.342   5.965 -0.0637 -0.4705  0.0116
 3716SOL    HW112047   1.122   6.431   5.959 -1.3124  0.2053  0.1306
 3716SOL    HW212048   1.104   6.286   5.887  0.5087  0.1443 -0.2407
 3717SOL     OW12049   5.077   6.700   1.676  0.6470 -0.1398  0.1711
 3717SOL    HW112050   4.982   6.695   1.706  1.0055 -0.4770  1.2896
 3717SOL    HW212051   5.109   6.795   1.683  0.1386  0.1510 -1.0874
 3718SOL     OW12052   5.785   0.088   0.204 -0.1204 -0.2531  0.3818
 3718SOL    HW112053   5.783   0.114   0.300  2.0323 -0.4426  0.5150
 3718SOL    HW212054   5.877   0.103   0.167  0.0485 -3.3321 -0.7412
 3719SOL     OW12055   3.639   4.215   0.838  0.0007  0.8347 -0.3142
 3719SOL    HW112056   3.665   4.302   0.879 -1.1830  0.0257  2.3827
 3719SOL    HW212057   3.699   4.143   0.871  0.5230  0.4644 -1.9705
 3720SOL     OW12058   5.717   1.116   6.649  0.0861  0.6799  0.4866
 3720SOL    HW112059   5.625   1.156   6.640 -0.4441 -0.2078  1.5824
 3720SOL    HW212060   5.724   1.035   6.591 -0.7466 -0.7167  2.2139
 3721SOL     OW12061   1.046   0.114   4.122  0.0702 -0.1543  0.4691
 3721SOL    HW112062   1.132   0.064   4.121  0.6161  0.7615  0.4251
 3721SOL    HW212063   0.974   0.057   4.162  0.4393 -1.3273 -0.5113
 3722SOL     OW12064   3.396   4.003   6.913 -0.8118 -0.5384  0.4745
 3722SOL    HW112065   3.481   4.000   6.965  0.5493  2.8022 -1.2663
 3722SOL    HW212066   3.322   4.033   6.972  0.4634  2.0714  0.8784
 3723SOL     OW12067   2.618   5.339   6.262  0.2791 -0.0996 -0.1779
 3723SOL    HW112068   2.662   5.378   6.343 -0.1961 -0.6940  0.3793
 3723SOL    HW212069   2.668   5.258   6.232 -0.0525 -0.3941  0.0589
 3724SOL     OW12070   6.362   3.837   4.507  0.4818  0.0330  0.9638
 3724SOL    HW112071   6.402   3.920   4.467  2.5267 -0.6627  1.4611
 3724SOL    HW212072   6.279   3.812   4.456  1.2795  0.9158 -0.8564
 3725SOL     OW12073   5.161   6.807   1.982 -0.5726  0.8548 -0.6500
 3725SOL    HW112074   5.246   6.809   1.930  0.2808  2.1207  0.7185
 3725SOL    HW212075   5.084   6.804   1.918  0.4609 -0.5598 -1.9134
 3726SOL     OW12076   6.115   2.337   5.415  0.1356 -0.3765  0.0247
 3726SOL    HW112077   6.097   2.286   5.330  0.6475 -0.7355  0.1303
 3726SOL    HW212078   6.055   2.303   5.487  1.0227 -1.4128  0.3121
 3727SOL     OW12079   6.498   3.619   2.980  0.4659 -0.0398  0.1141
 3727SOL    HW112080   6.565   3.688   2.955 -0.9579  0.4578 -2.7781
 3727SOL    HW212081   6.422   3.663   3.029  1.0578 -0.1877  1.2038
 3728SOL     OW12082   1.477   5.262   0.801  0.4751  0.1310 -0.1323
 3728SOL    HW112083   1.420   5.190   0.841  2.1415 -1.8779 -1.2093
 3728SOL    HW212084   1.513   5.321   0.874 -1.0761  0.0431  0.7513
 3729SOL     OW12085   6.879   0.008   3.867  0.3075 -0.0663  0.3877
 3729SOL    HW112086   6.795  -0.026   3.823  0.4508 -1.5907  1.1991
 3729SOL    HW212087   6.863   0.100   3.902 -1.6637 -0.9977  2.1362
 3730SOL     OW12088   6.270   5.805   3.991 -0.1015  0.4885  0.8472
 3730SOL    HW112089   6.283   5.883   4.053 -0.1833  1.4047 -0.2639
 3730SOL    HW212090   6.334   5.733   4.015  0.1510  0.9859  1.7378
 3731SOL     OW12091   4.095   2.222   0.992  0.4865  0.2054  0.2565
 3731SOL    HW112092   3.996   2.235   1.001  0.3145  0.0446 -1.1527
 3731SOL    HW212093   4.142   2.307   1.016  0.0652  0.0842  1.5848
 3732SOL     OW12094   4.604   1.912   6.727 -0.4809  0.3513 -0.1906
 3732SOL    HW112095   4.651   1.826   6.706  0.6589  0.4658  1.6273
 3732SOL    HW212096   4.586   1.916   6.825 -0.9249  1.9966 -0.3133
 3733SOL     OW12097   2.253   2.514   1.219 -0.4676  0.1224 -0.1522
 3733SOL    HW112098   2.224   2.418   1.220  1.6287 -0.6307 -2.2669
 3733SOL    HW212099   2.178   2.570   1.184 -1.7027 -0.7054  1.0430
 3734SOL     OW12100   5.917   2.892   2.833  0.1685  0.4868  0.4185
 3734SOL    HW112101   5.897   2.982   2.795  1.6972  1.0885  0.9557
 3734SOL    HW212102   5.947   2.901   2.928 -0.4265 -0.6796  0.7442
 3735SOL     OW12103   2.541   6.694   3.595  0.5333  0.2721 -0.3356
 3735SOL    HW112104   2.572   6.690   3.500  0.5022  1.7945 -0.4309
 3735SOL    HW212105   2.450   6.653   3.602  0.1876  0.8571 -1.1388
 3736SOL     OW12106   0.372   0.490   5.084  0.6785 -0.1152  0.2064
 3736SOL    HW112107   0.354   0.418   5.151 -0.6761  0.6791  0.7334
 3736SOL    HW212108   0.420   0.450   5.005 -1.4345 -1.9743 -0.2500
 3737SOL     OW12109   5.561   1.109   5.420  0.1089  0.0200 -0.1870
 3737SOL    HW112110   5.570   1.109   5.321  1.5450 -0.0581 -0.0707
 3737SOL    HW212111   5.558   1.203   5.453 -0.0476  0.0472 -0.2788
 3738SOL     OW12112   7.011   0.970   1.905 -0.4684 -0.2273  0.2654
 3738SOL    HW112113   6.951   0.892   1.920  0.4566 -0.3688  4.1603
 3738SOL    HW212114   7.033   1.014   1.992  0.1435  3.6468 -1.6011
 3739SOL     OW12115   2.210   0.521   0.947  0.2933 -0.0208 -0.7803
 3739SOL    HW112116   2.305   0.553   0.951  0.0029  0.7539  1.5708
 3739SOL    HW212117   2.209   0.421   0.948  1.0904 -0.0320 -0.6143
 3740SOL     OW12118   6.486   4.973   6.139 -0.1317 -0.0370 -1.0949
 3740SOL    HW112119   6.534   5.016   6.215 -2.1825 -0.2879  0.4505
 3740SOL    HW212120   6.541   4.899   6.101  0.8010 -0.1589  0.4208
 3741SOL     OW12121   6.236   4.990   0.884 -0.0982  0.0088  0.1950
 3741SOL    HW112122   6.291   4.944   0.954 -0.9277 -0.4889  0.5371
 3741SOL    HW212123   6.200   5.075   0.922  2.0094  1.3670 -0.6601
 3742SOL     OW12124   5.437   6.741   1.848 -0.1451  0.2286 -0.6816
 3742SOL    HW112125   5.511   6.796   1.810  0.7610 -0.2610  0.3348
 3742SOL    HW212126   5.467   6.697   1.932 -0.7995 -1.9229 -1.4972
 3743SOL     OW12127   1.812   4.023   1.669  0.0270  0.1137 -0.0713
 3743SOL    HW112128   1.856   3.963   1.736  2.6122  0.4175 -1.3302
 3743SOL    HW212129   1.764   3.968   1.601  1.4398 -0.5470 -0.5868
 3744SOL     OW12130   5.991   5.083   2.543  0.2262  0.3067  0.0634
 3744SOL    HW112131   6.036   5.016   2.603 -1.3167 -1.6392 -0.8213
 3744SOL    HW212132   5.997   5.174   2.584 -2.0336 -1.0691  4.0578
 3745SOL     OW12133   5.850   1.673   3.466 -0.3420 -0.0316 -0.6316
 3745SOL    HW112134   5.858   1.576   3.486 -2.5742 -0.2224 -0.4597
 3745SOL    HW212135   5.937   1.718   3.486 -0.0830 -1.5052  2.0492
 3746SOL     OW12136   5.050   1.687   5.370  0.2585  0.5561 -0.6150
 3746SOL    HW112137   5.106   1.680   5.288  1.7199 -0.2026  0.3966
 3746SOL    HW212138   5.001   1.775   5.370  2.4528  1.8547 -0.9391
 3747SOL     OW12139   3.043   4.641   5.984 -0.1541 -0.7181 -0.3277
 3747SOL    HW112140   3.105   4.628   5.906  1.1238 -1.1685  0.7365
 3747SOL    HW212141   3.034   4.739   6.004 -0.1486 -0.6282 -0.7608
 3748SOL     OW12142   6.046   1.317   2.429  0.9874 -0.9706 -0.0567
 3748SOL    HW112143   5.953   1.349   2.446  2.4047  3.0470  1.4054
 3748SOL    HW212144   6.079   1.353   2.342  1.4049 -1.8437 -0.2760
 3749SOL     OW12145   5.182   6.511   0.357  0.3778 -0.0495 -0.6389
 3749SOL    HW112146   5.281   6.498   0.362  0.3693  0.3386  1.4459
 3749SOL    HW212147   5.161   6.609   0.353  0.0713 -0.1412 -1.4824
 3750SOL     OW12148   6.249   3.929   1.811  0.3140  0.0601 -0.1625
 3750SOL    HW112149   6.217   3.889   1.896 -1.0362  0.3043 -0.5279
 3750SOL    HW212150   6.299   3.860   1.758  3.8572  0.6345  2.0473
 3751SOL     OW12151   2.717   5.191   1.250  0.6986 -0.4312 -0.0676
 3751SOL    HW112152   2.771   5.271   1.226  0.9713 -0.1273  1.4746
 3751SOL    HW212153   2.730   5.170   1.347 -0.0337 -1.8338 -0.2551
 3752SOL     OW12154   0.087   0.499   0.094 -0.7946  0.2683 -0.2707
 3752SOL    HW112155   0.026   0.499   0.015  0.2315 -0.5317 -1.0965
 3752SOL    HW212156   0.109   0.405   0.120 -0.0331  0.5392  0.1066
 3753SOL     OW12157   0.261   0.691   6.199 -0.1136  0.6160 -0.0103
 3753SOL    HW112158   0.280   0.609   6.145  0.7342  0.2871  0.7579
 3753SOL    HW212159   0.304   0.682   6.289 -0.7327  1.5399  0.3947
 3754SOL     OW12160   6.714   6.753   0.130 -0.6501 -0.3145  0.0345
 3754SOL    HW112161   6.691   6.771   0.226 -1.6046 -1.1870 -0.0183
 3754SOL    HW212162   6.813   6.745   0.120 -0.4215  1.3408  0.6632
 3755SOL     OW12163   6.100   3.482   4.531 -0.0735 -0.0386 -0.3977
 3755SOL    HW112164   6.051   3.567   4.552 -1.0321 -0.8080  0.6254
 3755SOL    HW212165   6.103   3.469   4.432  1.0546  1.7169 -0.6443
 3756SOL     OW12166   2.322   0.959   6.786  0.4844  0.5631  0.0261
 3756SOL    HW112167   2.278   0.869   6.781  1.1581  0.2768 -1.1760
 3756SOL    HW212168   2.369   0.968   6.874  3.3026 -1.6939 -1.0648
 3757SOL     OW12169   2.525   3.319   5.905 -0.0220 -0.3996  0.0453
 3757SOL    HW112170   2.582   3.360   5.833  0.1527 -0.1865  0.3064
 3757SOL    HW212171   2.563   3.342   5.994 -0.7051  0.0084  0.2327
 3758SOL     OW12172   2.148   2.325   0.392 -0.5038  0.6010 -0.0984
 3758SOL    HW112173   2.219   2.375   0.443  0.2929  1.1326 -1.6719
 3758SOL    HW212174   2.133   2.236   0.434  0.2032  0.9705  0.9862
 3759SOL     OW12175   6.410   4.761   0.206  0.4588 -0.2342  0.5881
 3759SOL    HW112176   6.349   4.682   0.198  1.8180 -1.4160  1.2985
 3759SOL    HW212177   6.370   4.828   0.269 -0.9741 -0.0752 -0.4522
 3760SOL     OW12178   2.777   1.521   0.175 -0.1385 -0.2674 -0.0911
 3760SOL    HW112179   2.809   1.582   0.248  0.3322  0.6551 -1.0356
 3760SOL    HW212180   2.795   1.563   0.087 -1.2303 -1.1092 -0.7411
 3761SOL     OW12181   5.105   0.138   6.385  0.0585  0.2538  0.1437
 3761SOL    HW112182   5.180   0.128   6.319  0.0786 -1.6245  0.3743
 3761SOL    HW212183   5.028   0.185   6.342  0.5702  0.2537 -0.7942
 3762SOL     OW12184   1.765   5.144   1.845  0.2646 -0.3744  0.2957
 3762SOL    HW112185   1.850   5.115   1.889 -0.8745 -1.1461  2.0863
 3762SOL    HW212186   1.747   5.085   1.765  0.4214 -1.5123  1.0773
 3763SOL     OW12187   2.217   1.872   0.202 -0.0522 -0.1209 -0.1596
 3763SOL    HW112188   2.255   1.965   0.200  0.9953 -0.5382 -0.2838
 3763SOL    HW212189   2.250   1.821   0.123  0.6604 -1.0825  0.7275
 3764SOL     OW12190   4.032   6.429   2.533 -0.1164 -0.4808  0.3936
 3764SOL    HW112191   4.093   6.351   2.551 -1.1398 -1.2651  0.5479
 3764SOL    HW212192   3.938   6.396   2.525 -0.7971  0.9642  2.0695
 3765SOL     OW12193   6.149   0.861   5.324 -0.8578 -0.3194  0.4994
 3765SOL    HW112194   6.131   0.813   5.238  1.8820 -0.2670 -0.1910
 3765SOL    HW212195   6.112   0.954   5.319  0.7539  0.3056 -1.4158
 3766SOL     OW12196   1.750   1.002   5.300 -0.2291  0.0124 -0.1282
 3766SOL    HW112197   1.762   0.938   5.376  0.2982 -0.2753 -0.4430
 3766SOL    HW212198   1.655   0.999   5.268 -0.6666  0.7534  1.0549
 3767SOL     OW12199   1.095   5.717   1.589 -0.0921 -0.1370 -0.2243
 3767SOL    HW112200   1.037   5.718   1.508 -3.2877  1.1544  1.8745
 3767SOL    HW212201   1.119   5.811   1.615 -1.4085 -0.2738  1.7269
 3768SOL     OW12202   4.450   5.164   0.845 -0.1751 -0.3633  0.0045
 3768SOL    HW112203   4.469   5.220   0.764 -0.1384  0.2671  0.4471
 3768SOL    HW212204   4.449   5.222   0.926  0.3724 -1.0846  0.5356
 3769SOL     OW12205   2.424   6.565   5.019  0.5355 -0.3150  0.2260
 3769SOL    HW112206   2.520   6.535   5.024  0.7677  0.5187  1.3397
 3769SOL    HW212207   2.408   6.636   5.089 -0.9392 -0.5527  0.1596
 3770SOL     OW12208   2.275   4.027   1.945 -0.2067  0.2473 -0.1018
 3770SOL    HW112209   2.221   3.953   1.986  1.2971 -0.2195  1.1336
 3770SOL    HW212210   2.313   3.997   1.858  0.2129 -0.3696  0.2898
 3771SOL     OW12211   5.458   0.860   4.376  0.0528  0.1786 -0.0721
 3771SOL    HW112212   5.423   0.787   4.435 -1.2189 -0.5985 -1.7003
 3771SOL    HW212213   5.398   0.940   4.384 -0.9062 -0.3903 -1.2366
 3772SOL     OW12214   3.533   1.798   3.093 -0.6437  0.6737 -0.3730
 3772SOL    HW112215   3.471   1.726   3.061 -0.0436 -0.5794  1.1318
 3772SOL    HW212216   3.614   1.800   3.035 -0.2030 -0.5983  0.1685
 3773SOL     OW12217   6.001   2.215   3.642 -0.1530 -0.0582  0.4590
 3773SOL    HW112218   5.931   2.150   3.672 -2.7355  2.3487  0.0765
 3773SOL    HW212219   6.018   2.282   3.714  1.9229 -0.6463  0.5754
 3774SOL     OW12220   1.015   1.400   3.034  0.1959  0.1845 -0.1582
 3774SOL    HW112221   0.945   1.331   3.056  0.6675 -0.1606  0.2946
 3774SOL    HW212222   1.098   1.380   3.086  0.5806  0.6816 -0.5762
 3775SOL     OW12223   5.857   3.811   3.583  0.5117 -0.1449 -0.3963
 3775SOL    HW112224   5.780   3.805   3.520  0.1777  0.5402 -0.0610
 3775SOL    HW212225   5.837   3.758   3.666  0.4185 -0.0081 -0.3306
 3776SOL     OW12226   4.462   3.105   6.656 -0.1547 -0.4816  0.0510
 3776SOL    HW112227   4.381   3.164   6.658 -0.0595 -0.3631  0.4497
 3776SOL    HW212228   4.509   3.116   6.569  0.5200  0.9284  0.5599
 3777SOL     OW12229   1.105   6.161   3.187 -0.4561  0.6520  0.7327
 3777SOL    HW112230   1.110   6.100   3.108 -0.1736 -1.2179  2.1358
 3777SOL    HW212231   1.158   6.124   3.262 -1.2827  2.0173  2.0577
 3778SOL     OW12232   0.339   0.064   2.598 -0.2011  0.4630  0.0580
 3778SOL    HW112233   0.409   0.026   2.659 -0.2951  0.7731  0.3655
 3778SOL    HW212234   0.364   0.157   2.573 -1.1013  1.0170  1.1585
 3779SOL     OW12235   2.017   3.993   0.758  0.3992  0.7488 -0.7862
 3779SOL    HW112236   1.962   4.054   0.701 -1.6631  0.4296  0.7204
 3779SOL    HW212237   2.019   3.902   0.717 -1.3940  0.4246 -0.2419
 3780SOL     OW12238   2.244   2.542   6.355  0.2208  0.1903 -0.6856
 3780SOL    HW112239   2.258   2.458   6.303  1.7971  0.6211 -1.0226
 3780SOL    HW212240   2.333   2.586   6.371 -0.5122  1.4729  0.0181
 3781SOL     OW12241   3.583   4.971   3.789  0.5126 -0.2806 -0.1635
 3781SOL    HW112242   3.550   5.046   3.732  1.2872  0.9757  0.9628
 3781SOL    HW212243   3.683   4.971   3.790  0.5231 -1.4757 -0.3205
 3782SOL     OW12244   4.438   1.299   1.668  0.4407  0.3289  0.1153
 3782SOL    HW112245   4.414   1.395   1.655  0.1845  0.3803  0.8625
 3782SOL    HW212246   4.353   1.245   1.678  0.5757  0.3724  1.8940
 3783SOL     OW12247   5.988   3.364   6.064  0.1068  0.0220  0.1689
 3783SOL    HW112248   6.075   3.374   6.016  0.8208 -1.7705  1.0156
 3783SOL    HW212249   6.005   3.355   6.162 -1.1816  1.3592  0.5575
 3784SOL     OW12250   4.329   1.617   4.381  0.1769  0.0558  0.4222
 3784SOL    HW112251   4.231   1.620   4.399  0.2287  1.6587  0.6681
 3784SOL    HW212252   4.375   1.562   4.451 -0.5434 -0.6612  0.3291
 3785SOL     OW12253   6.910   1.860   1.448  0.1900 -0.0659 -0.1889
 3785SOL    HW112254   6.937   1.914   1.527 -0.2947 -0.9623  0.6043
 3785SOL    HW212255   6.812   1.843   1.451  0.2479 -0.5227 -0.7228
 3786SOL     OW12256   2.896   0.673   1.924  0.2292  0.6697  0.1809
 3786SOL    HW112257   2.797   0.675   1.933  0.3569  1.6816  1.5403
 3786SOL    HW212258   2.926   0.579   1.907 -0.8399  0.1182  1.2216
 3787SOL     OW12259   3.280   6.691   3.366 -0.8993 -0.4482  0.0799
 3787SOL    HW112260   3.283   6.680   3.465  0.4212  0.0229  0.1152
 3787SOL    HW212261   3.321   6.779   3.341 -1.2077 -0.5646 -0.8858
 3788SOL     OW12262   0.069   2.042   1.644 -0.0614 -0.2438 -0.3452
 3788SOL    HW112263   0.123   2.055   1.561  0.1193 -0.5417 -0.2729
 3788SOL    HW212264   0.112   1.973   1.702 -0.7707 -0.8365 -0.5121
 3789SOL     OW12265   1.271   6.311   2.786 -0.4548 -0.0936 -0.0063
 3789SOL    HW112266   1.270   6.289   2.688 -2.2581  2.5346 -0.6904
 3789SOL    HW212267   1.365   6.313   2.819  0.2556 -0.1894 -1.8957
 3790SOL     OW12268   1.648   3.087   1.960 -0.0878 -0.0951 -0.0819
 3790SOL    HW112269   1.671   3.183   1.977 -1.8458  0.1323  1.2848
 3790SOL    HW212270   1.553   3.070   1.984  0.2927 -2.2870  0.1320
 3791SOL     OW12271   5.660   0.996   3.063  0.1292  0.3246 -0.2496
 3791SOL    HW112272   5.629   0.927   2.998  0.4086 -0.8257  0.8029
 3791SOL    HW212273   5.635   1.087   3.029  0.8806 -0.1743 -2.2818
 3792SOL     OW12274   1.150   5.573   4.604  0.6050  0.0839  0.1487
 3792SOL    HW112275   1.065   5.572   4.552  0.1826  0.5802  0.8276
 3792SOL    HW212276   1.157   5.490   4.658  0.5127  0.0816  0.1575
 3793SOL     OW12277   0.191   5.441   1.446  0.4275 -0.3557 -0.5397
 3793SOL    HW112278   0.289   5.449   1.460 -0.0133  1.4675  2.2759
 3793SOL    HW212279   0.162   5.507   1.377  1.2044 -1.3716 -1.8912
 3794SOL     OW12280   4.129   5.635   4.761 -0.0729 -0.0684 -0.2073
 3794SOL    HW112281   4.179   5.668   4.841 -2.3011  0.4704  1.0522
 3794SOL    HW212282   4.180   5.658   4.678  2.3433 -0.7022  0.9969
 3795SOL     OW12283   4.787   6.913   1.522 -0.2053 -0.3198 -0.0437
 3795SOL    HW112284   4.804   6.907   1.621  2.4981 -1.0479 -0.4766
 3795SOL    HW212285   4.781   6.821   1.483  0.8523 -0.0685 -0.8405
 3796SOL     OW12286   6.156   2.194   0.191  0.2104 -0.7361  0.1109
 3796SOL    HW112287   6.057   2.179   0.196  0.1365 -0.1343  0.6371
 3796SOL    HW212288   6.188   2.231   0.279  1.0576 -1.8036  0.2573
 3797SOL     OW12289   5.082   1.475   4.092 -0.4316 -0.2402  0.2834
 3797SOL    HW112290   5.162   1.534   4.105  0.7357 -1.9132  1.0700
 3797SOL    HW212291   5.017   1.490   4.167  1.6644 -2.6164  2.8147
 3798SOL     OW12292   0.245   3.084   6.604  0.3484 -0.6930  0.1526
 3798SOL    HW112293   0.339   3.075   6.571  0.1987 -1.6763 -0.0277
 3798SOL    HW212294   0.240   3.050   6.698 -0.0998 -1.9191 -0.3070
 3799SOL     OW12295   6.441   0.155   3.732  0.1106 -0.1416 -0.8521
 3799SOL    HW112296   6.390   0.101   3.665  1.9559  0.6814 -3.0690
 3799SOL    HW212297   6.455   0.247   3.696 -1.8310  1.5154  2.2726
 3800SOL     OW12298   3.928   2.434   5.732  0.7595 -0.0057  0.1847
 3800SOL    HW112299   3.903   2.354   5.787  0.6110 -2.2632 -2.9160
 3800SOL    HW212300   4.015   2.418   5.687  0.5586  1.4373 -0.7817
 3801SOL     OW12301   1.699   5.331   4.432 -0.3128 -0.1943 -0.0834
 3801SOL    HW112302   1.620   5.293   4.482 -1.2802 -1.8048 -2.6752
 3801SOL    HW212303   1.783   5.307   4.480 -1.2188 -0.9437  1.2038
 3802SOL     OW12304   0.948   2.555   5.098  0.3110 -0.5550 -0.3083
 3802SOL    HW112305   0.967   2.471   5.148  2.7780  0.3639  0.4402
 3802SOL    HW212306   1.013   2.626   5.126 -1.5991  1.5978 -0.9958
 3803SOL     OW12307   3.771   0.606   1.461 -0.1869  0.0067 -0.3831
 3803SOL    HW112308   3.737   0.517   1.428 -0.5120 -0.7826  1.8806
 3803SOL    HW212309   3.848   0.591   1.522 -1.6023  1.0604  1.7818
 3804SOL     OW12310   6.149   2.952   3.800 -0.1446 -0.5203  0.3214
 3804SOL    HW112311   6.130   3.050   3.802  0.1575 -0.4657  1.0299
 3804SOL    HW212312   6.092   2.907   3.731 -0.9392  0.0134  0.6212
 3805SOL     OW12313   2.397   1.864   7.011  0.1406 -0.5252  0.6517
 3805SOL    HW112314   2.382   1.958   7.042  0.8494 -0.3956  0.6250
 3805SOL    HW212315   2.378   1.858   6.913  1.5075 -0.0477  0.3297
 3806SOL     OW12316   4.707   1.628   2.132  0.4851  0.3305  0.6410
 3806SOL    HW112317   4.687   1.717   2.092  0.1620 -0.0516 -0.0745
 3806SOL    HW212318   4.740   1.639   2.226  2.1361  1.3227 -0.0170
 3807SOL     OW12319   3.415   0.284   4.932 -0.6851 -0.3680  0.3793
 3807SOL    HW112320   3.473   0.364   4.948  0.1399 -1.3347  2.7339
 3807SOL    HW212321   3.331   0.312   4.886  0.5182  1.4759 -0.8066
 3808SOL     OW12322   4.983   1.650   1.022  0.6140 -0.1502  1.0552
 3808SOL    HW112323   5.076   1.649   0.984  0.1427  1.6559 -0.3158
 3808SOL    HW212324   4.984   1.695   1.111  1.1283 -0.6003  1.2808
 3809SOL     OW12325   3.847   2.695   5.818  0.3074 -0.0540 -0.4390
 3809SOL    HW112326   3.874   2.623   5.755 -2.1076 -0.2091 -1.3575
 3809SOL    HW212327   3.883   2.674   5.909  2.9557 -0.3557 -1.4665
 3810SOL     OW12328   2.534   2.497   4.954 -0.0671  0.2857 -0.1425
 3810SOL    HW112329   2.462   2.454   5.009 -0.2268  1.9920  1.0842
 3810SOL    HW212330   2.621   2.449   4.969 -0.3220  0.0997  0.8336
 3811SOL     OW12331   5.003   0.710   5.876 -0.0757  0.3820  0.4883
 3811SOL    HW112332   4.944   0.764   5.936  0.7081  0.5336  1.1307
 3811SOL    HW212333   5.087   0.760   5.857 -1.0584  1.1497 -2.2731
 3812SOL     OW12334   4.009   0.236   6.814 -0.2840  0.5353 -0.3569
 3812SOL    HW112335   3.935   0.296   6.843 -2.0278 -0.2846 -2.7844
 3812SOL    HW212336   4.051   0.273   6.731 -0.2781 -0.7496 -0.9422
 3813SOL     OW12337   4.590   4.326   1.643  0.4079 -0.2764  0.3544
 3813SOL    HW112338   4.534   4.275   1.708 -1.2655  1.9546  0.7879
 3813SOL    HW212339   4.545   4.413   1.622  0.8930 -0.8093 -3.7409
 3814SOL     OW12340   0.418   5.665   0.617 -0.0640  0.3476  0.2780
 3814SOL    HW112341   0.445   5.569   0.624  1.6765  0.8653  1.2761
 3814SOL    HW212342   0.319   5.671   0.606 -0.0937 -1.5904 -0.9511
 3815SOL     OW12343   4.631   2.603   3.391  0.4033  0.4237  0.1319
 3815SOL    HW112344   4.590   2.583   3.479  0.2480 -0.5922 -0.1607
 3815SOL    HW212345   4.570   2.572   3.317  1.3391 -0.4229 -0.3088
 3816SOL     OW12346   7.014   6.865   1.759  0.2427  0.0630 -0.3868
 3816SOL    HW112347   7.086   6.924   1.797 -0.3376  0.5138  0.0362
 3816SOL    HW212348   7.009   6.780   1.812  1.0654 -0.3675 -0.9825
 3817SOL     OW12349   6.618   0.005   5.266  0.5178 -0.1426 -0.4239
 3817SOL    HW112350   6.520  -0.006   5.281  0.1269  1.0607 -1.9279
 3817SOL    HW212351   6.666  -0.011   5.353 -0.8976 -1.6461  0.1382
 3818SOL     OW12352   3.844   1.889   2.035  0.6461  0.2939 -0.1643
 3818SOL    HW112353   3.848   1.958   2.107 -3.0046 -0.2327  0.7314
 3818SOL    HW212354   3.792   1.925   1.957 -1.3948 -1.3351  0.3528
 3819SOL     OW12355   6.390   2.061   6.425  0.3447  0.3585 -0.7079
 3819SOL    HW112356   6.438   2.136   6.470 -2.8305  2.4570 -0.4848
 3819SOL    HW212357   6.303   2.094   6.388 -0.4610 -2.8879 -2.1297
 3820SOL     OW12358   5.110   0.723   4.010 -0.0371  0.2537  0.3290
 3820SOL    HW112359   5.098   0.822   4.017  0.5148  0.3852 -0.4618
 3820SOL    HW212360   5.055   0.688   3.935  1.5825  0.3308 -0.9479
 3821SOL     OW12361   2.181   2.854   6.251 -0.2956  0.2606  0.2730
 3821SOL    HW112362   2.264   2.900   6.280 -0.7746  0.6343  1.1036
 3821SOL    HW212363   2.128   2.827   6.332  0.0895 -1.9871 -0.1636
 3822SOL     OW12364   0.221   3.842   0.357 -0.1079 -0.1649 -0.3222
 3822SOL    HW112365   0.122   3.857   0.362  0.2030  1.9375  0.4959
 3822SOL    HW212366   0.266   3.893   0.430  1.4999 -2.2539  0.2106
 3823SOL     OW12367   2.765   4.714   3.813  0.2055  0.6234  0.2903
 3823SOL    HW112368   2.789   4.801   3.770 -1.8197  1.1651  0.1429
 3823SOL    HW212369   2.680   4.679   3.772  0.3690 -0.8439  1.1364
 3824SOL     OW12370   6.939   2.276   6.770 -0.0899 -0.2044 -0.1435
 3824SOL    HW112371   6.916   2.333   6.691  0.5871  0.2738 -0.0070
 3824SOL    HW212372   7.029   2.234   6.756 -0.8010 -1.7100 -0.4897
 3825SOL     OW12373   6.835   5.347   6.973 -0.2345 -0.0726 -0.4634
 3825SOL    HW112374   6.785   5.261   6.984 -1.0847  0.3304 -1.0901
 3825SOL    HW212375   6.843   5.393   7.061 -1.8177  0.3106 -0.4986
 3826SOL     OW12376   0.441   1.434   6.355 -0.1898 -0.3327  0.0069
 3826SOL    HW112377   0.427   1.451   6.453 -0.0719  0.5620 -0.1273
 3826SOL    HW212378   0.521   1.375   6.343 -0.1430 -0.3633  0.4424
 3827SOL     OW12379   4.658   1.031   1.617  0.3365  0.2768  0.0869
 3827SOL    HW112380   4.754   1.048   1.595  0.4310 -0.5791 -0.2004
 3827SOL    HW212381   4.650   0.947   1.672 -0.3868 -0.7525 -1.4925
 3828SOL     OW12382   3.350   0.843   6.471  0.2944  0.9806  0.3163
 3828SOL    HW112383   3.448   0.860   6.465  0.9114 -1.7100  1.2999
 3828SOL    HW212384   3.334   0.755   6.518 -2.5963  1.5039  0.4977
 3829SOL     OW12385   0.922   5.414   3.307  0.1544  0.2620  0.1069
 3829SOL    HW112386   0.955   5.497   3.261 -0.5132  0.6941  0.3753
 3829SOL    HW212387   0.831   5.392   3.272 -0.2841  0.4885  1.0659
 3830SOL     OW12388   0.131   0.803   4.842 -0.8065 -0.7855 -0.4438
 3830SOL    HW112389   0.162   0.713   4.813  0.2144 -0.9759  1.1061
 3830SOL    HW212390   0.166   0.873   4.780  0.8798 -1.2099 -0.0059
 3831SOL     OW12391   5.373   3.506   0.914  0.0664 -0.0934 -0.5624
 3831SOL    HW112392   5.307   3.478   0.844  0.3167 -3.2503  0.3079
 3831SOL    HW212393   5.459   3.458   0.900  1.8573  2.9479 -0.8892
 3832SOL     OW12394   5.859   5.716   3.897  0.7796  0.0899 -0.2250
 3832SOL    HW112395   5.860   5.798   3.954  0.5691  0.8416 -1.2730
 3832SOL    HW212396   5.780   5.660   3.919 -0.2524  1.2317 -0.9376
 3833SOL     OW12397   0.841   6.323   2.522 -0.5354  0.1490 -0.1320
 3833SOL    HW112398   0.798   6.356   2.438 -1.0731 -0.8876 -0.2820
 3833SOL    HW212399   0.923   6.271   2.499  0.2049  1.1804  0.0921
 3834SOL     OW12400   3.209   1.236   6.676  0.2543  0.1733  0.2770
 3834SOL    HW112401   3.147   1.282   6.740 -0.3499 -1.2909  0.7885
 3834SOL    HW212402   3.169   1.234   6.585 -0.1169 -0.1113  0.4455
 3835SOL     OW12403   3.839   5.093   3.783  0.7952 -0.0010  0.5403
 3835SOL    HW112404   3.909   5.050   3.726  0.4805 -1.0736  0.9523
 3835SOL    HW212405   3.880   5.169   3.833  0.7447  2.0553 -2.2659
 3836SOL     OW12406   3.689   2.490   6.451  0.0196 -0.3554  0.1420
 3836SOL    HW112407   3.626   2.568   6.447  0.4927 -0.0144 -0.9831
 3836SOL    HW212408   3.637   2.405   6.459 -0.5149  0.0363  0.9573
 3837SOL     OW12409   5.163   4.055   1.266 -0.1078 -0.0795 -0.3742
 3837SOL    HW112410   5.096   4.124   1.240 -0.2090 -0.5492 -1.3904
 3837SOL    HW212411   5.128   4.003   1.344 -0.8568 -0.2002 -0.7809
 3838SOL     OW12412   1.370   3.245   5.450  0.0622 -0.9344 -0.4060
 3838SOL    HW112413   1.430   3.321   5.430 -1.7457  0.4850 -0.7331
 3838SOL    HW212414   1.354   3.240   5.549  0.0729 -0.7865 -0.3973
 3839SOL     OW12415   0.078   5.842   5.706 -0.4743  0.0047  0.3477
 3839SOL    HW112416   0.131   5.885   5.779 -1.8826  1.3666  0.6056
 3839SOL    HW212417   0.127   5.853   5.619 -0.0116  0.6353  0.6820
 3840SOL     OW12418   4.440   1.662   3.009  0.4676  0.0239 -0.7296
 3840SOL    HW112419   4.467   1.612   3.091  3.9779  1.6322 -0.7353
 3840SOL    HW212420   4.384   1.741   3.035  1.2483  0.3202  0.0828
 3841SOL     OW12421   3.647   1.898   4.011  0.0076 -0.4324  0.6657
 3841SOL    HW112422   3.678   1.861   3.924  2.0560  0.1980  1.0629
 3841SOL    HW212423   3.676   1.994   4.019 -2.0213  0.1805  1.1633
 3842SOL     OW12424   0.484   5.394   0.623 -0.0561  0.3228 -0.0284
 3842SOL    HW112425   0.563   5.365   0.676  1.6616  2.4226 -1.2416
 3842SOL    HW212426   0.498   5.372   0.526 -0.6687  1.1993 -0.3384
 3843SOL     OW12427   1.310   4.410   0.097 -0.2612  0.0397  0.3161
 3843SOL    HW112428   1.304   4.486   0.161 -1.3348  0.5640 -0.3822
 3843SOL    HW212429   1.325   4.444   0.005 -0.1139 -0.6352  0.0795
 3844SOL     OW12430   1.933   4.748   6.711  0.5591  0.3346 -0.3449
 3844SOL    HW112431   2.004   4.677   6.712 -1.0495 -1.3708  0.3839
 3844SOL    HW212432   1.844   4.704   6.696 -0.6233  2.1044  1.1458
 3845SOL     OW12433   3.980   3.208   2.596 -0.1560 -0.4237 -0.2437
 3845SOL    HW112434   3.926   3.245   2.520 -0.3988 -0.2198  0.0243
 3845SOL    HW212435   3.921   3.155   2.656 -0.0059 -0.4119 -0.0852
 3846SOL     OW12436   6.550   4.457   3.404  0.2113 -0.2170  0.2027
 3846SOL    HW112437   6.552   4.363   3.439 -0.4827 -0.5158 -0.5259
 3846SOL    HW212438   6.608   4.465   3.324  0.3681  0.0134  0.3364
 3847SOL     OW12439   1.677   6.609   1.950  0.0867 -0.0470  0.3747
 3847SOL    HW112440   1.749   6.544   1.923 -0.2940 -0.7887  1.0956
 3847SOL    HW212441   1.661   6.674   1.876  0.7049 -0.5784 -0.2400
 3848SOL     OW12442   2.423   5.061   2.682 -0.1477 -0.3071 -0.0196
 3848SOL    HW112443   2.423   5.001   2.602  1.3136 -1.1057  0.5343
 3848SOL    HW212444   2.357   5.026   2.750 -0.0642 -0.6783 -0.1296
 3849SOL     OW12445   3.835   0.003   5.214  0.7913  0.1896 -0.0031
 3849SOL    HW112446   3.789  -0.061   5.153 -0.1147  0.8840 -0.0776
 3849SOL    HW212447   3.884   0.071   5.160  1.3371 -0.1500  0.0660
 3850SOL     OW12448   1.625   2.411   2.867  0.6161  0.5352 -0.2133
 3850SOL    HW112449   1.682   2.427   2.787  1.3858  0.2848  0.2718
 3850SOL    HW212450   1.529   2.422   2.843  0.7581 -0.7055 -1.4576
 3851SOL     OW12451   3.199   2.822   0.300  0.4122 -0.5562  0.5851
 3851SOL    HW112452   3.155   2.752   0.244 -0.0098 -0.6028  0.9779
 3851SOL    HW212453   3.197   2.795   0.396 -0.0454  0.1426  0.7792
 3852SOL     OW12454   3.061   1.475   5.103  0.0536 -0.0285 -0.2718
 3852SOL    HW112455   3.129   1.402   5.094  0.6226  0.4646 -0.0713
 3852SOL    HW212456   3.062   1.508   5.198 -0.2806  0.1593 -0.3354
 3853SOL     OW12457   1.526   2.573   3.161  0.3370  0.5265  0.2567
 3853SOL    HW112458   1.462   2.499   3.182  0.7557  0.6050  1.9085
 3853SOL    HW212459   1.620   2.540   3.169  0.5218  1.1360  0.6965
 3854SOL     OW12460   2.225   5.085   4.072 -0.3272  0.0155 -0.0458
 3854SOL    HW112461   2.300   5.058   4.132 -0.4375 -4.6765 -1.6235
 3854SOL    HW212462   2.256   5.160   4.012  1.4799  1.2033  2.2360
 3855SOL     OW12463   6.999   3.942   6.369  0.8705  0.2099  0.1060
 3855SOL    HW112464   7.049   3.974   6.449  0.9998  0.9271 -0.2532
 3855SOL    HW212465   7.058   3.947   6.288  0.9698 -1.1564  0.0638
 3856SOL     OW12466   1.381   0.111   6.385 -1.0497 -0.2181 -0.3326
 3856SOL    HW112467   1.340   0.093   6.296 -0.0479 -0.8425 -0.6817
 3856SOL    HW212468   1.449   0.041   6.406  0.2542  1.0744 -0.0264
 3857SOL     OW12469   6.059   0.992   0.601 -0.2206 -0.1175 -0.0174
 3857SOL    HW112470   6.136   0.930   0.617  1.1160  1.4428 -0.0798
 3857SOL    HW212471   6.051   1.011   0.504  1.1279  1.8461  0.1977
 3858SOL     OW12472   5.882   4.858   1.076  0.4490  0.1194  0.5374
 3858SOL    HW112473   5.894   4.923   1.151 -1.0294 -0.3292  1.2020
 3858SOL    HW212474   5.823   4.898   1.006  1.8365  0.5419 -0.4268
 3859SOL     OW12475   1.433   4.139   2.955  0.4486  0.4944  0.1407
 3859SOL    HW112476   1.506   4.190   2.910 -0.4835  0.5754 -1.3417
 3859SOL    HW212477   1.400   4.191   3.034  0.8129  1.2805 -0.2116
 3860SOL     OW12478   1.028   0.760   4.931 -0.4022 -0.0487  0.2680
 3860SOL    HW112479   0.984   0.748   5.020 -2.4202  1.7676 -0.3832
 3860SOL    HW212480   1.023   0.674   4.879 -0.8158 -0.6264  1.2371
 3861SOL     OW12481   4.318   4.492   0.169  0.1179  0.3637 -0.2459
 3861SOL    HW112482   4.235   4.455   0.127 -0.0714  0.0605  0.3846
 3861SOL    HW212483   4.327   4.457   0.262  1.5265 -0.4970 -0.6596
 3862SOL     OW12484   0.763   5.835   4.800 -0.3192 -0.1358 -0.2081
 3862SOL    HW112485   0.776   5.865   4.705 -1.2635 -1.0681 -0.6459
 3862SOL    HW212486   0.783   5.737   4.807 -1.5496 -0.3621  0.2678
 3863SOL     OW12487   1.755   3.140   6.638  0.5133 -0.1932  0.0379
 3863SOL    HW112488   1.656   3.130   6.632  0.5725 -1.1180  0.4059
 3863SOL    HW212489   1.778   3.236   6.653 -0.3594 -0.0613  0.5960
 3864SOL     OW12490   4.644   2.070   2.613 -0.4977  0.0882  0.5750
 3864SOL    HW112491   4.735   2.082   2.655  0.2589 -0.7582 -0.7608
 3864SOL    HW212492   4.605   2.160   2.593  0.4862  0.4640  0.2818
 3865SOL     OW12493   4.166   1.488   0.360  0.3081 -0.3006 -0.3188
 3865SOL    HW112494   4.166   1.495   0.460  0.9135  1.1742 -0.4032
 3865SOL    HW212495   4.245   1.538   0.323 -0.3617 -0.1447 -1.5820
 3866SOL     OW12496   5.485   5.962   5.787  0.1928 -0.0650 -0.1800
 3866SOL    HW112497   5.421   6.019   5.736  0.2065 -0.8535 -1.1274
 3866SOL    HW212498   5.559   6.018   5.823 -0.1356  0.6050 -0.5368
 3867SOL     OW12499   2.960   6.753   2.803  0.8639  0.3821 -0.2800
 3867SOL    HW112500   3.053   6.756   2.767  0.7890 -1.7609 -0.7593
 3867SOL    HW212501   2.962   6.765   2.902  1.6857  0.0260 -0.2445
 3868SOL     OW12502   2.940   5.085   2.809 -0.7926  0.5620 -0.0225
 3868SOL    HW112503   2.872   5.034   2.862  0.9225  0.8712  2.7197
 3868SOL    HW212504   3.019   5.025   2.791 -0.7632  0.8898 -0.9916
 3869SOL     OW12505   2.269   5.484   3.422 -0.2091  0.2128  0.2990
 3869SOL    HW112506   2.319   5.439   3.496  1.7240  0.6320 -0.6598
 3869SOL    HW212507   2.231   5.571   3.455  0.4222  0.2804  0.8715
 3870SOL     OW12508   4.522   4.790   0.510 -0.5361  0.4023 -0.2890
 3870SOL    HW112509   4.549   4.886   0.516 -1.0960  0.5132  0.5114
 3870SOL    HW212510   4.436   4.783   0.459 -0.0650  0.2314 -1.0910
 3871SOL     OW12511   1.966   6.537   5.331 -0.0011 -0.4457  0.2387
 3871SOL    HW112512   1.936   6.619   5.379 -2.6879  0.0623 -2.0666
 3871SOL    HW212513   1.908   6.521   5.252  2.9820 -2.3064 -1.8019
 3872SOL     OW12514   6.130   3.749   0.201 -0.2214 -0.4453  0.2875
 3872SOL    HW112515   6.093   3.680   0.139 -0.0621  0.0307 -0.3584
 3872SOL    HW212516   6.168   3.825   0.147  1.1706 -0.6500  0.9288
 3873SOL     OW12517   6.511   6.581   0.437  0.6285 -0.2246  0.3431
 3873SOL    HW112518   6.526   6.493   0.392 -0.4408 -0.4076  0.3173
 3873SOL    HW212519   6.573   6.649   0.399  0.1252 -0.5084 -1.0452
 3874SOL     OW12520   4.191   5.521   5.906 -0.6926  0.3555  0.1892
 3874SOL    HW112521   4.162   5.440   5.854 -2.7537 -0.9546  3.0883
 3874SOL    HW212522   4.265   5.496   5.968  0.3871  1.3896 -0.6440
 3875SOL     OW12523   2.220   3.614   0.766 -0.0771 -0.1331 -0.3241
 3875SOL    HW112524   2.258   3.669   0.692 -0.9715 -1.1869 -1.6089
 3875SOL    HW212525   2.260   3.522   0.763 -1.8764 -0.9442 -1.0579
 3876SOL     OW12526   4.843   4.309   3.269 -0.2590 -0.6343  0.1345
 3876SOL    HW112527   4.757   4.305   3.218 -0.1155 -2.1851 -0.0150
 3876SOL    HW212528   4.920   4.319   3.206 -0.3649  2.6130  0.3312
 3877SOL     OW12529   5.755   5.232   4.045 -0.1513  0.1223 -0.6875
 3877SOL    HW112530   5.767   5.235   3.946  0.4201  0.5525 -0.6110
 3877SOL    HW212531   5.798   5.149   4.081 -0.3603 -0.0350 -0.7952
 3878SOL     OW12532   0.297   4.113   5.673  0.3491  0.2941  0.2250
 3878SOL    HW112533   0.353   4.188   5.707  1.9181  0.6798 -2.8426
 3878SOL    HW212534   0.341   4.026   5.696  1.5757  0.5545 -1.0254
 3879SOL     OW12535   2.221   0.798   1.001  0.3377 -0.0114  0.0724
 3879SOL    HW112536   2.291   0.754   1.058  1.3665  0.2138 -0.9855
 3879SOL    HW212537   2.130   0.769   1.032  0.8742 -0.1914  1.5731
 3880SOL     OW12538   5.986   1.669   4.286 -0.0595 -0.4043 -0.0672
 3880SOL    HW112539   5.919   1.701   4.353 -2.2352 -1.8214 -1.3965
 3880SOL    HW212540   5.937   1.628   4.209  2.3915 -2.1393 -0.8106
 3881SOL     OW12541   4.974   6.528   6.020 -0.6614  0.2424  0.4461
 3881SOL    HW112542   4.978   6.563   5.927 -1.6657  0.8987  0.6333
 3881SOL    HW212543   4.893   6.471   6.032  0.9247 -2.2656  0.1524
 3882SOL     OW12544   4.791   5.160   0.173  0.1659 -0.5636 -0.0716
 3882SOL    HW112545   4.796   5.198   0.080  0.3986 -0.9254 -0.2093
 3882SOL    HW212546   4.696   5.140   0.195  0.1270 -0.6463 -0.3067
 3883SOL     OW12547   3.141   0.017   1.136  0.4620 -0.2930  0.2950
 3883SOL    HW112548   3.165  -0.006   1.231  2.0252 -0.8682 -0.2010
 3883SOL    HW212549   3.080  -0.052   1.099 -0.1173 -0.0917  0.8639
 3884SOL     OW12550   1.687   1.536   5.854  0.2000  0.3558  0.5742
 3884SOL    HW112551   1.651   1.456   5.807 -1.4853  0.9051  0.8582
 3884SOL    HW212552   1.660   1.533   5.951  2.1748  0.0957  1.1784
 3885SOL     OW12553   2.201   0.742   3.338 -0.0808 -0.0920  0.3072
 3885SOL    HW112554   2.120   0.714   3.389  1.0099 -0.7120  1.7573
 3885SOL    HW212555   2.255   0.661   3.314  1.3820  0.4600  1.5671
 3886SOL     OW12556   0.078   5.659   3.042  0.0072  0.0464  0.5479
 3886SOL    HW112557   0.104   5.654   2.945 -2.4775 -0.9415 -0.1249
 3886SOL    HW212558   0.121   5.584   3.091 -0.2203 -0.5677 -0.1759
 3887SOL     OW12559   0.461   1.956   3.803  0.0230  0.0856  0.0566
 3887SOL    HW112560   0.370   1.963   3.843 -0.3130  1.4267 -0.8674
 3887SOL    HW212561   0.464   1.876   3.742  0.0861 -1.0822  1.5365
 3888SOL     OW12562   5.648   3.660   5.067 -0.2266  0.2447 -0.5193
 3888SOL    HW112563   5.643   3.562   5.047 -1.7799  0.4322 -1.1743
 3888SOL    HW212564   5.739   3.682   5.103  0.5833 -1.1961 -1.5737
 3889SOL     OW12565   0.312   6.419   0.123 -0.1116 -0.1164  0.3672
 3889SOL    HW112566   0.224   6.446   0.084 -0.4229 -0.2222  0.9910
 3889SOL    HW212567   0.325   6.321   0.108 -0.0425 -0.0758  0.1616
 3890SOL     OW12568   5.742   2.996   4.458  0.4329 -0.2585 -0.0102
 3890SOL    HW112569   5.767   2.949   4.374  0.5785  1.2497 -0.8428
 3890SOL    HW212570   5.644   3.014   4.458  0.8232  2.3245 -1.2976
 3891SOL     OW12571   2.339   4.675   6.254  0.0148 -0.2865 -0.4859
 3891SOL    HW112572   2.406   4.654   6.326 -1.4709  0.8836  1.3045
 3891SOL    HW212573   2.335   4.773   6.240 -0.8821 -0.3889 -1.0060
 3892SOL     OW12574   4.972   0.310   3.658  0.2300  0.0779  0.2144
 3892SOL    HW112575   5.040   0.317   3.586  0.1411  0.5879  0.1799
 3892SOL    HW212576   4.973   0.217   3.696 -0.9132 -0.7457 -1.6263
 3893SOL     OW12577   3.508   0.836   3.893  0.0221  0.6141 -0.1203
 3893SOL    HW112578   3.445   0.866   3.964  1.7021  2.6637  0.5889
 3893SOL    HW212579   3.456   0.818   3.809 -1.6781  0.6821  0.8625
 3894SOL     OW12580   5.415   5.442   4.763 -0.0883  0.4508 -0.3570
 3894SOL    HW112581   5.388   5.438   4.860 -1.2519  1.5636 -0.6092
 3894SOL    HW212582   5.493   5.503   4.753  1.3020 -1.1567  0.0968
 3895SOL     OW12583   1.975   1.530   6.068 -0.5206  1.3991  0.5859
 3895SOL    HW112584   1.967   1.470   6.148 -0.3378  2.0932  1.1276
 3895SOL    HW212585   2.052   1.500   6.012 -0.4196  1.1340  0.8626
 3896SOL     OW12586   0.934   4.669   0.537 -0.1226 -0.0406 -0.1426
 3896SOL    HW112587   0.956   4.598   0.470  1.3896  0.8941 -0.6907
 3896SOL    HW212588   0.963   4.758   0.502 -1.3434  0.7760  0.8285
 3897SOL     OW12589   3.076   0.939   3.537  0.7105 -0.7958 -0.2353
 3897SOL    HW112590   3.003   0.983   3.484  1.7350 -0.7963 -1.6980
 3897SOL    HW212591   3.050   0.845   3.557 -1.0608  0.0790  2.0557
 3898SOL     OW12592   3.265   3.137   1.826  0.1375 -0.3052  0.4046
 3898SOL    HW112593   3.181   3.119   1.877  1.7617 -1.9849  2.6449
 3898SOL    HW212594   3.283   3.061   1.764  0.2386 -0.1337  0.2208
 3899SOL     OW12595   4.694   2.418   6.389 -0.2770 -0.2494 -0.0503
 3899SOL    HW112596   4.719   2.353   6.460 -0.4633 -0.5736 -0.2813
 3899SOL    HW212597   4.694   2.511   6.427 -1.0931 -0.4916  0.5609
 3900SOL     OW12598   2.452   1.138   5.499  0.3911 -0.4766 -0.1799
 3900SOL    HW112599   2.524   1.075   5.470  2.2653  1.3549  0.2745
 3900SOL    HW212600   2.485   1.195   5.574 -0.6972  2.0202 -1.4674
 3901SOL     OW12601   3.536   6.465   5.226  0.0274 -0.0270  0.6321
 3901SOL    HW112602   3.594   6.531   5.275 -0.6077  0.6759  0.4629
 3901SOL    HW212603   3.441   6.475   5.256 -0.1539 -0.5220  0.2362
 3902SOL     OW12604   1.640   6.971   2.035 -0.1298 -0.3144  0.4233
 3902SOL    HW112605   1.614   6.885   2.080 -0.5862 -0.3579  0.0912
 3902SOL    HW212606   1.561   7.031   2.031  0.3741  0.4278  1.3106
 3903SOL     OW12607   3.529   3.336   4.963  0.3973  0.1770 -0.8516
 3903SOL    HW112608   3.626   3.347   4.942  1.0322 -1.2977  1.0738
 3903SOL    HW212609   3.508   3.239   4.974 -1.1902  0.5136 -0.6728
 3904SOL     OW12610   0.647   5.668   1.089 -0.0828  0.2266 -0.0933
 3904SOL    HW112611   0.571   5.734   1.086  0.1741  0.5092 -0.5952
 3904SOL    HW212612   0.651   5.619   1.002  0.5330  0.4759 -0.2101
 3905SOL     OW12613   6.006   6.155   4.699  0.6827 -0.7441 -0.4927
 3905SOL    HW112614   5.943   6.101   4.644  2.2430 -0.8501 -2.2842
 3905SOL    HW212615   6.073   6.094   4.743  0.0132 -0.5723  0.8264
 3906SOL     OW12616   1.771   6.522   2.374  0.1057 -0.1641  0.1409
 3906SOL    HW112617   1.707   6.493   2.303  0.2645 -0.7660  0.2373
 3906SOL    HW212618   1.721   6.545   2.457  0.1036 -2.1418  0.7240
 3907SOL     OW12619   1.910   0.719   5.264  0.0218 -0.0759 -0.6250
 3907SOL    HW112620   1.989   0.776   5.287  2.3802 -3.6289  1.0368
 3907SOL    HW212621   1.843   0.724   5.337  2.1949 -2.4627  1.7379
 3908SOL     OW12622   2.599   0.970   5.364 -0.2924  0.3521  0.8700
 3908SOL    HW112623   2.695   0.999   5.364  0.2771 -1.3190 -0.7564
 3908SOL    HW212624   2.561   0.981   5.272  0.0751 -4.0438  0.0001
 3909SOL     OW12625   6.777   2.345   3.189 -0.4351  0.0717  0.1497
 3909SOL    HW112626   6.724   2.339   3.104 -0.4787 -1.6564  0.2732
 3909SOL    HW212627   6.778   2.440   3.220 -0.4590  0.7428 -1.7423
 3910SOL     OW12628   0.475   1.068   6.189 -0.2901  0.2376 -0.3275
 3910SOL    HW112629   0.527   1.030   6.114  0.7871  1.0099  0.0119
 3910SOL    HW212630   0.427   0.994   6.237  2.2944 -0.8541  0.7494
 3911SOL     OW12631   5.220   0.356   0.834 -0.2005  0.5171 -0.4220
 3911SOL    HW112632   5.223   0.439   0.779 -0.9538 -0.6669 -2.3668
 3911SOL    HW212633   5.214   0.379   0.931 -0.2396  2.7031 -0.9121
 3912SOL     OW12634   5.013   3.426   0.437  0.1272  0.2291  0.0162
 3912SOL    HW112635   4.961   3.401   0.519  0.6426  0.1726  0.3302
 3912SOL    HW212636   4.960   3.403   0.356  0.7301 -2.2913  0.2585
 3913SOL     OW12637   5.221   5.634   0.943  0.2660  0.3061 -0.5400
 3913SOL    HW112638   5.131   5.592   0.954  0.1407  0.8081  0.4094
 3913SOL    HW212639   5.287   5.590   1.004  0.1201  1.4786  0.5139
 3914SOL     OW12640   0.054   0.488   1.613  0.1539 -0.6251 -0.0464
 3914SOL    HW112641   0.030   0.581   1.587 -2.9815 -0.8160  1.6505
 3914SOL    HW212642   0.153   0.482   1.629  0.6164  2.0560 -1.2765
 3915SOL     OW12643   4.692   1.215   3.246 -0.1255 -0.1107 -0.0610
 3915SOL    HW112644   4.679   1.314   3.254  2.2562  0.1963  0.6990
 3915SOL    HW212645   4.609   1.174   3.209 -0.9052  2.2657 -1.1704
 3916SOL     OW12646   2.315   0.644   2.973 -0.3862  0.0842 -0.3409
 3916SOL    HW112647   2.412   0.636   2.948 -0.4862 -0.3525 -0.6131
 3916SOL    HW212648   2.297   0.586   3.052 -0.7005 -0.9090 -1.1119
 3917SOL     OW12649   2.187   5.186   1.128  0.3959  0.4649 -0.5943
 3917SOL    HW112650   2.241   5.146   1.201  0.7376  2.6592  0.4337
 3917SOL    HW212651   2.201   5.134   1.044  0.4747 -1.7451  0.7128
 3918SOL     OW12652   4.024   4.430   0.076 -0.5570 -0.0917  1.0014
 3918SOL    HW112653   4.042   4.388   0.165  0.3921 -0.1609  0.7818
 3918SOL    HW212654   3.925   4.446   0.066 -0.8442 -1.4583  1.4560
 3919SOL     OW12655   5.296   4.930   2.277  0.2448  0.6215  0.0284
 3919SOL    HW112656   5.282   4.832   2.270  1.2123  0.5603 -1.5994
 3919SOL    HW212657   5.215   4.978   2.244 -0.2499  0.3801  0.8761
 3920SOL     OW12658   4.289   6.421   6.029  0.0551 -0.3152 -0.3575
 3920SOL    HW112659   4.275   6.491   6.099 -1.6773  0.7828 -1.7313
 3920SOL    HW212660   4.245   6.336   6.058  2.8834 -1.2589  1.7124
 3921SOL     OW12661   2.425   5.740   6.983 -0.6914 -0.1450 -0.6388
 3921SOL    HW112662   2.428   5.813   6.914  0.6566 -1.1637 -1.6926
 3921SOL    HW212663   2.355   5.674   6.958 -1.5995  0.5121  0.0794
 3922SOL     OW12664   5.594   1.753   2.830 -0.0571  0.4051 -0.0716
 3922SOL    HW112665   5.687   1.742   2.797 -0.0567 -0.1412  0.1056
 3922SOL    HW212666   5.538   1.676   2.799  0.1093 -0.4892  1.7491
 3923SOL     OW12667   4.916   1.249   0.069  0.3484 -0.4116  0.1084
 3923SOL    HW112668   4.933   1.207   0.158 -2.1143 -0.4039  0.6480
 3923SOL    HW212669   4.858   1.189   0.014  1.5929 -0.2920 -1.4423
 3924SOL     OW12670   6.358   4.378   2.395  0.3021  0.1166  0.5747
 3924SOL    HW112671   6.327   4.472   2.377  1.0111  0.5654  1.6274
 3924SOL    HW212672   6.361   4.362   2.493  0.5527 -0.8947  0.4108
 3925SOL     OW12673   3.398   4.578   1.643  0.1075 -0.2316 -0.8956
 3925SOL    HW112674   3.449   4.637   1.705  0.6728  1.0584 -2.4884
 3925SOL    HW212675   3.306   4.562   1.679  0.4701  0.3297  0.3215
 3926SOL     OW12676   1.057   0.428   0.828 -0.3170 -0.0028  0.2679
 3926SOL    HW112677   0.973   0.418   0.880  0.4143 -3.0883  1.0346
 3926SOL    HW212678   1.128   0.467   0.887 -1.2148  3.0954 -0.5225
 3927SOL     OW12679   5.014   5.645   5.942  0.2450 -0.3595 -0.1754
 3927SOL    HW112680   4.918   5.663   5.925  0.3881 -0.7955 -1.5874
 3927SOL    HW212681   5.028   5.623   6.038 -0.9753  0.2238  0.1461
 3928SOL     OW12682   3.340   5.816   0.662  0.9750  0.3741  0.2487
 3928SOL    HW112683   3.326   5.732   0.610  0.1665 -0.1552  1.3109
 3928SOL    HW212684   3.430   5.854   0.638  1.3501 -0.7723 -0.2526
 3929SOL     OW12685   1.435   4.688   4.219 -0.2011  0.0637  0.1630
 3929SOL    HW112686   1.421   4.662   4.124  0.2696 -0.3205  0.1979
 3929SOL    HW212687   1.533   4.685   4.241 -0.5291 -4.9291  2.0753
 3930SOL     OW12688   1.457   6.309   5.106 -0.5356 -0.3973 -0.0603
 3930SOL    HW112689   1.438   6.227   5.051  0.6178 -1.1411  0.6075
 3930SOL    HW212690   1.487   6.383   5.046  0.9179 -1.2625 -0.4726
 3931SOL     OW12691   1.556   4.037   0.898 -0.4733  0.0072 -0.1779
 3931SOL    HW112692   1.510   3.969   0.841 -0.7604  0.2759 -0.2748
 3931SOL    HW212693   1.504   4.050   0.983  0.2370 -0.7771  0.3916
 3932SOL     OW12694   1.856   5.106   1.420  1.1191 -0.8067  0.6347
 3932SOL    HW112695   1.911   5.037   1.373  1.1612  0.0945 -0.6869
 3932SOL    HW212696   1.778   5.131   1.363  1.7419  1.0765  0.5523
 3933SOL     OW12697   6.425   6.777   1.686 -0.5742 -0.2330  0.5105
 3933SOL    HW112698   6.440   6.832   1.768 -0.9322  1.2787 -0.4033
 3933SOL    HW212699   6.431   6.680   1.709 -1.5093  0.1400  2.4775
 3934SOL     OW12700   1.069   1.162   2.298  0.0370  0.2821  0.5203
 3934SOL    HW112701   1.123   1.163   2.382 -0.2848 -1.9462  0.8319
 3934SOL    HW212702   1.039   1.254   2.276  3.1210  1.4917  0.8520
 3935SOL     OW12703   0.293   1.172   4.250  0.3825  0.3450  0.6470
 3935SOL    HW112704   0.351   1.158   4.169  1.3124  0.4401  1.2777
 3935SOL    HW212705   0.258   1.265   4.249 -0.5158  0.0203 -0.2027
 3936SOL     OW12706   4.730   4.355   2.893 -0.0031  0.0521 -0.2772
 3936SOL    HW112707   4.693   4.298   2.820  0.1554 -0.7418  0.2394
 3936SOL    HW212708   4.825   4.380   2.871 -0.4947  1.2437 -1.1251
 3937SOL     OW12709   1.660   4.927   0.327 -0.2716  0.1230  0.4968
 3937SOL    HW112710   1.735   4.946   0.390  0.2131  0.2726 -0.1228
 3937SOL    HW212711   1.574   4.963   0.365 -0.0609 -0.1484  1.2572
 3938SOL     OW12712   0.347   6.038   6.395  0.1164 -0.0542  0.0358
 3938SOL    HW112713   0.363   5.965   6.461  0.5884 -0.3564 -0.4072
 3938SOL    HW212714   0.336   6.125   6.444  0.0537 -0.3336  0.5307
 3939SOL     OW12715   1.020   4.119   4.897 -0.3378  0.6887 -0.0445
 3939SOL    HW112716   1.033   4.043   4.832  2.5522  0.2782  0.8462
 3939SOL    HW212717   0.965   4.087   4.974 -0.6809  0.0447 -0.5437
 3940SOL     OW12718   1.565   5.663   1.565 -0.0207 -0.0558  0.4857
 3940SOL    HW112719   1.655   5.643   1.604 -0.7704 -3.4163  0.8255
 3940SOL    HW212720   1.494   5.644   1.634 -1.0973 -0.3828 -0.6721
 3941SOL     OW12721   6.617   5.541   2.202 -0.5814 -0.8972  0.4769
 3941SOL    HW112722   6.642   5.445   2.186 -0.4956 -0.6725 -0.8337
 3941SOL    HW212723   6.668   5.599   2.138 -0.8805 -0.0045  1.0432
 3942SOL     OW12724   5.956   5.532   6.624 -0.2606 -0.2793  0.0449
 3942SOL    HW112725   5.903   5.509   6.705 -0.1866 -1.8478 -0.3173
 3942SOL    HW212726   5.921   5.479   6.546  1.1559 -0.5454 -0.4272
 3943SOL     OW12727   0.716   5.390   1.223  0.3670  0.1974 -0.1213
 3943SOL    HW112728   0.692   5.306   1.175 -1.1301 -0.1800  1.1780
 3943SOL    HW212729   0.701   5.468   1.164  0.3680 -0.3582 -0.8667
 3944SOL     OW12730   6.171   3.146   0.668  0.0329  0.4595  0.1083
 3944SOL    HW112731   6.248   3.091   0.636  0.0333 -0.0739  0.9866
 3944SOL    HW212732   6.205   3.224   0.720  0.0189 -0.9453  2.4033
 3945SOL     OW12733   2.493   0.477   3.672 -0.6642 -0.5072 -0.0854
 3945SOL    HW112734   2.559   0.488   3.597  1.0662 -0.6938  1.3525
 3945SOL    HW212735   2.526   0.407   3.736 -0.1477  2.1301  2.7899
 3946SOL     OW12736   3.401   2.337   1.718  0.4753 -0.0591 -0.0212
 3946SOL    HW112737   3.346   2.260   1.749 -1.3066  0.3987 -1.8288
 3946SOL    HW212738   3.489   2.337   1.767  0.3699 -2.9409  0.3601
 3947SOL     OW12739   1.017   1.733   0.782 -0.2820 -0.0767  0.0682
 3947SOL    HW112740   0.918   1.740   0.797 -0.3948 -2.3757  0.8478
 3947SOL    HW212741   1.064   1.747   0.869  0.0409  0.2389 -0.1541
 3948SOL     OW12742   2.272   1.514   3.254 -0.6639  0.0532 -0.5577
 3948SOL    HW112743   2.183   1.476   3.229 -1.5731  0.5773  1.6177
 3948SOL    HW212744   2.271   1.539   3.351  0.6986  3.2971 -1.2548
 3949SOL     OW12745   4.710   0.533   1.772 -0.4436 -0.3431 -0.3400
 3949SOL    HW112746   4.648   0.478   1.827 -1.4126  0.1950 -0.8412
 3949SOL    HW212747   4.736   0.482   1.690  1.6718 -1.4695  0.9655
 3950SOL     OW12748   5.722   5.835   1.703 -0.2983 -0.0078  0.0358
 3950SOL    HW112749   5.757   5.911   1.649 -1.3068 -1.4356 -2.8027
 3950SOL    HW212750   5.627   5.853   1.729 -0.1549  0.2116  0.4147
 3951SOL     OW12751   0.094   1.644   3.248 -0.2763 -0.2429 -0.1598
 3951SOL    HW112752   0.080   1.571   3.181 -0.3017  0.7133 -1.2305
 3951SOL    HW212753   0.080   1.733   3.204  0.2478  0.4337  0.9851
 3952SOL     OW12754   6.481   6.051   0.040 -0.1239  0.1953 -0.0787
 3952SOL    HW112755   6.477   6.086   0.134  1.6102 -0.3785  0.2383
 3952SOL    HW212756   6.451   5.956   0.039  0.5177 -0.0109  0.0206
 3953SOL     OW12757   3.510   3.212   3.016  0.2416 -0.0197 -0.3077
 3953SOL    HW112758   3.588   3.233   3.074 -0.4876  3.6525 -0.4211
 3953SOL    HW212759   3.538   3.151   2.942  2.8338  0.6860  0.0096
 3954SOL     OW12760   1.386   6.372   1.220 -0.3235 -0.5271 -0.6532
 3954SOL    HW112761   1.450   6.331   1.284  1.1207 -0.0380 -1.7337
 3954SOL    HW212762   1.303   6.316   1.216  1.1780 -2.8756 -1.3760
 3955SOL     OW12763   0.502   4.170   7.002  0.8654  1.1104 -0.1150
 3955SOL    HW112764   0.590   4.129   7.029  0.8071  0.3995 -0.9602
 3955SOL    HW212765   0.499   4.179   6.903 -0.2556  0.5587 -0.1439
 3956SOL     OW12766   6.271   3.507   5.407 -0.0009 -0.4464  0.0128
 3956SOL    HW112767   6.280   3.503   5.507 -0.6649  0.4781  0.1219
 3956SOL    HW212768   6.269   3.602   5.378 -1.7329 -0.6516 -0.6815
 3957SOL     OW12769   1.588   3.288   0.719  0.6409  0.0535 -0.1973
 3957SOL    HW112770   1.516   3.282   0.650 -1.9390  1.2856  2.1800
 3957SOL    HW212771   1.628   3.379   0.717 -2.4277  1.6775  2.4355
 3958SOL     OW12772   3.820   5.219   0.828 -0.6227 -0.2833  0.0637
 3958SOL    HW112773   3.881   5.141   0.814 -0.4306 -0.3713  1.3125
 3958SOL    HW212774   3.730   5.186   0.854 -1.3050 -0.1604 -1.9446
 3959SOL     OW12775   1.134   6.587   6.094  0.1457  0.5652  0.5655
 3959SOL    HW112776   1.225   6.545   6.090  0.0450  0.4229 -0.8006
 3959SOL    HW212777   1.071   6.525   6.140  0.5960  0.4056  0.9855
 3960SOL     OW12778   6.866   5.022   2.029 -0.8167 -0.3066 -0.3465
 3960SOL    HW112779   6.886   5.116   2.055  3.0548 -0.6079 -1.4897
 3960SOL    HW212780   6.852   4.966   2.111  2.4675  0.3242  0.8033
 3961SOL     OW12781   6.038   2.192   1.473 -0.0381 -0.0061 -0.1180
 3961SOL    HW112782   6.099   2.115   1.456 -0.3086 -0.0018 -1.1795
 3961SOL    HW212783   6.006   2.189   1.567 -0.0779 -1.2099 -0.1546
 3962SOL     OW12784   6.972   1.126   6.702  0.0732  0.3235 -0.4980
 3962SOL    HW112785   6.899   1.155   6.765  0.5748  1.6871 -0.5105
 3962SOL    HW212786   7.044   1.195   6.701  0.5576 -0.1770 -1.8005
 3963SOL     OW12787   6.715   2.854   4.789  0.6104 -0.9231 -0.6394
 3963SOL    HW112788   6.788   2.858   4.856 -0.5700  1.8838  0.6357
 3963SOL    HW212789   6.639   2.801   4.825 -0.8813  2.2932  1.3626
 3964SOL     OW12790   0.300   5.626   5.667  0.1637 -0.1249  0.0650
 3964SOL    HW112791   0.305   5.726   5.676 -0.8984 -0.2045  2.0319
 3964SOL    HW212792   0.207   5.600   5.641  0.2116 -0.6636  0.4408
 3965SOL     OW12793   2.806   6.170   0.490  0.5498  0.0455  0.0456
 3965SOL    HW112794   2.795   6.088   0.433 -0.7286  0.0576  0.2575
 3965SOL    HW212795   2.846   6.243   0.435 -1.0141  0.1840 -0.9673
 3966SOL     OW12796   6.765   2.854   3.347  0.1041 -0.0295 -0.2486
 3966SOL    HW112797   6.797   2.767   3.310  0.9690  0.4626 -0.6669
 3966SOL    HW212798   6.692   2.890   3.290  0.8203  0.2862 -0.9786
 3967SOL     OW12799   3.331   0.364   0.464 -0.3704  0.3642 -0.3232
 3967SOL    HW112800   3.309   0.402   0.554 -3.1744 -0.0948 -0.7021
 3967SOL    HW212801   3.297   0.425   0.393  0.0041 -0.2422 -1.0387
 3968SOL     OW12802   4.935   1.279   6.273 -0.3728  0.2767 -0.1043
 3968SOL    HW112803   4.951   1.370   6.233 -0.3655  0.5011  0.3909
 3968SOL    HW212804   4.894   1.290   6.364 -1.2109 -0.2399 -0.4050
 3969SOL     OW12805   6.205   1.475   0.234 -0.6030 -0.1808  0.0725
 3969SOL    HW112806   6.257   1.404   0.187  0.6608  0.0704  1.0283
 3969SOL    HW212807   6.111   1.444   0.247 -0.3056 -1.3017 -0.3253
 3970SOL     OW12808   5.226   4.197   6.499  0.2185  0.0669 -0.0537
 3970SOL    HW112809   5.137   4.155   6.515 -0.4109  2.0311  2.2329
 3970SOL    HW212810   5.214   4.281   6.447  1.0791 -0.8562 -1.8268
 3971SOL     OW12811   6.889   4.633   3.017  0.1943 -0.1131  0.0065
 3971SOL    HW112812   6.988   4.642   3.010  0.1225 -0.2398 -1.7780
 3971SOL    HW212813   6.845   4.706   2.963 -0.6745 -0.3371  0.3853
 3972SOL     OW12814   0.447   2.213   0.105  0.3746  0.2487  0.6039
 3972SOL    HW112815   0.487   2.283   0.045 -2.4217 -0.0671 -1.8857
 3972SOL    HW212816   0.356   2.243   0.135  0.0385 -1.3954  1.3179
 3973SOL     OW12817   3.109   2.678   1.304  0.2150 -0.2320  0.2593
 3973SOL    HW112818   3.145   2.763   1.267 -2.6450  0.9070 -0.1389
 3973SOL    HW212819   3.013   2.690   1.329 -0.1781 -3.2301  0.5889
 3974SOL     OW12820   4.451   0.597   5.489  0.4851 -0.3104 -0.3680
 3974SOL    HW112821   4.370   0.654   5.498  0.7298  0.5425 -2.8898
 3974SOL    HW212822   4.425   0.505   5.459  0.3075 -0.7866  1.1565
 3975SOL     OW12823   6.896   6.804   5.048  0.2896 -0.0800  0.2508
 3975SOL    HW112824   6.970   6.738   5.036  0.1818  0.0022 -1.0127
 3975SOL    HW212825   6.922   6.891   5.006 -0.7464 -0.2371 -0.7915
 3976SOL     OW12826   0.628   2.474   6.275  0.0839 -0.9598  0.6367
 3976SOL    HW112827   0.592   2.408   6.342 -0.1555 -0.5981  0.8662
 3976SOL    HW212828   0.727   2.477   6.282 -0.0262  0.2568  2.1038
 3977SOL     OW12829   2.131   5.711   5.361  0.1395  0.2594  0.4019
 3977SOL    HW112830   2.105   5.722   5.457  0.7019 -0.8446  0.6874
 3977SOL    HW212831   2.211   5.768   5.342 -0.4495  1.0926  0.3737
 3978SOL     OW12832   4.523   3.250   6.423  0.5476 -0.1537  0.2135
 3978SOL    HW112833   4.510   3.334   6.477 -1.2671 -1.2875  1.6707
 3978SOL    HW212834   4.569   3.273   6.337  0.1255  2.3396  0.5607
 3979SOL     OW12835   1.339   6.202   4.422  0.0018  0.2676 -0.4310
 3979SOL    HW112836   1.326   6.170   4.328  0.5153 -0.1950 -0.3510
 3979SOL    HW212837   1.432   6.239   4.432  0.0880 -0.0562 -0.0017
 3980SOL     OW12838   4.857   5.834   3.764  0.3557 -0.2029  0.0889
 3980SOL    HW112839   4.893   5.746   3.733  0.9327 -0.3017  0.9956
 3980SOL    HW212840   4.847   5.895   3.686 -1.5357 -1.5561 -0.7926
 3981SOL     OW12841   6.082   1.565   0.712  0.5605  0.2556 -0.0507
 3981SOL    HW112842   6.150   1.509   0.759  0.0911 -0.4630 -0.1972
 3981SOL    HW212843   5.991   1.543   0.748  0.5132  2.2031  1.1276
 3982SOL     OW12844   1.712   1.677   2.626  0.8550 -0.3922  0.5383
 3982SOL    HW112845   1.644   1.706   2.558 -1.6241  0.0143  2.9972
 3982SOL    HW212846   1.804   1.687   2.587 -0.3349  1.1799 -2.2159
 3983SOL     OW12847   1.493   1.470   3.855 -0.3167 -0.4805 -0.1666
 3983SOL    HW112848   1.393   1.467   3.865 -0.1726 -2.4422  1.1702
 3983SOL    HW212849   1.529   1.545   3.911 -0.8632 -1.4357  1.5408
 3984SOL     OW12850   2.227   1.282   2.719  0.3379 -0.1361  0.6093
 3984SOL    HW112851   2.185   1.353   2.775  0.8065  0.0837  0.6844
 3984SOL    HW212852   2.185   1.194   2.740 -1.5479  0.3754 -0.7968
 3985SOL     OW12853   1.446   3.136   6.430 -0.3099  0.3715  0.0759
 3985SOL    HW112854   1.458   3.043   6.464 -0.8451  0.3944  0.3355
 3985SOL    HW212855   1.479   3.201   6.498 -0.9997  0.4038  0.3885
 3986SOL     OW12856   6.704   6.255   3.618 -0.0658  0.6828 -0.0832
 3986SOL    HW112857   6.777   6.195   3.584 -0.6162 -0.6354  0.9917
 3986SOL    HW212858   6.615   6.217   3.593 -0.4211  1.1420  0.4514
 3987SOL     OW12859   2.711   4.814   5.834 -0.2455  0.3801  0.1193
 3987SOL    HW112860   2.806   4.813   5.866  0.6149  1.2685 -2.1908
 3987SOL    HW212861   2.681   4.908   5.819 -0.8310  0.0518 -0.9179
 3988SOL     OW12862   5.959   5.653   4.331  0.6267  0.0467 -0.0534
 3988SOL    HW112863   6.009   5.624   4.412 -1.5226 -2.8009  0.3869
 3988SOL    HW212864   5.986   5.596   4.253 -1.4241 -1.1942  0.0816
 3989SOL     OW12865   3.634   1.035   5.611  0.4369 -0.5367  0.1403
 3989SOL    HW112866   3.554   1.041   5.671 -0.2839 -1.2465 -0.7180
 3989SOL    HW212867   3.693   0.961   5.644 -0.0407 -1.0379 -0.1025
 3990SOL     OW12868   0.073   1.410   3.093 -0.4219 -0.2582  0.0021
 3990SOL    HW112869   0.146   1.342   3.106 -0.5666 -0.1954  1.1866
 3990SOL    HW212870   0.040   1.405   2.999  0.8669 -0.5337 -0.4573
 3991SOL     OW12871   6.897   0.696   4.460  0.1769  0.2305  0.8415
 3991SOL    HW112872   6.931   0.639   4.535 -0.8177  0.6803  1.6694
 3991SOL    HW212873   6.955   0.776   4.449 -0.3021  0.7511  1.9245
 3992SOL     OW12874   6.039   3.741   1.052  0.3462 -0.1680 -0.3012
 3992SOL    HW112875   6.030   3.641   1.050 -0.8225 -0.0693 -0.8490
 3992SOL    HW212876   6.021   3.778   0.961 -1.9015  0.7195  0.4391
 3993SOL     OW12877   2.173   1.266   5.495  0.1974 -0.7584 -0.2557
 3993SOL    HW112878   2.267   1.239   5.516  0.1424 -1.0532 -0.3833
 3993SOL    HW212879   2.119   1.185   5.470  0.4610 -0.3457 -2.3574
 3994SOL     OW12880   5.266   2.841   2.393 -0.1817  0.3980 -0.3323
 3994SOL    HW112881   5.328   2.827   2.316  0.8919 -0.4955  0.6412
 3994SOL    HW212882   5.199   2.911   2.371 -1.0249 -1.0660 -2.7201
 3995SOL     OW12883   6.313   1.720   2.022  0.3417  0.1476 -0.5093
 3995SOL    HW112884   6.395   1.710   2.077 -0.5030 -0.6226  0.6628
 3995SOL    HW212885   6.256   1.793   2.061 -0.1199 -0.1918 -0.5396
 3996SOL     OW12886   0.626   5.174   4.380  0.1993  0.3412 -0.1533
 3996SOL    HW112887   0.636   5.132   4.471  1.7632 -2.6155 -1.5212
 3996SOL    HW212888   0.570   5.114   4.322 -0.7694  2.1749 -1.1885
 3997SOL     OW12889   4.160   3.036   5.767 -0.3838 -0.0002 -0.0212
 3997SOL    HW112890   4.127   3.084   5.848  1.0496  0.9059  0.0708
 3997SOL    HW212891   4.220   2.961   5.796 -0.5287 -0.2006 -0.2378
 3998SOL     OW12892   4.926   3.601   4.142 -0.0688  0.4931 -0.2255
 3998SOL    HW112893   4.899   3.578   4.236  2.8635 -0.1225  0.5840
 3998SOL    HW212894   4.902   3.526   4.081 -0.6887  0.2564  0.2957
 3999SOL     OW12895   4.668   2.685   1.256 -0.0114  0.1722  0.7263
 3999SOL    HW112896   4.754   2.682   1.307  1.0929  2.6552 -0.8340
 3999SOL    HW212897   4.604   2.745   1.304  0.4263  1.1617  0.0967
 4000SOL     OW12898   3.213   6.339   3.291 -0.6360 -0.4303 -0.5649
 4000SOL    HW112899   3.252   6.365   3.203 -1.4532 -0.7354 -1.0314
 4000SOL    HW212900   3.276   6.279   3.340  0.4665  0.8974 -0.2870
 4001SOL     OW12901   0.834   5.412   4.683  0.5619  0.0965  0.0958
 4001SOL    HW112902   0.858   5.491   4.627  0.4296  0.6279  0.7776
 4001SOL    HW212903   0.848   5.328   4.630  0.6486  0.5757 -0.6521
 4002SOL     OW12904   3.825   3.430   4.228 -0.3848  0.2656 -0.4344
 4002SOL    HW112905   3.773   3.348   4.251  0.0854 -0.5539 -2.1216
 4002SOL    HW212906   3.803   3.503   4.293 -2.7445 -0.3873 -0.4266
 4003SOL     OW12907   5.004   0.434   5.030 -0.9185  0.3072 -0.3442
 4003SOL    HW112908   4.988   0.336   5.020  1.3049  0.0789 -3.3341
 4003SOL    HW212909   5.012   0.458   5.127 -0.3034 -2.7015  0.4418
 4004SOL     OW12910   0.395   4.335   5.813 -0.0332  0.1182 -0.3478
 4004SOL    HW112911   0.489   4.370   5.813  0.4626 -1.1028  0.6444
 4004SOL    HW212912   0.337   4.395   5.867  0.5233  0.0994  0.2944
 4005SOL     OW12913   6.253   3.710   2.033  0.1914 -0.2167 -0.1920
 4005SOL    HW112914   6.349   3.699   2.060  0.0133 -0.5527  0.3343
 4005SOL    HW212915   6.194   3.672   2.105 -0.3390  0.0771 -0.4659
 4006SOL     OW12916   6.960   5.290   2.109  0.6018 -0.0737 -0.1117
 4006SOL    HW112917   7.053   5.257   2.128  0.7034  0.4436  0.3191
 4006SOL    HW212918   6.965   5.362   2.040  0.7093  1.0593  1.0362
 4007SOL     OW12919   1.348   1.958   3.558  0.2606 -0.0783  0.1016
 4007SOL    HW112920   1.276   1.891   3.573  1.9056 -1.8227  0.5474
 4007SOL    HW212921   1.368   1.964   3.460 -1.0307  1.0558 -0.1196
 4008SOL     OW12922   4.124   0.414   1.336 -0.1099  0.5491 -0.6741
 4008SOL    HW112923   4.139   0.473   1.415  1.2200  0.4691 -0.8406
 4008SOL    HW212924   4.153   0.461   1.253  1.9156 -0.6311 -0.7114
 4009SOL     OW12925   2.052   2.247   3.367  0.0028  0.3838  0.3022
 4009SOL    HW112926   2.124   2.282   3.427 -0.1969 -1.0067  1.4041
 4009SOL    HW212927   2.093   2.205   3.286  0.3073  1.6165 -0.1997
 4010SOL     OW12928   2.039   6.333   2.596 -0.0835 -0.4403  0.4661
 4010SOL    HW112929   1.962   6.388   2.626 -1.0785 -2.4952  1.8475
 4010SOL    HW212930   2.074   6.369   2.509  0.4386  3.3566  2.0478
 4011SOL     OW12931   5.728   1.095   5.632  0.4541  0.2570 -0.7881
 4011SOL    HW112932   5.658   1.102   5.561 -2.2993 -2.1692  1.4346
 4011SOL    HW212933   5.713   1.165   5.702  0.0907 -0.3701 -0.2240
 4012SOL     OW12934   5.924   6.491   1.714 -0.5198  0.2130 -0.3962
 4012SOL    HW112935   5.959   6.569   1.766  0.6105  0.6020 -1.6725
 4012SOL    HW212936   5.988   6.468   1.641  0.1772 -3.1874  1.0881
 4013SOL     OW12937   6.099   0.509   1.242  0.0864 -0.3965 -0.2549
 4013SOL    HW112938   6.040   0.576   1.287  0.3166 -0.8307  0.7213
 4013SOL    HW212939   6.075   0.503   1.145 -2.4250 -1.5245  0.3376
 4014SOL     OW12940   5.456   0.653   3.060  0.0482  0.1176 -0.1530
 4014SOL    HW112941   5.385   0.703   3.110  1.3515  1.7865  0.1299
 4014SOL    HW212942   5.509   0.717   3.004  1.5193 -1.0147 -0.1179
 4015SOL     OW12943   2.866   5.325   5.105  0.1522  0.7264  0.3910
 4015SOL    HW112944   2.871   5.252   5.173  0.1758  0.1279 -0.2525
 4015SOL    HW212945   2.789   5.309   5.043 -0.0472  1.4239  0.4449
 4016SOL     OW12946   5.376   4.280   4.702 -0.0712  0.4525  0.5109
 4016SOL    HW112947   5.372   4.308   4.798  1.5987  0.5268  0.6007
 4016SOL    HW212948   5.302   4.217   4.682 -0.6139  0.6571  1.7807
 4017SOL     OW12949   1.282   0.920   6.270 -0.2957  0.3689 -0.2976
 4017SOL    HW112950   1.278   0.835   6.217  0.6680  1.1942 -1.7543
 4017SOL    HW212951   1.375   0.957   6.266 -0.9659  2.0926 -0.6480
 4018SOL     OW12952   6.450   4.827   6.400 -0.3391 -0.7739  0.0536
 4018SOL    HW112953   6.479   4.839   6.305 -0.3925  0.6241  0.1952
 4018SOL    HW212954   6.353   4.801   6.402  0.0984 -2.6372 -0.3081
 4019SOL     OW12955   1.306   2.233   0.803  0.1304 -0.7268  0.0758
 4019SOL    HW112956   1.322   2.287   0.721  1.5011 -2.8789 -1.1633
 4019SOL    HW212957   1.207   2.229   0.821 -0.4415 -1.8419 -2.7083
 4020SOL     OW12958   5.785   5.097   4.826 -0.2649 -0.3444  0.5459
 4020SOL    HW112959   5.751   5.191   4.828 -1.9786 -0.8269 -1.6065
 4020SOL    HW212960   5.873   5.094   4.780 -0.0231  0.2385  0.9582
 4021SOL     OW12961   2.879   5.604   6.213 -0.4508 -0.0483  0.0286
 4021SOL    HW112962   2.906   5.694   6.244 -3.3697  1.7742 -2.1142
 4021SOL    HW212963   2.817   5.562   6.280 -1.6076  1.0063 -0.3436
 4022SOL     OW12964   5.931   2.199   1.207  0.1098  0.0774  0.2571
 4022SOL    HW112965   5.933   2.108   1.164 -0.5763 -0.3552  1.1253
 4022SOL    HW212966   5.955   2.191   1.303  2.0806  1.1044 -0.0957
 4023SOL     OW12967   5.394   1.420   4.954 -0.0592  0.2773 -0.0781
 4023SOL    HW112968   5.430   1.327   4.948 -0.9042 -0.0077 -0.9337
 4023SOL    HW212969   5.325   1.425   5.026  0.2841  0.3441  0.2468
 4024SOL     OW12970   0.086   0.439   5.884  0.0134 -0.0662  0.5202
 4024SOL    HW112971   0.041   0.355   5.915  0.5519 -0.2704  0.7520
 4024SOL    HW212972   0.021   0.515   5.889  0.1579 -0.0365  2.4297
 4025SOL     OW12973   1.528   4.003   4.765 -0.2527  0.1574 -0.4240
 4025SOL    HW112974   1.476   4.088   4.767 -0.0000  0.3329 -1.0570
 4025SOL    HW212975   1.625   4.024   4.758 -0.0090 -0.1514  1.4364
 4026SOL     OW12976   6.264   6.959   4.112  0.4035  0.3420  0.1476
 4026SOL    HW112977   6.324   6.923   4.041 -1.0099  0.5869 -1.2246
 4026SOL    HW212978   6.238   6.886   4.175  2.5028  0.3320  1.1127
 4027SOL     OW12979   3.556   6.405   3.269 -0.1419  0.1746 -0.3254
 4027SOL    HW112980   3.565   6.484   3.209 -0.1568  0.1031 -0.4217
 4027SOL    HW212981   3.463   6.369   3.263 -0.3841  0.6663  0.3664
 4028SOL     OW12982   5.342   1.049   4.719 -0.5945  0.0824 -0.3888
 4028SOL    HW112983   5.392   1.124   4.674 -0.9362  1.1450  0.9272
 4028SOL    HW212984   5.386   0.962   4.697  0.0430  0.6926 -1.6544
 4029SOL     OW12985   4.026   6.934   1.866 -0.0079 -0.1646 -0.1743
 4029SOL    HW112986   3.969   6.855   1.842  0.5114 -0.0462 -2.0077
 4029SOL    HW212987   4.082   6.912   1.945 -0.7848 -1.1818  0.1183
 4030SOL     OW12988   6.101   1.051   2.400  0.5713  0.2656  0.2840
 4030SOL    HW112989   6.075   1.145   2.420 -0.6147  0.1307 -0.5114
 4030SOL    HW212990   6.096   0.996   2.484  1.2501  0.8934  0.7432
 4031SOL     OW12991   6.453   5.589   6.558  0.2711  0.1479  0.2486
 4031SOL    HW112992   6.461   5.543   6.470 -0.3199  2.2333 -0.9646
 4031SOL    HW212993   6.403   5.674   6.546  0.5171  0.6734  2.5584
 4032SOL     OW12994   5.609   3.369   0.915  0.3761 -0.5360  0.4238
 4032SOL    HW112995   5.632   3.459   0.952  1.6076  0.1011 -1.7090
 4032SOL    HW212996   5.693   3.320   0.891 -0.3032 -1.8048  0.5265
 4033SOL     OW12997   0.354   5.479   3.453  0.0223 -0.3402  0.2107
 4033SOL    HW112998   0.370   5.452   3.548 -0.0573  0.8201  0.5591
 4033SOL    HW212999   0.265   5.523   3.444  0.0964 -0.2927 -0.3690
 4034SOL     OW13000   3.731   1.289   5.662 -0.2734 -0.5821  0.0614
 4034SOL    HW113001   3.691   1.202   5.632  0.7374 -1.2050  0.4792
 4034SOL    HW213002   3.757   1.282   5.758  1.0391 -0.2789 -0.2512
 4035SOL     OW13003   1.667   2.594   1.858 -0.2944 -0.3179  0.3084
 4035SOL    HW113004   1.579   2.592   1.810  0.6003 -0.7656 -1.3945
 4035SOL    HW213005   1.694   2.689   1.875  0.4237 -0.0149 -2.1939
 4036SOL     OW13006   4.518   6.089   3.005  0.1296  0.1697 -0.1303
 4036SOL    HW113007   4.507   5.999   3.047  1.3427  0.3351  0.6018
 4036SOL    HW213008   4.532   6.078   2.907  1.1765 -0.5274  0.0746
 4037SOL     OW13009   3.083   0.193   1.842 -0.2274 -0.1626  0.0625
 4037SOL    HW113010   3.121   0.101   1.849  0.2216 -0.0022 -0.2461
 4037SOL    HW213011   3.140   0.248   1.781 -1.7581 -0.3299 -1.6121
 4038SOL     OW13012   4.730   6.682   5.916  0.2590  0.2865 -0.2786
 4038SOL    HW113013   4.671   6.604   5.934 -0.1989  0.6304 -0.2625
 4038SOL    HW213014   4.773   6.712   6.002  2.2030 -1.3226 -0.6255
 4039SOL     OW13015   1.640   4.730   3.110 -0.1845  0.1517 -0.2541
 4039SOL    HW113016   1.663   4.803   3.046 -3.5503 -0.6466 -2.6139
 4039SOL    HW213017   1.690   4.647   3.084  0.2438  0.4349 -0.3554
 4040SOL     OW13018   1.661   6.552   5.971 -0.6855  0.0708 -0.2188
 4040SOL    HW113019   1.736   6.571   6.034  0.1849 -1.0533 -0.8919
 4040SOL    HW213020   1.674   6.463   5.928 -1.7253  0.4184 -1.3250
 4041SOL     OW13021   0.995   6.967   1.549  0.6899  0.3878  0.0791
 4041SOL    HW113022   1.056   7.043   1.528  0.7939  0.3204  0.1380
 4041SOL    HW213023   0.936   6.993   1.626 -0.7403  1.2091 -1.2328
 4042SOL     OW13024   2.060   1.410   5.167 -0.2855  0.1708 -0.0640
 4042SOL    HW113025   1.987   1.445   5.108 -0.2748 -1.4603 -1.0983
 4042SOL    HW213026   2.020   1.353   5.239  0.0062 -1.4398 -1.1542
 4043SOL     OW13027   4.277   2.846   6.323  0.3568 -0.2772 -0.3320
 4043SOL    HW113028   4.291   2.945   6.313 -0.8001 -0.0444  0.1218
 4043SOL    HW213029   4.229   2.828   6.409  3.5285 -1.5438  1.3663
 4044SOL     OW13030   4.896   3.682   1.499  0.1034 -0.5264 -0.0698
 4044SOL    HW113031   4.981   3.670   1.448  0.8110 -0.4483  1.0477
 4044SOL    HW213032   4.841   3.599   1.492  1.2542 -1.4277  0.9148
 4045SOL     OW13033   6.177   0.535   5.467 -0.0188 -0.3497  0.4274
 4045SOL    HW113034   6.244   0.579   5.408  0.3912 -0.5152  0.7679
 4045SOL    HW213035   6.192   0.562   5.562 -0.6033 -0.1762  0.4774
 4046SOL     OW13036   4.569   6.188   1.951 -0.8433  0.2535 -0.0560
 4046SOL    HW113037   4.599   6.145   2.037 -0.0474 -1.0063 -0.9257
 4046SOL    HW213038   4.618   6.275   1.939 -0.2703 -0.0101  0.3177
 4047SOL     OW13039   2.800   1.100   6.819 -0.0678 -0.2853 -0.5968
 4047SOL    HW113040   2.781   1.161   6.897 -0.4752 -1.2322  0.0669
 4047SOL    HW213041   2.899   1.091   6.808  0.0124 -0.6573  0.2601
 4048SOL     OW13042   5.333   2.381   2.951 -0.1152 -0.4438 -0.1495
 4048SOL    HW113043   5.248   2.330   2.960 -0.3214  0.0342  0.7622
 4048SOL    HW213044   5.408   2.331   2.994 -0.1882 -0.2743  0.1741
 4049SOL     OW13045   3.109   3.962   1.772 -0.1818 -0.0151  0.0349
 4049SOL    HW113046   3.108   4.062   1.780  2.0923  0.1769 -1.3309
 4049SOL    HW213047   3.111   3.921   1.863 -0.9186  1.1779  0.6050
 4050SOL     OW13048   6.889   5.637   3.552  1.0380  0.2954 -0.0983
 4050SOL    HW113049   6.872   5.543   3.524  1.1947  0.1624  0.2459
 4050SOL    HW213050   6.857   5.700   3.481  0.6553 -0.0070 -0.1945
 4051SOL     OW13051   5.682   2.535   1.846 -0.3035 -0.4285 -0.4742
 4051SOL    HW113052   5.665   2.481   1.928  0.3520  1.7722  1.2182
 4051SOL    HW213053   5.780   2.531   1.823 -0.4921 -1.0734 -1.2045
 4052SOL     OW13054   3.328   2.563   6.979  0.5945 -0.2363 -0.1893
 4052SOL    HW113055   3.345   2.532   7.072 -2.5910  0.7917  0.8528
 4052SOL    HW213056   3.338   2.662   6.974 -0.6904 -0.1077 -0.5513
 4053SOL     OW13057   0.087   5.667   2.523  0.2788 -0.0906 -0.1882
 4053SOL    HW113058   0.031   5.748   2.538 -0.4012 -0.6908  0.5719
 4053SOL    HW213059   0.100   5.618   2.610 -0.5779 -1.6119 -0.8784
 4054SOL     OW13060   5.437   4.729   2.015  0.7596 -0.5177 -0.2684
 4054SOL    HW113061   5.358   4.756   2.070  1.1275  0.5530 -0.2527
 4054SOL    HW213062   5.458   4.632   2.032 -0.6633 -0.8805 -0.4275
 4055SOL     OW13063   6.794   3.175   0.179 -0.3539  0.0330 -0.8730
 4055SOL    HW113064   6.880   3.132   0.148 -0.7415 -0.8223 -0.7995
 4055SOL    HW213065   6.777   3.151   0.274 -1.0675 -0.4701 -1.1143
 4056SOL     OW13066   5.893   4.232   2.258  0.7939  0.3376  0.1816
 4056SOL    HW113067   5.951   4.305   2.222  2.3933 -0.5397  0.8700
 4056SOL    HW213068   5.834   4.197   2.185 -0.2618  2.4960 -0.0856
 4057SOL     OW13069   6.533   4.449   5.547  0.6494 -0.3965 -0.1045
 4057SOL    HW113070   6.470   4.503   5.492  1.2308  0.5579  0.1593
 4057SOL    HW213071   6.606   4.414   5.489  1.7226  1.2987  0.1768
 4058SOL     OW13072   4.379   1.935   3.113 -0.1891  0.3229  0.3202
 4058SOL    HW113073   4.303   1.980   3.066  0.7134  1.0062 -0.5178
 4058SOL    HW213074   4.434   2.004   3.160  1.1771  0.1284 -0.9242
 4059SOL     OW13075   2.167   0.370   2.415  0.4177 -0.1428  0.3215
 4059SOL    HW113076   2.168   0.467   2.440  3.0074  0.0132 -0.2101
 4059SOL    HW213077   2.193   0.359   2.320  0.9519 -1.4160  0.5961
 4060SOL     OW13078   6.283   6.764   4.303 -0.0194 -0.0015 -0.3123
 4060SOL    HW113079   6.337   6.693   4.258 -1.5114 -0.8622 -0.8513
 4060SOL    HW213080   6.328   6.792   4.388  1.9069  0.3001 -1.3847
 4061SOL     OW13081   0.523   4.354   2.380  0.4184 -0.1035  0.4271
 4061SOL    HW113082   0.545   4.353   2.478  1.7586  0.8154  0.1664
 4061SOL    HW213083   0.564   4.274   2.337 -0.1212 -0.4773  0.6032
 4062SOL     OW13084   3.893   3.593   0.399 -0.0405 -0.5479  0.5938
 4062SOL    HW113085   3.829   3.527   0.360  0.3505 -0.4375 -0.2410
 4062SOL    HW213086   3.846   3.648   0.467 -1.1283  0.2657 -0.7785
 4063SOL     OW13087   3.617   0.093   6.638 -0.0803 -0.0302 -0.0337
 4063SOL    HW113088   3.704   0.073   6.593  0.0983 -1.0197  0.7262
 4063SOL    HW213089   3.553   0.131   6.571  1.0255  1.0266 -0.5317
 4064SOL     OW13090   1.865   0.048   5.368  0.3588  0.1843  0.3615
 4064SOL    HW113091   1.794   0.030   5.435  0.2729 -2.0664 -0.2567
 4064SOL    HW213092   1.824   0.081   5.283 -0.2488 -2.6427 -0.5605
 4065SOL     OW13093   2.609   1.148   0.682 -0.0642  0.6829  0.6263
 4065SOL    HW113094   2.554   1.193   0.611  1.2823 -0.6688 -1.3742
 4065SOL    HW213095   2.699   1.191   0.686  0.6890 -0.7395 -0.2098
 4066SOL     OW13096   1.418   3.953   5.419  0.2175  0.1465 -0.0932
 4066SOL    HW113097   1.339   3.896   5.443  0.2120  0.8580  1.8025
 4066SOL    HW213098   1.445   3.935   5.325 -2.7510  0.5000 -1.1076
 4067SOL     OW13099   5.847   5.076   2.316 -0.1797 -0.8076  0.0841
 4067SOL    HW113100   5.792   5.159   2.313 -0.1548 -0.7787  0.3661
 4067SOL    HW213101   5.941   5.099   2.341  0.2754 -0.7023 -1.5705
 4068SOL     OW13102   2.053   0.976   6.380  0.1825  0.3659 -0.5718
 4068SOL    HW113103   2.130   1.002   6.321 -1.2925 -0.0707 -2.8263
 4068SOL    HW213104   2.031   1.052   6.441  1.4976  1.0203 -0.8717
 4069SOL     OW13105   3.868   0.465   5.301  0.1296 -0.0430 -0.3392
 4069SOL    HW113106   3.769   0.468   5.288  0.3690  3.1317 -2.4084
 4069SOL    HW213107   3.893   0.519   5.381  0.2279 -1.3071  0.5243
 4070SOL     OW13108   1.382   4.726   4.876 -0.4175 -0.2713 -0.8453
 4070SOL    HW113109   1.462   4.773   4.838 -0.3108  0.2203 -0.0308
 4070SOL    HW213110   1.331   4.682   4.802 -0.1734  0.6127 -1.5556
 4071SOL     OW13111   1.429   5.245   4.626  0.3994 -0.3656 -0.3084
 4071SOL    HW113112   1.439   5.209   4.719 -2.8775  0.5017  0.4890
 4071SOL    HW213113   1.428   5.169   4.561  2.2511 -1.0088  0.3356
 4072SOL     OW13114   3.487   0.259   1.241  0.1171 -0.0566 -0.2859
 4072SOL    HW113115   3.448   0.214   1.161  1.0724 -2.1509  0.3506
 4072SOL    HW213116   3.472   0.358   1.235  1.3049  0.0145 -3.6480
 4073SOL     OW13117   4.048   4.708   1.831 -0.1386  0.4936 -0.4294
 4073SOL    HW113118   4.051   4.756   1.918 -0.2564 -0.7216  0.2679
 4073SOL    HW213119   3.971   4.643   1.831  2.0536 -2.3185  0.1086
 4074SOL     OW13120   3.602   5.656   2.469 -0.2484  0.7436  0.1420
 4074SOL    HW113121   3.620   5.634   2.373 -1.8854  1.7151 -0.4321
 4074SOL    HW213122   3.511   5.623   2.494 -0.0472  0.9723  1.2146
 4075SOL     OW13123   6.437   1.756   0.191  0.1714  0.2541 -0.1417
 4075SOL    HW113124   6.533   1.783   0.201  0.5418 -1.2900  0.8152
 4075SOL    HW213125   6.431   1.675   0.132 -0.5090  0.1402  0.0779
 4076SOL     OW13126   1.737   5.529   5.224  0.6833 -0.2404 -0.0215
 4076SOL    HW113127   1.837   5.531   5.220  0.7085 -1.2340 -0.1566
 4076SOL    HW213128   1.702   5.482   5.143  0.1745 -1.1521  0.7096
 4077SOL     OW13129   0.692   2.520   0.574 -0.4886  0.7176  0.7904
 4077SOL    HW113130   0.785   2.547   0.600 -0.5721  2.0469 -0.2045
 4077SOL    HW213131   0.696   2.464   0.490 -0.6654  2.2201 -0.2603
 4078SOL     OW13132   3.591   5.735   1.872 -0.0867  0.1657  0.1912
 4078SOL    HW113133   3.550   5.644   1.864 -2.4070  1.0316  1.2983
 4078SOL    HW213134   3.663   5.732   1.941  0.4992 -1.0010 -0.4318
 4079SOL     OW13135   1.725   1.048   3.224  0.2363  0.6931 -0.1645
 4079SOL    HW113136   1.707   1.145   3.240  2.4359  1.3601 -1.3185
 4079SOL    HW213137   1.796   1.017   3.287 -0.6333 -0.2805  0.3781
 4080SOL     OW13138   0.406   2.558   4.803  0.2194 -0.1396  0.2738
 4080SOL    HW113139   0.408   2.654   4.777  0.7157 -0.2352 -0.0728
 4080SOL    HW213140   0.488   2.536   4.856  0.7696 -0.6635 -0.7633
 4081SOL     OW13141   4.477   4.723   2.171  0.0182 -0.8051 -0.0216
 4081SOL    HW113142   4.529   4.804   2.196  0.0471 -0.9353  0.3593
 4081SOL    HW213143   4.380   4.746   2.163 -0.0349 -0.8253  0.5354
 4082SOL     OW13144   0.063   3.632   2.185  0.3234  0.0903  0.5915
 4082SOL    HW113145   0.094   3.691   2.259 -1.9381 -0.0888  1.7578
 4082SOL    HW213146   0.140   3.613   2.123  1.9694  1.2490  2.1768
 4083SOL     OW13147   1.603   3.736   4.350  0.2472 -0.1625 -0.7687
 4083SOL    HW113148   1.602   3.754   4.251 -0.0578 -1.2289 -0.9701
 4083SOL    HW213149   1.511   3.711   4.380 -0.0538  1.8114  0.1325
 4084SOL     OW13150   3.297   4.908   3.793  0.7256  0.1141 -0.9236
 4084SOL    HW113151   3.317   4.941   3.885 -1.0730  0.8470 -0.7584
 4084SOL    HW213152   3.380   4.870   3.753  1.5432 -0.2242  0.9884
 4085SOL     OW13153   2.105   4.367   6.151 -0.0151 -0.0747 -0.6508
 4085SOL    HW113154   2.008   4.374   6.131  0.3478  4.6928 -1.9701
 4085SOL    HW213155   2.157   4.363   6.066  0.9696  3.4330 -0.3861
 4086SOL     OW13156   6.786   2.047   2.687  0.1837  0.5051 -0.1541
 4086SOL    HW113157   6.739   2.044   2.775  0.5488  2.0367  0.1264
 4086SOL    HW213158   6.885   2.036   2.701  0.3950  2.1093 -0.1876
 4087SOL     OW13159   1.806   6.915   3.072 -0.2472 -0.8897  0.2878
 4087SOL    HW113160   1.886   6.949   3.023 -0.1853 -0.7384  0.4943
 4087SOL    HW213161   1.827   6.909   3.170 -0.7217 -0.1366  0.4459
 4088SOL     OW13162   0.351   3.307   0.455  0.0163  0.6698  0.4776
 4088SOL    HW113163   0.369   3.243   0.381 -0.4747 -0.8023  1.5941
 4088SOL    HW213164   0.432   3.313   0.515 -0.3910  0.1071  1.0883
 4089SOL     OW13165   0.912   6.914   4.223 -0.3567 -0.5701  0.3464
 4089SOL    HW113166   0.871   6.852   4.157 -0.5797  0.1222 -0.1874
 4089SOL    HW213167   0.964   6.862   4.291 -1.0400 -1.3693  0.2744
 4090SOL     OW13168   4.178   5.467   7.023 -0.1630  0.1013  0.3608
 4090SOL    HW113169   4.116   5.445   6.948 -0.2263  0.9874  0.1509
 4090SOL    HW213170   4.226   5.552   7.004  1.8155 -0.9944  0.0951
 4091SOL     OW13171   4.009   5.373   1.156 -0.1971  0.0990 -0.0978
 4091SOL    HW113172   4.010   5.274   1.169  0.1835  0.3898  2.6554
 4091SOL    HW213173   3.918   5.401   1.124 -0.7622 -1.0069  0.4583
 4092SOL     OW13174   1.094   3.381   2.741  0.1421 -0.0542 -0.0633
 4092SOL    HW113175   1.174   3.321   2.729 -0.2972 -0.5509 -0.6177
 4092SOL    HW213176   1.012   3.332   2.711 -0.4463  0.2578  1.0093
 4093SOL     OW13177   0.048   0.688   3.963  0.1044 -0.0583 -0.6004
 4093SOL    HW113178   0.049   0.601   3.916  0.1436 -0.4174  0.0508
 4093SOL    HW213179   0.139   0.729   3.961 -0.1390  0.4537 -1.7780
 4094SOL     OW13180   3.873   2.597   6.087 -0.2557  1.0397 -0.0742
 4094SOL    HW113181   3.806   2.523   6.089  1.3537 -0.4930 -0.6812
 4094SOL    HW213182   3.880   2.637   6.178  0.3913 -1.0147  0.8192
 4095SOL     OW13183   2.025   4.958   6.485 -0.1412 -0.7715  0.6359
 4095SOL    HW113184   1.984   4.885   6.540 -1.4204 -0.1771  0.5140
 4095SOL    HW213185   1.961   4.984   6.412  1.2636 -1.1284 -0.7851
 4096SOL     OW13186   4.560   5.248   1.497 -0.5169  0.4300 -0.5488
 4096SOL    HW113187   4.619   5.178   1.538  2.9060  0.5493 -4.5455
 4096SOL    HW213188   4.590   5.339   1.526 -1.8946  0.4649  0.9448
 4097SOL     OW13189   2.945   3.569   2.398  0.2289  0.3926 -0.3391
 4097SOL    HW113190   2.888   3.537   2.473 -1.8069  0.3536 -1.7966
 4097SOL    HW213191   3.039   3.582   2.429 -0.1304 -1.4354  1.7081
 4098SOL     OW13192   1.956   2.132   1.868  0.7613 -0.1434 -0.3075
 4098SOL    HW113193   2.012   2.193   1.923  2.4295 -2.4475  0.7029
 4098SOL    HW213194   1.968   2.154   1.771 -1.3734  3.2449  0.0151
 4099SOL     OW13195   4.088   0.041   7.017  0.2007  0.4389  0.1068
 4099SOL    HW113196   4.072   0.115   6.952 -1.1958  1.5101  1.5793
 4099SOL    HW213197   4.027   0.052   7.096 -1.0591 -3.0378 -0.1889
 4100SOL     OW13198   4.943   6.598   2.347  0.0981  0.4474 -0.4376
 4100SOL    HW113199   4.993   6.636   2.425 -0.7470  1.1859 -0.2395
 4100SOL    HW213200   4.993   6.520   2.310  0.0932 -0.4569  1.3703
 4101SOL     OW13201   4.476   0.892   0.752  0.1942 -0.3887 -0.0059
 4101SOL    HW113202   4.416   0.875   0.831 -0.1593  0.3424 -0.1125
 4101SOL    HW213203   4.518   0.982   0.761  0.8005 -0.6384 -0.2517
 4102SOL     OW13204   6.792   1.709   0.597  0.4830  0.9059  0.2248
 4102SOL    HW113205   6.889   1.731   0.590  0.6224  0.0525 -0.5681
 4102SOL    HW213206   6.771   1.627   0.544 -0.6655  1.0485  0.4185
 4103SOL     OW13207   6.865   2.024   2.115  0.0840  0.3553  0.4370
 4103SOL    HW113208   6.877   1.953   2.046 -0.6667  0.5281  0.1110
 4103SOL    HW213209   6.768   2.028   2.141  0.1081  1.3130  0.3894
 4104SOL     OW13210   1.469   3.785   2.136  0.0483 -0.4004 -0.2367
 4104SOL    HW113211   1.418   3.759   2.054  0.0915 -0.8925 -0.1100
 4104SOL    HW213212   1.541   3.718   2.153 -0.8800 -1.1197  1.0309
 4105SOL     OW13213   0.152   5.712   0.659 -0.2035  0.0298 -0.3112
 4105SOL    HW113214   0.196   5.758   0.736 -0.1665  0.2761 -0.4789
 4105SOL    HW213215   0.054   5.704   0.677 -0.0392 -0.9217  0.2677
 4106SOL     OW13216   2.376   2.724   4.484 -0.1964 -0.6513 -0.2823
 4106SOL    HW113217   2.373   2.624   4.488 -0.7786 -0.6462 -0.3663
 4106SOL    HW213218   2.414   2.761   4.569 -0.3850 -0.9347 -0.0728
 4107SOL     OW13219   0.244   6.672   2.104  0.7710 -0.0706  0.0287
 4107SOL    HW113220   0.328   6.635   2.143  0.5505 -0.1809  0.4009
 4107SOL    HW213221   0.222   6.759   2.148 -0.2894 -0.9200  1.2266
 4108SOL     OW13222   0.340   0.063   5.654 -0.5524 -0.0446 -0.2584
 4108SOL    HW113223   0.304   0.156   5.654  1.0116  0.5917 -0.0996
 4108SOL    HW213224   0.435   0.064   5.683 -0.7118 -1.8000  0.4613
 4109SOL     OW13225   1.958   6.963   1.428 -0.5856  0.0693  0.7200
 4109SOL    HW113226   1.871   7.011   1.441  0.0501  0.8339  2.4370
 4109SOL    HW213227   1.942   6.878   1.377 -2.4224 -0.0728  1.4661
 4110SOL     OW13228   4.824   5.353   4.466 -0.1299  0.4874  0.0191
 4110SOL    HW113229   4.903   5.387   4.517 -0.2763  1.3325 -0.2983
 4110SOL    HW213230   4.774   5.430   4.426 -0.5973 -0.0902 -0.5440
 4111SOL     OW13231   2.428   3.368   0.437 -0.0789 -0.0046 -0.1544
 4111SOL    HW113232   2.415   3.348   0.534  0.3136 -1.3568 -0.3691
 4111SOL    HW213233   2.525   3.383   0.419 -0.3932  3.0588  0.1438
 4112SOL     OW13234   3.170   0.776   5.911 -0.4008  0.6845  0.4156
 4112SOL    HW113235   3.149   0.834   5.833  1.7144  1.3721  0.3018
 4112SOL    HW213236   3.114   0.805   5.990  0.6107  2.9668  0.3837
 4113SOL     OW13237   4.087   6.618   3.656 -0.3728  0.0565  0.4139
 4113SOL    HW113238   4.113   6.565   3.575 -0.4400 -0.2486  0.5885
 4113SOL    HW213239   4.087   6.715   3.634 -0.0431 -0.0035  0.1446
 4114SOL     OW13240   3.434   0.790   2.909 -0.3613  0.1166 -0.2034
 4114SOL    HW113241   3.364   0.730   2.947  1.3006  0.5914  4.0892
 4114SOL    HW213242   3.389   0.863   2.856 -2.9497 -0.5132  0.9528
 4115SOL     OW13243   0.137   3.976   4.217 -0.6236  0.5719 -0.0051
 4115SOL    HW113244   0.226   4.018   4.198 -0.3747 -1.0429 -3.1161
 4115SOL    HW213245   0.149   3.901   4.282 -0.0260  1.3368  0.8025
 4116SOL     OW13246   1.665   0.671   1.136  0.6456  0.1433  0.4888
 4116SOL    HW113247   1.657   0.766   1.164 -1.7770  0.2203 -0.2280
 4116SOL    HW213248   1.725   0.665   1.056 -1.3804  1.5438 -1.2431
 4117SOL     OW13249   0.997   6.419   1.150  0.7369  0.4604 -0.0418
 4117SOL    HW113250   1.000   6.321   1.169  2.5342  0.4892  0.0633
 4117SOL    HW213251   0.978   6.433   1.053 -0.9542  0.0705  0.2156
 4118SOL     OW13252   1.321   0.424   5.575  0.1990  0.6077 -0.2189
 4118SOL    HW113253   1.249   0.406   5.642  0.0781  1.6951 -0.0505
 4118SOL    HW213254   1.293   0.388   5.486  1.1290 -2.5505  0.6156
 4119SOL     OW13255   6.060   0.209   2.214 -0.2260 -0.3770 -0.0866
 4119SOL    HW113256   6.078   0.308   2.214  0.0258 -0.4231  0.0783
 4119SOL    HW213257   5.983   0.190   2.275 -2.0219  0.0291 -2.0868
 4120SOL     OW13258   6.156   2.773   1.648  0.4377  0.4670 -0.3147
 4120SOL    HW113259   6.246   2.765   1.691  1.2898  1.7494 -1.7573
 4120SOL    HW213260   6.141   2.694   1.588  0.2397 -0.1485  0.5235
 4121SOL     OW13261   4.903   3.072   3.957  0.1557  0.4467 -0.5617
 4121SOL    HW113262   4.846   3.055   3.876  0.6908  0.1430 -0.8786
 4121SOL    HW213263   4.990   3.024   3.947 -0.2568 -0.6211  0.7605
 4122SOL     OW13264   1.457   4.575   0.760 -0.0953  0.1526  0.7160
 4122SOL    HW113265   1.377   4.634   0.771 -0.4918 -0.6629  2.7553
 4122SOL    HW213266   1.444   4.513   0.683 -1.4837 -0.0292  1.0806
 4123SOL     OW13267   3.254   2.801   5.147 -0.1216 -0.2851  0.5366
 4123SOL    HW113268   3.338   2.778   5.195  0.4005  0.5873  0.0533
 4123SOL    HW213269   3.275   2.852   5.064 -1.2010  1.8786  1.5162
 4124SOL     OW13270   5.313   4.890   1.351  0.0359 -0.8326  0.2901
 4124SOL    HW113271   5.288   4.848   1.264  0.4273 -0.3926 -0.0390
 4124SOL    HW213272   5.345   4.819   1.414  1.8194 -0.9213 -0.6597
 4125SOL     OW13273   4.165   1.024   2.863 -0.8652  0.0607  0.2463
 4125SOL    HW113274   4.100   0.947   2.860 -0.4648 -0.3416  1.3382
 4125SOL    HW213275   4.114   1.110   2.854 -1.3139 -0.3200 -1.0197
 4126SOL     OW13276   2.316   2.382   5.088  0.0581  0.2047  0.1818
 4126SOL    HW113277   2.312   2.287   5.119 -0.0167  0.3597  0.6653
 4126SOL    HW213278   2.281   2.442   5.161  0.8036  0.6663  0.1723
 4127SOL     OW13279   5.573   6.903   3.412  0.3431  0.3928  0.3019
 4127SOL    HW113280   5.526   6.815   3.421 -0.1485  0.8201  2.2551
 4127SOL    HW213281   5.561   6.938   3.319  0.7988 -1.7165 -0.6062
 4128SOL     OW13282   6.496   0.721   2.805 -0.7422  0.4748  0.0194
 4128SOL    HW113283   6.555   0.781   2.860 -0.9776  1.1814 -0.4822
 4128SOL    HW213284   6.497   0.751   2.710 -1.4192  0.1060 -0.1117
 4129SOL     OW13285   1.343   3.956   6.767  0.0856  0.3035  0.0159
 4129SOL    HW113286   1.378   4.009   6.690 -1.0112 -0.0747 -0.7678
 4129SOL    HW213287   1.266   4.004   6.809  0.5057  0.3776  0.7157
 4130SOL     OW13288   5.598   4.730   2.914 -0.1109 -0.2750 -0.3661
 4130SOL    HW113289   5.676   4.793   2.908 -0.8981  1.2865  3.2520
 4130SOL    HW213290   5.530   4.755   2.844  0.6731  1.2935 -0.6104
 4131SOL     OW13291   0.564   5.560   4.581  0.4101 -0.0684 -0.0119
 4131SOL    HW113292   0.608   5.528   4.665  1.0295  0.3450 -0.1609
 4131SOL    HW213293   0.506   5.639   4.602  2.2116  1.4040 -0.2380
 4132SOL     OW13294   5.717   0.264   2.510 -0.2856 -0.0591 -0.3188
 4132SOL    HW113295   5.632   0.213   2.521 -1.0656  1.3631  0.6458
 4132SOL    HW213296   5.756   0.284   2.600  0.8122 -0.2563 -0.7357
 4133SOL     OW13297   1.239   2.560   1.121  0.3432  0.4406 -0.1162
 4133SOL    HW113298   1.293   2.633   1.164 -0.1626  0.5190  0.3919
 4133SOL    HW213299   1.227   2.485   1.186  0.2655  0.2010 -0.4027
 4134SOL     OW13300   0.664   1.686   1.774 -0.1018 -0.1122 -0.2499
 4134SOL    HW113301   0.617   1.745   1.709 -1.4937  1.2049  1.8199
 4134SOL    HW213302   0.597   1.639   1.832  1.0675 -0.3558  0.9714
 4135SOL     OW13303   0.318   0.917   2.500 -0.0219 -0.4943  0.4299
 4135SOL    HW113304   0.344   0.844   2.436  0.1723  0.4925 -0.6550
 4135SOL    HW213305   0.393   0.983   2.507 -0.1532 -0.4423  1.4876
 4136SOL     OW13306   2.167   1.876   5.103 -0.2815  0.3218 -0.5110
 4136SOL    HW113307   2.243   1.941   5.108 -0.0773  0.0016  1.0047
 4136SOL    HW213308   2.122   1.870   5.192  0.6055 -2.6496 -0.1711
 4137SOL     OW13309   3.791   3.731   3.162 -0.3458  0.3029  0.1341
 4137SOL    HW113310   3.721   3.781   3.213 -0.9555 -0.1691 -0.2275
 4137SOL    HW213311   3.782   3.751   3.064  0.9078  1.3177  0.2041
 4138SOL     OW13312   5.384   6.007   3.148 -0.2676 -0.0175 -0.0130
 4138SOL    HW113313   5.377   6.054   3.236  0.1281  0.9138 -0.4723
 4138SOL    HW213314   5.305   6.031   3.091 -0.9482 -1.2516  0.3654
 4139SOL     OW13315   2.673   1.425   0.542 -0.0472  0.5362 -0.0590
 4139SOL    HW113316   2.761   1.380   0.529 -0.2609 -0.6571  2.1712
 4139SOL    HW213317   2.689   1.519   0.573  0.4371  0.3302  0.3314
 4140SOL     OW13318   4.789   2.331   4.536 -0.1129 -0.4432  0.8887
 4140SOL    HW113319   4.825   2.382   4.458  0.8290 -0.1343  1.5062
 4140SOL    HW213320   4.805   2.383   4.620 -4.8399  1.3223  1.0163
 4141SOL     OW13321   5.620   4.122   6.960  0.2146  0.1317  0.4607
 4141SOL    HW113322   5.637   4.050   7.027 -0.8284  1.2128  1.9284
 4141SOL    HW213323   5.550   4.091   6.895 -2.3603  0.7533  2.7683
 4142SOL     OW13324   5.225   3.100   2.166  0.2992  0.0409 -0.8531
 4142SOL    HW113325   5.214   3.038   2.089 -0.2079  1.1653 -1.7172
 4142SOL    HW213326   5.163   3.074   2.240 -0.1668 -0.2716 -1.3490
 4143SOL     OW13327   1.466   4.104   2.588  0.0051  0.1571 -0.3368
 4143SOL    HW113328   1.498   4.089   2.495 -0.1227  0.5047 -0.4379
 4143SOL    HW213329   1.543   4.131   2.646 -0.0733  0.8783 -0.5550
 4144SOL     OW13330   4.309   6.390   1.482 -0.3960 -0.5300  0.4217
 4144SOL    HW113331   4.401   6.376   1.519 -0.9948 -1.5433  1.5848
 4144SOL    HW213332   4.242   6.342   1.538 -1.5151 -0.9636 -1.1992
 4145SOL     OW13333   3.968   6.444   2.844  0.0396 -0.0260 -0.2612
 4145SOL    HW113334   3.929   6.427   2.935  1.1825 -0.2910  0.1948
 4145SOL    HW213335   3.958   6.363   2.787  0.4125 -0.2862  0.0403
 4146SOL     OW13336   6.355   4.943   2.044  0.0951  0.9529  0.1392
 4146SOL    HW113337   6.269   4.993   2.051  0.1997  1.0594  0.6955
 4146SOL    HW213338   6.408   4.956   2.128  0.9354  1.4159 -0.4520
 4147SOL     OW13339   3.424   2.207   0.596  0.5650  0.2127  0.1876
 4147SOL    HW113340   3.483   2.142   0.644  0.3037 -0.0712  0.1274
 4147SOL    HW213341   3.341   2.160   0.564  0.4844  0.5214 -0.0636
 4148SOL     OW13342   1.180   6.594   1.269 -0.2650  0.3550 -0.4085
 4148SOL    HW113343   1.266   6.543   1.267  0.3177  1.2965  0.1606
 4148SOL    HW213344   1.107   6.537   1.232  0.3267 -0.9660  0.4015
 4149SOL     OW13345   4.571   4.893   2.524 -0.2939 -0.3516 -0.1235
 4149SOL    HW113346   4.581   4.934   2.434 -1.3327 -1.2569 -0.6799
 4149SOL    HW213347   4.523   4.958   2.584  2.5569  1.2628  0.5788
 4150SOL     OW13348   2.827   1.097   3.052  0.1975  0.6684  0.1164
 4150SOL    HW113349   2.732   1.086   3.023  0.4005  0.4416 -0.4850
 4150SOL    HW213350   2.848   1.194   3.062 -0.6380  0.6961  2.1515
 4151SOL     OW13351   0.930   4.136   6.021 -0.7629 -0.8986 -0.9480
 4151SOL    HW113352   0.906   4.150   6.117  0.1789  2.1281 -1.0573
 4151SOL    HW213353   0.970   4.045   6.010  1.0009 -0.6112  1.9525
 4152SOL     OW13354   2.998   3.449   0.224  0.0779  0.1314  0.0967
 4152SOL    HW113355   3.027   3.490   0.310 -1.1492  0.5339  0.3356
 4152SOL    HW213356   2.924   3.384   0.241  0.8554 -0.9569 -0.4835
 4153SOL     OW13357   0.953   6.856   1.318  0.2421  0.2343 -0.4079
 4153SOL    HW113358   1.042   6.878   1.279  0.1709  1.5121  0.1245
 4153SOL    HW213359   0.953   6.874   1.416 -0.3338 -0.6275 -0.2342
 4154SOL     OW13360   5.525   1.779   5.190 -0.1633  0.0545 -0.0221
 4154SOL    HW113361   5.591   1.710   5.160  0.9143  1.0527 -0.0440
 4154SOL    HW213362   5.567   1.870   5.184 -1.8374  0.8141 -0.8201
 4155SOL     OW13363   0.862   2.970   6.910  0.2412  0.4288  0.4358
 4155SOL    HW113364   0.946   2.937   6.952  0.4980 -0.1337 -0.5033
 4155SOL    HW213365   0.846   3.065   6.939  0.4692  0.1144  1.6828
 4156SOL     OW13366   3.628   0.304   4.675  0.2640  0.4739  0.8463
 4156SOL    HW113367   3.583   0.321   4.763  0.0197  0.1566  0.7839
 4156SOL    HW213368   3.605   0.378   4.612 -1.4009 -0.4196  0.3438
 4157SOL     OW13369   5.118   2.087   2.494 -0.3660 -0.1826  0.1354
 4157SOL    HW113370   5.156   2.049   2.410 -0.5787  0.3490 -0.2082
 4157SOL    HW213371   5.192   2.111   2.557  0.0091  2.2717 -1.1411
 4158SOL     OW13372   1.611   6.589   2.623 -0.1713  0.3623  0.7644
 4158SOL    HW113373   1.613   6.680   2.582 -0.0694 -0.4131 -1.0838
 4158SOL    HW213374   1.523   6.575   2.669 -0.4075  1.1885  0.5814
 4159SOL     OW13375   6.554   4.505   4.551 -0.2050  0.4038  0.2603
 4159SOL    HW113376   6.560   4.408   4.573  0.6395 -0.5375 -3.4859
 4159SOL    HW213377   6.459   4.529   4.532 -0.5227  0.5724  1.8776
 4160SOL     OW13378   5.495   0.786   1.366 -0.0534  0.1660  0.4851
 4160SOL    HW113379   5.533   0.702   1.327 -3.0778 -0.2240 -2.0088
 4160SOL    HW213380   5.402   0.769   1.398 -0.7938  2.5363 -0.1741
 4161SOL     OW13381   0.216   2.516   2.044 -0.0007  0.6092  0.3017
 4161SOL    HW113382   0.163   2.596   2.016 -0.6928  0.3335  0.7908
 4161SOL    HW213383   0.238   2.523   2.142 -0.0685  0.2002  0.3464
 4162SOL     OW13384   0.895   1.029   5.343 -0.2240  0.1434 -0.0386
 4162SOL    HW113385   0.805   1.061   5.313  0.0280  0.2380 -0.7104
 4162SOL    HW213386   0.964   1.099   5.324  0.1145 -0.2390 -0.2477
 4163SOL     OW13387   0.167   3.463   3.787  0.0647 -0.4085 -0.1532
 4163SOL    HW113388   0.186   3.444   3.883 -0.5809 -0.2926  0.0043
 4163SOL    HW213389   0.070   3.445   3.769  0.2182 -0.5830 -0.8194
 4164SOL     OW13390   1.458   5.916   6.941  0.2940 -0.0032 -0.3799
 4164SOL    HW113391   1.475   5.819   6.956  0.5188  0.1620  0.5112
 4164SOL    HW213392   1.402   5.928   6.859  2.2198 -0.7254 -1.8560
 4165SOL     OW13393   1.533   0.795   1.811  0.2349  0.4230  0.2351
 4165SOL    HW113394   1.455   0.749   1.768  0.5127  1.6270 -1.6570
 4165SOL    HW213395   1.525   0.787   1.911 -0.2736 -2.7658  0.0481
 4166SOL     OW13396   5.854   2.320   2.901 -0.1457 -0.4403  0.6847
 4166SOL    HW113397   5.856   2.403   2.957  1.7529  1.3614 -1.8035
 4166SOL    HW213398   5.759   2.298   2.877 -0.8302 -0.1396  2.8966
 4167SOL     OW13399   2.358   2.166   6.776  0.5855  0.2413 -0.0637
 4167SOL    HW113400   2.389   2.157   6.681  1.4551  0.9046  0.1523
 4167SOL    HW213401   2.364   2.261   6.805  1.0696 -0.0784  0.9124
 4168SOL     OW13402   3.382   5.201   2.432  0.0687 -0.2386  0.1775
 4168SOL    HW113403   3.366   5.183   2.529  1.6310 -2.0076  0.1650
 4168SOL    HW213404   3.462   5.150   2.401  1.7322  2.9021 -1.2425
 4169SOL     OW13405   0.528   2.182   1.124 -0.0373  0.4668 -0.2858
 4169SOL    HW113406   0.443   2.227   1.098  0.2085  0.8891 -0.3555
 4169SOL    HW213407   0.520   2.084   1.106 -0.7317  0.4088  0.2676
 4170SOL     OW13408   3.193   0.442   6.440 -0.1528  0.2110  0.0560
 4170SOL    HW113409   3.126   0.449   6.514 -0.7817 -0.3776 -0.4489
 4170SOL    HW213410   3.185   0.521   6.379 -1.5251 -0.6485 -0.9263
 4171SOL     OW13411   5.722   2.390   1.353 -0.1308 -0.9126 -0.2108
 4171SOL    HW113412   5.782   2.470   1.362 -1.5343  0.5710 -2.7692
 4171SOL    HW213413   5.776   2.310   1.330  1.5965 -1.4210  4.4939
 4172SOL     OW13414   3.238   6.724   0.469 -0.0125 -0.1811 -0.2200
 4172SOL    HW113415   3.297   6.653   0.432  0.5809  1.2173 -2.0746
 4172SOL    HW213416   3.158   6.737   0.410  0.3277  1.2582 -0.4168
 4173SOL     OW13417   4.961   6.314   5.179 -0.1260  0.7133 -0.6516
 4173SOL    HW113418   4.894   6.311   5.253  0.5315 -0.6062 -0.0725
 4173SOL    HW213419   4.955   6.231   5.124  1.8267 -0.0697  0.1910
 4174SOL     OW13420   4.998   1.959   3.317 -0.1856 -0.5159 -0.0532
 4174SOL    HW113421   5.060   1.902   3.371 -0.0711  0.6444  1.0703
 4174SOL    HW213422   4.951   1.902   3.250  0.5111 -1.7919  0.5121
 4175SOL     OW13423   1.522   5.597   1.283 -0.3253  0.1248 -0.2993
 4175SOL    HW113424   1.484   5.685   1.254 -0.3857  0.1593 -0.1145
 4175SOL    HW213425   1.547   5.602   1.379  0.9220  0.3684 -0.6214
 4176SOL     OW13426   3.848   5.576   3.270 -0.3915  0.6509  0.5687
 4176SOL    HW113427   3.821   5.561   3.175  0.0581 -0.0320  0.5328
 4176SOL    HW213428   3.781   5.533   3.331 -0.5733  0.9155  0.5575
 4177SOL     OW13429   1.509   5.977   4.756 -0.7134 -0.2996 -0.9708
 4177SOL    HW113430   1.586   6.028   4.716  1.3098 -1.5522  1.1295
 4177SOL    HW213431   1.426   5.998   4.704  0.0269  4.6853 -0.6374
 4178SOL     OW13432   3.999   2.952   6.060 -0.0762  0.0736 -0.1554
 4178SOL    HW113433   3.945   2.893   6.119 -1.0799  0.3529 -0.7747
 4178SOL    HW213434   4.085   2.905   6.037 -0.9122 -1.2469 -0.7617
 4179SOL     OW13435   0.765   0.695   5.972  0.3696  0.5630 -0.1531
 4179SOL    HW113436   0.674   0.653   5.973  0.5783  0.1013  0.0375
 4179SOL    HW213437   0.802   0.693   5.880  0.2345  0.6445 -0.2094
 4180SOL     OW13438   5.537   4.072   1.795  0.4622 -0.0233  0.2403
 4180SOL    HW113439   5.491   4.062   1.707 -0.1039  2.4837  0.1915
 4180SOL    HW213440   5.488   4.019   1.865 -0.2248 -0.4613 -0.5567
 4181SOL     OW13441   6.930   1.003   0.513 -0.1825 -0.2715  0.1499
 4181SOL    HW113442   6.944   0.905   0.496  0.3466 -0.2529  0.4659
 4181SOL    HW213443   6.986   1.056   0.450 -0.1385 -0.1791  0.2657
 4182SOL     OW13444   5.377   6.759   3.893  0.7115  0.1551 -0.1432
 4182SOL    HW113445   5.416   6.718   3.975  0.4596  0.5010  0.1534
 4182SOL    HW213446   5.447   6.813   3.847  1.0844 -0.6983 -0.6097
 4183SOL     OW13447   0.405   2.748   2.089  0.0035  0.2777  0.8168
 4183SOL    HW113448   0.317   2.736   2.043 -1.2429  2.1583  2.5426
 4183SOL    HW213449   0.466   2.802   2.031  0.0120 -0.9133 -0.3301
 4184SOL     OW13450   4.335   4.218   5.314 -0.1495  0.1743 -0.1137
 4184SOL    HW113451   4.310   4.290   5.249 -0.6653  0.8263  0.7907
 4184SOL    HW213452   4.434   4.220   5.329  0.0371 -0.2864 -1.2274
 4185SOL     OW13453   2.139   0.751   3.670  0.6199 -0.5562  0.2170
 4185SOL    HW113454   2.196   0.724   3.748  0.2095  0.2455  0.8040
 4185SOL    HW213455   2.099   0.841   3.687 -2.2559 -1.8046  0.6067
 4186SOL     OW13456   2.671   3.465   1.653 -0.1769  0.5744 -0.4181
 4186SOL    HW113457   2.581   3.431   1.681 -0.5784  1.4267 -0.6228
 4186SOL    HW213458   2.742   3.402   1.683 -0.8243  0.0400  0.0084
 4187SOL     OW13459   3.623   0.466   5.005  0.3968  0.2805  0.5830
 4187SOL    HW113460   3.640   0.502   5.097  0.9086  2.0725 -0.1636
 4187SOL    HW213461   3.677   0.518   4.939  0.5088 -1.3809 -0.6841
 4188SOL     OW13462   4.429   5.472   3.630 -0.5498 -0.0883 -0.4473
 4188SOL    HW113463   4.456   5.391   3.683  0.4867 -0.2480 -1.1858
 4188SOL    HW213464   4.506   5.537   3.628 -1.4172  1.0064  0.2656
 4189SOL     OW13465   2.130   3.466   3.315  0.7564  0.1023 -0.2537
 4189SOL    HW113466   2.144   3.565   3.319  1.7064 -0.0160 -0.5965
 4189SOL    HW213467   2.149   3.433   3.223 -0.1814 -0.3221 -0.3107
 4190SOL     OW13468   2.081   5.792   1.675  0.8165  0.0914 -0.5095
 4190SOL    HW113469   2.174   5.759   1.694  1.7495  1.3971 -2.4718
 4190SOL    HW213470   2.077   5.891   1.692  0.2995  0.3639 -2.0783
 4191SOL     OW13471   0.507   1.713   4.171 -0.4294 -1.0297 -0.4363
 4191SOL    HW113472   0.592   1.766   4.166 -1.3966  0.5622 -1.0725
 4191SOL    HW213473   0.512   1.648   4.246  1.1527 -0.6178 -0.1491
 4192SOL     OW13474   5.488   0.804   3.373 -0.1753  0.1402 -0.0875
 4192SOL    HW113475   5.513   0.748   3.453  1.4397  0.0935 -0.5808
 4192SOL    HW213476   5.501   0.750   3.290  1.4629  1.1978 -0.5739
 4193SOL     OW13477   1.323   5.924   4.067 -0.1509  0.2548  0.1213
 4193SOL    HW113478   1.385   5.959   3.996 -0.2609 -0.8665 -0.5549
 4193SOL    HW213479   1.372   5.859   4.125 -1.0362 -1.9354 -1.4418
 4194SOL     OW13480   6.773   0.632   3.075 -0.3132  0.1924  0.6374
 4194SOL    HW113481   6.738   0.550   3.032  0.8116  0.4857 -0.9061
 4194SOL    HW213482   6.847   0.671   3.020  1.5732  0.3092  3.0695
 4195SOL     OW13483   4.778   1.296   2.354 -0.5356 -0.3458 -0.3514
 4195SOL    HW113484   4.785   1.197   2.365 -0.9998 -0.2589  0.8916
 4195SOL    HW213485   4.721   1.317   2.274 -0.0796 -1.0765 -0.8704
 4196SOL     OW13486   4.944   2.168   4.056 -0.0807  0.5680  0.2464
 4196SOL    HW113487   4.885   2.099   4.014 -0.2827  0.7790  0.1822
 4196SOL    HW213488   4.892   2.252   4.071  0.8094  1.6421 -2.1181
 4197SOL     OW13489   4.581   5.037   5.383 -0.3612 -0.2296  0.1751
 4197SOL    HW113490   4.501   4.996   5.340 -0.5857 -0.9848  1.2643
 4197SOL    HW213491   4.623   5.103   5.321 -1.4725 -0.2715 -0.6387
 4198SOL     OW13492   6.127   2.295   5.914  0.1547 -0.6099 -0.0703
 4198SOL    HW113493   6.036   2.337   5.915  0.4904  0.1188  0.5461
 4198SOL    HW213494   6.173   2.317   5.828  0.8822  1.5375  0.8221
 4199SOL     OW13495   3.354   3.219   4.293  0.5765 -0.2427  0.2268
 4199SOL    HW113496   3.343   3.280   4.371 -0.2497  0.7807 -0.6637
 4199SOL    HW213497   3.303   3.134   4.309  0.6865 -0.1805  0.9265
 4200SOL     OW13498   2.862   0.857   4.516  0.2524 -0.0046  0.3064
 4200SOL    HW113499   2.927   0.923   4.479  1.2010 -0.0108  1.8533
 4200SOL    HW213500   2.824   0.893   4.601  2.5977 -2.3321  2.5137
 4201SOL     OW13501   6.082   5.852   5.585  0.6292  0.7867  0.3149
 4201SOL    HW113502   6.006   5.882   5.527  0.4642  0.0837  0.1552
 4201SOL    HW213503   6.149   5.926   5.594  0.4940  1.0146 -0.5042
 4202SOL     OW13504   6.751   2.802   5.940 -0.0467  0.4980 -0.4008
 4202SOL    HW113505   6.794   2.848   6.017 -0.2203 -0.0185  0.0073
 4202SOL    HW213506   6.791   2.836   5.855  0.5558  0.6538 -0.0625
 4203SOL     OW13507   3.339   6.280   4.303  0.0470  0.1472 -0.1658
 4203SOL    HW113508   3.262   6.289   4.239  0.5730 -0.1834 -0.8539
 4203SOL    HW213509   3.330   6.350   4.374 -1.5453 -0.6459  0.4692
 4204SOL     OW13510   1.620   2.613   0.064  0.0403  0.4175 -0.3480
 4204SOL    HW113511   1.638   2.571   0.153 -2.0869  0.0002 -0.0547
 4204SOL    HW213512   1.647   2.709   0.066 -0.5094  0.5613  0.9448
 4205SOL     OW13513   2.612   0.693   4.800 -0.1791 -0.0930  0.3021
 4205SOL    HW113514   2.570   0.605   4.780  1.2443 -0.3242 -2.1279
 4205SOL    HW213515   2.603   0.753   4.720 -0.1439  1.5925  1.5004
 4206SOL     OW13516   3.382   0.151   2.229  0.3366  0.1881 -0.3760
 4206SOL    HW113517   3.401   0.077   2.294  0.8482  0.5380 -0.1224
 4206SOL    HW213518   3.410   0.238   2.268 -0.8413  0.5989 -0.4254
 4207SOL     OW13519   1.644   5.384   6.923  0.0349 -0.9665  0.3612
 4207SOL    HW113520   1.651   5.444   6.843  0.6492 -2.5807 -0.8890
 4207SOL    HW213521   1.717   5.406   6.987  0.2841 -0.4152 -0.0991
 4208SOL     OW13522   0.693   6.758   3.060 -0.4086  0.0468 -0.3907
 4208SOL    HW113523   0.702   6.841   3.116  1.3883  0.2134 -0.8767
 4208SOL    HW213524   0.620   6.701   3.098  0.2628  0.4887  1.7255
 4209SOL     OW13525   4.204   6.574   5.805 -0.1764  0.1722 -0.0489
 4209SOL    HW113526   4.230   6.531   5.892  2.6694  0.3528 -0.6978
 4209SOL    HW213527   4.252   6.661   5.796 -1.6765  0.9173 -1.1339
 4210SOL     OW13528   3.510   4.721   6.349 -0.8158 -0.2573  0.6456
 4210SOL    HW113529   3.455   4.789   6.299 -0.0218  0.4189  0.6692
 4210SOL    HW213530   3.601   4.716   6.308 -0.0478  0.5187  2.1905
 4211SOL     OW13531   5.543   5.168   2.772  0.3970  0.2376 -0.0659
 4211SOL    HW113532   5.519   5.155   2.868  0.0116 -0.8029 -0.2981
 4211SOL    HW213533   5.460   5.166   2.716  0.5842  1.1441 -0.4021
 4212SOL     OW13534   4.647   0.303   1.999  0.0260  0.0140 -0.0796
 4212SOL    HW113535   4.570   0.247   2.030  0.6140 -0.3794  0.6851
 4212SOL    HW213536   4.726   0.286   2.057  0.5893  0.6892 -0.6380
 4213SOL     OW13537   0.791   1.033   0.369 -0.5297  0.4229 -0.2474
 4213SOL    HW113538   0.869   1.096   0.368 -0.7178  0.6557 -0.3960
 4213SOL    HW213539   0.776   1.000   0.463 -0.3062  0.4424 -0.2044
 4214SOL     OW13540   5.039   5.089   2.493 -0.8830 -0.3199 -0.4287
 4214SOL    HW113541   5.057   5.103   2.396 -0.7529  0.0890 -0.3486
 4214SOL    HW213542   5.011   5.176   2.535 -2.0491 -0.7153 -0.3337
 4215SOL     OW13543   1.580   3.847   6.310 -0.3368  0.1711 -0.2695
 4215SOL    HW113544   1.551   3.760   6.272  1.1182 -0.3374 -0.2866
 4215SOL    HW213545   1.638   3.831   6.391 -0.3099  1.1236 -0.0861
 4216SOL     OW13546   0.914   2.913   4.754 -0.5076  0.3079  0.6164
 4216SOL    HW113547   0.860   2.863   4.823 -0.4818  0.8846  1.0651
 4216SOL    HW213548   1.011   2.892   4.766 -0.4099  1.1535  1.3940
 4217SOL     OW13549   4.730   1.079   6.958  0.6366 -0.1416  0.2098
 4217SOL    HW113550   4.634   1.084   6.986  0.6320 -0.4933  0.2583
 4217SOL    HW213551   4.741   1.121   6.868  0.5602  0.5284  0.5090
 4218SOL     OW13552   1.500   4.915   2.548 -0.4991  0.5922  0.0522
 4218SOL    HW113553   1.578   4.947   2.602 -1.3855  1.1186  1.0497
 4218SOL    HW213554   1.506   4.954   2.456  0.5142  0.4624  0.0439
 4219SOL     OW13555   6.548   6.150   2.539  0.6937 -0.3726  0.3353
 4219SOL    HW113556   6.517   6.066   2.496 -0.6238 -0.3086  1.1030
 4219SOL    HW213557   6.600   6.204   2.474 -0.5968 -0.6261 -0.9423
 4220SOL     OW13558   0.060   3.396   3.348  0.0385 -0.1147 -0.0497
 4220SOL    HW113559  -0.025   3.424   3.392  0.1006  0.8259 -0.5132
 4220SOL    HW213560   0.040   3.338   3.270 -0.1256 -0.7306  0.4425
 4221SOL     OW13561   4.785   6.028   5.889 -0.5578  0.1695 -0.3866
 4221SOL    HW113562   4.824   5.942   5.923 -1.6755  0.1281  0.8628
 4221SOL    HW213563   4.686   6.027   5.902 -0.5727  1.6916 -0.2921
 4222SOL     OW13564   2.589   1.362   1.537  0.1158  0.6504  0.5388
 4222SOL    HW113565   2.620   1.387   1.445  1.4528 -1.7811  0.2220
 4222SOL    HW213566   2.643   1.411   1.605  1.2575  0.2137 -0.0204
 4223SOL     OW13567   3.624   3.318   1.562  0.5363 -0.3148 -0.0129
 4223SOL    HW113568   3.580   3.407   1.550 -0.1976 -0.8625 -1.5854
 4223SOL    HW213569   3.557   3.251   1.592  0.4195 -0.9739 -1.6415
 4224SOL     OW13570   2.887   1.691   6.171 -0.0474 -0.0802  0.1733
 4224SOL    HW113571   2.806   1.698   6.113  0.0520  1.1057  0.1395
 4224SOL    HW213572   2.950   1.624   6.132  0.1658  0.9379 -1.3153
 4225SOL     OW13573   5.226   5.630   3.875  0.2935 -0.1334  0.1371
 4225SOL    HW113574   5.318   5.637   3.912  1.2997 -1.5041 -1.8834
 4225SOL    HW213575   5.181   5.719   3.880  2.8678  1.4093 -1.5082
 4226SOL     OW13576   0.725   2.039   2.589  0.1756 -0.1784  0.2957
 4226SOL    HW113577   0.689   1.949   2.614  0.5540 -0.0285  1.4564
 4226SOL    HW213578   0.821   2.044   2.615  0.7236 -0.1174 -1.5817
 4227SOL     OW13579   6.416   4.188   0.699  0.2151 -0.6729  0.1824
 4227SOL    HW113580   6.426   4.161   0.603 -0.4544 -1.6472  0.3700
 4227SOL    HW213581   6.473   4.130   0.757  1.7953  0.8890  0.2732
 4228SOL     OW13582   4.972   6.748   2.596  0.0082  0.1805 -0.4470
 4228SOL    HW113583   4.951   6.698   2.680 -0.8532  0.7420 -0.3176
 4228SOL    HW213584   4.891   6.799   2.566  0.7533  1.2329 -0.7472
 4229SOL     OW13585   6.583   3.066   4.626  0.5354  0.6405 -0.0675
 4229SOL    HW113586   6.608   2.986   4.680 -1.6459 -0.3587 -0.4501
 4229SOL    HW213587   6.575   3.145   4.687 -2.2431 -0.5348  1.2704
 4230SOL     OW13588   2.047   6.564   5.630  0.2894 -1.0220 -0.1245
 4230SOL    HW113589   2.029   6.557   5.532 -1.2137  1.7737 -0.1780
 4230SOL    HW213590   2.144   6.582   5.645  0.6579 -2.1479 -1.0291
 4231SOL     OW13591   4.270   6.676   1.706  0.4698 -0.0359 -0.2921
 4231SOL    HW113592   4.340   6.655   1.638 -1.3208  0.1170 -2.2543
 4231SOL    HW213593   4.193   6.613   1.695 -0.4207  0.8416  0.7517
 4232SOL     OW13594   1.861   3.874   3.135  0.6061 -0.2497 -0.3754
 4232SOL    HW113595   1.859   3.774   3.145  1.2356 -0.0453  2.9549
 4232SOL    HW213596   1.868   3.897   3.038 -1.1713 -3.3675 -1.3989
 4233SOL     OW13597   5.703   5.053   0.546 -0.2752 -0.3443  0.6366
 4233SOL    HW113598   5.614   5.014   0.523 -0.5882  0.3554  0.6113
 4233SOL    HW213599   5.694   5.153   0.553  0.8217 -0.0904 -0.9607
 4234SOL     OW13600   3.799   5.317   5.757 -0.1940 -0.1565 -0.7209
 4234SOL    HW113601   3.825   5.308   5.853 -1.6104 -2.4149 -0.4856
 4234SOL    HW213602   3.703   5.344   5.751  0.1217  0.8542 -1.5413
 4235SOL     OW13603   1.878   3.886   6.168  0.2239 -0.1755 -0.1472
 4235SOL    HW113604   1.908   3.915   6.258  0.5401  1.0026 -0.6188
 4235SOL    HW213605   1.858   3.966   6.111 -1.5654 -0.8854 -0.6077
 4236SOL     OW13606   6.913   3.743   3.462 -0.1556 -0.1202  0.3304
 4236SOL    HW113607   6.872   3.834   3.457  2.4720  1.2650  1.8354
 4236SOL    HW213608   7.010   3.750   3.439 -0.2178 -2.8859 -1.1609
 4237SOL     OW13609   5.413   4.360   4.169  0.1873 -0.4289  0.3085
 4237SOL    HW113610   5.424   4.390   4.264 -1.0770  1.6269 -0.1475
 4237SOL    HW213611   5.395   4.439   4.111 -1.6105 -1.9052 -1.2596
 4238SOL     OW13612   4.687   4.992   3.627 -0.2160 -0.3371 -0.2505
 4238SOL    HW113613   4.774   5.035   3.651 -0.2765  0.6710 -1.6744
 4238SOL    HW213614   4.661   4.926   3.697  2.0613 -1.1965 -0.1347
 4239SOL     OW13615   6.172   4.535   6.638  0.6031 -0.6407 -0.3167
 4239SOL    HW113616   6.163   4.561   6.735 -0.1619  0.5357 -0.6775
 4239SOL    HW213617   6.207   4.613   6.586 -1.2791 -0.4121 -1.3662
 4240SOL     OW13618   2.762   4.563   6.293 -0.6698 -0.1049 -0.8591
 4240SOL    HW113619   2.853   4.527   6.276 -0.2981 -0.0954  0.8759
 4240SOL    HW213620   2.697   4.488   6.305 -0.7458 -0.1205 -1.3474
 4241SOL     OW13621   3.449   2.103   6.290 -0.0783  0.3290 -0.6322
 4241SOL    HW113622   3.442   2.011   6.252  2.1246  0.9129 -2.6981
 4241SOL    HW213623   3.402   2.168   6.230  0.2285  0.8089 -0.3615
 4242SOL     OW13624   4.497   0.050   1.784 -0.3898  0.9366  0.7060
 4242SOL    HW113625   4.420  -0.005   1.752 -0.1361  2.8319 -3.7875
 4242SOL    HW213626   4.554  -0.005   1.845 -2.1147 -2.4424 -0.4833
 4243SOL     OW13627   0.531   2.122   3.007  0.1243  0.3046  0.0070
 4243SOL    HW113628   0.488   2.170   3.084 -3.1878 -1.3228 -0.6600
 4243SOL    HW213629   0.519   2.023   3.018 -3.8476 -0.0256 -4.0609
 4244SOL     OW13630   2.123   0.835   3.003 -0.1431  0.2614 -0.0773
 4244SOL    HW113631   2.125   0.900   3.079 -0.7675 -1.2148  1.2583
 4244SOL    HW213632   2.210   0.786   3.000 -0.3142 -0.0519  0.0369
 4245SOL     OW13633   5.899   3.180   0.845 -0.0735  0.0262 -0.0925
 4245SOL    HW113634   5.921   3.252   0.779  3.1073 -0.1989  0.5741
 4245SOL    HW213635   5.944   3.095   0.818 -0.2242 -0.5548  1.3884
 4246SOL     OW13636   4.633   2.607   2.438 -0.9426 -0.8648 -0.0601
 4246SOL    HW113637   4.688   2.656   2.370 -2.0514  0.7188  0.1146
 4246SOL    HW213638   4.619   2.666   2.518 -2.3665 -1.4264  0.1469
 4247SOL     OW13639   2.133   3.722   6.502  0.0486  0.6413 -0.0942
 4247SOL    HW113640   2.061   3.737   6.569 -0.6336 -0.4272 -0.5512
 4247SOL    HW213641   2.138   3.624   6.479  0.2756  0.9597 -1.5571
 4248SOL     OW13642   3.803   4.866   3.092  0.5010 -1.0003 -0.1046
 4248SOL    HW113643   3.873   4.884   3.162  0.3958 -0.7377 -0.0633
 4248SOL    HW213644   3.797   4.768   3.076 -0.0705 -1.1462  0.8884
 4249SOL     OW13645   6.665   6.750   5.579 -0.1837 -0.1493 -0.1248
 4249SOL    HW113646   6.673   6.850   5.584 -1.9096 -0.0020  0.0147
 4249SOL    HW213647   6.750   6.712   5.542  1.1694  1.2175  1.4369
 4250SOL     OW13648   0.162   4.598   4.612 -0.1538 -0.2495  0.3309
 4250SOL    HW113649   0.253   4.579   4.574 -0.1044  0.7917 -0.1050
 4250SOL    HW213650   0.165   4.584   4.711  0.1632 -1.3642  0.1719
 4251SOL     OW13651   4.090   1.288   5.997  0.0633 -0.7688  0.1489
 4251SOL    HW113652   4.095   1.324   5.905 -2.1824  0.4177  0.4153
 4251SOL    HW213653   4.178   1.300   6.044  0.6057  0.5079 -1.1492
 4252SOL     OW13654   0.785   6.223   0.670  0.2491  0.2181 -0.3042
 4252SOL    HW113655   0.882   6.199   0.668  0.3294  0.5308 -0.2608
 4252SOL    HW213656   0.753   6.243   0.578  0.8155  2.3918 -0.0822
 4253SOL     OW13657   3.040   6.606   3.896  0.2369 -0.5923  0.4232
 4253SOL    HW113658   2.977   6.540   3.935 -2.4052  0.8663 -1.0590
 4253SOL    HW213659   3.009   6.632   3.804  1.4357  2.2472  0.6916
 4254SOL     OW13660   6.115   6.663   3.014  0.4033 -0.2519 -0.2534
 4254SOL    HW113661   6.062   6.689   2.933 -0.4762  0.2804  0.4706
 4254SOL    HW213662   6.106   6.565   3.030 -0.0749 -0.2256 -0.3437
 4255SOL     OW13663   1.199   4.400   5.845 -0.5123 -0.1536  0.4530
 4255SOL    HW113664   1.175   4.347   5.763  1.1054 -2.0327  1.1081
 4255SOL    HW213665   1.298   4.415   5.846 -0.7168  1.2707  1.2805
 4256SOL     OW13666   0.408   0.237   0.262  0.3061 -0.1892  0.1904
 4256SOL    HW113667   0.446   0.168   0.324  2.6846 -0.3439 -1.3483
 4256SOL    HW213668   0.435   0.216   0.168  0.8857  2.6948 -0.3725
 4257SOL     OW13669   1.629   0.984   3.568 -0.1031  0.2330 -0.0446
 4257SOL    HW113670   1.560   0.944   3.507 -0.6603  0.3401  0.5078
 4257SOL    HW213671   1.657   0.917   3.636  0.2619  0.2236 -0.2038
 4258SOL     OW13672   0.146   1.390   2.503  0.3257  0.2596 -0.2149
 4258SOL    HW113673   0.217   1.461   2.512  1.0776 -0.3998 -0.8331
 4258SOL    HW213674   0.171   1.311   2.559  0.8143 -0.5387 -1.5118
 4259SOL     OW13675   1.472   1.341   1.515 -0.0875  0.2102  0.2654
 4259SOL    HW113676   1.546   1.352   1.449 -2.2111  2.0646 -2.0084
 4259SOL    HW213677   1.442   1.246   1.517  1.1074 -0.1924 -0.1682
 4260SOL     OW13678   6.978   0.021   4.204  0.0600 -0.0342 -0.6947
 4260SOL    HW113679   7.014   0.081   4.131  0.2248  2.3723  1.2219
 4260SOL    HW213680   6.966   0.075   4.287 -1.3312 -2.4099  0.7301
 4261SOL     OW13681   0.101   1.698   3.804 -0.6909 -0.0246 -0.3637
 4261SOL    HW113682   0.194   1.713   3.771 -0.8850  2.0399 -0.1027
 4261SOL    HW213683   0.075   1.603   3.787  1.9236 -1.0406  0.7834
 4262SOL     OW13684   2.391   5.373   5.827  0.7071  0.3902  0.4764
 4262SOL    HW113685   2.309   5.350   5.775 -0.2146 -0.8909  2.3753
 4262SOL    HW213686   2.386   5.467   5.858  1.9353  1.6952 -2.7634
 4263SOL     OW13687   3.708   6.829   1.739 -0.2341  0.0421  0.3593
 4263SOL    HW113688   3.681   6.925   1.747  0.1767  0.1862  0.0544
 4263SOL    HW213689   3.687   6.795   1.647 -2.5938 -0.8741  1.1416
 4264SOL     OW13690   5.573   1.571   0.716 -0.1859  0.0166  0.1199
 4264SOL    HW113691   5.587   1.659   0.761  1.1207 -0.2347  0.2336
 4264SOL    HW213692   5.498   1.522   0.762 -0.5811  0.8370  0.3703
 4265SOL     OW13693   3.153   6.269   6.773 -0.3090  0.3011 -0.3303
 4265SOL    HW113694   3.210   6.199   6.816 -0.5165  1.2694  1.6252
 4265SOL    HW213695   3.156   6.258   6.674  0.1354 -2.0941 -0.1191
 4266SOL     OW13696   2.292   2.247   4.183  0.1034 -0.1668 -0.1265
 4266SOL    HW113697   2.195   2.270   4.179 -0.0075 -0.7523 -1.2671
 4266SOL    HW213698   2.341   2.318   4.234 -0.6458  1.1321 -1.1411
 4267SOL     OW13699   1.815   2.659   2.392 -0.2846  0.6155 -0.1004
 4267SOL    HW113700   1.765   2.624   2.312  0.2557  0.8430 -0.5490
 4267SOL    HW213701   1.869   2.584   2.431  0.0971  0.7017 -0.4564
 4268SOL     OW13702   2.654   2.457   4.488  0.3731  0.2660  0.2412
 4268SOL    HW113703   2.682   2.385   4.551 -0.5859 -0.5624 -0.2588
 4268SOL    HW213704   2.708   2.449   4.403  1.0721  0.8624  0.6177
 4269SOL     OW13705   4.640   0.827   5.304 -0.3802  0.1813  0.2362
 4269SOL    HW113706   4.698   0.768   5.248 -2.4246 -0.7867 -0.9913
 4269SOL    HW213707   4.652   0.923   5.276 -1.3146 -0.2763 -1.9086
 4270SOL     OW13708   4.840   5.848   1.750 -0.0331 -1.3662 -0.6687
 4270SOL    HW113709   4.804   5.836   1.658 -1.0525  0.5180 -0.5642
 4270SOL    HW213710   4.792   5.786   1.813 -2.3592  0.2302 -0.7470
 4271SOL     OW13711   5.612   5.914   6.529  0.2425 -0.0619  0.5821
 4271SOL    HW113712   5.630   5.999   6.479  0.1895  0.2378  1.0713
 4271SOL    HW213713   5.699   5.871   6.553  0.2739  0.0874  0.7342
 4272SOL     OW13714   6.768   1.661   6.670 -0.1217  0.2257  0.5004
 4272SOL    HW113715   6.677   1.697   6.687 -1.4259 -1.0548 -2.9903
 4272SOL    HW213716   6.816   1.720   6.605  0.2633 -0.7756 -0.1572
 4273SOL     OW13717   2.790   5.851   1.547 -0.3161 -0.1815  0.4996
 4273SOL    HW113718   2.714   5.895   1.499 -1.0774  0.0749  1.8658
 4273SOL    HW213719   2.869   5.912   1.547  0.3276 -0.9343 -1.9528
 4274SOL     OW13720   6.224   0.746   0.330  0.0644 -0.2991  0.0761
 4274SOL    HW113721   6.314   0.705   0.340 -0.2397 -1.3180 -1.1256
 4274SOL    HW213722   6.188   0.726   0.239 -0.2823  2.3065 -0.4325
 4275SOL     OW13723   5.591   1.960   6.125 -0.3872 -0.1821 -0.5388
 4275SOL    HW113724   5.684   1.928   6.107 -0.5723  0.2859 -2.6621
 4275SOL    HW213725   5.576   1.967   6.223  1.4010 -1.4470 -0.1237
 4276SOL     OW13726   2.354   6.981   1.392 -0.0384  0.1365  0.2817
 4276SOL    HW113727   2.419   6.919   1.435  0.8335  1.4289  0.9091
 4276SOL    HW213728   2.325   7.050   1.459  1.3561  2.2215 -1.1170
 4277SOL     OW13729   6.760   3.928   4.472 -0.8175 -0.4718  0.3458
 4277SOL    HW113730   6.692   3.859   4.499 -3.7352  1.6378 -1.1354
 4277SOL    HW213731   6.786   3.981   4.552  1.1804 -2.8797  1.4384
 4278SOL     OW13732   1.627   0.863   1.475 -0.2394 -0.0818  0.0547
 4278SOL    HW113733   1.637   0.908   1.386 -1.6501 -0.5186 -0.3308
 4278SOL    HW213734   1.634   0.932   1.547  0.9159  0.2747 -0.3649
 4279SOL     OW13735   0.879   3.127   3.068 -0.0368 -0.6642 -0.0203
 4279SOL    HW113736   0.929   3.111   2.983 -2.3415 -1.0965 -1.3775
 4279SOL    HW213737   0.938   3.106   3.146  2.5808  0.9248 -1.4093
 4280SOL     OW13738   2.772   5.926   6.884 -0.0630 -0.3799 -0.4141
 4280SOL    HW113739   2.751   5.947   6.788 -1.1651  1.3438  0.1650
 4280SOL    HW213740   2.819   6.004   6.925  1.0202 -1.3761  0.2922
 4281SOL     OW13741   6.045   6.992   1.419  0.1145  0.1964 -0.2849
 4281SOL    HW113742   6.116   7.045   1.464 -0.2681 -0.2664  0.8960
 4281SOL    HW213743   6.031   7.026   1.326  3.9829 -1.5885 -1.7341
 4282SOL     OW13744   6.405   5.938   3.761 -0.1418  0.2327  0.2241
 4282SOL    HW113745   6.325   5.922   3.820  1.0468 -1.0075  1.5641
 4282SOL    HW213746   6.488   5.912   3.810  0.8598 -1.6378 -2.2822
 4283SOL     OW13747   5.671   2.641   6.433  0.4901 -0.8502  0.1430
 4283SOL    HW113748   5.658   2.550   6.472 -1.0051 -1.8207 -2.3567
 4283SOL    HW213749   5.625   2.709   6.491 -0.2485 -1.9868  0.9212
 4284SOL     OW13750   4.917   5.633   1.187 -0.2976 -0.2099  0.2346
 4284SOL    HW113751   4.837   5.691   1.172  0.4430  0.4201 -1.5205
 4284SOL    HW213752   4.998   5.689   1.199  0.1244 -0.8648  0.5210
 4285SOL     OW13753   3.192   0.681   6.289  0.2169  0.5031  0.1926
 4285SOL    HW113754   3.096   0.708   6.282  0.4588  1.4717  0.4418
 4285SOL    HW213755   3.242   0.751   6.341  1.1198  0.1752 -0.2211
 4286SOL     OW13756   6.601   2.286   3.554  0.3668 -0.4797  0.2468
 4286SOL    HW113757   6.517   2.245   3.591  0.3117  0.0077  0.6670
 4286SOL    HW213758   6.630   2.362   3.613  0.7494 -0.2389 -0.2476
 4287SOL     OW13759   3.343   0.624   0.641  0.1249 -0.0683  0.0669
 4287SOL    HW113760   3.257   0.602   0.688 -0.2224  0.5764 -0.2576
 4287SOL    HW213761   3.340   0.719   0.609 -0.3365 -0.9520 -2.7606
 4288SOL     OW13762   5.279   0.276   3.798  0.5512 -0.4756 -0.0498
 4288SOL    HW113763   5.231   0.360   3.773  0.1282 -0.8125 -0.3808
 4288SOL    HW213764   5.372   0.299   3.827  0.6000  0.0647 -0.5987
 4289SOL     OW13765   5.995   4.007   6.986  0.3466  0.2267 -0.1462
 4289SOL    HW113766   5.933   4.053   6.922 -0.7603 -1.3970 -0.3031
 4289SOL    HW213767   5.991   3.908   6.972  0.5808 -0.1445  1.9783
 4290SOL     OW13768   0.592   0.312   3.558 -0.0787  0.4065 -0.3253
 4290SOL    HW113769   0.535   0.317   3.477 -0.6113  0.3215  0.0356
 4290SOL    HW213770   0.535   0.321   3.640  0.1562 -1.4698  0.0956
 4291SOL     OW13771   3.989   5.776   4.104  0.1770  0.1469  0.5146
 4291SOL    HW113772   3.939   5.862   4.097  0.5122  0.3997  1.1108
 4291SOL    HW213773   4.080   5.794   4.141  0.3294 -0.4383  0.4309
 4292SOL     OW13774   5.223   0.606   1.060  0.2005 -0.1661  0.0137
 4292SOL    HW113775   5.194   0.538   1.128  2.5509 -1.3624 -0.0903
 4292SOL    HW213776   5.157   0.608   0.985 -1.0191 -0.7835  1.0214
 4293SOL     OW13777   5.278   2.788   5.930 -0.4065  0.3613 -0.6602
 4293SOL    HW113778   5.258   2.859   5.999  0.3704  1.0452 -1.1210
 4293SOL    HW213779   5.215   2.711   5.943  1.2235 -0.6453  2.3912
 4294SOL     OW13780   2.395   1.684   1.154  0.8501 -0.3593 -0.0406
 4294SOL    HW113781   2.315   1.638   1.115  0.8018 -0.4653  0.1813
 4294SOL    HW213782   2.450   1.723   1.080  2.1021 -2.7120 -0.4744
 4295SOL     OW13783   4.753   0.389   3.812 -0.4308 -0.0332 -0.0885
 4295SOL    HW113784   4.827   0.359   3.752  0.1162 -0.0327  0.5651
 4295SOL    HW213785   4.676   0.423   3.757 -0.0026 -0.1592 -0.7769
 4296SOL     OW13786   1.443   5.941   2.470 -0.3608 -0.0700  0.1480
 4296SOL    HW113787   1.531   5.955   2.515 -0.4116  0.0165  0.2219
 4296SOL    HW213788   1.457   5.926   2.372 -0.3943  2.2449 -0.2670
 4297SOL     OW13789   5.852   2.211   6.373 -0.4031 -0.3781 -0.0156
 4297SOL    HW113790   5.822   2.234   6.281  1.3747  2.6070  0.0451
 4297SOL    HW213791   5.924   2.273   6.402  0.1589 -2.1690  2.8658
 4298SOL     OW13792   0.295   6.166   6.960 -0.1155  0.8011  0.5734
 4298SOL    HW113793   0.204   6.123   6.961 -0.0619  0.6711  0.1324
 4298SOL    HW213794   0.293   6.246   6.901  0.3459  0.1308 -0.3852
 4299SOL     OW13795   6.975   4.668   6.572 -0.0730  0.0958  0.5360
 4299SOL    HW113796   6.948   4.713   6.487  1.9766  0.6523  0.1199
 4299SOL    HW213797   7.014   4.736   6.635  0.6526 -0.6821  0.9551
 4300SOL     OW13798   3.959   0.909   1.516  0.0994  0.6154 -0.2780
 4300SOL    HW113799   4.032   0.842   1.502 -1.0295 -0.7114 -0.0769
 4300SOL    HW213800   3.996   1.001   1.505  1.8470  0.0022  0.0663
 4301SOL     OW13801   2.810   4.738   3.292 -0.2195  0.6052  0.4134
 4301SOL    HW113802   2.905   4.766   3.282 -0.2684  0.5042 -0.3914
 4301SOL    HW213803   2.786   4.673   3.221 -0.9542  0.7982  0.4674
 4302SOL     OW13804   2.577   4.728   0.156  0.4147 -0.0791  0.5518
 4302SOL    HW113805   2.591   4.741   0.058 -0.6394  0.3119  0.4325
 4302SOL    HW213806   2.522   4.646   0.171 -1.1162  0.9154  0.6557
 4303SOL     OW13807   4.442   4.881   3.795  0.2334  0.3901  0.2628
 4303SOL    HW113808   4.488   4.855   3.879 -0.8428 -1.0187  0.4550
 4303SOL    HW213809   4.401   4.800   3.753 -1.2255  1.4137 -0.3940
 4304SOL     OW13810   3.348   4.089   1.901  0.4849  0.0366 -0.9254
 4304SOL    HW113811   3.276   4.152   1.931 -0.3139 -1.4910  0.5421
 4304SOL    HW213812   3.426   4.095   1.962  0.0121 -1.0502 -0.1850
 4305SOL     OW13813   0.623   0.641   5.084  0.1792  0.1915  0.0810
 4305SOL    HW113814   0.537   0.597   5.060  0.1259 -0.6752  1.7865
 4305SOL    HW213815   0.669   0.670   5.000 -0.9634 -0.8394 -0.9476
 4306SOL     OW13816   5.770   3.463   5.346 -0.0041 -0.0238  0.0586
 4306SOL    HW113817   5.809   3.385   5.296 -0.2938  0.2001 -0.5330
 4306SOL    HW213818   5.808   3.548   5.308 -0.5549  0.1686 -0.0635
 4307SOL     OW13819   6.866   1.657   5.183  0.3547  0.1802 -0.0617
 4307SOL    HW113820   6.854   1.670   5.281 -0.9845 -0.8732 -0.0436
 4307SOL    HW213821   6.779   1.629   5.142  0.6550  1.4621 -1.7203
 4308SOL     OW13822   6.369   3.034   0.120 -0.7422 -0.1307 -0.1303
 4308SOL    HW113823   6.424   3.098   0.066 -0.3474 -1.2967 -1.1344
 4308SOL    HW213824   6.391   2.940   0.095 -0.9157 -0.7110  1.7225
 4309SOL     OW13825   2.338   2.145   0.145 -0.4607 -0.5352  0.0477
 4309SOL    HW113826   2.377   2.226   0.188 -0.0739 -0.6573 -0.0736
 4309SOL    HW213827   2.253   2.170   0.098 -0.9718 -0.4223  0.9955
 4310SOL     OW13828   6.200   1.286   4.163 -0.0836 -0.1056  0.1573
 4310SOL    HW113829   6.235   1.271   4.255  0.6932 -1.9462 -0.3964
 4310SOL    HW213830   6.276   1.301   4.100 -0.5920  0.7933 -0.2605
 4311SOL     OW13831   0.193   6.258   2.504 -0.0625  0.2807 -0.0271
 4311SOL    HW113832   0.287   6.291   2.518  0.9932 -2.4157 -0.1114
 4311SOL    HW213833   0.150   6.309   2.430  1.7029  0.9472 -0.6388
 4312SOL     OW13834   0.743   3.580   2.790  0.1720 -0.1059  0.8317
 4312SOL    HW113835   0.768   3.506   2.852  0.3630 -1.2890 -0.6030
 4312SOL    HW213836   0.811   3.588   2.717 -0.5164  0.6316  0.2410
 4313SOL     OW13837   2.045   2.942   1.431  0.1825 -0.4133  0.1507
 4313SOL    HW113838   2.017   2.846   1.437 -1.2698 -0.0419 -0.1881
 4313SOL    HW213839   1.985   2.997   1.489 -0.5179  0.5667 -1.4454
 4314SOL     OW13840   2.196   1.648   6.289 -0.2986 -0.1219 -0.0410
 4314SOL    HW113841   2.102   1.656   6.255 -0.7387 -1.3654  0.8221
 4314SOL    HW213842   2.195   1.607   6.380  1.1974 -2.5769 -1.0232
 4315SOL     OW13843   4.722   3.130   5.864 -0.2321 -0.4081 -0.2507
 4315SOL    HW113844   4.806   3.135   5.810  0.0774  1.9893  0.3458
 4315SOL    HW213845   4.648   3.175   5.815 -0.0937  1.2566  0.9831
 4316SOL     OW13846   4.803   4.373   0.551  0.1116 -0.4253 -0.5472
 4316SOL    HW113847   4.848   4.287   0.572  1.5092  0.2789 -0.5411
 4316SOL    HW213848   4.845   4.414   0.470  0.2879  0.7987  0.1294
 4317SOL     OW13849   4.899   0.615   2.547  0.0331  0.2019  0.1047
 4317SOL    HW113850   4.840   0.684   2.588 -0.1686 -0.1609  0.4339
 4317SOL    HW213851   4.878   0.607   2.449  0.5875  1.1423 -0.1074
 4318SOL     OW13852   3.842   4.873   3.532  0.2440  0.1587 -0.2047
 4318SOL    HW113853   3.877   4.873   3.438 -1.1195 -2.8127 -0.8446
 4318SOL    HW213854   3.909   4.832   3.593  0.7502  1.2249 -0.0238
 4319SOL     OW13855   4.201   5.879   0.065  0.5212 -0.0222  0.4548
 4319SOL    HW113856   4.141   5.829   0.127  0.7831  0.1391  0.8437
 4319SOL    HW213857   4.248   5.814   0.005  0.4535 -0.2011  0.5943
 4320SOL     OW13858   5.340   2.473   1.640  0.0657  0.4397  0.2181
 4320SOL    HW113859   5.434   2.489   1.610  0.7942  1.3786  2.7548
 4320SOL    HW213860   5.331   2.378   1.670  0.1389  0.3102 -0.1551
 4321SOL     OW13861   0.203   5.900   3.067  0.2804  0.1401 -1.0145
 4321SOL    HW113862   0.288   5.886   3.017  0.0906 -0.1026 -1.2737
 4321SOL    HW213863   0.144   5.820   3.057 -0.2948  0.6015 -1.4842
 4322SOL     OW13864   4.570   2.007   5.512 -0.1744 -0.2732 -0.3378
 4322SOL    HW113865   4.507   1.970   5.580  0.0159  0.0706  0.0362
 4322SOL    HW213866   4.568   1.950   5.430 -0.9437 -0.2792 -0.3220
 4323SOL     OW13867   6.322   5.378   0.082  0.1702  0.4681 -0.3437
 4323SOL    HW113868   6.338   5.414  -0.010  0.6645 -1.5284 -1.0940
 4323SOL    HW213869   6.230   5.402   0.111 -0.4310  0.1316 -1.8587
 4324SOL     OW13870   5.843   4.260   4.634  0.0958  0.0537  0.4712
 4324SOL    HW113871   5.752   4.236   4.668 -0.5072  0.8816 -0.5054
 4324SOL    HW213872   5.893   4.176   4.612 -0.3623 -0.4157  1.1654
 4325SOL     OW13873   0.531   0.032   0.088  0.1033 -0.3838  0.3611
 4325SOL    HW113874   0.601   0.021   0.158  0.1302  0.6361  0.5007
 4325SOL    HW213875   0.573   0.066   0.004 -0.2588  0.5249  0.5393
 4326SOL     OW13876   5.832   3.634   3.836  0.5289  0.0170  0.0603
 4326SOL    HW113877   5.738   3.662   3.859 -0.5634 -3.3236  0.2024
 4326SOL    HW213878   5.882   3.615   3.920 -0.3039 -2.8233 -0.0081
 4327SOL     OW13879   4.184   0.465   4.392 -0.2478  0.0634  0.0265
 4327SOL    HW113880   4.134   0.538   4.438 -2.4127 -1.8032  0.8328
 4327SOL    HW213881   4.273   0.500   4.360 -1.3173  3.0806  0.0340
 4328SOL     OW13882   4.906   6.115   2.080 -0.3896 -0.1050 -0.4082
 4328SOL    HW113883   4.816   6.082   2.111  0.9300 -1.2957  2.5292
 4328SOL    HW213884   4.951   6.043   2.026  0.1765 -0.9720  1.1556
 4329SOL     OW13885   0.210   2.516   0.126 -0.6202  0.3883 -0.4939
 4329SOL    HW113886   0.219   2.428   0.172 -0.8816  0.6444  0.0563
 4329SOL    HW213887   0.231   2.506   0.029  2.5053  0.3499  0.1015
 4330SOL     OW13888   1.489   7.001   1.039 -0.1362 -0.5213 -0.0476
 4330SOL    HW113889   1.546   7.082   1.052  0.6618 -1.1793  0.7011
 4330SOL    HW213890   1.547   6.922   1.021 -0.7925 -1.2362  0.8560
 4331SOL     OW13891   5.023   2.196   3.699  0.1512 -0.4787 -0.3576
 4331SOL    HW113892   5.082   2.152   3.767 -1.5186 -2.1229  0.1179
 4331SOL    HW213893   5.005   2.290   3.725 -1.1041 -1.2947  1.9783
 4332SOL     OW13894   6.400   6.063   6.250 -0.0898  0.1444 -0.1128
 4332SOL    HW113895   6.398   6.096   6.156 -0.4974 -1.9533 -0.9001
 4332SOL    HW213896   6.306   6.054   6.285 -0.1781 -2.3481 -0.8005
 4333SOL     OW13897   2.217   3.446   6.526  0.4249  0.2183 -0.0503
 4333SOL    HW113898   2.262   3.387   6.593 -1.1936 -0.5055  0.4565
 4333SOL    HW213899   2.188   3.391   6.447 -2.2120 -0.0428  0.9761
 4334SOL     OW13900   1.037   1.393   4.205 -0.1466 -0.4118  0.1428
 4334SOL    HW113901   1.037   1.293   4.194 -1.6596 -0.3415 -0.9398
 4334SOL    HW213902   1.130   1.425   4.223  0.3418 -2.0260  0.6922
 4335SOL     OW13903   2.214   1.713   0.431  0.1847 -0.5881 -0.1256
 4335SOL    HW113904   2.223   1.627   0.380 -1.8598 -0.4221 -0.8629
 4335SOL    HW213905   2.190   1.787   0.369 -2.8012 -0.4527  0.9982
 4336SOL     OW13906   3.042   5.572   2.879 -0.3568  0.0536  0.6517
 4336SOL    HW113907   2.978   5.644   2.907 -0.6913  0.0279 -0.0381
 4336SOL    HW213908   2.991   5.488   2.860 -0.0847 -0.0395  0.3409
 4337SOL     OW13909   6.525   3.658   5.034 -0.3584 -0.1144 -0.5514
 4337SOL    HW113910   6.527   3.582   5.099 -2.1816  1.0778  0.9841
 4337SOL    HW213911   6.595   3.725   5.060 -0.1392 -0.2923 -0.6748
 4338SOL     OW13912   3.549   3.582   2.399  0.0442  0.0911  0.1228
 4338SOL    HW113913   3.596   3.500   2.430  0.8031  0.2921 -0.4583
 4338SOL    HW213914   3.505   3.564   2.311  1.9468  0.8441 -1.0507
 4339SOL     OW13915   3.242   4.632   5.760 -0.3771 -0.4209  0.8037
 4339SOL    HW113916   3.293   4.546   5.763  1.3961  0.6013  1.3335
 4339SOL    HW213917   3.295   4.701   5.711 -1.1682  0.7321  1.5099
 4340SOL     OW13918   0.534   5.405   0.081  0.3642 -0.0831  0.0705
 4340SOL    HW113919   0.528   5.442   0.174 -0.3845 -0.1149  0.0413
 4340SOL    HW213920   0.630   5.400   0.053  0.4981  2.3530 -0.1315
 4341SOL     OW13921   5.372   0.338   1.934  0.3498  0.0450 -0.4208
 4341SOL    HW113922   5.353   0.375   1.844 -0.7777  0.7546  0.0897
 4341SOL    HW213923   5.367   0.238   1.931  3.3718 -0.1909 -1.7965
 4342SOL     OW13924   5.992   4.583   2.150 -0.8498 -0.7689  0.0009
 4342SOL    HW113925   5.993   4.539   2.061 -0.1558  1.6359 -1.2486
 4342SOL    HW213926   6.085   4.601   2.180 -1.1106  0.1456  0.2995
 4343SOL     OW13927   4.079   1.497   6.230  0.3596  0.4367  0.1216
 4343SOL    HW113928   4.165   1.492   6.179  0.6607  0.0569  0.6491
 4343SOL    HW213929   4.014   1.431   6.193  0.3291  0.6470 -0.2073
 4344SOL     OW13930   0.596   4.390   1.850  0.0562  0.2690  0.5054
 4344SOL    HW113931   0.521   4.377   1.915  0.0161 -0.1782  0.3781
 4344SOL    HW213932   0.659   4.460   1.884 -2.2182  3.2542 -1.0088
 4345SOL     OW13933   3.175   3.810   2.839  0.6013  0.4684  0.1170
 4345SOL    HW113934   3.199   3.905   2.818  2.1206  0.1371  0.2395
 4345SOL    HW213935   3.251   3.750   2.814 -0.7528 -0.8618 -0.9878
 4346SOL     OW13936   1.436   2.325   1.495 -0.0631 -0.2440 -0.0207
 4346SOL    HW113937   1.386   2.302   1.578  0.9424 -1.8047  0.2030
 4346SOL    HW213938   1.371   2.348   1.422 -1.0402 -0.8010  0.6558
 4347SOL     OW13939   2.068   6.741   1.236  0.0726 -0.3043  0.1427
 4347SOL    HW113940   1.973   6.772   1.228  0.4417  1.1448  1.0135
 4347SOL    HW213941   2.069   6.644   1.260 -1.1777 -0.4432 -0.2840
 4348SOL     OW13942   0.046   2.198   4.102  0.0488 -0.2758  0.3137
 4348SOL    HW113943   0.103   2.192   4.020  0.0900  0.7901  0.2437
 4348SOL    HW213944   0.103   2.223   4.180  0.0418 -1.4915  0.7146
 4349SOL     OW13945   5.800   5.649   2.361 -0.4167  0.8161 -0.1851
 4349SOL    HW113946   5.848   5.622   2.277 -1.3158 -2.7619  0.2864
 4349SOL    HW213947   5.708   5.681   2.338 -0.6029 -0.0023 -0.6531
 4350SOL     OW13948   3.406   0.871   2.042  0.5178 -0.4744  0.0884
 4350SOL    HW113949   3.335   0.934   2.010  1.8106  1.4626  0.8296
 4350SOL    HW213950   3.377   0.828   2.127  0.2497  0.3760  0.4411
 4351SOL     OW13951   0.326   5.279   2.566  0.0309  0.4541  0.0489
 4351SOL    HW113952   0.298   5.184   2.555 -1.8626  1.1063 -1.2953
 4351SOL    HW213953   0.393   5.302   2.495  1.9337 -0.3201  1.5050
 4352SOL     OW13954   3.427   4.108   1.643  0.5352 -0.8207 -0.0334
 4352SOL    HW113955   3.511   4.054   1.645  0.5377 -0.8033  0.6358
 4352SOL    HW213956   3.411   4.148   1.734  0.3387  0.0087 -0.4249
 4353SOL     OW13957   2.000   3.945   6.402 -0.7019  0.4119 -0.3689
 4353SOL    HW113958   2.048   3.864   6.436  1.3974  0.9056 -1.9326
 4353SOL    HW213959   2.018   4.023   6.462 -1.6816  0.0290  0.4411
 4354SOL     OW13960   1.367   3.689   4.467 -0.7736  0.7544  0.4692
 4354SOL    HW113961   1.288   3.641   4.506 -0.6456 -0.1343 -0.3367
 4354SOL    HW213962   1.417   3.735   4.541 -1.1880  0.0723  1.1945
 4355SOL     OW13963   2.059   3.565   4.128  0.4654 -0.3079  0.5643
 4355SOL    HW113964   2.055   3.592   4.224 -2.4285 -0.7033  0.6306
 4355SOL    HW213965   2.079   3.645   4.072 -0.5563  0.4931  1.3024
 4356SOL     OW13966   5.428   2.579   4.752 -0.1889  0.2543 -0.1143
 4356SOL    HW113967   5.488   2.659   4.743  0.6522 -0.5062 -1.6236
 4356SOL    HW213968   5.405   2.566   4.848 -1.0852  2.8191  0.1048
 4357SOL     OW13969   5.953   5.123   3.306 -0.2402 -0.1703  0.3267
 4357SOL    HW113970   6.008   5.113   3.389  2.9787 -2.2856 -1.8321
 4357SOL    HW213971   5.960   5.217   3.273  0.9661 -0.0357  0.8981
 4358SOL     OW13972   2.793   1.611   2.093  0.2317  0.7828  0.0949
 4358SOL    HW113973   2.853   1.645   2.166  1.3409 -1.2212  0.1848
 4358SOL    HW213974   2.709   1.575   2.134  0.3759  0.6510  0.2778
 4359SOL     OW13975   3.142   4.250   0.819 -0.1432 -0.3055 -0.2027
 4359SOL    HW113976   3.221   4.287   0.770  1.2554 -4.2212 -1.2734
 4359SOL    HW213977   3.159   4.154   0.841 -3.2389 -0.3499  2.7333
 4360SOL     OW13978   2.862   0.564   3.096  0.3931 -0.2225  0.4831
 4360SOL    HW113979   2.926   0.518   3.158 -0.7034 -1.5706  0.6747
 4360SOL    HW213980   2.845   0.505   3.017 -0.0809  0.4204  0.0939
 4361SOL     OW13981   3.493   0.985   0.221  0.8440  0.4230 -0.4492
 4361SOL    HW113982   3.447   1.067   0.186  0.2780  0.7443  0.9851
 4361SOL    HW213983   3.583   1.010   0.256  0.2684  0.6642  0.9391
 4362SOL     OW13984   6.310   6.762   1.065 -0.1704 -0.2372  0.2692
 4362SOL    HW113985   6.299   6.851   1.110 -0.8372 -0.7735  1.1922
 4362SOL    HW213986   6.312   6.690   1.134 -0.4397 -1.0139 -0.5253
 4363SOL     OW13987   5.439   0.823   0.112 -0.0820  0.4244  0.6622
 4363SOL    HW113988   5.383   0.906   0.120 -1.2440 -0.3868  1.2334
 4363SOL    HW213989   5.384   0.743   0.137  0.1231 -0.8821 -2.6181
 4364SOL     OW13990   3.451   2.916   3.796  0.2710 -0.1878 -0.4105
 4364SOL    HW113991   3.426   2.833   3.845  1.9306  0.4112  1.6038
 4364SOL    HW213992   3.425   2.996   3.850  1.8937  0.5016 -0.5812
 4365SOL     OW13993   1.939   6.945   0.497  0.1497  0.0616 -0.0503
 4365SOL    HW113994   1.961   6.941   0.399 -1.3781 -0.3956 -0.3961
 4365SOL    HW213995   1.955   6.855   0.538  0.5105  0.1765  0.0662
 4366SOL     OW13996   3.779   6.142   5.932  0.0973  0.0224  0.7985
 4366SOL    HW113997   3.706   6.074   5.933  1.4086 -1.4629  0.8266
 4366SOL    HW213998   3.751   6.223   5.983 -1.1001 -0.9641  1.7513
 4367SOL     OW13999   2.430   1.642   2.207 -0.4050 -0.4589  0.4629
 4367SOL    HW114000   2.464   1.619   2.115 -0.3194 -1.7387  0.7915
 4367SOL    HW214001   2.501   1.623   2.274 -1.2295 -1.7510  1.0143
 4368SOL     OW14002   5.638   6.013   3.729  0.6384  0.0137  0.2233
 4368SOL    HW114003   5.652   5.998   3.631 -1.0838  2.5729 -0.5112
 4368SOL    HW214004   5.725   6.036   3.771  1.1573  0.5024 -1.0546
 4369SOL     OW14005   6.508   4.047   5.380 -0.4383 -0.3334  0.3964
 4369SOL    HW114006   6.583   4.102   5.419 -0.3766 -1.3458  1.7780
 4369SOL    HW214007   6.536   3.952   5.373 -1.5696 -0.7185  0.8724
 4370SOL     OW14008   6.408   3.423   1.739  0.0245 -0.5580  0.5753
 4370SOL    HW114009   6.465   3.408   1.658 -0.1014  0.0289  0.3695
 4370SOL    HW214010   6.380   3.520   1.742  0.6625 -0.3995  1.7392
 4371SOL     OW14011   5.067   0.575   3.427  0.3176  0.0389 -0.1055
 4371SOL    HW114012   5.090   0.558   3.523  0.4518  0.9228  0.0226
 4371SOL    HW214013   5.096   0.667   3.401  1.2031 -0.5352 -1.2829
 4372SOL     OW14014   1.664   4.046   6.854  0.7370 -0.0681  0.2527
 4372SOL    HW114015   1.674   4.049   6.755  0.1639  0.0321  0.1955
 4372SOL    HW214016   1.645   4.138   6.889  1.6052  0.0162  0.5349
 4373SOL     OW14017   4.777   4.267   5.519 -0.1798 -0.0326 -0.4032
 4373SOL    HW114018   4.858   4.325   5.529  0.0342 -0.2773 -0.6929
 4373SOL    HW214019   4.765   4.243   5.423 -1.5784  1.3820 -0.6109
 4374SOL     OW14020   1.362   6.595   0.930  0.5951  0.3281  0.4878
 4374SOL    HW114021   1.344   6.662   0.857  0.2106  0.6215  0.8499
 4374SOL    HW214022   1.459   6.599   0.954  0.7650  0.0837 -0.1517
 4375SOL     OW14023   3.417   1.027   5.766 -0.1620 -0.9233 -0.6759
 4375SOL    HW114024   3.401   1.126   5.762 -0.5570 -0.9433  0.1647
 4375SOL    HW214025   3.330   0.979   5.757 -0.4332 -1.0896  1.9285
 4376SOL     OW14026   1.756   4.194   6.262 -0.2516  0.0212 -0.2567
 4376SOL    HW114027   1.668   4.163   6.226  0.0788 -1.9435  0.5577
 4376SOL    HW214028   1.825   4.189   6.189 -0.7246  1.3714 -0.8390
 4377SOL     OW14029   5.430   4.818   6.720  1.0055  0.0317  0.3929
 4377SOL    HW114030   5.359   4.758   6.758  0.7930 -0.9317 -1.4157
 4377SOL    HW214031   5.388   4.883   6.656  1.5401  0.6201  0.6345
 4378SOL     OW14032   2.610   5.455   3.003 -0.0298 -0.0292  0.5417
 4378SOL    HW114033   2.610   5.375   2.942  0.1955  0.2108  0.2247
 4378SOL    HW214034   2.627   5.425   3.097 -0.5477 -0.4213  0.5168
 4379SOL     OW14035   6.335   6.876   5.639  0.2155  0.0885 -0.3793
 4379SOL    HW114036   6.392   6.893   5.720  0.2642  0.2557 -0.4493
 4379SOL    HW214037   6.365   6.791   5.595  0.2266  0.0269 -0.2551
 4380SOL     OW14038   6.980   5.251   4.581  0.0382 -0.0591 -0.2619
 4380SOL    HW114039   6.984   5.195   4.498 -0.8167  0.7343 -0.8642
 4380SOL    HW214040   6.938   5.339   4.559 -1.3575 -0.2994  1.2761
 4381SOL     OW14041   2.945   6.723   4.209  0.0710  0.0934  0.0745
 4381SOL    HW114042   2.963   6.773   4.124  0.3943  0.7424  0.5215
 4381SOL    HW214043   3.030   6.711   4.260  0.3655 -2.5457 -0.8758
 4382SOL     OW14044   5.261   3.492   6.838 -0.3711  0.0003 -0.1751
 4382SOL    HW114045   5.275   3.397   6.866  0.7716  0.5394  1.2189
 4382SOL    HW214046   5.333   3.549   6.878  0.9176  1.0115 -3.6096
 4383SOL     OW14047   0.574   0.991   5.948  0.4143 -0.3166 -0.7876
 4383SOL    HW114048   0.668   0.981   5.915  0.6095  1.9769 -1.1290
 4383SOL    HW214049   0.510   0.970   5.874  0.6269 -1.8633 -0.5609
 4384SOL     OW14050   4.321   0.258   1.725 -0.4019  0.3768 -0.1547
 4384SOL    HW114051   4.231   0.225   1.698 -0.3919 -0.6251  0.9401
 4384SOL    HW214052   4.376   0.181   1.758  1.9070  0.4288 -3.4292
 4385SOL     OW14053   6.008   2.293   4.488 -0.1955 -0.6085  0.3250
 4385SOL    HW114054   6.102   2.281   4.521 -0.2762 -2.3027  0.0337
 4385SOL    HW214055   6.009   2.318   4.392 -0.0470 -1.3573  0.1288
 4386SOL     OW14056   1.558   6.420   1.666  0.4015 -0.3719  0.1516
 4386SOL    HW114057   1.465   6.458   1.660  0.1398 -0.7400  1.5537
 4386SOL    HW214058   1.620   6.476   1.611 -0.3792  0.7564  0.3756
 4387SOL     OW14059   7.011   2.583   1.377  0.3768 -0.2576 -0.0441
 4387SOL    HW114060   7.038   2.488   1.396 -0.1154 -0.7143 -1.4983
 4387SOL    HW214061   6.996   2.594   1.279  0.9823  1.4905  0.0297
 4388SOL     OW14062   3.316   0.775   4.924 -0.8768 -0.6248 -0.6443
 4388SOL    HW114063   3.410   0.774   4.888 -0.4686  0.0008  0.3564
 4388SOL    HW214064   3.267   0.853   4.885  0.1427  1.1817  1.4789
 4389SOL     OW14065   2.474   2.409   2.177 -0.0053  1.0143  0.1952
 4389SOL    HW114066   2.554   2.384   2.231 -0.4523 -1.7283 -0.2468
 4389SOL    HW214067   2.391   2.385   2.227 -0.4376 -0.6912 -1.2349
 4390SOL     OW14068   4.671   2.239   2.268 -0.1754  0.1332  0.5926
 4390SOL    HW114069   4.749   2.299   2.286 -0.0952  0.3203 -0.3378
 4390SOL    HW214070   4.587   2.284   2.297  0.0517 -0.0621  1.5898
 4391SOL     OW14071   6.806   4.790   1.878  0.3798  0.4824  0.2513
 4391SOL    HW114072   6.817   4.866   1.942  1.7609 -0.5723  1.3267
 4391SOL    HW214073   6.735   4.729   1.911  2.1788 -0.9166  1.7324
 4392SOL     OW14074   4.608   5.739   4.093 -0.0316 -0.4345  0.1194
 4392SOL    HW114075   4.596   5.817   4.032 -0.3939  0.5746  1.4154
 4392SOL    HW214076   4.703   5.710   4.093  0.0531 -0.1684 -0.5830
 4393SOL     OW14077   6.526   0.747   1.575  0.0368 -0.2031 -0.1801
 4393SOL    HW114078   6.586   0.721   1.651 -0.6919 -1.9836 -0.1673
 4393SOL    HW214079   6.440   0.782   1.612 -0.0553 -0.4160 -0.1961
 4394SOL     OW14080   3.585   3.502   1.278  0.5934 -0.1399 -0.1715
 4394SOL    HW114081   3.587   3.599   1.300  2.0275 -0.7140  2.5351
 4394SOL    HW214082   3.495   3.465   1.301  0.8647  0.0506  1.2421
 4395SOL     OW14083   4.553   1.352   0.261  0.7765 -0.2433  0.1837
 4395SOL    HW114084   4.480   1.287   0.280  0.4372  0.2244  0.4953
 4395SOL    HW214085   4.577   1.401   0.345  2.9490 -1.9090  0.6381
 4396SOL     OW14086   0.583   1.066   2.839 -0.0620 -0.1767 -0.3472
 4396SOL    HW114087   0.595   1.119   2.923  0.3836  0.8803 -1.0493
 4396SOL    HW214088   0.625   0.976   2.850  0.6922  0.2409  0.2926
 4397SOL     OW14089   3.311   2.509   1.475  0.5390 -0.5744 -0.7898
 4397SOL    HW114090   3.242   2.475   1.410 -0.2586 -0.5389  0.0100
 4397SOL    HW214091   3.299   2.462   1.562  2.5082 -1.6592 -1.0492
 4398SOL     OW14092   6.237   4.047   4.224 -0.0041 -0.0373  0.0071
 4398SOL    HW114093   6.322   3.996   4.210 -0.5535 -1.9104  2.5631
 4398SOL    HW214094   6.241   4.094   4.313 -1.5185  0.0571  0.0474
 4399SOL     OW14095   3.463   0.471   2.081  0.3696  0.4412 -0.2532
 4399SOL    HW114096   3.540   0.438   2.027 -0.3285 -2.7022  0.4715
 4399SOL    HW214097   3.389   0.499   2.020  1.4078  1.9146 -0.9126
 4400SOL     OW14098   4.444   5.447   1.810 -0.0519  0.1022  0.4905
 4400SOL    HW114099   4.424   5.352   1.834 -0.2356  0.2595  0.9704
 4400SOL    HW214100   4.477   5.451   1.715 -0.7700 -0.3516  0.2095
 4401SOL     OW14101   5.042   0.593   5.337  0.3120 -0.2003  0.7691
 4401SOL    HW114102   5.136   0.620   5.312  0.7133 -0.9519  1.4265
 4401SOL    HW214103   5.015   0.642   5.420 -0.1058  0.4471  0.2657
 4402SOL     OW14104   2.323   6.815   1.175 -0.1706  0.2530  0.3344
 4402SOL    HW114105   2.347   6.868   1.257  1.6081  1.1961 -0.7477
 4402SOL    HW214106   2.227   6.786   1.182 -0.3882  1.2237  2.2353
 4403SOL     OW14107   6.434   2.766   2.055 -0.7304  0.5355  0.3467
 4403SOL    HW114108   6.391   2.765   2.145 -0.6655 -3.0098  0.4707
 4403SOL    HW214109   6.533   2.768   2.065 -0.6959 -0.8147  0.4405
 4404SOL     OW14110   0.617   2.507   3.479 -0.1707 -0.0389 -0.2624
 4404SOL    HW114111   0.662   2.438   3.535  0.5696 -1.4633 -2.4717
 4404SOL    HW214112   0.518   2.493   3.481 -0.1981  0.2506  1.0437
 4405SOL     OW14113   0.926   6.220   0.030 -0.1240  0.3843  0.7202
 4405SOL    HW114114   0.947   6.137  -0.022  3.6947 -0.0397  2.5581
 4405SOL    HW214115   0.874   6.195   0.112 -3.8182  0.7088 -1.3437
 4406SOL     OW14116   6.407   4.355   4.062 -0.1542  0.3021 -0.5456
 4406SOL    HW114117   6.407   4.370   3.963 -0.8777  2.6756 -0.2476
 4406SOL    HW214118   6.499   4.370   4.098 -0.1350  0.6326 -0.7224
 4407SOL     OW14119   0.648   2.145   1.414  0.4295 -0.3946 -0.0020
 4407SOL    HW114120   0.629   2.220   1.478 -1.9566 -1.6505  0.8861
 4407SOL    HW214121   0.593   2.157   1.332  0.9528 -0.5783 -0.3878
 4408SOL     OW14122   4.766   4.832   0.882 -0.1166 -0.4832 -0.1297
 4408SOL    HW114123   4.793   4.754   0.825  1.2971  0.0244 -0.1888
 4408SOL    HW214124   4.734   4.907   0.824  1.2288 -0.0028 -0.2937
 4409SOL     OW14125   5.468   1.533   2.710  0.1691 -0.6862 -0.1040
 4409SOL    HW114126   5.492   1.539   2.613  2.0217 -0.2513  0.3314
 4409SOL    HW214127   5.462   1.437   2.737 -0.9491 -0.8148 -0.7660
 4410SOL     OW14128   0.579   5.066   1.401 -0.3525 -0.2117  0.0234
 4410SOL    HW114129   0.540   5.090   1.490 -0.7723 -1.5502  0.2156
 4410SOL    HW214130   0.678   5.058   1.410 -0.4246 -0.6901  0.4619
 4411SOL     OW14131   2.739   3.730   1.719 -0.2190  0.2800 -0.4504
 4411SOL    HW114132   2.674   3.797   1.683 -1.0202  0.3298  0.9966
 4411SOL    HW214133   2.719   3.641   1.678  0.6763  0.8220 -2.1742
 4412SOL     OW14134   3.303   1.659   0.869  0.2407 -0.0431  0.2147
 4412SOL    HW114135   3.351   1.573   0.856 -0.8957 -0.5131 -1.1083
 4412SOL    HW214136   3.239   1.651   0.946  2.0034  0.4973  1.7949
 4413SOL     OW14137   4.363   6.925   4.503 -0.0364  0.5767 -0.4011
 4413SOL    HW114138   4.430   6.958   4.437  1.1970 -0.7987  0.1087
 4413SOL    HW214139   4.339   6.830   4.482 -0.6714  0.5634  0.3170
 4414SOL     OW14140   3.672   3.048   2.850  0.1978 -0.7348 -0.0047
 4414SOL    HW114141   3.719   3.018   2.767  0.1106  0.7549 -0.6276
 4414SOL    HW214142   3.731   3.110   2.901 -1.3378  2.0668 -1.3621
 4415SOL     OW14143   3.486   1.439   0.469  0.0049 -0.4463  0.2809
 4415SOL    HW114144   3.418   1.499   0.512  1.9552  1.0916  1.3774
 4415SOL    HW214145   3.529   1.487   0.393  1.1093 -0.6939  0.7360
 4416SOL     OW14146   2.229   3.274   5.147 -0.5424  0.6467  0.0235
 4416SOL    HW114147   2.139   3.242   5.175 -1.8175  3.1204 -0.9327
 4416SOL    HW214148   2.292   3.197   5.141 -2.9249 -1.3618 -0.6114
 4417SOL     OW14149   6.669   2.160   0.922 -0.2938  0.6454 -0.1284
 4417SOL    HW114150   6.745   2.186   0.864 -0.3365 -0.2778 -0.6215
 4417SOL    HW214151   6.586   2.152   0.867 -0.1475 -1.1475 -0.1585
 4418SOL     OW14152   4.410   2.494   2.794 -0.1889  0.1935  0.7322
 4418SOL    HW114153   4.501   2.456   2.805  0.0029  0.6045  0.5704
 4418SOL    HW214154   4.416   2.592   2.776 -0.5367 -0.1616 -1.6969
 4419SOL     OW14155   6.862   4.798   0.261 -0.0380  0.5740 -0.1352
 4419SOL    HW114156   6.850   4.893   0.290  2.7271  0.9666  0.0684
 4419SOL    HW214157   6.786   4.742   0.294  0.1346  2.0281  3.0405
 4420SOL     OW14158   6.799   0.965   1.017  0.0730 -0.2437  0.4314
 4420SOL    HW114159   6.814   1.044   1.077 -1.3130  0.4156 -0.0385
 4420SOL    HW214160   6.860   0.972   0.938 -0.4616  0.7074  0.0839
 4421SOL     OW14161   1.210   1.562   3.898  0.3557 -0.7034 -0.3259
 4421SOL    HW114162   1.232   1.520   3.986 -0.0541 -1.7594 -0.7144
 4421SOL    HW214163   1.252   1.653   3.894  1.8843 -1.3428  0.2499
 4422SOL     OW14164   2.687   5.138   0.627  0.0816 -0.3555 -0.1725
 4422SOL    HW114165   2.668   5.043   0.603 -1.9279 -0.3428  1.1268
 4422SOL    HW214166   2.786   5.153   0.625  0.4500 -2.4502 -0.4411
 4423SOL     OW14167   1.599   3.598   0.410 -0.0087 -0.4889  0.0611
 4423SOL    HW114168   1.607   3.691   0.376  0.9441 -1.0450 -1.3293
 4423SOL    HW214169   1.596   3.599   0.510 -1.3174  1.0975  0.0548
 4424SOL     OW14170   1.966   4.552   3.617 -0.1792  0.2237  0.7642
 4424SOL    HW114171   2.025   4.591   3.547  0.2748  0.9030  1.5105
 4424SOL    HW214172   2.016   4.546   3.704 -1.4723  1.6682  1.6578
 4425SOL     OW14173   0.032   5.867   1.630 -0.7909 -0.8438  0.3247
 4425SOL    HW114174   0.036   5.768   1.612 -2.8979 -0.8748 -0.2603
 4425SOL    HW214175   0.067   5.917   1.551 -2.3988 -1.1180 -0.6080
 4426SOL     OW14176   5.749   5.595   5.715  0.6726 -0.0435  0.2189
 4426SOL    HW114177   5.723   5.682   5.674 -0.0264 -0.5092 -0.3468
 4426SOL    HW214178   5.845   5.576   5.695 -0.1134 -1.1677 -2.9201
 4427SOL     OW14179   1.564   3.816   4.074  0.4094  0.3373 -0.0529
 4427SOL    HW114180   1.592   3.754   4.001  0.4552  1.9812 -1.5006
 4427SOL    HW214181   1.587   3.910   4.049 -1.7749  1.2311  0.9755
 4428SOL     OW14182   1.798   0.316   2.925 -0.1785  0.2911 -0.3175
 4428SOL    HW114183   1.743   0.384   2.974 -0.0851 -0.4464  0.8745
 4428SOL    HW214184   1.744   0.232   2.915  0.3301 -0.0629 -0.1397
 4429SOL     OW14185   2.644   6.766   0.943 -0.2607 -0.3530 -0.0981
 4429SOL    HW114186   2.671   6.707   0.867  2.9285  0.8540 -0.0665
 4429SOL    HW214187   2.608   6.710   1.017  0.6453 -2.0617 -0.8793
 4430SOL     OW14188   1.345   1.140   3.185  0.1969 -0.6203 -0.4803
 4430SOL    HW114189   1.278   1.197   3.232 -0.9464  0.0190 -2.7613
 4430SOL    HW214190   1.429   1.193   3.170  0.0886 -0.4044 -0.3228
 4431SOL     OW14191   2.835   1.105   3.724 -0.0106 -0.3580 -0.4690
 4431SOL    HW114192   2.874   1.083   3.814  0.2797  0.9333 -0.2580
 4431SOL    HW214193   2.887   1.180   3.683 -0.7627 -0.2700 -1.2792
 4432SOL     OW14194   3.862   3.619   3.606  0.4771 -0.3557 -0.0673
 4432SOL    HW114195   3.780   3.667   3.636  1.2994  0.8212  0.3737
 4432SOL    HW214196   3.879   3.541   3.667  0.3829  0.1509  0.6171
 4433SOL     OW14197   6.170   6.809   0.339  0.0067  0.4697  0.3382
 4433SOL    HW114198   6.086   6.851   0.374 -0.0655  1.1729 -0.6261
 4433SOL    HW214199   6.248   6.838   0.395  0.1222  2.8555 -0.9312
 4434SOL     OW14200   5.241   1.774   0.046 -0.3896  0.1259  0.2156
 4434SOL    HW114201   5.306   1.827  -0.009  1.5970 -1.2558  1.1039
 4434SOL    HW214202   5.257   1.792   0.143 -1.6661  0.0829  0.4508
 4435SOL     OW14203   3.578   1.775   1.827  0.3249 -0.3533  0.1055
 4435SOL    HW114204   3.616   1.867   1.823  0.5948 -0.3238  2.2781
 4435SOL    HW214205   3.643   1.711   1.785 -0.1438  0.4562 -2.0017
 4436SOL     OW14206   5.560   6.326   6.656 -0.0014 -0.4283 -0.1816
 4436SOL    HW114207   5.547   6.408   6.602  1.5673  1.1948  1.7385
 4436SOL    HW214208   5.478   6.308   6.711  0.5565  1.5202  1.4168
 4437SOL     OW14209   2.544   6.884   4.786 -0.3075 -0.0715  0.1586
 4437SOL    HW114210   2.473   6.870   4.717 -1.1295  1.5839  0.6199
 4437SOL    HW214211   2.628   6.914   4.742 -0.3656 -0.5091 -0.2584
 4438SOL     OW14212   4.255   3.222   6.973  0.0098 -0.0152 -0.0688
 4438SOL    HW114213   4.239   3.312   7.013  1.4043  0.1105  0.2582
 4438SOL    HW214214   4.253   3.228   6.874 -0.9761  0.1520 -0.0486
 4439SOL     OW14215   0.585   6.157   4.381  0.1797  0.2222  0.0364
 4439SOL    HW114216   0.552   6.233   4.324  0.2875  0.5937  0.4639
 4439SOL    HW214217   0.685   6.161   4.387  0.4255 -1.3586 -1.9067
 4440SOL     OW14218   5.410   0.739   6.388 -0.2150 -0.3427  0.6021
 4440SOL    HW114219   5.418   0.813   6.455  0.3112 -1.2080  1.5261
 4440SOL    HW214220   5.379   0.776   6.301 -0.4912  0.8794  1.1996
 4441SOL     OW14221   5.890   2.693   3.976 -0.0896  0.3383  0.4918
 4441SOL    HW114222   5.906   2.729   4.067 -1.3681 -0.3172  1.0074
 4441SOL    HW214223   5.976   2.691   3.925  0.5179  1.3634  1.4252
 4442SOL     OW14224   2.223   6.920   0.560  0.9127 -0.8628  0.1025
 4442SOL    HW114225   2.128   6.947   0.547  0.7695 -0.6630  1.5136
 4442SOL    HW214226   2.278   6.953   0.482 -0.1834 -1.1658 -0.8281
 4443SOL     OW14227   1.531   2.155   2.195 -0.1819  0.3100 -0.0993
 4443SOL    HW114228   1.513   2.066   2.153  1.8493 -0.5189  0.6681
 4443SOL    HW214229   1.606   2.201   2.147 -0.1671  0.9105  0.4796
 4444SOL     OW14230   5.059   3.124   3.667  0.1174  0.8692  0.3023
 4444SOL    HW114231   5.025   3.218   3.670 -0.3393  0.7099  0.2418
 4444SOL    HW214232   4.986   3.061   3.696 -0.2909  0.3595 -1.6597
 4445SOL     OW14233   2.977   0.501   0.127  0.2843  0.1029 -0.2866
 4445SOL    HW114234   3.030   0.443   0.064 -0.1965 -2.3325  1.4135
 4445SOL    HW214235   2.887   0.460   0.141 -0.6233  2.0709 -0.0548
 4446SOL     OW14236   1.296   4.416   3.619  0.0738  0.2120 -0.1830
 4446SOL    HW114237   1.376   4.470   3.642  0.4283 -1.2372  2.4560
 4446SOL    HW214238   1.236   4.410   3.700 -0.4382 -2.3988 -0.6694
 4447SOL     OW14239   6.313   2.571   5.962  0.1380  0.6990  0.7078
 4447SOL    HW114240   6.290   2.615   6.048 -0.4427 -0.7207  1.3135
 4447SOL    HW214241   6.237   2.580   5.898 -1.0382 -1.5093  1.7046
 4448SOL     OW14242   2.806   4.504   5.882 -0.5331  0.8002 -0.2226
 4448SOL    HW114243   2.823   4.410   5.852  1.9228  1.1149 -0.0212
 4448SOL    HW214244   2.889   4.541   5.924 -1.4043  3.1170 -0.4010
 4449SOL     OW14245   1.510   0.672   3.317 -0.2289  0.3202  0.7811
 4449SOL    HW114246   1.497   0.762   3.358  0.3139 -0.2136  2.1906
 4449SOL    HW214247   1.482   0.674   3.221 -0.7593  1.8289  0.9513
 4450SOL     OW14248   3.492   4.085   3.614 -0.3593  0.2305  0.5820
 4450SOL    HW114249   3.583   4.056   3.584 -0.0000  2.7115 -1.0445
 4450SOL    HW214250   3.494   4.105   3.712  1.1382  1.1216  0.3989
 4451SOL     OW14251   1.252   5.130   0.914 -0.2380 -0.7683  0.2129
 4451SOL    HW114252   1.167   5.181   0.929 -0.1764 -0.6735  0.2394
 4451SOL    HW214253   1.281   5.089   1.000  0.5654  0.4669  0.5630
 4452SOL     OW14254   0.431   1.262   5.851  0.1223  0.0371 -0.9123
 4452SOL    HW114255   0.356   1.198   5.866 -0.3330  0.5388 -1.0199
 4452SOL    HW214256   0.395   1.348   5.815  0.4387  1.1934  1.3424
 4453SOL     OW14257   5.615   1.348   5.532  0.5681  0.1033  0.1545
 4453SOL    HW114258   5.690   1.410   5.510 -0.6783  2.1621  1.3881
 4453SOL    HW214259   5.554   1.392   5.597 -3.9103  0.1461 -3.6146
 4454SOL     OW14260   6.664   3.785   0.572 -0.4699  0.2255  0.0776
 4454SOL    HW114261   6.686   3.882   0.573 -0.2974  0.1846  0.2806
 4454SOL    HW214262   6.681   3.747   0.481 -1.6050  0.6281 -0.3173
 4455SOL     OW14263   5.198   2.582   1.123 -0.0310  0.1586 -0.6726
 4455SOL    HW114264   5.270   2.627   1.070  0.5510 -1.2829 -1.1588
 4455SOL    HW214265   5.236   2.547   1.208 -0.5079  0.6794 -0.2365
 4456SOL     OW14266   6.151   6.057   1.019 -0.6991  0.6162 -0.2354
 4456SOL    HW114267   6.224   6.012   1.071 -1.9551  0.5353  1.5687
 4456SOL    HW214268   6.182   6.146   0.987  0.3142  0.4351  0.2043
 4457SOL     OW14269   5.177   2.026   6.116 -0.0823  0.1789  0.1305
 4457SOL    HW114270   5.105   2.080   6.073  1.9837  1.6667 -1.6306
 4457SOL    HW214271   5.251   2.009   6.050  0.4568 -2.8382  1.3166
 4458SOL     OW14272   2.947   4.033   1.526 -0.1102 -0.3626  0.7976
 4458SOL    HW114273   3.014   4.033   1.600 -0.5744  0.5033  1.2238
 4458SOL    HW214274   2.856   4.049   1.563 -0.0743  2.7396 -0.1653
 4459SOL     OW14275   6.487   4.625   6.826 -0.1177 -0.4911 -0.0996
 4459SOL    HW114276   6.442   4.536   6.821 -0.2447 -0.3957 -0.7555
 4459SOL    HW214277   6.431   4.688   6.879 -0.3392 -0.6241 -0.1733
 4460SOL     OW14278   1.671   0.477   1.356  0.1238  0.8536  0.1007
 4460SOL    HW114279   1.686   0.543   1.282 -1.5431 -0.0214 -1.0776
 4460SOL    HW214280   1.718   0.392   1.334 -3.9961 -1.0778 -2.4544
 4461SOL     OW14281   1.481   5.412   3.039 -0.7271  0.2199  0.1148
 4461SOL    HW114282   1.425   5.419   2.957  0.6581 -0.8979 -0.9593
 4461SOL    HW214283   1.433   5.358   3.108 -1.5298  0.4293 -0.2694
 4462SOL     OW14284   0.772   3.342   2.386  0.5470 -0.3439 -0.2301
 4462SOL    HW114285   0.808   3.404   2.315 -0.0130  0.2713  0.0110
 4462SOL    HW214286   0.730   3.263   2.342  2.1998 -1.0967 -0.5207
 4463SOL     OW14287   1.102   2.036   4.604  0.1935 -0.1919  0.3923
 4463SOL    HW114288   1.196   2.002   4.602  0.7364  1.2183  0.8040
 4463SOL    HW214289   1.090   2.098   4.682 -0.7831  0.4345 -0.2276
 4464SOL     OW14290   4.893   3.081   0.595 -0.5906  0.0364 -0.7500
 4464SOL    HW114291   4.880   3.180   0.600 -0.5564 -0.0109  0.6693
 4464SOL    HW214292   4.881   3.041   0.686 -0.8677 -1.3036 -1.3457
 4465SOL     OW14293   5.494   5.457   1.455 -0.0324 -0.4479 -0.2804
 4465SOL    HW114294   5.492   5.404   1.540 -1.1037 -0.2991 -0.2002
 4465SOL    HW214295   5.484   5.397   1.377  1.2486 -0.6170 -0.3273
 4466SOL     OW14296   6.038   3.507   5.638  0.3515 -0.1019  0.1900
 4466SOL    HW114297   5.947   3.512   5.598  0.5065 -0.3423 -0.2001
 4466SOL    HW214298   6.078   3.417   5.620  0.4335 -0.2144  0.8779
 4467SOL     OW14299   0.842   5.903   4.539 -0.1044 -0.3661  0.1460
 4467SOL    HW114300   0.932   5.893   4.583  0.6693 -1.4132 -1.5954
 4467SOL    HW214301   0.850   5.884   4.441 -2.2449 -0.5009 -0.0470
 4468SOL     OW14302   6.977   1.449   1.812  0.7773  0.0035  0.1457
 4468SOL    HW114303   6.957   1.449   1.910  1.2889  2.3045  0.3026
 4468SOL    HW214304   7.039   1.374   1.790  0.3017 -0.8100  1.4823
 4469SOL     OW14305   6.030   6.627   6.584  0.2156  0.2830 -0.0619
 4469SOL    HW114306   6.003   6.581   6.500 -1.3789  0.6064  0.2254
 4469SOL    HW214307   6.086   6.707   6.562 -0.1072  0.3113 -0.8151
 4470SOL     OW14308   6.155   5.080   1.204 -0.2042 -0.4598 -0.9767
 4470SOL    HW114309   6.228   5.052   1.267  1.6444  2.6926 -1.4703
 4470SOL    HW214310   6.076   5.111   1.257 -0.2074 -1.4632 -0.3609
 4471SOL     OW14311   5.616   1.751   1.495  0.3647 -0.5302 -0.3171
 4471SOL    HW114312   5.527   1.738   1.539  0.2997  0.4138 -0.1614
 4471SOL    HW214313   5.645   1.664   1.454 -0.5021 -0.9158 -0.1454
 4472SOL     OW14314   2.799   4.069   6.827  0.0432 -0.5443  0.2439
 4472SOL    HW114315   2.806   4.075   6.927 -1.4209 -2.3767  0.5026
 4472SOL    HW214316   2.798   4.162   6.789 -2.3851  0.3605  2.2051
 4473SOL     OW14317   5.648   1.967   2.107 -0.0441 -0.2878 -0.3072
 4473SOL    HW114318   5.729   1.970   2.165  0.3545 -0.0775 -0.8683
 4473SOL    HW214319   5.618   1.872   2.098 -0.5168 -0.2586  0.7838
 4474SOL     OW14320   0.310   1.552   4.458 -0.3248  0.4955  0.1881
 4474SOL    HW114321   0.261   1.622   4.509  0.6674  0.6226  1.0090
 4474SOL    HW214322   0.408   1.573   4.459 -0.1938  0.0038 -1.0065
 4475SOL     OW14323   2.274   2.479   5.786 -0.0745 -0.0406  0.1830
 4475SOL    HW114324   2.317   2.419   5.718  0.9735 -2.9088  3.1117
 4475SOL    HW214325   2.315   2.463   5.875 -2.9764  1.7509  2.0072
 4476SOL     OW14326   0.905   5.590   4.480  0.2769 -0.3101 -0.5560
 4476SOL    HW114327   0.884   5.521   4.410 -1.3302 -0.0000 -0.4062
 4476SOL    HW214328   0.889   5.681   4.442 -1.6020 -0.1682  0.4888
 4477SOL     OW14329   1.650   1.900   1.412 -0.2589  0.8440 -0.4003
 4477SOL    HW114330   1.712   1.977   1.419  0.3318  0.2675  0.8416
 4477SOL    HW214331   1.589   1.898   1.491  0.8358 -0.8840  0.4638
 4478SOL     OW14332   1.200   5.010   6.878  0.1425 -0.0209 -0.5438
 4478SOL    HW114333   1.105   5.029   6.855  0.3639 -1.2624 -2.8641
 4478SOL    HW214334   1.251   5.095   6.883 -1.1291  0.6867  1.1284
 4479SOL     OW14335   0.578   4.526   6.632  0.2643 -0.3228 -0.4015
 4479SOL    HW114336   0.563   4.459   6.559  0.3527  1.3083 -1.9654
 4479SOL    HW214337   0.501   4.522   6.696 -0.6190 -0.7042 -1.4502
 4480SOL     OW14338   6.765   4.766   4.139  0.0690  0.1986  0.6733
 4480SOL    HW114339   6.737   4.738   4.231  1.1927 -0.0011  0.9672
 4480SOL    HW214340   6.684   4.787   4.084 -0.5980  1.0954  1.9488
 4481SOL     OW14341   1.304   1.829   2.095 -0.0279 -0.3907  0.5372
 4481SOL    HW114342   1.393   1.876   2.094 -0.9193  1.3565  0.2423
 4481SOL    HW214343   1.297   1.769   2.015  0.4245  0.3673 -0.0816
 4482SOL     OW14344   5.481   4.228   3.313 -0.3213 -0.6620 -0.0658
 4482SOL    HW114345   5.383   4.247   3.299 -0.1236  0.3361 -0.1616
 4482SOL    HW214346   5.511   4.270   3.398  0.5181  0.9437 -1.1237
 4483SOL     OW14347   0.441   6.113   1.504 -0.4622 -0.0260 -0.3335
 4483SOL    HW114348   0.462   6.162   1.420  0.6052 -0.4499 -0.3305
 4483SOL    HW214349   0.351   6.142   1.538  0.8403  3.3154  0.6408
 4484SOL     OW14350   4.958   5.063   0.354 -0.2424  0.0156 -0.4441
 4484SOL    HW114351   4.925   5.090   0.263  1.7974 -0.0522 -1.2695
 4484SOL    HW214352   5.010   5.139   0.394 -1.0034 -0.0101  0.6325
 4485SOL     OW14353   3.319   4.927   5.712 -0.2449 -0.3301 -0.4414
 4485SOL    HW114354   3.412   4.910   5.679 -0.0720 -0.9725  0.3367
 4485SOL    HW214355   3.322   4.954   5.808 -0.7989  0.6681 -0.6909
 4486SOL     OW14356   6.301   3.277   5.983 -0.5053  0.1210  0.4599
 4486SOL    HW114357   6.379   3.242   6.035  0.4023 -2.1039 -2.1372
 4486SOL    HW214358   6.334   3.313   5.895 -2.3689 -0.7580 -0.6428
 4487SOL     OW14359   3.089   3.263   4.022 -0.0818  0.0622 -0.0951
 4487SOL    HW114360   3.019   3.263   3.951  1.1654  0.4099 -1.3528
 4487SOL    HW214361   3.099   3.171   4.059 -0.4699 -0.2006 -0.6388
 4488SOL     OW14362   5.431   1.552   6.730  0.3319  0.4570  0.7604
 4488SOL    HW114363   5.482   1.638   6.729  0.6552  0.3530 -2.3160
 4488SOL    HW214364   5.341   1.567   6.771 -0.1713  2.6832 -0.9186
 4489SOL     OW14365   6.740   3.586   6.030 -0.0719 -0.2029  0.6307
 4489SOL    HW114366   6.766   3.660   6.092 -1.8510  0.3537  0.7772
 4489SOL    HW214367   6.651   3.550   6.057 -0.5960 -0.3837 -1.2012
 4490SOL     OW14368   1.545   2.488   2.095 -0.2845  0.2633 -0.4925
 4490SOL    HW114369   1.578   2.515   2.005  0.9654 -2.3125 -0.9076
 4490SOL    HW214370   1.608   2.421   2.135 -2.3303 -0.8886  1.0163
 4491SOL     OW14371   0.126   4.750   2.964  0.4690 -0.2348  0.6230
 4491SOL    HW114372   0.125   4.750   2.864 -1.6736  0.1781  0.5906
 4491SOL    HW214373   0.202   4.805   2.997  1.7943 -1.1555 -0.7452
 4492SOL     OW14374   0.278   5.071   5.587 -0.6226 -0.4191 -0.3733
 4492SOL    HW114375   0.207   5.035   5.527 -1.2382 -0.8404  0.6003
 4492SOL    HW214376   0.244   5.150   5.637 -1.1426 -1.8386  1.6367
 4493SOL     OW14377   6.137   5.113   2.144  0.0575 -0.5826  0.0918
 4493SOL    HW114378   6.189   5.160   2.073 -1.3900  0.9668  0.0015
 4493SOL    HW214379   6.171   5.139   2.234 -0.0009 -0.2362  0.0154
 4494SOL     OW14380   6.158   4.706   1.310 -0.3896  0.0456  0.2208
 4494SOL    HW114381   6.193   4.753   1.391 -0.1408  1.1969 -0.5169
 4494SOL    HW214382   6.086   4.761   1.268 -2.1321 -1.6082  0.8879
 4495SOL     OW14383   6.778   5.779   2.731  0.0087 -0.1917 -0.0452
 4495SOL    HW114384   6.862   5.730   2.754 -0.1341 -0.1981  0.4692
 4495SOL    HW214385   6.705   5.753   2.795 -0.1689  0.3979  0.0004
 4496SOL     OW14386   5.110   5.222   6.657  0.2074 -0.7485 -0.2702
 4496SOL    HW114387   5.051   5.277   6.717  0.3551 -1.2369  0.3291
 4496SOL    HW214388   5.062   5.205   6.571  0.0590  0.1028 -0.3676
 4497SOL     OW14389   5.455   0.212   0.705 -0.0073  0.0011  0.9107
 4497SOL    HW114390   5.360   0.242   0.709  0.0182  0.0361  1.3311
 4497SOL    HW214391   5.510   0.268   0.768 -0.2276 -1.8971  2.9026
 4498SOL     OW14392   1.610   3.610   6.488  0.2348  0.2242 -0.3626
 4498SOL    HW114393   1.707   3.597   6.468 -0.4336 -2.8793 -2.3091
 4498SOL    HW214394   1.583   3.548   6.561 -0.2706  1.3351  0.4233
 4499SOL     OW14395   0.180   5.618   1.234 -0.0305 -0.3883  0.3544
 4499SOL    HW114396   0.191   5.560   1.154  1.6468  0.9363 -0.4340
 4499SOL    HW214397   0.144   5.707   1.206  0.6068  0.1036  1.0601
 4500SOL     OW14398   3.502   3.693   2.021  0.0401 -0.0153 -0.5194
 4500SOL    HW114399   3.467   3.720   1.931  1.0289  0.4581 -0.7753
 4500SOL    HW214400   3.577   3.628   2.009  0.3477  0.2463 -0.0491
 4501SOL     OW14401   1.241   0.839   5.141  0.8125 -0.4936 -0.0957
 4501SOL    HW114402   1.221   0.934   5.118 -2.2730 -1.3130 -1.3468
 4501SOL    HW214403   1.273   0.791   5.060  0.0439 -1.0205 -0.1037
 4502SOL     OW14404   5.563   5.004   1.316 -0.7209 -0.1115 -0.3648
 4502SOL    HW114405   5.645   4.956   1.350 -0.6394 -0.3891 -0.9468
 4502SOL    HW214406   5.483   4.945   1.328 -0.9310  0.3500  0.6654
 4503SOL     OW14407   0.512   3.144   0.292  0.1511 -0.1654  0.6865
 4503SOL    HW114408   0.513   3.182   0.199  0.8930 -1.6934  0.0386
 4503SOL    HW214409   0.603   3.109   0.314  0.2260  0.9543  2.3554
 4504SOL     OW14410   5.948   1.429   4.749 -0.1880  0.0458 -0.0819
 4504SOL    HW114411   6.020   1.450   4.815 -0.5134  0.9107  0.0097
 4504SOL    HW214412   5.974   1.348   4.695  0.9325  0.4656 -0.1893
 4505SOL     OW14413   1.400   0.270   1.407 -0.0184  0.5116 -0.0805
 4505SOL    HW114414   1.467   0.278   1.481  1.8907 -1.0099 -1.5611
 4505SOL    HW214415   1.380   0.361   1.371 -0.5377  1.2240  1.8712
 4506SOL     OW14416   0.922   5.644   6.243 -0.0080  0.3649 -0.5146
 4506SOL    HW114417   0.925   5.662   6.341  1.1247  1.2068 -0.6911
 4506SOL    HW214418   0.829   5.616   6.217 -0.1434 -0.5912  0.8999
 4507SOL     OW14419   0.136   4.351   3.543 -0.5725 -0.4401 -0.5747
 4507SOL    HW114420   0.193   4.343   3.461  0.9158 -1.2908  0.4910
 4507SOL    HW214421   0.043   4.375   3.517  0.2991  1.2598 -2.3773
 4508SOL     OW14422   1.501   5.247   1.865 -0.1163  0.2863 -0.6585
 4508SOL    HW114423   1.584   5.192   1.855 -0.4924 -0.3046 -0.5539
 4508SOL    HW214424   1.423   5.187   1.880 -0.3637  0.8898  0.5925
 4509SOL     OW14425   0.917   2.879   5.896 -0.2364  0.0143 -0.0802
 4509SOL    HW114426   0.944   2.791   5.934  4.1283 -0.4973 -3.5038
 4509SOL    HW214427   0.966   2.952   5.945 -1.8419  0.3722  1.0709
 4510SOL     OW14428   2.866   0.616   0.636 -0.0302 -0.1512 -0.0862
 4510SOL    HW114429   2.839   0.706   0.669  0.4364  0.1461 -0.4907
 4510SOL    HW214430   2.808   0.546   0.677 -1.2192  0.4315 -0.7286
 4511SOL     OW14431   1.262   2.264   1.692 -0.3090 -0.3422  0.0717
 4511SOL    HW114432   1.272   2.291   1.787  0.8256 -3.0952  0.8503
 4511SOL    HW214433   1.166   2.268   1.665 -0.4054  2.6361  0.5402
 4512SOL     OW14434   3.803   2.635   0.980 -0.6457 -0.0007 -0.0640
 4512SOL    HW114435   3.871   2.603   1.045  0.6497 -0.6498 -1.6610
 4512SOL    HW214436   3.795   2.734   0.986  0.4061  0.0809  0.2003
 4513SOL     OW14437   5.904   1.612   2.488 -0.3590 -0.0908 -0.3779
 4513SOL    HW114438   5.813   1.620   2.446 -0.5280  0.0254  0.0105
 4513SOL    HW214439   5.970   1.667   2.435 -0.3688 -0.7295 -1.0729
 4514SOL     OW14440   2.880   6.927   3.918  0.0153 -1.1125 -0.4543
 4514SOL    HW114441   2.963   6.875   3.939  0.5894 -0.3228 -0.7057
 4514SOL    HW214442   2.813   6.867   3.876 -0.7399 -2.5270  2.4502
 4515SOL     OW14443   2.230   4.468   1.942 -0.5666  0.5732 -0.2216
 4515SOL    HW114444   2.143   4.430   1.910  0.1866 -0.3548 -1.2568
 4515SOL    HW214445   2.282   4.396   1.989 -0.0582  0.9277 -0.2344
 4516SOL     OW14446   6.429   1.347   3.992  0.1581 -0.0316  0.3134
 4516SOL    HW114447   6.448   1.435   3.949  0.3448 -0.4638 -0.5117
 4516SOL    HW214448   6.512   1.312   4.035  0.2292 -0.0558  0.1599
 4517SOL     OW14449   3.721   2.007   6.609 -0.3638  0.3250  0.3219
 4517SOL    HW114450   3.645   1.961   6.564 -0.2226 -0.2916  0.6980
 4517SOL    HW214451   3.686   2.066   6.682 -0.4618 -0.4726  0.9453
 4518SOL     OW14452   2.977   0.697   3.633  0.5059  0.0367 -0.3096
 4518SOL    HW114453   2.896   0.739   3.673  0.3788 -0.0593 -0.4659
 4518SOL    HW214454   2.957   0.668   3.539  1.3708  1.9857 -1.1337
 4519SOL     OW14455   0.527   1.141   4.628 -0.0418 -0.1353  0.6586
 4519SOL    HW114456   0.464   1.106   4.559 -1.6122  1.5310  1.1541
 4519SOL    HW214457   0.522   1.083   4.710 -1.5091  0.3375  0.9385
 4520SOL     OW14458   5.914   3.563   2.483 -0.3277 -0.0301 -0.3048
 4520SOL    HW114459   5.824   3.570   2.525  0.1627  2.3733  0.5161
 4520SOL    HW214460   5.912   3.602   2.392  0.1546  1.3808  0.2608
 4521SOL     OW14461   5.066   0.345   0.404 -0.0221  0.0804 -0.1781
 4521SOL    HW114462   5.060   0.438   0.366  0.3131  1.5643  3.1205
 4521SOL    HW214463   4.976   0.302   0.399 -0.1175  0.4004 -2.0327
 4522SOL     OW14464   5.417   0.545   4.660  0.3071 -0.5998  0.2996
 4522SOL    HW114465   5.344   0.562   4.725  1.5054  0.0211  1.5282
 4522SOL    HW214466   5.380   0.498   4.579 -1.6678  0.8965  0.2696
 4523SOL     OW14467   5.103   2.527   6.323 -0.0003  0.3196  0.1469
 4523SOL    HW114468   5.200   2.509   6.312  0.6396  2.8570  1.0069
 4523SOL    HW214469   5.070   2.486   6.408  0.3387 -0.3992 -0.0624
 4524SOL     OW14470   0.855   1.009   3.360  0.8236 -0.0368  0.1313
 4524SOL    HW114471   0.783   0.984   3.425 -1.1436  0.5119 -1.7168
 4524SOL    HW214472   0.924   1.065   3.406 -0.4326  0.2605  1.7502
 4525SOL     OW14473   6.454   2.554   2.566  0.1367  0.7136 -0.2528
 4525SOL    HW114474   6.463   2.463   2.526  1.0567  0.2131  1.0195
 4525SOL    HW214475   6.358   2.575   2.581 -0.0726 -0.1367 -0.3542
 4526SOL     OW14476   2.608   2.118   1.412 -0.4495  0.2158 -0.0668
 4526SOL    HW114477   2.635   2.153   1.322 -0.7804  2.2896  0.5926
 4526SOL    HW214478   2.591   2.194   1.474 -1.3721 -1.1547  1.4470
 4527SOL     OW14479   5.675   2.262   4.255  0.6784 -0.5252  0.6962
 4527SOL    HW114480   5.715   2.346   4.218 -1.3948 -0.3701 -1.3990
 4527SOL    HW214481   5.666   2.271   4.354 -0.4709  2.2059  0.4351
 4528SOL     OW14482   4.034   5.879   6.408  0.2497  0.1042  0.2232
 4528SOL    HW114483   3.943   5.912   6.435 -0.1193 -1.2866  0.7647
 4528SOL    HW214484   4.062   5.805   6.469  1.8865  0.7077  0.2320
 4529SOL     OW14485   1.160   0.286   5.046 -0.0527  0.6211 -0.3361
 4529SOL    HW114486   1.117   0.206   5.006 -1.0066  1.0715 -0.2433
 4529SOL    HW214487   1.260   0.279   5.037 -0.0599 -1.0305  0.5499
 4530SOL     OW14488   5.909   3.433   3.642  0.0096  0.5954 -0.5522
 4530SOL    HW114489   5.883   3.483   3.725  1.6851  4.3074 -2.0768
 4530SOL    HW214490   5.998   3.390   3.655 -0.0326  0.5957 -0.2528
 4531SOL     OW14491   7.019   3.260   3.106  0.4366 -0.4986  0.2357
 4531SOL    HW114492   7.036   3.296   3.014  1.3335 -0.5901  0.3606
 4531SOL    HW214493   6.950   3.188   3.100 -0.7444  0.6186 -0.1277
 4532SOL     OW14494   0.269   1.976   0.970  0.3185 -0.8037 -0.1820
 4532SOL    HW114495   0.362   1.941   0.969  0.5108 -0.6823  3.2439
 4532SOL    HW214496   0.269   2.070   1.003 -0.9556 -0.2753 -1.5366
 4533SOL     OW14497   3.686   0.200   2.560 -0.8192  0.2061 -1.0743
 4533SOL    HW114498   3.650   0.123   2.508  0.3070 -1.1477  0.0786
 4533SOL    HW214499   3.615   0.234   2.623 -0.4772 -1.8217  0.5075
 4534SOL     OW14500   5.629   3.933   5.907  0.2927 -0.3516 -0.3438
 4534SOL    HW114501   5.622   3.908   6.004 -1.1896 -4.8454 -1.3663
 4534SOL    HW214502   5.540   3.962   5.874  0.6876  0.7076 -0.5120
 4535SOL     OW14503   2.730   2.852   0.720  0.5179 -0.2743  0.4231
 4535SOL    HW114504   2.784   2.826   0.640 -0.9838 -0.5180 -0.5481
 4535SOL    HW214505   2.788   2.900   0.785  1.6575  0.4301 -1.0553
 4536SOL     OW14506   5.278   1.850   3.783 -0.4262  0.6426  0.3373
 4536SOL    HW114507   5.317   1.919   3.721 -0.0899  0.5771  0.4692
 4536SOL    HW214508   5.290   1.759   3.742 -1.8116  0.7318 -0.3253
 4537SOL     OW14509   5.648   3.314   6.180 -0.1361 -0.4249 -0.2563
 4537SOL    HW114510   5.651   3.224   6.225  0.9172 -0.1010  0.3559
 4537SOL    HW214511   5.596   3.378   6.237  1.0153 -0.0716  0.4292
 4538SOL     OW14512   1.821   0.244   1.310  0.3817 -0.4020 -0.0141
 4538SOL    HW114513   1.786   0.163   1.358  2.1420  0.2117  2.5225
 4538SOL    HW214514   1.901   0.219   1.256 -0.0279 -0.6136 -0.5339
 4539SOL     OW14515   2.152   4.603   1.107  0.3258 -0.0973  0.5944
 4539SOL    HW114516   2.060   4.562   1.109  1.0192 -1.7330  1.4183
 4539SOL    HW214517   2.205   4.568   1.184  2.2413 -0.6593 -0.9070
 4540SOL     OW14518   3.762   3.340   2.253 -0.3583  0.3789  0.6824
 4540SOL    HW114519   3.705   3.371   2.177  0.4789  0.1134 -0.0625
 4540SOL    HW214520   3.857   3.364   2.236 -0.0044 -0.6463  1.1305
 4541SOL     OW14521   0.247   2.826   1.548  0.0772  0.1562  0.0855
 4541SOL    HW114522   0.248   2.729   1.575  1.6212 -0.1297 -0.8329
 4541SOL    HW214523   0.179   2.839   1.475 -0.6521 -0.0751  0.7131
 4542SOL     OW14524   0.187   4.722   5.140  0.7473  0.5262  0.1771
 4542SOL    HW114525   0.119   4.752   5.207  0.7804 -0.3354  0.6110
 4542SOL    HW214526   0.194   4.790   5.067 -1.6742 -0.0358 -0.6672
 4543SOL     OW14527   4.422   4.570   1.943 -0.1024 -0.2009 -0.3954
 4543SOL    HW114528   4.432   4.472   1.960  2.2356 -0.1106 -0.9361
 4543SOL    HW214529   4.442   4.621   2.026  0.2498 -0.1317 -0.5221
 4544SOL     OW14530   6.379   4.397   0.850 -0.3915  0.3535  0.3842
 4544SOL    HW114531   6.403   4.343   0.769  1.7700 -0.1024  1.2785
 4544SOL    HW214532   6.304   4.352   0.899 -1.7491  0.6390 -1.3134
 4545SOL     OW14533   4.608   4.234   0.841 -0.3429  0.7221  0.0937
 4545SOL    HW114534   4.699   4.273   0.826 -0.8245  0.8130 -3.1821
 4545SOL    HW214535   4.604   4.196   0.934  3.7435 -1.2019 -0.2756
 4546SOL     OW14536   0.893   4.774   1.569 -0.1629 -0.0060 -0.3363
 4546SOL    HW114537   0.906   4.675   1.575  0.4792  0.1606  1.8037
 4546SOL    HW214538   0.816   4.802   1.626 -1.3762  0.5905 -2.1862
 4547SOL     OW14539   4.041   1.688   3.666 -0.2534  0.5002  0.1928
 4547SOL    HW114540   4.043   1.772   3.613 -1.0865 -0.6696 -1.7749
 4547SOL    HW214541   4.132   1.672   3.706  0.4117  1.4216 -0.8898
 4548SOL     OW14542   1.716   2.199   3.837  0.4287 -0.3242  0.3179
 4548SOL    HW114543   1.811   2.231   3.830  0.9919 -1.7920  0.8228
 4548SOL    HW214544   1.654   2.277   3.829  1.6171  0.5021 -1.4042
 4549SOL     OW14545   4.672   2.616   1.698 -0.2822 -0.1163 -0.2302
 4549SOL    HW114546   4.581   2.612   1.658 -1.6078 -3.0110  2.5736
 4549SOL    HW214547   4.721   2.530   1.679  1.0277  0.5499  0.0274
 4550SOL     OW14548   1.641   4.392   6.690 -0.3758  0.2213 -0.0272
 4550SOL    HW114549   1.673   4.314   6.637  0.6066  1.2263 -0.9536
 4550SOL    HW214550   1.549   4.418   6.659 -0.1686  0.2452 -0.6285
 4551SOL     OW14551   6.765   4.496   0.718  0.1179  0.0369  0.0854
 4551SOL    HW114552   6.804   4.479   0.628 -2.1704 -0.3063 -0.9104
 4551SOL    HW214553   6.693   4.565   0.711 -0.6678 -0.5965  1.4740
 4552SOL     OW14554   6.834   4.456   5.528  0.0565 -0.0350 -0.1304
 4552SOL    HW114555   6.902   4.458   5.601  0.7993  0.5496 -0.8211
 4552SOL    HW214556   6.799   4.549   5.513 -0.5176 -0.2490 -0.1263
 4553SOL     OW14557   5.472   4.894   0.432  0.0081 -0.0879 -0.1796
 4553SOL    HW114558   5.448   4.881   0.336  0.0430 -1.3163 -0.0465
 4553SOL    HW214559   5.479   4.804   0.477 -0.0712  0.4668  0.9863
 4554SOL     OW14560   4.676   6.147   2.231  0.7699 -0.3714 -0.1266
 4554SOL    HW114561   4.698   6.230   2.283 -0.2643 -0.5184  0.5744
 4554SOL    HW214562   4.636   6.079   2.293 -1.7554 -0.0691 -1.3206
 4555SOL     OW14563   3.094   3.073   5.355 -0.6944 -0.1852  0.1217
 4555SOL    HW114564   3.098   3.126   5.271  0.7617  1.8687  1.3878
 4555SOL    HW214565   3.076   2.977   5.334 -1.7579  0.4911 -2.3867
 4556SOL     OW14566   4.356   1.012   5.574  0.1706  0.2709 -0.3196
 4556SOL    HW114567   4.280   1.063   5.614 -1.1853 -1.2439 -0.8580
 4556SOL    HW214568   4.432   1.010   5.639 -0.4474  1.3277  0.4728
 4557SOL     OW14569   6.628   5.619   2.478 -0.1991  0.4109 -0.4927
 4557SOL    HW114570   6.620   5.601   2.380  0.2865  0.3555 -0.5216
 4557SOL    HW214571   6.718   5.656   2.498 -0.2292  0.2387 -0.0340
 4558SOL     OW14572   6.139   4.144   1.506 -0.3585 -0.6313 -0.1139
 4558SOL    HW114573   6.158   4.049   1.482  3.3022 -0.5687  1.7871
 4558SOL    HW214574   6.123   4.152   1.604  0.2417  0.7461 -0.0930
 4559SOL     OW14575   2.467   6.141   1.074 -0.3976 -1.0317  0.6324
 4559SOL    HW114576   2.388   6.180   1.120 -0.2162  0.0841  0.0396
 4559SOL    HW214577   2.458   6.041   1.068 -1.4198 -0.9732  1.1699
 4560SOL     OW14578   1.023   3.049   3.271  0.2799  0.1345  0.4839
 4560SOL    HW114579   1.110   3.061   3.320  0.1179  0.8664  0.5973
 4560SOL    HW214580   1.016   2.954   3.240  0.4119 -0.3478  1.8402
 4561SOL     OW14581   1.936   6.385   0.805  0.0063  0.2048  0.4495
 4561SOL    HW114582   2.006   6.396   0.734 -2.2897  2.3351 -1.6880
 4561SOL    HW214583   1.976   6.407   0.894  2.1438  0.9681 -0.6181
 4562SOL     OW14584   3.312   3.697   4.899  0.4831 -0.5647 -0.1263
 4562SOL    HW114585   3.251   3.724   4.973 -0.3236 -3.1663  0.2360
 4562SOL    HW214586   3.407   3.711   4.927  0.1424  0.4769  0.5528
 4563SOL     OW14587   4.439   2.253   6.635  0.1913  0.5421 -0.5655
 4563SOL    HW114588   4.533   2.241   6.604  0.2848  2.1408 -0.9900
 4563SOL    HW214589   4.390   2.166   6.628  1.3792 -0.0982 -1.1895
 4564SOL     OW14590   0.211   6.521   1.247 -0.0476  0.0113  0.2249
 4564SOL    HW114591   0.166   6.607   1.223  0.5499  0.0095 -1.0138
 4564SOL    HW214592   0.300   6.518   1.202  0.1955 -0.9892  0.7676
 4565SOL     OW14593   3.917   6.045   3.049 -0.0679  0.4355 -0.5267
 4565SOL    HW114594   3.879   6.093   2.970  1.2936  0.9771 -0.8793
 4565SOL    HW214595   3.929   5.948   3.026 -0.5460  0.4070 -0.6598
 4566SOL     OW14596   0.833   2.203   1.820  0.0885  0.2429  0.1361
 4566SOL    HW114597   0.880   2.176   1.736 -2.3459 -0.5896 -1.0552
 4566SOL    HW214598   0.765   2.274   1.799  1.1139  1.8236  1.8864
 4567SOL     OW14599   0.276   2.234   1.070  0.3446  0.4959  0.0661
 4567SOL    HW114600   0.210   2.246   1.144  0.7186  0.7009  0.3685
 4567SOL    HW214601   0.256   2.300   0.997 -0.4518 -0.1750 -0.3318
 4568SOL     OW14602   3.177   4.933   4.297 -0.4777  0.1606  0.5328
 4568SOL    HW114603   3.136   4.894   4.380  0.2379  1.5970  1.5941
 4568SOL    HW214604   3.124   5.012   4.268 -0.5549 -0.1621 -0.2349
 4569SOL     OW14605   2.224   1.886   2.375  0.3867 -0.6557 -0.2263
 4569SOL    HW114606   2.264   1.800   2.343  0.0127 -0.3383 -1.6095
 4569SOL    HW214607   2.124   1.877   2.377  0.2222  0.2539 -2.0725
 4570SOL     OW14608   4.487   5.240   3.737 -0.5800  0.1400  0.3370
 4570SOL    HW114609   4.511   5.170   3.805  0.3745  0.0120 -0.1182
 4570SOL    HW214610   4.428   5.200   3.667 -0.2508 -0.1446  0.2196
 4571SOL     OW14611   2.971   2.961   1.383 -0.4213 -0.3954  0.3301
 4571SOL    HW114612   2.908   3.036   1.403  0.5628  0.4157  0.4447
 4571SOL    HW214613   3.064   2.997   1.370 -0.2300 -1.3681 -1.4055
 4572SOL     OW14614   2.538   4.999   1.024  0.3980  0.1284 -0.3852
 4572SOL    HW114615   2.503   5.081   0.980  0.7078  1.0063  0.9524
 4572SOL    HW214616   2.478   4.922   1.003 -1.9522  1.3974  1.1525
 4573SOL     OW14617   6.046   0.141   0.154 -0.2044 -0.0115 -0.2573
 4573SOL    HW114618   6.047   0.237   0.182  0.5008  0.3817 -1.5688
 4573SOL    HW214619   6.123   0.093   0.196 -0.5822 -0.0238  0.4339
 4574SOL     OW14620   6.728   4.425   2.527  0.3255 -0.0543  0.4151
 4574SOL    HW114621   6.659   4.433   2.599 -0.5099  2.3141 -0.5793
 4574SOL    HW214622   6.715   4.339   2.478 -1.9069  0.3133  0.2789
 4575SOL     OW14623   4.509   4.683   6.919  0.0297 -0.2780  0.4495
 4575SOL    HW114624   4.511   4.586   6.943  1.5794 -0.1133  1.0868
 4575SOL    HW214625   4.603   4.719   6.920 -0.3243  0.8218 -1.4474
 4576SOL     OW14626   2.009   4.610   5.102 -0.5472 -0.4489  0.1443
 4576SOL    HW114627   2.014   4.707   5.075 -0.4458 -1.0782 -2.3657
 4576SOL    HW214628   2.030   4.553   5.023  1.2328 -2.5589  2.0211
 4577SOL     OW14629   2.911   6.055   3.827  0.6802 -0.6153  0.2804
 4577SOL    HW114630   2.978   5.999   3.875  0.4160 -1.0116  0.1946
 4577SOL    HW214631   2.878   6.006   3.746 -0.3040 -0.7758  0.7640
 4578SOL     OW14632   5.904   1.167   2.022 -0.4173 -0.5219 -0.0708
 4578SOL    HW114633   5.968   1.173   1.945  0.0351  2.1615  0.4156
 4578SOL    HW214634   5.933   1.093   2.083  1.3786 -0.3258 -0.6283
 4579SOL     OW14635   5.599   1.013   4.052  0.0900  0.4067 -0.3188
 4579SOL    HW114636   5.614   0.951   4.129 -1.0819  1.2279  0.6200
 4579SOL    HW214637   5.686   1.036   4.009  0.5245 -2.4957 -1.2422
 4580SOL     OW14638   1.334   4.635   0.339 -0.2334  0.0795  0.0322
 4580SOL    HW114639   1.372   4.656   0.429  1.7784 -1.3820 -0.4080
 4580SOL    HW214640   1.294   4.718   0.300 -1.9229  0.5787  2.5573
 4581SOL     OW14641   1.306   3.739   6.051 -0.1838 -0.0956  0.3102
 4581SOL    HW114642   1.312   3.655   5.998  1.8694 -0.6560  1.3406
 4581SOL    HW214643   1.329   3.720   6.146 -0.4872  1.4934  0.7280
 4582SOL     OW14644   5.172   5.510   2.451  0.0735 -0.0942  0.3676
 4582SOL    HW114645   5.187   5.498   2.549  0.3016 -1.1406  0.2204
 4582SOL    HW214646   5.089   5.461   2.423 -0.4323  0.8576  0.1678
 4583SOL     OW14647   4.353   0.506   5.225  0.3049  0.0859 -0.0623
 4583SOL    HW114648   4.375   0.603   5.239  1.0966  0.0953 -1.2089
 4583SOL    HW214649   4.254   0.494   5.230  0.0053  1.3266 -1.8148
 4584SOL     OW14650   0.058   4.294   4.752 -0.5583  0.4452  0.0291
 4584SOL    HW114651   0.012   4.307   4.664  0.3651  2.2307 -0.2535
 4584SOL    HW214652   0.053   4.380   4.804  1.8112  0.4896  0.2681
 4585SOL     OW14653   4.889   4.892   2.238 -0.2868  0.2392 -0.2363
 4585SOL    HW114654   4.930   4.919   2.151 -1.6691 -1.3938 -1.4625
 4585SOL    HW214655   4.892   4.793   2.248  1.0930  0.4555  2.2835
 4586SOL     OW14656   2.458   6.604   1.641 -0.1777 -0.2162 -0.2446
 4586SOL    HW114657   2.426   6.618   1.734  0.7613 -0.3240  0.1062
 4586SOL    HW214658   2.487   6.509   1.629 -1.1491 -0.4515 -0.9311
 4587SOL     OW14659   3.305   3.492   1.386 -0.3609  0.0365 -0.5294
 4587SOL    HW114660   3.282   3.419   1.451  0.5868 -0.7972 -1.0946
 4587SOL    HW214661   3.226   3.512   1.328 -1.3055  0.9898  1.0383
 4588SOL     OW14662   2.927   3.591   4.694 -0.2603 -0.8087  0.2981
 4588SOL    HW114663   2.969   3.521   4.637  0.0391  0.1261 -0.6800
 4588SOL    HW214664   2.832   3.568   4.711 -0.9493 -0.1846 -2.2809
 4589SOL     OW14665   2.310   1.981   2.935 -0.1265  0.1299 -0.7711
 4589SOL    HW114666   2.406   1.955   2.924 -0.2666 -0.2792 -1.0901
 4589SOL    HW214667   2.285   2.044   2.861  0.1255  0.9334 -0.1856
 4590SOL     OW14668   4.365   6.592   0.479  0.1928 -0.5196  0.4855
 4590SOL    HW114669   4.453   6.546   0.486  1.3004  1.5890  1.4243
 4590SOL    HW214670   4.359   6.639   0.391  0.6759  0.5392  0.9972
 4591SOL     OW14671   4.888   5.664   4.074 -0.0585  0.1015  0.4604
 4591SOL    HW114672   4.926   5.620   3.993 -0.3667  0.0962  0.3175
 4591SOL    HW214673   4.958   5.719   4.118  0.1349  0.0323  0.2400
 4592SOL     OW14674   3.666   2.932   0.710  0.2325  0.0889 -0.3156
 4592SOL    HW114675   3.634   3.015   0.664 -2.0589 -0.9680 -0.7855
 4592SOL    HW214676   3.632   2.852   0.660  0.1502 -1.1150  1.5931
 4593SOL     OW14677   5.890   5.830   3.630  0.0439  0.2116  0.3151
 4593SOL    HW114678   5.984   5.814   3.599 -0.4109 -0.5399 -0.7470
 4593SOL    HW214679   5.884   5.814   3.728  1.5770  2.8461  0.9491
 4594SOL     OW14680   0.011   2.719   0.000  0.1777 -0.3369 -0.5602
 4594SOL    HW114681   0.080   2.662   0.045 -0.5511  0.2888  1.4465
 4594SOL    HW214682  -0.046   2.764   0.069  1.0570  3.3091 -1.9680
 4595SOL     OW14683   5.571   2.931   0.708 -0.2456  0.1070  0.1278
 4595SOL    HW114684   5.535   2.837   0.707 -0.5860  0.2235 -1.7291
 4595SOL    HW214685   5.496   2.995   0.723 -0.5755  0.2427 -1.8926
 4596SOL     OW14686   3.129   2.387   1.183  0.3734 -0.3480  0.6665
 4596SOL    HW114687   3.034   2.416   1.196  0.6637 -0.0028  2.2334
 4596SOL    HW214688   3.190   2.462   1.210  1.0953 -0.4961 -0.5178
 4597SOL     OW14689   4.562   5.551   4.370 -0.3174  0.2979  0.4291
 4597SOL    HW114690   4.549   5.481   4.440  0.4167 -1.0409 -0.7004
 4597SOL    HW214691   4.477   5.562   4.317 -1.1453  1.9261  1.9986
 4598SOL     OW14692   2.052   3.354   0.548  0.5256  0.0697  0.3621
 4598SOL    HW114693   2.082   3.271   0.501  0.0306 -0.0554  0.2629
 4598SOL    HW214694   2.098   3.434   0.509  1.0923 -0.1664  0.5356
 4599SOL     OW14695   3.840   4.501   1.284  0.0352 -0.0995 -0.3167
 4599SOL    HW114696   3.873   4.448   1.206  0.0215  0.6258 -0.8285
 4599SOL    HW214697   3.917   4.522   1.344  0.4876  1.3157 -1.3418
 4600SOL     OW14698   4.785   3.945   6.790  0.5140  0.0412  0.1848
 4600SOL    HW114699   4.799   3.863   6.735 -1.7203  0.8440 -1.7460
 4600SOL    HW214700   4.743   3.920   6.878  0.8647 -0.9580  0.0793
 4601SOL     OW14701   1.500   5.937   3.507  0.5438  0.0285  0.3630
 4601SOL    HW114702   1.516   5.859   3.566 -3.0286 -0.7393  0.5112
 4601SOL    HW214703   1.506   5.909   3.411 -0.0045 -0.2453  0.4101
 4602SOL     OW14704   0.151   6.261   2.019 -0.3134  0.5071 -0.4028
 4602SOL    HW114705   0.222   6.306   1.965  0.1076  0.9014  0.4745
 4602SOL    HW214706   0.087   6.216   1.957  1.0272 -0.3745 -1.1939
 4603SOL     OW14707   2.624   6.867   0.345  0.6747  0.1276  0.3756
 4603SOL    HW114708   2.703   6.925   0.366  0.1228  0.5221  1.4377
 4603SOL    HW214709   2.641   6.775   0.379  1.1854 -0.1284 -0.5272
 4604SOL     OW14710   1.585   5.461   4.982  0.1898  0.2693  0.5235
 4604SOL    HW114711   1.525   5.462   5.063 -1.0716  1.3031 -0.3829
 4604SOL    HW214712   1.536   5.499   4.904  2.2411  1.7380 -0.1249
 4605SOL     OW14713   6.451   5.778   5.896  0.1735  0.4385  0.6686
 4605SOL    HW114714   6.396   5.861   5.906 -0.3332  0.0900  0.8269
 4605SOL    HW214715   6.452   5.729   5.983 -0.4560 -0.2869  0.2738
 4606SOL     OW14716   6.009   0.455   5.136  0.5613  0.0842 -0.2362
 4606SOL    HW114717   5.945   0.441   5.212  1.0053 -0.0618  0.1142
 4606SOL    HW214718   6.063   0.371   5.122  0.7556  0.2449 -0.4590
 4607SOL     OW14719   2.076   2.940   1.850  0.5787  0.2007 -0.4485
 4607SOL    HW114720   2.058   2.957   1.947 -0.6131  0.6317 -0.7302
 4607SOL    HW214721   2.126   2.854   1.840 -0.0739 -0.3089  0.4884
 4608SOL     OW14722   1.148   3.539   6.911 -0.0389 -0.0744  0.7882
 4608SOL    HW114723   1.110   3.449   6.932 -0.4708 -0.4109 -1.2199
 4608SOL    HW214724   1.106   3.575   6.828  0.5704  1.7327  1.2052
 4609SOL     OW14725   2.978   6.786   0.743 -0.2220  0.2798 -0.3588
 4609SOL    HW114726   3.074   6.767   0.720 -0.6088 -2.3724 -0.1604
 4609SOL    HW214727   2.946   6.866   0.692  2.1999  1.5428 -0.0515
 4610SOL     OW14728   5.424   3.894   1.985 -0.4579  0.1782 -0.5185
 4610SOL    HW114729   5.357   3.949   2.036 -1.0760 -1.9368  1.1106
 4610SOL    HW214730   5.513   3.900   2.030  0.0732  1.6249 -1.6922
 4611SOL     OW14731   0.687   5.527   6.125 -0.2197 -0.5473  0.6531
 4611SOL    HW114732   0.589   5.529   6.108 -0.3062  0.1214  1.1837
 4611SOL    HW214733   0.723   5.435   6.107 -0.8081 -0.6068 -0.2541
 4612SOL     OW14734   0.983   1.218   0.377 -0.0702 -0.0673  0.0134
 4612SOL    HW114735   0.978   1.206   0.476  0.0741 -3.1084 -0.2533
 4612SOL    HW214736   1.077   1.244   0.351 -0.0856  0.6484  0.6393
 4613SOL     OW14737   3.785   4.898   1.051 -0.0822  0.0460  0.4417
 4613SOL    HW114738   3.831   4.837   0.987  0.2760 -0.3842  1.0956
 4613SOL    HW214739   3.801   4.866   1.144  1.3527  1.9508  0.9118
 4614SOL     OW14740   1.426   5.296   6.593  0.1642 -0.1484 -0.1081
 4614SOL    HW114741   1.423   5.216   6.532 -0.3819  0.4118 -0.8397
 4614SOL    HW214742   1.497   5.359   6.562 -0.1078  0.1341 -0.1591
 4615SOL     OW14743   6.526   1.780   6.736  0.5909  0.0602 -0.1486
 4615SOL    HW114744   6.515   1.831   6.821 -1.6293 -2.2465  1.1046
 4615SOL    HW214745   6.472   1.823   6.663 -3.5594 -1.7331  1.5802
 4616SOL     OW14746   6.030   1.152   5.529 -0.4102  0.2060 -1.3229
 4616SOL    HW114747   6.018   1.079   5.597 -0.0442  0.0100 -1.4630
 4616SOL    HW214748   5.975   1.231   5.555  1.4003  0.9838  0.4314
 4617SOL     OW14749   0.081   2.546   2.623 -0.0200 -0.5190  0.3199
 4617SOL    HW114750   0.150   2.524   2.555 -0.1991 -0.4293  0.1062
 4617SOL    HW214751   0.118   2.533   2.715  0.6820  0.7362  0.2282
 4618SOL     OW14752   1.643   1.671   1.553  0.0480 -0.5700  0.2953
 4618SOL    HW114753   1.703   1.732   1.500  1.4717 -1.1065  1.2300
 4618SOL    HW214754   1.560   1.652   1.500  0.7286  0.1316 -1.0870
 4619SOL     OW14755   5.337   0.337   5.016  0.8507 -0.2061  0.1303
 4619SOL    HW114756   5.302   0.419   4.972  1.0988 -0.0763  0.1768
 4619SOL    HW214757   5.436   0.330   5.002  0.9521 -0.1089  0.7422
 4620SOL     OW14758   0.491   6.512   1.708 -0.4887 -0.3014  0.2056
 4620SOL    HW114759   0.538   6.564   1.779 -2.2560 -2.5690  3.2798
 4620SOL    HW214760   0.414   6.567   1.672  0.5939  0.9752 -0.2599
 4621SOL     OW14761   6.454   2.395   0.563  0.0926  0.0240  0.0545
 4621SOL    HW114762   6.498   2.453   0.632  2.6717 -1.9976  0.3147
 4621SOL    HW214763   6.495   2.412   0.473 -0.7648  0.2115 -0.3068
 4622SOL     OW14764   1.872   2.965   1.085  0.4072  0.1049 -0.3288
 4622SOL    HW114765   1.900   2.961   0.989  1.0805 -0.7146 -0.1144
 4622SOL    HW214766   1.931   2.905   1.139 -0.0902  0.4066  0.5705
 4623SOL     OW14767   5.791   4.808   5.623 -0.0175  0.5780 -0.5401
 4623SOL    HW114768   5.737   4.801   5.538 -1.7804  0.2883  0.5415
 4623SOL    HW214769   5.789   4.902   5.656 -0.2966  0.4639 -0.2292
 4624SOL     OW14770   3.715   5.911   5.458  0.3183 -0.1390  0.0163
 4624SOL    HW114771   3.686   5.829   5.409  1.1732 -1.6430  1.9046
 4624SOL    HW214772   3.726   5.890   5.555  2.6425  1.6755  0.2375
 4625SOL     OW14773   5.427   4.709   6.440 -0.3942 -0.5414  0.1937
 4625SOL    HW114774   5.349   4.724   6.378  0.4138 -0.5596 -0.8632
 4625SOL    HW214775   5.397   4.654   6.518 -1.2338 -1.3852 -0.6844
 4626SOL     OW14776   6.275   4.879   4.401 -0.2485  0.4207 -0.8949
 4626SOL    HW114777   6.299   4.974   4.378  2.1296  0.7135  2.1658
 4626SOL    HW214778   6.358   4.826   4.418 -1.5729 -1.3664  0.4531
 4627SOL     OW14779   3.765   2.135   4.304 -0.0781  0.3086 -0.2825
 4627SOL    HW114780   3.670   2.156   4.281  0.7469  3.9215 -0.9821
 4627SOL    HW214781   3.780   2.151   4.402 -0.0055  0.5712 -0.3360
 4628SOL     OW14782   5.972   3.972   2.703  0.3486  0.4318  0.6129
 4628SOL    HW114783   5.994   3.881   2.666 -4.0634 -0.4977 -0.2434
 4628SOL    HW214784   6.024   4.042   2.654  0.3893 -1.3193 -2.0312
 4629SOL     OW14785   3.982   5.321   3.971 -0.1782  0.0828 -0.0976
 4629SOL    HW114786   3.916   5.381   4.017 -1.0783 -0.7003 -0.3188
 4629SOL    HW214787   4.066   5.371   3.952 -1.1343  1.4663 -0.8590
 4630SOL     OW14788   4.138   1.110   1.497 -0.5592 -0.2574 -0.0563
 4630SOL    HW114789   4.234   1.081   1.504 -0.3273  0.6528  0.6960
 4630SOL    HW214790   4.126   1.168   1.417 -0.7999 -1.4986 -0.9563
 4631SOL     OW14791   2.958   6.389   3.019  0.4475 -0.0956 -0.7428
 4631SOL    HW114792   2.986   6.362   3.111 -1.8758 -0.7003 -0.1591
 4631SOL    HW214793   2.945   6.308   2.962  0.5636  0.2071 -1.2109
 4632SOL     OW14794   1.216   4.961   4.710 -0.3648  0.0354  0.7269
 4632SOL    HW114795   1.252   4.905   4.635 -2.1845  0.3742 -0.4480
 4632SOL    HW214796   1.292   4.988   4.771  1.0273 -0.9258 -0.5183
 4633SOL     OW14797   5.374   2.549   6.317  0.2597 -0.0241  0.0444
 4633SOL    HW114798   5.432   2.524   6.395 -1.2623 -0.6085  1.0478
 4633SOL    HW214799   5.340   2.642   6.330  0.3507  0.0391 -0.1608
 4634SOL     OW14800   2.874   3.961   6.425 -0.6651  0.3590 -0.1673
 4634SOL    HW114801   2.933   3.960   6.506 -0.4339 -1.6246 -0.3086
 4634SOL    HW214802   2.787   4.003   6.447 -0.5228  0.0375  1.0544
 4635SOL     OW14803   4.611   4.239   1.264  0.3706  0.0257 -0.2362
 4635SOL    HW114804   4.626   4.231   1.362 -0.0822  1.0588 -0.0717
 4635SOL    HW214805   4.518   4.271   1.247  0.9615  1.4331 -0.9344
 4636SOL     OW14806   0.477   4.161   1.336 -0.2010 -0.0515 -0.0445
 4636SOL    HW114807   0.534   4.167   1.418  0.3908 -0.1188 -0.4424
 4636SOL    HW214808   0.478   4.249   1.288 -0.9418  0.1386  0.2696
 4637SOL     OW14809   0.182   2.174   4.895 -0.1646  0.3062 -0.6348
 4637SOL    HW114810   0.214   2.084   4.867  0.8563  0.4404  0.0597
 4637SOL    HW214811   0.212   2.243   4.829  0.6662  0.3741 -0.2051
 4638SOL     OW14812   2.992   5.863   6.372  0.0978 -0.3561 -0.1037
 4638SOL    HW114813   2.992   5.927   6.449 -0.4605 -0.3965 -0.0674
 4638SOL    HW214814   3.075   5.877   6.318  1.0337 -1.0356  1.0888
 4639SOL     OW14815   5.760   2.483   5.063 -0.1432  0.1257 -0.3616
 4639SOL    HW114816   5.751   2.489   4.964  0.2807  1.0079 -0.3571
 4639SOL    HW214817   5.857   2.486   5.088 -0.2843  1.6414  0.1492
 4640SOL     OW14818   1.447   4.793   3.509 -0.0638 -0.1043 -0.1846
 4640SOL    HW114819   1.407   4.828   3.424  1.8123 -0.4752 -1.2722
 4640SOL    HW214820   1.545   4.780   3.497  0.1350 -0.8509  1.8423
 4641SOL     OW14821   1.953   4.176   5.325 -0.3209 -0.0030 -0.5075
 4641SOL    HW114822   1.946   4.077   5.336 -0.2448 -0.1730 -1.7409
 4641SOL    HW214823   2.038   4.198   5.276 -1.0858  0.5288 -1.6463
 4642SOL     OW14824   0.294   5.216   4.334  0.2717 -0.0238 -0.7422
 4642SOL    HW114825   0.268   5.171   4.420 -0.0015 -2.6260 -2.1039
 4642SOL    HW214826   0.351   5.295   4.355  1.8450 -1.6667  1.7886
 4643SOL     OW14827   5.492   4.429   0.870 -0.4203 -0.0517 -0.6001
 4643SOL    HW114828   5.448   4.428   0.960  0.7935 -0.0149  0.0136
 4643SOL    HW214829   5.578   4.480   0.876 -0.6592  0.5264 -1.9475
 4644SOL     OW14830   2.624   4.898   5.476  0.0080 -0.5195 -0.7678
 4644SOL    HW114831   2.563   4.840   5.529  2.8490 -1.8797  1.3243
 4644SOL    HW214832   2.679   4.841   5.415  3.3285 -0.3828  1.8029
 4645SOL     OW14833   0.925   0.515   5.616  0.9559 -0.6056 -0.3691
 4645SOL    HW114834   0.910   0.554   5.526  0.4055 -0.9285 -0.4206
 4645SOL    HW214835   0.967   0.583   5.676  3.2656 -1.0013 -1.4373
 4646SOL     OW14836   2.384   0.613   0.120  0.4539  0.0332  0.2847
 4646SOL    HW114837   2.387   0.608   0.020  0.6417 -2.5619  0.3472
 4646SOL    HW214838   2.299   0.659   0.149 -0.2640 -0.4034 -1.0627
 4647SOL     OW14839   0.464   6.451   4.597 -0.2447  0.3049 -0.2441
 4647SOL    HW114840   0.467   6.359   4.634 -1.3397  0.5758  0.6006
 4647SOL    HW214841   0.446   6.448   4.499 -0.0962 -0.3776 -0.2510
 4648SOL     OW14842   0.694   4.306   3.239  0.2969  0.1455 -0.4150
 4648SOL    HW114843   0.649   4.357   3.312 -0.1359  0.8797 -1.1780
 4648SOL    HW214844   0.761   4.242   3.279 -0.6025 -0.1545  0.6657
 4649SOL     OW14845   0.708   5.529   4.887 -0.2349  0.1243 -0.4121
 4649SOL    HW114846   0.730   5.475   4.968  2.5805  0.6224 -0.7385
 4649SOL    HW214847   0.756   5.491   4.808 -0.6056  1.3653 -1.2551
 4650SOL     OW14848   5.908   5.978   0.397  0.0217 -0.2423  0.0228
 4650SOL    HW114849   5.885   6.001   0.492  1.6630  1.6294  0.0343
 4650SOL    HW214850   5.854   6.035   0.335 -1.5290 -1.9145 -0.2668
 4651SOL     OW14851   5.957   2.627   6.513  0.8299 -0.0187  0.2195
 4651SOL    HW114852   5.859   2.637   6.496  1.0567 -0.4059 -1.5437
 4651SOL    HW214853   6.004   2.713   6.493  0.9362 -0.0460  0.3518
 4652SOL     OW14854   1.295   4.704   5.625  0.0960 -0.0796  0.2673
 4652SOL    HW114855   1.325   4.686   5.531 -1.4917 -0.4555 -0.1866
 4652SOL    HW214856   1.218   4.645   5.647 -0.4625  1.0107  1.3278
 4653SOL     OW14857   4.177   4.044   6.924 -0.1024  0.2558 -0.5854
 4653SOL    HW114858   4.116   4.034   7.003  0.0909 -0.8935 -0.5706
 4653SOL    HW214859   4.211   4.138   6.921  1.1264 -0.0216  1.6310
 4654SOL     OW14860   0.673   1.287   6.029 -0.3695  0.3061  0.3100
 4654SOL    HW114861   0.602   1.279   5.960 -1.5645  0.1074  1.5120
 4654SOL    HW214862   0.652   1.225   6.105  1.3725 -0.1426  0.4609
 4655SOL     OW14863   6.972   3.666   5.879 -0.2151  0.2531  0.3179
 4655SOL    HW114864   6.945   3.628   5.791 -0.7525  0.9098  0.1944
 4655SOL    HW214865   6.908   3.637   5.950 -0.2292  0.3712  0.3530
 4656SOL     OW14866   1.517   6.277   1.899 -0.2092  0.4965 -0.3217
 4656SOL    HW114867   1.523   6.317   1.808 -0.4079 -1.3664 -1.2007
 4656SOL    HW214868   1.575   6.197   1.904 -0.6691  0.2250  1.0014
 4657SOL     OW14869   1.542   5.747   5.282 -0.2014  0.6323  0.1898
 4657SOL    HW114870   1.563   5.650   5.296  2.7787  1.1513  0.0601
 4657SOL    HW214871   1.498   5.759   5.193 -0.6095 -0.5929  0.2096
 4658SOL     OW14872   5.005   0.312   2.869 -0.3059  0.4527 -0.1014
 4658SOL    HW114873   5.042   0.238   2.925 -0.6569 -0.5797 -1.1926
 4658SOL    HW214874   4.926   0.353   2.916 -0.6349 -0.4353  0.1392
 4659SOL     OW14875   2.943   0.431   3.759 -0.2395  0.4798  0.6712
 4659SOL    HW114876   2.986   0.520   3.745 -0.4932  0.5115  0.0610
 4659SOL    HW214877   2.880   0.436   3.837 -1.6619  1.3577 -0.4853
 4660SOL     OW14878   0.104   1.617   5.736 -0.2024  0.4011 -0.0871
 4660SOL    HW114879   0.044   1.546   5.773 -0.0842  0.0600 -0.5285
 4660SOL    HW214880   0.098   1.615   5.636  1.1344 -0.1661 -0.1742
 4661SOL     OW14881   3.949   3.868   3.337  0.1723 -0.3156  0.0528
 4661SOL    HW114882   3.936   3.813   3.254 -1.4377 -1.4567  1.0047
 4661SOL    HW214883   3.875   3.934   3.346 -0.8347 -1.5790  1.5727
 4662SOL     OW14884   6.731   5.601   3.781  0.0767  0.2850 -0.3777
 4662SOL    HW114885   6.791   5.635   3.709  0.8569  0.2111  0.2176
 4662SOL    HW214886   6.774   5.523   3.826 -1.5211 -1.3118 -1.4964
 4663SOL     OW14887   0.899   1.675   3.485  0.5936 -0.5973 -0.6293
 4663SOL    HW114888   0.893   1.652   3.387 -1.7642 -1.2499 -0.4078
 4663SOL    HW214889   0.866   1.597   3.539  1.6469 -0.1543  0.6852
 4664SOL     OW14890   2.689   5.395   0.977 -0.0442  0.4798 -0.7160
 4664SOL    HW114891   2.728   5.305   0.993  0.9908  0.8937 -0.8792
 4664SOL    HW214892   2.716   5.428   0.886 -0.0017  1.1605 -0.4637
 4665SOL     OW14893   3.547   0.877   6.939  0.3499 -0.1216 -0.1441
 4665SOL    HW114894   3.597   0.828   6.868  1.4344  1.0882 -0.2393
 4665SOL    HW214895   3.590   0.966   6.956 -0.9815  0.3968  0.7208
 4666SOL     OW14896   2.450   5.933   0.453 -0.0695 -0.4408  0.0069
 4666SOL    HW114897   2.530   5.898   0.405 -0.8615 -0.0191 -1.7109
 4666SOL    HW214898   2.471   6.021   0.494  0.5020 -0.5997  0.0639
 4667SOL     OW14899   1.042   4.966   6.246  0.3161  0.4629  0.2011
 4667SOL    HW114900   1.044   5.007   6.337  0.1233  1.5981 -0.2853
 4667SOL    HW214901   1.113   5.008   6.189  0.9637 -0.7936  0.0483
 4668SOL     OW14902   5.399   6.738   4.725  0.6482 -0.1422  1.1943
 4668SOL    HW114903   5.454   6.655   4.719  1.2846  0.2341  1.6746
 4668SOL    HW214904   5.459   6.818   4.727  0.1247  0.7856 -4.0865
 4669SOL     OW14905   2.909   0.593   1.636  0.1172  0.4522 -0.6012
 4669SOL    HW114906   2.930   0.616   1.732 -0.7463  2.9926 -0.9351
 4669SOL    HW214907   2.812   0.570   1.628  0.3112 -0.3046 -0.7842
 4670SOL     OW14908   2.839   1.744   5.333 -0.0317  0.1517  0.3298
 4670SOL    HW114909   2.741   1.730   5.315 -0.2503  1.2821  0.5796
 4670SOL    HW214910   2.880   1.794   5.257  1.4330 -4.1431 -2.0734
 4671SOL     OW14911   0.066   1.976   3.772  0.2447  0.6555  0.1006
 4671SOL    HW114912   0.086   1.881   3.793 -1.2348  0.1630 -0.5230
 4671SOL    HW214913  -0.030   1.984   3.745 -0.0268  2.5560  1.4430
 4672SOL     OW14914   3.281   3.619   6.311 -0.1568 -0.0121 -0.4874
 4672SOL    HW114915   3.226   3.689   6.266  0.6212  0.7290 -0.2987
 4672SOL    HW214916   3.265   3.620   6.409 -1.4782 -1.3002 -0.6511
 4673SOL     OW14917   4.652   0.804   1.402 -0.6212 -0.0020  0.1372
 4673SOL    HW114918   4.690   0.844   1.485 -0.8839  0.7539 -0.0975
 4673SOL    HW214919   4.608   0.876   1.348 -0.2647 -0.4519 -0.7601
 4674SOL     OW14920   5.080   1.129   5.841 -0.1577  0.4145 -0.2448
 4674SOL    HW114921   5.006   1.166   5.786  0.5268  1.5858 -0.3968
 4674SOL    HW214922   5.165   1.128   5.788  0.0822 -0.3645  0.1230
 4675SOL     OW14923   1.376   4.515   3.978 -0.5109  0.0668  0.5414
 4675SOL    HW114924   1.308   4.589   3.983  1.1513  1.5745  3.1144
 4675SOL    HW214925   1.463   4.551   3.945 -0.1004 -1.1396  0.2526
 4676SOL     OW14926   0.837   3.603   3.819 -0.3757  0.2693 -0.3834
 4676SOL    HW114927   0.931   3.572   3.829 -0.5442 -0.2904 -0.4882
 4676SOL    HW214928   0.836   3.692   3.774  0.2628  1.7708  2.3481
 4677SOL     OW14929   1.624   5.260   1.390 -0.0441 -0.1485 -0.1837
 4677SOL    HW114930   1.559   5.273   1.465  0.3790 -1.3048  0.4061
 4677SOL    HW214931   1.692   5.333   1.393  0.1249 -0.3253  0.7391
 4678SOL     OW14932   0.263   2.309   1.477 -0.1836 -0.1568  0.2416
 4678SOL    HW114933   0.248   2.237   1.409  1.2600  0.7543 -1.1068
 4678SOL    HW214934   0.361   2.324   1.489 -0.4388  0.6038  1.5786
 4679SOL     OW14935   6.332   0.061   0.270 -0.6151  0.8111 -0.1304
 4679SOL    HW114936   6.339   0.017   0.359 -1.7832 -1.3766 -1.0395
 4679SOL    HW214937   6.408   0.030   0.212  0.2812  2.4131  0.1328
 4680SOL     OW14938   4.109   2.215   2.321 -0.6667 -0.2548 -0.2725
 4680SOL    HW114939   4.157   2.238   2.406 -0.4173  0.5648 -0.6301
 4680SOL    HW214940   4.176   2.196   2.249 -0.8368 -2.6070  0.1107
 4681SOL     OW14941   4.649   5.520   2.164  0.3942  0.2302 -0.0135
 4681SOL    HW114942   4.668   5.433   2.118  0.6426 -0.6800  1.7323
 4681SOL    HW214943   4.723   5.584   2.146  0.8373 -0.3459 -0.2766
 4682SOL     OW14944   4.797   4.270   5.245  0.1654  0.4376 -0.3777
 4682SOL    HW114945   4.729   4.322   5.194  0.7156  2.7516  1.1194
 4682SOL    HW214946   4.886   4.314   5.238  0.8226 -0.7014  0.3648
 4683SOL     OW14947   6.200   4.321   5.111  0.0317 -0.2292 -0.0996
 4683SOL    HW114948   6.103   4.323   5.135  0.0961  4.6931  0.7947
 4683SOL    HW214949   6.210   4.333   5.013 -0.3648  1.0643 -0.0078
 4684SOL     OW14950   3.529   1.706   5.578 -0.2552 -0.2280  0.5062
 4684SOL    HW114951   3.608   1.713   5.640 -0.1221 -2.5418  0.6738
 4684SOL    HW214952   3.560   1.675   5.489 -0.7777  0.7061 -0.0182
 4685SOL     OW14953   3.561   3.431   5.231  0.4740  0.2670 -0.4325
 4685SOL    HW114954   3.535   3.431   5.135 -2.4501  0.1298  0.2695
 4685SOL    HW214955   3.514   3.505   5.278  1.2078 -0.1755  1.0660
 4686SOL     OW14956   2.023   5.978   0.477  0.3658 -0.9357  0.0882
 4686SOL    HW114957   2.098   5.915   0.454 -0.1958 -1.1767 -1.1446
 4686SOL    HW214958   2.051   6.072   0.457  0.5020 -0.9779  0.0783
 4687SOL     OW14959   1.343   6.563   2.720 -0.7329 -0.1534  0.1843
 4687SOL    HW114960   1.268   6.506   2.753  0.1589 -1.4067  0.0944
 4687SOL    HW214961   1.348   6.556   2.620 -1.7255  1.5041 -0.0170
 4688SOL     OW14962   5.796   3.008   3.169 -0.1678  0.1834 -0.2668
 4688SOL    HW114963   5.894   2.993   3.152  0.3691  1.2435  1.7273
 4688SOL    HW214964   5.761   2.933   3.225 -0.2399  0.3856 -0.0440
 4689SOL     OW14965   6.953   6.902   6.798  0.1685  0.2681 -0.1406
 4689SOL    HW114966   6.908   6.989   6.820  2.6015  1.5362  0.1596
 4689SOL    HW214967   6.996   6.908   6.708 -0.7529 -1.1455 -0.7104
 4690SOL     OW14968   2.348   0.997   0.433  0.4553  0.4966  0.7191
 4690SOL    HW114969   2.317   1.049   0.513 -0.9466  1.9537 -0.6803
 4690SOL    HW214970   2.292   1.022   0.354  1.1008 -1.6764 -0.5076
 4691SOL     OW14971   6.744   3.487   0.440 -0.1896  0.0307 -0.0213
 4691SOL    HW114972   6.662   3.531   0.403  0.3915 -0.2272 -1.6884
 4691SOL    HW214973   6.790   3.550   0.502 -0.3303  1.1273 -0.9907
 4692SOL     OW14974   6.175   3.303   5.268 -0.1483  0.0895  0.4547
 4692SOL    HW114975   6.175   3.323   5.170  0.1749  1.4279  0.7122
 4692SOL    HW214976   6.196   3.386   5.319  1.1865 -0.9122  1.6110
 4693SOL     OW14977   6.547   1.851   4.615 -0.3609 -0.0094  0.1804
 4693SOL    HW114978   6.460   1.814   4.647 -0.1296 -0.8130 -0.0864
 4693SOL    HW214979   6.548   1.950   4.627 -1.2329 -0.0166  0.3634
 4694SOL     OW14980   2.416   6.297   5.763 -0.2188  0.2436 -0.5171
 4694SOL    HW114981   2.466   6.382   5.774  0.9363 -0.4945  0.1478
 4694SOL    HW214982   2.327   6.303   5.809 -0.7067  1.5043 -1.5601
 4695SOL     OW14983   0.151   6.614   0.585  0.0526  0.4086 -0.2368
 4695SOL    HW114984   0.218   6.613   0.660 -1.1572  2.3683  0.9430
 4695SOL    HW214985   0.186   6.559   0.509  3.1436  1.5977  0.1904
 4696SOL     OW14986   1.339   6.519   0.533  0.3965  0.0557 -0.4774
 4696SOL    HW114987   1.340   6.577   0.615 -2.5376 -2.4571  1.5409
 4696SOL    HW214988   1.361   6.425   0.559 -4.3869 -1.6380 -1.6488
 4697SOL     OW14989   4.895   0.724   1.852 -0.0828  0.6168 -0.5227
 4697SOL    HW114990   4.883   0.823   1.847 -1.8201  0.5174  0.6321
 4697SOL    HW214991   4.819   0.678   1.806 -0.0295 -0.1588  0.1235
 4698SOL     OW14992   6.525   1.023   5.805 -0.4596  0.2977 -0.1883
 4698SOL    HW114993   6.443   0.966   5.806 -0.9084  0.8097 -2.6599
 4698SOL    HW214994   6.564   1.025   5.713  1.9609  0.6341  0.7711
 4699SOL     OW14995   1.796   1.043   4.311 -0.4766  0.3769 -0.3179
 4699SOL    HW114996   1.800   1.070   4.407  0.1064 -1.5878  0.2564
 4699SOL    HW214997   1.710   0.995   4.293  0.2234 -0.9336 -0.2774
 4700SOL     OW14998   6.487   2.329   2.421  0.7802  0.0428  0.7136
 4700SOL    HW114999   6.580   2.292   2.425  0.6767 -0.1430  1.6106
 4700SOL    HW215000   6.427   2.265   2.374  1.2801  0.5527 -0.6498
 4701SOL     OW15001   0.716   3.349   1.658 -0.6012 -0.1050  0.7560
 4701SOL    HW115002   0.813   3.329   1.642  0.0926  2.8927  0.5744
 4701SOL    HW215003   0.667   3.349   1.571  0.1158  2.1183  0.2932
 4702SOL     OW15004   6.602   5.244   1.063  0.4181  0.1217 -0.1543
 4702SOL    HW115005   6.672   5.315   1.056 -0.4928  1.0491 -0.2345
 4702SOL    HW215006   6.593   5.197   0.975  0.6565  0.2741 -0.2609
 4703SOL     OW15007   6.620   6.403   2.678 -0.0483 -0.1507 -0.1371
 4703SOL    HW115008   6.553   6.387   2.606  0.0193  0.0531 -0.2445
 4703SOL    HW215009   6.586   6.476   2.738  0.0731 -0.0556 -0.1849
 4704SOL     OW15010   1.547   3.818   2.719  0.0306  0.0177  0.2252
 4704SOL    HW115011   1.491   3.888   2.763 -2.0647 -0.9734 -0.7037
 4704SOL    HW215012   1.583   3.854   2.633 -0.8642  0.0612 -0.1451
 4705SOL     OW15013   2.710   2.922   1.179 -0.0753 -0.4044  0.0255
 4705SOL    HW115014   2.754   2.933   1.268 -0.3493  0.0759  0.1103
 4705SOL    HW215015   2.613   2.947   1.187 -0.3436 -1.3390 -0.1825
 4706SOL     OW15016   2.542   0.416   1.298  0.0924  0.3522  0.0536
 4706SOL    HW115017   2.562   0.480   1.224  2.1146 -0.4417 -0.1507
 4706SOL    HW215018   2.452   0.376   1.283  0.3391  0.4131 -1.8525
 4707SOL     OW15019   3.459   4.018   1.362 -0.2488 -0.3490  0.9714
 4707SOL    HW115020   3.490   4.100   1.313  0.6057 -1.4713 -0.4305
 4707SOL    HW215021   3.359   4.018   1.366 -0.3156  0.0604 -0.2729
 4708SOL     OW15022   4.570   4.416   6.947 -0.3765 -0.0063 -0.1259
 4708SOL    HW115023   4.599   4.413   7.042  1.7622  0.0522 -0.7290
 4708SOL    HW215024   4.624   4.352   6.893 -1.0636  0.4686 -1.4335
 4709SOL     OW15025   6.537   1.967   5.862 -0.0967 -0.3675  0.4528
 4709SOL    HW115026   6.527   2.012   5.773 -0.1388 -1.6229 -0.2015
 4709SOL    HW215027   6.523   1.868   5.851  0.4176 -0.6037  1.7616
 4710SOL     OW15028   4.973   5.838   4.936 -0.0083  0.3453 -0.5226
 4710SOL    HW115029   5.045   5.770   4.950  1.2413  1.9880  1.3808
 4710SOL    HW215030   4.933   5.825   4.845  1.3356 -1.8190 -0.8794
 4711SOL     OW15031   4.999   4.396   2.899 -0.5070  0.0274  0.7967
 4711SOL    HW115032   4.983   4.459   2.975  1.8301  1.0502  0.5526
 4711SOL    HW215033   5.084   4.345   2.915 -1.3856 -1.7486  0.1065
 4712SOL     OW15034   4.789   5.912   6.501  0.3530  0.1425 -0.8514
 4712SOL    HW115035   4.707   5.862   6.474  0.8390 -0.5156 -1.1499
 4712SOL    HW215036   4.781   6.008   6.473 -0.6142  0.2479 -0.2273
 4713SOL     OW15037   5.429   5.903   1.885 -0.4326 -0.1132  0.0467
 4713SOL    HW115038   5.454   5.807   1.876 -0.5897 -0.0471 -1.4220
 4713SOL    HW215039   5.351   5.923   1.825 -1.3176  0.6212  1.4087
 4714SOL     OW15040   6.324   2.345   1.035 -0.4395  0.2334 -0.1329
 4714SOL    HW115041   6.318   2.444   1.021 -2.8896  0.3192  0.9610
 4714SOL    HW215042   6.380   2.325   1.115 -1.6816  0.9234  0.9478
 4715SOL     OW15043   6.497   3.236   2.112  0.6148 -1.0588 -0.2640
 4715SOL    HW115044   6.410   3.186   2.109  1.1130 -1.9281 -0.6636
 4715SOL    HW215045   6.502   3.288   2.197  0.7081 -2.8884  0.8983
 4716SOL     OW15046   4.399   4.533   5.766 -0.0561 -0.1310  0.3650
 4716SOL    HW115047   4.411   4.440   5.730 -1.2484  0.4142 -1.5687
 4716SOL    HW215048   4.475   4.590   5.736  1.2437 -0.6590  2.4311
 4717SOL     OW15049   0.759   4.544   4.774  0.3456 -0.2322 -0.0567
 4717SOL    HW115050   0.769   4.476   4.846  0.3674  0.2390  0.3873
 4717SOL    HW215051   0.704   4.506   4.700  1.3223 -1.1504 -0.3434
 4718SOL     OW15052   5.356   4.208   1.349 -0.1522 -0.4686  1.0060
 4718SOL    HW115053   5.380   4.182   1.443 -0.1499  0.2042  1.1944
 4718SOL    HW215054   5.263   4.176   1.329 -1.9400  3.0489  2.7670
 4719SOL     OW15055   5.202   5.477   3.435 -0.7630  0.2636 -0.2568
 4719SOL    HW115056   5.300   5.478   3.417 -0.7750 -1.2719 -0.5906
 4719SOL    HW215057   5.157   5.547   3.379 -0.1051 -0.5029 -1.8216
 4720SOL     OW15058   1.759   0.045   4.842 -0.1711  0.0572 -0.0315
 4720SOL    HW115059   1.744   0.089   4.753  0.1176 -0.6393 -0.4300
 4720SOL    HW215060   1.692  -0.028   4.855 -0.5065  0.4512  0.5355
 4721SOL     OW15061   0.276   4.109   2.511 -0.6467 -0.7184  0.2267
 4721SOL    HW115062   0.290   4.088   2.414 -0.6852 -1.5399  0.3987
 4721SOL    HW215063   0.257   4.025   2.562  0.0014 -0.3785  1.0589
 4722SOL     OW15064   1.978   6.206   6.303 -0.0217  0.0113 -1.2612
 4722SOL    HW115065   2.023   6.229   6.389 -0.8549 -0.6028 -0.6458
 4722SOL    HW215066   1.881   6.192   6.319  0.0475 -1.5579 -2.0132
 4723SOL     OW15067   4.307   4.808   4.901  0.5089  0.4501  0.0696
 4723SOL    HW115068   4.354   4.725   4.929 -0.1211  0.4839  1.2876
 4723SOL    HW215069   4.370   4.885   4.903  0.2867  0.6371  2.4188
 4724SOL     OW15070   5.813   6.873   5.042 -0.2807  0.4641  0.1803
 4724SOL    HW115071   5.835   6.869   4.945  0.1242  0.9768  0.2471
 4724SOL    HW215072   5.745   6.804   5.064  1.6592 -1.5789  0.0840
 4725SOL     OW15073   5.450   6.510   0.404  0.9432  0.2600  0.2464
 4725SOL    HW115074   5.423   6.492   0.499  0.4911 -1.3202 -0.1480
 4725SOL    HW215075   5.495   6.599   0.398  0.9726  0.3895  1.9413
 4726SOL     OW15076   0.580   2.940   1.553  0.1515 -0.2000  0.2103
 4726SOL    HW115077   0.573   2.905   1.460 -2.1121 -3.0521  1.2827
 4726SOL    HW215078   0.500   2.998   1.572 -1.1023 -2.1203  1.1803
 4727SOL     OW15079   6.983   5.435   0.386 -0.6235 -0.1000 -0.4926
 4727SOL    HW115080   7.064   5.493   0.376 -1.0970  0.8125  0.6220
 4727SOL    HW215081   7.004   5.342   0.357  0.5800  0.3108 -1.0003
 4728SOL     OW15082   4.028   0.559   2.481  0.0044  0.0090  0.2981
 4728SOL    HW115083   4.007   0.656   2.469  0.9684  0.2854  0.7175
 4728SOL    HW215084   4.081   0.527   2.403 -1.0404 -0.4225 -0.2617
 4729SOL     OW15085   3.195   0.872   4.637  0.2788  0.4187  0.1201
 4729SOL    HW115086   3.188   0.947   4.703  3.0925  0.0517  1.0042
 4729SOL    HW215087   3.287   0.873   4.596 -1.0420  0.0213 -3.1213
 4730SOL     OW15088   2.568   2.318   3.083  0.6002  0.9420 -0.0109
 4730SOL    HW115089   2.570   2.219   3.069 -0.0530  0.8730  0.3264
 4730SOL    HW215090   2.482   2.344   3.127  0.2926  1.7950 -1.0721
 4731SOL     OW15091   4.635   0.766   3.837  0.1019 -0.2283 -0.3364
 4731SOL    HW115092   4.715   0.825   3.821 -1.1441  1.8867  0.8018
 4731SOL    HW215093   4.572   0.773   3.760 -0.3645  0.5110  0.1009
 4732SOL     OW15094   1.651   3.987   3.702 -0.1531 -0.0901  0.0001
 4732SOL    HW115095   1.635   4.044   3.782  1.6679 -1.2658  1.2745
 4732SOL    HW215096   1.725   4.026   3.647 -2.5023  1.6505 -2.1557
 4733SOL     OW15097   0.971   3.610   2.641  0.1208  0.1174  0.3761
 4733SOL    HW115098   1.003   3.518   2.666 -1.2811 -0.7226 -0.7447
 4733SOL    HW215099   1.045   3.659   2.596 -0.0674 -1.7762 -2.2086
 4734SOL     OW15100   2.791   6.143   5.579 -0.2384 -0.0529  0.2835
 4734SOL    HW115101   2.882   6.182   5.562  0.1407 -1.4148 -1.0507
 4734SOL    HW215102   2.726   6.181   5.514 -0.2069 -0.4395  0.0197
 4735SOL     OW15103   1.420   1.510   4.412  0.0689 -0.6403  0.2335
 4735SOL    HW115104   1.506   1.459   4.407 -0.1024 -0.8080 -1.7073
 4735SOL    HW215105   1.346   1.448   4.438  0.5023 -0.4994  1.8920
 4736SOL     OW15106   0.108   5.903   3.341 -0.0049 -0.2547 -0.5143
 4736SOL    HW115107   0.127   5.925   3.245 -1.1021  1.3149 -0.4178
 4736SOL    HW215108   0.079   5.986   3.389 -1.9481 -1.4521  0.5522
 4737SOL     OW15109   2.770   4.206   0.865  0.0200  0.1396 -0.3267
 4737SOL    HW115110   2.800   4.112   0.883  2.3046  1.0460  0.9653
 4737SOL    HW215111   2.674   4.204   0.836  0.2021 -2.6291 -1.0843
 4738SOL     OW15112   0.814   6.756   4.048 -0.3417  0.4925  0.8516
 4738SOL    HW115113   0.833   6.697   3.970 -2.1192  0.8027  0.1410
 4738SOL    HW215114   0.785   6.699   4.126  1.7146  0.1597  1.4361
 4739SOL     OW15115   5.756   6.081   3.290 -0.8486  0.2224 -0.4639
 4739SOL    HW115116   5.695   6.159   3.304 -1.0235 -0.0920  0.5850
 4739SOL    HW215117   5.850   6.108   3.310 -0.3869  1.0949 -3.4033
 4740SOL     OW15118   0.571   5.743   1.922  0.4134  0.7725 -0.2733
 4740SOL    HW115119   0.579   5.821   1.860 -0.0628  1.0502  0.0158
 4740SOL    HW215120   0.567   5.658   1.868  2.2124  0.8243 -0.5656
 4741SOL     OW15121   4.585   4.800   3.190 -0.3632 -0.1220  0.3403
 4741SOL    HW115122   4.594   4.849   3.104  0.2646 -0.6687  0.0923
 4741SOL    HW215123   4.554   4.706   3.173 -1.2334  0.0663  0.7870
 4742SOL     OW15124   2.821   5.485   0.730  0.3717 -0.6847 -0.2527
 4742SOL    HW115125   2.845   5.471   0.634 -1.3725  1.5029 -1.1024
 4742SOL    HW215126   2.832   5.582   0.752 -1.3226 -0.7800  1.1278
 4743SOL     OW15127   2.352   3.767   0.572 -0.1794 -0.4478  0.2270
 4743SOL    HW115128   2.324   3.861   0.595 -0.3514  0.2260 -2.4123
 4743SOL    HW215129   2.451   3.759   0.579  0.4180  1.3166 -3.4588
 4744SOL     OW15130   4.026   6.887   5.370 -0.3825 -0.3194 -1.0364
 4744SOL    HW115131   3.995   6.954   5.302 -1.0088 -0.1489 -0.5922
 4744SOL    HW215132   3.961   6.885   5.447  0.7337  0.0697 -0.0592
 4745SOL     OW15133   2.677   6.761   4.231  0.2410  0.1726  0.0842
 4745SOL    HW115134   2.641   6.823   4.301  0.0964  0.1397  0.0404
 4745SOL    HW215135   2.777   6.765   4.230  0.2082  1.2940 -0.7104
 4746SOL     OW15136   6.532   1.675   2.171  0.2509  0.0279 -0.0532
 4746SOL    HW115137   6.537   1.751   2.236 -0.7643  0.1575 -0.1178
 4746SOL    HW215138   6.602   1.608   2.193  1.0095  0.8673  0.1506
 4747SOL     OW15139   1.709   1.932   3.317 -0.0040  0.0958 -0.3080
 4747SOL    HW115140   1.679   1.838   3.300  0.4039 -0.0054 -0.4700
 4747SOL    HW215141   1.777   1.934   3.390  0.5215  0.1769 -0.7924
 4748SOL     OW15142   1.251   5.762   0.844 -0.2369 -0.1605  0.2620
 4748SOL    HW115143   1.335   5.720   0.879  0.8967  0.1103 -1.9826
 4748SOL    HW215144   1.265   5.791   0.749 -2.3552  1.4015  0.3560
 4749SOL     OW15145   3.701   6.443   0.208 -0.3620 -0.0961 -0.0044
 4749SOL    HW115146   3.607   6.468   0.190 -0.3676 -0.2099 -0.1326
 4749SOL    HW215147   3.762   6.518   0.182 -0.3635 -0.2859 -0.5599
 4750SOL     OW15148   1.714   0.784   4.870  0.0059 -0.0093  0.5892
 4750SOL    HW115149   1.667   0.802   4.783 -0.1838 -0.9634  0.4786
 4750SOL    HW215150   1.788   0.719   4.856 -1.3755 -1.8740  1.4593
 4751SOL     OW15151   3.303   5.379   4.371  0.6410 -0.3003  0.1285
 4751SOL    HW115152   3.326   5.473   4.397 -0.0280  0.2975 -1.3424
 4751SOL    HW215153   3.359   5.316   4.424  2.1800  0.9658  0.0967
 4752SOL     OW15154   0.813   4.792   2.003  0.5376 -0.1274 -0.3943
 4752SOL    HW115155   0.774   4.700   2.012  2.7019 -1.0860 -0.2478
 4752SOL    HW215156   0.787   4.830   1.914  1.9819 -2.1245 -1.7590
 4753SOL     OW15157   1.788   0.658   1.576  0.6297 -0.5154  0.0054
 4753SOL    HW115158   1.730   0.728   1.535  2.2255  0.7771 -0.1209
 4753SOL    HW215159   1.740   0.570   1.576 -0.9219  0.3058 -0.9708
 4754SOL     OW15160   0.231   1.568   5.282  0.6531 -0.0583  0.0502
 4754SOL    HW115161   0.246   1.571   5.183  1.1118 -0.8085  0.0822
 4754SOL    HW215162   0.285   1.640   5.326  2.6739 -1.4408 -0.0249
 4755SOL     OW15163   4.413   0.528   1.762  0.1379  0.0518 -0.1565
 4755SOL    HW115164   4.475   0.542   1.686  0.4386 -2.3057 -0.4137
 4755SOL    HW215165   4.372   0.437   1.756 -0.0264 -0.1156  2.3411
 4756SOL     OW15166   4.862   2.453   0.032 -0.6306  0.4126  0.3525
 4756SOL    HW115167   4.904   2.364   0.016 -1.9621 -0.0392 -0.8415
 4756SOL    HW215168   4.923   2.509   0.087  0.5122 -1.0045  0.5951
 4757SOL     OW15169   1.320   3.791   1.925 -0.0771  0.0324  0.5806
 4757SOL    HW115170   1.268   3.707   1.941  0.2706 -0.4496 -0.7177
 4757SOL    HW215171   1.328   3.807   1.827  1.7675  0.3721  0.7510
 4758SOL     OW15172   6.928   2.600   6.079 -0.1831  0.3931 -0.7390
 4758SOL    HW115173   6.957   2.508   6.108  1.7252  1.5243  1.2410
 4758SOL    HW215174   6.829   2.607   6.088 -0.5793 -1.8746 -2.3377
 4759SOL     OW15175   6.998   4.260   6.890 -0.2172  0.2200 -1.1664
 4759SOL    HW115176   7.063   4.328   6.855  2.2520 -0.7875  1.1451
 4759SOL    HW215177   7.026   4.169   6.861 -0.6206 -0.2369 -0.1619
 4760SOL     OW15178   6.984   3.976   6.854  0.2237 -0.3368  0.4274
 4760SOL    HW115179   6.984   3.923   6.769  0.4823 -1.7036  1.2468
 4760SOL    HW215180   6.889   3.995   6.882  0.0840 -1.3758  0.7072
 4761SOL     OW15181   1.392   0.527   5.042 -0.1262 -0.4141  0.3835
 4761SOL    HW115182   1.488   0.553   5.048  0.0387 -0.9864  0.3553
 4761SOL    HW215183   1.338   0.604   5.008  0.3879 -0.2187 -0.0066
 4762SOL     OW15184   1.676   0.094   2.311 -0.1358  0.3757 -0.4012
 4762SOL    HW115185   1.737   0.043   2.371 -0.9776  0.3330  0.4378
 4762SOL    HW215186   1.730   0.157   2.255  0.7536 -0.2969 -0.3244
 4763SOL     OW15187   3.520   5.273   4.516  0.2920  0.3548  0.3959
 4763SOL    HW115188   3.567   5.198   4.562  1.0537 -0.4112 -1.5407
 4763SOL    HW215189   3.563   5.360   4.542  0.4716 -0.0212  1.3816
 4764SOL     OW15190   3.570   2.835   4.398  0.5417 -0.0258  0.2769
 4764SOL    HW115191   3.647   2.849   4.461  1.8151 -0.3407 -1.1663
 4764SOL    HW215192   3.604   2.821   4.306 -1.0789 -2.8527 -0.0155
 4765SOL     OW15193   6.863   4.658   5.756 -0.0402  0.0660 -0.5541
 4765SOL    HW115194   6.859   4.666   5.856  1.4082 -1.9425 -0.2548
 4765SOL    HW215195   6.886   4.746   5.716 -0.1292  0.7965  0.9395
 4766SOL     OW15196   3.348   1.805   3.718 -0.0820 -0.0260 -0.0221
 4766SOL    HW115197   3.266   1.848   3.680 -1.6502  0.9311  3.9629
 4766SOL    HW215198   3.422   1.872   3.724 -0.4383  0.3386  0.3441
 4767SOL     OW15199   3.715   1.094   6.282  0.3887 -0.4633  0.0910
 4767SOL    HW115200   3.678   1.087   6.189 -1.1845 -0.1181  0.6577
 4767SOL    HW215201   3.811   1.120   6.278  0.0542  0.6609 -1.4149
 4768SOL     OW15202   3.162   0.436   5.266 -0.0795 -0.6003  0.5379
 4768SOL    HW115203   3.230   0.482   5.209  1.6103 -2.6257  0.7868
 4768SOL    HW215204   3.074   0.433   5.218  0.2657  1.1192 -0.2671
 4769SOL     OW15205   5.954   0.397   4.143 -0.5148  0.0376 -0.0800
 4769SOL    HW115206   5.965   0.300   4.164 -0.1062 -0.8072 -3.6042
 4769SOL    HW215207   5.891   0.438   4.210 -1.2275 -2.7713  1.1297
 4770SOL     OW15208   3.598   2.056   2.289  0.1207  0.3278 -0.2650
 4770SOL    HW115209   3.690   2.092   2.273  0.4151 -0.7783 -1.1493
 4770SOL    HW215210   3.531   2.113   2.242  0.4731  0.4443 -0.6330
 4771SOL     OW15211   5.096   4.034   0.028  0.1504 -0.2961  0.2127
 4771SOL    HW115212   5.187   4.059   0.061  0.6024 -1.8988  0.2506
 4771SOL    HW215213   5.102   3.957  -0.035 -1.3914 -2.8058  2.8707
 4772SOL     OW15214   2.397   2.718   0.475  0.1555  0.5109 -0.1931
 4772SOL    HW115215   2.368   2.635   0.522  0.9181  0.2034 -0.2608
 4772SOL    HW215216   2.403   2.793   0.541  1.7486 -0.0420  0.3255
 4773SOL     OW15217   6.606   5.033   4.179  0.2674  0.2692 -0.1569
 4773SOL    HW115218   6.697   4.990   4.183  0.4446  0.7120  0.8982
 4773SOL    HW215219   6.539   4.966   4.150  1.4213  0.7485 -4.7212
 4774SOL     OW15220   2.448   3.749   1.192 -0.5016 -0.4283 -0.1663
 4774SOL    HW115221   2.372   3.714   1.136 -0.7302  0.1694 -0.2408
 4774SOL    HW215222   2.474   3.680   1.259 -1.8988 -0.2157  0.6426
 4775SOL     OW15223   1.289   3.212   1.943  0.0009 -0.6888  0.2960
 4775SOL    HW115224   1.326   3.242   2.031 -1.1797 -2.0103  1.2922
 4775SOL    HW215225   1.231   3.284   1.905  2.9184  1.1758 -1.0085
 4776SOL     OW15226   4.822   6.791   2.177  0.1503 -0.3550 -0.1391
 4776SOL    HW115227   4.858   6.711   2.226  0.1954 -1.2846 -1.6199
 4776SOL    HW215228   4.891   6.862   2.175  0.7684 -0.9514 -0.3158
 4777SOL     OW15229   1.277   2.872   0.681 -0.6414  0.1602 -0.0890
 4777SOL    HW115230   1.321   2.865   0.771 -1.7306  0.0173  0.4443
 4777SOL    HW215231   1.324   2.942   0.627  1.1352 -0.9796 -0.0807
 4778SOL     OW15232   5.545   4.758   2.297  0.0283  0.2986 -0.1132
 4778SOL    HW115233   5.614   4.744   2.226 -1.5088  0.9683 -1.8166
 4778SOL    HW215234   5.454   4.742   2.259 -0.7846 -0.9935  2.1887
 4779SOL     OW15235   6.879   2.742   2.574 -0.3053  0.9535 -0.4777
 4779SOL    HW115236   6.807   2.723   2.640  0.1867  2.8156  0.6576
 4779SOL    HW215237   6.958   2.682   2.592 -0.4295  0.9897  0.1998
 4780SOL     OW15238   2.623   6.532   5.440  0.4629  0.2700  0.4765
 4780SOL    HW115239   2.607   6.433   5.438 -0.0467  0.2502  2.8452
 4780SOL    HW215240   2.555   6.578   5.383 -0.3754 -0.6316  0.7139
 4781SOL     OW15241   0.623   5.077   2.570  0.8078  0.6895  0.2730
 4781SOL    HW115242   0.589   5.000   2.516  1.7608  0.4152  0.0482
 4781SOL    HW215243   0.625   5.051   2.667 -1.2327  1.2987  0.5365
 4782SOL     OW15244   6.789   0.712   6.034 -0.0111  0.2861 -0.1907
 4782SOL    HW115245   6.699   0.750   6.011 -0.7191  0.1139  1.9844
 4782SOL    HW215246   6.780   0.655   6.116  1.7061 -1.5698 -1.1951
 4783SOL     OW15247   5.840   6.781   2.419 -0.0933 -0.2915 -0.3427
 4783SOL    HW115248   5.771   6.763   2.489 -0.2474 -1.8999 -0.8694
 4783SOL    HW215249   5.926   6.738   2.445 -0.0966 -0.7299 -1.0248
 4784SOL     OW15250   6.019   3.984   5.347 -0.8212 -0.2198 -0.6129
 4784SOL    HW115251   5.986   4.067   5.393 -0.0494  0.0921 -0.5879
 4784SOL    HW215252   6.059   4.009   5.259  0.8047 -0.3240  0.0453
 4785SOL     OW15253   3.817   6.869   0.936  0.8697 -0.3396 -0.3066
 4785SOL    HW115254   3.779   6.879   1.028 -0.3062 -0.1246 -0.7975
 4785SOL    HW215255   3.898   6.928   0.927  0.5367  0.2338  0.3487
 4786SOL     OW15256   0.790   5.306   2.249  0.1346 -0.1474  0.2541
 4786SOL    HW115257   0.788   5.253   2.164 -0.9204  1.0569 -0.4957
 4786SOL    HW215258   0.804   5.402   2.228 -0.4932  0.2143  1.4270
 4787SOL     OW15259   4.426   0.496   2.695 -0.6240  0.2781 -0.0968
 4787SOL    HW115260   4.365   0.422   2.723  0.1749  0.3982  2.1437
 4787SOL    HW215261   4.395   0.582   2.735  1.2707  0.2461  1.6151
 4788SOL     OW15262   2.974   1.579   4.870 -0.4918  0.8151  0.8123
 4788SOL    HW115263   3.044   1.536   4.814 -1.5904  0.6993 -0.5290
 4788SOL    HW215264   2.980   1.545   4.964  0.1955 -0.4373  0.3335
 4789SOL     OW15265   4.151   5.563   5.306  0.5844  0.5407  0.1473
 4789SOL    HW115266   4.176   5.467   5.291  1.4932  0.6335  0.9836
 4789SOL    HW215267   4.072   5.567   5.367  3.2406  0.3413  3.8820
 4790SOL     OW15268   6.685   0.064   6.225 -0.2612  0.1880 -0.7827
 4790SOL    HW115269   6.681   0.007   6.307  0.2429 -1.1285 -1.6269
 4790SOL    HW215270   6.601   0.117   6.216 -0.0668  0.8366  0.8992
 4791SOL     OW15271   4.089   1.550   3.329 -0.2249 -0.3887  0.1418
 4791SOL    HW115272   4.012   1.545   3.392 -0.5637 -0.6699 -0.2831
 4791SOL    HW215273   4.116   1.645   3.316  0.6433 -0.3990  1.6403
 4792SOL     OW15274   2.346   2.482   0.075  0.0380 -0.0472 -0.4072
 4792SOL    HW115275   2.253   2.481   0.111 -0.1292  0.1140 -0.8331
 4792SOL    HW215276   2.395   2.561   0.112  0.2446 -0.5384  0.4023
 4793SOL     OW15277   0.899   1.278   1.706  0.4944 -0.1576 -0.5105
 4793SOL    HW115278   0.928   1.295   1.800  2.3610 -1.2846 -0.8407
 4793SOL    HW215279   0.869   1.364   1.664  1.6532  0.7485  0.4627
 4794SOL     OW15280   4.932   1.505   2.456 -0.3777 -0.6143  0.3797
 4794SOL    HW115281   4.899   1.424   2.408  1.0902 -0.5084 -0.8785
 4794SOL    HW215282   4.879   1.584   2.427  0.0949 -0.6572 -0.6459
 4795SOL     OW15283   0.760   1.662   2.621 -0.1676 -0.0411  0.3637
 4795SOL    HW115284   0.686   1.701   2.566  0.2160  1.2661  0.7182
 4795SOL    HW215285   0.743   1.682   2.718  0.7086  0.4026  0.4355
 4796SOL     OW15286   4.112   3.614   0.563 -0.0084 -0.2005  0.3872
 4796SOL    HW115287   4.029   3.606   0.507 -0.5068  0.9673  0.9189
 4796SOL    HW215288   4.191   3.584   0.511 -0.7665 -1.4072 -0.1146
 4797SOL     OW15289   6.753   5.371   4.165 -0.4696 -0.1758  0.6261
 4797SOL    HW115290   6.729   5.468   4.165  0.3620  0.0647  2.5367
 4797SOL    HW215291   6.836   5.356   4.219 -0.0756 -1.8561 -0.3467
 4798SOL     OW15292   0.093   5.634   6.423  0.6229 -0.3480 -0.0229
 4798SOL    HW115293   0.122   5.538   6.422 -1.1048 -0.9008 -0.8345
 4798SOL    HW215294   0.032   5.650   6.500 -0.9320 -0.5169 -1.1857
 4799SOL     OW15295   4.669   1.675   5.558 -0.3216 -0.2680  0.5922
 4799SOL    HW115296   4.580   1.714   5.580 -0.6520  0.2383 -1.3753
 4799SOL    HW215297   4.733   1.693   5.632 -1.4360  0.7916  1.3346
 4800SOL     OW15298   2.115   3.841   5.677  0.5506 -0.0061  0.4229
 4800SOL    HW115299   2.181   3.882   5.614  1.4371 -2.3461 -0.2650
 4800SOL    HW215300   2.025   3.838   5.632  0.2900  1.7243  0.7530
 4801SOL     OW15301   0.825   2.687   1.953 -0.1506 -0.1509 -0.1795
 4801SOL    HW115302   0.869   2.602   1.924  1.5124  0.5994 -0.0006
 4801SOL    HW215303   0.822   2.689   2.053 -1.5543 -0.6312 -0.1894
 4802SOL     OW15304   0.658   6.870   2.199 -0.1600  0.6135  0.0188
 4802SOL    HW115305   0.734   6.827   2.247 -0.3553 -1.2903 -1.2573
 4802SOL    HW215306   0.585   6.892   2.265 -0.4437 -1.9586  0.6662
 4803SOL     OW15307   5.118   6.889   1.258  0.1928  0.0607  0.2995
 4803SOL    HW115308   5.094   6.807   1.206 -0.6584  0.3427  0.2354
 4803SOL    HW215309   5.047   6.958   1.246  1.5054  1.3059 -0.6738
 4804SOL     OW15310   5.277   5.936   6.578 -0.1234  0.0667 -0.2837
 4804SOL    HW115311   5.365   5.910   6.617  0.3156  2.8632  0.8761
 4804SOL    HW215312   5.291   5.982   6.490 -0.6022 -1.0403 -0.9531
 4805SOL     OW15313   6.015   6.537   2.507  0.2462  0.1798 -0.4532
 4805SOL    HW115314   6.050   6.611   2.450  0.9868  0.7483  0.7069
 4805SOL    HW215315   6.077   6.522   2.585 -1.4845  0.4207  1.0273
 4806SOL     OW15316   5.459   3.758   3.616 -0.4027  0.1442  0.1642
 4806SOL    HW115317   5.523   3.781   3.543 -2.7005  0.5384 -1.8311
 4806SOL    HW215318   5.409   3.675   3.592 -0.5581 -0.2649  1.7689
 4807SOL     OW15319   1.534   6.719   2.347  0.2534  0.3269 -0.5252
 4807SOL    HW115320   1.546   6.643   2.283 -1.8494 -0.6986  0.2032
 4807SOL    HW215321   1.459   6.776   2.316  1.0873  1.4992 -0.4492
 4808SOL     OW15322   0.307   3.279   0.016  0.3000 -0.2208  0.2243
 4808SOL    HW115323   0.310   3.351   0.086 -0.0959 -0.7070  0.7450
 4808SOL    HW215324   0.299   3.322  -0.075 -1.7750  0.3791  0.6282
 4809SOL     OW15325   5.375   6.091   6.381 -0.8370  0.1255  0.0678
 4809SOL    HW115326   5.339   6.183   6.368 -0.9484  0.0319 -0.2839
 4809SOL    HW215327   5.464   6.097   6.427 -0.5856  0.4404 -0.4532
 4810SOL     OW15328   2.494   6.829   6.851 -0.2848 -0.3187  0.2048
 4810SOL    HW115329   2.483   6.849   6.948  0.0140  1.1907 -0.0387
 4810SOL    HW215330   2.491   6.914   6.799 -0.3084 -1.0872 -1.1049
 4811SOL     OW15331   5.974   4.471   3.726 -0.1600  0.2486  0.6662
 4811SOL    HW115332   6.036   4.394   3.713 -0.6280 -0.0392  0.1078
 4811SOL    HW215333   5.880   4.441   3.710 -0.2033  1.3598 -1.5100
 4812SOL     OW15334   6.064   5.377   3.682 -0.0510  0.6746 -0.3306
 4812SOL    HW115335   6.158   5.350   3.701 -0.2679  0.4944  0.5220
 4812SOL    HW215336   6.060   5.476   3.664  0.1189  0.9448  1.0012
 4813SOL     OW15337   5.539   5.931   1.509  0.7346  0.1125 -0.2912
 4813SOL    HW115338   5.553   5.937   1.411  0.2992 -1.6358 -0.4867
 4813SOL    HW215339   5.510   5.839   1.534 -1.0889  1.0059  1.2287
 4814SOL     OW15340   6.738   2.182   2.448  0.3894 -0.0687 -0.0858
 4814SOL    HW115341   6.754   2.143   2.538  1.4913  3.6073  1.5181
 4814SOL    HW215342   6.815   2.160   2.388  0.6709 -0.8221  0.5368
 4815SOL     OW15343   6.597   1.960   2.165 -0.0348 -0.3032 -0.4724
 4815SOL    HW115344   6.565   1.933   2.074 -0.0152 -0.5655 -0.4026
 4815SOL    HW215345   6.554   2.046   2.191  0.3751  0.0551 -0.9601
 4816SOL     OW15346   0.646   4.836   3.956  0.5808  0.3410 -0.8461
 4816SOL    HW115347   0.625   4.878   4.045 -0.6280 -0.4152 -0.7558
 4816SOL    HW215348   0.613   4.895   3.883  1.2600  0.7958 -0.7938
 4817SOL     OW15349   6.251   1.727   5.616 -0.4154 -0.2776  0.0115
 4817SOL    HW115350   6.301   1.641   5.628 -0.1582 -0.0594  0.5186
 4817SOL    HW215351   6.313   1.796   5.579  0.7935  1.0922  4.0704
 4818SOL     OW15352   0.570   6.388   4.112 -0.0559  0.8272 -0.5964
 4818SOL    HW115353   0.648   6.342   4.070 -1.3576 -1.3742 -0.7468
 4818SOL    HW215354   0.501   6.408   4.043  0.0446  2.1062 -0.3511
 4819SOL     OW15355   6.662   6.946   1.314 -0.5755  0.1281 -0.1194
 4819SOL    HW115356   6.612   7.027   1.344  0.1289  1.2819 -1.8601
 4819SOL    HW215357   6.758   6.970   1.296 -0.3202 -1.1094 -0.5461
 4820SOL     OW15358   6.171   4.328   0.639 -0.4496 -0.1522  0.1355
 4820SOL    HW115359   6.144   4.384   0.717  3.3183  1.3423  0.5863
 4820SOL    HW215360   6.254   4.277   0.661 -0.2625 -1.0734 -2.3272
 4821SOL     OW15361   0.509   6.554   3.639  0.0025 -0.1127  0.1569
 4821SOL    HW115362   0.579   6.494   3.600  1.2109  1.5134 -0.2952
 4821SOL    HW215363   0.471   6.513   3.722 -0.5477 -2.3117 -1.1224
 4822SOL     OW15364   3.626   6.666   3.455 -0.7819  0.2943  0.3061
 4822SOL    HW115365   3.542   6.680   3.508 -0.0202  2.2480  1.1060
 4822SOL    HW215366   3.663   6.755   3.427  2.4288 -0.2625  2.2696
 4823SOL     OW15367   1.149   2.373   0.227  0.4813 -0.0394  0.2241
 4823SOL    HW115368   1.049   2.381   0.222  0.4516 -0.4267  0.1538
 4823SOL    HW215369   1.184   2.435   0.298  0.0850 -0.6737  0.9953
 4824SOL     OW15370   0.361   3.910   0.782 -0.4103 -0.3458  0.2207
 4824SOL    HW115371   0.360   3.923   0.881 -1.6211  2.3372 -0.0589
 4824SOL    HW215372   0.357   3.813   0.761  1.0274 -1.0492  2.7839
 4825SOL     OW15373   1.898   5.469   3.840  0.2161  0.0134 -0.3406
 4825SOL    HW115374   1.855   5.473   3.930  1.7339 -0.9400  0.4670
 4825SOL    HW215375   1.891   5.558   3.796  0.1050  0.7110  1.0357
 4826SOL     OW15376   4.267   4.399   6.459 -0.5567 -0.2502 -0.0381
 4826SOL    HW115377   4.231   4.346   6.382 -0.2865  0.7116 -0.8447
 4826SOL    HW215378   4.362   4.373   6.476 -0.6307 -0.4979 -0.0021
 4827SOL     OW15379   4.612   1.930   2.349  0.2745 -0.2192 -0.2451
 4827SOL    HW115380   4.585   1.978   2.433 -1.2086  0.8400 -1.2690
 4827SOL    HW215381   4.669   1.991   2.293  2.9723 -1.6105  0.8165
 4828SOL     OW15382   3.649   1.133   6.908 -0.2324  0.3769  0.5963
 4828SOL    HW115383   3.598   1.101   6.828  0.9673  0.6056 -0.2800
 4828SOL    HW215384   3.715   1.203   6.880  0.1115  0.5648  1.8154
 4829SOL     OW15385   3.327   0.249   3.570  0.0754 -0.1271 -0.1635
 4829SOL    HW115386   3.273   0.220   3.649  0.0323  1.2904  0.3700
 4829SOL    HW215387   3.273   0.313   3.515 -0.3437 -2.0196 -2.0459
 4830SOL     OW15388   1.790   5.548   3.507 -0.1148  0.0755 -0.3577
 4830SOL    HW115389   1.767   5.644   3.491  1.5598  0.9481  1.8845
 4830SOL    HW215390   1.858   5.519   3.439  0.3089  0.9053 -0.3133
 4831SOL     OW15391   2.925   5.897   6.023  0.5148  0.2314  0.9309
 4831SOL    HW115392   2.925   5.952   5.940 -1.0923 -0.4047  0.4633
 4831SOL    HW215393   2.971   5.946   6.097 -1.4418  2.4941  0.7283
 4832SOL     OW15394   2.987   3.268   3.111  0.2239 -0.5265 -0.1748
 4832SOL    HW115395   3.041   3.207   3.169 -0.1927 -2.1081 -1.3556
 4832SOL    HW215396   2.952   3.216   3.033 -3.0641  0.3689  0.5551
 4833SOL     OW15397   5.628   2.490   6.058 -0.0077  0.5505  0.2526
 4833SOL    HW115398   5.532   2.470   6.042 -0.1057  0.4067  0.9722
 4833SOL    HW215399   5.656   2.451   6.146  0.8460  0.1266 -0.1957
 4834SOL     OW15400   0.246   3.011   2.279  0.5272  0.4675  0.7624
 4834SOL    HW115401   0.171   3.036   2.218  0.6842 -0.5192  0.1500
 4834SOL    HW215402   0.291   2.928   2.246  0.7590  0.0289  2.0938
 4835SOL     OW15403   1.636   5.187   5.398 -0.4481  0.9159  0.1760
 4835SOL    HW115404   1.682   5.138   5.471 -0.9803  2.4834  1.6239
 4835SOL    HW215405   1.620   5.282   5.425 -2.2925  1.0880 -1.2413
 4836SOL     OW15406   3.553   0.625   6.070 -0.0354  0.1689 -0.0467
 4836SOL    HW115407   3.488   0.657   6.001 -1.3523  0.8288  1.4477
 4836SOL    HW215408   3.612   0.700   6.097 -1.2553  0.6569  1.3999
 4837SOL     OW15409   2.149   3.763   3.330  0.1818  0.3973  0.0632
 4837SOL    HW115410   2.191   3.790   3.417 -0.6415 -0.7448  0.8400
 4837SOL    HW215411   2.131   3.845   3.275  0.0203  1.2170  1.2978
 4838SOL     OW15412   0.605   3.803   0.174 -0.8688  0.6720  0.0106
 4838SOL    HW115413   0.622   3.706   0.193 -0.3381  0.3494 -1.9262
 4838SOL    HW215414   0.524   3.812   0.116 -0.1937  1.2853 -0.8551
 4839SOL     OW15415   3.141   2.149   2.685  0.1660 -0.3265  0.0436
 4839SOL    HW115416   3.061   2.088   2.683 -0.2050  0.1640 -0.2322
 4839SOL    HW215417   3.180   2.149   2.777 -0.7648  0.2088  0.4545
 4840SOL     OW15418   4.768   2.697   3.839 -0.2674 -0.0687  0.2325
 4840SOL    HW115419   4.836   2.683   3.911  0.0428 -2.8867 -0.5011
 4840SOL    HW215420   4.679   2.667   3.871  0.0021 -2.0215 -0.7150
 4841SOL     OW15421   2.022   5.059   1.915 -0.1978  0.3484 -0.1056
 4841SOL    HW115422   2.066   5.095   1.998  1.5077 -0.8990 -0.3997
 4841SOL    HW215423   2.080   5.081   1.836 -0.9790  0.0940 -0.7542
 4842SOL     OW15424   4.503   6.476   2.569 -0.0430 -0.1922 -0.1501
 4842SOL    HW115425   4.511   6.513   2.662  1.1676  0.4239 -0.4790
 4842SOL    HW215426   4.469   6.548   2.508 -0.9255 -0.6221 -0.1846
 4843SOL     OW15427   5.432   2.096   6.696  0.0375  0.2576 -0.5109
 4843SOL    HW115428   5.517   2.079   6.646 -0.6043  0.6173 -1.7545
 4843SOL    HW215429   5.442   2.179   6.751  0.1439  0.9126 -1.4901
 4844SOL     OW15430   1.140   4.950   5.460 -0.6248 -0.0339  0.4021
 4844SOL    HW115431   1.125   4.874   5.397 -0.1675  0.2857 -0.1057
 4844SOL    HW215432   1.227   4.994   5.438 -1.4622  1.4235 -0.1379
 4845SOL     OW15433   5.111   6.534   5.557 -0.0906  0.1564 -0.4634
 4845SOL    HW115434   5.107   6.614   5.617  1.8743  0.5965 -0.8289
 4845SOL    HW215435   5.068   6.555   5.469 -2.4976 -0.3139  0.5323
 4846SOL     OW15436   6.238   4.105   4.763 -0.3557  0.2372  0.1844
 4846SOL    HW115437   6.233   4.200   4.794 -1.2376 -0.1283  1.2389
 4846SOL    HW215438   6.326   4.066   4.790 -0.5977  0.3130  1.1373
 4847SOL     OW15439   0.957   0.353   6.366  0.2775  0.0467  0.1471
 4847SOL    HW115440   0.954   0.331   6.269 -2.0008 -0.8926  0.3790
 4847SOL    HW215441   1.052   0.348   6.398  1.2632  1.5831 -2.2278
 4848SOL     OW15442   4.829   2.550   2.106 -0.1954  0.0900  0.3552
 4848SOL    HW115443   4.773   2.620   2.060 -1.5127 -1.0302  0.1899
 4848SOL    HW215444   4.887   2.594   2.174  1.1145  1.6946 -1.6610
 4849SOL     OW15445   2.385   4.871   0.677 -0.2537  0.4707  0.0816
 4849SOL    HW115446   2.345   4.849   0.766 -1.8802 -2.7990 -1.2844
 4849SOL    HW215447   2.479   4.838   0.673 -0.3274  0.2124  0.4443
 4850SOL     OW15448   4.142   0.789   2.139  0.4925  0.6787 -0.0634
 4850SOL    HW115449   4.215   0.856   2.156 -0.1344  0.8954  2.1415
 4850SOL    HW215450   4.168   0.730   2.063  1.8074  2.3598 -1.0042
 4851SOL     OW15451   5.586   6.191   1.614 -0.5442 -0.2778 -0.6391
 4851SOL    HW115452   5.546   6.104   1.585 -1.7095  0.2623 -0.7181
 4851SOL    HW215453   5.675   6.203   1.570 -2.1330  0.4326 -4.0304
 4852SOL     OW15454   3.625   3.781   6.091 -0.0702 -0.8782  0.1962
 4852SOL    HW115455   3.685   3.742   6.021 -0.9010 -2.0349  0.0891
 4852SOL    HW215456   3.590   3.869   6.060  0.8281 -0.6369 -0.1427
 4853SOL     OW15457   2.316   5.701   1.762 -0.3842 -0.4171 -0.4014
 4853SOL    HW115458   2.357   5.791   1.778 -0.0187 -0.1730 -2.4003
 4853SOL    HW215459   2.368   5.653   1.691 -1.6752 -1.4426 -0.6980
 4854SOL     OW15460   4.819   0.451   1.325 -0.2147 -0.0939 -0.0187
 4854SOL    HW115461   4.723   0.463   1.298 -0.4552 -0.4203  0.6563
 4854SOL    HW215462   4.878   0.456   1.244 -0.4726  3.2064 -0.1326
 4855SOL     OW15463   3.416   6.762   4.277  0.2130 -0.1886  0.4300
 4855SOL    HW115464   3.439   6.666   4.295  2.1388  0.5015  2.1100
 4855SOL    HW215465   3.500   6.812   4.256 -0.8050  1.0983 -0.7367
 4856SOL     OW15466   6.597   2.264   2.983 -0.0512  0.5224  0.4200
 4856SOL    HW115467   6.518   2.323   2.967  0.8080  1.6935  0.3716
 4856SOL    HW215468   6.575   2.171   2.954 -1.5241  0.7364  0.7232
 4857SOL     OW15469   2.481   3.489   6.168 -0.0121 -0.2763 -0.3520
 4857SOL    HW115470   2.395   3.516   6.123 -0.8520  1.3916  2.0588
 4857SOL    HW215471   2.555   3.548   6.136 -0.3428  0.0905 -0.4601
 4858SOL     OW15472   2.868   5.431   5.724  0.3384  0.5632 -0.6139
 4858SOL    HW115473   2.771   5.446   5.702  0.6443  1.3527 -1.5210
 4858SOL    HW215474   2.892   5.482   5.806 -0.2957 -0.6110  0.3215
 4859SOL     OW15475   6.531   5.137   3.843 -0.1858  0.0220  0.2488
 4859SOL    HW115476   6.579   5.062   3.798  2.0346  1.9336 -0.7618
 4859SOL    HW215477   6.454   5.101   3.896  2.0271 -3.1892  1.5625
 4860SOL     OW15478   4.647   1.276   1.857 -0.2744 -0.3956  0.0760
 4860SOL    HW115479   4.736   1.251   1.818 -0.4964 -1.2223  0.0820
 4860SOL    HW215480   4.577   1.268   1.787 -0.1823  1.5687 -0.3124
 4861SOL     OW15481   3.951   5.103   4.379  0.8135 -0.2352 -0.3185
 4861SOL    HW115482   3.915   5.164   4.309  0.6309 -0.6078 -0.5535
 4861SOL    HW215483   3.922   5.135   4.469 -0.0193 -0.4645 -0.4975
 4862SOL     OW15484   2.373   4.516   3.964  0.1492  0.3941 -0.1795
 4862SOL    HW115485   2.442   4.579   3.998 -0.2594  0.5374  0.3841
 4862SOL    HW215486   2.355   4.446   4.033  1.4502 -1.0506 -1.2322
 4863SOL     OW15487   6.073   2.652   3.779 -0.6476 -0.4505 -0.2034
 4863SOL    HW115488   6.069   2.717   3.703 -1.2024  0.0944  0.2849
 4863SOL    HW215489   6.059   2.559   3.745  2.6193 -0.6817 -1.3133
 4864SOL     OW15490   2.438   4.141   1.475 -0.9336  0.2988  0.0480
 4864SOL    HW115491   2.357   4.094   1.441  0.6082 -1.7796 -0.9052
 4864SOL    HW215492   2.463   4.214   1.412 -0.3224 -1.0484 -1.3136
 4865SOL     OW15493   5.125   6.532   2.781 -0.4562 -0.3083  0.3977
 4865SOL    HW115494   5.179   6.501   2.702 -0.7761 -2.9641  1.1250
 4865SOL    HW215495   5.030   6.547   2.752 -0.0679  1.1612 -0.1961
 4866SOL     OW15496   1.773   4.027   1.068 -0.2051  0.1139 -0.1238
 4866SOL    HW115497   1.698   4.007   1.004  0.3124 -1.6927 -0.2285
 4866SOL    HW215498   1.861   4.016   1.021  0.1553  1.5629  0.1752
 4867SOL     OW15499   5.619   3.922   6.209  0.1194 -0.7870 -0.3935
 4867SOL    HW115500   5.546   3.976   6.252  0.9279  0.0726 -0.0717
 4867SOL    HW215501   5.707   3.964   6.229  0.8791 -2.8232  0.7353
 4868SOL     OW15502   0.567   0.204   1.815 -0.0107 -0.0081  0.1232
 4868SOL    HW115503   0.488   0.195   1.876  1.1261 -0.1797  1.6224
 4868SOL    HW215504   0.651   0.204   1.869  1.1251 -1.3132 -1.5524
 4869SOL     OW15505   5.568   1.323   1.870  0.3079  0.1777 -0.3429
 4869SOL    HW115506   5.609   1.232   1.873  1.1343  0.5654  1.1701
 4869SOL    HW215507   5.617   1.384   1.933 -0.2871  1.6502 -1.2447
 4870SOL     OW15508   5.225   0.818   0.555 -0.2598  0.4272  0.2060
 4870SOL    HW115509   5.128   0.834   0.574  0.1878 -0.0264  3.6038
 4870SOL    HW215510   5.271   0.905   0.537 -1.2087  0.6689 -1.1646
 4871SOL     OW15511   1.958   3.308   5.649 -0.0230 -0.3155  0.6512
 4871SOL    HW115512   2.055   3.331   5.636  0.0799  0.0957  1.9931
 4871SOL    HW215513   1.902   3.375   5.601  0.3446  0.7306  1.6242
 4872SOL     OW15514   1.904   1.438   4.469 -0.1578 -0.6137  0.0159
 4872SOL    HW115515   1.925   1.495   4.549 -0.3357  0.0453 -0.4048
 4872SOL    HW215516   1.978   1.445   4.402 -0.4016 -0.5027 -0.2435
 4873SOL     OW15517   0.669   0.993   1.403  0.9821  0.2410  0.1659
 4873SOL    HW115518   0.638   1.063   1.467 -0.5483 -1.2419  1.1347
 4873SOL    HW215519   0.590   0.950   1.359  1.8455 -1.0975 -0.1345
 4874SOL     OW15520   6.387   6.241   4.022  0.1492  0.4430 -0.0394
 4874SOL    HW115521   6.421   6.312   4.085  0.6060  0.3304 -0.1516
 4874SOL    HW215522   6.375   6.281   3.931 -0.6644  0.6452  0.1470
 4875SOL     OW15523   1.807   2.942   5.854  0.2538 -0.6612  0.6723
 4875SOL    HW115524   1.769   2.931   5.762  1.2855 -0.8972  0.2582
 4875SOL    HW215525   1.892   2.994   5.849 -0.2461  0.2972  1.6402
 4876SOL     OW15526   0.294   1.815   5.711 -0.3469 -0.4756  0.3986
 4876SOL    HW115527   0.352   1.832   5.791 -1.3677  1.1213  0.8348
 4876SOL    HW215528   0.223   1.748   5.735  0.8479 -1.9256  0.0541
 4877SOL     OW15529   3.902   1.274   3.776  0.3312  0.6137 -0.0964
 4877SOL    HW115530   3.868   1.258   3.869 -1.5729 -1.3464 -1.0467
 4877SOL    HW215531   3.827   1.308   3.719  0.4587 -1.6990 -1.7510
 4878SOL     OW15532   0.091   2.203   0.479 -0.1366 -0.0749  0.7991
 4878SOL    HW115533   0.157   2.169   0.546  0.2340  0.8683  0.9253
 4878SOL    HW215534   0.030   2.128   0.451  0.8534 -0.9075  0.8285
 4879SOL     OW15535   3.657   6.756   4.025 -0.3378 -0.2133  0.3213
 4879SOL    HW115536   3.664   6.814   4.106  2.2070 -1.5077  1.1277
 4879SOL    HW215537   3.736   6.772   3.966 -0.8917 -1.0654 -0.6914
 4880SOL     OW15538   6.092   1.633   5.328  0.7605  0.1599 -0.0404
 4880SOL    HW115539   6.081   1.537   5.302 -0.3909  0.1802  0.3191
 4880SOL    HW215540   6.125   1.639   5.422 -2.8313  0.0560  1.3755
 4881SOL     OW15541   3.129   6.416   0.161 -0.6829  0.3806  0.5322
 4881SOL    HW115542   3.083   6.425   0.073 -1.6200  2.1902  1.1734
 4881SOL    HW215543   3.211   6.473   0.162  0.7277 -1.5146  0.0137
 4882SOL     OW15544   3.928   2.042   5.520  0.3413 -0.2612 -0.3110
 4882SOL    HW115545   4.006   2.096   5.491  0.8320 -0.4007  0.7083
 4882SOL    HW215546   3.957   1.975   5.589 -0.6948 -0.2171  0.1962
 4883SOL     OW15547   3.203   5.906   4.217 -0.1570  0.0990 -0.4019
 4883SOL    HW115548   3.174   5.970   4.145  0.5887  0.3578 -0.4760
 4883SOL    HW215549   3.241   5.958   4.293  2.0896 -0.3093 -1.1831
 4884SOL     OW15550   4.644   5.690   1.889  0.3874 -0.3886  0.1789
 4884SOL    HW115551   4.575   5.743   1.840  0.7532 -1.4151 -1.5553
 4884SOL    HW215552   4.603   5.605   1.922  0.3894 -0.1588  0.7837
 4885SOL     OW15553   6.443   5.865   2.032  0.5123 -0.2807  0.1287
 4885SOL    HW115554   6.393   5.817   1.960 -0.1210  1.6135 -0.7676
 4885SOL    HW215555   6.394   5.855   2.118 -0.0668 -0.5158 -0.2189
 4886SOL     OW15556   5.288   6.269   5.449  0.0767 -0.1055  0.0203
 4886SOL    HW115557   5.292   6.214   5.533  1.3251  1.1692  0.8443
 4886SOL    HW215558   5.221   6.230   5.387 -1.6773 -0.4699  2.0371
 4887SOL     OW15559   1.579   2.722   5.699  0.1162 -0.4472 -0.1214
 4887SOL    HW115560   1.646   2.685   5.635  0.3982 -0.6418  0.2757
 4887SOL    HW215561   1.574   2.822   5.689 -1.4372 -0.6582 -1.9470
 4888SOL     OW15562   5.124   6.278   0.475  0.2796  0.5385 -0.4008
 4888SOL    HW115563   5.127   6.369   0.434 -2.3464 -0.0414 -2.1715
 4888SOL    HW215564   5.201   6.223   0.441  0.4679  1.3454 -1.3297
 4889SOL     OW15565   1.996   2.513   5.365 -0.2632  0.2813 -0.7054
 4889SOL    HW115566   1.996   2.597   5.311  2.9010  0.5800 -0.4227
 4889SOL    HW215567   2.083   2.504   5.414 -0.8470 -2.7132  0.0104
 4890SOL     OW15568   0.023   0.250   3.665 -0.0022 -0.6477 -0.3139
 4890SOL    HW115569   0.107   0.212   3.628 -0.0300  0.8389 -2.0430
 4890SOL    HW215570  -0.049   0.180   3.664  1.0094 -1.7313  0.5685
 4891SOL     OW15571   0.576   4.362   6.406  0.0418  0.0151 -0.2006
 4891SOL    HW115572   0.654   4.358   6.344 -0.6899  1.0622 -1.2295
 4891SOL    HW215573   0.546   4.269   6.428  0.6055 -0.3774 -1.0494
 4892SOL     OW15574   1.266   5.947   1.338 -0.1664 -0.1955  0.3907
 4892SOL    HW115575   1.241   5.961   1.434 -0.7479 -2.0582  0.5435
 4892SOL    HW215576   1.363   5.921   1.332 -0.3189 -0.8287  0.5658
 4893SOL     OW15577   6.663   4.533   4.830  0.5733  0.1729 -0.0129
 4893SOL    HW115578   6.658   4.487   4.741 -0.1166  1.3149 -0.5899
 4893SOL    HW215579   6.627   4.472   4.901 -0.8371 -0.0067 -0.8396
 4894SOL     OW15580   6.289   5.286   4.676 -0.1052 -0.1052 -0.0581
 4894SOL    HW115581   6.379   5.329   4.668  0.6083 -1.4714  0.4605
 4894SOL    HW215582   6.235   5.308   4.594  0.5434  1.0348 -0.2036
 4895SOL     OW15583   0.906   2.274   7.013  0.3338  0.3975  0.1363
 4895SOL    HW115584   0.870   2.314   7.097  1.9819  0.6103  0.7879
 4895SOL    HW215585   1.005   2.260   7.022  0.1305 -2.1418 -0.7470
 4896SOL     OW15586   4.682   0.369   4.186  0.1571 -0.0430 -0.0851
 4896SOL    HW115587   4.663   0.430   4.109 -0.0181  2.4143  1.7708
 4896SOL    HW215588   4.597   0.327   4.217  0.3670 -1.8386 -1.7631
 4897SOL     OW15589   0.320   6.230   0.894 -0.8327 -0.2487 -0.1890
 4897SOL    HW115590   0.337   6.201   0.988  0.1142  0.1227 -0.2341
 4897SOL    HW215591   0.402   6.273   0.857  0.3998 -4.1216 -2.5873
 4898SOL     OW15592   3.744   1.789   3.765  0.5624  0.0297  0.1484
 4898SOL    HW115593   3.839   1.799   3.735  0.4681 -0.2521 -0.2598
 4898SOL    HW215594   3.689   1.862   3.724  0.3283 -0.6846 -0.8455
 4899SOL     OW15595   2.334   2.666   3.198  0.1241 -0.3496 -0.1299
 4899SOL    HW115596   2.242   2.626   3.207 -0.6210  1.5807  1.7122
 4899SOL    HW215597   2.377   2.633   3.114 -3.1949  0.4912 -2.3443
 4900SOL     OW15598   0.400   5.110   6.195 -0.0961  0.0774  0.1010
 4900SOL    HW115599   0.383   5.158   6.109 -0.1827  0.6186  0.4071
 4900SOL    HW215600   0.314   5.100   6.245 -0.3730 -1.9357 -0.7126
 4901SOL     OW15601   5.562   0.356   7.019 -0.2363  0.2302  0.5958
 4901SOL    HW115602   5.619   0.437   7.009  0.1653 -0.0945  0.2213
 4901SOL    HW215603   5.566   0.323   7.113  1.3613 -0.6277  0.2593
 4902SOL     OW15604   2.210   5.821   0.355  0.0464 -0.0260 -0.2687
 4902SOL    HW115605   2.304   5.836   0.385 -0.4525  2.2006  0.4052
 4902SOL    HW215606   2.171   5.743   0.404  1.0026  0.1201  0.7634
 4903SOL     OW15607   0.037   4.472   1.766 -0.1602 -0.2860  0.2824
 4903SOL    HW115608  -0.025   4.417   1.710  0.0830 -0.3430  0.0699
 4903SOL    HW215609   0.127   4.429   1.768  0.0750  0.1880 -0.0168
 4904SOL     OW15610   2.957   2.542   5.318  0.5150 -0.3569 -0.2152
 4904SOL    HW115611   3.031   2.474   5.312  0.4342 -1.2642  4.7220
 4904SOL    HW215612   2.869   2.495   5.325  0.2002  0.3416  0.7340
 4905SOL     OW15613   6.121   3.365   6.297 -0.6422  0.2265  0.0914
 4905SOL    HW115614   6.088   3.433   6.363  0.2106  1.4802 -0.7456
 4905SOL    HW215615   6.218   3.379   6.280 -0.0911 -2.0885  0.9112
 4906SOL     OW15616   5.173   0.535   3.712  0.0156  0.4294 -0.6940
 4906SOL    HW115617   5.236   0.597   3.759  0.1719 -1.8109  2.4048
 4906SOL    HW215618   5.079   0.563   3.731 -0.0206 -1.6611  3.2735
 4907SOL     OW15619   2.146   3.618   2.475  0.1811 -0.2692 -0.0508
 4907SOL    HW115620   2.074   3.652   2.535 -0.5038 -0.8997 -0.5044
 4907SOL    HW215621   2.167   3.523   2.499  0.2693 -0.3543 -0.4613
 4908SOL     OW15622   4.491   5.000   4.846  0.6704 -0.0652  0.0047
 4908SOL    HW115623   4.548   5.031   4.922 -0.8453  1.0149  0.7476
 4908SOL    HW215624   4.497   5.065   4.770  0.8290 -0.2173 -0.1120
 4909SOL     OW15625   5.624   6.834   6.071 -0.0203 -0.1669 -0.3984
 4909SOL    HW115626   5.550   6.887   6.113  0.6330  0.6067 -0.2005
 4909SOL    HW215627   5.586   6.775   5.999 -0.9226 -0.3220  0.1939
 4910SOL     OW15628   6.333   6.680   4.908 -0.6139  0.0985  0.4693
 4910SOL    HW115629   6.375   6.771   4.909 -1.1139  0.3832 -1.2786
 4910SOL    HW215630   6.244   6.683   4.954 -1.1367  0.7648 -0.5753
 4911SOL     OW15631   5.939   3.475   0.777 -0.2791  0.2444 -0.1267
 4911SOL    HW115632   5.935   3.506   0.682 -0.9576  0.5339 -0.0044
 4911SOL    HW215633   5.855   3.501   0.824 -0.3117 -0.6498  0.3243
 4912SOL     OW15634   0.879   0.948   4.023 -0.1339  0.4594  0.5741
 4912SOL    HW115635   0.917   0.944   3.930 -0.7586  2.0310  0.2338
 4912SOL    HW215636   0.932   0.887   4.083  0.4612 -0.3510 -0.7286
 4913SOL     OW15637   3.864   2.898   1.611 -0.1496 -0.2994 -0.2260
 4913SOL    HW115638   3.938   2.831   1.611  1.1452  1.0824  0.1757
 4913SOL    HW215639   3.886   2.972   1.674 -0.8922  1.2325 -1.6892
 4914SOL     OW15640   2.436   6.007   4.265 -0.4176 -0.0502 -0.2122
 4914SOL    HW115641   2.382   6.091   4.276  0.0015  0.1442  0.4011
 4914SOL    HW215642   2.504   6.001   4.338  0.5409 -0.1939 -1.1021
 4915SOL     OW15643   4.253   7.013   4.884  0.4358  0.4830 -0.2402
 4915SOL    HW115644   4.309   6.930   4.882  1.0348  0.8138  1.5514
 4915SOL    HW215645   4.268   7.062   4.970  0.2059  2.5390 -1.3038
 4916SOL     OW15646   0.941   2.466   3.164  0.3786 -0.0341  0.3908
 4916SOL    HW115647   1.035   2.432   3.151 -0.3040 -1.9596  0.0887
 4916SOL    HW215648   0.905   2.499   3.077 -0.1843 -2.0506 -0.2037
 4917SOL     OW15649   5.736   5.074   6.680 -0.3370 -0.7533  0.2913
 4917SOL    HW115650   5.737   4.976   6.699 -1.7780 -0.9495 -0.5178
 4917SOL    HW215651   5.685   5.091   6.595  0.6129  0.6253 -0.0386
 4918SOL     OW15652   3.018   0.356   5.032 -0.2254  0.1066 -0.2141
 4918SOL    HW115653   3.074   0.339   4.951 -0.3147 -0.9142 -0.0657
 4918SOL    HW215654   2.948   0.425   5.010 -0.1548 -0.0510 -0.9567
 4919SOL     OW15655   2.446   0.732   0.388  0.3378 -0.1810  0.3386
 4919SOL    HW115656   2.426   0.830   0.392 -0.2367 -0.3346  1.6201
 4919SOL    HW215657   2.466   0.706   0.294 -1.0460  0.8638 -0.2674
 4920SOL     OW15658   4.643   2.826   0.744 -0.2080  0.3758  0.3750
 4920SOL    HW115659   4.602   2.893   0.682 -0.0414 -0.2440 -0.4170
 4920SOL    HW215660   4.629   2.734   0.708  1.0937  0.0879  0.5360
 4921SOL     OW15661   0.521   4.594   3.286  0.0562  0.1889 -0.2350
 4921SOL    HW115662   0.592   4.612   3.355 -1.4614 -0.3257  1.5340
 4921SOL    HW215663   0.565   4.570   3.200  2.0576 -0.7139  0.9459
 4922SOL     OW15664   1.668   4.592   4.680 -0.4234  0.3694 -0.1231
 4922SOL    HW115665   1.616   4.676   4.694  1.3197  1.3806  0.5877
 4922SOL    HW215666   1.643   4.524   4.750 -1.6531  0.3501 -0.5518
 4923SOL     OW15667   3.290   2.151   1.220  0.0766  0.2082  0.0395
 4923SOL    HW115668   3.217   2.219   1.219 -0.2569 -0.1462  0.2413
 4923SOL    HW215669   3.259   2.068   1.176 -0.2116 -0.5197  1.5475
 4924SOL     OW15670   1.988   4.988   3.006  0.4811 -0.0385  0.5700
 4924SOL    HW115671   2.009   5.009   3.101  2.4079  0.7636  0.0154
 4924SOL    HW215672   1.889   4.987   2.993  0.2034  0.5536  2.4177
 4925SOL     OW15673   4.282   4.857   5.457 -0.4908  0.2853  0.0638
 4925SOL    HW115674   4.299   4.875   5.360 -0.7241  0.2969  0.0222
 4925SOL    HW215675   4.354   4.798   5.494 -0.6576 -0.1176 -0.2394
 4926SOL     OW15676   4.359   4.053   0.692 -0.0483  0.0477  0.3107
 4926SOL    HW115677   4.430   4.083   0.628 -0.5620  2.3909  0.7512
 4926SOL    HW215678   4.386   4.079   0.785 -0.7906 -0.4669  0.6781
 4927SOL     OW15679   2.117   3.724   2.794  0.1288  0.0002 -0.5805
 4927SOL    HW115680   2.205   3.700   2.754  0.0213  0.9804 -1.4306
 4927SOL    HW215681   2.061   3.641   2.803  1.2098 -0.6837  0.2270
 4928SOL     OW15682   1.302   0.272   4.249  0.6160 -0.0801  0.2328
 4928SOL    HW115683   1.213   0.312   4.227  1.6274  0.4273 -3.8649
 4928SOL    HW215684   1.359   0.340   4.296 -0.2547  0.5229  0.4298
 4929SOL     OW15685   1.182   4.948   3.098  0.3648  0.6487  0.2496
 4929SOL    HW115686   1.102   4.894   3.070 -1.0453  3.2582 -1.1438
 4929SOL    HW215687   1.157   5.007   3.175  0.9149  1.4421 -0.1657
 4930SOL     OW15688   0.344   2.571   6.066 -0.0581  0.3518  0.0719
 4930SOL    HW115689   0.420   2.607   6.120 -1.1284  0.3928  1.6242
 4930SOL    HW215690   0.308   2.489   6.110 -2.3418  1.5931  0.6949
 4931SOL     OW15691   6.249   0.379   0.225 -0.3288 -0.2292 -0.1455
 4931SOL    HW115692   6.291   0.446   0.163  0.3849 -1.1445 -0.6672
 4931SOL    HW215693   6.315   0.308   0.248 -0.8451 -0.3616  1.0194
 4932SOL     OW15694   3.049   1.944   1.303  0.3432 -0.1321  0.0298
 4932SOL    HW115695   3.089   1.931   1.212  0.9056  1.7477 -0.0250
 4932SOL    HW215696   3.117   1.923   1.373  0.2912 -0.3990  0.0015
 4933SOL     OW15697   3.896   0.198   4.017 -0.7618  0.4972  0.1061
 4933SOL    HW115698   3.932   0.120   3.967 -1.9515 -1.4230  2.0240
 4933SOL    HW215699   3.958   0.276   4.008  0.9124 -0.9052 -1.1965
 4934SOL     OW15700   1.266   5.153   5.144 -0.4282  0.0416  0.1576
 4934SOL    HW115701   1.191   5.210   5.177  0.5620  0.1939  2.2927
 4934SOL    HW215702   1.288   5.084   5.213  2.3754  0.9637  0.2810
 4935SOL     OW15703   3.269   3.345   6.272 -0.0379  0.1166 -0.0426
 4935SOL    HW115704   3.189   3.311   6.323  0.4603 -0.5274  0.3172
 4935SOL    HW215705   3.281   3.442   6.292  1.6248 -0.5995  3.1412
 4936SOL     OW15706   6.244   3.101   3.122 -0.2028  0.0003 -0.0939
 4936SOL    HW115707   6.212   3.109   3.027 -0.0382 -3.1085 -0.5417
 4936SOL    HW215708   6.339   3.131   3.128  0.3451 -1.3331 -1.3596
 4937SOL     OW15709   1.766   4.652   5.918  0.3985 -0.1643  0.5134
 4937SOL    HW115710   1.688   4.683   5.864  1.2216  2.2170  0.5547
 4937SOL    HW215711   1.786   4.719   5.989  1.4902 -1.5321  1.5649
 4938SOL     OW15712   2.899   2.755   1.557 -0.1951 -0.7932  0.3682
 4938SOL    HW115713   2.930   2.845   1.527  0.0351 -1.4176 -1.4267
 4938SOL    HW215714   2.944   2.730   1.643  2.4474 -0.6187 -0.8792
 4939SOL     OW15715   2.180   1.400   1.246  0.1799  0.2529  0.1162
 4939SOL    HW115716   2.108   1.456   1.286  0.3038  0.5530 -0.0796
 4939SOL    HW215717   2.199   1.322   1.306  0.4292  0.7502  0.6862
 4940SOL     OW15718   1.849   2.014   4.888  0.3998  0.6368 -0.6129
 4940SOL    HW115719   1.905   1.932   4.891  2.0744  1.7451  0.0672
 4940SOL    HW215720   1.891   2.085   4.945 -1.2379  1.8174 -0.8093
 4941SOL     OW15721   4.828   3.347   5.119  0.0604  0.1079 -0.2629
 4941SOL    HW115722   4.807   3.267   5.176  1.3891 -0.1048 -0.0225
 4941SOL    HW215723   4.767   3.422   5.142 -0.7815 -0.6382 -0.0294
 4942SOL     OW15724   0.596   0.706   2.860 -0.5145  0.3333  0.5581
 4942SOL    HW115725   0.662   0.779   2.841 -0.0888 -0.2095 -0.0589
 4942SOL    HW215726   0.550   0.725   2.947  0.6367  0.5866  1.1242
 4943SOL     OW15727   6.192   1.643   1.279  0.3492 -0.5338 -0.2212
 4943SOL    HW115728   6.140   1.684   1.354  0.4673  1.3403 -1.1120
 4943SOL    HW215729   6.260   1.580   1.317 -0.2597 -0.3978  1.1713
 4944SOL     OW15730   1.125   5.217   6.498 -0.4809 -0.0378 -0.0641
 4944SOL    HW115731   1.187   5.140   6.514 -0.8554 -0.1898  0.6612
 4944SOL    HW215732   1.111   5.267   6.583 -0.8172  0.4020 -0.3752
 4945SOL     OW15733   4.334   6.023   0.310  0.1299 -0.4390 -0.3433
 4945SOL    HW115734   4.293   6.098   0.362 -0.3688 -0.1869 -1.0855
 4945SOL    HW215735   4.299   6.024   0.217  2.1214  0.0108 -1.1328
 4946SOL     OW15736   0.597   0.604   0.488 -0.1510 -0.5790 -0.1068
 4946SOL    HW115737   0.609   0.662   0.408  2.5999 -1.6588 -0.5762
 4946SOL    HW215738   0.571   0.660   0.567  2.0082  1.2776 -0.6284
 4947SOL     OW15739   1.193   5.213   1.912 -0.1600  0.3061 -0.0155
 4947SOL    HW115740   1.129   5.251   1.845  0.2395 -0.8976 -1.1361
 4947SOL    HW215741   1.170   5.246   2.003 -1.7317  0.7203 -0.5341
 4948SOL     OW15742   2.579   4.623   2.000 -0.6455 -0.2869 -0.2109
 4948SOL    HW115743   2.674   4.648   2.019 -0.7904 -0.0769  0.2501
 4948SOL    HW215744   2.572   4.523   1.989 -0.7811 -0.6541  2.4198
 4949SOL     OW15745   5.807   5.027   6.097 -0.3780 -0.7126 -0.1518
 4949SOL    HW115746   5.745   4.980   6.034 -1.6589 -0.4455  0.8815
 4949SOL    HW215747   5.789   5.125   6.094 -1.3802 -0.8149  1.5689
 4950SOL     OW15748   4.530   3.643   0.605  0.2039  0.1081  0.6365
 4950SOL    HW115749   4.439   3.681   0.591  0.0051 -0.8892 -1.0993
 4950SOL    HW215750   4.598   3.717   0.604 -0.3023  0.6079 -1.1998
 4951SOL     OW15751   5.211   5.594   4.605  0.0080  0.3163 -0.0020
 4951SOL    HW115752   5.221   5.631   4.513  1.7885 -0.0907 -0.0215
 4951SOL    HW215753   5.302   5.582   4.646 -0.6402 -1.3107  1.0793
 4952SOL     OW15754   2.564   0.225   0.188  0.9723 -0.3788  0.0068
 4952SOL    HW115755   2.657   0.189   0.181  1.5931  1.2567 -0.6053
 4952SOL    HW215756   2.536   0.263   0.100 -1.4785 -3.4869 -0.7254
 4953SOL     OW15757   6.617   0.686   3.933  0.0796 -0.0599  0.4861
 4953SOL    HW115758   6.684   0.656   3.866 -0.0466 -0.0023  0.3327
 4953SOL    HW215759   6.525   0.671   3.897  0.0138  0.5470  0.3928
 4954SOL     OW15760   3.530   4.278   6.853  0.8778 -0.1707 -0.9402
 4954SOL    HW115761   3.610   4.325   6.816  0.9518  0.4441 -0.0224
 4954SOL    HW215762   3.555   4.183   6.874  1.2428 -0.1013 -1.0461
 4955SOL     OW15763   4.302   1.330   1.290  0.2266  0.1394 -0.1155
 4955SOL    HW115764   4.383   1.282   1.255 -0.5753 -0.4164 -1.2661
 4955SOL    HW215765   4.220   1.282   1.259 -0.5620  1.1893  0.3248
 4956SOL     OW15766   2.706   6.856   5.332 -0.6190  0.1660 -0.3524
 4956SOL    HW115767   2.724   6.900   5.244  1.5415 -1.1770 -0.6393
 4956SOL    HW215768   2.692   6.758   5.319 -0.2449 -0.0620  0.7993
 4957SOL     OW15769   4.955   5.606   6.804  0.6869  0.6121  0.0442
 4957SOL    HW115770   5.035   5.641   6.757 -0.0067  1.9229 -0.2070
 4957SOL    HW215771   4.914   5.678   6.860 -1.0077  0.3379 -0.7633
 4958SOL     OW15772   2.998   6.038   1.574 -0.6041  0.1902 -0.2359
 4958SOL    HW115773   3.093   6.070   1.568 -0.5930  0.1378 -0.3489
 4958SOL    HW215774   2.937   6.117   1.587 -0.6184  0.3108 -0.9655
 4959SOL     OW15775   6.183   1.583   3.134 -0.2092  0.1234  0.4994
 4959SOL    HW115776   6.194   1.655   3.065 -1.9770 -0.7315 -0.7364
 4959SOL    HW215777   6.086   1.575   3.158  0.0911 -1.1947  1.3469
 4960SOL     OW15778   4.464   5.058   3.317 -0.3517  0.7203  0.5807
 4960SOL    HW115779   4.510   4.975   3.287 -0.7492  1.3562 -2.0459
 4960SOL    HW215780   4.532   5.121   3.356  0.2341 -0.1553  0.9983
 4961SOL     OW15781   4.648   4.036   1.776  0.0437  0.2346 -0.0005
 4961SOL    HW115782   4.590   4.107   1.816  1.2409  0.1413  2.0189
 4961SOL    HW215783   4.642   4.041   1.676 -1.7801  1.5613  0.1203
 4962SOL     OW15784   6.521   2.114   1.358 -0.3030 -0.0954 -0.2532
 4962SOL    HW115785   6.460   2.058   1.302 -0.9377 -0.6857  0.9944
 4962SOL    HW215786   6.501   2.211   1.343 -1.1205 -0.2701 -0.3250
 4963SOL     OW15787   6.953   2.644   1.101 -0.0141  0.4753 -0.0320
 4963SOL    HW115788   6.904   2.561   1.072 -1.3990  1.3262 -0.2545
 4963SOL    HW215789   6.890   2.721   1.098  0.7026  1.2034  2.1222
 4964SOL     OW15790   1.778   5.362   4.724 -0.4677  0.1097 -0.0137
 4964SOL    HW115791   1.827   5.438   4.766 -1.4140 -0.2715  1.8949
 4964SOL    HW215792   1.759   5.293   4.793 -0.4170 -1.4771 -1.5132
 4965SOL     OW15793   4.683   5.231   2.010  0.7144  0.1731 -0.2261
 4965SOL    HW115794   4.690   5.222   1.911 -0.0702  0.0436 -0.2754
 4965SOL    HW215795   4.605   5.178   2.043 -0.6931  2.3254  0.1404
 4966SOL     OW15796   2.557   6.159   0.576 -0.1138  0.1363  0.0708
 4966SOL    HW115797   2.505   6.233   0.534 -0.3324  0.1113  0.2969
 4966SOL    HW215798   2.655   6.181   0.575 -0.1788  0.4250  0.1329
 4967SOL     OW15799   4.009   4.910   3.298  0.0756 -0.0152  0.3377
 4967SOL    HW115800   4.037   5.004   3.276 -1.3209  0.6818  1.3499
 4967SOL    HW215801   4.080   4.867   3.353  0.3051  0.8154  0.7209
 4968SOL     OW15802   0.528   2.737   3.911  0.1908  0.0234  0.3290
 4968SOL    HW115803   0.490   2.804   3.976  2.9326 -0.3952  2.5519
 4968SOL    HW215804   0.597   2.782   3.854 -0.1287 -0.2613 -0.2847
 4969SOL     OW15805   0.516   3.961   3.172 -0.1796 -0.2831 -0.3156
 4969SOL    HW115806   0.509   3.862   3.165  0.0896 -0.3325  0.0865
 4969SOL    HW215807   0.532   3.987   3.267 -1.7689  0.2452 -0.1614
 4970SOL     OW15808   2.820   1.136   0.430  0.3764 -0.4911 -0.3401
 4970SOL    HW115809   2.910   1.152   0.473 -0.0458  0.4082  0.2565
 4970SOL    HW215810   2.805   1.038   0.420  0.2629 -0.7970  2.1550
 4971SOL     OW15811   0.760   6.867   2.569  0.3471  0.4443  0.0618
 4971SOL    HW115812   0.772   6.794   2.502 -0.5453  0.4781 -0.1413
 4971SOL    HW215813   0.750   6.827   2.661  1.7927  0.4081  0.2268
 4972SOL     OW15814   0.576   3.170   1.066  0.3205  0.0076 -0.4096
 4972SOL    HW115815   0.582   3.125   0.978  3.2414  0.9215 -0.8079
 4972SOL    HW215816   0.668   3.176   1.107 -0.6413  1.3743  1.7688
 4973SOL     OW15817   0.279   2.142   6.480  0.1551  0.0141  0.6306
 4973SOL    HW115818   0.306   2.142   6.384  1.5906 -1.5307  0.9885
 4973SOL    HW215819   0.204   2.077   6.494 -0.8130  1.0465  0.4008
 4974SOL     OW15820   4.043   6.605   6.869 -0.0059  0.1671 -0.7015
 4974SOL    HW115821   4.128   6.552   6.872  1.1411  1.9442  0.1401
 4974SOL    HW215822   3.969   6.548   6.836  0.5831 -2.7244  2.4826
 4975SOL     OW15823   6.259   4.619   0.557 -0.1336 -0.3070  0.4485
 4975SOL    HW115824   6.224   4.710   0.576  0.5718  0.1883 -0.5052
 4975SOL    HW215825   6.183   4.558   0.533 -0.5316  0.2509  0.2657
 4976SOL     OW15826   1.820   5.510   4.100  0.2485 -0.0673  0.1011
 4976SOL    HW115827   1.778   5.578   4.161 -1.4056 -0.4703 -0.5199
 4976SOL    HW215828   1.904   5.476   4.141 -1.0828 -0.7397  2.4717
 4977SOL     OW15829   6.906   4.294   4.527  0.6032 -0.3477  0.1428
 4977SOL    HW115830   6.874   4.224   4.463 -2.0746  0.8267  0.0725
 4977SOL    HW215831   6.929   4.377   4.476  1.0895 -0.2650  0.4850
 4978SOL     OW15832   6.303   4.914   4.794  0.5074 -0.5203  0.1401
 4978SOL    HW115833   6.374   4.952   4.853 -1.1809  0.7951  1.4496
 4978SOL    HW215834   6.279   4.822   4.824  0.8109 -0.4998  0.4432
 4979SOL     OW15835   3.937   0.566   6.499 -0.0053 -0.4609 -0.3506
 4979SOL    HW115836   3.996   0.532   6.572  1.7767  1.3181 -0.8706
 4979SOL    HW215837   3.946   0.507   6.418 -0.8826 -1.6007  0.3476
 4980SOL     OW15838   6.138   1.740   4.923 -0.2874 -0.0222 -0.2680
 4980SOL    HW115839   6.140   1.646   4.888 -0.0500  0.3213 -1.2171
 4980SOL    HW215840   6.231   1.775   4.930 -0.4520  0.9768 -2.3246
 4981SOL     OW15841   2.796   0.018   3.030 -0.5086  0.2044 -0.8244
 4981SOL    HW115842   2.761  -0.036   3.107 -1.8948  1.2362 -0.6844
 4981SOL    HW215843   2.763  -0.020   2.944  1.0905 -0.9853 -0.9539
 4982SOL     OW15844   5.327   1.420   5.515 -0.0394 -0.2223 -0.3130
 4982SOL    HW115845   5.362   1.395   5.425 -0.3976  1.5931 -1.0117
 4982SOL    HW215846   5.375   1.501   5.548  0.6614 -1.3304  1.5339
 4983SOL     OW15847   5.477   5.121   3.379  0.0998 -0.3173  0.4669
 4983SOL    HW115848   5.408   5.140   3.309 -0.7225 -0.4351  1.2123
 4983SOL    HW215849   5.501   5.024   3.376 -1.1757 -0.7019  1.3841
 4984SOL     OW15850   4.511   4.537   6.219 -0.3492 -0.3445  0.1645
 4984SOL    HW115851   4.436   4.603   6.229  0.1047  0.2850 -0.4429
 4984SOL    HW215852   4.558   4.554   6.133  1.2322  0.0596  1.0649
 4985SOL     OW15853   4.578   0.032   1.456  0.5598 -0.5558  0.2131
 4985SOL    HW115854   4.624   0.121   1.445  0.8174 -0.6955  0.1562
 4985SOL    HW215855   4.646  -0.037   1.482  0.3678 -0.7486  0.1986
 4986SOL     OW15856   0.955   5.916   2.225  0.5321  0.0969 -0.4928
 4986SOL    HW115857   0.887   5.957   2.164  1.0387 -0.1828 -1.2668
 4986SOL    HW215858   0.972   5.821   2.197  1.8167  0.4025 -0.8233
 4987SOL     OW15859   1.101   3.358   1.808 -0.4010 -0.0819  0.0245
 4987SOL    HW115860   1.136   3.436   1.756  1.8854 -0.8716  0.2560
 4987SOL    HW215861   1.041   3.303   1.749  0.9000 -0.1091 -1.3293
 4988SOL     OW15862   5.723   4.062   4.420  0.4586  0.7432  0.3298
 4988SOL    HW115863   5.760   4.021   4.504 -1.1134  0.2641  0.8239
 4988SOL    HW215864   5.732   4.161   4.424 -0.1231  0.7629  1.3320
 4989SOL     OW15865   0.324   6.785   3.989 -0.6930  0.4842  0.1246
 4989SOL    HW115866   0.280   6.874   3.986 -1.2536  0.2482  0.9496
 4989SOL    HW215867   0.416   6.792   3.950 -0.4020  1.6160  0.9386
 4990SOL     OW15868   4.301   2.902   5.478  0.3907  0.0807 -0.0645
 4990SOL    HW115869   4.334   2.893   5.573  1.4582  2.7553 -0.1023
 4990SOL    HW215870   4.210   2.944   5.479  0.4026  0.1075 -0.2405
 4991SOL     OW15871   1.262   3.697   4.963 -0.8082  0.1571 -0.0078
 4991SOL    HW115872   1.255   3.600   4.983 -0.4841  0.1360  0.0144
 4991SOL    HW215873   1.171   3.738   4.959 -0.8925  0.1169  1.2483
 4992SOL     OW15874   0.545   3.004   5.702 -0.1377  0.2520 -0.3416
 4992SOL    HW115875   0.494   3.065   5.761 -0.3897 -0.5619  0.2955
 4992SOL    HW215876   0.534   3.032   5.606 -1.1915  0.5043 -0.1505
 4993SOL     OW15877   3.397   5.785   1.358 -0.1270 -0.1431 -0.5804
 4993SOL    HW115878   3.300   5.795   1.378  0.0158  0.5712 -0.1894
 4993SOL    HW215879   3.444   5.871   1.381  0.6558 -0.6153 -0.3970
 4994SOL     OW15880   3.145   6.928   6.722  0.1142  0.6017  0.0452
 4994SOL    HW115881   3.131   6.894   6.629  2.4588  0.0717 -0.1803
 4994SOL    HW215882   3.198   7.013   6.718 -0.0359  0.7375  0.8876
 4995SOL     OW15883   1.159   1.950   0.514  0.0863  1.1400  0.1036
 4995SOL    HW115884   1.152   1.894   0.432 -1.8193  0.7867  0.4685
 4995SOL    HW215885   1.193   1.893   0.590 -0.4241  0.8437  0.1159
 4996SOL     OW15886   0.284   1.402   3.980  0.5082  0.1281  0.1780
 4996SOL    HW115887   0.224   1.418   4.059 -0.7112  1.5435 -0.9765
 4996SOL    HW215888   0.330   1.488   3.956  0.3108 -0.1071 -1.0754
 4997SOL     OW15889   3.589   0.734   0.311 -0.6581 -0.2149 -0.2582
 4997SOL    HW115890   3.583   0.683   0.397  0.4258 -0.8721 -0.5564
 4997SOL    HW215891   3.527   0.813   0.315  1.1789  1.2764  2.1504
 4998SOL     OW15892   1.602   4.415   4.893 -0.2936 -0.2893  0.4772
 4998SOL    HW115893   1.553   4.381   4.974  0.1216  2.5185  2.0452
 4998SOL    HW215894   1.695   4.377   4.893  0.1653  0.6845  2.1749
 4999SOL     OW15895   0.513   2.910   1.887  0.0846 -0.2216 -0.3455
 4999SOL    HW115896   0.591   2.971   1.875 -0.0454 -0.2760 -1.6531
 4999SOL    HW215897   0.433   2.949   1.842 -0.1359 -1.0858 -0.7364
 5000SOL     OW15898   2.422   5.314   1.947  0.4203  0.1711 -0.0766
 5000SOL    HW115899   2.491   5.377   1.981  1.8905 -0.7650 -1.1996
 5000SOL    HW215900   2.465   5.246   1.888 -1.5720 -0.0897 -1.3145
 5001SOL     OW15901   6.290   5.838   4.430 -0.5606 -0.3937 -0.4018
 5001SOL    HW115902   6.289   5.767   4.360 -2.0465  1.0188 -1.9064
 5001SOL    HW215903   6.211   5.828   4.490 -1.6660  0.8226 -1.5839
 5002SOL     OW15904   1.984   5.804   4.270  0.0078  0.4366  0.0073
 5002SOL    HW115905   1.918   5.868   4.233 -0.3289 -0.0950 -0.3170
 5002SOL    HW215906   1.938   5.740   4.332  0.2825  0.2889  0.0637
 5003SOL     OW15907   3.904   6.643   0.454 -0.4076 -0.4583 -0.5303
 5003SOL    HW115908   3.877   6.583   0.530 -0.5151  0.0125 -0.1909
 5003SOL    HW215909   3.827   6.653   0.391  0.0233 -1.7247 -1.2907
 5004SOL     OW15910   5.157   5.696   6.641 -0.2569 -0.6291  0.3696
 5004SOL    HW115911   5.186   5.781   6.595 -0.5675 -0.7881 -0.1255
 5004SOL    HW215912   5.216   5.621   6.611 -1.2943 -1.0013 -0.8224
 5005SOL     OW15913   3.468   3.471   6.889  0.0239 -0.1693  0.8996
 5005SOL    HW115914   3.431   3.381   6.912 -0.1592 -0.1085  0.8456
 5005SOL    HW215915   3.546   3.461   6.828 -1.2356 -0.2200 -0.7791
 5006SOL     OW15916   4.238   1.350   2.834 -0.3355 -0.0772  0.2761
 5006SOL    HW115917   4.312   1.285   2.850 -1.2626 -0.4410  4.0615
 5006SOL    HW215918   4.277   1.436   2.801  1.4079 -1.1285 -0.5617
 5007SOL     OW15919   0.738   5.972   3.853 -0.4108  0.1128 -0.6754
 5007SOL    HW115920   0.730   6.046   3.787 -0.3692 -0.9466 -1.9262
 5007SOL    HW215921   0.827   5.927   3.841  0.2434  0.8413  1.1522
 5008SOL     OW15922   3.549   1.574   3.730 -0.1404  0.0390 -0.5440
 5008SOL    HW115923   3.455   1.609   3.731  0.3773  1.4894  0.5180
 5008SOL    HW215924   3.613   1.650   3.734  1.0993 -0.9348 -1.1703
 5009SOL     OW15925   0.435   2.023   6.927 -0.2710 -0.5797 -0.4082
 5009SOL    HW115926   0.470   2.068   6.845 -0.0849 -1.6062 -0.9047
 5009SOL    HW215927   0.456   2.079   7.007 -0.3179  0.3613 -1.0350
 5010SOL     OW15928   5.143   4.265   1.027  0.0059 -0.2925  0.0238
 5010SOL    HW115929   5.134   4.349   1.079 -1.0668 -0.3682 -0.0007
 5010SOL    HW215930   5.221   4.271   0.965  0.0481  0.6077  0.1586
 5011SOL     OW15931   1.549   3.139   4.969 -0.2680 -0.0642 -0.0535
 5011SOL    HW115932   1.520   3.061   4.912 -1.3378  1.1327 -1.2153
 5011SOL    HW215933   1.643   3.163   4.946 -0.5434  0.1288 -1.0437
 5012SOL     OW15934   5.507   3.429   5.344 -0.0514 -0.0484  0.2110
 5012SOL    HW115935   5.604   3.450   5.359 -0.3853  0.6138  1.6150
 5012SOL    HW215936   5.499   3.337   5.304  1.1283 -0.3387  0.5947
 5013SOL     OW15937   1.826   5.024   5.029  0.1921 -0.0699  0.0269
 5013SOL    HW115938   1.833   4.943   4.971  0.7755 -0.7692  1.0534
 5013SOL    HW215939   1.902   5.086   5.008  0.4921 -0.3935  0.1408
 5014SOL     OW15940   6.850   2.348   0.058  0.1947  0.0935  0.3012
 5014SOL    HW115941   6.792   2.283   0.107  0.6535  0.4157  1.3053
 5014SOL    HW215942   6.921   2.299   0.007 -1.0240 -0.3121 -1.0720
 5015SOL     OW15943   6.155   5.989   4.862  0.1695  0.4476  0.6490
 5015SOL    HW115944   6.240   6.041   4.859  1.5796 -1.7355 -1.6533
 5015SOL    HW215945   6.176   5.891   4.868 -2.1915 -0.1488  0.4174
 5016SOL     OW15946   0.990   3.921   1.103  0.2079  0.2648 -0.3354
 5016SOL    HW115947   1.061   3.882   1.162  0.2696 -1.2832 -1.3797
 5016SOL    HW215948   0.922   3.967   1.160  0.6331 -0.5845  0.9115
 5017SOL     OW15949   0.329   3.464   2.517 -0.4035  0.5160  0.5203
 5017SOL    HW115950   0.377   3.547   2.488  1.4363 -0.4851  0.5270
 5017SOL    HW215951   0.329   3.398   2.441 -3.1001  0.9870  0.0190
 5018SOL     OW15952   6.931   0.632   2.353 -0.3434 -0.3342 -0.5086
 5018SOL    HW115953   7.005   0.668   2.297  0.9171 -1.0536  0.6302
 5018SOL    HW215954   6.928   0.533   2.345 -0.3171 -0.4240  0.4779
 5019SOL     OW15955   2.160   4.037   4.591 -0.5387  0.2512 -0.1664
 5019SOL    HW115956   2.194   4.128   4.614 -0.3859  0.8309 -2.4307
 5019SOL    HW215957   2.208   4.003   4.510 -0.6063 -1.8659  0.5975
 5020SOL     OW15958   2.131   5.275   1.789 -0.0903  0.0179 -0.0462
 5020SOL    HW115959   2.104   5.310   1.879 -0.1456  0.1925 -0.1302
 5020SOL    HW215960   2.230   5.281   1.779 -0.0490 -0.3386  0.1438
 5021SOL     OW15961   1.850   0.076   1.916 -0.9096 -0.2935 -0.3981
 5021SOL    HW115962   1.789   0.027   1.978  0.7167 -0.7788  0.8898
 5021SOL    HW215963   1.921   0.014   1.884  0.7580  0.9865  0.6712
 5022SOL     OW15964   0.183   3.908   1.116  0.1481  0.4691  0.1398
 5022SOL    HW115965   0.274   3.949   1.117  0.1809  0.4074 -0.1940
 5022SOL    HW215966   0.118   3.973   1.076 -0.2425  1.0970  1.7308
 5023SOL     OW15967   6.664   1.783   3.210  0.3821 -0.1772  0.1538
 5023SOL    HW115968   6.600   1.741   3.275  0.1261  0.4899  0.3444
 5023SOL    HW215969   6.669   1.727   3.127  1.9766 -1.9626  1.3640
 5024SOL     OW15970   5.798   3.339   0.225  0.1286 -0.0696 -0.4058
 5024SOL    HW115971   5.793   3.309   0.320 -0.5776  0.7614 -0.1656
 5024SOL    HW215972   5.727   3.294   0.171 -0.1229  0.2165 -0.3163
 5025SOL     OW15973   4.292   1.583   4.873 -0.3588 -0.4109  0.0076
 5025SOL    HW115974   4.234   1.534   4.807 -0.6701 -0.6907  0.4863
 5025SOL    HW215975   4.356   1.642   4.823 -2.4680  1.5750 -0.5620
 5026SOL     OW15976   4.471   5.889   3.189  0.0401 -0.2665  0.3818
 5026SOL    HW115977   4.462   5.793   3.163  0.7519 -0.1527 -0.2799
 5026SOL    HW215978   4.425   5.903   3.277 -1.1201 -0.9516 -0.0911
 5027SOL     OW15979   6.804   0.717   0.746  0.0302  0.4458 -0.2728
 5027SOL    HW115980   6.762   0.783   0.807  0.9758 -1.0040  2.1065
 5027SOL    HW215981   6.900   0.742   0.731 -0.0408  0.4732 -0.6867
 5028SOL     OW15982   0.826   2.368   2.129 -0.2395  0.4629  0.1953
 5028SOL    HW115983   0.826   2.268   2.139  0.8834  0.3670 -0.5477
 5028SOL    HW215984   0.915   2.404   2.157 -0.3552  1.1639 -0.3212
 5029SOL     OW15985   5.929   2.251   1.746 -0.1333 -0.4166 -0.4842
 5029SOL    HW115986   5.858   2.223   1.810 -0.9164 -2.1738 -2.0311
 5029SOL    HW215987   5.935   2.350   1.744 -1.9106 -0.2621  0.3276
 5030SOL     OW15988   0.991   2.796   6.729  0.6570  0.2237 -0.4306
 5030SOL    HW115989   1.054   2.861   6.686  0.9063  0.5702  0.4243
 5030SOL    HW215990   0.935   2.844   6.797 -0.8991  0.0225 -1.5195
 5031SOL     OW15991   5.961   0.655   4.740 -0.2563 -0.2108  0.2582
 5031SOL    HW115992   6.019   0.639   4.820 -1.7422  0.2727  1.4778
 5031SOL    HW215993   5.956   0.753   4.722  1.5836 -0.3971 -1.6485
 5032SOL     OW15994   2.047   6.249   0.381  0.4318  0.2286  0.8728
 5032SOL    HW115995   2.118   6.257   0.310  0.1985 -0.1476  0.5870
 5032SOL    HW215996   2.062   6.318   0.451  1.9314 -0.7313  1.5562
 5033SOL     OW15997   3.125   1.278   2.992  0.2911 -0.4705 -0.2356
 5033SOL    HW115998   3.217   1.240   2.979  0.1348 -0.7126 -0.6465
 5033SOL    HW215999   3.120   1.323   3.081  0.2787 -1.9721  0.5429
 5034SOL     OW16000   4.166   5.702   2.942 -0.6636 -0.3255 -0.4750
 5034SOL    HW116001   4.093   5.725   3.007 -0.0836  1.3568 -0.3637
 5034SOL    HW216002   4.252   5.691   2.991 -0.0204  1.8976 -0.9684
 5035SOL     OW16003   0.741   4.759   3.483 -0.0061  0.5728  0.1971
 5035SOL    HW116004   0.794   4.781   3.565  1.5205  1.6418 -1.0302
 5035SOL    HW216005   0.804   4.742   3.407 -1.4312  1.2140 -1.1517
 5036SOL     OW16006   1.076   3.925   4.714 -0.2802 -0.3981  0.0936
 5036SOL    HW116007   1.101   3.829   4.698  0.7306 -0.0234 -0.6642
 5036SOL    HW216008   1.121   3.983   4.646 -0.2466  0.7040  1.0276
 5037SOL     OW16009   6.635   4.130   3.249 -0.2299 -0.6303  0.4570
 5037SOL    HW116010   6.537   4.139   3.231 -0.1671 -1.3114 -0.2632
 5037SOL    HW216011   6.685   4.124   3.162  0.2423 -2.3346  0.8111
 5038SOL     OW16012   3.715   3.219   3.175 -0.1255  0.4995 -0.3830
 5038SOL    HW116013   3.778   3.296   3.178 -0.3921  0.7071  0.1221
 5038SOL    HW216014   3.760   3.138   3.214 -0.6279  1.0082  1.3628
 5039SOL     OW16015   6.972   3.425   0.286 -0.3336 -0.2818 -0.1152
 5039SOL    HW116016   6.995   3.330   0.263  1.8434 -0.2047  1.4622
 5039SOL    HW216017   6.886   3.428   0.336  0.0223 -1.5564  0.6092
 5040SOL     OW16018   1.973   3.174   2.695 -0.2129  0.2261 -0.4585
 5040SOL    HW116019   2.026   3.089   2.703 -0.1464  0.3122  0.0706
 5040SOL    HW216020   1.898   3.172   2.762  0.0042  0.7413 -0.1990
 5041SOL     OW16021   5.927   5.044   1.572  0.2727 -0.0574  0.2722
 5041SOL    HW116022   5.833   5.074   1.583  0.1096 -0.5756  0.3007
 5041SOL    HW216023   5.970   5.035   1.662  0.7329  1.3572  0.2211
 5042SOL     OW16024   2.194   2.880   5.163 -0.0290  0.6260 -0.7592
 5042SOL    HW116025   2.231   2.971   5.144 -1.4245  1.0150 -1.8669
 5042SOL    HW216026   2.244   2.812   5.110  1.1785  0.6947  0.2583
 5043SOL     OW16027   3.022   1.120   1.639 -0.1511  0.3427  0.6483
 5043SOL    HW116028   2.961   1.041   1.638  1.4442 -0.9344 -0.0526
 5043SOL    HW216029   2.996   1.184   1.567  0.6973 -1.3183 -1.2219
 5044SOL     OW16030   2.266   4.633   1.651 -0.0163  0.8743 -0.3236
 5044SOL    HW116031   2.257   4.540   1.615  0.0570  1.1341 -1.0435
 5044SOL    HW216032   2.262   4.631   1.751 -0.3551  0.1388 -0.3451
 5045SOL     OW16033   6.500   3.938   4.168 -0.3969  0.2920  0.2076
 5045SOL    HW116034   6.507   3.851   4.119  0.5059 -0.5073  1.7139
 5045SOL    HW216035   6.523   4.013   4.105 -2.0417 -0.4177 -1.3567
 5046SOL     OW16036   3.285   3.325   1.623 -0.9957  0.1003  0.4970
 5046SOL    HW116037   3.356   3.382   1.664  0.8544 -2.2364  0.7299
 5046SOL    HW216038   3.248   3.263   1.691 -0.7265 -1.0869 -0.3888
 5047SOL     OW16039   3.002   5.386   3.157 -0.1475 -0.5694 -0.1705
 5047SOL    HW116040   2.915   5.354   3.120 -1.2394  1.5079  0.4627
 5047SOL    HW216041   3.013   5.350   3.250  0.3172 -1.8733 -0.7047
 5048SOL     OW16042   0.940   0.233   5.879 -0.1662  0.0882  0.4246
 5048SOL    HW116043   0.942   0.164   5.807  0.0596  2.4073 -1.9572
 5048SOL    HW216044   0.855   0.285   5.874  0.9572  2.0158 -0.0304
 5049SOL     OW16045   4.069   3.412   6.554  0.0040 -0.5303 -0.4071
 5049SOL    HW116046   3.975   3.398   6.524  0.1177  1.9597 -2.2229
 5049SOL    HW216047   4.132   3.378   6.485  0.5328 -2.2873  0.8494
 5050SOL     OW16048   0.037   1.050   2.386  0.1887 -0.4488 -0.2786
 5050SOL    HW116049   0.039   0.950   2.388  2.6989 -0.5660 -2.2514
 5050SOL    HW216050   0.079   1.082   2.300 -0.7886  2.3035  0.1765
 5051SOL     OW16051   4.440   3.509   1.254 -0.6001  0.1247  0.1669
 5051SOL    HW116052   4.345   3.480   1.267 -0.0590 -2.1740 -0.4061
 5051SOL    HW216053   4.459   3.519   1.156 -0.6291  2.0784  0.3381
 5052SOL     OW16054   1.633   2.978   5.194 -0.2657  0.0648  0.1159
 5052SOL    HW116055   1.588   3.048   5.139 -0.8234 -0.7409 -0.4735
 5052SOL    HW216056   1.729   2.970   5.166 -0.6634 -0.6868 -1.1296
 5053SOL     OW16057   6.225   6.490   5.656  0.0685  0.1393  0.4357
 5053SOL    HW116058   6.289   6.507   5.581 -0.4144 -3.2183 -0.9013
 5053SOL    HW216059   6.150   6.557   5.651  0.4583  0.4958 -1.5875
 5054SOL     OW16060   4.773   5.170   2.739 -0.3742  0.3367 -0.4091
 5054SOL    HW116061   4.721   5.201   2.660 -3.4435  1.0208  1.7023
 5054SOL    HW216062   4.753   5.074   2.757 -1.9430  0.8611  1.0113
 5055SOL     OW16063   4.781   5.357   4.827 -0.8532  0.4287  0.6059
 5055SOL    HW116064   4.840   5.367   4.748 -0.9968 -1.7872  0.1596
 5055SOL    HW216065   4.802   5.428   4.894  0.0913  1.6006 -0.8857
 5056SOL     OW16066   0.481   5.152   1.935 -0.4288  0.0260  0.5651
 5056SOL    HW116067   0.423   5.225   1.900 -1.8043 -1.4401 -0.3569
 5056SOL    HW216068   0.446   5.121   2.024  0.2992  0.6378  1.0736
 5057SOL     OW16069   5.548   0.387   4.232  0.4196  0.1384 -0.4443
 5057SOL    HW116070   5.488   0.323   4.279  2.5606 -0.6608  1.3743
 5057SOL    HW216071   5.497   0.471   4.210 -1.7256 -1.1145 -0.4955
 5058SOL     OW16072   0.621   6.538   5.814  0.5777 -0.3035 -0.1155
 5058SOL    HW116073   0.648   6.528   5.718  0.4294 -0.4015 -0.1483
 5058SOL    HW216074   0.591   6.632   5.831 -0.6715 -0.6230 -0.4982
 5059SOL     OW16075   6.160   6.800   1.822  0.3989 -0.2802  0.2430
 5059SOL    HW116076   6.250   6.820   1.784  1.4379 -0.0186  2.6769
 5059SOL    HW216077   6.105   6.883   1.827  0.0900 -0.3915 -0.9841
 5060SOL     OW16078   4.627   2.113   0.666 -0.2498 -0.0071  0.1083
 5060SOL    HW116079   4.690   2.048   0.709 -1.2865 -1.0847  0.0413
 5060SOL    HW216080   4.540   2.113   0.716 -0.6533  0.4787 -0.5780
 5061SOL     OW16081   5.815   3.176   1.301  0.1302  1.0050 -0.2252
 5061SOL    HW116082   5.773   3.085   1.293 -0.1277  1.3204 -3.6557
 5061SOL    HW216083   5.910   3.171   1.271  0.8379  1.5106  1.7475
 5062SOL     OW16084   6.283   1.883   1.703 -0.1948 -0.2224  0.2054
 5062SOL    HW116085   6.234   1.797   1.717 -0.7418  0.1593  0.7177
 5062SOL    HW216086   6.223   1.959   1.729  0.5469  0.2726  0.4898
 5063SOL     OW16087   6.618   0.374   3.021  0.3706  0.0838 -0.1374
 5063SOL    HW116088   6.573   0.284   3.018  0.0659  0.1926  0.8595
 5063SOL    HW216089   6.633   0.406   2.928 -2.4640  0.4446 -0.5591
 5064SOL     OW16090   6.204   3.384   0.808 -0.0001  0.0668  0.3552
 5064SOL    HW116091   6.222   3.466   0.861  0.3118 -1.7658  3.2933
 5064SOL    HW216092   6.108   3.384   0.778  0.4202  2.2300 -1.2826
 5065SOL     OW16093   1.850   5.299   5.844  0.2880 -0.1846  0.1745
 5065SOL    HW116094   1.848   5.201   5.865 -1.1153 -0.3438 -0.5715
 5065SOL    HW216095   1.832   5.351   5.927  1.7593 -0.5105  0.7239
 5066SOL     OW16096   4.679   5.553   0.073 -0.4364 -0.2140 -0.2292
 5066SOL    HW116097   4.709   5.472   0.022 -0.5852 -1.0094  0.8987
 5066SOL    HW216098   4.601   5.529   0.131 -0.9361  0.9279 -0.4021
 5067SOL     OW16099   5.241   6.623   0.681 -0.9470 -0.1487 -0.0123
 5067SOL    HW116100   5.238   6.707   0.626  0.4389 -1.0824 -1.6090
 5067SOL    HW216101   5.268   6.645   0.774  0.5418  1.0912 -0.6928
 5068SOL     OW16102   2.991   4.837   1.904  0.5637 -0.0732  0.2255
 5068SOL    HW116103   3.058   4.847   1.977  1.7086 -2.6432 -0.3554
 5068SOL    HW216104   2.927   4.763   1.927 -0.7266  0.8708 -0.2214
 5069SOL     OW16105   0.097   5.559   1.876  0.7330 -0.6535  0.0530
 5069SOL    HW116106   0.138   5.620   1.943  0.8876 -1.3791  0.6363
 5069SOL    HW216107   0.068   5.611   1.797  1.7268  0.0414  0.1255
 5070SOL     OW16108   4.359   1.579   2.775  0.0417 -0.1030  0.0602
 5070SOL    HW116109   4.373   1.670   2.736 -1.9749  0.5939  0.8165
 5070SOL    HW216110   4.384   1.580   2.871 -1.5051  0.1521  0.4896
 5071SOL     OW16111   5.474   1.175   1.611 -0.8703 -0.0488  0.1375
 5071SOL    HW116112   5.517   1.194   1.699  1.6011 -0.4191 -0.9014
 5071SOL    HW216113   5.395   1.236   1.599  0.0718  1.5909  1.6472
 5072SOL     OW16114   6.962   3.821   2.440  0.0582 -0.0677 -0.5095
 5072SOL    HW116115   7.025   3.748   2.467 -0.9101 -0.5241  0.6005
 5072SOL    HW216116   6.905   3.847   2.518  1.4178  3.0185 -0.3676
 5073SOL     OW16117   4.828   3.053   4.239 -0.6062 -0.4544  0.2955
 5073SOL    HW116118   4.884   3.135   4.249 -0.6117 -0.5458  1.1933
 5073SOL    HW216119   4.787   3.052   4.148 -0.1003  0.2124  0.0459
 5074SOL     OW16120   3.570   4.414   5.823  0.1534 -0.3927  0.7676
 5074SOL    HW116121   3.471   4.419   5.808 -0.1016  2.0949  2.6566
 5074SOL    HW216122   3.605   4.506   5.840  2.8629 -1.2012  0.0364
 5075SOL     OW16123   0.274   5.113   3.277 -0.2519 -0.7848  0.2063
 5075SOL    HW116124   0.283   5.019   3.245 -1.0137 -0.4649 -1.0342
 5075SOL    HW216125   0.313   5.175   3.210 -1.5162 -0.1150  0.0478
 5076SOL     OW16126   4.629   0.107   6.391 -0.1186 -0.3928 -0.3911
 5076SOL    HW116127   4.616   0.051   6.310 -0.9016 -1.0661  0.1840
 5076SOL    HW216128   4.678   0.054   6.460  0.2256  0.0541 -0.2883
 5077SOL     OW16129   5.996   1.405   3.381  0.1171  0.7786  0.3162
 5077SOL    HW116130   6.084   1.358   3.375 -0.9713 -1.2027 -1.2426
 5077SOL    HW216131   5.932   1.351   3.434 -0.8127  1.0693 -0.4789
 5078SOL     OW16132   6.326   2.946   4.929 -0.2379 -0.0436 -0.1859
 5078SOL    HW116133   6.389   2.868   4.936 -0.4954 -0.2121  0.2511
 5078SOL    HW216134   6.331   3.000   5.013 -1.4289 -0.6259  0.2759
 5079SOL     OW16135   5.370   6.208   2.853 -0.6671 -0.0874  0.2919
 5079SOL    HW116136   5.457   6.252   2.828  0.4326 -1.8117  0.8920
 5079SOL    HW216137   5.333   6.252   2.935 -0.2013  0.4829  0.2047
 5080SOL     OW16138   4.394   0.800   5.231 -0.1416  0.2467 -0.8586
 5080SOL    HW116139   4.487   0.799   5.266 -0.2443  0.7758 -0.5537
 5080SOL    HW216140   4.396   0.814   5.132  0.0709  2.8065 -0.5729
 5081SOL     OW16141   3.060   2.958   1.926 -0.3922 -0.1023 -0.0389
 5081SOL    HW116142   2.987   3.026   1.920 -2.3523 -2.1543 -1.4892
 5081SOL    HW216143   3.025   2.870   1.894  2.1032 -1.7544  1.4586
 5082SOL     OW16144   1.684   0.367   5.317  0.5427  0.6853 -0.1239
 5082SOL    HW116145   1.635   0.446   5.280  1.3990  0.6663 -1.3358
 5082SOL    HW216146   1.638   0.283   5.289  1.1017  0.6763 -1.0234
 5083SOL     OW16147   0.838   2.809   3.016 -0.0980 -0.1606  0.4514
 5083SOL    HW116148   0.894   2.822   3.099 -0.2161 -0.3088  0.5547
 5083SOL    HW216149   0.769   2.738   3.033 -0.2656 -0.0362  0.2980
 5084SOL     OW16150   1.398   5.992   2.802 -0.2726 -0.2539  0.0159
 5084SOL    HW116151   1.375   6.082   2.839 -0.8775  0.4293 -1.9189
 5084SOL    HW216152   1.491   5.995   2.765  0.0378 -0.7057  0.7355
 5085SOL     OW16153   6.578   3.218   0.029 -0.1603 -0.4649 -0.9477
 5085SOL    HW116154   6.528   3.281   0.089  1.7805  1.1153 -0.9042
 5085SOL    HW216155   6.665   3.193   0.072 -0.8335 -3.2015 -1.0001
 5086SOL     OW16156   0.266   3.939   4.634  0.3060 -0.1621 -0.1103
 5086SOL    HW116157   0.257   3.885   4.550 -0.1363  2.0069 -1.5661
 5086SOL    HW216158   0.198   3.910   4.700  0.2031 -1.4810 -0.7631
 5087SOL     OW16159   6.170   6.293   5.811  0.2089  0.7544  0.3660
 5087SOL    HW116160   6.084   6.340   5.826  0.0983  0.5985  0.2209
 5087SOL    HW216161   6.225   6.343   5.744 -1.3212 -1.0449 -2.4197
 5088SOL     OW16162   0.362   1.755   6.875 -0.1143  0.0425  0.4916
 5088SOL    HW116163   0.428   1.687   6.909 -1.4079 -1.0004  1.0106
 5088SOL    HW216164   0.401   1.846   6.883  1.3645 -0.5690  0.5415
 5089SOL     OW16165   4.979   4.132   3.989 -0.0767 -0.0085 -0.1060
 5089SOL    HW116166   4.953   4.210   3.932  1.2340  0.4460 -0.1143
 5089SOL    HW216167   4.933   4.050   3.956 -0.0160  0.4094 -1.2867
 5090SOL     OW16168   6.651   2.941   5.226  0.3982  0.2720 -0.2257
 5090SOL    HW116169   6.625   2.950   5.322  0.1141  1.8892 -0.4085
 5090SOL    HW216170   6.708   2.860   5.213 -0.2189 -0.4062  1.1508
 5091SOL     OW16171   6.732   3.544   3.923  0.1874  0.3696 -0.2885
 5091SOL    HW116172   6.733   3.643   3.937 -0.3178  0.3818 -0.3143
 5091SOL    HW216173   6.803   3.518   3.857 -1.2073  1.0030 -2.1178
 5092SOL     OW16174   2.748   3.141   0.636  0.3844  0.5880  0.0351
 5092SOL    HW116175   2.843   3.116   0.654  0.3312 -0.4887 -1.0602
 5092SOL    HW216176   2.691   3.115   0.713  0.8183  0.2792  0.2565
 5093SOL     OW16177   0.191   6.521   1.539  0.1667 -0.2848  0.5878
 5093SOL    HW116178   0.227   6.520   1.446  0.2498  0.1423  0.6128
 5093SOL    HW216179   0.244   6.585   1.595 -1.1283  0.9959  0.4173
 5094SOL     OW16180   1.484   1.110   6.182  0.0968 -0.4447 -0.2028
 5094SOL    HW116181   1.534   1.096   6.096  1.3398  0.4578  0.3398
 5094SOL    HW216182   1.413   1.179   6.169  2.3695  2.1530  0.1873
 5095SOL     OW16183   0.542   0.393   4.897 -0.0908 -0.4289  0.0011
 5095SOL    HW116184   0.578   0.301   4.916 -2.4149 -1.7930 -1.6630
 5095SOL    HW216185   0.613   0.449   4.855  1.1030 -1.7712  0.1588
 5096SOL     OW16186   2.339   6.673   1.886  0.2218  0.0263  0.1521
 5096SOL    HW116187   2.364   6.629   1.973 -1.7229 -0.7263  0.3832
 5096SOL    HW216188   2.338   6.772   1.899  1.2938 -0.0074  0.5977
 5097SOL     OW16189   2.160   2.694   5.898 -0.2196 -0.3262  0.3251
 5097SOL    HW116190   2.069   2.681   5.938 -1.8468  0.4376 -2.7558
 5097SOL    HW216191   2.182   2.616   5.839 -0.4816  0.9594 -1.5793
 5098SOL     OW16192   1.211   2.762   2.593  0.4927 -0.2301 -0.1895
 5098SOL    HW116193   1.237   2.710   2.512 -0.1675  1.2750 -1.4205
 5098SOL    HW216194   1.292   2.777   2.651  1.6012  0.9517 -1.9433
 5099SOL     OW16195   0.950   2.249   4.153 -0.8228 -0.5043 -0.6304
 5099SOL    HW116196   0.859   2.257   4.192 -0.2363 -0.7879  0.8766
 5099SOL    HW216197   1.008   2.194   4.214 -0.2024 -2.0974 -2.5525
 5100SOL     OW16198   6.411   6.056   3.502 -0.2118 -0.1845 -0.4338
 5100SOL    HW116199   6.414   6.154   3.520  0.8558 -0.1705 -0.6313
 5100SOL    HW216200   6.421   6.006   3.588 -1.8944 -0.1493 -0.1749
 5101SOL     OW16201   5.439   0.532   0.382  0.0028  0.4368 -0.1778
 5101SOL    HW116202   5.510   0.546   0.451  0.5930  1.3947 -0.9596
 5101SOL    HW216203   5.459   0.450   0.328 -0.0069  0.1664  0.2279
 5102SOL     OW16204   4.189   5.944   1.322 -0.6161  0.4553  0.7243
 5102SOL    HW116205   4.104   5.908   1.361 -0.7185 -0.3985 -0.2360
 5102SOL    HW216206   4.258   5.871   1.319  0.3901  1.2895  2.0641
 5103SOL     OW16207   2.080   1.257   3.085 -0.0123  0.4388  0.4794
 5103SOL    HW116208   2.004   1.294   3.139 -2.6065 -1.6834 -1.4441
 5103SOL    HW216209   2.090   1.159   3.103 -0.7570 -0.2794 -2.4844
 5104SOL     OW16210   1.079   6.851   6.943  0.0884 -0.2998 -0.1664
 5104SOL    HW116211   1.087   6.927   6.878  0.1255  0.4588  0.7175
 5104SOL    HW216212   1.002   6.793   6.916  0.4346 -0.3028 -1.2009
 5105SOL     OW16213   1.939   3.389   0.793 -0.8111 -0.5302  0.3672
 5105SOL    HW116214   1.959   3.388   0.696 -1.5976  0.1179  0.1868
 5105SOL    HW216215   1.993   3.319   0.839  1.0262  0.4321 -0.2323
 5106SOL     OW16216   3.191   0.379   2.942  0.5555  0.8559 -0.4202
 5106SOL    HW116217   3.168   0.356   2.848 -2.8853 -1.9389  0.8752
 5106SOL    HW216218   3.263   0.317   2.975  1.4090  1.5102 -1.0251
 5107SOL     OW16219   6.641   5.188   6.267  0.1063  0.2481  0.3011
 5107SOL    HW116220   6.564   5.216   6.324  0.0356  1.5444 -0.3700
 5107SOL    HW216221   6.657   5.259   6.198  0.9526 -0.7107 -0.5070
 5108SOL     OW16222   3.152   3.650   4.046 -0.1772  0.2995 -0.3976
 5108SOL    HW116223   3.245   3.614   4.039 -0.3090 -0.2050  0.3747
 5108SOL    HW216224   3.108   3.646   3.956 -0.1123 -1.2813 -0.3897
 5109SOL     OW16225   0.494   3.442   1.014 -0.0880  0.2327 -0.6172
 5109SOL    HW116226   0.514   3.344   1.016 -0.7237  0.0880 -1.0755
 5109SOL    HW216227   0.566   3.490   0.964  1.0541  0.2232  0.9335
 5110SOL     OW16228   2.054   5.743   5.630 -0.4058 -0.5774  0.0244
 5110SOL    HW116229   1.965   5.705   5.655 -0.4229 -0.5787 -0.0391
 5110SOL    HW216230   2.041   5.831   5.584 -0.4031 -0.8595 -0.5208
 5111SOL     OW16231   1.629   0.314   0.455 -0.2086 -0.3911  0.7374
 5111SOL    HW116232   1.534   0.321   0.486  0.5011 -1.6828  3.5303
 5111SOL    HW216233   1.677   0.399   0.475 -0.1756 -0.6239  1.6647
 5112SOL     OW16234   2.796   0.029   3.506  0.3602 -0.0429 -0.9146
 5112SOL    HW116235   2.887  -0.008   3.524 -0.5626 -1.9379  0.1955
 5112SOL    HW216236   2.802   0.128   3.489  2.6420 -0.2190 -1.3691
 5113SOL     OW16237   5.369   2.455   0.824 -0.2690  0.1023  0.4986
 5113SOL    HW116238   5.286   2.447   0.769 -0.4257 -1.3200  0.9016
 5113SOL    HW216239   5.354   2.413   0.913  0.6923  0.3825  0.8017
 5114SOL     OW16240   5.495   5.352   5.993 -0.1347  0.5208 -0.2802
 5114SOL    HW116241   5.581   5.331   6.040 -0.3323 -1.3042 -0.6815
 5114SOL    HW216242   5.418   5.322   6.048 -0.4225 -0.0991 -1.0016
 5115SOL     OW16243   3.270   3.413   4.840 -0.4518  0.6999  0.3253
 5115SOL    HW116244   3.243   3.508   4.823 -1.1736  0.7839  1.7603
 5115SOL    HW216245   3.338   3.410   4.913 -1.4779  0.0601  1.3019
 5116SOL     OW16246   5.686   5.609   1.203 -0.1532  0.4220 -0.3292
 5116SOL    HW116247   5.746   5.620   1.124  0.0146  1.5886 -0.0575
 5116SOL    HW216248   5.715   5.530   1.257  0.8549  0.7032 -0.4482
 5117SOL     OW16249   1.324   6.876   2.301  0.0398  0.1939 -0.3125
 5117SOL    HW116250   1.339   6.969   2.334 -0.9087  0.3741 -0.3722
 5117SOL    HW216251   1.226   6.858   2.294  0.2149 -0.7654 -0.4383
 5118SOL     OW16252   4.838   6.116   0.623 -0.6359  0.5541 -0.2848
 5118SOL    HW116253   4.767   6.048   0.645 -1.2265  0.7756 -1.4472
 5118SOL    HW216254   4.828   6.194   0.685 -0.0076 -0.3503  1.0052
 5119SOL     OW16255   5.183   0.662   2.580  0.0833 -0.7580  0.4612
 5119SOL    HW116256   5.090   0.700   2.580  1.2571  2.5288  2.4353
 5119SOL    HW216257   5.195   0.603   2.660 -0.1912 -0.8333  0.4480
 5120SOL     OW16258   3.408   0.570   2.585  0.1598  0.1060  0.3885
 5120SOL    HW116259   3.328   0.619   2.620 -0.1327 -1.0837  1.4305
 5120SOL    HW216260   3.463   0.633   2.530 -0.5990  1.3938  1.0523
 5121SOL     OW16261   1.859   4.080   3.557  0.3083 -0.4213 -0.0417
 5121SOL    HW116262   1.889   4.169   3.523  2.9958 -1.2195  0.0408
 5121SOL    HW216263   1.822   4.026   3.482 -0.4243  0.3801 -0.2761
 5122SOL     OW16264   1.913   6.096   2.720 -0.4387 -0.0393 -0.6098
 5122SOL    HW116265   1.949   6.153   2.646 -0.1683 -1.3970 -1.5646
 5122SOL    HW216266   1.989   6.049   2.765 -0.7562 -0.6053 -0.6564
 5123SOL     OW16267   5.919   3.941   1.973  1.0564 -0.2559 -0.0013
 5123SOL    HW116268   5.836   3.997   1.973  0.7191 -0.7591 -0.0729
 5123SOL    HW216269   5.909   3.866   2.038  1.5411 -0.1948  0.1517
 5124SOL     OW16270   4.040   6.188   6.631 -0.5832  0.0228 -0.2089
 5124SOL    HW116271   3.975   6.121   6.665 -0.2661  0.1101  0.5801
 5124SOL    HW216272   3.991   6.268   6.596 -0.9113 -0.0057  0.1840
 5125SOL     OW16273   6.755   1.938   6.686 -0.1982 -0.3489 -0.1921
 5125SOL    HW116274   6.676   1.878   6.697 -0.7943  0.3092 -0.8319
 5125SOL    HW216275   6.730   2.031   6.712  0.7318 -0.3597  0.8267
 5126SOL     OW16276   2.432   0.743   1.184  0.3455  0.3752  0.5636
 5126SOL    HW116277   2.446   0.776   1.278 -0.0787 -0.0866  0.7896
 5126SOL    HW216278   2.519   0.710   1.147  0.6208  1.0376  0.6064
 5127SOL     OW16279   5.057   4.781   5.127  0.1312  0.2016 -0.2446
 5127SOL    HW116280   5.012   4.739   5.205  1.2918 -0.9174 -0.1383
 5127SOL    HW216281   5.023   4.875   5.114 -1.4744 -0.2649  0.3885
 5128SOL     OW16282   6.121   0.463   0.459  0.1126 -0.2119  0.1512
 5128SOL    HW116283   6.150   0.413   0.378 -1.9980 -0.3127 -0.6023
 5128SOL    HW216284   6.155   0.557   0.455  1.0417 -0.5624 -0.2318
 5129SOL     OW16285   5.330   2.600   5.060 -0.2127  0.6866 -0.0037
 5129SOL    HW116286   5.280   2.687   5.058  0.3425  1.0070 -0.1450
 5129SOL    HW216287   5.411   2.610   5.117  0.7577  0.7735 -1.3488
 5130SOL     OW16288   1.378   6.871   4.871 -0.5051  0.5834 -0.5912
 5130SOL    HW116289   1.471   6.872   4.833 -0.1501  1.4356  0.2700
 5130SOL    HW216290   1.324   6.801   4.824  0.4640  0.3194 -1.3491
 5131SOL     OW16291   4.241   5.617   1.703 -0.3499 -0.7348 -0.3968
 5131SOL    HW116292   4.269   5.528   1.740  0.0007 -0.5081 -0.1164
 5131SOL    HW216293   4.161   5.604   1.644 -0.4944 -1.1943 -0.1090
 5132SOL     OW16294   3.170   1.292   5.936  0.4851 -0.5769  0.0267
 5132SOL    HW116295   3.212   1.319   5.849 -0.2137  0.2366 -0.0703
 5132SOL    HW216296   3.080   1.254   5.919  0.3187 -0.3522  0.3975
 5133SOL     OW16297   3.625   3.471   6.680  0.2966  0.5236  0.6524
 5133SOL    HW116298   3.710   3.513   6.712  0.2585  2.4450 -1.5496
 5133SOL    HW216299   3.644   3.416   6.598 -0.5109  0.6614  0.3639
 5134SOL     OW16300   5.938   3.514   0.492  0.1154  0.1321 -0.2871
 5134SOL    HW116301   6.037   3.532   0.491  0.2509 -0.3713 -2.6508
 5134SOL    HW216302   5.889   3.600   0.503  0.8451  1.0806 -3.2920
 5135SOL     OW16303   1.760   2.132   2.601  0.2869  0.3042 -0.4229
 5135SOL    HW116304   1.735   2.135   2.698 -1.2290 -0.2686 -0.7608
 5135SOL    HW216305   1.727   2.214   2.555  1.7844  1.0046 -0.3185
 5136SOL     OW16306   0.191   0.017   3.932  0.7337  0.7158 -0.2672
 5136SOL    HW116307   0.131   0.093   3.957  0.0986  0.5835 -1.3145
 5136SOL    HW216308   0.286   0.047   3.932  0.6541  1.0180  1.0846
 5137SOL     OW16309   5.182   1.058   2.391  0.1854  0.1714 -0.2329
 5137SOL    HW116310   5.185   1.157   2.401 -0.2014  0.2777 -1.1069
 5137SOL    HW216311   5.190   1.034   2.294  1.5317 -0.7014  0.0586
 5138SOL     OW16312   3.097   3.264   2.356 -0.3509 -0.7551 -0.9429
 5138SOL    HW116313   3.177   3.319   2.380  0.8159 -2.4004 -0.8417
 5138SOL    HW216314   3.033   3.319   2.302 -0.2780  1.2809  0.9388
 5139SOL     OW16315   5.496   0.606   5.504  0.3278  0.6384 -0.8808
 5139SOL    HW116316   5.493   0.565   5.595 -0.1727  1.1559 -0.6615
 5139SOL    HW216317   5.466   0.701   5.509 -2.5659 -0.1108 -1.9983
 5140SOL     OW16318   2.963   3.201   5.709 -0.3256 -0.3621 -0.2903
 5140SOL    HW116319   3.029   3.126   5.707  0.6797  0.4519  0.8829
 5140SOL    HW216320   2.943   3.231   5.615  0.7816 -0.7937 -0.6717
 5141SOL     OW16321   1.894   2.099   0.404  0.5761  0.3189 -0.3992
 5141SOL    HW116322   1.912   2.047   0.321  0.8315  0.0100 -0.1546
 5141SOL    HW216323   1.805   2.073   0.442  0.8299 -0.1539 -0.1211
 5142SOL     OW16324   5.499   6.985   3.643  0.3526  0.5029 -0.0530
 5142SOL    HW116325   5.408   7.027   3.638  0.4640  0.6996 -0.4173
 5142SOL    HW216326   5.523   6.947   3.554  0.2496 -0.3505  0.2714
 5143SOL     OW16327   5.584   7.007   0.655 -0.0334  0.7925  0.0277
 5143SOL    HW116328   5.547   6.946   0.726 -1.9973 -1.2180 -2.5030
 5143SOL    HW216329   5.537   7.095   0.660  0.6466  1.1009  1.8450
 5144SOL     OW16330   1.555   1.175   4.548 -0.0804  0.1931  0.3177
 5144SOL    HW116331   1.501   1.193   4.466  0.2421 -3.1775 -0.7900
 5144SOL    HW216332   1.606   1.257   4.573 -1.8640  1.9723 -1.5324
 5145SOL     OW16333   6.905   5.109   0.287 -0.0999  0.0643  0.4826
 5145SOL    HW116334   6.847   5.147   0.359  0.4693  0.3884  0.7731
 5145SOL    HW216335   6.998   5.145   0.296  0.3944 -1.2060  0.6195
 5146SOL     OW16336   4.706   5.098   0.756 -0.6041 -0.5437 -0.9555
 5146SOL    HW116337   4.743   5.168   0.695  0.6044 -0.8884 -0.6460
 5146SOL    HW216338   4.616   5.127   0.789 -0.8598  0.0749 -2.1511
 5147SOL     OW16339   3.656   0.951   3.542  0.0284 -0.2859 -0.3593
 5147SOL    HW116340   3.593   0.877   3.567  0.1122 -0.2653 -0.0779
 5147SOL    HW216341   3.615   1.039   3.565  0.4859 -0.3065  0.5832
 5148SOL     OW16342   0.873   0.322   2.492 -0.1650 -0.3960  0.4024
 5148SOL    HW116343   0.924   0.288   2.413  1.6414  1.1915  0.8138
 5148SOL    HW216344   0.844   0.244   2.548  1.2688 -1.4132 -0.1966
 5149SOL     OW16345   4.010   0.807   2.787  0.2486  0.2837  0.0540
 5149SOL    HW116346   3.939   0.828   2.854 -2.3587  0.9197 -2.7291
 5149SOL    HW216347   4.034   0.710   2.793 -1.1636 -0.0378  0.7582
 5150SOL     OW16348   1.291   1.825   3.931 -0.2152  0.2619  0.7099
 5150SOL    HW116349   1.216   1.873   3.885  0.4165 -0.8505 -1.6460
 5150SOL    HW216350   1.374   1.880   3.925 -0.1258  0.1034  0.4823
 5151SOL     OW16351   6.407   5.064   3.211 -0.7753 -0.2424 -0.3293
 5151SOL    HW116352   6.388   5.125   3.288 -2.0630 -1.4936  0.3947
 5151SOL    HW216353   6.365   4.975   3.228 -0.0465 -0.9342 -1.9455
 5152SOL     OW16354   2.231   0.845   2.168  0.3201 -0.0489 -0.1667
 5152SOL    HW116355   2.323   0.828   2.133  0.4968  1.6784 -0.6309
 5152SOL    HW216356   2.166   0.846   2.092  0.2967  1.0896 -0.1438
 5153SOL     OW16357   2.301   6.932   1.941  0.0350 -0.6137 -0.7369
 5153SOL    HW116358   2.384   6.982   1.968  0.3466 -1.1574 -0.6724
 5153SOL    HW216359   2.227   6.953   2.005  0.4115 -0.9121 -0.1930
 5154SOL     OW16360   1.316   2.950   6.862  0.2093  0.1694 -0.0184
 5154SOL    HW116361   1.406   2.912   6.843  0.4494  0.6577  0.1310
 5154SOL    HW216362   1.288   3.008   6.785 -0.2818 -0.5234 -0.3785
 5155SOL     OW16363   1.561   0.430   0.951  0.0275  0.6751  0.4989
 5155SOL    HW116364   1.551   0.375   1.034  0.2371 -0.2299 -0.0612
 5155SOL    HW216365   1.659   0.439   0.929  0.0311  1.7873  0.9126
 5156SOL     OW16366   5.257   3.007   4.253 -0.1940  0.0365 -0.1144
 5156SOL    HW116367   5.166   2.975   4.279 -1.0832  2.4177 -0.0483
 5156SOL    HW216368   5.268   3.102   4.282  1.8945  0.1673 -1.1718
 5157SOL     OW16369   4.443   2.357   1.845  0.1598  0.2061 -0.4321
 5157SOL    HW116370   4.450   2.272   1.793  1.7088 -1.4617  2.2041
 5157SOL    HW216371   4.534   2.382   1.879 -0.1052  3.4398 -1.7278
 5158SOL     OW16372   6.186   3.933   1.179  0.0411  0.2278 -0.3322
 5158SOL    HW116373   6.201   4.009   1.115 -1.1982  0.5537 -0.2658
 5158SOL    HW216374   6.122   3.868   1.138 -0.6828  0.3867  0.5201
 5159SOL     OW16375   0.393   5.549   5.407 -0.4439  0.1120  0.4560
 5159SOL    HW116376   0.408   5.452   5.425 -2.5062 -0.5498 -1.0244
 5159SOL    HW216377   0.364   5.595   5.491 -0.0413 -0.6884  1.0364
 5160SOL     OW16378   6.026   0.060   2.579 -0.0863 -0.3889 -0.1329
 5160SOL    HW116379   5.964   0.080   2.503  0.6617 -0.5957 -0.8084
 5160SOL    HW216380   5.973   0.031   2.658 -0.9484  0.8335 -0.2382
 5161SOL     OW16381   1.738   0.552   0.557 -0.0329 -0.7135  0.6059
 5161SOL    HW116382   1.742   0.651   0.568 -0.7175 -0.6746  0.5391
 5161SOL    HW216383   1.788   0.508   0.632  1.1499 -0.3064  0.0936
 5162SOL     OW16384   5.206   6.881   0.602 -0.2831 -0.1362 -0.4822
 5162SOL    HW116385   5.209   6.981   0.612 -2.0393 -0.1690  0.9360
 5162SOL    HW216386   5.112   6.852   0.583 -0.1254 -1.6247  0.7816
 5163SOL     OW16387   4.268   1.988   0.038 -0.2067 -0.1616 -0.1199
 5163SOL    HW116388   4.225   1.992   0.129 -0.9112 -2.2676 -0.3059
 5163SOL    HW216389   4.249   2.073  -0.011 -1.4486  0.2590  1.0107
 5164SOL     OW16390   2.385   2.081   6.509 -0.6515  0.1155 -0.1950
 5164SOL    HW116391   2.397   2.128   6.421 -0.7453  0.1382 -0.1956
 5164SOL    HW216392   2.325   2.002   6.497  0.1923 -0.5156 -0.3696
 5165SOL     OW16393   0.802   6.963   5.957 -0.6666  0.6927  0.4812
 5165SOL    HW116394   0.868   6.892   5.980 -2.5260 -1.2218  0.2095
 5165SOL    HW216395   0.833   7.013   5.877  0.7901  0.3716  0.8154
 5166SOL     OW16396   3.980   5.729   0.242 -0.1753  0.4875  0.0242
 5166SOL    HW116397   3.907   5.715   0.310 -1.0815 -0.3664 -1.0714
 5166SOL    HW216398   4.030   5.643   0.229 -1.8555 -0.2400 -2.3861
 5167SOL     OW16399   5.067   1.849   6.740  0.3485  0.2806  0.0506
 5167SOL    HW116400   4.985   1.867   6.795  0.3564  0.6855 -0.0637
 5167SOL    HW216401   5.053   1.886   6.648  1.2055  1.6444  0.4435
 5168SOL     OW16402   6.297   1.734   2.504  0.3822 -0.4257  0.2095
 5168SOL    HW116403   6.245   1.679   2.569  1.1386 -1.9506 -0.4160
 5168SOL    HW216404   6.236   1.762   2.429  0.5043 -2.8376 -0.9129
 5169SOL     OW16405   3.667   6.260   5.680 -0.2073  0.1449 -0.6886
 5169SOL    HW116406   3.739   6.213   5.732 -0.9117 -0.8365 -0.5870
 5169SOL    HW216407   3.697   6.353   5.661  0.5939  0.1324  0.3851
 5170SOL     OW16408   2.722   2.434   5.434 -0.2304 -0.2163  0.3228
 5170SOL    HW116409   2.678   2.344   5.437 -3.0866  1.0367 -0.9231
 5170SOL    HW216410   2.713   2.478   5.523 -2.4095  0.3706 -0.1408
 5171SOL     OW16411   2.208   0.075   6.040 -0.1986  0.5105 -0.3374
 5171SOL    HW116412   2.131   0.091   5.979 -0.7011  0.0803  0.1688
 5171SOL    HW216413   2.293   0.105   5.996 -0.7362  1.7024 -0.5952
 5172SOL     OW16414   4.566   0.002   0.262  0.8175  0.4597 -0.3483
 5172SOL    HW116415   4.564   0.048   0.351 -1.8474  0.5075 -0.3374
 5172SOL    HW216416   4.481   0.021   0.213  2.1449  0.3003 -2.8831
 5173SOL     OW16417   4.580   6.617   4.300 -0.6438 -0.0384 -0.3898
 5173SOL    HW116418   4.525   6.629   4.382 -1.0727  0.6174 -0.7624
 5173SOL    HW216419   4.639   6.537   4.310  1.1605  1.4131  1.5972
 5174SOL     OW16420   2.210   5.328   3.855  0.0646 -0.2899 -0.2749
 5174SOL    HW116421   2.122   5.282   3.845  0.3013 -0.9764  0.6992
 5174SOL    HW216422   2.210   5.381   3.940 -0.1639  1.4665 -1.3180
 5175SOL     OW16423   3.302   3.142   5.556  0.1626  0.5140 -0.1646
 5175SOL    HW116424   3.219   3.145   5.500 -0.5391  1.6629  0.8962
 5175SOL    HW216425   3.379   3.176   5.502 -0.2125  0.2184 -0.9013
 5176SOL     OW16426   5.063   1.085   6.891  0.0394 -0.0488  0.1228
 5176SOL    HW116427   5.086   1.170   6.938  0.0198 -0.0282  0.0952
 5176SOL    HW216428   5.077   1.008   6.954 -2.4464  0.1653  1.0317
 5177SOL     OW16429   5.220   5.203   1.961 -0.5061  0.0463 -0.2705
 5177SOL    HW116430   5.302   5.148   1.966  0.2197  1.1776  1.2917
 5177SOL    HW216431   5.142   5.150   1.994 -0.2252 -0.6932 -0.7729
 5178SOL     OW16432   1.994   2.580   1.841 -0.1941  0.4253 -0.5617
 5178SOL    HW116433   2.082   2.626   1.826  0.6380 -1.0474 -0.3602
 5178SOL    HW216434   1.932   2.602   1.766  0.4208  1.2853 -0.8350
 5179SOL     OW16435   3.765   6.041   2.267 -0.0542 -0.2158 -0.5986
 5179SOL    HW116436   3.773   5.983   2.186  0.8524  0.7911 -1.2675
 5179SOL    HW216437   3.727   6.130   2.240 -0.7303 -0.2348  0.2710
 5180SOL     OW16438   3.776   6.255   3.378 -0.1183 -0.1725  0.5585
 5180SOL    HW116439   3.690   6.283   3.337  0.9914  0.6945 -1.3210
 5180SOL    HW216440   3.768   6.160   3.410 -1.6858 -0.1867  0.2111
 5181SOL     OW16441   6.571   0.934   4.660  0.0165  0.1060  0.7087
 5181SOL    HW116442   6.488   0.896   4.701 -0.5692 -0.1608 -0.6821
 5181SOL    HW216443   6.587   0.891   4.571  0.3572  1.7976 -0.0912
 5182SOL     OW16444   1.829   4.042   2.140  0.0803  0.4761 -0.2690
 5182SOL    HW116445   1.910   4.099   2.129 -0.1685  1.1120  0.9481
 5182SOL    HW216446   1.746   4.098   2.128 -0.2080 -0.2976 -2.1322
 5183SOL     OW16447   4.555   1.632   1.480 -0.3036  0.1113  0.7832
 5183SOL    HW116448   4.477   1.691   1.458 -0.5313 -0.4211  0.1044
 5183SOL    HW216449   4.549   1.603   1.575 -1.3237 -0.4896  0.5478
 5184SOL     OW16450   4.347   6.731   1.964 -0.2693 -0.1684 -0.2706
 5184SOL    HW116451   4.326   6.734   1.866  2.6444  1.3670 -0.9678
 5184SOL    HW216452   4.422   6.667   1.980 -0.1046  0.2770  0.8102
 5185SOL     OW16453   4.771   1.932   1.024 -0.4108 -0.5485 -0.0459
 5185SOL    HW116454   4.766   1.910   0.927 -0.9411  1.4712 -0.5157
 5185SOL    HW216455   4.816   1.857   1.073 -1.1280 -2.0885 -1.6534
 5186SOL     OW16456   7.012   1.342   5.733 -0.4463  0.0588  0.2515
 5186SOL    HW116457   7.099   1.338   5.683  0.9059  2.3183  2.1986
 5186SOL    HW216458   6.936   1.331   5.669  1.2395  0.0979 -1.8547
 5187SOL     OW16459   2.239   4.284   4.626 -0.4586  0.7521 -0.3393
 5187SOL    HW116460   2.152   4.329   4.604 -0.5483  1.1430  0.7892
 5187SOL    HW216461   2.301   4.350   4.667  0.7868  0.7421 -2.0806
 5188SOL     OW16462   0.363   5.881   2.726  1.0934  0.2355 -0.4158
 5188SOL    HW116463   0.323   5.934   2.652  0.5627 -2.2685 -2.0528
 5188SOL    HW216464   0.463   5.884   2.720  1.0511  0.1030 -1.1932
 5189SOL     OW16465   3.020   6.268   5.458  0.1404 -0.6245  0.4590
 5189SOL    HW116466   3.095   6.328   5.486  1.4549 -1.8859 -0.2025
 5189SOL    HW216467   2.960   6.317   5.395 -0.1111  0.6873  1.6661
 5190SOL     OW16468   1.825   5.820   0.241 -0.1694 -0.2831  0.0328
 5190SOL    HW116469   1.825   5.844   0.144  1.5180 -0.9392 -0.1626
 5190SOL    HW216470   1.878   5.888   0.292 -0.3407 -0.3967  0.3663
 5191SOL     OW16471   3.628   3.965   1.732  0.1883 -0.1243 -0.1897
 5191SOL    HW116472   3.549   3.939   1.786 -0.2816 -0.2270 -0.9172
 5191SOL    HW216473   3.711   3.927   1.774 -0.0426  0.6543  1.0192
 5192SOL     OW16474   0.926   4.258   1.839  0.0286 -0.0439 -0.0968
 5192SOL    HW116475   0.992   4.267   1.765  0.8484 -1.0491  0.4749
 5192SOL    HW216476   0.866   4.180   1.821  0.4193 -0.4755  0.4025
 5193SOL     OW16477   2.978   1.167   5.661 -0.3401 -0.2135  0.6014
 5193SOL    HW116478   3.037   1.211   5.593 -0.3028 -0.5306  0.4237
 5193SOL    HW216479   2.900   1.226   5.681 -0.6495 -0.3485 -0.1425
 5194SOL     OW16480   4.965   1.264   5.199  0.3875 -0.2621 -0.2699
 5194SOL    HW116481   4.909   1.218   5.131  0.7952 -2.1127  0.6067
 5194SOL    HW216482   4.925   1.353   5.220  0.2980  0.4342 -2.9528
 5195SOL     OW16483   2.764   2.026   5.689  0.2482 -0.2852  0.5704
 5195SOL    HW116484   2.693   2.043   5.757  0.2513 -0.7959  0.7032
 5195SOL    HW216485   2.827   2.104   5.686 -0.1333  0.0265  0.6796
 5196SOL     OW16486   5.537   6.691   1.078 -0.2409 -0.1772 -0.1978
 5196SOL    HW116487   5.573   6.778   1.113  0.4309 -0.8218  0.7666
 5196SOL    HW216488   5.504   6.636   1.154 -0.5233 -0.8312 -0.7869
 5197SOL     OW16489   2.861   3.807   5.175 -0.6296  0.4503 -0.0221
 5197SOL    HW116490   2.855   3.857   5.089 -0.6764 -0.1327 -0.3617
 5197SOL    HW216491   2.771   3.802   5.218 -0.4132  1.6826  0.6068
 5198SOL     OW16492   0.982   6.184   4.129  0.5787  0.0039 -0.2194
 5198SOL    HW116493   1.004   6.090   4.100  0.3997  0.4199 -1.8147
 5198SOL    HW216494   0.909   6.220   4.071 -1.2932  0.2197  2.1158
 5199SOL     OW16495   0.880   4.008   2.116  0.3650  0.0148 -0.2954
 5199SOL    HW116496   0.863   3.957   2.200 -0.0016  2.0791  0.9463
 5199SOL    HW216497   0.844   4.101   2.125 -0.0545  0.1900 -2.9062
 5200SOL     OW16498   0.494   5.014   4.869  0.2452  0.2140 -0.4040
 5200SOL    HW116499   0.472   5.111   4.860  0.9533  0.3886 -0.3036
 5200SOL    HW216500   0.421   4.960   4.828 -0.4027  0.7719  0.0001
 5201SOL     OW16501   0.299   5.668   3.864  0.4314 -0.2643  0.1613
 5201SOL    HW116502   0.333   5.752   3.905 -0.1446 -1.0396  2.3649
 5201SOL    HW216503   0.373   5.600   3.861  0.4593 -0.2254 -0.0464
 5202SOL     OW16504   0.156   4.575   0.479  0.2634 -0.1189 -0.4280
 5202SOL    HW116505   0.170   4.666   0.518  0.9822 -0.2178 -0.4449
 5202SOL    HW216506   0.244   4.529   0.467 -0.0354 -0.5453 -1.0812
 5203SOL     OW16507   6.854   4.821   6.369  0.5016  0.0213  0.0450
 5203SOL    HW116508   6.803   4.747   6.326  0.8928 -0.1129 -0.1935
 5203SOL    HW216509   6.862   4.897   6.305 -1.3581  0.9649  0.8672
 5204SOL     OW16510   4.898   3.591   6.135  0.0955  0.1870  0.2631
 5204SOL    HW116511   4.856   3.547   6.215 -0.7156  0.1792 -0.1623
 5204SOL    HW216512   4.859   3.682   6.123 -3.2837 -1.4710 -2.8216
 5205SOL     OW16513   1.543   0.138   0.262  0.4184  0.0973  0.5681
 5205SOL    HW116514   1.592   0.204   0.319 -1.3247  1.8898  0.1235
 5205SOL    HW216515   1.538   0.173   0.168 -1.4349 -0.1205  0.5450
 5206SOL     OW16516   6.667   3.280   5.529  0.1002  0.1603  0.2885
 5206SOL    HW116517   6.737   3.216   5.497  0.0304 -0.0529  0.5553
 5206SOL    HW216518   6.686   3.305   5.624  1.0633  1.8307 -0.2981
 5207SOL     OW16519   0.771   0.116   1.414  0.1619  0.2011  0.2630
 5207SOL    HW116520   0.827   0.038   1.440  0.9252  0.6645  0.0557
 5207SOL    HW216521   0.691   0.123   1.475 -0.3541 -1.1945 -0.2209
 5208SOL     OW16522   4.766   2.270   0.998  0.1512 -0.4829 -0.3216
 5208SOL    HW116523   4.850   2.217   1.011  0.8247  0.5787 -0.2180
 5208SOL    HW216524   4.775   2.359   1.044 -0.9457 -0.2579 -0.5070
 5209SOL     OW16525   0.025   6.381   4.963 -0.3297  0.0934  0.1391
 5209SOL    HW116526   0.083   6.450   5.006 -0.9686  0.2400  0.8031
 5209SOL    HW216527   0.058   6.362   4.871  0.0881  1.0064  0.0848
 5210SOL     OW16528   6.139   4.013   5.103  0.2771 -0.2992  0.5197
 5210SOL    HW116529   6.163   4.105   5.070  1.3535 -0.5075  0.7026
 5210SOL    HW216530   6.202   3.946   5.065 -0.4300 -0.9651  0.4846
 5211SOL     OW16531   1.520   4.444   2.609 -0.4608 -0.1570 -0.9691
 5211SOL    HW116532   1.559   4.406   2.526 -0.1378 -2.2310  0.0545
 5211SOL    HW216533   1.420   4.450   2.600 -0.2465  3.1687 -2.7994
 5212SOL     OW16534   1.261   1.221   0.138  0.4020  0.7352  0.3377
 5212SOL    HW116535   1.269   1.146   0.204  2.4335 -0.0393 -0.7000
 5212SOL    HW216536   1.297   1.305   0.178  2.2001  0.1311  0.0865
 5213SOL     OW16537   4.826   1.212   5.717  0.1957  0.3636 -0.6944
 5213SOL    HW116538   4.750   1.255   5.766 -0.4259 -0.7113 -0.6910
 5213SOL    HW216539   4.790   1.145   5.652  1.0619  1.0763 -1.9470
 5214SOL     OW16540   5.154   1.280   0.545 -0.3617  0.3691 -0.0966
 5214SOL    HW116541   5.139   1.344   0.470 -0.7515  0.8964  0.4164
 5214SOL    HW216542   5.066   1.239   0.571 -0.1267 -0.3226 -0.3722
 5215SOL     OW16543   6.045   5.460   5.288 -0.5176  0.2590 -0.4162
 5215SOL    HW116544   6.041   5.560   5.286  2.3980  0.5142  1.3291
 5215SOL    HW216545   6.066   5.429   5.380 -1.8338 -2.0605 -0.8102
 5216SOL     OW16546   3.972   1.271   1.989  0.3801 -0.8933  0.6779
 5216SOL    HW116547   3.876   1.274   1.960  0.7751 -1.3842 -0.7238
 5216SOL    HW216548   3.979   1.220   2.075 -0.4060 -2.4259 -0.1305
 5217SOL     OW16549   4.503   6.062   2.719  0.0393  0.4284  0.2539
 5217SOL    HW116550   4.492   6.119   2.638 -0.5588  0.6178  0.4638
 5217SOL    HW216551   4.417   6.017   2.740  0.3705 -0.1461  0.3964
 5218SOL     OW16552   1.872   0.646   3.039 -0.5390  0.6345 -0.1083
 5218SOL    HW116553   1.960   0.681   3.007 -0.6886  0.6881 -0.4616
 5218SOL    HW216554   1.887   0.561   3.091 -0.3421  0.2544 -0.7687
 5219SOL     OW16555   4.778   2.983   2.778 -0.3247  0.1846 -0.6271
 5219SOL    HW116556   4.684   3.011   2.799 -0.2936 -1.9211  2.9856
 5219SOL    HW216557   4.841   3.056   2.805 -0.6696 -0.3685  1.8285
 5220SOL     OW16558   1.208   6.171   1.193  0.7330 -0.1837  0.1695
 5220SOL    HW116559   1.238   6.084   1.232  0.4771 -0.2343  0.2580
 5220SOL    HW216560   1.186   6.158   1.097  2.2210  0.1349 -0.2445
 5221SOL     OW16561   3.688   0.790   6.726  0.3790 -0.0632 -0.4297
 5221SOL    HW116562   3.644   0.734   6.656  0.8549 -2.3306  0.9717
 5221SOL    HW216563   3.788   0.783   6.716  0.4487 -0.4759  0.5084
 5222SOL     OW16564   0.616   5.948   1.395  0.0589 -0.1829  0.8435
 5222SOL    HW116565   0.540   6.008   1.420 -1.7466 -1.7703 -0.5380
 5222SOL    HW216566   0.581   5.867   1.349  2.7339 -0.1591 -1.5158
 5223SOL     OW16567   4.006   6.858   1.351  0.7265 -0.0746  0.0188
 5223SOL    HW116568   4.072   6.803   1.301 -0.8020 -1.0132 -1.0443
 5223SOL    HW216569   4.043   6.880   1.442  2.2716 -0.9727 -0.3607
 5224SOL     OW16570   6.130   0.555   2.052  0.2577 -0.3223  0.1283
 5224SOL    HW116571   6.207   0.618   2.056 -0.4168  0.4929  0.9996
 5224SOL    HW216572   6.103   0.541   1.957  0.2557  0.9353 -0.0774
 5225SOL     OW16573   6.619   6.773   4.216 -0.1033  0.0018  0.3543
 5225SOL    HW116574   6.573   6.835   4.279 -0.3094  1.6363 -1.3309
 5225SOL    HW216575   6.716   6.798   4.211 -0.2093  0.2704 -0.4119
 5226SOL     OW16576   3.112   6.418   2.077 -0.0754  0.0184  0.2979
 5226SOL    HW116577   3.134   6.461   2.165  1.7631  1.0633 -0.6337
 5226SOL    HW216578   3.118   6.319   2.087  0.5911  0.1364  1.2287
 5227SOL     OW16579   4.461   4.494   3.889  0.2524 -0.2952 -0.4618
 5227SOL    HW116580   4.524   4.419   3.870  1.0244  0.3584 -0.5383
 5227SOL    HW216581   4.483   4.534   3.978 -0.0672 -0.0651 -0.4838
 5228SOL     OW16582   5.419   5.129   3.016  0.1037 -1.0053 -0.6559
 5228SOL    HW116583   5.374   5.155   3.101 -0.0786  0.6357 -1.2270
 5228SOL    HW216584   5.358   5.069   2.964 -0.8338 -0.0002 -0.7517
 5229SOL     OW16585   0.518   3.778   2.218  0.3052 -0.0294  0.5786
 5229SOL    HW116586   0.506   3.755   2.314 -0.4424 -0.4041  0.4025
 5229SOL    HW216587   0.501   3.875   2.204 -0.1131 -0.0819  0.7348
 5230SOL     OW16588   0.572   2.015   4.596 -0.1545 -0.0233  0.0197
 5230SOL    HW116589   0.622   1.976   4.673  1.1210  0.0294 -0.7508
 5230SOL    HW216590   0.569   1.948   4.522 -0.3855  0.3300 -0.2898
 5231SOL     OW16591   4.070   3.726   2.669 -0.4830  0.3736 -0.1096
 5231SOL    HW116592   4.077   3.735   2.768  1.4618  1.9480 -0.3282
 5231SOL    HW216593   4.057   3.630   2.645  0.3335 -0.2025  1.6168
 5232SOL     OW16594   6.170   2.040   4.756  0.2023 -0.4713 -0.1224
 5232SOL    HW116595   6.130   1.962   4.708 -2.3208  0.8892 -0.3892
 5232SOL    HW216596   6.211   2.008   4.842  0.8829 -2.3082 -1.0821
 5233SOL     OW16597   1.218   5.989   2.152 -0.1123 -0.2507  0.1731
 5233SOL    HW116598   1.119   5.987   2.160 -0.2259 -2.9128 -0.7775
 5233SOL    HW216599   1.255   5.900   2.178  1.9612  0.4262 -0.2802
 5234SOL     OW16600   3.279   3.117   2.186  0.3070  0.3434  0.0241
 5234SOL    HW116601   3.321   3.194   2.140 -0.3296  0.7510  0.1117
 5234SOL    HW216602   3.192   3.145   2.226  0.4379 -0.2186  0.7319
 5235SOL     OW16603   0.839   2.726   2.237 -0.5367  0.2371 -0.4081
 5235SOL    HW116604   0.782   2.802   2.268 -0.4217  0.5205 -0.8752
 5235SOL    HW216605   0.809   2.641   2.281  0.6187  0.8538  1.7048
 5236SOL     OW16606   6.638   3.053   1.595  0.2274 -0.0042  0.3859
 5236SOL    HW116607   6.736   3.052   1.610  0.1847  0.0844  0.6698
 5236SOL    HW216608   6.594   3.115   1.660 -0.0035  0.0420  0.1891
 5237SOL     OW16609   1.982   1.775   1.575  0.1476 -1.0622  0.0810
 5237SOL    HW116610   2.077   1.803   1.564  0.5716 -2.2489  0.5757
 5237SOL    HW216611   1.929   1.805   1.495  0.8708 -0.1621 -0.0744
 5238SOL     OW16612   1.151   4.561   1.757 -0.3641  0.2646  0.0891
 5238SOL    HW116613   1.137   4.641   1.698 -3.4795 -0.2220 -0.0131
 5238SOL    HW216614   1.169   4.481   1.700  1.1615  0.5585  0.1118
 5239SOL     OW16615   3.001   3.846   4.473 -0.0034  0.5953 -0.0953
 5239SOL    HW116616   3.033   3.753   4.451 -0.9328  0.2036  0.1660
 5239SOL    HW216617   2.945   3.843   4.555  0.4487  1.4952  0.2615
 5240SOL     OW16618   5.711   1.155   5.168  0.1874  0.5604  0.1094
 5240SOL    HW116619   5.739   1.209   5.088  1.3913  0.7140  0.6119
 5240SOL    HW216620   5.662   1.073   5.138  2.9883 -0.8370 -0.9953
 5241SOL     OW16621   4.234   6.684   4.904  0.7159  0.0531 -0.0584
 5241SOL    HW116622   4.307   6.724   4.848  0.8159  0.1798  0.1615
 5241SOL    HW216623   4.209   6.748   4.977  0.9275 -0.3150  0.3372
 5242SOL     OW16624   2.433   1.215   0.133  0.0487  0.0639 -0.3223
 5242SOL    HW116625   2.428   1.294   0.072  0.5298  0.7266  0.4808
 5242SOL    HW216626   2.519   1.217   0.184  0.0507 -0.9613 -0.2557
 5243SOL     OW16627   0.618   2.805   6.941 -0.4432  0.4603 -0.0419
 5243SOL    HW116628   0.694   2.868   6.929 -0.6610  0.8061  0.3435
 5243SOL    HW216629   0.636   2.720   6.892 -0.1340  0.8116 -0.5440
 5244SOL     OW16630   0.534   2.706   0.429 -0.5075 -0.2279 -0.4152
 5244SOL    HW116631   0.553   2.670   0.338 -0.0424 -0.2292 -0.3198
 5244SOL    HW216632   0.606   2.678   0.492 -0.3710  0.4834 -0.2382
 5245SOL     OW16633   3.113   5.237   6.770  0.7448  0.3405  0.0213
 5245SOL    HW116634   3.190   5.220   6.832 -0.4043 -1.7615  0.9450
 5245SOL    HW216635   3.136   5.203   6.679  1.0189 -0.0035  0.2171
 5246SOL     OW16636   2.089   3.261   2.999  0.2465  0.2040  0.2130
 5246SOL    HW116637   2.016   3.194   2.985 -0.1384  0.7787 -0.5860
 5246SOL    HW216638   2.170   3.214   3.036 -1.2299 -0.0828  3.4022
 5247SOL     OW16639   1.459   3.061   5.939  0.0207  0.7041  0.2879
 5247SOL    HW116640   1.483   2.964   5.950  0.3547  0.7901  0.3328
 5247SOL    HW216641   1.529   3.106   5.883 -1.3173  0.4240 -1.7133
 5248SOL     OW16642   4.059   1.951   1.133 -0.5126  0.6474 -0.6207
 5248SOL    HW116643   4.059   2.048   1.107 -0.7614  0.5287 -1.0632
 5248SOL    HW216644   3.973   1.929   1.179 -0.3954  0.6681 -0.3888
 5249SOL     OW16645   1.637   6.225   0.304  0.1631 -0.2703  0.2912
 5249SOL    HW116646   1.719   6.211   0.248 -0.3509  0.5766 -0.6983
 5249SOL    HW216647   1.558   6.241   0.245 -0.8436 -1.5752  1.2188
 5250SOL     OW16648   0.906   1.590   5.398  0.3954  0.1873 -0.2067
 5250SOL    HW116649   0.811   1.622   5.406 -0.0304 -0.6853 -1.3739
 5250SOL    HW216650   0.958   1.620   5.478 -0.9691  0.3219  0.6806
 5251SOL     OW16651   1.347   3.447   3.128  0.2831  0.0998  0.3439
 5251SOL    HW116652   1.394   3.368   3.167  2.2970  0.2095 -1.6018
 5251SOL    HW216653   1.410   3.524   3.124 -1.6562  1.8935  2.2350
 5252SOL     OW16654   5.437   6.563   1.295  0.2851  0.2037 -0.3530
 5252SOL    HW116655   5.345   6.571   1.333 -0.0665 -2.4219 -0.4436
 5252SOL    HW216656   5.504   6.558   1.370  0.1405  0.2447 -0.2209
 5253SOL     OW16657   3.743   2.338   6.133  0.0333 -0.1606 -0.0920
 5253SOL    HW116658   3.749   2.280   6.214 -0.0231  0.1546  0.1393
 5253SOL    HW216659   3.783   2.290   6.055 -1.1732 -1.0405 -0.2018
 5254SOL     OW16660   5.079   1.026   4.592 -0.6483 -0.0446 -0.2565
 5254SOL    HW116661   5.154   1.075   4.636 -0.1136 -0.6166 -0.5098
 5254SOL    HW216662   5.000   1.086   4.582 -1.2256 -0.1862  2.5833
 5255SOL     OW16663   7.014   5.172   3.350  0.0715  0.3354  0.1098
 5255SOL    HW116664   6.947   5.156   3.278 -0.5554  1.0434  0.5164
 5255SOL    HW216665   7.106   5.165   3.313 -0.2268 -0.3959 -0.5136
 5256SOL     OW16666   3.613   5.159   1.506 -0.7560  0.0198 -0.3344
 5256SOL    HW116667   3.532   5.215   1.525 -1.0120 -0.2145 -0.7319
 5256SOL    HW216668   3.612   5.080   1.567  0.0014  0.8214  0.7584
 5257SOL     OW16669   1.543   2.096   2.837 -0.2171 -0.2055 -0.1342
 5257SOL    HW116670   1.515   2.115   2.931 -0.4444 -1.3166  0.0387
 5257SOL    HW216671   1.574   2.001   2.830 -0.1323 -0.1135 -1.1692
 5258SOL     OW16672   3.474   1.450   0.837 -0.0410 -0.1128  0.2660
 5258SOL    HW116673   3.550   1.516   0.832 -0.3185  0.1678 -0.3840
 5258SOL    HW216674   3.492   1.375   0.774 -0.0305 -0.3385  0.5384
 5259SOL     OW16675   5.898   5.918   0.968 -0.4317 -0.2932 -0.1504
 5259SOL    HW116676   5.819   5.979   0.970 -0.2073  0.0174 -0.5041
 5259SOL    HW216677   5.981   5.970   0.989 -0.1588 -0.3343 -1.0588
 5260SOL     OW16678   5.369   3.999   1.575 -0.0420  0.7832  0.3829
 5260SOL    HW116679   5.271   4.011   1.558 -0.4185  2.1633  3.0091
 5260SOL    HW216680   5.397   3.910   1.541 -2.0075  0.6649 -1.1541
 5261SOL     OW16681   2.640   3.045   5.392 -0.2542  0.0720  0.3550
 5261SOL    HW116682   2.573   3.048   5.318  1.0126 -0.0328 -0.8190
 5261SOL    HW216683   2.675   2.952   5.403  1.1160  0.4744 -0.3656
 5262SOL     OW16684   0.246   1.079   3.420  0.1961  0.1793  0.1771
 5262SOL    HW116685   0.290   1.072   3.510 -0.3891  3.9491  0.9527
 5262SOL    HW216686   0.247   1.175   3.391 -2.8675 -0.3496 -2.1609
 5263SOL     OW16687   0.688   0.848   6.357 -0.1799  0.6032 -0.4398
 5263SOL    HW116688   0.750   0.888   6.289  1.2086  0.4447  0.6874
 5263SOL    HW216689   0.688   0.749   6.349  1.0019  0.4990  0.6019
 5264SOL     OW16690   1.198   7.006   0.990 -0.2745  0.2034 -0.0433
 5264SOL    HW116691   1.296   7.005   1.013 -0.2862  0.3100  0.0116
 5264SOL    HW216692   1.183   7.064   0.911 -0.2661  0.0203 -0.1803
 5265SOL     OW16693   4.337   6.064   3.975  0.6526 -0.1222  0.2817
 5265SOL    HW116694   4.302   6.090   3.885 -0.3007 -0.0298  0.6762
 5265SOL    HW216695   4.300   6.125   4.045  2.0023  0.3081  0.6589
 5266SOL     OW16696   1.288   6.879   1.223 -0.0470  0.4940  0.4560
 5266SOL    HW116697   1.225   6.851   1.151  0.5370 -0.4508  0.3028
 5266SOL    HW216698   1.365   6.816   1.228  0.1210  0.7522  1.6566
 5267SOL     OW16699   3.150   3.759   5.118  0.3331 -0.2817 -0.6335
 5267SOL    HW116700   3.186   3.827   5.183  0.4269  0.2219 -1.1992
 5267SOL    HW216701   3.053   3.776   5.104  0.2983 -0.4334 -0.5770
 5268SOL     OW16702   2.107   6.678   6.943  0.4972  0.1869 -0.5567
 5268SOL    HW116703   2.092   6.581   6.966 -0.0438  0.1886 -0.8824
 5268SOL    HW216704   2.165   6.684   6.861 -1.9979  0.0331 -2.4485
 5269SOL     OW16705   1.369   4.975   0.498 -0.3057 -0.2769 -0.5868
 5269SOL    HW116706   1.337   4.910   0.568  0.8431  0.9225  1.1221
 5269SOL    HW216707   1.293   5.034   0.472 -0.3732  0.3726  0.9576
 5270SOL     OW16708   0.593   6.726   1.865 -0.8541  0.1069 -0.0031
 5270SOL    HW116709   0.559   6.809   1.909  1.1078  0.8475  0.2099
 5270SOL    HW216710   0.633   6.749   1.777  0.0246 -0.5386  0.2125
 5271SOL     OW16711   6.986   3.580   6.161 -0.1772  0.3726 -0.1934
 5271SOL    HW116712   6.946   3.492   6.135 -0.2192  0.2513  0.2685
 5271SOL    HW216713   7.058   3.604   6.096 -0.0199 -0.1089 -0.2049
 5272SOL     OW16714   2.424   2.652   4.200  0.3749 -0.4135 -0.1835
 5272SOL    HW116715   2.405   2.690   4.291  0.0374 -1.8847  0.3931
 5272SOL    HW216716   2.357   2.687   4.134  0.5193  0.5351  0.1584
 5273SOL     OW16717   0.277   0.911   4.655  0.0052 -0.0176 -0.6373
 5273SOL    HW116718   0.286   0.841   4.585 -0.8984 -1.1429  0.3287
 5273SOL    HW216719   0.270   1.001   4.612 -0.5990 -0.6831 -1.9772
 5274SOL     OW16720   1.242   4.336   4.574 -0.0726 -0.3052 -0.2897
 5274SOL    HW116721   1.301   4.407   4.536  0.8958 -1.0815 -0.2797
 5274SOL    HW216722   1.153   4.375   4.598  0.5830  0.9861  0.1138
 5275SOL     OW16723   0.929   1.830   5.163 -0.5267 -0.2294 -0.7637
 5275SOL    HW116724   1.020   1.804   5.132 -0.6635  0.3809 -1.6909
 5275SOL    HW216725   0.881   1.749   5.197  0.9452 -0.3102  1.3591
 5276SOL     OW16726   0.213   1.295   6.602 -0.4648 -0.1545  0.2405
 5276SOL    HW116727   0.223   1.301   6.701 -0.8839  1.1855  0.2310
 5276SOL    HW216728   0.273   1.362   6.558 -0.3421 -0.6821 -0.4083
 5277SOL     OW16729   6.844   1.123   1.691  0.3133 -0.1057 -0.2190
 5277SOL    HW116730   6.911   1.157   1.625  0.8093 -1.9952 -0.7284
 5277SOL    HW216731   6.885   1.124   1.782 -0.1661  1.9169  0.0388
 5278SOL     OW16732   2.357   4.385   6.363 -0.3427  0.3223  0.0992
 5278SOL    HW116733   2.437   4.359   6.310 -0.7720 -1.3364  0.2054
 5278SOL    HW216734   2.384   4.446   6.438  0.8544 -0.4296  0.3011
 5279SOL     OW16735   6.945   0.877   5.864 -0.7229  0.9491  0.5579
 5279SOL    HW116736   6.907   0.810   5.927 -0.6955 -1.0032 -1.3948
 5279SOL    HW216737   7.044   0.882   5.877 -0.5707 -0.2486 -0.0156
 5280SOL     OW16738   4.324   0.039   0.157 -0.1101  0.2159  0.8467
 5280SOL    HW116739   4.342   0.136   0.144  0.7848 -0.1499 -0.9582
 5280SOL    HW216740   4.263   0.006   0.085  1.7596 -1.0802 -0.2453
 5281SOL     OW16741   1.480   4.102   4.394  0.2304  1.1305  0.3360
 5281SOL    HW116742   1.510   4.183   4.445  0.7733  1.6384 -0.7468
 5281SOL    HW216743   1.424   4.132   4.316 -0.1308  0.4072  0.3117
 5282SOL     OW16744   6.400   1.141   0.789 -1.1512  0.7639 -0.3702
 5282SOL    HW116745   6.340   1.099   0.857 -1.0703 -0.3769 -0.9779
 5282SOL    HW216746   6.494   1.143   0.824 -1.2400  0.9134 -0.1367
 5283SOL     OW16747   4.558   0.647   3.262  0.6340 -0.6283 -0.3050
 5283SOL    HW116748   4.515   0.566   3.222  0.6078  0.0952 -1.8332
 5283SOL    HW216749   4.644   0.621   3.305  2.2170 -1.1218 -3.4368
 5284SOL     OW16750   5.051   2.735   0.788 -0.2201  0.1897  0.2757
 5284SOL    HW116751   4.979   2.805   0.789  0.2803  0.7269  2.0927
 5284SOL    HW216752   5.014   2.649   0.823  0.1522  0.6631  1.9320
 5285SOL     OW16753   3.029   1.837   3.834  0.0278 -0.6010  0.0558
 5285SOL    HW116754   3.115   1.860   3.880 -0.0289  1.3576 -0.7164
 5285SOL    HW216755   3.047   1.771   3.761  0.9854  0.1766 -0.4350
 5286SOL     OW16756   6.134   2.974   0.935 -0.1461 -0.3380  0.0350
 5286SOL    HW116757   6.143   3.037   0.858 -0.2426 -0.0855  0.2288
 5286SOL    HW216758   6.222   2.931   0.954  0.3390  0.9736  0.9495
 5287SOL     OW16759   1.427   4.961   1.888  0.1090  0.2121  0.2882
 5287SOL    HW116760   1.403   4.942   1.983 -0.3282  1.1570  0.3789
 5287SOL    HW216761   1.487   4.889   1.853 -0.3976 -0.5789  1.0183
 5288SOL     OW16762   3.753   0.351   1.330  1.1171  0.1020  0.1868
 5288SOL    HW116763   3.807   0.271   1.305 -0.0051 -0.3858 -0.7940
 5288SOL    HW216764   3.656   0.331   1.317  0.5203  0.4066  3.4106
 5289SOL     OW16765   0.212   5.612   0.389  0.7987  0.0516  0.4104
 5289SOL    HW116766   0.185   5.617   0.485 -0.3525 -0.2119  0.1142
 5289SOL    HW216767   0.247   5.701   0.359 -3.1787  1.6286 -0.1346
 5290SOL     OW16768   1.025   1.931   0.107  0.4178  0.0355  0.4529
 5290SOL    HW116769   1.095   1.965   0.044 -0.4672  0.0359 -0.5772
 5290SOL    HW216770   0.961   2.005   0.129 -0.9917 -0.6428 -1.0743
 5291SOL     OW16771   2.958   6.739   3.089  0.3259 -0.9114  0.3251
 5291SOL    HW116772   2.955   6.814   3.155 -1.2793 -0.7968  0.1518
 5291SOL    HW216773   3.031   6.676   3.115 -0.3002 -0.9078  2.2633
 5292SOL     OW16774   6.945   5.043   3.604 -0.1794 -0.6287  0.5570
 5292SOL    HW116775   6.953   5.105   3.683 -2.4830 -0.4997  0.7428
 5292SOL    HW216776   6.999   5.080   3.528 -1.2119  1.4830  0.7635
 5293SOL     OW16777   4.886   0.163   2.208 -0.3085  0.9333 -0.2248
 5293SOL    HW116778   4.940   0.079   2.203 -3.2921 -1.0858 -3.6227
 5293SOL    HW216779   4.938   0.239   2.170  1.8381  0.3497  1.3396
 5294SOL     OW16780   4.998   0.197   4.377  0.5754  0.2164 -0.5934
 5294SOL    HW116781   4.990   0.233   4.283 -0.0161  1.2046 -0.1859
 5294SOL    HW216782   5.009   0.273   4.440  1.0237 -0.4525  0.1425
 5295SOL     OW16783   0.916   0.613   2.245 -0.3971 -0.7829  0.9660
 5295SOL    HW116784   0.874   0.638   2.332  1.9267  0.9642  1.6760
 5295SOL    HW216785   0.987   0.545   2.260  1.7685  1.3566  0.9123
 5296SOL     OW16786   5.599   6.117   0.589 -0.0241 -0.0137  0.2485
 5296SOL    HW116787   5.605   6.186   0.517  1.9148 -1.2206 -0.8383
 5296SOL    HW216788   5.594   6.026   0.548 -0.2669 -0.6579  1.6395
 5297SOL     OW16789   4.095   3.361   4.507  0.0203  0.9792 -0.4285
 5297SOL    HW116790   4.091   3.459   4.528 -1.1484  0.9598 -0.4920
 5297SOL    HW216791   4.125   3.348   4.413 -0.2405  1.2988 -0.5569
 5298SOL     OW16792   3.495   1.442   5.640  0.2167 -0.0884  0.4032
 5298SOL    HW116793   3.568   1.374   5.631  0.6023  0.4289 -0.4702
 5298SOL    HW216794   3.532   1.533   5.622 -0.7692  0.1136 -0.7130
 5299SOL     OW16795   0.856   2.618   2.676  0.5278 -0.4551 -0.0022
 5299SOL    HW116796   0.840   2.564   2.759  1.6942 -2.1824 -0.8264
 5299SOL    HW216797   0.948   2.656   2.678  0.3999 -0.1210 -0.3105
 5300SOL     OW16798   1.652   5.907   6.679 -0.4131 -0.2064  0.3592
 5300SOL    HW116799   1.557   5.893   6.708 -0.2835 -1.6691  0.1146
 5300SOL    HW216800   1.711   5.841   6.723  0.5557  0.8567  0.7011
 5301SOL     OW16801   0.747   6.993   3.227  0.0173  0.5663  0.5446
 5301SOL    HW116802   0.754   6.945   3.315  1.0338 -1.2437 -0.4466
 5301SOL    HW216803   0.839   7.023   3.199  0.0422 -0.6840 -0.8109
 5302SOL     OW16804   6.143   5.336   5.854 -0.4348 -0.0441 -0.3147
 5302SOL    HW116805   6.135   5.336   5.754  2.2044 -0.6962 -0.6113
 5302SOL    HW216806   6.146   5.431   5.887 -0.5096  0.1843 -0.9435
 5303SOL     OW16807   1.433   3.816   5.159  0.0893  0.1031  0.2196
 5303SOL    HW116808   1.445   3.888   5.090 -0.3090 -0.4236 -0.4187
 5303SOL    HW216809   1.366   3.750   5.126  0.5959 -0.6706  0.7077
 5304SOL     OW16810   2.842   1.371   3.101 -0.3749 -0.4839  0.1516
 5304SOL    HW116811   2.796   1.454   3.132  2.4330  1.2370  0.0184
 5304SOL    HW216812   2.897   1.391   3.020  1.9035 -1.9741  1.2383
 5305SOL     OW16813   6.477   6.888   5.005 -0.0685  0.1177  0.1794
 5305SOL    HW116814   6.558   6.862   4.954 -0.9708 -0.2538 -1.1234
 5305SOL    HW216815   6.504   6.927   5.093  1.4899 -0.2745 -0.0931
 5306SOL     OW16816   0.605   1.995   0.159  0.9518  0.7217 -0.0672
 5306SOL    HW116817   0.540   2.072   0.155  0.2914  0.4440  3.1337
 5306SOL    HW216818   0.697   2.031   0.176  1.2619  0.9395 -1.9583
 5307SOL     OW16819   1.390   1.073   1.564 -0.2435  0.0538 -0.0398
 5307SOL    HW116820   1.458   1.070   1.638 -0.3181  0.9979  0.0679
 5307SOL    HW216821   1.301   1.044   1.600 -0.1680 -0.0018  0.1062
 5308SOL     OW16822   0.531   3.382   3.235  1.0135 -0.6659 -0.4865
 5308SOL    HW116823   0.460   3.399   3.167 -0.4753  1.0322  1.3686
 5308SOL    HW216824   0.615   3.431   3.209  0.6478 -0.4814 -1.3480
 5309SOL     OW16825   6.996   5.205   0.833  0.1141 -0.0030  0.1463
 5309SOL    HW116826   7.004   5.267   0.911  0.7055  1.2494 -0.8846
 5309SOL    HW216827   7.082   5.156   0.819  0.0601 -0.1059  0.1682
 5310SOL     OW16828   0.608   1.714   4.591  0.4115 -0.0376  0.1178
 5310SOL    HW116829   0.663   1.738   4.671 -0.4712  1.5094  0.2961
 5310SOL    HW216830   0.519   1.679   4.621 -0.3775  1.6644 -0.1620
 5311SOL     OW16831   0.112   2.604   5.928 -0.0946 -0.2091  0.3355
 5311SOL    HW116832   0.038   2.618   5.994 -1.0981 -0.8075 -0.6403
 5311SOL    HW216833   0.200   2.607   5.976 -0.7447  0.3699  1.5369
 5312SOL     OW16834   6.288   6.225   6.949  0.3674 -0.6025  0.0409
 5312SOL    HW116835   6.196   6.232   6.989 -0.1567 -1.0029 -1.0673
 5312SOL    HW216836   6.341   6.157   7.000  0.3952  0.3120  1.2924
 5313SOL     OW16837   0.572   6.278   6.702  0.1115  0.2693 -0.1063
 5313SOL    HW116838   0.602   6.256   6.795 -2.5638 -1.9541  0.3745
 5313SOL    HW216839   0.635   6.237   6.636  2.5001  2.5411  0.6049
 5314SOL     OW16840   5.568   1.877   3.279  0.9723 -0.1756 -0.2838
 5314SOL    HW116841   5.489   1.936   3.262  1.5518  0.5738 -0.4293
 5314SOL    HW216842   5.579   1.862   3.377  3.2124  3.4136  0.2076
 5315SOL     OW16843   3.241   1.649   3.459  0.0179  0.2873 -0.4084
 5315SOL    HW116844   3.329   1.674   3.418  1.0927 -0.7914  1.1483
 5315SOL    HW216845   3.169   1.663   3.392  1.5937 -0.6346 -2.4133
 5316SOL     OW16846   0.977   0.562   0.175  0.1870 -0.2424  0.8067
 5316SOL    HW116847   1.006   0.560   0.079 -1.6097  1.1298  0.1583
 5316SOL    HW216848   1.002   0.650   0.215 -1.2740  0.2130  0.7884
 5317SOL     OW16849   5.672   4.883   1.830 -0.6275  0.1534 -0.7546
 5317SOL    HW116850   5.741   4.948   1.799 -1.3535  0.2600 -2.1918
 5317SOL    HW216851   5.605   4.868   1.758 -0.9326 -1.5761 -0.1521
 5318SOL     OW16852   6.133   4.696   6.182 -0.2297  0.0900  0.0561
 5318SOL    HW116853   6.036   4.719   6.188 -0.1234  0.7531 -0.5835
 5318SOL    HW216854   6.142   4.601   6.152 -0.7238  0.7937 -2.6103
 5319SOL     OW16855   3.034   4.841   1.643  0.5447 -0.2409  0.4699
 5319SOL    HW116856   3.012   4.827   1.739  0.4385 -0.4758  0.4114
 5319SOL    HW216857   2.959   4.808   1.586  0.7280 -0.3682  0.2984
 5320SOL     OW16858   4.573   6.597   1.150 -0.1521  0.5004 -0.3268
 5320SOL    HW116859   4.515   6.521   1.121 -0.3739  0.5335  0.0188
 5320SOL    HW216860   4.524   6.683   1.133 -0.2476  0.5229  0.0687
 5321SOL     OW16861   2.641   4.627   6.923 -0.8198  0.0857 -0.4828
 5321SOL    HW116862   2.666   4.657   6.831 -2.5990 -0.0636 -1.0569
 5321SOL    HW216863   2.570   4.557   6.917 -0.0703 -0.8591  0.9910
 5322SOL     OW16864   5.885   5.701   0.307 -0.2876 -0.0974  0.2726
 5322SOL    HW116865   5.876   5.799   0.322 -1.5281 -0.0522 -0.6214
 5322SOL    HW216866   5.813   5.652   0.357 -0.9529 -0.3681 -0.9017
 5323SOL     OW16867   3.293   5.528   6.658 -0.6759 -0.4089  0.0356
 5323SOL    HW116868   3.282   5.493   6.752 -0.9543 -1.9991 -0.5525
 5323SOL    HW216869   3.348   5.464   6.605 -1.2853  0.0040 -1.1320
 5324SOL     OW16870   6.470   1.663   1.791  0.2960 -0.2131  0.0916
 5324SOL    HW116871   6.510   1.576   1.819 -0.1131 -0.2735  0.4991
 5324SOL    HW216872   6.431   1.709   1.871  0.1723  0.1631 -0.1841
 5325SOL     OW16873   1.313   2.811   4.218 -0.0744 -0.0114  0.0988
 5325SOL    HW116874   1.306   2.712   4.210  1.6289 -0.0897 -0.8777
 5325SOL    HW216875   1.410   2.837   4.222 -0.2976  1.8265 -3.2412
 5326SOL     OW16876   5.898   1.128   6.311 -0.2263  0.0053  0.1631
 5326SOL    HW116877   5.863   1.052   6.366  1.0849  0.6036  1.9105
 5326SOL    HW216878   5.835   1.206   6.317 -0.0204  0.1162  0.9687
 5327SOL     OW16879   1.705   1.818   4.565 -0.3480 -0.1204 -0.5745
 5327SOL    HW116880   1.688   1.758   4.644 -1.4594 -1.5881 -1.8571
 5327SOL    HW216881   1.645   1.897   4.571 -0.2617 -0.0970  0.1617
 5328SOL     OW16882   5.164   5.122   0.754 -0.8268  0.3974  0.2124
 5328SOL    HW116883   5.093   5.108   0.823 -0.4801 -1.1898  0.2901
 5328SOL    HW216884   5.190   5.033   0.715  2.3453  0.6533  1.4394
 5329SOL     OW16885   1.826   0.145   0.588 -0.3027  0.7186  0.1557
 5329SOL    HW116886   1.757   0.179   0.524  2.3316  1.1643 -2.6562
 5329SOL    HW216887   1.852   0.052   0.562  2.5709  1.7834 -1.1102
 5330SOL     OW16888   2.702   4.125   1.570  0.1553 -0.2900  0.1879
 5330SOL    HW116889   2.718   4.223   1.585  0.6407 -0.6138  2.0925
 5330SOL    HW216890   2.606   4.111   1.544 -0.2733  0.5986  1.1907
 5331SOL     OW16891   6.322   0.308   0.632 -0.6421 -0.2614  0.4677
 5331SOL    HW116892   6.274   0.266   0.708  0.5512 -0.2627  1.2558
 5331SOL    HW216893   6.257   0.348   0.568 -1.6693 -0.4954  1.3560
 5332SOL     OW16894   1.040   4.312   2.280 -0.2134  0.5406 -0.0331
 5332SOL    HW116895   1.027   4.305   2.378 -0.6899  2.9259  0.1337
 5332SOL    HW216896   1.131   4.280   2.256  0.9593  2.4369  1.6028
 5333SOL     OW16897   6.242   4.692   5.009  0.6065  0.0912 -0.0155
 5333SOL    HW116898   6.227   4.718   5.104  1.3800  3.3422 -0.6557
 5333SOL    HW216899   6.159   4.652   4.972 -0.7618  1.6533  1.2198
 5334SOL     OW16900   1.805   5.815   5.109 -0.0861 -0.0654 -0.0456
 5334SOL    HW116901   1.754   5.806   5.024  0.8803 -2.2838 -0.4538
 5334SOL    HW216902   1.762   5.760   5.181  2.2640 -3.1065 -0.7468
 5335SOL     OW16903   6.594   6.427   5.927 -0.6066 -0.0938 -0.3846
 5335SOL    HW116904   6.605   6.334   5.892  0.5481  0.0061 -0.3320
 5335SOL    HW216905   6.683   6.461   5.958 -0.8401  1.3779 -1.2663
 5336SOL     OW16906   1.406   2.775   1.222 -0.3034 -0.3936  0.5402
 5336SOL    HW116907   1.387   2.739   1.313 -1.0138 -0.7293  0.2617
 5336SOL    HW216908   1.502   2.805   1.217 -0.0357 -1.1345  1.1403
 5337SOL     OW16909   6.009   6.003   1.263 -0.0355 -0.6108  0.2235
 5337SOL    HW116910   6.069   6.020   1.185  1.5155  1.2826  1.7319
 5337SOL    HW216911   6.042   5.925   1.315  1.6318  0.8048  1.4080
 5338SOL     OW16912   5.294   2.558   6.647  0.3726 -0.7353  0.1104
 5338SOL    HW116913   5.300   2.507   6.732  0.6721 -3.1563 -1.2738
 5338SOL    HW216914   5.235   2.509   6.583  1.1646  0.3460 -1.5196
 5339SOL     OW16915   6.003   1.658   2.152 -0.4271  0.5868  0.1379
 5339SOL    HW116916   6.056   1.575   2.136  0.6059  0.8050  2.2074
 5339SOL    HW216917   5.929   1.663   2.084 -1.5739 -2.8607  0.9257
 5340SOL     OW16918   4.798   2.837   0.161  0.2706 -0.4725  0.0424
 5340SOL    HW116919   4.736   2.781   0.215 -0.1649  0.0836  0.1293
 5340SOL    HW216920   4.862   2.778   0.111 -0.8940 -1.0999 -0.7408
 5341SOL     OW16921   3.929   0.315   0.096  0.2995  0.6317 -0.8148
 5341SOL    HW116922   4.001   0.335   0.163  0.0721  1.4479 -0.8047
 5341SOL    HW216923   3.913   0.395   0.039 -1.9480  1.1534  0.4316
 5342SOL     OW16924   0.719   1.563   6.058 -0.3819  0.3565  0.0927
 5342SOL    HW116925   0.693   1.469   6.079  0.6186 -0.2098 -1.1088
 5342SOL    HW216926   0.659   1.598   5.986  0.1977  0.1124 -0.5144
 5343SOL     OW16927   3.222   5.376   2.063  0.4258  0.6493  0.3798
 5343SOL    HW116928   3.235   5.279   2.042  0.7361  0.8298 -0.3161
 5343SOL    HW216929   3.201   5.387   2.160 -0.3961 -0.1772  0.3119
 5344SOL     OW16930   1.888   2.946   3.395  0.2387 -0.2975  0.3053
 5344SOL    HW116931   1.887   2.931   3.494  2.8471 -2.1958  0.1480
 5344SOL    HW216932   1.973   2.990   3.369  0.0733 -0.8071 -1.2032
 5345SOL     OW16933   4.665   1.928   2.984  0.1812  0.1891  0.2692
 5345SOL    HW116934   4.589   1.871   2.953  0.3253 -0.9450  1.8647
 5345SOL    HW216935   4.629   2.013   3.022 -0.2810 -0.1039  0.5119
 5346SOL     OW16936   3.673   1.548   5.873  0.0345 -0.4655 -0.5912
 5346SOL    HW116937   3.704   1.643   5.872  2.1402 -1.0831  0.4483
 5346SOL    HW216938   3.576   1.545   5.898  0.0667  1.3646 -0.1027
 5347SOL     OW16939   0.208   1.976   2.685  0.2938 -0.0366 -0.2719
 5347SOL    HW116940   0.122   1.940   2.720  0.9797 -2.1737 -0.6807
 5347SOL    HW216941   0.245   2.042   2.751 -2.7522  2.8621 -1.1657
 5348SOL     OW16942   0.480   3.633   0.408  0.2468 -0.7182 -0.1526
 5348SOL    HW116943   0.448   3.720   0.372 -0.1119 -1.3177 -1.3473
 5348SOL    HW216944   0.539   3.649   0.487  0.2840  0.6015 -0.4223
 5349SOL     OW16945   5.037   6.644   4.657 -0.7790  0.2062 -0.0769
 5349SOL    HW116946   5.003   6.551   4.669  1.4445 -0.9055 -1.7676
 5349SOL    HW216947   5.052   6.686   4.747  1.8377 -2.5407  0.9313
 5350SOL     OW16948   2.451   1.348   0.421 -0.2286  0.2777  0.4473
 5350SOL    HW116949   2.486   1.277   0.360  0.4792 -0.8392  2.0839
 5350SOL    HW216950   2.527   1.403   0.456 -0.4148 -0.1765  1.6154
 5351SOL     OW16951   5.135   2.397   2.497  0.5402  0.6904  0.3753
 5351SOL    HW116952   5.222   2.442   2.479  0.4934  0.9886  0.8917
 5351SOL    HW216953   5.152   2.306   2.536  0.6181  1.1358  1.4014
 5352SOL     OW16954   4.280   1.283   4.626  0.5796  0.2364  1.2364
 5352SOL    HW116955   4.316   1.220   4.695  0.8537  2.0622  2.8301
 5352SOL    HW216956   4.354   1.341   4.593  0.0723  0.6071  0.7397
 5353SOL     OW16957   5.719   0.179   0.448  0.1487 -0.1993 -0.3639
 5353SOL    HW116958   5.673   0.091   0.440 -0.2511  0.0836 -1.2734
 5353SOL    HW216959   5.763   0.186   0.538 -0.6273 -0.9241  0.0783
 5354SOL     OW16960   1.105   2.888   0.010 -0.3638 -0.0825  0.6024
 5354SOL    HW116961   1.106   2.792   0.035 -1.5354  0.3030  2.2853
 5354SOL    HW216962   1.181   2.907  -0.053 -0.0657 -2.0508  0.3121
 5355SOL     OW16963   3.575   2.005   5.970  0.1544 -0.1294  0.4040
 5355SOL    HW116964   3.487   2.052   5.978  0.5875  0.6243  0.7883
 5355SOL    HW216965   3.616   2.025   5.881  0.4052  0.3434  0.6240
 5356SOL     OW16966   0.233   5.838   1.425 -0.7194 -0.2955  0.0806
 5356SOL    HW116967   0.278   5.816   1.512  0.4257 -0.3032 -0.4950
 5356SOL    HW216968   0.243   5.761   1.362 -0.7761  0.0543 -0.3575
 5357SOL     OW16969   4.242   3.434   5.898  0.1957  0.2910 -0.1790
 5357SOL    HW116970   4.327   3.476   5.930 -0.8007  1.6552  0.8066
 5357SOL    HW216971   4.259   3.385   5.813  2.0314  0.2429  0.1751
 5358SOL     OW16972   4.947   3.942   1.081 -0.2725 -0.1611  0.1780
 5358SOL    HW116973   5.044   3.956   1.097  0.1160 -1.1471 -1.1314
 5358SOL    HW216974   4.904   3.905   1.163  0.3074  0.9076  0.9845
 5359SOL     OW16975   4.351   1.340   5.307  0.5079 -0.2273 -0.0420
 5359SOL    HW116976   4.342   1.240   5.315  1.1877 -0.3531 -0.7260
 5359SOL    HW216977   4.282   1.375   5.243 -1.0279  0.0173  1.6661
 5360SOL     OW16978   4.691   1.411   5.445  0.2377  0.3221 -0.5266
 5360SOL    HW116979   4.680   1.500   5.490 -0.8909  0.6790 -1.4460
 5360SOL    HW216980   4.647   1.340   5.501 -0.0780  0.5710 -0.4534
 5361SOL     OW16981   1.884   1.035   0.723  0.0001 -0.2573 -0.4059
 5361SOL    HW116982   1.916   1.039   0.818  0.3205  0.4120 -0.5323
 5361SOL    HW216983   1.833   0.950   0.708  0.1426 -0.4743  0.3016
 5362SOL     OW16984   4.419   6.753   4.130 -0.1557  0.0379  0.2744
 5362SOL    HW116985   4.478   6.692   4.182 -0.2954  0.6012  1.1202
 5362SOL    HW216986   4.326   6.750   4.168 -0.2179  0.5811  0.1776
 5363SOL     OW16987   1.444   5.465   5.217  0.0435 -0.4133 -0.1297
 5363SOL    HW116988   1.366   5.510   5.260  2.8290  0.9936  4.2087
 5363SOL    HW216989   1.460   5.376   5.261  1.2197 -0.3655 -0.4237
 5364SOL     OW16990   1.207   4.940   6.540 -0.3310 -0.3636 -0.6026
 5364SOL    HW116991   1.296   4.896   6.545 -0.4335 -0.5365 -0.2404
 5364SOL    HW216992   1.158   4.926   6.626 -0.7634 -0.3915 -0.8505
 5365SOL     OW16993   4.628   2.596   0.558 -0.3339 -0.7733 -0.2931
 5365SOL    HW116994   4.536   2.556   0.550 -1.8330  1.1471  4.0743
 5365SOL    HW216995   4.689   2.529   0.600 -0.7144 -0.9689 -0.0399
 5366SOL     OW16996   3.545   5.987   5.916 -0.5216  0.1110 -0.0183
 5366SOL    HW116997   3.449   5.968   5.936  0.0178 -2.6442  0.4862
 5366SOL    HW216998   3.562   5.971   5.819 -1.1680  4.0476 -0.9581
 5367SOL     OW16999   6.457   4.030   1.388  0.3274  0.0539  0.3715
 5367SOL    HW117000   6.522   3.953   1.384 -0.3284 -0.4970  0.0290
 5367SOL    HW217001   6.396   4.025   1.309 -0.5998  0.1363  1.0715
 5368SOL     OW17002   2.977   6.457   1.667  0.0987  0.0606 -0.2490
 5368SOL    HW117003   2.983   6.490   1.761 -1.9887 -2.2652  0.8392
 5368SOL    HW217004   3.056   6.488   1.615  1.9310  0.4708  2.5837
 5369SOL     OW17005   0.417   3.700   3.113  0.1973  0.1746 -0.0791
 5369SOL    HW117006   0.385   3.710   3.018  0.7382 -0.3046 -0.3179
 5369SOL    HW217007   0.364   3.629   3.159  0.3237 -0.0080 -0.2103
 5370SOL     OW17008   3.376   3.464   3.814  0.0834  0.0487 -0.0801
 5370SOL    HW117009   3.463   3.477   3.766  0.3395 -0.6174  0.2042
 5370SOL    HW217010   3.302   3.501   3.757  0.5478  0.6696 -0.3005
 5371SOL     OW17011   2.424   2.913   6.596  0.5985 -0.0376  0.5372
 5371SOL    HW117012   2.467   2.961   6.673  1.0453  0.2264  0.1341
 5371SOL    HW217013   2.477   2.831   6.574  1.3534  0.6831 -0.4377
 5372SOL     OW17014   4.144   0.191   6.581 -0.2905  0.0667  0.7264
 5372SOL    HW117015   4.235   0.197   6.540 -1.1127 -1.7561 -1.5859
 5372SOL    HW217016   4.137   0.108   6.636  0.2778  1.6859  3.4629
 5373SOL     OW17017   2.613   6.347   4.363  0.2333  0.3801 -0.0530
 5373SOL    HW117018   2.658   6.305   4.443 -1.0460 -0.1392  0.4147
 5373SOL    HW217019   2.543   6.411   4.394 -2.5226 -2.1431 -0.6245
 5374SOL     OW17020   3.865   2.089   0.307 -0.2347  0.3642 -0.5220
 5374SOL    HW117021   3.766   2.071   0.309  0.0505 -1.4275  0.6165
 5374SOL    HW217022   3.882   2.187   0.312 -1.9532  0.6265  1.1250
 5375SOL     OW17023   2.913   5.583   5.203 -0.7281  1.1587 -0.1282
 5375SOL    HW117024   2.940   5.597   5.298  0.4739  0.0608 -0.2853
 5375SOL    HW217025   2.890   5.487   5.189 -1.1872  1.3722 -0.8859
 5376SOL     OW17026   2.971   4.088   5.591  0.0434  0.0643 -0.0279
 5376SOL    HW117027   2.904   4.048   5.528  0.8082 -1.5691  0.1354
 5376SOL    HW217028   2.966   4.188   5.586 -1.4795 -0.0250 -0.9761
 5377SOL     OW17029   1.206   2.097   2.479  0.2625 -0.0332  0.0310
 5377SOL    HW117030   1.300   2.105   2.514  0.2450 -2.6907  0.9160
 5377SOL    HW217031   1.198   2.013   2.426 -1.2725  0.9558 -1.3930
 5378SOL     OW17032   5.714   0.004   6.974 -0.1871 -0.5469 -0.2412
 5378SOL    HW117033   5.738   0.051   7.059  0.6386  0.3650 -0.9529
 5378SOL    HW217034   5.797  -0.011   6.920 -0.7970 -0.3960 -1.2368
 5379SOL     OW17035   6.865   6.271   0.818  0.1964  0.3114  0.7073
 5379SOL    HW117036   6.954   6.229   0.802  0.1236  0.0741  0.9144
 5379SOL    HW217037   6.874   6.370   0.818  0.6550  0.2787  1.7890
 5380SOL     OW17038   2.262   2.942   4.361  0.2622 -0.2115 -0.2550
 5380SOL    HW117039   2.306   2.870   4.415 -1.9860 -1.1041  0.5100
 5380SOL    HW217040   2.173   2.910   4.329 -0.3297  1.8603 -0.8357
 5381SOL     OW17041   5.415   3.343   3.058 -0.2028 -0.1306  0.3329
 5381SOL    HW117042   5.460   3.404   2.993 -0.8313  1.0114  0.9313
 5381SOL    HW217043   5.484   3.296   3.114  0.2879  0.1264 -0.0532
 5382SOL     OW17044   3.164   4.340   1.315  0.2491  0.1247  0.3565
 5382SOL    HW117045   3.225   4.351   1.393  2.0763  1.1492 -1.1369
 5382SOL    HW217046   3.070   4.361   1.343  0.7194 -0.3053  2.4273
 5383SOL     OW17047   1.201   1.486   5.025  0.6154 -0.1647  0.0109
 5383SOL    HW117048   1.127   1.472   4.959  0.7629 -1.1353  0.0431
 5383SOL    HW217049   1.203   1.583   5.052  0.9793  0.3959 -1.9057
 5384SOL     OW17050   4.740   5.364   3.731 -0.1456  0.5697 -0.4066
 5384SOL    HW117051   4.658   5.308   3.721  0.3778 -0.1454 -0.8229
 5384SOL    HW217052   4.766   5.368   3.827 -0.9772  1.2718 -0.1964
 5385SOL     OW17053   6.769   3.253   0.616  0.0585  0.4226 -0.0883
 5385SOL    HW117054   6.793   3.336   0.565  0.7846 -0.5483 -1.3557
 5385SOL    HW217055   6.837   3.239   0.688 -0.1534  0.9965  0.2372
 5386SOL     OW17056   5.930   5.719   6.290  0.1244 -0.2846 -0.1627
 5386SOL    HW117057   5.905   5.730   6.386  0.9928 -1.0717  0.1618
 5386SOL    HW217058   6.017   5.765   6.272  0.9560 -1.7713 -0.0932
 5387SOL     OW17059   4.559   4.009   1.490  0.9932  0.1885  0.1195
 5387SOL    HW117060   4.476   4.022   1.545  0.7364 -2.6154  0.5192
 5387SOL    HW217061   4.535   3.960   1.406  2.2044 -0.5349  0.1820
 5388SOL     OW17062   6.079   5.806   1.971  0.2062  0.0405 -0.3752
 5388SOL    HW117063   6.129   5.885   2.005  0.7426  0.1911 -1.5032
 5388SOL    HW217064   6.139   5.749   1.916  0.5349 -2.4375  2.2605
 5389SOL     OW17065   4.584   2.029   6.993 -0.4916 -0.6356  0.9071
 5389SOL    HW117066   4.612   2.118   6.955 -0.1027 -1.1606 -0.0857
 5389SOL    HW217067   4.492   2.037   7.031 -1.1380 -0.1839 -0.6484
 5390SOL     OW17068   6.337   4.799   6.958 -0.1568  0.1340  0.1948
 5390SOL    HW117069   6.388   4.810   7.044  0.6326 -0.8213 -0.1242
 5390SOL    HW217070   6.311   4.888   6.924 -1.3891  0.5005  1.9447
 5391SOL     OW17071   2.228   5.523   6.899 -0.3074 -0.6340 -0.4020
 5391SOL    HW117072   2.168   5.503   6.976  1.1309  2.0009  1.5939
 5391SOL    HW217073   2.174   5.541   6.818 -2.1656  0.2883  0.9651
 5392SOL     OW17074   6.186   1.742   3.673 -0.4712 -0.0695  0.7140
 5392SOL    HW117075   6.214   1.834   3.646  0.8652 -0.3242  1.1875
 5392SOL    HW217076   6.167   1.688   3.591 -3.0252  1.0960  0.4235
 5393SOL     OW17077   6.840   6.648   5.899 -0.0347 -1.0091 -0.4144
 5393SOL    HW117078   6.921   6.623   5.846 -0.8804 -0.3347 -2.0795
 5393SOL    HW217079   6.784   6.712   5.847 -0.1848  0.8941  1.8959
 5394SOL     OW17080   2.611   1.189   6.148 -0.5829  0.8025 -0.1449
 5394SOL    HW117081   2.627   1.176   6.050 -0.0202 -1.2543  0.1697
 5394SOL    HW217082   2.554   1.115   6.182  0.7238  0.4596  1.4239
 5395SOL     OW17083   4.043   1.267   2.670 -0.2120  0.4556  0.1703
 5395SOL    HW117084   4.007   1.330   2.601 -0.9884  1.8572  1.8096
 5395SOL    HW217085   4.123   1.308   2.715  0.7990 -0.7951 -0.4130
 5396SOL     OW17086   6.328   1.960   1.241 -0.0677 -0.0636  0.0612
 5396SOL    HW117087   6.237   1.931   1.272  0.5491 -3.1863 -0.7473
 5396SOL    HW217088   6.319   2.010   1.155 -1.0330 -0.3043  0.0104
 5397SOL     OW17089   2.029   2.006   3.881  0.3027 -0.2561 -0.2210
 5397SOL    HW117090   2.097   2.047   3.942 -1.4289 -1.3743  2.6583
 5397SOL    HW217091   1.944   1.992   3.931 -1.2794 -1.2171 -2.9821
 5398SOL     OW17092   4.072   3.386   1.686 -0.0109 -0.1870  0.7275
 5398SOL    HW117093   4.084   3.485   1.682  1.5941 -0.3060  1.7921
 5398SOL    HW217094   4.003   3.358   1.619 -2.8055  1.9763  2.4402
 5399SOL     OW17095   6.715   2.502   6.903 -0.0966  0.2155 -0.6310
 5399SOL    HW117096   6.777   2.440   6.950 -1.7880 -0.9949  0.1018
 5399SOL    HW217097   6.727   2.595   6.938  1.6484  0.1104 -0.9029
 5400SOL     OW17098   2.683   3.645   0.246  0.1443  0.4837  0.2825
 5400SOL    HW117099   2.741   3.612   0.321  0.4293  0.2367 -0.0369
 5400SOL    HW217100   2.692   3.744   0.237  1.7547  0.2912 -0.7499
 5401SOL     OW17101   1.262   2.123   6.513 -0.1714  0.2067  0.4260
 5401SOL    HW117102   1.215   2.035   6.526  1.4237 -0.3466  3.3713
 5401SOL    HW217103   1.255   2.177   6.597  1.0790  1.8057 -0.4527
 5402SOL     OW17104   1.263   4.981   1.177 -0.3723  0.2486  0.2585
 5402SOL    HW117105   1.355   5.008   1.205 -0.4970  0.5987  0.3345
 5402SOL    HW217106   1.259   4.881   1.167  0.0239  0.2349  0.2185
 5403SOL     OW17107   0.924   1.283   5.828 -0.3785  0.2597 -0.2981
 5403SOL    HW117108   0.851   1.271   5.895  0.3750 -0.9154  0.3602
 5403SOL    HW217109   0.995   1.342   5.866 -0.1423 -0.0782 -0.2045
 5404SOL     OW17110   1.091   2.994   2.542  0.0093 -0.2413  0.2838
 5404SOL    HW117111   1.088   2.996   2.442 -0.1949 -0.0916  0.2945
 5404SOL    HW217112   1.124   2.904   2.572  2.3224  0.4344  0.0327
 5405SOL     OW17113   0.260   2.352   4.250 -0.7559 -0.1567 -0.5550
 5405SOL    HW117114   0.205   2.435   4.260 -2.3354 -1.2362  0.2383
 5405SOL    HW217115   0.324   2.363   4.175 -0.8441  1.8127 -0.3982
 5406SOL     OW17116   6.807   5.296   1.388  0.3627 -0.5207 -0.4907
 5406SOL    HW117117   6.707   5.296   1.383  0.3980 -0.4684 -1.4247
 5406SOL    HW217118   6.843   5.212   1.347  0.7083 -0.4382 -0.3647
 5407SOL     OW17119   3.074   3.530   0.482  0.5483 -0.0531 -0.2293
 5407SOL    HW117120   3.154   3.487   0.524 -0.0848 -0.1817  0.8830
 5407SOL    HW217121   3.000   3.534   0.549  0.8169  3.5548  0.0241
 5408SOL     OW17122   3.230   1.780   6.348  0.2714  0.4476  0.4938
 5408SOL    HW117123   3.266   1.689   6.326  1.1024  1.0149 -0.5801
 5408SOL    HW217124   3.190   1.821   6.266 -0.5726  0.8566  1.0905
 5409SOL     OW17125   3.514   0.920   1.307  0.5398  0.4509 -0.5696
 5409SOL    HW117126   3.485   0.851   1.373  0.5749 -0.4516 -1.4708
 5409SOL    HW217127   3.585   0.978   1.348  1.2209 -0.6736 -0.1128
 5410SOL     OW17128   0.741   1.737   0.751 -0.1566  0.1279  0.3069
 5410SOL    HW117129   0.695   1.816   0.710 -0.2894 -0.1121 -0.0151
 5410SOL    HW217130   0.685   1.655   0.738 -0.4855  0.1513  1.5292
 5411SOL     OW17131   2.061   5.417   0.081 -0.5149  0.8578 -0.2159
 5411SOL    HW117132   1.968   5.454   0.076 -1.1735 -0.8061 -1.0785
 5411SOL    HW217133   2.063   5.341   0.146 -0.1133 -0.0246 -1.2335
 5412SOL     OW17134   6.727   1.326   2.869  0.0394  0.1804 -0.5452
 5412SOL    HW117135   6.700   1.385   2.792 -0.5379 -1.6048 -1.7670
 5412SOL    HW217136   6.653   1.326   2.937 -0.5293 -0.1473 -1.1521
 5413SOL     OW17137   2.680   5.528   4.083 -0.2303 -0.3584 -0.8295
 5413SOL    HW117138   2.696   5.575   4.169 -0.9887 -1.9842  0.2518
 5413SOL    HW217139   2.766   5.495   4.046  0.0806  0.2206 -0.6381
 5414SOL     OW17140   4.453   6.793   6.575 -0.0781  0.2897 -0.5292
 5414SOL    HW117141   4.546   6.757   6.582 -1.2891 -2.8433  1.9135
 5414SOL    HW217142   4.429   6.841   6.659 -0.5040  1.6632 -1.4067
 5415SOL     OW17143   4.850   4.930   3.210  0.6840  0.1745 -0.2586
 5415SOL    HW117144   4.755   4.907   3.232  0.6204  1.8710  1.5931
 5415SOL    HW217145   4.854   4.972   3.120 -0.4036  0.4666 -0.1900
 5416SOL     OW17146   3.009   6.834   4.589 -0.0252  0.6197  0.3670
 5416SOL    HW117147   3.038   6.794   4.676  1.8496  1.7101  0.3007
 5416SOL    HW217148   3.075   6.808   4.518 -3.0493 -2.8345 -1.5619
 5417SOL     OW17149   1.145   6.875   5.654  0.0228  0.3667 -0.2343
 5417SOL    HW117150   1.235   6.913   5.633  0.5093  0.1817  1.3832
 5417SOL    HW217151   1.148   6.775   5.643 -0.9693  0.6007 -3.4786
 5418SOL     OW17152   2.699   6.707   1.833 -0.1362 -0.5299 -0.1424
 5418SOL    HW117153   2.612   6.687   1.879 -0.5626  0.7779 -0.3489
 5418SOL    HW217154   2.722   6.631   1.772 -0.4003 -1.5354  0.9676
 5419SOL     OW17155   3.687   2.843   0.039 -0.0503  0.1671  0.0138
 5419SOL    HW117156   3.627   2.801   0.107  0.4830 -3.3073 -1.4828
 5419SOL    HW217157   3.778   2.802   0.045  1.5258  3.3434  0.3657
 5420SOL     OW17158   2.427   1.334   3.492 -0.7928  0.2715 -0.2023
 5420SOL    HW117159   2.395   1.322   3.586 -0.2724  0.4482  0.0062
 5420SOL    HW217160   2.479   1.420   3.486  0.9566 -0.7254 -0.1379
 5421SOL     OW17161   1.606   2.648   6.326 -0.4155 -0.2484 -1.0140
 5421SOL    HW117162   1.661   2.673   6.406 -1.0333 -0.9550 -0.3553
 5421SOL    HW217163   1.665   2.646   6.245 -0.1162  2.3001 -0.9615
 5422SOL     OW17164   0.620   3.393   0.092  0.1308 -0.0493  0.6590
 5422SOL    HW117165   0.643   3.450   0.013  0.6317 -0.8385  0.2256
 5422SOL    HW217166   0.526   3.411   0.120  0.0202  0.3943  0.0180
 5423SOL     OW17167   4.073   3.883   5.331  0.9274  0.2474 -0.6020
 5423SOL    HW117168   4.044   3.789   5.316  1.5490  0.0289 -0.4372
 5423SOL    HW217169   4.107   3.921   5.245 -1.6071  1.1557 -1.3160
 5424SOL     OW17170   4.890   3.887   3.941  0.5593 -0.5718 -0.0557
 5424SOL    HW117171   4.888   3.824   3.864 -0.9942 -1.3164  0.5535
 5424SOL    HW217172   4.885   3.836   4.027 -0.1704  0.3359  0.4686
 5425SOL     OW17173   6.905   1.329   2.474  0.2949  0.4244  0.2299
 5425SOL    HW117174   6.943   1.255   2.418  0.7030  2.9512 -3.2071
 5425SOL    HW217175   6.980   1.385   2.510 -0.0220 -0.4847  2.4439
 5426SOL     OW17176   1.493   2.572   4.022 -0.7354  0.5387  0.3889
 5426SOL    HW117177   1.409   2.573   4.075 -1.3023  1.3967 -0.5050
 5426SOL    HW217178   1.570   2.553   4.083 -1.6623 -1.3695  1.0485
 5427SOL     OW17179   3.528   5.621   1.558  0.6966 -0.0421 -0.2275
 5427SOL    HW117180   3.456   5.601   1.625  0.0690  2.9736  0.1449
 5427SOL    HW217181   3.489   5.675   1.483  2.4105  0.9995 -0.4078
 5428SOL     OW17182   2.521   0.029   2.094  0.2879  0.0588 -0.4538
 5428SOL    HW117183   2.495  -0.002   2.186  0.9175 -0.9422 -0.5908
 5428SOL    HW217184   2.595   0.096   2.101 -1.4647  2.0695 -0.1218
 5429SOL     OW17185   2.180   1.898   6.528 -0.3121 -0.4256 -0.1856
 5429SOL    HW117186   2.134   1.910   6.440 -1.9018 -0.4105  0.6174
 5429SOL    HW217187   2.113   1.875   6.598  1.0387 -1.3327  0.8648
 5430SOL     OW17188   2.775   0.338   6.715  0.7797 -0.4350  0.1238
 5430SOL    HW117189   2.822   0.259   6.753  0.5661 -1.3337 -1.3847
 5430SOL    HW217190   2.679   0.336   6.743  1.3336  0.8586  2.3779
 5431SOL     OW17191   3.371   6.967   3.307  0.4775 -0.1549  0.5304
 5431SOL    HW117192   3.442   7.016   3.357 -0.1209  0.6634  0.5863
 5431SOL    HW217193   3.283   7.009   3.323  0.1099 -0.5688 -0.3166
 5432SOL     OW17194   6.435   5.272   6.433 -0.0463 -0.0326  0.1113
 5432SOL    HW117195   6.386   5.211   6.495 -1.5009  0.7550 -0.2224
 5432SOL    HW217196   6.372   5.340   6.395  1.4928  1.6697  0.4173
 5433SOL     OW17197   2.594   0.911   3.219 -0.1092 -0.6197  0.1450
 5433SOL    HW117198   2.527   0.979   3.250  0.4198  0.0231 -0.1196
 5433SOL    HW217199   2.628   0.860   3.299 -1.9357 -1.9300  0.1512
 5434SOL     OW17200   1.792   6.046   4.135  0.2362 -0.6985  0.2007
 5434SOL    HW117201   1.845   6.129   4.120 -1.5302  0.3278 -0.7771
 5434SOL    HW217202   1.745   6.051   4.223 -0.4498 -0.2881 -0.1759
 5435SOL     OW17203   3.542   3.105   1.885 -1.0735  0.0585 -0.1361
 5435SOL    HW117204   3.574   3.012   1.869 -0.0296  0.1374  1.3190
 5435SOL    HW217205   3.449   3.115   1.851 -0.1133 -0.5770 -3.2977
 5436SOL     OW17206   5.558   4.604   3.217  0.3167  0.3966  0.0341
 5436SOL    HW117207   5.533   4.700   3.226 -0.8407  0.1607 -0.4484
 5436SOL    HW217208   5.597   4.588   3.127 -1.2858  0.0622 -0.6232
 5437SOL     OW17209   4.383   5.376   5.158  0.2463  0.2314  0.2033
 5437SOL    HW117210   4.381   5.469   5.194  2.2940  0.1243  0.6689
 5437SOL    HW217211   4.320   5.319   5.211 -0.7324  1.2219  0.1674
 5438SOL     OW17212   0.648   0.264   0.918  0.2220 -0.0129  0.0681
 5438SOL    HW117213   0.691   0.241   1.005  1.0669  0.5310 -0.1919
 5438SOL    HW217214   0.609   0.182   0.877  0.8011 -0.4802  0.4325
 5439SOL     OW17215   1.093   2.883   0.995  0.5155  0.1819 -0.3113
 5439SOL    HW117216   1.188   2.912   0.982  1.8651 -3.6995 -0.2981
 5439SOL    HW217217   1.077   2.799   0.943 -1.6710 -1.5399  2.8362
 5440SOL     OW17218   1.207   7.013   1.860 -0.2208  0.5582 -0.3304
 5440SOL    HW117219   1.152   7.064   1.794  0.3485  0.7727 -0.6468
 5440SOL    HW217220   1.165   7.022   1.951  1.7161  4.7143  0.3913
 5441SOL     OW17221   3.727   3.080   5.489 -0.1877  0.2159  0.3682
 5441SOL    HW117222   3.630   3.101   5.474 -0.1254 -0.3117 -0.8804
 5441SOL    HW217223   3.735   3.004   5.553 -0.6539 -0.5249 -0.4344
 5442SOL     OW17224   5.274   1.596   1.843  0.0588 -0.0372  0.1998
 5442SOL    HW117225   5.347   1.566   1.781 -1.9882  1.9818 -3.5612
 5442SOL    HW217226   5.314   1.647   1.919  2.6710 -0.6145 -0.6910
 5443SOL     OW17227   6.945   4.440   0.501 -0.3582  0.5620  0.4400
 5443SOL    HW117228   7.042   4.462   0.491 -0.4727  1.2099  0.6771
 5443SOL    HW217229   6.904   4.430   0.410 -0.2621  1.1969  0.3213
 5444SOL     OW17230   6.857   0.909   4.115 -0.2701  0.1241 -0.1865
 5444SOL    HW117231   6.786   0.945   4.177 -0.3681 -2.4477  1.3506
 5444SOL    HW217232   6.813   0.866   4.036 -0.3919 -0.4721  0.1992
 5445SOL     OW17233   5.271   2.836   1.960 -0.0374 -0.6589 -0.1029
 5445SOL    HW117234   5.320   2.823   2.046 -0.4191  2.1771  0.6433
 5445SOL    HW217235   5.176   2.861   1.979 -0.1977 -0.2457 -1.3468
 5446SOL     OW17236   5.723   1.238   5.851 -0.1022 -0.6559 -0.0445
 5446SOL    HW117237   5.802   1.192   5.892  0.0507 -0.4822 -0.1423
 5446SOL    HW217238   5.648   1.240   5.918  0.6225  0.9149  0.7691
 5447SOL     OW17239   2.406   6.344   0.410  0.2193  0.2211  0.1957
 5447SOL    HW117240   2.390   6.272   0.342 -0.1840  0.3376  0.1659
 5447SOL    HW217241   2.378   6.432   0.372  0.0061  0.2881  0.5091
 5448SOL     OW17242   4.426   5.482   6.058  0.2766 -0.1677  0.5720
 5448SOL    HW117243   4.406   5.458   6.153  1.4787 -0.8727  0.6688
 5448SOL    HW217244   4.442   5.398   6.005 -2.2337  0.0844 -0.7279
 5449SOL     OW17245   0.061   3.383   5.719 -0.0715  0.3511 -0.1040
 5449SOL    HW117246   0.157   3.408   5.729 -0.3104  1.0790  0.4148
 5449SOL    HW217247   0.012   3.456   5.672 -0.1740 -0.4653 -1.3277
 5450SOL     OW17248   3.097   5.742   1.420  0.2375  0.0438 -0.3750
 5450SOL    HW117249   3.045   5.709   1.341 -0.5757 -0.9158  0.5379
 5450SOL    HW217250   3.047   5.815   1.465 -0.2881 -0.7961  0.4324
 5451SOL     OW17251   1.795   1.246   0.895 -0.1645  0.2963  0.4549
 5451SOL    HW117252   1.888   1.223   0.924 -0.1599 -0.2591  0.0079
 5451SOL    HW217253   1.800   1.303   0.812 -0.2217  0.4700  0.5693
 5452SOL     OW17254   1.429   5.441   6.101  0.1163  0.1205  0.0012
 5452SOL    HW117255   1.471   5.357   6.067  2.1940  1.0248  0.2221
 5452SOL    HW217256   1.330   5.428   6.108  0.2738 -1.9450 -0.9527
 5453SOL     OW17257   0.545   4.256   4.758  0.3108  0.3248 -0.7171
 5453SOL    HW117258   0.609   4.308   4.702 -1.2620  0.6444 -2.3039
 5453SOL    HW217259   0.499   4.317   4.821 -0.4377  0.6138 -1.5277
 5454SOL     OW17260   0.870   3.372   4.488 -0.1400  0.5585 -0.7566
 5454SOL    HW117261   0.872   3.334   4.580 -2.8648  0.8367 -0.5290
 5454SOL    HW217262   0.827   3.307   4.426  0.3111  0.9932 -1.5455
 5455SOL     OW17263   4.993   2.531   0.967 -0.2669 -0.6784  0.4299
 5455SOL    HW117264   5.067   2.539   1.034 -0.0844 -2.9070  0.5722
 5455SOL    HW217265   4.908   2.507   1.015 -0.7878  0.4910  0.1220
 5456SOL     OW17266   4.086   6.481   0.186  0.0838 -0.2559  0.0700
 5456SOL    HW117267   4.076   6.539   0.105  1.2519  0.4709  0.4168
 5456SOL    HW217268   4.162   6.418   0.172  0.9115  0.5234  0.9556
 5457SOL     OW17269   1.211   2.416   1.366  0.1223  0.0322  0.1513
 5457SOL    HW117270   1.137   2.354   1.341  0.8460 -0.3164 -1.2097
 5457SOL    HW217271   1.177   2.486   1.429 -1.1908 -0.4951  0.0455
 5458SOL     OW17272   1.913   5.330   6.728  0.2612 -0.0111 -0.1941
 5458SOL    HW117273   1.949   5.303   6.817 -1.2252  1.7035  0.9688
 5458SOL    HW217274   1.946   5.422   6.705 -0.1213 -0.0611 -0.9725
 5459SOL     OW17275   0.004   5.168   5.939 -0.4532 -0.5205  0.0539
 5459SOL    HW117276   0.042   5.203   5.853 -1.6563  1.8334  0.4035
 5459SOL    HW217277   0.050   5.210   6.016 -0.7953 -1.0230  0.5397
 5460SOL     OW17278   3.947   1.036   5.811  0.0580 -0.3625 -0.1354
 5460SOL    HW117279   3.907   1.074   5.894 -2.5209  0.1824 -1.5289
 5460SOL    HW217280   3.918   0.941   5.800 -1.9659  0.3525 -1.7087
 5461SOL     OW17281   2.093   6.264   3.658 -0.0324  0.1689  0.5924
 5461SOL    HW117282   2.173   6.213   3.690 -0.1872 -0.6581 -0.2860
 5461SOL    HW217283   2.123   6.353   3.623  0.0418  1.5128  3.7288
 5462SOL     OW17284   6.731   1.018   2.681  0.0679  0.3330  0.0725
 5462SOL    HW117285   6.685   1.081   2.618  0.4661  0.6327  0.0772
 5462SOL    HW217286   6.777   0.946   2.628  0.0106  0.3190  0.0419
 5463SOL     OW17287   6.619   3.128   1.290  0.1495  0.1737  0.4121
 5463SOL    HW117288   6.705   3.151   1.337  0.2954  0.0880  0.1850
 5463SOL    HW217289   6.572   3.057   1.342  0.1899  0.2569  0.5658
 5464SOL     OW17290   0.387   6.840   3.570 -0.2953 -0.8275 -0.2162
 5464SOL    HW117291   0.350   6.787   3.646  0.2876 -1.1551 -0.1491
 5464SOL    HW217292   0.485   6.853   3.583 -0.4518  0.4177 -0.1606
 5465SOL     OW17293   3.934   5.613   5.479  0.1430 -0.4459 -0.1036
 5465SOL    HW117294   3.858   5.606   5.414 -0.0829 -1.4181  0.2532
 5465SOL    HW217295   3.938   5.530   5.535  0.4803  0.2702  0.9667
 5466SOL     OW17296   4.292   1.099   1.781  0.1850 -0.1821 -0.4726
 5466SOL    HW117297   4.214   1.041   1.805 -0.1019 -0.2401 -1.4750
 5466SOL    HW217298   4.302   1.173   1.848 -0.6691 -0.2401 -0.2762
 5467SOL     OW17299   4.473   1.164   2.233  0.2565  0.6226 -0.1283
 5467SOL    HW117300   4.381   1.199   2.255  0.7217  2.1255 -0.4297
 5467SOL    HW217301   4.508   1.212   2.152  1.8217  1.0370  0.7517
 5468SOL     OW17302   3.448   2.721   5.321  0.3684  0.3402 -0.2759
 5468SOL    HW117303   3.496   2.760   5.400 -0.0839 -0.8045  0.5905
 5468SOL    HW217304   3.427   2.625   5.339  0.5655 -0.0476 -1.9468
 5469SOL     OW17305   6.243   4.634   1.901  0.1598  0.7475 -0.3439
 5469SOL    HW117306   6.308   4.693   1.854 -1.1073  2.5944  0.0977
 5469SOL    HW217307   6.151   4.673   1.893 -0.8749 -1.5420 -0.5862
 5470SOL     OW17308   6.983   4.631   3.526  0.1197  0.1734 -0.3118
 5470SOL    HW117309   6.951   4.688   3.451  1.2986 -0.6350 -1.4666
 5470SOL    HW217310   7.066   4.672   3.566  0.0242  0.1242 -0.0636
 5471SOL     OW17311   0.156   2.709   0.953 -0.2403  0.5659 -0.2290
 5471SOL    HW117312   0.085   2.697   1.022  0.4783 -0.0555  0.4265
 5471SOL    HW217313   0.136   2.652   0.873 -1.2659  1.5655 -0.7116
 5472SOL     OW17314   1.827   5.023   5.870 -0.0183  0.1254  0.0354
 5472SOL    HW117315   1.739   5.013   5.918  0.7773 -0.3183  1.4545
 5472SOL    HW217316   1.897   4.971   5.919  0.8048 -0.5165 -1.7574
 5473SOL     OW17317   1.888   2.812   2.757 -0.4186  0.2466  0.1257
 5473SOL    HW117318   1.976   2.856   2.740  0.4198 -1.0557  0.9852
 5473SOL    HW217319   1.884   2.781   2.852 -1.0878 -1.2876 -0.3812
 5474SOL     OW17320   1.410   0.406   4.663  0.3158 -0.3024  0.0324
 5474SOL    HW117321   1.499   0.419   4.706 -0.9873  0.0870  2.8147
 5474SOL    HW217322   1.371   0.319   4.691 -0.5409 -0.0884 -0.4543
 5475SOL     OW17323   3.080   1.656   1.662 -0.1777  0.3492 -0.2354
 5475SOL    HW117324   3.097   1.670   1.760 -1.3528 -1.9334  0.3558
 5475SOL    HW217325   3.158   1.692   1.610  2.2999 -1.6795  1.7612
 5476SOL     OW17326   3.316   1.489   7.022  0.2442 -0.1776 -0.0206
 5476SOL    HW117327   3.371   1.572   7.030  1.0843 -0.9332  3.0429
 5476SOL    HW217328   3.350   1.434   6.946  0.8732  1.3731 -0.9166
 5477SOL     OW17329   3.214   1.901   2.245 -0.0375  0.1973 -0.1281
 5477SOL    HW117330   3.172   1.812   2.228  2.2148 -0.7123 -1.3041
 5477SOL    HW217331   3.306   1.903   2.207 -0.3138  3.3605 -0.9486
 5478SOL     OW17332   6.179   4.242   6.061  0.1583 -0.1591  0.4783
 5478SOL    HW117333   6.158   4.203   6.151  0.1122  0.5617  0.7846
 5478SOL    HW217334   6.112   4.211   5.995 -1.1300  1.0573  1.1657
 5479SOL     OW17335   4.398   0.273   4.171  0.5817  0.0837 -0.2968
 5479SOL    HW117336   4.426   0.202   4.236  0.1939 -0.4322 -0.6859
 5479SOL    HW217337   4.304   0.256   4.141 -0.0185  1.5346  0.6392
 5480SOL     OW17338   6.140   1.066   6.426 -0.2827  0.1959  0.3353
 5480SOL    HW117339   6.052   1.104   6.398  0.6710  2.1272 -0.1970
 5480SOL    HW217340   6.152   1.081   6.525 -0.7479 -0.5151  0.5049
 5481SOL     OW17341   4.454   0.805   2.029  0.0523  0.0855 -0.2746
 5481SOL    HW117342   4.404   0.832   1.947 -1.1045  0.3703  0.5077
 5481SOL    HW217343   4.462   0.705   2.032  0.1373  0.0758 -0.7449
 5482SOL     OW17344   1.816   6.470   1.560  0.1114  0.0258  0.0007
 5482SOL    HW117345   1.861   6.557   1.580 -2.1890  1.3978 -0.4769
 5482SOL    HW217346   1.807   6.458   1.461  2.7471 -2.0952 -0.0990
 5483SOL     OW17347   1.658   1.832   6.543 -0.1985  0.5107  0.2507
 5483SOL    HW117348   1.659   1.858   6.446 -0.9718  0.9068  0.3411
 5483SOL    HW217349   1.653   1.733   6.551  3.1897  0.2097 -0.1075
 5484SOL     OW17350   3.287   5.470   5.093  0.5121  0.0491 -0.0078
 5484SOL    HW117351   3.331   5.481   5.003  2.1862  0.9991  0.8866
 5484SOL    HW217352   3.254   5.558   5.125  2.4811  0.2820  1.5420
 5485SOL     OW17353   3.562   0.037   4.413  0.2866 -0.8404 -0.1437
 5485SOL    HW117354   3.488   0.091   4.452  1.2068  0.6917 -0.4669
 5485SOL    HW217355   3.635   0.026   4.481  0.6887 -0.5322 -0.5247
 5486SOL     OW17356   2.272   5.029   5.900 -0.1613  0.8498 -0.0129
 5486SOL    HW117357   2.315   5.028   5.810 -1.6789  1.2505 -0.7813
 5486SOL    HW217358   2.320   5.093   5.959  1.0535  0.3423 -0.4149
 5487SOL     OW17359   3.585   6.142   6.782  0.2448  0.6477  0.7593
 5487SOL    HW117360   3.640   6.178   6.858  1.2337 -1.7956  1.3055
 5487SOL    HW217361   3.491   6.128   6.813  0.5339  0.0888  1.4163
 5488SOL     OW17362   3.990   1.686   0.877 -0.1721  0.0075 -0.2943
 5488SOL    HW117363   4.029   1.609   0.928 -0.5072 -0.2326 -0.3971
 5488SOL    HW217364   3.977   1.763   0.939  0.9790  0.2842 -0.3733
 5489SOL     OW17365   0.751   4.342   5.008  0.4591  0.1768 -0.4255
 5489SOL    HW117366   0.838   4.325   5.054  0.0948  1.1709  0.6732
 5489SOL    HW217367   0.677   4.299   5.060  0.1845  0.1494 -0.8347
 5490SOL     OW17368   0.715   3.766   1.543 -0.6635  0.1404 -0.0926
 5490SOL    HW117369   0.753   3.745   1.453 -1.0560  2.8138 -0.9533
 5490SOL    HW217370   0.663   3.687   1.576  1.4002 -1.7653 -1.1040
 5491SOL     OW17371   0.166   3.330   5.427  0.1267 -0.4374 -0.2958
 5491SOL    HW117372   0.196   3.414   5.471 -0.3716 -1.1377  1.4592
 5491SOL    HW217373   0.184   3.252   5.487 -2.2902 -1.2365 -0.5062
 5492SOL     OW17374   0.251   1.569   1.184  0.0589  0.6692  0.2476
 5492SOL    HW117375   0.297   1.601   1.266 -0.7892  0.8126  0.6763
 5492SOL    HW217376   0.152   1.580   1.194 -0.0314  1.2021 -1.0085
 5493SOL     OW17377   5.157   3.017   6.036 -0.1897 -0.0707  0.2434
 5493SOL    HW117378   5.183   3.079   5.963 -2.4661 -0.3935 -0.9268
 5493SOL    HW217379   5.129   3.070   6.117  0.0830  0.3342  0.0775
 5494SOL     OW17380   6.675   3.494   5.356  0.4294  0.1981 -0.3693
 5494SOL    HW117381   6.669   3.413   5.415  0.6378 -0.5669 -1.3581
 5494SOL    HW217382   6.733   3.472   5.277  0.8237  1.4573 -0.4439
 5495SOL     OW17383   4.504   0.618   6.522 -0.1148 -0.3654  0.2540
 5495SOL    HW117384   4.573   0.639   6.452  0.3173  0.8214  1.0024
 5495SOL    HW217385   4.420   0.588   6.477  0.3434 -0.2097 -0.7492
 5496SOL     OW17386   3.282   1.061   1.403  0.0399  0.8164  0.2495
 5496SOL    HW117387   3.351   1.020   1.344 -0.9876 -0.1277 -0.3321
 5496SOL    HW217388   3.267   1.156   1.377 -1.3103  0.0916 -1.9350
 5497SOL     OW17389   1.508   1.553   5.262 -0.2629  0.5969 -0.6470
 5497SOL    HW117390   1.529   1.579   5.356  2.5582 -1.4745 -0.5858
 5497SOL    HW217391   1.542   1.624   5.199  0.9147  0.4284 -0.2208
 5498SOL     OW17392   0.243   6.944   0.965  0.3396  0.5809 -0.3815
 5498SOL    HW117393   0.335   6.956   1.004  0.6422 -1.3330 -0.4164
 5498SOL    HW217394   0.241   6.984   0.873  0.8388  1.4674 -0.0229
 5499SOL     OW17395   2.371   6.677   5.259 -0.2408 -0.1186 -0.1121
 5499SOL    HW117396   2.354   6.741   5.334  0.8324 -0.8574  0.7999
 5499SOL    HW217397   2.309   6.599   5.267 -0.4856  0.0548 -0.3077
 5500SOL     OW17398   6.506   5.554   1.890 -0.2846  0.2223 -0.1050
 5500SOL    HW117399   6.513   5.454   1.894 -1.1065  0.1743  0.4255
 5500SOL    HW217400   6.588   5.594   1.930 -0.3335 -0.2517  0.4848
 5501SOL     OW17401   6.581   2.596   1.021 -0.0818 -0.3122 -0.4925
 5501SOL    HW117402   6.592   2.611   1.120  0.0713  0.9879 -0.6896
 5501SOL    HW217403   6.484   2.592   0.998 -0.2096  2.4873 -0.6845
 5502SOL     OW17404   6.017   4.767   0.834 -0.2456  0.1182  0.2100
 5502SOL    HW117405   6.007   4.800   0.928 -0.0843  0.0406  0.2544
 5502SOL    HW217406   5.964   4.825   0.773  0.9478  1.1760  0.1391
 5503SOL     OW17407   4.759   3.351   1.222  0.8312 -0.3936  0.0197
 5503SOL    HW117408   4.705   3.389   1.297  0.7421 -0.5620  0.0418
 5503SOL    HW217409   4.701   3.292   1.166  0.0183  2.2348 -2.0940
 5504SOL     OW17410   3.883   2.649   6.354 -0.0996 -0.4145  0.7734
 5504SOL    HW117411   3.806   2.597   6.392 -1.5538  1.0579 -0.0546
 5504SOL    HW217412   3.956   2.654   6.423 -0.9484 -1.3600  1.7960
 5505SOL     OW17413   4.468   5.682   2.960  0.0853 -0.3058  0.1327
 5505SOL    HW117414   4.532   5.755   2.936  0.0210 -0.3350 -0.1244
 5505SOL    HW217415   4.454   5.622   2.882 -2.3144  1.2141 -0.6885
 5506SOL     OW17416   0.530   3.659   5.827 -0.4419  0.1349  0.0912
 5506SOL    HW117417   0.614   3.678   5.877  1.0505 -0.6449 -1.9709
 5506SOL    HW217418   0.489   3.574   5.861 -0.0391  0.1702  0.6751
 5507SOL     OW17419   3.894   5.245   6.768  0.3273 -1.0443 -0.2317
 5507SOL    HW117420   3.949   5.193   6.703  0.1253  0.3909 -1.5904
 5507SOL    HW217421   3.813   5.192   6.793 -0.1869 -1.1628 -2.0427
 5508SOL     OW17422   6.493   3.416   6.851 -1.3263 -0.5021 -0.1475
 5508SOL    HW117423   6.543   3.346   6.902 -1.3557 -0.7272 -0.4222
 5508SOL    HW217424   6.467   3.490   6.912  0.8478  0.4726 -0.2991
 5509SOL     OW17425   6.452   4.471   1.162 -0.0159  0.1013  0.0684
 5509SOL    HW117426   6.402   4.494   1.245  0.3757  2.8028 -0.3496
 5509SOL    HW217427   6.397   4.494   1.081 -0.3591 -2.4091 -0.4753
 5510SOL     OW17428   6.669   6.286   4.161 -0.1409 -0.5403  0.1611
 5510SOL    HW117429   6.649   6.191   4.181 -0.8428 -0.2046  1.1153
 5510SOL    HW217430   6.756   6.292   4.112  0.1780 -1.6215  0.5692
 5511SOL     OW17431   0.036   2.573   6.372 -0.4459  0.2639  0.3547
 5511SOL    HW117432   0.030   2.643   6.301  0.0600  0.7916  0.8247
 5511SOL    HW217433   0.111   2.510   6.351 -1.9716 -1.2115 -0.9894
 5512SOL     OW17434   3.823   6.563   2.256 -0.5734 -0.0172 -0.0631
 5512SOL    HW117435   3.827   6.572   2.355  1.2002 -0.6268 -0.0472
 5512SOL    HW217436   3.880   6.632   2.213  2.5886 -2.6000 -0.4023
 5513SOL     OW17437   2.262   5.195   6.897 -0.1559  0.4687  0.2428
 5513SOL    HW117438   2.210   5.139   6.832  1.5170  0.1332 -0.8578
 5513SOL    HW217439   2.270   5.288   6.863 -0.7952  0.7609  0.8619
 5514SOL     OW17440   5.135   1.016   6.099  0.3735  0.2197 -0.1393
 5514SOL    HW117441   5.112   1.062   6.014  0.5316 -0.0662 -0.3388
 5514SOL    HW217442   5.060   1.027   6.165 -0.6121 -1.2092 -0.9727
 5515SOL     OW17443   2.448   4.492   3.108  0.3642 -0.1989  0.0898
 5515SOL    HW117444   2.468   4.530   3.017  2.6594 -2.7899 -0.6472
 5515SOL    HW217445   2.522   4.516   3.171  1.3379 -2.3222 -0.1261
 5516SOL     OW17446   0.833   3.385   5.294  0.1669 -0.0998  0.0768
 5516SOL    HW117447   0.928   3.391   5.324  0.7903  1.9136 -1.9777
 5516SOL    HW217448   0.825   3.421   5.201 -2.7783  0.7939  0.5665
 5517SOL     OW17449   6.601   3.251   4.835  0.0364  0.3408 -0.3561
 5517SOL    HW117450   6.566   3.343   4.815  0.5589  0.3895 -1.0648
 5517SOL    HW217451   6.562   3.220   4.922 -2.0490  0.2533 -1.2553
 5518SOL     OW17452   2.593   3.700   6.284 -0.7102 -0.0905 -0.1394
 5518SOL    HW117453   2.550   3.769   6.226 -0.5101 -0.3089 -0.5515
 5518SOL    HW217454   2.537   3.617   6.284 -0.9347  0.0611  0.3311
 5519SOL     OW17455   4.900   0.734   6.672 -0.2011 -0.8578  0.2729
 5519SOL    HW117456   4.957   0.744   6.753  1.0382 -0.7762 -0.5845
 5519SOL    HW217457   4.804   0.723   6.699  0.2522 -1.2805  1.7493
 5520SOL     OW17458   4.870   6.944   1.083  0.6724  0.4657 -0.3948
 5520SOL    HW117459   4.808   6.880   1.128  0.0754  1.6031  0.4737
 5520SOL    HW217460   4.817   7.023   1.051  1.3891  0.5347 -1.4350
 5521SOL     OW17461   5.785   0.949   1.256  0.2795  0.3956  0.7267
 5521SOL    HW117462   5.704   0.984   1.302 -0.9153 -1.7950  0.3909
 5521SOL    HW217463   5.796   0.996   1.168 -0.9006  0.3876  0.5624
 5522SOL     OW17464   5.940   0.652   5.434 -0.1188  0.0813 -0.3830
 5522SOL    HW117465   6.028   0.608   5.420 -1.0040 -0.8978 -3.9383
 5522SOL    HW217466   5.950   0.728   5.498  2.9570 -0.7810  0.3367
 5523SOL     OW17467   6.242   1.850   0.377  0.1728 -0.3788 -0.5915
 5523SOL    HW117468   6.317   1.839   0.313 -0.1791 -0.8550 -0.9292
 5523SOL    HW217469   6.261   1.799   0.461  0.5661  0.1265 -0.3651
 5524SOL     OW17470   1.642   1.100   3.915  0.1157 -0.5529 -0.2735
 5524SOL    HW117471   1.728   1.070   3.874  0.1333 -2.7086  1.1462
 5524SOL    HW217472   1.589   1.019   3.942 -0.9825  0.7437  1.6269
 5525SOL     OW17473   1.641   2.109   7.018  0.0565  0.0682  0.3056
 5525SOL    HW117474   1.585   2.127   6.938 -2.1747  0.2269  1.8107
 5525SOL    HW217475   1.712   2.042   6.996  0.7012  1.4743 -2.2291
 5526SOL     OW17476   5.046   4.476   4.311 -0.6832  0.2779 -0.6650
 5526SOL    HW117477   5.076   4.435   4.225  0.5553  1.1925 -0.7051
 5526SOL    HW217478   5.075   4.572   4.314  1.2464 -0.2719  1.6358
 5527SOL     OW17479   0.154   0.822   2.707 -0.6283 -0.0490 -0.2410
 5527SOL    HW117480   0.189   0.842   2.798  0.6555 -0.8467 -0.5285
 5527SOL    HW217481   0.226   0.837   2.640 -1.3099 -0.2653 -1.0437
 5528SOL     OW17482   2.551   1.185   1.755 -0.1837  0.1594 -0.0416
 5528SOL    HW117483   2.515   1.255   1.817 -1.4277  0.0999 -0.6757
 5528SOL    HW217484   2.571   1.225   1.666  4.3737  0.9311  1.0807
 5529SOL     OW17485   2.954   0.829   2.134 -0.0970  0.1004  0.2853
 5529SOL    HW117486   2.957   0.920   2.094 -1.2748 -0.1519 -0.4270
 5529SOL    HW217487   2.910   0.765   2.070  0.6700 -0.9666  0.7846
 5530SOL     OW17488   1.025   1.369   3.509  0.1763  0.0344  0.8712
 5530SOL    HW117489   0.953   1.426   3.549  0.2452  1.2374 -0.6357
 5530SOL    HW217490   1.114   1.396   3.547  0.1417  0.5518  0.5955
 5531SOL     OW17491   0.032   5.854   6.288 -0.6266 -0.1095 -0.2162
 5531SOL    HW117492   0.050   5.770   6.339 -1.9666  0.5028  1.3804
 5531SOL    HW217493  -0.063   5.853   6.254 -0.4779  0.5110 -0.6698
 5532SOL     OW17494   6.124   2.816   6.432 -0.4295 -0.6351  0.6786
 5532SOL    HW117495   6.211   2.777   6.464 -0.0480  0.9533  1.6589
 5532SOL    HW217496   6.122   2.913   6.452 -2.1888 -0.5173  0.0566
 5533SOL     OW17497   3.361   2.488   5.388 -0.1107  0.3643  0.3266
 5533SOL    HW117498   3.291   2.471   5.319  0.6537  2.1183 -0.9439
 5533SOL    HW217499   3.421   2.408   5.395 -0.7396 -0.1860 -0.3689
 5534SOL     OW17500   1.116   0.004   4.769  0.0424  0.2354 -0.0388
 5534SOL    HW117501   1.018  -0.013   4.771  0.1560 -0.4120  0.9760
 5534SOL    HW217502   1.165  -0.079   4.799  0.7911  1.1687  1.4534
 5535SOL     OW17503   6.222   1.339   2.746  0.2971 -0.0873 -0.0702
 5535SOL    HW117504   6.294   1.352   2.814  0.0239  1.2357  0.0097
 5535SOL    HW217505   6.157   1.270   2.779 -0.4787  1.3652  1.6193
 5536SOL     OW17506   3.093   0.949   4.373 -0.0894  0.0828  0.1077
 5536SOL    HW117507   3.102   0.878   4.443 -0.8722  2.0349  2.2949
 5536SOL    HW217508   3.148   1.029   4.399 -1.6639  1.4666 -0.6444
 5537SOL     OW17509   2.061   0.776   4.719  0.2482 -0.2339 -0.1979
 5537SOL    HW117510   2.115   0.846   4.767 -1.4559 -0.9522  3.1018
 5537SOL    HW217511   1.985   0.820   4.671 -0.2646  0.3275  1.0647
 5538SOL     OW17512   3.112   6.065   1.864  0.6548 -0.5353  0.1185
 5538SOL    HW117513   3.103   5.969   1.841  2.4237 -1.0309  1.2699
 5538SOL    HW217514   3.120   6.119   1.780  0.7818 -1.5254 -0.5207
 5539SOL     OW17515   3.076   2.790   6.114 -0.1403  0.9138 -0.5965
 5539SOL    HW117516   2.977   2.797   6.103 -0.0482  1.3402 -1.2102
 5539SOL    HW217517   3.120   2.863   6.061  0.3796  2.5810  1.9717
 5540SOL     OW17518   3.882   5.099   1.623  0.1148  0.2397 -0.1604
 5540SOL    HW117519   3.791   5.130   1.593 -0.5075  2.0238  3.1248
 5540SOL    HW217520   3.947   5.108   1.548 -1.8976  1.3293 -1.8716
 5541SOL     OW17521   3.740   6.259   6.998  0.2235 -0.2779  0.2690
 5541SOL    HW117522   3.796   6.182   7.028  0.0402 -0.4625  0.1381
 5541SOL    HW217523   3.718   6.317   7.077  1.4468  0.3635  0.1778
 5542SOL     OW17524   0.130   4.404   1.404  0.6228 -0.2249 -0.2305
 5542SOL    HW117525   0.053   4.445   1.356 -0.9467 -0.7838  1.6564
 5542SOL    HW217526   0.161   4.323   1.354 -0.4770 -0.3822 -0.6975
 5543SOL     OW17527   6.699   6.378   4.402  0.0117  0.0345  0.3865
 5543SOL    HW117528   6.706   6.344   4.308 -0.0529 -0.8339  0.6895
 5543SOL    HW217529   6.740   6.469   4.407 -1.7779  1.0015 -0.9285
 5544SOL     OW17530   4.779   6.757   6.211  1.2430  0.5110  0.3469
 5544SOL    HW117531   4.708   6.823   6.237  1.7304  0.5627  1.5915
 5544SOL    HW217532   4.868   6.791   6.240  1.4569 -0.8973  1.4061
 5545SOL     OW17533   2.656   2.458   1.878  0.2455 -0.0019  0.0830
 5545SOL    HW117534   2.632   2.421   1.788 -0.7452  2.5056 -0.7644
 5545SOL    HW217535   2.755   2.446   1.893  0.1642 -1.9276 -0.5504
 5546SOL     OW17536   3.166   6.901   5.678  0.1274  0.2120 -0.2450
 5546SOL    HW117537   3.244   6.963   5.687 -0.0813  0.8797 -2.4197
 5546SOL    HW217538   3.179   6.822   5.739  1.0624  1.6855  1.5677
 5547SOL     OW17539   3.942   6.093   5.561  0.1529 -0.3026  0.2585
 5547SOL    HW117540   3.935   6.002   5.602  1.2399 -1.5053 -1.9705
 5547SOL    HW217541   3.853   6.119   5.522  0.0611 -0.8738  0.0708
 5548SOL     OW17542   5.547   1.256   4.283 -0.5820  0.9556 -0.5153
 5548SOL    HW117543   5.602   1.182   4.244 -0.4924 -0.8402  2.6483
 5548SOL    HW217544   5.606   1.333   4.307 -0.0095  0.4864 -0.3809
 5549SOL     OW17545   4.158   0.139   1.148  0.5789 -0.0230 -0.1721
 5549SOL    HW117546   4.118   0.223   1.187  2.4373  0.9785 -0.3361
 5549SOL    HW217547   4.196   0.084   1.222  2.9106  1.2396 -0.3391
 5550SOL     OW17548   3.838   5.955   0.976  0.0493 -0.2636 -0.2959
 5550SOL    HW117549   3.923   5.998   1.006 -0.3183 -1.3117  2.4781
 5550SOL    HW217550   3.856   5.903   0.892  1.9402  0.2128 -0.2423
 5551SOL     OW17551   6.342   1.362   1.775  0.1427 -0.4548 -0.1398
 5551SOL    HW117552   6.437   1.384   1.756  0.0329  0.4956  0.3682
 5551SOL    HW217553   6.332   1.335   1.871  0.1398 -2.0385 -0.5512
 5552SOL     OW17554   2.255   2.724   1.795  0.6755 -0.3260 -0.1018
 5552SOL    HW117555   2.316   2.690   1.867  1.8583  1.1280 -0.3708
 5552SOL    HW217556   2.292   2.699   1.706  1.2250  1.1019 -0.2842
 5553SOL     OW17557   4.201   1.357   3.961 -0.8014  0.1559 -0.0781
 5553SOL    HW117558   4.164   1.450   3.954  0.7598  0.6598 -3.4222
 5553SOL    HW217559   4.190   1.310   3.873  1.0293 -1.8003  0.6526
 5554SOL     OW17560   2.103   5.609   0.494  0.4126 -0.9487  0.3095
 5554SOL    HW117561   2.169   5.534   0.494 -1.3446 -2.5818 -0.3925
 5554SOL    HW217562   2.064   5.620   0.585  0.8654 -0.6957  0.4750
 5555SOL     OW17563   0.074   6.061   2.851 -0.0280  0.4946 -0.1492
 5555SOL    HW117564   0.124   6.143   2.822 -0.0982  1.0743  1.3138
 5555SOL    HW217565   0.110   6.029   2.938 -1.7532  0.5312  0.6126
 5556SOL     OW17566   2.185   0.716   6.320  0.2678 -0.1840  0.1735
 5556SOL    HW117567   2.114   0.684   6.257 -0.2248 -0.7534  1.0063
 5556SOL    HW217568   2.143   0.773   6.391  0.3959 -1.6420  1.4720
 5557SOL     OW17569   3.140   1.512   4.206  0.2810 -0.1685 -0.9876
 5557SOL    HW117570   3.068   1.528   4.138  0.8767 -0.9029 -1.8188
 5557SOL    HW217571   3.220   1.567   4.184 -0.1622  1.0228  0.2169
 5558SOL     OW17572   5.856   1.532   0.810 -0.0284  0.0838  0.4194
 5558SOL    HW117573   5.846   1.476   0.892 -0.5312  0.1631  0.4127
 5558SOL    HW217574   5.766   1.551   0.770  0.0195  1.8276  1.0509
 5559SOL     OW17575   3.664   2.119   3.182 -0.1594  0.5969 -0.0928
 5559SOL    HW117576   3.582   2.064   3.193 -0.5829  1.4888  1.5803
 5559SOL    HW217577   3.684   2.130   3.084 -1.3432 -0.5950 -0.4977
 5560SOL     OW17578   0.360   1.577   3.294 -0.2444 -0.4363  0.2190
 5560SOL    HW117579   0.269   1.616   3.278 -0.3037 -0.7400 -0.1851
 5560SOL    HW217580   0.421   1.648   3.327 -0.5836 -0.1903  0.3223
 5561SOL     OW17581   0.901   5.810   1.187  0.2212 -0.0878 -0.0075
 5561SOL    HW117582   0.976   5.849   1.134 -1.2555  2.3993 -0.4539
 5561SOL    HW217583   0.822   5.797   1.128 -0.3532 -0.6459  0.8712
 5562SOL     OW17584   4.732   4.376   2.015 -0.0916 -0.6082 -0.0342
 5562SOL    HW117585   4.639   4.344   1.994 -1.6137  2.9370  0.5322
 5562SOL    HW217586   4.767   4.430   1.939  1.6692 -2.0443 -0.3085
 5563SOL     OW17587   5.816   4.880   1.392 -0.4345 -0.6835  0.1210
 5563SOL    HW117588   5.860   4.956   1.439 -2.2272 -0.2127  1.1198
 5563SOL    HW217589   5.842   4.794   1.436  0.7361 -0.5807 -0.3316
 5564SOL     OW17590   5.813   2.749   1.339  0.0149 -0.0254 -0.1037
 5564SOL    HW117591   5.748   2.790   1.274 -0.8153 -0.0455  0.7018
 5564SOL    HW217592   5.850   2.820   1.399  1.7332  0.2111 -1.3584
 5565SOL     OW17593   4.292   1.684   6.292 -0.3017 -0.2295  0.5568
 5565SOL    HW117594   4.201   1.666   6.256 -0.8204 -0.0191  1.7117
 5565SOL    HW217595   4.302   1.640   6.382  0.3894  0.5520  0.8765
 5566SOL     OW17596   1.628   3.857   0.341  0.8920  0.1129  0.1420
 5566SOL    HW117597   1.578   3.906   0.270  2.4968 -1.0706 -1.8990
 5566SOL    HW217598   1.661   3.923   0.409 -1.9410  1.0965  0.7265
 5567SOL     OW17599   2.811   5.794   3.310 -0.5215  0.4235 -0.5550
 5567SOL    HW117600   2.747   5.834   3.376 -0.2219  1.1524 -0.6986
 5567SOL    HW217601   2.852   5.867   3.255  1.6602  0.1671  0.6239
 5568SOL     OW17602   3.756   2.919   6.574 -0.2297  0.4484  0.6957
 5568SOL    HW117603   3.683   2.924   6.506 -0.3222  1.5573  0.8706
 5568SOL    HW217604   3.818   2.996   6.562  0.2691  0.1512  1.2987
 5569SOL     OW17605   4.167   1.425   5.756  0.4907  0.1942  0.0751
 5569SOL    HW117606   4.250   1.407   5.703  0.3766 -0.9391  0.2566
 5569SOL    HW217607   4.160   1.523   5.774  1.7017  0.3270 -0.0783
 5570SOL     OW17608   6.660   6.393   5.518 -0.1953 -0.9122 -0.5278
 5570SOL    HW117609   6.564   6.366   5.526 -0.9950  1.9434  0.4746
 5570SOL    HW217610   6.677   6.429   5.427 -0.4992 -0.0327 -0.2476
 5571SOL     OW17611   2.436   4.760   5.604 -0.0333  0.2680  0.0577
 5571SOL    HW117612   2.340   4.730   5.608  0.9592 -3.2796 -0.0934
 5571SOL    HW217613   2.485   4.727   5.684  1.7003 -0.5793 -1.2864
 5572SOL     OW17614   3.248   4.870   5.241 -0.2124 -0.1680  0.0865
 5572SOL    HW117615   3.196   4.786   5.226 -0.5401  0.2350 -1.1222
 5572SOL    HW217616   3.227   4.907   5.332  0.4006 -1.6964  0.8940
 5573SOL     OW17617   0.144   4.573   1.059  0.0386 -0.3744  0.0481
 5573SOL    HW117618   0.190   4.493   1.022 -0.8400 -0.8133 -0.1337
 5573SOL    HW217619   0.061   4.544   1.107 -0.5550  0.4619 -0.4482
 5574SOL     OW17620   1.200   0.319   5.830 -0.1501 -0.4068  0.7824
 5574SOL    HW117621   1.102   0.299   5.827 -0.2530 -0.8587  3.7268
 5574SOL    HW217622   1.251   0.236   5.852  0.7872  0.0609  0.4405
 5575SOL     OW17623   2.446   0.139   3.332 -0.9416  0.1801  0.0109
 5575SOL    HW117624   2.423   0.181   3.420 -0.6479  0.6460 -0.1281
 5575SOL    HW217625   2.448   0.040   3.342 -2.4572  0.1412  0.1561
 5576SOL     OW17626   3.486   5.828   1.030  0.1104 -0.0544 -0.1089
 5576SOL    HW117627   3.430   5.753   1.064 -1.2511  0.7683 -0.4595
 5576SOL    HW217628   3.560   5.792   0.973  1.4524 -1.3344  2.2630
 5577SOL     OW17629   2.293   4.450   5.603  0.7212  0.3016 -0.1564
 5577SOL    HW117630   2.253   4.536   5.571 -0.8863 -0.6377 -0.7963
 5577SOL    HW217631   2.307   4.389   5.525  1.9004 -0.0170  0.2835
 5578SOL     OW17632   4.326   1.873   5.336  0.0717  0.8664  0.5826
 5578SOL    HW117633   4.413   1.839   5.372 -0.5330  0.7585  2.0329
 5578SOL    HW217634   4.252   1.812   5.365 -0.9503  2.9341  2.6069
 5579SOL     OW17635   5.412   5.025   1.943  0.3553  0.5569 -0.0013
 5579SOL    HW117636   5.506   5.052   1.922  0.0159  0.7330 -1.4260
 5579SOL    HW217637   5.409   4.927   1.961  1.0682  0.8287  1.8691
 5580SOL     OW17638   0.445   0.310   3.333  0.5650 -0.2035  0.2989
 5580SOL    HW117639   0.362   0.364   3.346 -0.3505 -1.6210  0.6296
 5580SOL    HW217640   0.422   0.228   3.280  1.3517 -1.5501  1.9577
 5581SOL     OW17641   3.276   0.835   6.950 -0.0966  0.5406 -0.4329
 5581SOL    HW117642   3.367   0.865   6.920 -0.0013  1.8639  1.0728
 5581SOL    HW217643   3.276   0.736   6.961  1.1473  0.5082 -0.5633
 5582SOL     OW17644   2.923   4.228   5.877 -0.0887  0.5199 -0.2810
 5582SOL    HW117645   2.962   4.213   5.969 -1.9975  1.4572  0.7312
 5582SOL    HW217646   2.989   4.197   5.808  0.3930 -2.6669  1.4053
 5583SOL     OW17647   4.221   0.459   0.292 -0.1560 -0.4011 -0.5321
 5583SOL    HW117648   4.157   0.525   0.254  0.8313  1.2113  0.4975
 5583SOL    HW217649   4.172   0.390   0.345 -1.1746 -0.3237 -1.3589
 5584SOL     OW17650   5.244   3.859   5.085  0.1427 -0.4628 -0.7438
 5584SOL    HW117651   5.297   3.823   5.008 -0.0314  0.6219 -1.3952
 5584SOL    HW217652   5.301   3.858   5.168 -0.0422 -2.7308 -0.5804
 5585SOL     OW17653   5.560   1.646   4.786  0.4835 -0.5386  0.0207
 5585SOL    HW117654   5.537   1.669   4.691  0.8232  0.7381  0.2269
 5585SOL    HW217655   5.477   1.647   4.841  0.5494  0.9303  0.1465
 5586SOL     OW17656   6.487   5.181   2.970  0.1556 -0.6703  0.2704
 5586SOL    HW117657   6.457   5.132   3.052 -0.4267 -0.9301 -0.0927
 5586SOL    HW217658   6.443   5.271   2.967  0.0491 -0.7276  0.1512
 5587SOL     OW17659   3.694   1.325   4.551  0.6007  0.4447  0.0513
 5587SOL    HW117660   3.720   1.389   4.478  2.3291 -0.2467  0.0222
 5587SOL    HW217661   3.726   1.233   4.529 -0.2455 -0.0945  0.9593
 5588SOL     OW17662   4.621   6.928   5.964  0.4549  0.7836 -0.6928
 5588SOL    HW117663   4.643   6.831   5.949 -0.2057  0.4943  0.1125
 5588SOL    HW217664   4.577   6.965   5.883 -2.5412 -0.5913  0.1364
 5589SOL     OW17665   2.141   1.665   0.684  0.1553  0.2311  0.2408
 5589SOL    HW117666   2.172   1.571   0.701 -2.4491 -0.8085 -0.1489
 5589SOL    HW217667   2.170   1.694   0.593  0.1459 -0.5903 -0.0301
 5590SOL     OW17668   4.652   6.865   2.398  0.1371 -0.0023 -0.2160
 5590SOL    HW117669   4.734   6.829   2.353  1.7458  0.8208  1.8988
 5590SOL    HW217670   4.637   6.960   2.370 -0.0836 -0.1341 -0.5553
 5591SOL     OW17671   5.709   1.722   6.764  0.3932 -0.2708  0.2174
 5591SOL    HW117672   5.755   1.786   6.702  0.3173 -0.1289  0.3080
 5591SOL    HW217673   5.736   1.741   6.858  0.5487 -0.5217  0.2225
 5592SOL     OW17674   6.737   4.144   2.451 -0.5846  0.8956  0.6582
 5592SOL    HW117675   6.720   4.158   2.353  0.8188 -1.7896 -0.0911
 5592SOL    HW217676   6.826   4.181   2.475  0.2817 -0.7821  0.2025
 5593SOL     OW17677   2.048   4.900   5.365 -0.1002 -0.2406 -0.5134
 5593SOL    HW117678   1.954   4.919   5.339  0.6305  1.4308 -2.1658
 5593SOL    HW217679   2.092   4.847   5.292 -0.2478 -2.7721  1.1218
 5594SOL     OW17680   2.972   0.522   6.079  0.0387  0.1010  0.2816
 5594SOL    HW117681   3.069   0.499   6.077 -0.0719 -0.3222 -0.5244
 5594SOL    HW217682   2.934   0.498   6.169  1.2127  2.6085  1.5169
 5595SOL     OW17683   0.438   6.587   2.262 -0.3248 -0.3441 -0.0877
 5595SOL    HW117684   0.537   6.592   2.252 -0.3942  1.7481 -0.1448
 5595SOL    HW217685   0.411   6.627   2.349 -1.0704 -2.0093  0.4923
 5596SOL     OW17686   5.088   5.337   4.134  0.2227  0.1046 -0.0344
 5596SOL    HW117687   5.168   5.393   4.151  0.0105  0.8261 -1.3360
 5596SOL    HW217688   5.105   5.276   4.057 -0.5328  0.3846 -0.4352
 5597SOL     OW17689   1.128   2.726   6.087  0.1055  0.0837 -0.6196
 5597SOL    HW117690   1.159   2.722   5.992 -0.6461  1.2083 -0.9283
 5597SOL    HW217691   1.187   2.789   6.138  0.2856 -0.2430 -0.4193
 5598SOL     OW17692   1.668   1.454   3.020  0.1467  0.0865  0.5564
 5598SOL    HW117693   1.634   1.547   3.031  1.9789  0.9456 -0.5657
 5598SOL    HW217694   1.659   1.427   2.924 -0.3657 -0.9100  0.8705
 5599SOL     OW17695   5.272   4.087   0.219 -1.1420 -0.4799 -0.2852
 5599SOL    HW117696   5.266   4.000   0.269 -0.2110 -0.0727  0.5568
 5599SOL    HW217697   5.242   4.162   0.278 -0.5005 -0.0509 -0.4906
 5600SOL     OW17698   0.606   3.150   3.831  0.0427  0.9718  0.4172
 5600SOL    HW117699   0.685   3.200   3.867 -0.8786  1.8522  1.3089
 5600SOL    HW217700   0.527   3.169   3.889 -0.0665 -2.6674  1.6748
 5601SOL     OW17701   3.645   1.761   0.294  0.1505 -0.2386 -0.2485
 5601SOL    HW117702   3.731   1.724   0.258  1.2748  1.9478  0.0349
 5601SOL    HW217703   3.664   1.837   0.357 -2.0020  0.7471 -0.6782
 5602SOL     OW17704   6.682   2.175   1.695 -0.2191  0.2855 -0.0674
 5602SOL    HW117705   6.664   2.124   1.611  0.7544 -0.6641  0.2791
 5602SOL    HW217706   6.622   2.141   1.768  0.5607 -0.5402  0.2135
 5603SOL     OW17707   4.736   3.099   0.298  0.5796 -0.0909 -0.0188
 5603SOL    HW117708   4.793   3.057   0.227  1.6342 -2.0582  1.8681
 5603SOL    HW217709   4.694   3.027   0.353  0.1112  1.3567  1.5814
 5604SOL     OW17710   2.141   4.503   4.328  0.7345  0.2138 -0.8665
 5604SOL    HW117711   2.238   4.480   4.329  0.7772  0.3861  0.3440
 5604SOL    HW217712   2.119   4.552   4.243  1.5426 -0.4513 -1.4747
 5605SOL     OW17713   1.656   6.817   4.860 -0.6277 -0.4263  0.0364
 5605SOL    HW117714   1.628   6.732   4.815 -1.0822 -1.8408  2.7957
 5605SOL    HW217715   1.674   6.800   4.957  0.5032  2.4099  0.4400
 5606SOL     OW17716   3.132   6.216   0.781 -0.0411 -0.6189 -0.3086
 5606SOL    HW117717   3.144   6.134   0.836 -1.6431 -1.5778 -1.2911
 5606SOL    HW217718   3.217   6.238   0.734  0.9159 -0.6426  1.3333
 5607SOL     OW17719   6.949   2.956   0.685  0.2532  0.5423 -0.0144
 5607SOL    HW117720   7.027   2.920   0.634  0.7213  1.5802 -0.0465
 5607SOL    HW217721   6.968   3.049   0.715 -1.4124  1.2914 -1.0675
 5608SOL     OW17722   2.762   5.724   1.797  0.4669 -0.0239  0.0683
 5608SOL    HW117723   2.797   5.630   1.797  2.7016  0.7585 -0.4832
 5608SOL    HW217724   2.781   5.766   1.709 -0.7556  0.9026  0.2229
 5609SOL     OW17725   6.524   5.768   1.222 -0.2810  0.4455  0.0335
 5609SOL    HW117726   6.601   5.806   1.274 -0.0814  1.0249 -0.6671
 5609SOL    HW217727   6.472   5.843   1.181  1.6299  0.0384 -3.5762
 5610SOL     OW17728   4.436   6.115   5.418  0.0860  0.3645 -0.8039
 5610SOL    HW117729   4.386   6.194   5.381  0.0309 -0.0093 -1.5496
 5610SOL    HW217730   4.501   6.146   5.487 -0.8785  0.9109 -0.1082
 5611SOL     OW17731   0.678   3.633   2.033 -0.3883  0.0365  0.7195
 5611SOL    HW117732   0.624   3.682   2.102 -1.0305  0.2230  0.0895
 5611SOL    HW217733   0.704   3.544   2.069 -1.6623 -0.3171  0.8058
 5612SOL     OW17734   4.238   1.764   1.453 -0.3663  0.3876 -0.3082
 5612SOL    HW117735   4.201   1.795   1.541  2.1576  2.7625  0.0130
 5612SOL    HW217736   4.211   1.828   1.381  0.4786  0.3964 -0.6227
 5613SOL     OW17737   6.053   6.338   3.870  0.3294 -0.1606  0.4150
 5613SOL    HW117738   6.028   6.284   3.789 -0.1622  0.3076  0.2502
 5613SOL    HW217739   5.970   6.362   3.921  0.4298  1.3155 -0.0732
 5614SOL     OW17740   6.181   1.420   4.903  0.4538 -0.3214 -0.0160
 5614SOL    HW117741   6.181   1.363   4.985 -1.0094 -0.4823 -0.1131
 5614SOL    HW217742   6.247   1.384   4.837  0.6547 -0.9844  0.5379
 5615SOL     OW17743   0.961   2.112   4.410 -0.4306  0.6213 -0.1742
 5615SOL    HW117744   0.892   2.160   4.465 -0.3505 -0.4982  0.9645
 5615SOL    HW217745   1.031   2.074   4.471  1.3226  1.8943 -1.3191
 5616SOL     OW17746   1.982   1.279   4.008  0.3120 -0.1775 -0.3891
 5616SOL    HW117747   2.080   1.299   4.000  0.3846  0.0829  0.8538
 5616SOL    HW217748   1.966   1.183   3.988  0.7002 -0.0588 -1.3590
 5617SOL     OW17749   0.044   4.425   0.782 -0.0647  0.0398 -0.0326
 5617SOL    HW117750  -0.047   4.386   0.775  0.1490 -0.5324  0.3313
 5617SOL    HW217751   0.042   4.521   0.752 -0.5035 -0.3601 -1.3423
 5618SOL     OW17752   5.395   1.223   1.203  0.2782 -0.0426 -0.0220
 5618SOL    HW117753   5.447   1.280   1.140  0.6479 -0.3159  0.0367
 5618SOL    HW217754   5.457   1.165   1.255  0.0878  1.0525  1.4831
 5619SOL     OW17755   3.326   4.158   3.020 -0.5939  0.3224  0.2237
 5619SOL    HW117756   3.266   4.103   3.077 -0.2725  0.5864  0.8284
 5619SOL    HW217757   3.284   4.172   2.930 -1.2078  0.0949  0.4747
 5620SOL     OW17758   3.564   4.966   5.954 -0.3055 -0.2332  0.0836
 5620SOL    HW117759   3.470   4.996   5.968 -0.3775  0.3430 -1.3996
 5620SOL    HW217760   3.566   4.894   5.884  0.2877 -0.8610  0.7188
 5621SOL     OW17761   1.788   4.086   0.164  0.7163 -0.1684 -0.1686
 5621SOL    HW117762   1.880   4.083   0.203  0.5394 -0.7225  0.2006
 5621SOL    HW217763   1.791   4.049   0.071  1.1044  0.9995 -0.6420
 5622SOL     OW17764   5.931   4.799   4.296  0.0049  0.4444  0.5672
 5622SOL    HW117765   6.001   4.751   4.243  0.9268  1.3594  0.9241
 5622SOL    HW217766   5.845   4.749   4.289  0.3513 -0.0026 -0.9484
 5623SOL     OW17767   5.038   4.063   4.242 -0.1561 -0.2754 -0.2576
 5623SOL    HW117768   5.017   4.070   4.145  0.4379  1.2788 -0.3008
 5623SOL    HW217769   5.005   3.975   4.277 -1.8290 -0.1887 -1.4841
 5624SOL     OW17770   5.908   4.371   2.800  0.4152 -0.3786 -0.1568
 5624SOL    HW117771   5.903   4.273   2.820  1.2711 -0.4832 -0.4477
 5624SOL    HW217772   5.885   4.386   2.704  1.8386 -0.4659 -0.5216
 5625SOL     OW17773   1.306   6.174   6.017 -0.9859  0.3681  0.2790
 5625SOL    HW117774   1.397   6.191   6.055 -1.7924  1.4043  1.8523
 5625SOL    HW217775   1.257   6.261   6.007 -1.9354 -0.2062 -0.2020
 5626SOL     OW17776   0.579   5.446   6.746 -0.3739  0.1742  0.1907
 5626SOL    HW117777   0.549   5.350   6.747 -0.6806  0.2386 -1.1797
 5626SOL    HW217778   0.503   5.504   6.719 -0.0630  0.7719  0.5855
 5627SOL     OW17779   1.491   4.482   2.904  0.3368 -0.0872  0.0067
 5627SOL    HW117780   1.574   4.492   2.958 -0.7531 -1.1429  2.0107
 5627SOL    HW217781   1.514   4.447   2.814  2.2109  1.5265 -0.2180
 5628SOL     OW17782   2.005   2.257   6.427 -0.0769 -0.1987  0.7868
 5628SOL    HW117783   1.993   2.355   6.411 -0.6417 -0.1913  1.1973
 5628SOL    HW217784   1.915   2.213   6.436  0.1757 -0.6871  0.9856
 5629SOL     OW17785   2.586   2.190   5.466  0.0102 -0.4634 -0.1431
 5629SOL    HW117786   2.620   2.150   5.382 -1.2410 -0.0281 -0.8950
 5629SOL    HW217787   2.605   2.129   5.543  0.8087 -1.0541 -0.7935
 5630SOL     OW17788   5.987   3.748   6.902  0.5631 -0.1179 -0.1195
 5630SOL    HW117789   5.990   3.716   6.807 -0.4859 -0.8826  0.0912
 5630SOL    HW217790   5.935   3.684   6.957  0.6820  0.6148  0.8658
 5631SOL     OW17791   2.661   1.760   4.846 -0.2408  0.5428 -0.1590
 5631SOL    HW117792   2.721   1.680   4.838  0.9039  1.1389  1.7667
 5631SOL    HW217793   2.566   1.729   4.850  0.2641 -0.9570  2.3993
 5632SOL     OW17794   1.386   6.494   5.970  0.5579  0.3648 -0.1730
 5632SOL    HW117795   1.472   6.537   6.000  1.0401 -1.1865  0.7313
 5632SOL    HW217796   1.392   6.474   5.872  0.2462  2.4698 -0.6681
 5633SOL     OW17797   6.962   4.011   4.010 -0.5231  0.3707  0.4882
 5633SOL    HW117798   7.020   4.013   4.092  0.2288 -1.1002  0.0259
 5633SOL    HW217799   6.885   4.073   4.023 -1.0753 -0.6726  2.8063
 5634SOL     OW17800   1.224   0.533   1.031  0.1600  0.2741  0.3124
 5634SOL    HW117801   1.255   0.531   1.126  1.0372  1.3205  0.0662
 5634SOL    HW217802   1.302   0.551   0.971 -0.4646  0.0889 -0.5725
 5635SOL     OW17803   3.461   0.749   3.545 -0.0634 -0.2909  0.4482
 5635SOL    HW117804   3.417   0.725   3.458  1.7133 -1.4566 -0.1854
 5635SOL    HW217805   3.510   0.669   3.581 -0.6980  0.1900  2.5180
 5636SOL     OW17806   3.245   6.397   5.556  0.2670  0.3513 -0.2731
 5636SOL    HW117807   3.316   6.327   5.560  1.5281  1.6084  0.0341
 5636SOL    HW217808   3.276   6.474   5.500 -0.1144  1.6931  1.2814
 5637SOL     OW17809   5.404   0.075   5.635  0.0346 -0.2196  0.8805
 5637SOL    HW117810   5.483   0.068   5.696  0.8159  2.1898  0.2580
 5637SOL    HW217811   5.336   0.137   5.675 -0.1386  0.1467  0.0472
 5638SOL     OW17812   4.404   5.575   2.040  0.3084 -0.1717  0.2684
 5638SOL    HW117813   4.460   5.527   2.107 -1.6498  0.5063  2.4976
 5638SOL    HW217814   4.422   5.537   1.949  2.0542 -2.0519  1.3076
 5639SOL     OW17815   4.179   6.881   2.090 -0.1056  0.5274  0.0446
 5639SOL    HW117816   4.222   6.946   2.153 -1.1329  0.5430  0.7525
 5639SOL    HW217817   4.250   6.824   2.048  0.8429  2.2355 -0.7714
 5640SOL     OW17818   5.087   6.903   5.249  0.1441 -0.4999  0.2297
 5640SOL    HW117819   5.045   6.979   5.299  0.4115 -1.1140  1.4250
 5640SOL    HW217820   5.182   6.926   5.228 -0.2034  0.0988 -0.7594
 5641SOL     OW17821   6.801   4.212   4.099  0.5341 -0.1170 -0.4196
 5641SOL    HW117822   6.743   4.282   4.141  1.8001  0.8485 -0.2350
 5641SOL    HW217823   6.843   4.156   4.171  0.6041 -0.1727 -0.5040
 5642SOL     OW17824   1.430   1.594   1.408  0.1265 -0.1940  0.0185
 5642SOL    HW117825   1.433   1.500   1.444  0.0532  0.2738  1.3084
 5642SOL    HW217826   1.335   1.625   1.406  0.1080 -0.2775 -0.8029
 5643SOL     OW17827   5.337   2.031   3.266 -0.2313  0.2239 -0.5973
 5643SOL    HW117828   5.276   2.110   3.257 -0.4592  0.0337 -0.7270
 5643SOL    HW217829   5.358   2.017   3.363  0.5989  1.0398 -0.6441
 5644SOL     OW17830   1.433   6.266   5.506 -0.5581 -0.2178  0.3326
 5644SOL    HW117831   1.369   6.190   5.516 -1.3054  0.4171  0.4772
 5644SOL    HW217832   1.524   6.230   5.486 -1.0285 -1.1255 -0.2788
 5645SOL     OW17833   6.341   6.886   3.417 -0.6730 -0.1301 -0.5745
 5645SOL    HW117834   6.301   6.967   3.461 -1.9537 -1.0704  0.0413
 5645SOL    HW217835   6.273   6.844   3.357 -0.6526 -1.7903  0.5262
 5646SOL     OW17836   6.457   3.627   2.644 -0.3696 -0.1989 -0.5653
 5646SOL    HW117837   6.392   3.649   2.717  0.3785  1.2965 -0.3053
 5646SOL    HW217838   6.508   3.544   2.669 -0.3659  0.0927  0.4648
 5647SOL     OW17839   5.385   4.031   5.822  0.8981 -0.6198 -0.4617
 5647SOL    HW117840   5.287   4.047   5.832  0.9014 -0.9341  0.1302
 5647SOL    HW217841   5.404   3.991   5.733  0.5158 -0.3612 -0.6615
 5648SOL     OW17842   2.378   2.725   4.982 -0.1441  0.3689  0.1142
 5648SOL    HW117843   2.398   2.813   4.939 -0.8358  1.0461  1.1330
 5648SOL    HW217844   2.444   2.656   4.950  0.0221  1.0929 -1.1713
 5649SOL     OW17845   6.901   1.030   3.082  0.5264 -0.0461 -0.0256
 5649SOL    HW117846   6.967   0.967   3.124  0.0447 -0.4051  0.2021
 5649SOL    HW217847   6.947   1.084   3.012  1.1498 -0.0225  0.3912
 5650SOL     OW17848   6.689   5.550   4.772  0.2386  0.1837 -0.2679
 5650SOL    HW117849   6.668   5.501   4.857 -0.2721 -0.9769 -1.0286
 5650SOL    HW217850   6.639   5.636   4.769 -1.1521 -0.5922 -0.1725
 5651SOL     OW17851   3.488   0.716   1.787 -0.1089  0.3814  0.2789
 5651SOL    HW117852   3.399   0.739   1.827  0.0488 -1.1137  1.6371
 5651SOL    HW217853   3.559   0.768   1.833 -0.0553 -0.4009  1.1261
 5652SOL     OW17854   4.039   4.788   5.573 -0.7531 -0.1317  0.1454
 5652SOL    HW117855   4.040   4.850   5.651 -0.2735  1.1290 -0.8431
 5652SOL    HW217856   4.129   4.787   5.529 -0.9929 -0.8918 -0.3539
 5653SOL     OW17857   2.077   6.677   0.194  0.1419 -0.0007  0.1200
 5653SOL    HW117858   1.978   6.661   0.204  0.3367 -1.7652 -0.5422
 5653SOL    HW217859   2.095   6.722   0.107 -0.1553  1.5111  0.7948
 5654SOL     OW17860   2.998   6.149   4.904 -0.6459 -0.1648 -0.2828
 5654SOL    HW117861   3.037   6.100   4.825  0.5771  1.2086 -0.5963
 5654SOL    HW217862   3.068   6.159   4.974 -0.6444  1.6011 -0.4816
 5655SOL     OW17863   6.161   6.007   2.169  0.4449  0.2451 -0.3813
 5655SOL    HW117864   6.221   5.978   2.244  0.1962  0.6979 -0.0017
 5655SOL    HW217865   6.141   6.104   2.178 -1.0578 -0.0776 -0.0018
 5656SOL     OW17866   2.606   5.267   0.145 -0.5776 -0.1823  0.2187
 5656SOL    HW117867   2.546   5.190   0.124 -0.9920  0.3645 -0.6705
 5656SOL    HW217868   2.622   5.271   0.244 -2.8900  0.2810  0.6416
 5657SOL     OW17869   6.439   5.772   6.962 -0.7695  0.3477 -0.0379
 5657SOL    HW117870   6.523   5.757   7.016 -0.3733  0.3768 -0.6417
 5657SOL    HW217871   6.359   5.753   7.020 -0.3359 -0.6708  0.2522
 5658SOL     OW17872   3.732   6.857   5.584 -0.1686  0.1817  0.5068
 5658SOL    HW117873   3.806   6.880   5.646 -1.0286  2.3551  0.8003
 5658SOL    HW217874   3.648   6.844   5.636 -0.2530 -1.2163  0.0748
 5659SOL     OW17875   2.555   4.598   0.594 -0.1741 -0.1501  0.2802
 5659SOL    HW117876   2.647   4.563   0.574  0.3400  0.7670  0.8993
 5659SOL    HW217877   2.528   4.570   0.686 -0.0672  0.4233  0.4950
 5660SOL     OW17878   6.851   4.294   1.646 -0.3414 -0.1485 -0.5327
 5660SOL    HW117879   6.832   4.237   1.726  0.2355  1.0114  0.4630
 5660SOL    HW217880   6.764   4.324   1.606 -0.6374 -0.4951 -0.1653
 5661SOL     OW17881   6.569   3.833   4.678 -0.4824 -0.2765 -0.5318
 5661SOL    HW117882   6.484   3.832   4.625 -0.6034 -0.6114 -0.3390
 5661SOL    HW217883   6.617   3.747   4.664 -0.4620 -0.3228 -0.1863
 5662SOL     OW17884   4.169   5.932   5.400  0.1375  0.0023  0.6951
 5662SOL    HW117885   4.242   5.993   5.369 -1.0104  0.5506 -1.0782
 5662SOL    HW217886   4.097   5.985   5.445 -0.9080  0.0203 -0.9290
 5663SOL     OW17887   2.926   1.576   1.013  0.0801 -0.5518  1.1015
 5663SOL    HW117888   2.884   1.662   1.040  1.1158  0.2800  0.1279
 5663SOL    HW217889   2.915   1.509   1.087  0.4143  0.7999  2.4193
 5664SOL     OW17890   5.240   6.925   6.831  0.3997  0.1940 -0.1907
 5664SOL    HW117891   5.297   6.999   6.794 -0.5836 -0.3884 -3.1545
 5664SOL    HW217892   5.144   6.951   6.826  0.1779 -0.2008  1.4663
 5665SOL     OW17893   0.406   6.914   5.188 -0.7132 -0.5841 -0.6566
 5665SOL    HW117894   0.464   6.838   5.219 -0.8458 -0.3453  0.2011
 5665SOL    HW217895   0.388   6.904   5.090  0.8845 -0.5882 -0.9819
 5666SOL     OW17896   4.242   6.830   6.810  0.2621  0.2926  0.1854
 5666SOL    HW117897   4.330   6.863   6.845 -0.2298  0.4211  1.3652
 5666SOL    HW217898   4.228   6.735   6.838  1.5661 -0.9812 -2.9979
 5667SOL     OW17899   6.147   4.557   4.725 -0.5164  0.4111  0.9556
 5667SOL    HW117900   6.079   4.520   4.662 -0.1465 -0.8310  1.2617
 5667SOL    HW217901   6.223   4.595   4.672 -0.9346  0.8204  0.6345
 5668SOL     OW17902   6.407   2.217   5.208 -0.0100 -0.4846  0.4948
 5668SOL    HW117903   6.340   2.177   5.270 -0.3205 -0.8664 -0.0831
 5668SOL    HW217904   6.366   2.295   5.160  0.1377 -0.3709  0.5523
 5669SOL     OW17905   1.813   2.295   0.100  0.3417  0.2894 -0.3933
 5669SOL    HW117906   1.744   2.232   0.066  0.2701 -0.0632  0.3722
 5669SOL    HW217907   1.783   2.334   0.187  1.4472 -0.5067  0.3747
 5670SOL     OW17908   2.237   3.014   3.102 -0.5319 -0.2656 -0.7061
 5670SOL    HW117909   2.333   3.020   3.131 -0.6997 -0.3465 -0.1300
 5670SOL    HW217910   2.177   3.034   3.179 -0.9883 -0.3892 -1.0219
 5671SOL     OW17911   0.856   2.311   5.707 -0.1656  0.4037  0.3957
 5671SOL    HW117912   0.801   2.285   5.627 -0.4464 -1.3881  1.1316
 5671SOL    HW217913   0.944   2.348   5.676  0.0827 -1.0533 -0.7842
 5672SOL     OW17914   4.529   4.679   4.342  0.3299  0.4896 -0.3046
 5672SOL    HW117915   4.608   4.734   4.370 -0.8358  1.8289  0.4441
 5672SOL    HW217916   4.470   4.663   4.421 -0.6551  0.3411 -1.0573
 5673SOL     OW17917   3.151   5.013   2.340  0.2134  0.2358 -0.0916
 5673SOL    HW117918   3.237   5.063   2.349  1.0977 -1.3487  0.6898
 5673SOL    HW217919   3.086   5.045   2.409  0.6214  0.5464  0.1522
 5674SOL     OW17920   6.587   2.325   6.565 -0.0732 -0.2514  0.0695
 5674SOL    HW117921   6.668   2.382   6.549  0.0559 -0.8282 -1.5451
 5674SOL    HW217922   6.514   2.381   6.604  1.0549  0.2929  1.4781
 5675SOL     OW17923   6.653   1.291   5.995  0.0528  0.2878  0.2674
 5675SOL    HW117924   6.604   1.247   6.070  0.9742  0.2800  0.8836
 5675SOL    HW217925   6.712   1.223   5.950  0.3182  0.5379  0.2355
 5676SOL     OW17926   3.271   6.159   1.556 -0.0119 -0.3117 -0.5803
 5676SOL    HW117927   3.333   6.202   1.491  0.9060  2.5206  1.9127
 5676SOL    HW217928   3.325   6.116   1.629 -1.0084 -2.3879 -1.0189
 5677SOL     OW17929   6.859   1.968   3.224  0.4864  0.2578 -0.6518
 5677SOL    HW117930   6.828   2.047   3.277  1.0683  0.2248 -0.2554
 5677SOL    HW217931   6.789   1.897   3.227  1.6087 -0.8936  2.4945
 5678SOL     OW17932   0.918   4.620   2.290  0.3605 -0.2029  0.3929
 5678SOL    HW117933   0.961   4.690   2.349  1.8964 -0.6354 -0.1619
 5678SOL    HW217934   0.964   4.533   2.303 -2.1402 -1.4312  1.7753
 5679SOL     OW17935   3.941   6.733   4.807 -0.1059 -0.2560  0.1015
 5679SOL    HW117936   4.033   6.709   4.838  0.6877  2.0143 -0.2675
 5679SOL    HW217937   3.910   6.815   4.856 -1.9993 -1.0195  0.2797
 5680SOL     OW17938   6.740   2.297   5.849 -0.1671 -0.7852 -0.5339
 5680SOL    HW117939   6.704   2.308   5.942 -0.9970 -1.6761 -0.7252
 5680SOL    HW217940   6.744   2.199   5.827  0.3184 -0.5903 -1.3245
 5681SOL     OW17941   4.837   2.763   0.434  0.3201  1.1781 -0.3594
 5681SOL    HW117942   4.759   2.700   0.443 -0.4904  2.2606  0.4815
 5681SOL    HW217943   4.809   2.854   0.462  1.8034  1.6809 -0.4320
 5682SOL     OW17944   2.340   4.783   3.591  0.5276 -0.3727  0.0247
 5682SOL    HW117945   2.387   4.859   3.546 -0.6819  1.5399  1.7538
 5682SOL    HW217946   2.396   4.749   3.666  0.1853  0.3178  0.6085
 5683SOL     OW17947   3.675   4.354   5.388 -0.0462  0.7463  0.7815
 5683SOL    HW117948   3.690   4.345   5.289  1.6920 -1.8429  1.1740
 5683SOL    HW217949   3.595   4.300   5.414  1.0170 -0.7724  1.0578
 5684SOL     OW17950   3.959   4.396   1.641  0.3694 -0.6893 -0.1218
 5684SOL    HW117951   4.054   4.372   1.658  0.4511 -1.0665 -1.0776
 5684SOL    HW217952   3.899   4.330   1.685  0.5036  0.3902  1.7727
 5685SOL     OW17953   6.447   0.273   3.359 -0.1321  0.3528  0.4486
 5685SOL    HW117954   6.359   0.233   3.333  0.2415 -0.6445  0.6634
 5685SOL    HW217955   6.441   0.308   3.452 -0.1449 -0.2446  0.6798
 5686SOL     OW17956   2.549   3.281   5.543 -0.3882  0.4238  0.0388
 5686SOL    HW117957   2.563   3.367   5.592  0.2347  1.0537 -1.1823
 5686SOL    HW217958   2.637   3.239   5.523 -0.4891  0.9789 -1.8289
 5687SOL     OW17959   4.922   0.246   4.116 -0.3435 -0.0347  0.4265
 5687SOL    HW117960   4.972   0.333   4.111 -0.9508  0.3581  1.0584
 5687SOL    HW217961   4.832   0.261   4.157 -1.1692 -0.6626 -1.0929
 5688SOL     OW17962   4.925   1.363   1.864 -0.2944  0.4796 -0.4218
 5688SOL    HW117963   4.886   1.295   1.926 -0.8251  0.3399 -0.9014
 5688SOL    HW217964   5.017   1.334   1.836 -1.0460 -0.7698 -1.7241
 5689SOL     OW17965   3.810   4.041   5.655 -0.0675 -0.5244  0.0613
 5689SOL    HW117966   3.833   4.061   5.560  1.0295 -1.8360  0.0171
 5689SOL    HW217967   3.716   4.070   5.674 -0.7770 -1.4390 -1.8041
 5690SOL     OW17968   3.181   1.348   0.715  0.2381  0.0209  0.0081
 5690SOL    HW117969   3.103   1.396   0.754  1.0163  1.2640  0.0837
 5690SOL    HW217970   3.240   1.313   0.788  0.4495  0.2514 -0.0517
 5691SOL     OW17971   1.857   0.952   5.048 -0.5182  0.7299  0.3649
 5691SOL    HW117972   1.815   0.942   5.138 -1.0035 -1.0786 -0.0374
 5691SOL    HW217973   1.798   0.912   4.979  0.2585  1.3100 -0.6661
 5692SOL     OW17974   5.458   5.285   1.664  0.2122  0.0288  0.5798
 5692SOL    HW117975   5.398   5.210   1.639  0.6257 -0.6220  1.4878
 5692SOL    HW217976   5.409   5.350   1.722 -0.3283  0.8095 -0.6961
 5693SOL     OW17977   5.380   5.167   0.394  0.5372  0.0720  0.1271
 5693SOL    HW117978   5.414   5.242   0.452 -1.6214  0.9126  0.3957
 5693SOL    HW217979   5.385   5.081   0.445 -2.3508  0.9472  2.1448
 5694SOL     OW17980   1.009   3.835   3.568 -0.3599  0.0345 -0.5079
 5694SOL    HW117981   1.082   3.792   3.515 -0.0111  0.7834 -0.6519
 5694SOL    HW217982   0.925   3.783   3.557  0.0098 -0.5163 -0.8026
 5695SOL     OW17983   1.632   2.999   3.337  0.1114 -0.1650 -0.2597
 5695SOL    HW117984   1.589   2.909   3.333 -1.1485  0.3717  0.5448
 5695SOL    HW217985   1.723   2.991   3.378 -0.5025 -0.9273  1.0395
 5696SOL     OW17986   3.607   1.015   0.468  0.2401 -0.1740 -0.6433
 5696SOL    HW117987   3.676   1.087   0.459  0.9176 -0.5545  1.1549
 5696SOL    HW217988   3.650   0.933   0.506 -0.9941 -0.7719 -0.5150
 5697SOL     OW17989   5.846   4.378   0.697  0.0691  0.7054  0.0497
 5697SOL    HW117990   5.800   4.300   0.740 -0.5577  1.0411 -0.0083
 5697SOL    HW217991   5.944   4.373   0.717 -0.2431  1.0759  1.8886
 5698SOL     OW17992   1.671   4.317   3.795 -0.5266  0.4306 -0.2297
 5698SOL    HW117993   1.660   4.389   3.863 -0.1900  0.2996 -0.0349
 5698SOL    HW217994   1.762   4.277   3.802 -0.9697 -0.5579  0.2072
 5699SOL     OW17995   0.279   1.732   6.155  0.4978  0.2620  0.0609
 5699SOL    HW117996   0.198   1.765   6.106 -0.1366  0.6950  1.3547
 5699SOL    HW217997   0.254   1.654   6.211  0.9862  0.3917  0.4624
 5700SOL     OW17998   1.222   5.876   5.324 -0.1825  0.3512  0.4815
 5700SOL    HW117999   1.283   5.857   5.248 -0.4912 -0.2165  0.3697
 5700SOL    HW218000   1.190   5.971   5.318  1.9361  1.1781  1.4556
 5701SOL     OW18001   5.672   3.604   2.584 -0.2161 -0.1449  0.2446
 5701SOL    HW118002   5.635   3.520   2.625 -0.6686  0.0953  0.3372
 5701SOL    HW218003   5.721   3.657   2.653  0.8989 -0.7856 -0.0279
 5702SOL     OW18004   5.420   1.264   0.878  0.2380  0.0794 -0.3136
 5702SOL    HW118005   5.330   1.292   0.911  0.2861  0.4603 -0.4946
 5702SOL    HW218006   5.491   1.305   0.935  0.3257  0.8910 -0.9730
 5703SOL     OW18007   5.314   5.169   2.635 -0.5449 -0.6239 -1.0797
 5703SOL    HW118008   5.331   5.180   2.537  0.4205 -2.6752 -1.2097
 5703SOL    HW218009   5.293   5.073   2.654  1.7180 -0.8008  1.0090
 5704SOL     OW18010   4.922   4.567   1.354  0.4761 -0.3623 -0.2942
 5704SOL    HW118011   4.931   4.543   1.258 -1.7190 -0.0492 -0.6370
 5704SOL    HW218012   4.892   4.487   1.406  0.9432 -0.3497 -0.0037
 5705SOL     OW18013   5.879   0.950   3.506 -0.2313 -0.0302 -0.3859
 5705SOL    HW118014   5.816   0.996   3.568 -1.3341 -0.9850 -0.7635
 5705SOL    HW218015   5.973   0.963   3.539 -0.8285 -1.6955  2.3947
 5706SOL     OW18016   0.699   6.910   6.260 -0.1829  0.6938 -0.2870
 5706SOL    HW118017   0.714   6.890   6.357  0.4775 -2.0584 -0.8424
 5706SOL    HW218018   0.607   6.882   6.234  0.1370  0.0214 -0.7315
 5707SOL     OW18019   3.210   1.821   0.539 -0.4334  0.2017 -0.5091
 5707SOL    HW118020   3.183   1.725   0.542 -0.9047  0.3407  1.4778
 5707SOL    HW218021   3.278   1.835   0.467  0.8834 -1.9605  0.2040
 5708SOL     OW18022   1.328   6.802   0.003  0.2165 -0.7155  0.0197
 5708SOL    HW118023   1.334   6.750   0.089  0.5110  1.5023  1.4214
 5708SOL    HW218024   1.233   6.830  -0.012  0.6998  2.6695  2.1349
 5709SOL     OW18025   1.116   3.043   6.616  0.1714 -0.3382  0.1970
 5709SOL    HW118026   1.063   3.128   6.614 -0.5263 -0.7454  1.0640
 5709SOL    HW218027   1.168   3.035   6.531 -1.4900 -0.1536 -0.8750
 5710SOL     OW18028   2.150   4.838   5.120 -1.2417  0.2406  0.4572
 5710SOL    HW118029   2.233   4.853   5.174 -1.8027  0.4904  1.2637
 5710SOL    HW218030   2.175   4.822   5.025 -0.2918  0.8213  0.5933
 5711SOL     OW18031   4.296   6.526   6.954 -0.2920 -0.1190  0.4270
 5711SOL    HW118032   4.375   6.539   6.895 -0.4883  2.6023  0.6519
 5711SOL    HW218033   4.323   6.472   7.034  0.8176 -0.8541 -0.4061
 5712SOL     OW18034   4.612   1.500   6.017 -0.2851 -0.0760 -0.6807
 5712SOL    HW118035   4.693   1.555   5.996 -1.1010  0.6541 -2.0770
 5712SOL    HW218036   4.616   1.469   6.112  1.8143 -0.4099 -0.8493
 5713SOL     OW18037   0.434   3.736   2.478 -0.4810 -0.0434  0.2242
 5713SOL    HW118038   0.472   3.788   2.555 -0.0573 -0.1580  0.0889
 5713SOL    HW218039   0.349   3.780   2.447  1.0501  1.9334 -1.3936
 5714SOL     OW18040   2.580   0.892   2.362  0.8026  0.2493  0.0464
 5714SOL    HW118041   2.561   0.836   2.281  2.8653 -1.8098  0.8823
 5714SOL    HW218042   2.493   0.927   2.399 -0.4738 -1.3946 -1.2133
 5715SOL     OW18043   1.429   5.464   2.055 -0.0729  0.7947 -0.1307
 5715SOL    HW118044   1.415   5.405   2.135  0.0705  2.0026  0.8079
 5715SOL    HW218045   1.463   5.409   1.979  1.8879 -0.0357  1.2687
 5716SOL     OW18046   2.657   1.830   6.519  0.3336  0.2850  0.4158
 5716SOL    HW118047   2.616   1.779   6.443 -1.1231  0.7445  0.8631
 5716SOL    HW218048   2.752   1.802   6.530 -0.4465 -2.5120  0.7815
 5717SOL     OW18049   6.838   3.568   4.926 -0.2450  0.0801 -0.1754
 5717SOL    HW118050   6.936   3.591   4.925 -0.8546  3.0506  0.1810
 5717SOL    HW218051   6.806   3.555   4.832  0.2207  0.3872 -0.3814
 5718SOL     OW18052   1.288   6.169   4.169 -0.1863 -0.1538  0.4678
 5718SOL    HW118053   1.304   6.083   4.120 -0.7281 -0.7519  1.3168
 5718SOL    HW218054   1.192   6.196   4.158  0.1493  0.7167 -0.3736
 5719SOL     OW18055   1.627   1.175   6.744  0.5721  0.3338  0.3771
 5719SOL    HW118056   1.704   1.130   6.789 -0.3128 -0.7902  0.8209
 5719SOL    HW218057   1.573   1.224   6.813 -1.5650 -2.5196  0.8857
 5720SOL     OW18058   2.009   4.630   3.015 -0.5266  0.6513  0.4873
 5720SOL    HW118059   1.969   4.657   3.103 -1.3003  2.8416 -0.4750
 5720SOL    HW218060   2.012   4.709   2.954  0.1617 -0.7801 -1.4273
 5721SOL     OW18061   5.333   4.953   5.312 -0.2432  0.2522 -0.3970
 5721SOL    HW118062   5.379   4.905   5.237 -1.4831  0.1490 -1.1354
 5721SOL    HW218063   5.374   4.927   5.399  0.6223 -0.3609 -0.9725
 5722SOL     OW18064   5.454   6.558   4.403 -0.1033  0.3615 -0.0957
 5722SOL    HW118065   5.366   6.601   4.426 -0.5011  0.5877 -1.8727
 5722SOL    HW218066   5.438   6.475   4.351  0.7209  1.1011 -1.6013
 5723SOL     OW18067   0.013   6.625   1.954  0.3562  0.3264 -0.0148
 5723SOL    HW118068   0.010   6.527   1.938 -0.7187  0.2186  0.7557
 5723SOL    HW218069   0.097   6.648   2.003 -0.5760 -0.6146  2.1523
 5724SOL     OW18070   4.061   2.990   5.528  0.3620 -0.1634 -0.2514
 5724SOL    HW118071   4.075   3.019   5.623  2.4596 -2.2437  0.1518
 5724SOL    HW218072   3.977   2.938   5.521 -0.1910  0.6343  0.2859
 5725SOL     OW18073   4.901   6.175   4.226 -0.1782  0.1617  0.1654
 5725SOL    HW118074   4.921   6.252   4.166  1.0798  1.0584  1.6819
 5725SOL    HW218075   4.816   6.131   4.196 -0.3483  1.4550 -1.3765
 5726SOL     OW18076   4.925   4.135   3.512 -0.3157  0.5524 -0.1704
 5726SOL    HW118077   4.981   4.173   3.586  0.3526 -0.6551 -0.0241
 5726SOL    HW218078   4.925   4.199   3.435  3.2152 -0.2782 -1.0793
 5727SOL     OW18079   5.373   4.156   3.772  0.3303 -0.3355  0.3021
 5727SOL    HW118080   5.360   4.096   3.851 -0.5182 -0.9644 -0.3049
 5727SOL    HW218081   5.285   4.177   3.730  0.7761 -0.0665 -0.5349
 5728SOL     OW18082   5.033   2.169   5.147 -0.5096  0.9181  0.3438
 5728SOL    HW118083   5.053   2.080   5.105  0.1287  1.1344  0.1813
 5728SOL    HW218084   5.089   2.239   5.104 -0.4016  1.2686  1.0395
 5729SOL     OW18085   4.165   1.694   5.458 -0.0877 -0.0827 -0.2680
 5729SOL    HW118086   4.126   1.611   5.419  0.2515 -0.7726  0.8183
 5729SOL    HW218087   4.092   1.748   5.501  0.0068 -1.0062  1.1100
 5730SOL     OW18088   5.413   5.222   0.793  0.4796  0.0465  0.1441
 5730SOL    HW118089   5.450   5.186   0.879  0.3452  0.1262  0.2357
 5730SOL    HW218090   5.317   5.195   0.784 -0.2434  2.0124  1.1806
 5731SOL     OW18091   4.349   1.070   5.309 -0.0480 -0.3793 -0.0389
 5731SOL    HW118092   4.358   0.981   5.264  0.0840  0.1040 -1.0071
 5731SOL    HW218093   4.363   1.059   5.407 -1.4009 -1.6415  0.0482
 5732SOL     OW18094   5.007   4.565   3.971  0.1132  0.5688  0.3242
 5732SOL    HW118095   5.100   4.567   4.008  0.2436 -0.4903  0.0896
 5732SOL    HW218096   4.941   4.559   4.046  0.2486  0.9924  0.4794
 5733SOL     OW18097   1.555   6.686   1.287 -0.1221 -0.6442  0.4046
 5733SOL    HW118098   1.528   6.612   1.226 -0.4688 -0.4779  0.3515
 5733SOL    HW218099   1.654   6.700   1.281 -0.3731  0.8710 -1.9079
 5734SOL     OW18100   1.573   0.532   6.605 -0.2703 -0.4775  0.0105
 5734SOL    HW118101   1.514   0.593   6.659 -1.6424  0.2937 -2.1981
 5734SOL    HW218102   1.523   0.448   6.584 -0.6370  0.1522 -1.8239
 5735SOL     OW18103   0.706   1.527   6.660 -0.1338  0.6385  0.2164
 5735SOL    HW118104   0.754   1.439   6.661 -0.1663  0.6219  0.3318
 5735SOL    HW218105   0.647   1.533   6.740 -0.1066  0.7810  0.2244
 5736SOL     OW18106   3.345   5.044   5.042 -0.0685  0.4147  0.3572
 5736SOL    HW118107   3.286   5.125   5.043 -1.3061 -0.4431 -0.2150
 5736SOL    HW218108   3.309   4.976   5.107 -0.1098 -0.3863 -0.4821
 5737SOL     OW18109   6.357   5.469   2.214  0.5616 -0.1125  0.5009
 5737SOL    HW118110   6.291   5.540   2.240  1.4332  1.1475 -0.6026
 5737SOL    HW218111   6.447   5.510   2.202  1.3918 -1.6578  1.1346
 5738SOL     OW18112   3.964   1.112   0.941 -0.2323  0.7209 -0.3439
 5738SOL    HW118113   3.879   1.073   0.906 -1.2607  2.2695  0.3293
 5738SOL    HW218114   3.975   1.205   0.906  2.3849 -0.2115 -2.2811
 5739SOL     OW18115   2.091   2.961   5.819 -0.1231  0.0511  0.0589
 5739SOL    HW118116   2.105   2.989   5.724 -2.0350  0.0893 -0.2523
 5739SOL    HW218117   2.101   2.862   5.827 -1.6869 -0.1926 -0.5867
 5740SOL     OW18118   6.775   2.177   3.393  0.2122  0.7912 -0.6844
 5740SOL    HW118119   6.702   2.213   3.451  0.9525  1.2470 -0.0216
 5740SOL    HW218120   6.779   2.229   3.308 -1.2000 -0.1920 -1.3990
 5741SOL     OW18121   2.614   2.491   4.104 -0.8698 -0.4384  0.4525
 5741SOL    HW118122   2.594   2.467   4.009  0.0358 -0.1416  0.1802
 5741SOL    HW218123   2.541   2.550   4.140 -1.2730 -0.6420 -0.0142
 5742SOL     OW18124   6.914   3.410   3.726 -0.0860  0.1449 -1.3196
 5742SOL    HW118125   6.943   3.322   3.689  3.3145  0.4053  0.3480
 5742SOL    HW218126   6.918   3.479   3.654  0.9333 -0.3621 -1.7636
 5743SOL     OW18127   1.854   6.233   5.456 -0.0366  0.1078 -0.2501
 5743SOL    HW118128   1.843   6.326   5.421 -0.4163 -0.1675 -0.8539
 5743SOL    HW218129   1.782   6.175   5.421  0.3877 -0.4985 -0.1302
 5744SOL     OW18130   4.527   5.988   5.139 -0.5668 -0.2830  0.0727
 5744SOL    HW118131   4.613   5.938   5.153 -0.5286 -0.4102 -0.5692
 5744SOL    HW218132   4.498   6.030   5.225 -0.6881 -1.5381  0.6696
 5745SOL     OW18133   1.774   4.295   3.124 -0.1676  0.1970 -0.0780
 5745SOL    HW118134   1.862   4.265   3.162 -0.4943 -0.2374  0.3450
 5745SOL    HW218135   1.704   4.290   3.195 -0.8238 -0.7835 -0.7688
 5746SOL     OW18136   4.077   0.020   3.867  0.1318 -0.4650  0.1109
 5746SOL    HW118137   4.122  -0.016   3.786 -1.3415 -0.3072 -0.8162
 5746SOL    HW218138   4.102   0.115   3.880  2.2023 -1.1048  1.2231
 5747SOL     OW18139   1.658   1.807   0.393  0.1333  0.5484 -0.5933
 5747SOL    HW118140   1.742   1.757   0.415  1.0868  1.7064 -1.4419
 5747SOL    HW218141   1.598   1.808   0.473  1.3709  0.5284  0.3700
 5748SOL     OW18142   7.014   1.279   6.341  0.0354 -0.1843 -0.1223
 5748SOL    HW118143   6.999   1.349   6.411  2.0076  0.2461 -0.0703
 5748SOL    HW218144   6.961   1.198   6.364 -1.2162  0.7809  0.5695
 5749SOL     OW18145   2.079   5.826   1.394 -0.2086 -0.2879  0.0094
 5749SOL    HW118146   2.173   5.830   1.360 -0.1061 -1.5385  0.1050
 5749SOL    HW218147   2.079   5.817   1.493 -0.4835  1.5881  0.2138
 5750SOL     OW18148   4.941   4.376   3.809  0.3568 -0.4639 -0.5869
 5750SOL    HW118149   4.966   4.438   3.883  0.4690 -0.2636 -0.7889
 5750SOL    HW218150   4.936   4.427   3.723 -1.3868 -0.3670 -0.4620
 5751SOL     OW18151   0.318   3.252   4.867  0.4433 -0.2347  0.1915
 5751SOL    HW118152   0.260   3.183   4.823  0.9545 -0.9085  0.5557
 5751SOL    HW218153   0.374   3.208   4.937  2.0629  0.2425 -0.7649
 5752SOL     OW18154   4.779   2.035   0.215 -0.2083  0.2595 -0.7730
 5752SOL    HW118155   4.715   2.111   0.220 -0.9983 -0.4654  0.8300
 5752SOL    HW218156   4.815   2.016   0.306  0.5716 -0.8079 -1.2782
 5753SOL     OW18157   4.092   3.447   2.688 -0.5847 -0.2404  0.1273
 5753SOL    HW118158   4.084   3.348   2.683  1.0278 -0.3804 -0.1176
 5753SOL    HW218159   4.098   3.476   2.783  0.4581 -0.5372  0.1638
 5754SOL     OW18160   5.781   0.942   0.437  0.5885  0.3863  0.7115
 5754SOL    HW118161   5.724   0.970   0.515 -0.2208  0.6913  0.0237
 5754SOL    HW218162   5.799   0.844   0.444 -0.7654  0.0960  0.4905
 5755SOL     OW18163   0.013   4.725   5.366  0.3974  0.5169  0.0974
 5755SOL    HW118164   0.077   4.652   5.386  0.2095  0.2500 -0.2613
 5755SOL    HW218165  -0.061   4.690   5.308 -0.0338  0.8343  0.4508
 5756SOL     OW18166   5.020   0.204   1.858  0.4397  0.0396  0.2233
 5756SOL    HW118167   4.987   0.291   1.895 -0.0360 -0.3061  0.6296
 5756SOL    HW218168   4.971   0.184   1.773  1.5445  0.8415 -0.6342
 5757SOL     OW18169   3.509   1.115   3.831 -0.0626  0.4079  0.0078
 5757SOL    HW118170   3.461   1.130   3.745 -2.2570  1.7239  1.3562
 5757SOL    HW218171   3.539   1.020   3.837 -1.4889 -0.1695 -1.4346
 5758SOL     OW18172   5.013   6.637   4.101 -0.3991 -0.0744 -0.6914
 5758SOL    HW118173   4.960   6.688   4.170 -0.1437 -1.9685  0.9955
 5758SOL    HW218174   5.045   6.700   4.031  0.4684  2.2187  1.6220
 5759SOL     OW18175   3.090   6.375   3.545  0.3987 -0.4562 -0.1727
 5759SOL    HW118176   3.123   6.378   3.450 -1.6380  1.6872 -0.9240
 5759SOL    HW218177   3.072   6.468   3.576 -1.1330 -1.2687  1.5342
 5760SOL     OW18178   6.378   0.804   6.052 -0.1103 -0.5015  0.0753
 5760SOL    HW118179   6.384   0.718   6.102 -1.3999  0.1041  1.3663
 5760SOL    HW218180   6.304   0.859   6.091  1.1270  1.4798 -0.2624
 5761SOL     OW18181   7.001   6.564   5.726  0.0552 -0.0936  0.3466
 5761SOL    HW118182   7.064   6.616   5.668 -0.5064  0.8668  0.5862
 5761SOL    HW218183   6.987   6.473   5.686  0.7645  0.0521 -0.2686
 5762SOL     OW18184   0.535   6.058   0.437 -0.1681  0.4411 -0.8207
 5762SOL    HW118185   0.497   6.150   0.431 -1.7720 -0.1950 -0.7902
 5762SOL    HW218186   0.541   6.030   0.533 -1.3173 -0.1175 -0.8954
 5763SOL     OW18187   4.909   0.549   6.238 -0.2487  0.5935  0.0776
 5763SOL    HW118188   4.995   0.569   6.284  0.1127 -2.6146  0.9942
 5763SOL    HW218189   4.927   0.511   6.148 -0.8480  2.1111 -0.7299
 5764SOL     OW18190   4.166   5.904   2.576  0.3230 -0.9682 -0.2299
 5764SOL    HW118191   4.171   5.994   2.532  0.4900 -1.2727 -0.8461
 5764SOL    HW218192   4.179   5.914   2.674  0.5856 -0.3474 -0.3254
 5765SOL     OW18193   6.217   5.791   2.543  0.3307  0.5685  0.8208
 5765SOL    HW118194   6.165   5.732   2.605  0.7161  0.3361  0.9250
 5765SOL    HW218195   6.306   5.813   2.585  0.4624  0.6687  0.4886
 5766SOL     OW18196   1.099   1.815   3.601 -0.5492  0.2120  0.5661
 5766SOL    HW118197   1.092   1.864   3.688  0.3793  0.2360  0.6451
 5766SOL    HW218198   1.008   1.786   3.571 -1.0819  1.6830  0.6855
 5767SOL     OW18199   5.091   5.404   6.239  0.0428  0.6983  0.2814
 5767SOL    HW118200   5.183   5.368   6.253 -0.0472  0.4057  0.1406
 5767SOL    HW218201   5.095   5.503   6.225  0.5136  0.4878 -1.3730
 5768SOL     OW18202   0.828   6.434   6.486 -0.4245  0.4975 -0.7075
 5768SOL    HW118203   0.837   6.351   6.541 -0.4104  0.3174 -0.9820
 5768SOL    HW218204   0.835   6.514   6.546 -0.6498  0.2991 -0.4122
 5769SOL     OW18205   1.592   1.109   5.927 -0.2315  0.4217 -0.3949
 5769SOL    HW118206   1.610   1.034   5.864 -0.6446 -0.2912  0.3106
 5769SOL    HW218207   1.522   1.170   5.889 -1.2032 -0.5487 -0.2075
 5770SOL     OW18208   2.178   3.139   0.077 -0.0717 -0.3170  0.4246
 5770SOL    HW118209   2.168   3.232   0.042 -0.8841 -0.4351  0.3074
 5770SOL    HW218210   2.270   3.105   0.058  0.3586  0.6057  0.8292
 5771SOL     OW18211   2.833   6.115   1.924 -0.2182 -0.2572 -0.1655
 5771SOL    HW118212   2.931   6.095   1.929 -0.1569 -0.3159 -1.3581
 5771SOL    HW218213   2.792   6.102   2.015  0.9406  0.1652  0.4358
 5772SOL     OW18214   2.588   2.153   2.583  0.1149  0.1103  0.1719
 5772SOL    HW118215   2.562   2.059   2.603  1.9215 -0.1383  1.5560
 5772SOL    HW218216   2.687   2.164   2.593 -0.0478  2.1586  0.0060
 5773SOL     OW18217   5.694   6.478   4.808 -0.1840  0.6755  0.2815
 5773SOL    HW118218   5.685   6.493   4.710  0.0033  0.9041  0.2965
 5773SOL    HW218219   5.789   6.455   4.830 -0.5106 -0.7881  0.2347
 5774SOL     OW18220   1.269   6.541   3.761 -0.2975 -0.1313  0.1192
 5774SOL    HW118221   1.330   6.462   3.754 -0.4078 -0.4087  1.8261
 5774SOL    HW218222   1.238   6.567   3.670  1.3924 -0.7384 -0.6885
 5775SOL     OW18223   6.377   4.398   2.701  0.2398  0.5314  0.2670
 5775SOL    HW118224   6.348   4.491   2.681 -0.3770  0.5918  1.3602
 5775SOL    HW218225   6.445   4.399   2.774 -0.2378  0.1007  0.7338
 5776SOL     OW18226   4.333   6.766   2.676  0.2080 -0.4121  0.7747
 5776SOL    HW118227   4.234   6.757   2.686 -0.2420 -0.5577 -2.6103
 5776SOL    HW218228   4.377   6.678   2.696 -0.2451 -0.2543  2.6402
 5777SOL     OW18229   6.724   0.805   1.229  0.6411 -0.1337  0.5031
 5777SOL    HW118230   6.765   0.864   1.159 -0.4165 -2.4631 -2.2913
 5777SOL    HW218231   6.739   0.845   1.320  4.6633  1.6397 -0.7151
 5778SOL     OW18232   0.238   0.088   5.888  0.6890  0.0425  0.3035
 5778SOL    HW118233   0.310   0.125   5.947  2.1199 -0.8461 -0.8145
 5778SOL    HW218234   0.278   0.060   5.801 -1.4297  1.7969 -1.3553
 5779SOL     OW18235   0.307   0.683   1.929  0.1072  0.5836 -0.4277
 5779SOL    HW118236   0.249   0.603   1.912  0.7292  0.0488 -0.1005
 5779SOL    HW218237   0.295   0.750   1.856 -0.2684  0.0936 -0.8188
 5780SOL     OW18238   5.175   5.484   5.269 -0.3049 -0.0044  0.3805
 5780SOL    HW118239   5.245   5.555   5.254  0.2964 -0.7000 -0.2086
 5780SOL    HW218240   5.118   5.476   5.187 -0.2014 -0.3797  0.3434
 5781SOL     OW18241   1.256   6.019   5.580  0.6381 -0.1813 -0.1615
 5781SOL    HW118242   1.329   5.951   5.572  0.1378 -0.7185 -0.2306
 5781SOL    HW218243   1.171   5.982   5.543  0.6790  1.0082 -1.5549
 5782SOL     OW18244   0.250   6.943   1.842 -0.6004  0.3506 -0.0216
 5782SOL    HW118245   0.333   6.923   1.894  0.1012 -0.3943 -1.3761
 5782SOL    HW218246   0.224   7.038   1.857 -1.2489 -0.1547  2.7604
 5783SOL     OW18247   1.812   2.263   1.235 -0.4431  0.1607 -0.3775
 5783SOL    HW118248   1.805   2.223   1.326 -1.7275  0.2583 -0.4104
 5783SOL    HW218249   1.753   2.213   1.172 -0.2880  0.6717 -0.9438
 5784SOL     OW18250   0.504   6.473   0.553 -0.2228 -0.3234 -0.0288
 5784SOL    HW118251   0.424   6.465   0.494 -0.6167  1.0821  0.2969
 5784SOL    HW218252   0.585   6.443   0.502 -0.7496 -0.4423 -0.8224
 5785SOL     OW18253   0.834   1.930   1.022 -0.3019 -0.8324 -0.3538
 5785SOL    HW118254   0.830   2.029   1.037  1.4330 -0.8462  0.4103
 5785SOL    HW218255   0.765   1.904   0.955 -2.3137  0.5493  1.0649
 5786SOL     OW18256   6.308   5.799   1.488  0.8334  0.2080  0.7109
 5786SOL    HW118257   6.251   5.866   1.536  2.6913  1.8445  0.8005
 5786SOL    HW218258   6.342   5.732   1.554 -0.1591 -0.1746  0.8397
 5787SOL     OW18259   2.860   1.411   6.587  0.4687 -0.4274 -0.0966
 5787SOL    HW118260   2.886   1.386   6.680 -0.9162 -2.6414 -0.2349
 5787SOL    HW218261   2.937   1.456   6.542  0.3679  3.3509  2.9183
 5788SOL     OW18262   2.837   2.765   5.512  0.5918 -0.0057 -0.6322
 5788SOL    HW118263   2.918   2.767   5.453 -0.5110  0.0634 -2.1870
 5788SOL    HW218264   2.865   2.778   5.607  2.2732  1.4610 -1.2785
 5789SOL     OW18265   3.853   5.469   6.454 -1.1447 -0.1706 -0.0233
 5789SOL    HW118266   3.818   5.511   6.538 -0.1989  3.0702 -1.1133
 5789SOL    HW218267   3.823   5.373   6.450 -3.4815  0.3089  2.6485
 5790SOL     OW18268   2.724   2.415   3.372 -0.2109  0.1978  0.5022
 5790SOL    HW118269   2.669   2.490   3.407  0.1012  0.2522  0.8865
 5790SOL    HW218270   2.690   2.387   3.282 -0.3484  0.7764  0.3715
 5791SOL     OW18271   1.326   0.470   3.415  0.0060 -0.3933 -0.2643
 5791SOL    HW118272   1.398   0.540   3.413  1.7890 -2.1406  0.0421
 5791SOL    HW218273   1.238   0.512   3.393  1.0522  1.8758 -0.3652
 5792SOL     OW18274   1.850   0.331   4.319 -0.4450 -0.0541 -0.4930
 5792SOL    HW118275   1.923   0.394   4.346 -1.4000  0.8699  0.0421
 5792SOL    HW218276   1.766   0.383   4.305 -1.8519 -1.4153  2.1214
 5793SOL     OW18277   0.015   0.960   4.441  0.0518  0.2694  0.1070
 5793SOL    HW118278   0.102   0.996   4.474 -0.2091  0.0467  1.0754
 5793SOL    HW218279  -0.060   1.009   4.484 -0.3058  0.0292 -0.2338
 5794SOL     OW18280   6.990   3.662   5.367  0.5569 -0.0945  0.4191
 5794SOL    HW118281   7.000   3.639   5.269  2.4748 -2.0948  0.9776
 5794SOL    HW218282   6.961   3.757   5.376 -0.1767  0.0118 -2.0960
 5795SOL     OW18283   0.748   3.417   0.363  0.0047 -0.0330 -0.3097
 5795SOL    HW118284   0.726   3.378   0.274  1.4718  0.0687 -0.7383
 5795SOL    HW218285   0.734   3.516   0.361 -0.2800 -0.0712 -0.3138
 5796SOL     OW18286   3.097   6.829   2.065 -1.1715 -0.1633  0.0969
 5796SOL    HW118287   3.171   6.837   2.131 -0.4956 -2.7713 -0.2106
 5796SOL    HW218288   3.056   6.918   2.049  0.0101  0.8798  2.4318
 5797SOL     OW18289   2.963   3.693   3.851 -0.4033  0.4715 -0.2635
 5797SOL    HW118290   2.923   3.758   3.916  0.5176  0.4042  0.4046
 5797SOL    HW218291   2.928   3.711   3.759  0.0253  2.0849 -0.1387
 5798SOL     OW18292   0.194   3.550   4.514 -0.3436  0.2039  0.0313
 5798SOL    HW118293   0.197   3.463   4.466 -1.4917 -0.5672  1.2693
 5798SOL    HW218294   0.248   3.544   4.598 -2.8149 -0.4049  1.6865
 5799SOL     OW18295   4.851   6.768   2.971  0.5203  0.4742 -0.1775
 5799SOL    HW118296   4.951   6.757   2.973  0.4286 -0.4540 -0.3686
 5799SOL    HW218297   4.822   6.783   2.876  0.2250 -2.0125 -0.5429
 5800SOL     OW18298   5.045   6.623   5.309 -0.3765  0.4744 -0.1586
 5800SOL    HW118299   5.067   6.553   5.240  1.3525 -0.1449  0.9407
 5800SOL    HW218300   5.067   6.713   5.272 -1.0338  0.3014 -1.0001
 5801SOL     OW18301   3.247   0.947   2.772 -0.1849  0.5560 -0.3841
 5801SOL    HW118302   3.165   0.995   2.805  0.5401  1.1492  0.6058
 5801SOL    HW218303   3.237   0.927   2.675 -2.7066 -1.8438  0.2353
 5802SOL     OW18304   1.723   3.991   4.454  0.0947 -0.5709 -0.3171
 5802SOL    HW118305   1.727   3.895   4.428  1.2279 -0.5185 -0.3986
 5802SOL    HW218306   1.631   4.026   4.438 -0.3643 -1.6631 -0.1801
 5803SOL     OW18307   1.175   4.794   1.617 -0.1736  0.0016  0.0264
 5803SOL    HW118308   1.085   4.832   1.597  0.5749  1.1151 -1.4822
 5803SOL    HW218309   1.242   4.868   1.621  1.1468 -0.9980 -1.8316
 5804SOL     OW18310   0.569   3.504   6.608  0.7445  0.1693 -0.4522
 5804SOL    HW118311   0.556   3.603   6.609  0.7348  0.2135 -2.3766
 5804SOL    HW218312   0.488   3.460   6.570  0.4220 -0.6773  1.0981
 5805SOL     OW18313   4.532   4.311   6.448  0.0100  0.4280  0.5983
 5805SOL    HW118314   4.535   4.364   6.363  0.3647 -1.4413 -0.6076
 5805SOL    HW218315   4.624   4.306   6.487  0.5954 -1.6388 -0.8627
 5806SOL     OW18316   4.955   5.831   0.416  0.6274 -0.0786 -0.3522
 5806SOL    HW118317   4.986   5.746   0.459 -1.4981 -0.9522 -0.3929
 5806SOL    HW218318   4.981   5.832   0.320  0.2235 -0.9597 -0.4825
 5807SOL     OW18319   0.969   3.664   0.977 -0.1986  0.0839 -0.0271
 5807SOL    HW118320   0.957   3.749   1.027  1.0974  0.2635  0.0008
 5807SOL    HW218321   1.049   3.670   0.917  0.6543 -1.5057  0.8731
 5808SOL     OW18322   1.323   1.896   4.629  0.8844 -0.4187 -0.9208
 5808SOL    HW118323   1.414   1.936   4.622  0.6717 -0.1606 -2.7587
 5808SOL    HW218324   1.327   1.798   4.607  0.6652 -0.3251 -1.3890
 5809SOL     OW18325   0.424   3.640   4.045 -0.4013  0.5674 -0.2025
 5809SOL    HW118326   0.334   3.629   4.085 -0.9498  1.2439 -1.2077
 5809SOL    HW218327   0.415   3.673   3.951  0.9034  1.1962 -0.1255
 5810SOL     OW18328   4.695   2.748   2.663 -0.2970 -0.6885 -0.3782
 5810SOL    HW118329   4.770   2.704   2.613  0.3970  0.0576 -0.0253
 5810SOL    HW218330   4.728   2.833   2.703 -0.7355 -1.3948  1.6060
 5811SOL     OW18331   4.058   1.895   6.838  0.1609 -0.0950  0.3735
 5811SOL    HW118332   4.027   1.896   6.933  0.3262  0.0251  0.4268
 5811SOL    HW218333   4.067   1.801   6.806  1.1856 -0.1601  0.8290
 5812SOL     OW18334   4.677   0.346   4.673 -0.3641  0.4543 -0.2077
 5812SOL    HW118335   4.631   0.424   4.630 -0.8051  0.6851  0.6647
 5812SOL    HW218336   4.611   0.292   4.725 -0.4105 -1.4685 -2.0991
 5813SOL     OW18337   1.751   1.976   4.022 -0.5922  0.4654  0.2465
 5813SOL    HW118338   1.806   2.015   4.096  0.4196 -1.0182  0.3242
 5813SOL    HW218339   1.724   2.049   3.958  1.5209  1.2747  0.1810
 5814SOL     OW18340   0.875   3.984   0.635  0.0689  0.2574 -1.0569
 5814SOL    HW118341   0.815   3.970   0.714  1.2807  2.0258  0.2712
 5814SOL    HW218342   0.828   3.955   0.552 -1.3236 -1.4999  0.2609
 5815SOL     OW18343   4.689   4.218   4.310  0.5536  0.3828 -0.3505
 5815SOL    HW118344   4.787   4.204   4.320  0.4484  0.6542  1.5500
 5815SOL    HW218345   4.659   4.291   4.372 -1.2363 -1.5188  1.1811
 5816SOL     OW18346   6.299   0.798   5.800  0.5677  0.0043  0.1550
 5816SOL    HW118347   6.334   0.783   5.893 -1.7507 -0.8587  0.9789
 5816SOL    HW218348   6.240   0.879   5.800  1.1286  0.4236 -0.7554
 5817SOL     OW18349   5.954   2.831   0.410 -0.3085 -0.3550  0.2614
 5817SOL    HW118350   5.859   2.852   0.435 -0.9247 -0.4666 -1.7862
 5817SOL    HW218351   5.994   2.911   0.364 -0.5100 -1.3400 -1.7414
 5818SOL     OW18352   4.501   6.402   5.841  0.1067 -0.1818  0.0240
 5818SOL    HW118353   4.489   6.436   5.748  1.5351  0.3138 -0.0091
 5818SOL    HW218354   4.416   6.410   5.892  0.4071  3.9218  0.1607
 5819SOL     OW18355   6.068   1.183   2.894 -0.0985  0.3264 -0.1641
 5819SOL    HW118356   6.011   1.187   2.976 -1.6920 -0.9931 -1.1336
 5819SOL    HW218357   6.106   1.091   2.885 -1.6886 -0.2117 -1.9615
 5820SOL     OW18358   6.898   6.631   3.303  0.0349 -0.2571 -0.6148
 5820SOL    HW118359   6.956   6.671   3.232  0.6137 -0.2773 -0.1599
 5820SOL    HW218360   6.837   6.700   3.339  0.1001 -0.1175 -0.7686
 5821SOL     OW18361   1.895   5.953   3.872  0.5210 -0.4096  0.5158
 5821SOL    HW118362   1.868   6.019   3.942 -1.4932 -0.1443 -0.4607
 5821SOL    HW218363   1.902   5.999   3.784 -0.7728 -1.4592 -0.1551
 5822SOL     OW18364   0.820   0.141   3.691  0.2991 -0.2187 -0.1228
 5822SOL    HW118365   0.726   0.175   3.697  0.4831  0.0700  1.5960
 5822SOL    HW218366   0.880   0.198   3.747  1.0748 -1.7877  0.7108
 5823SOL     OW18367   0.672   2.377   4.397  0.2903  0.3248 -0.8636
 5823SOL    HW118368   0.735   2.374   4.474 -1.2328 -1.9852  0.4169
 5823SOL    HW218369   0.579   2.358   4.430 -0.6273  0.7052 -3.0800
 5824SOL     OW18370   5.907   0.246   3.181  0.1752 -0.2563  0.0609
 5824SOL    HW118371   5.887   0.167   3.239  0.1028 -0.8657 -0.7770
 5824SOL    HW218372   5.929   0.325   3.239 -1.7901 -0.3175  0.9892
 5825SOL     OW18373   0.774   1.915   3.537  0.1306 -0.2710 -0.0066
 5825SOL    HW118374   0.796   1.819   3.520 -0.2203 -0.1186 -1.5471
 5825SOL    HW218375   0.799   1.940   3.630  1.4078 -1.5146  0.0089
 5826SOL     OW18376   6.031   6.726   2.732 -0.3793  0.0368 -0.4391
 5826SOL    HW118377   6.009   6.776   2.649 -0.0821  0.6374 -0.1585
 5826SOL    HW218378   5.957   6.662   2.753 -0.5773  0.0754 -1.0134
 5827SOL     OW18379   3.783   5.037   5.377  0.0937 -0.5028 -0.4298
 5827SOL    HW118380   3.776   4.981   5.295 -0.0432 -2.8608  1.0944
 5827SOL    HW218381   3.702   5.096   5.385 -0.1136 -0.5940 -1.7092
 5828SOL     OW18382   6.826   1.792   1.932 -0.0788 -0.4731 -0.0819
 5828SOL    HW118383   6.767   1.742   1.996 -0.8723  0.6179  0.0634
 5828SOL    HW218384   6.808   1.761   1.839 -1.4749  0.3832 -0.1280
 5829SOL     OW18385   6.784   1.063   2.363  0.2569 -0.6807 -0.0713
 5829SOL    HW118386   6.846   1.019   2.427  0.6434 -0.8670 -0.5626
 5829SOL    HW218387   6.705   1.100   2.412  0.1267 -1.5611  0.3921
 5830SOL     OW18388   0.950   1.533   4.509  0.3930 -0.1930 -0.1826
 5830SOL    HW118389   0.914   1.450   4.466 -0.9709 -0.0656  0.6652
 5830SOL    HW218390   0.976   1.599   4.439 -1.6121 -0.0547 -0.8482
 5831SOL     OW18391   4.938   4.946   1.539 -0.7982  0.6002 -0.0134
 5831SOL    HW118392   4.874   4.869   1.534  2.6715 -2.5293 -0.8305
 5831SOL    HW218393   4.949   4.986   1.448  0.1098 -0.5455 -0.4510
 5832SOL     OW18394   3.527   3.215   3.534  0.2643  0.2355  0.3574
 5832SOL    HW118395   3.446   3.175   3.578  0.8829 -1.1020  0.3337
 5832SOL    HW218396   3.516   3.209   3.434 -0.4260  1.7955  0.3156
 5833SOL     OW18397   3.743   3.625   4.044  0.0459 -0.5328  0.3562
 5833SOL    HW118398   3.650   3.650   4.072  0.7607  1.4397  1.1793
 5833SOL    HW218399   3.779   3.557   4.107 -0.4543 -0.4736  0.7194
 5834SOL     OW18400   0.459   2.963   6.126  0.0300 -0.2411 -0.2903
 5834SOL    HW118401   0.535   2.999   6.181  0.8832  1.1704 -2.2421
 5834SOL    HW218402   0.484   2.872   6.091 -1.5567 -2.3407  3.5298
 5835SOL     OW18403   5.110   2.386   5.745 -0.1618  0.4010  0.0449
 5835SOL    HW118404   5.205   2.381   5.714 -0.6707  1.8435 -1.9548
 5835SOL    HW218405   5.051   2.336   5.681 -0.6870 -1.2031  1.7262
 5836SOL     OW18406   4.883   0.663   2.107 -0.5022 -0.3456 -0.4667
 5836SOL    HW118407   4.893   0.705   2.017  0.5758 -1.4962 -0.9211
 5836SOL    HW218408   4.939   0.580   2.111  0.1973  0.1631  1.5688
 5837SOL     OW18409   3.828   4.696   5.916  0.5833 -0.3317  0.8064
 5837SOL    HW118410   3.891   4.773   5.923 -0.4879  0.8566 -1.5044
 5837SOL    HW218411   3.856   4.638   5.839  1.5041 -2.4763  2.6376
 5838SOL     OW18412   0.741   0.948   4.432 -0.1682 -0.6353 -0.3341
 5838SOL    HW118413   0.647   0.983   4.427 -0.2715 -0.5284  1.6762
 5838SOL    HW218414   0.805   1.024   4.433  0.0820 -0.7189 -2.9181
 5839SOL     OW18415   6.219   4.166   2.718 -0.2822  0.4754 -0.0055
 5839SOL    HW118416   6.307   4.213   2.724 -0.3346  0.4822  0.8228
 5839SOL    HW218417   6.198   4.146   2.622  0.8984 -0.0522 -0.1633
 5840SOL     OW18418   2.314   5.811   0.681  0.0543  0.0257 -0.2736
 5840SOL    HW118419   2.381   5.826   0.608  2.5712  0.0526  1.8549
 5840SOL    HW218420   2.350   5.849   0.767 -2.2208 -1.0105  1.2391
 5841SOL     OW18421   1.235   0.923   3.025  0.3351  0.2128 -0.1468
 5841SOL    HW118422   1.267   1.006   3.070 -1.5039  0.3975  0.9267
 5841SOL    HW218423   1.293   0.846   3.052  3.4272  1.3985 -2.8495
 5842SOL     OW18424   2.130   2.654   1.469 -0.2488 -0.0343  0.0109
 5842SOL    HW118425   2.137   2.632   1.372 -0.3844 -1.1821  0.2500
 5842SOL    HW218426   2.222   2.657   1.510 -0.2621 -0.7032  0.0911
 5843SOL     OW18427   5.467   3.628   1.990  0.0166 -0.2572  0.1767
 5843SOL    HW118428   5.472   3.562   1.916  3.1876  0.1223 -0.0685
 5843SOL    HW218429   5.435   3.716   1.955  0.0150 -0.4874 -0.4075
 5844SOL     OW18430   2.714   0.526   2.334  1.0156  0.2411 -0.0999
 5844SOL    HW118431   2.695   0.585   2.412  0.4871 -1.3445  1.0279
 5844SOL    HW218432   2.633   0.520   2.276  0.5502 -0.5526  0.6134
 5845SOL     OW18433   0.773   2.570   4.788 -0.1097 -0.0621 -0.4273
 5845SOL    HW118434   0.872   2.578   4.778  0.0400 -2.7081 -2.1525
 5845SOL    HW218435   0.751   2.491   4.844 -1.2622  0.5386  0.0087
 5846SOL     OW18436   1.514   3.363   6.065  0.9033  0.9740 -0.1528
 5846SOL    HW118437   1.438   3.327   6.011  1.1135 -0.0674  0.2381
 5846SOL    HW218438   1.590   3.299   6.063  1.4508  1.5970  0.2017
 5847SOL     OW18439   3.377   1.073   4.737  0.5524 -0.5947  0.4565
 5847SOL    HW118440   3.411   1.161   4.706 -0.1730 -0.0895  1.0573
 5847SOL    HW218441   3.317   1.086   4.816 -0.2188 -1.5438  0.0540
 5848SOL     OW18442   0.681   4.603   2.884  0.0221 -0.1174 -0.4948
 5848SOL    HW118443   0.672   4.510   2.919 -0.8446 -0.3404 -1.2792
 5848SOL    HW218444   0.682   4.601   2.784 -0.1954  0.7294 -0.5205
 5849SOL     OW18445   4.164   0.468   5.663  0.5819  1.0068  0.2961
 5849SOL    HW118446   4.192   0.515   5.746  1.2870  0.6627  0.2561
 5849SOL    HW218447   4.191   0.372   5.667  0.9765  1.0726 -0.4971
 5850SOL     OW18448   2.036   6.544   3.570 -0.3094 -0.2032 -0.0913
 5850SOL    HW118449   2.009   6.630   3.613  0.1197 -0.4317  0.6664
 5850SOL    HW218450   2.133   6.547   3.548 -0.4952 -0.1458 -0.9301
 5851SOL     OW18451   6.386   3.760   1.628 -0.7080 -0.0643 -0.2517
 5851SOL    HW118452   6.438   3.846   1.631 -1.6731  0.5236  2.2206
 5851SOL    HW218453   6.328   3.758   1.547  0.7117  0.7347 -1.3309
 5852SOL     OW18454   3.138   6.858   3.988  0.7437  0.2079  0.2079
 5852SOL    HW118455   3.154   6.761   4.007 -1.0200 -0.0875  0.3926
 5852SOL    HW218456   3.180   6.913   4.060  0.1705 -0.5400  1.1494
 5853SOL     OW18457   4.120   4.575   5.306 -0.2656 -0.0427 -0.0977
 5853SOL    HW118458   4.197   4.535   5.258  2.1053  1.7945  1.9109
 5853SOL    HW218459   4.062   4.503   5.343  2.3558 -1.6573  1.1320
 5854SOL     OW18460   1.398   2.514   6.690 -0.1446  0.4783 -0.0557
 5854SOL    HW118461   1.367   2.609   6.686 -0.3916  0.4222  0.4123
 5854SOL    HW218462   1.493   2.511   6.722 -0.0233  0.5850 -0.4007
 5855SOL     OW18463   1.047   1.043   4.876 -0.3356  0.0876  0.3448
 5855SOL    HW118464   1.059   0.944   4.872 -0.4951  0.0912 -0.3552
 5855SOL    HW218465   1.099   1.080   4.952  0.7700 -0.3800 -0.1637
 5856SOL     OW18466   0.556   5.782   3.088 -0.5465 -0.3498 -0.4263
 5856SOL    HW118467   0.551   5.755   3.185  1.4613  0.6247 -0.0109
 5856SOL    HW218468   0.465   5.771   3.047 -1.5587 -0.4505  1.6518
 5857SOL     OW18469   5.854   1.640   5.151  0.3440 -0.3224 -0.1138
 5857SOL    HW118470   5.861   1.732   5.112 -0.5141 -0.4661 -0.6435
 5857SOL    HW218471   5.936   1.619   5.203  0.4567  0.8281  0.1905
 5858SOL     OW18472   2.014   0.786   6.568  0.3617 -0.1721 -0.1005
 5858SOL    HW118473   2.002   0.870   6.516 -0.5085 -0.8128 -0.9579
 5858SOL    HW218474   1.946   0.719   6.540  2.0972 -1.7822 -0.6788
 5859SOL     OW18475   4.689   6.458   1.893 -0.1650 -0.2044  0.6281
 5859SOL    HW118476   4.715   6.518   1.818 -1.4716  0.0811  0.3740
 5859SOL    HW218477   4.677   6.512   1.977  0.9816 -0.4756  0.9760
 5860SOL     OW18478   6.439   3.596   6.025 -0.0043 -0.5582 -0.1018
 5860SOL    HW118479   6.376   3.568   5.952 -1.4711  2.4675 -0.1323
 5860SOL    HW218480   6.405   3.564   6.113 -2.2204  1.8096 -0.0114
 5861SOL     OW18481   0.681   2.825   4.321 -0.1888  0.0732  0.7618
 5861SOL    HW118482   0.716   2.916   4.343  3.4284 -1.2909  1.2309
 5861SOL    HW218483   0.677   2.769   4.404 -2.4703 -0.2414  0.4971
 5862SOL     OW18484   0.792   3.957   3.832  0.2241 -0.1204 -0.2953
 5862SOL    HW118485   0.748   4.037   3.874 -0.3626 -0.5267 -0.1289
 5862SOL    HW218486   0.847   3.910   3.901  0.3416 -0.0235 -0.3224
 5863SOL     OW18487   1.187   0.805   1.067  0.0642  0.1076  0.4017
 5863SOL    HW118488   1.174   0.709   1.046 -2.1456  0.5542 -0.6281
 5863SOL    HW218489   1.172   0.820   1.165  1.5094 -0.7042  0.7786
 5864SOL     OW18490   5.662   5.037   5.438  0.0528  0.1690 -0.1093
 5864SOL    HW118491   5.577   4.991   5.466 -0.9446  1.2525 -1.2153
 5864SOL    HW218492   5.675   5.026   5.339  1.9368 -1.1010  0.2317
 5865SOL     OW18493   5.652   2.738   2.856  0.3670  0.1324 -0.8605
 5865SOL    HW118494   5.598   2.765   2.936 -1.5048 -1.8337 -1.3851
 5865SOL    HW218495   5.643   2.808   2.785 -0.3974  0.4633 -0.4545
 5866SOL     OW18496   3.513   7.021   6.348  0.7173  0.0208 -0.8572
 5866SOL    HW118497   3.495   6.977   6.259 -1.4961  0.2394 -0.5843
 5866SOL    HW218498   3.470   6.967   6.420  2.4359 -0.1079  0.1226
 5867SOL     OW18499   6.880   3.760   3.745  0.4531  0.2976  0.3953
 5867SOL    HW118500   6.784   3.770   3.770  0.3267 -1.5913  0.8125
 5867SOL    HW218501   6.894   3.790   3.651 -0.1493  2.3317  0.8980
 5868SOL     OW18502   1.265   5.439   4.043  0.2057  0.0230 -0.0018
 5868SOL    HW118503   1.330   5.515   4.040  1.7728 -0.8854  4.1313
 5868SOL    HW218504   1.315   5.352   4.047 -1.4889 -1.1469 -1.9923
 5869SOL     OW18505   2.873   4.723   4.398  0.1122  0.7081 -0.1729
 5869SOL    HW118506   2.926   4.766   4.471  2.3673 -1.6401 -0.2576
 5869SOL    HW218507   2.935   4.694   4.325 -1.8824  1.4991 -2.3079
 5870SOL     OW18508   5.849   6.492   2.803  0.2139  0.4004 -0.1368
 5870SOL    HW118509   5.906   6.410   2.813 -0.3134  0.0563  0.0797
 5870SOL    HW218510   5.791   6.503   2.884  0.0635  0.8193 -0.2979
 5871SOL     OW18511   4.783   5.296   0.580  0.6357  0.0402 -0.2199
 5871SOL    HW118512   4.873   5.314   0.620  0.2961 -0.4260  0.7651
 5871SOL    HW218513   4.758   5.372   0.520  0.5973  1.3695  1.4260
 5872SOL     OW18514   5.257   6.798   3.618  0.0361 -0.3906 -0.4386
 5872SOL    HW118515   5.299   6.772   3.705 -1.3889 -1.6956 -0.0999
 5872SOL    HW218516   5.245   6.897   3.615  1.1745 -0.2043  0.3222
 5873SOL     OW18517   0.694   2.602   1.467  0.4327  0.2956  0.3708
 5873SOL    HW118518   0.635   2.662   1.412  0.0669 -0.6098 -0.2554
 5873SOL    HW218519   0.701   2.639   1.559 -0.5645  0.7951  0.2716
 5874SOL     OW18520   6.737   5.214   0.714 -0.2711  0.4749 -0.5217
 5874SOL    HW118521   6.698   5.128   0.749 -1.3336  1.0286 -0.2884
 5874SOL    HW218522   6.833   5.220   0.739 -0.5721  0.0515  0.8220
 5875SOL     OW18523   2.696   0.511   0.117 -0.3858  0.1608 -0.0771
 5875SOL    HW118524   2.689   0.481   0.212 -1.3103 -0.1694 -0.2335
 5875SOL    HW218525   2.672   0.608   0.111  2.2335  0.9149  0.3751
 5876SOL     OW18526   4.509   3.459   5.661  0.5306  0.4274 -0.0071
 5876SOL    HW118527   4.436   3.517   5.626  0.2147 -0.2849 -0.5634
 5876SOL    HW218528   4.595   3.481   5.615 -0.1396 -1.4199 -2.3418
 5877SOL     OW18529   6.157   5.643   3.802  0.1992  0.4469  0.1947
 5877SOL    HW118530   6.057   5.644   3.805  0.1519  0.9550 -0.9842
 5877SOL    HW218531   6.194   5.693   3.880 -0.4338 -0.8051  1.3260
 5878SOL     OW18532   5.251   5.214   3.230  0.1258 -0.3642 -0.1699
 5878SOL    HW118533   5.260   5.314   3.227 -0.9989 -0.2584 -0.1327
 5878SOL    HW218534   5.158   5.189   3.257  0.1536 -1.4309 -0.9985
 5879SOL     OW18535   1.987   6.018   5.835  0.1639 -0.4357 -0.2289
 5879SOL    HW118536   2.046   6.077   5.890  0.7268 -0.3948 -0.8577
 5879SOL    HW218537   2.029   6.004   5.745  0.5196 -2.5753  0.2195
 5880SOL     OW18538   0.640   2.600   0.188 -0.6406  0.2749 -0.0544
 5880SOL    HW118539   0.591   2.581   0.103  0.2701  0.8007 -0.7172
 5880SOL    HW218540   0.713   2.666   0.170  0.3126 -0.4928  0.9076
 5881SOL     OW18541   0.997   0.792   5.252  0.2947  0.2649 -0.4283
 5881SOL    HW118542   0.959   0.879   5.284  0.6290  0.5366 -0.7714
 5881SOL    HW218543   1.093   0.804   5.227  0.8728 -0.5972  1.2248
 5882SOL     OW18544   0.647   3.949   6.739  0.0086 -0.0772 -0.1556
 5882SOL    HW118545   0.727   3.971   6.682  0.8260 -2.2784  0.0406
 5882SOL    HW218546   0.670   3.963   6.835 -0.0472 -0.1555 -0.1315
 5883SOL     OW18547   6.794   6.338   1.173  0.0933 -0.1699 -0.5667
 5883SOL    HW118548   6.887   6.318   1.204  0.0667 -0.1956 -0.5036
 5883SOL    HW218549   6.796   6.415   1.109  0.2126 -0.4611 -0.9142
 5884SOL     OW18550   6.039   0.019   1.152 -0.2464 -0.0097  0.5004
 5884SOL    HW118551   6.132  -0.008   1.129 -0.2502  1.2649 -1.2381
 5884SOL    HW218552   5.976  -0.017   1.084 -0.5483  2.1176 -0.4178
 5885SOL     OW18553   6.142   5.479   1.464 -0.2487  0.0731 -0.6153
 5885SOL    HW118554   6.135   5.495   1.562 -2.2678 -1.6233 -0.4061
 5885SOL    HW218555   6.214   5.536   1.426  2.6689 -1.3228  2.3118
 5886SOL     OW18556   2.057   4.334   3.207  0.6908 -0.3585  0.0588
 5886SOL    HW118557   2.097   4.426   3.208 -0.4897  0.1896 -0.0851
 5886SOL    HW218558   2.122   4.269   3.169  1.9250  0.2235  1.0748
 5887SOL     OW18559   0.997   2.332   1.615 -0.7367  0.3567 -0.0452
 5887SOL    HW118560   0.991   2.400   1.689  0.1010  0.5505 -0.1420
 5887SOL    HW218561   0.940   2.361   1.538 -2.2442 -0.2334  0.8041
 5888SOL     OW18562   2.704   6.462   2.058  0.3744  0.2904 -0.2662
 5888SOL    HW118563   2.667   6.420   1.975  1.4859  0.3406 -0.8072
 5888SOL    HW218564   2.755   6.394   2.111 -0.0276  0.3443  0.1914
 5889SOL     OW18565   3.034   2.711   1.785  0.2977  0.0902  0.3188
 5889SOL    HW118566   2.982   2.638   1.829  0.0297  0.8148  1.2270
 5889SOL    HW218567   3.130   2.683   1.780 -0.0087 -0.8681 -0.5418
 5890SOL     OW18568   1.374   2.722   4.494  0.1324 -0.5413  0.0382
 5890SOL    HW118569   1.323   2.748   4.412  0.6723 -1.5557 -0.6375
 5890SOL    HW218570   1.335   2.639   4.532  2.3189 -2.4292 -1.5571
 5891SOL     OW18571   2.441   2.993   0.041 -0.5543  0.0880  0.4042
 5891SOL    HW118572   2.502   3.073   0.036  0.2109 -0.4410  1.0155
 5891SOL    HW218573   2.428   2.956  -0.050 -1.1736  1.0948  0.0656
 5892SOL     OW18574   1.838   1.910   0.889 -0.3441 -0.3595  0.2339
 5892SOL    HW118575   1.934   1.939   0.899 -0.5766  0.6014 -0.2175
 5892SOL    HW218576   1.806   1.870   0.975  0.0309  0.6333  0.8428
 5893SOL     OW18577   0.093   5.179   1.445  0.3111  0.0698  0.0072
 5893SOL    HW118578   0.118   5.276   1.449  0.6427  0.0248 -0.7396
 5893SOL    HW218579   0.007   5.165   1.493 -0.0267  0.8435 -0.3456
 5894SOL     OW18580   3.764   5.523   1.071 -0.9279 -0.5643 -0.2997
 5894SOL    HW118581   3.772   5.610   1.120  1.8644 -1.7988  1.7860
 5894SOL    HW218582   3.812   5.530   0.983 -1.1387  0.1219 -0.3697
 5895SOL     OW18583   0.051   3.140   3.943 -0.2415  0.1599 -0.9625
 5895SOL    HW118584   0.058   3.139   3.844 -0.0510  1.2595 -0.9797
 5895SOL    HW218585   0.136   3.107   3.984  0.9736  2.7630 -1.1909
 5896SOL     OW18586   5.875   2.202   0.253  0.4920 -0.2069 -0.2915
 5896SOL    HW118587   5.861   2.245   0.164 -1.6326  0.1663  0.1606
 5896SOL    HW218588   5.848   2.266   0.326  1.4890 -0.7631  0.5941
 5897SOL     OW18589   4.891   4.551   1.076 -0.2334 -0.1528  0.3961
 5897SOL    HW118590   4.967   4.601   1.035 -2.0827  0.7133 -2.2316
 5897SOL    HW218591   4.878   4.465   1.028 -1.5871  0.2196  0.0664
 5898SOL     OW18592   2.538   6.523   5.806  0.1608  1.0064  0.1302
 5898SOL    HW118593   2.462   6.573   5.765  0.3477 -0.2039 -1.8113
 5898SOL    HW218594   2.624   6.563   5.775  0.3070  0.0711 -0.6982
 5899SOL     OW18595   7.007   5.896   1.894 -0.8169  0.5503  0.1448
 5899SOL    HW118596   7.034   5.884   1.798  0.8644  0.8195  0.5549
 5899SOL    HW218597   6.914   5.933   1.898 -0.6046  1.3188 -1.3926
 5900SOL     OW18598   6.456   0.029   2.764  0.7157 -0.2744  0.0495
 5900SOL    HW118599   6.498   0.002   2.677 -0.6005 -1.3670 -0.2924
 5900SOL    HW218600   6.396  -0.045   2.796 -0.7518  1.1148  0.6178
 5901SOL     OW18601   1.359   6.585   4.523 -0.4976  0.1320  0.1668
 5901SOL    HW118602   1.334   6.580   4.426  0.5947 -0.9004 -0.0836
 5901SOL    HW218603   1.328   6.502   4.569 -0.0505  0.1230  0.4541
 5902SOL     OW18604   6.218   4.010   0.144  0.2454  0.2907  0.1136
 5902SOL    HW118605   6.148   3.999   0.073  0.5348  0.2437 -0.1693
 5902SOL    HW218606   6.296   4.061   0.105  1.0695 -1.0422 -0.0556
 5903SOL     OW18607   4.394   5.929   6.715 -0.2186 -0.3528 -0.2933
 5903SOL    HW118608   4.425   5.970   6.801 -1.7726 -3.3217  1.8826
 5903SOL    HW218609   4.449   5.848   6.694 -0.3964 -0.1469 -1.6676
 5904SOL     OW18610   5.753   4.983   0.880  0.0377 -0.4084  0.3419
 5904SOL    HW118611   5.805   5.067   0.872 -0.6899  0.0824  0.6642
 5904SOL    HW218612   5.698   4.969   0.798  0.7787 -1.0069 -0.0656
 5905SOL     OW18613   0.130   2.688   4.867 -0.4187 -0.2418 -0.8234
 5905SOL    HW118614   0.083   2.716   4.784 -0.0948 -1.6349 -1.5023
 5905SOL    HW218615   0.222   2.727   4.868 -1.4708  2.4817  0.5021
 5906SOL     OW18616   4.557   1.454   5.141  0.0848  0.2249 -0.1101
 5906SOL    HW118617   4.484   1.414   5.197  0.6441 -0.5609  0.0699
 5906SOL    HW218618   4.639   1.465   5.196  0.4323  0.0845 -0.5978
 5907SOL     OW18619   3.578   2.949   6.307 -0.2029  0.2749  0.1557
 5907SOL    HW118620   3.521   3.027   6.333  0.8205  1.4306 -0.9175
 5907SOL    HW218621   3.521   2.880   6.261 -1.1972  0.1645  1.5122
 5908SOL     OW18622   5.347   6.664   6.699  0.0580 -0.6124  0.1235
 5908SOL    HW118623   5.258   6.619   6.705 -0.2118 -0.4663 -2.0128
 5908SOL    HW218624   5.338   6.760   6.728 -0.4865 -0.6063 -0.0494
 5909SOL     OW18625   1.261   5.101   4.132  0.7594  0.3951 -0.0217
 5909SOL    HW118626   1.321   5.173   4.166  1.3609 -0.4597  0.8062
 5909SOL    HW218627   1.227   5.046   4.209 -2.3735  1.7563 -0.2906
 5910SOL     OW18628   1.941   4.360   0.848 -0.2810 -0.1604  0.3779
 5910SOL    HW118629   1.909   4.266   0.853 -0.4276 -0.0758  1.1260
 5910SOL    HW218630   1.949   4.398   0.940 -0.2515  0.5683  0.0839
 5911SOL     OW18631   1.245   0.211   3.356  0.1463  0.1413  0.1706
 5911SOL    HW118632   1.317   0.278   3.374  0.8369 -0.6486  0.4439
 5911SOL    HW218633   1.196   0.191   3.441  1.0511 -0.9203  0.4814
 5912SOL     OW18634   1.983   3.612   5.377 -0.0243 -0.0870 -0.1210
 5912SOL    HW118635   1.929   3.554   5.438  1.4071 -1.6394 -0.2789
 5912SOL    HW218636   1.925   3.644   5.302 -1.1266 -0.3614  0.5898
 5913SOL     OW18637   4.237   3.456   5.104  0.2782  0.2333  0.4425
 5913SOL    HW118638   4.267   3.361   5.110  1.5717  0.5376 -0.7565
 5913SOL    HW218639   4.310   3.517   5.135 -0.4888  0.8759  1.0813
 5914SOL     OW18640   1.369   5.766   0.588 -0.5170  0.2554  0.1757
 5914SOL    HW118641   1.468   5.752   0.593 -0.3060  0.3376 -2.3649
 5914SOL    HW218642   1.328   5.693   0.533 -1.8176  0.4269  0.8856
 5915SOL     OW18643   6.244   5.740   4.898 -0.2281  0.0288 -0.2116
 5915SOL    HW118644   6.270   5.702   4.987  0.5054  2.0429  0.4998
 5915SOL    HW218645   6.320   5.730   4.834  0.7042  1.8632  0.5306
 5916SOL     OW18646   1.826   5.910   4.535 -0.3494 -0.7656 -0.0130
 5916SOL    HW118647   1.776   5.823   4.541 -1.8018  0.1022  1.3201
 5916SOL    HW218648   1.924   5.893   4.547 -0.7566 -2.0989  1.9708
 5917SOL     OW18649   2.788   3.673   1.049 -0.2450  0.0534 -0.2967
 5917SOL    HW118650   2.791   3.708   1.143  1.4579 -1.0434  0.0987
 5917SOL    HW218651   2.834   3.738   0.989  1.2619 -0.5577  0.1379
 5918SOL     OW18652   2.529   0.971   5.109 -0.2687  0.3981 -0.3079
 5918SOL    HW118653   2.463   0.962   5.035 -0.6903 -0.8263  0.1862
 5918SOL    HW218654   2.618   0.937   5.078 -0.6202 -0.8130 -0.0605
 5919SOL     OW18655   2.150   4.442   6.841 -0.3807 -0.0857 -0.3352
 5919SOL    HW118656   2.153   4.494   6.756 -0.8903  3.2437  1.4782
 5919SOL    HW218657   2.055   4.432   6.870 -0.2638 -1.8554 -0.4784
 5920SOL     OW18658   2.359   0.954   6.305 -0.4321 -0.8807 -0.0691
 5920SOL    HW118659   2.370   1.048   6.336 -0.5128 -0.7439 -0.4516
 5920SOL    HW218660   2.372   0.950   6.206 -1.5669 -1.0862 -0.2175
 5921SOL     OW18661   5.655   2.023   0.810  0.3987  0.3040 -1.1883
 5921SOL    HW118662   5.665   2.114   0.849  0.9015  0.0041 -0.5906
 5921SOL    HW218663   5.728   2.007   0.743  1.0978 -0.1165 -0.3533
 5922SOL     OW18664   1.017   6.553   3.042 -0.5487  0.0521 -0.3740
 5922SOL    HW118665   0.951   6.498   3.093 -1.4115 -1.1509 -2.6378
 5922SOL    HW218666   1.037   6.507   2.955  3.7242  0.0468  0.4098
 5923SOL     OW18667   1.495   0.738   2.085 -0.4992  0.4933  0.3245
 5923SOL    HW118668   1.459   0.734   2.178  0.7822 -0.3959  0.8078
 5923SOL    HW218669   1.566   0.669   2.074 -2.6441 -1.4776 -2.2267
 5924SOL     OW18670   6.340   1.360   4.664 -0.6384 -0.0764 -0.0438
 5924SOL    HW118671   6.290   1.389   4.582 -1.1437 -1.0021 -0.0786
 5924SOL    HW218672   6.339   1.260   4.670  0.6224 -0.0811  0.3372
 5925SOL     OW18673   0.450   0.049   1.118 -0.3546  0.6724  0.3193
 5925SOL    HW118674   0.537   0.002   1.100 -0.0978  0.6996  1.4526
 5925SOL    HW218675   0.461   0.147   1.100  0.3458  0.9362  2.0254
 5926SOL     OW18676   2.784   5.446   1.805 -0.3298  0.5822 -0.4571
 5926SOL    HW118677   2.855   5.391   1.850 -1.9286 -0.6209  0.6932
 5926SOL    HW218678   2.706   5.456   1.867 -1.9856  0.2092 -2.4044
 5927SOL     OW18679   0.762   0.417   1.423 -0.9234 -0.1123  0.1486
 5927SOL    HW118680   0.796   0.325   1.402  2.2971  0.8267  0.6421
 5927SOL    HW218681   0.735   0.421   1.519  0.9622 -0.0835  0.7220
 5928SOL     OW18682   0.266   6.047   0.694  0.1997 -0.0856  0.1120
 5928SOL    HW118683   0.299   6.128   0.743 -0.1734  1.7453 -2.4244
 5928SOL    HW218684   0.344   5.988   0.671  0.8884  0.9995 -0.4167
 5929SOL     OW18685   5.442   0.351   6.306  0.1151 -0.1185  0.4160
 5929SOL    HW118686   5.392   0.367   6.391  0.1669  1.7875  0.1332
 5929SOL    HW218687   5.404   0.409   6.234 -0.8056 -2.6665 -1.2542
 5930SOL     OW18688   6.382   0.190   4.182  0.5622  0.0050  0.3162
 5930SOL    HW118689   6.369   0.240   4.095  2.0548  1.0068  0.6249
 5930SOL    HW218690   6.354   0.095   4.170 -0.2482  0.3710 -0.9622
 5931SOL     OW18691   1.245   5.445   2.874 -0.5114 -0.2837 -0.5094
 5931SOL    HW118692   1.147   5.446   2.889 -0.4723  1.2708 -0.1850
 5931SOL    HW218693   1.282   5.538   2.886  1.1433 -1.0105  0.3906
 5932SOL     OW18694   1.910   1.885   2.947 -0.3482 -1.0062  0.1388
 5932SOL    HW118695   1.940   1.910   3.039 -0.5113  0.7492 -0.2506
 5932SOL    HW218696   1.979   1.914   2.880 -0.1079 -2.4958 -0.3025
 5933SOL     OW18697   5.260   4.100   2.743  0.1231  0.3861 -0.2136
 5933SOL    HW118698   5.224   4.176   2.797  1.7848  1.7332 -0.8792
 5933SOL    HW218699   5.290   4.026   2.803 -1.1659  0.4033  0.4677
 5934SOL     OW18700   3.360   3.889   2.172 -0.2217  0.4216 -0.0001
 5934SOL    HW118701   3.327   3.868   2.265  0.7533  0.5748  0.3868
 5934SOL    HW218702   3.406   3.808   2.135 -0.9702  0.2220 -0.5285
 5935SOL     OW18703   3.761   3.023   2.110 -0.3690 -0.6363 -0.3903
 5935SOL    HW118704   3.684   3.086   2.101 -0.2793 -0.7001 -1.8642
 5935SOL    HW218705   3.731   2.940   2.158 -0.5877  0.3228  1.1996
 5936SOL     OW18706   0.569   6.685   6.581 -0.2739 -0.5338  0.2368
 5936SOL    HW118707   0.524   6.607   6.626 -0.2702 -1.7693 -1.7758
 5936SOL    HW218708   0.522   6.704   6.495  0.6495  0.7648  0.0043
 5937SOL     OW18709   2.706   2.312   0.597  0.2526 -0.2863 -0.7515
 5937SOL    HW118710   2.782   2.376   0.614  0.1342 -0.3373  0.0024
 5937SOL    HW218711   2.712   2.278   0.503  1.4171 -0.6155 -0.5772
 5938SOL     OW18712   2.841   3.819   6.175  0.4289 -0.4486  0.3319
 5938SOL    HW118713   2.769   3.759   6.210  0.7914  0.0506  2.0478
 5938SOL    HW218714   2.871   3.881   6.248  2.3929 -0.4441 -0.4107
 5939SOL     OW18715   0.759   1.867   3.173  0.1010  0.0092 -0.2367
 5939SOL    HW118716   0.700   1.856   3.092 -0.0334  1.5067 -0.3751
 5939SOL    HW218717   0.742   1.956   3.214  2.4755  0.6228 -0.4360
 5940SOL     OW18718   4.940   5.054   2.965  0.0841 -0.0369 -0.7643
 5940SOL    HW118719   4.900   5.074   2.876  0.2652  0.1444 -0.8086
 5940SOL    HW218720   4.989   5.135   2.998 -1.9889  0.7497  0.6040
 5941SOL     OW18721   5.519   3.458   3.649 -0.0206 -0.1457 -0.5608
 5941SOL    HW118722   5.580   3.517   3.701 -0.4580  2.9074 -3.1913
 5941SOL    HW218723   5.541   3.362   3.667  2.4204  0.7787  2.0334
 5942SOL     OW18724   0.269   2.274   5.888 -0.1696 -0.1363  0.7865
 5942SOL    HW118725   0.234   2.343   5.825 -2.1596 -1.7724 -0.0062
 5942SOL    HW218726   0.315   2.201   5.837  0.7151 -0.0837  1.4834
 5943SOL     OW18727   2.202   0.526   1.983 -0.3762 -0.0303 -0.3123
 5943SOL    HW118728   2.145   0.606   2.004 -2.0256 -1.9416  3.4941
 5943SOL    HW218729   2.143   0.447   1.967  1.2323 -1.1211 -1.0074
 5944SOL     OW18730   5.960   3.610   4.075  0.4718 -0.0769  0.4250
 5944SOL    HW118731   6.035   3.676   4.076 -0.6831  1.2747  0.6690
 5944SOL    HW218732   5.918   3.606   4.165  0.6546 -1.3201  0.4653
 5945SOL     OW18733   0.747   5.902   0.097  0.6191 -0.1533 -0.1067
 5945SOL    HW118734   0.825   5.869   0.045  0.7117 -0.4432  0.2111
 5945SOL    HW218735   0.666   5.902   0.038  0.8761  0.2374 -0.4619
 5946SOL     OW18736   3.784   3.290   5.267 -0.1866  0.0053  0.0522
 5946SOL    HW118737   3.755   3.214   5.326  2.2763 -0.2323  1.0949
 5946SOL    HW218738   3.716   3.363   5.271 -1.0616 -0.8298  1.6436
 5947SOL     OW18739   5.607   3.762   3.870  0.6621  0.5817  0.6149
 5947SOL    HW118740   5.546   3.789   3.795 -1.4420 -1.0261  1.6365
 5947SOL    HW218741   5.581   3.812   3.953  0.8195  0.0090  1.0176
 5948SOL     OW18742   2.236   5.402   4.757  0.4576  0.7545  0.3260
 5948SOL    HW118743   2.193   5.322   4.717 -1.4537  1.5547  0.6515
 5948SOL    HW218744   2.334   5.403   4.734  0.1283 -0.6038 -1.3448
 5949SOL     OW18745   4.406   5.845   1.790  0.0053  0.0184  0.8568
 5949SOL    HW118746   4.378   5.919   1.851 -0.6503 -0.3342  0.9981
 5949SOL    HW218747   4.328   5.786   1.772 -0.6841  1.7997 -2.8305
 5950SOL     OW18748   0.559   0.919   5.552  0.3042  0.1113 -0.0793
 5950SOL    HW118749   0.584   0.831   5.592  2.1225  0.6776  0.1042
 5950SOL    HW218750   0.464   0.940   5.574  0.0547 -1.4709  0.4614
 5951SOL     OW18751   3.094   0.035   3.300 -0.0954  0.2631 -0.2941
 5951SOL    HW118752   3.020   0.092   3.264 -0.1243 -0.2773 -1.1181
 5951SOL    HW218753   3.088   0.032   3.400  0.2353  2.1240 -0.1889
 5952SOL     OW18754   0.941   0.552   5.348 -0.0898  0.0166 -0.1023
 5952SOL    HW118755   0.886   0.506   5.278  0.5630  1.7065 -1.8368
 5952SOL    HW218756   0.957   0.647   5.320  0.2749  0.7554  2.3451
 5953SOL     OW18757   0.526   5.010   5.684 -0.2650  0.0166 -0.3015
 5953SOL    HW118758   0.539   4.927   5.738 -1.3632  0.5902  0.9040
 5953SOL    HW218759   0.431   5.014   5.651  0.3609 -0.2988 -2.2814
 5954SOL     OW18760   1.035   3.760   6.342 -0.1540  0.1854 -0.1505
 5954SOL    HW118761   1.031   3.840   6.402 -2.7952  1.0084 -1.2885
 5954SOL    HW218762   0.973   3.689   6.376 -0.6054  0.0989 -1.1173
 5955SOL     OW18763   1.175   4.852   3.704  0.0814 -0.2082 -0.0321
 5955SOL    HW118764   1.181   4.796   3.621  1.6423 -1.2436  0.7326
 5955SOL    HW218765   1.233   4.932   3.694 -1.8094  1.1396 -0.9478
 5956SOL     OW18766   5.222   1.730   0.646  0.2013  0.0033  0.1052
 5956SOL    HW118767   5.290   1.794   0.682 -1.1850  1.1558  0.7793
 5956SOL    HW218768   5.224   1.646   0.700  0.1462  0.5719  1.0156
 5957SOL     OW18769   2.727   0.897   0.116  0.1383  0.3292 -0.5400
 5957SOL    HW118770   2.737   0.889   0.215 -1.3515  1.3332 -0.2663
 5957SOL    HW218771   2.813   0.873   0.072  1.4739  1.8082  1.1060
 5958SOL     OW18772   2.160   4.461   3.785  0.4005  0.7156 -0.5072
 5958SOL    HW118773   2.222   4.491   3.858  0.9006  1.1920 -1.1199
 5958SOL    HW218774   2.210   4.405   3.720 -0.1786 -0.1993 -0.1910
 5959SOL     OW18775   5.829   6.482   3.661 -0.7746 -0.3681  0.6750
 5959SOL    HW118776   5.828   6.417   3.737  0.6285 -0.6541  0.4796
 5959SOL    HW218777   5.833   6.575   3.696  0.0300 -0.5043  0.9718
 5960SOL     OW18778   3.200   6.231   3.798  0.2107 -0.2507 -0.6409
 5960SOL    HW118779   3.125   6.274   3.750 -0.7991 -0.2747  0.8651
 5960SOL    HW218780   3.197   6.132   3.783 -0.2059 -0.2766 -0.3839
 5961SOL     OW18781   2.255   5.881   4.916  0.0892 -0.0144 -0.2345
 5961SOL    HW118782   2.321   5.922   4.854 -2.4883  1.8254 -1.9723
 5961SOL    HW218783   2.242   5.942   4.995  0.5267 -0.4517  0.1865
 5962SOL     OW18784   5.347   5.477   4.201 -0.1856  0.2638  0.0921
 5962SOL    HW118785   5.398   5.530   4.133  0.6842  0.5542  0.9581
 5962SOL    HW218786   5.405   5.404   4.237  0.0254  1.2951  1.9122
 5963SOL     OW18787   5.144   5.485   1.540  0.0668 -0.5354  0.4421
 5963SOL    HW118788   5.242   5.465   1.544  0.3581  0.5959 -0.6105
 5963SOL    HW218789   5.094   5.402   1.514  0.6772 -1.2346  1.4080
 5964SOL     OW18790   2.708   4.105   6.117 -0.2158  0.5211 -0.2302
 5964SOL    HW118791   2.622   4.132   6.074 -0.7479 -0.4389  0.1942
 5964SOL    HW218792   2.749   4.031   6.064  0.0646  0.5949 -0.1165
 5965SOL     OW18793   2.973   1.337   3.678 -0.0576 -0.4103 -0.5922
 5965SOL    HW118794   2.994   1.396   3.756 -0.5327 -0.8843 -0.0961
 5965SOL    HW218795   2.930   1.391   3.606  3.0557  0.6753 -1.8019
 5966SOL     OW18796   2.217   0.099   3.786  0.1788  0.0825  0.1382
 5966SOL    HW118797   2.196   0.180   3.841 -0.0254  0.3227 -0.2910
 5966SOL    HW218798   2.266   0.127   3.703  2.2012 -0.4564  1.0856
 5967SOL     OW18799   3.100   5.964   0.628 -0.1804  0.4786  0.4101
 5967SOL    HW118800   3.192   5.925   0.634  0.6391  2.3542  0.9729
 5967SOL    HW218801   3.079   5.987   0.533  1.0519  2.3963  0.5353
 5968SOL     OW18802   1.496   0.906   5.213 -0.2857  0.1549 -0.5965
 5968SOL    HW118803   1.401   0.879   5.199 -0.5403  2.1047 -3.7090
 5968SOL    HW218804   1.531   0.949   5.130  2.1867  2.8370  1.5908
 5969SOL     OW18805   0.828   3.212   4.723 -0.4560 -0.1943  0.2397
 5969SOL    HW118806   0.830   3.112   4.710  0.7616 -0.3565  1.3086
 5969SOL    HW218807   0.752   3.236   4.783 -0.5622 -0.5403  0.2483
 5970SOL     OW18808   0.559   3.879   4.067 -0.2122  0.5959 -0.0907
 5970SOL    HW118809   0.573   3.900   3.970 -0.6931  0.8331 -0.1094
 5970SOL    HW218810   0.512   3.791   4.075  1.3930 -0.2929 -0.0226
 5971SOL     OW18811   3.883   6.576   3.335 -0.0646 -0.1479  0.3425
 5971SOL    HW118812   3.977   6.587   3.369  0.2046  0.7214 -0.6330
 5971SOL    HW218813   3.832   6.660   3.350 -1.0560 -0.9797  1.8821
 5972SOL     OW18814   4.999   5.989   0.202 -0.0721 -0.2287 -0.1104
 5972SOL    HW118815   4.997   5.946   0.112 -2.0392 -1.9891  0.6829
 5972SOL    HW218816   4.925   6.056   0.209  1.0568  1.0869 -0.2822
 5973SOL     OW18817   1.732   4.689   2.637 -0.0965  0.5262 -0.6068
 5973SOL    HW118818   1.665   4.744   2.687  0.3453  1.2483 -0.7851
 5973SOL    HW218819   1.698   4.596   2.627 -0.5292  0.5693  0.3586
 5974SOL     OW18820   0.233   3.369   6.764 -0.5620  0.4764 -0.1503
 5974SOL    HW118821   0.259   3.318   6.683 -0.8706 -0.8416  0.5577
 5974SOL    HW218822   0.184   3.452   6.736  1.2273  1.1994 -1.3609
 5975SOL     OW18823   2.134   1.668   6.758 -0.1561  0.1454 -0.5646
 5975SOL    HW118824   2.208   1.733   6.775 -0.8460  0.8372 -0.0865
 5975SOL    HW218825   2.052   1.698   6.808 -0.8008 -0.5092 -1.2048
 5976SOL     OW18826   4.317   4.587   1.371 -0.2260 -0.2542 -0.2620
 5976SOL    HW118827   4.224   4.555   1.389  0.0837 -2.5997 -2.3038
 5976SOL    HW218828   4.315   4.663   1.307 -0.7345  0.0337  0.0884
 5977SOL     OW18829   5.414   4.487   3.432  0.4164 -1.0202  0.2396
 5977SOL    HW118830   5.462   4.524   3.353  0.8684 -0.1228  0.9113
 5977SOL    HW218831   5.472   4.495   3.513 -0.4091 -1.0156  0.8426
 5978SOL     OW18832   5.344   6.360   3.316  0.4263 -1.3441  0.2970
 5978SOL    HW118833   5.313   6.365   3.221  1.1736  0.3983  0.0978
 5978SOL    HW218834   5.280   6.410   3.374  0.5754 -1.4267  0.5332
 5979SOL     OW18835   3.215   0.405   3.382  0.0635  0.4905 -0.1838
 5979SOL    HW118836   3.165   0.380   3.299  0.9666 -1.6989 -0.1509
 5979SOL    HW218837   3.280   0.478   3.362  0.3567 -0.0966 -1.4627
 5980SOL     OW18838   5.561   3.256   4.623 -0.2573 -0.0370  0.0840
 5980SOL    HW118839   5.603   3.318   4.557 -1.1439 -1.8283 -2.3356
 5980SOL    HW218840   5.497   3.307   4.681  1.6864  1.8664  0.6888
 5981SOL     OW18841   3.759   1.990   0.711 -0.2932 -0.0211 -0.1195
 5981SOL    HW118842   3.672   2.020   0.750 -0.4446 -0.3625 -0.1882
 5981SOL    HW218843   3.818   2.069   0.694 -0.5144  0.1919  0.1109
 5982SOL     OW18844   5.890   3.614   6.158  0.6637  0.1338  0.0680
 5982SOL    HW118845   5.805   3.631   6.108 -1.1134  0.7594  3.0743
 5982SOL    HW218846   5.941   3.541   6.112 -1.0294  0.3263 -2.3252
 5983SOL     OW18847   0.223   1.231   3.786  0.1737  0.2360 -0.6475
 5983SOL    HW118848   0.255   1.293   3.858  0.0167 -0.1253 -0.2648
 5983SOL    HW218849   0.125   1.216   3.796  0.1768  0.0712 -0.8529
 5984SOL     OW18850   1.691   0.085   5.890 -0.2230  0.3369 -0.1545
 5984SOL    HW118851   1.681   0.124   5.798  1.3872  1.7216  0.2097
 5984SOL    HW218852   1.648   0.145   5.957  0.0860  0.2208  0.1554
 5985SOL     OW18853   6.039   2.496   4.720  0.0280 -0.2599 -0.3647
 5985SOL    HW118854   6.038   2.495   4.620 -0.6624 -0.3460 -0.3657
 5985SOL    HW218855   6.043   2.591   4.753  0.3960 -0.2382 -0.4725
 5986SOL     OW18856   4.261   2.754   1.119  0.1451 -0.3355 -0.7453
 5986SOL    HW118857   4.298   2.812   1.192 -0.3931 -0.6032 -0.2459
 5986SOL    HW218858   4.261   2.804   1.033  0.0237  0.2808 -0.3897
 5987SOL     OW18859   4.664   1.288   4.538  0.5769  0.4348  0.3055
 5987SOL    HW118860   4.637   1.201   4.496  2.8012 -0.5583  0.8022
 5987SOL    HW218861   4.751   1.277   4.585  0.1022  2.5446  1.8237
 5988SOL     OW18862   3.223   7.011   5.429  0.1153 -0.3580  0.3857
 5988SOL    HW118863   3.256   7.104   5.447  4.6490 -1.7830  0.6927
 5988SOL    HW218864   3.199   6.967   5.516  0.0867 -0.1525  0.4826
 5989SOL     OW18865   3.524   0.042   6.883 -0.2891  0.3856  0.0880
 5989SOL    HW118866   3.599   0.010   6.941  0.5493 -1.5435 -1.9165
 5989SOL    HW218867   3.558   0.057   6.790 -2.1850  0.5108 -0.6288
 5990SOL     OW18868   3.115   0.576   5.493  0.2871 -0.0033 -0.1081
 5990SOL    HW118869   3.081   0.520   5.569  4.5339 -0.0988  2.0357
 5990SOL    HW218870   3.128   0.519   5.412 -3.0300 -0.1913 -0.6420
 5991SOL     OW18871   4.544   5.329   2.798  0.0514 -0.2724  0.5270
 5991SOL    HW118872   4.637   5.295   2.812  0.4133  0.2665 -0.4523
 5991SOL    HW218873   4.548   5.416   2.748 -1.1022 -2.1938 -3.2577
 5992SOL     OW18874   4.215   0.949   4.534 -0.1850  1.0457  0.8916
 5992SOL    HW118875   4.264   1.025   4.491 -0.8944  1.3219  0.5587
 5992SOL    HW218876   4.131   0.983   4.575 -2.2855  0.0076 -2.1568
 5993SOL     OW18877   3.167   5.356   4.777  0.1126  0.2593 -0.4082
 5993SOL    HW118878   3.154   5.309   4.865  1.8314  1.0822  0.3512
 5993SOL    HW218879   3.265   5.363   4.758 -0.1912  1.3525 -1.6943
 5994SOL     OW18880   0.855   2.765   0.182 -0.2567 -0.0376  0.2605
 5994SOL    HW118881   0.922   2.736   0.112  1.2878  0.1765  1.5871
 5994SOL    HW218882   0.889   2.739   0.272 -1.4867  1.0366  1.0504
 5995SOL     OW18883   5.255   4.076   2.121 -0.2732  0.4269 -0.0424
 5995SOL    HW118884   5.200   4.012   2.068  0.1928  0.2345 -0.3026
 5995SOL    HW218885   5.195   4.135   2.175 -0.7272  0.1882 -0.2793
 5996SOL     OW18886   0.538   0.123   0.508 -0.3387 -0.2997  0.0383
 5996SOL    HW118887   0.561   0.136   0.605  0.2018 -2.0075  0.1594
 5996SOL    HW218888   0.616   0.149   0.451  0.2273 -1.5811  0.2039
 5997SOL     OW18889   6.853   0.047   2.997 -0.0829 -0.2928  0.3158
 5997SOL    HW118890   6.899   0.090   2.919 -0.5885 -0.2745  0.0281
 5997SOL    HW218891   6.857  -0.052   2.987 -2.5919 -0.3190 -1.2076
 5998SOL     OW18892   0.071   4.906   2.413  0.6903  0.2363  0.3750
 5998SOL    HW118893   0.018   4.991   2.413  0.0836 -0.1213  1.5165
 5998SOL    HW218894   0.090   4.879   2.319  0.5203  1.4037 -0.0140
 5999SOL     OW18895   2.231   2.829   2.904  1.3288  0.9942  0.5332
 5999SOL    HW118896   2.290   2.750   2.923 -1.0439 -1.2304 -0.7000
 5999SOL    HW218897   2.234   2.893   2.981  3.5645 -0.1083  1.4486
 6000SOL     OW18898   6.745   2.148   3.929  0.0856  0.1715  0.2069
 6000SOL    HW118899   6.755   2.124   3.832  0.4216  2.2273 -0.3111
 6000SOL    HW218900   6.789   2.236   3.946 -1.1396  0.5004  1.9475
 6001SOL     OW18901   5.398   2.173   5.002  0.2982 -0.3575 -0.0204
 6001SOL    HW118902   5.410   2.090   4.948  0.5089 -0.3715  0.0478
 6001SOL    HW218903   5.416   2.153   5.098  1.0093 -0.0764 -0.0954
 6002SOL     OW18904   1.321   6.567   1.719  0.0768  0.3804 -0.1073
 6002SOL    HW118905   1.269   6.623   1.655 -1.7733  0.9798  1.8239
 6002SOL    HW218906   1.325   6.613   1.808  2.3112 -0.5602  0.3407
 6003SOL     OW18907   4.405   6.504   4.003 -0.1731  0.0583  0.3152
 6003SOL    HW118908   4.384   6.569   3.930 -0.1464  2.3710  2.2709
 6003SOL    HW218909   4.496   6.524   4.040 -0.4670 -0.6315  1.4503
 6004SOL     OW18910   1.572   3.972   1.975 -0.3466 -0.0619 -0.3103
 6004SOL    HW118911   1.618   3.909   1.912  1.0359  0.0087  0.6076
 6004SOL    HW218912   1.511   3.920   2.035 -0.0679 -0.3920 -0.3116
 6005SOL     OW18913   3.184   6.181   5.133  0.2440  0.3250  0.5127
 6005SOL    HW118914   3.284   6.175   5.130  0.1929 -0.3254 -0.0441
 6005SOL    HW218915   3.149   6.116   5.200  0.0440 -1.4598 -1.2540
 6006SOL     OW18916   3.038   6.812   6.479  0.3629 -0.2032  0.1283
 6006SOL    HW118917   2.951   6.783   6.519 -0.3676  1.5450 -0.0922
 6006SOL    HW218918   3.025   6.834   6.382  1.0460  0.0765  0.0948
 6007SOL     OW18919   4.876   3.477   4.423  0.3713 -0.5760 -0.4109
 6007SOL    HW118920   4.872   3.412   4.499  0.4174 -0.6230 -0.4485
 6007SOL    HW218921   4.784   3.508   4.401  0.2543 -1.2704 -0.9455
 6008SOL     OW18922   5.392   3.061   3.207  0.4791  0.5324 -0.1715
 6008SOL    HW118923   5.479   3.112   3.211  1.6999 -1.5071  0.7376
 6008SOL    HW218924   5.347   3.067   3.296 -0.0760  1.1495 -0.4862
 6009SOL     OW18925   3.113   2.420   5.556  0.0957  0.3998 -0.0074
 6009SOL    HW118926   3.016   2.439   5.541  0.1689 -0.9276 -2.9370
 6009SOL    HW218927   3.168   2.495   5.520  0.1867  0.9262  1.2010
 6010SOL     OW18928   1.281   5.062   3.565  0.4294 -0.8135  0.3823
 6010SOL    HW118929   1.300   5.081   3.469 -0.9991  0.7141  0.3583
 6010SOL    HW218930   1.225   5.135   3.603  0.7884 -1.4937  2.3423
 6011SOL     OW18931   5.647   3.776   2.156  0.3011  0.2762  0.2843
 6011SOL    HW118932   5.597   3.762   2.242  0.0085 -0.0880  0.0570
 6011SOL    HW218933   5.609   3.717   2.085  0.6636  0.4395 -0.0507
 6012SOL     OW18934   3.616   2.242   0.367  0.7537  0.1288 -0.0139
 6012SOL    HW118935   3.676   2.311   0.328 -0.0578  0.0418 -1.4745
 6012SOL    HW218936   3.564   2.282   0.443  1.3226  0.7099  0.0740
 6013SOL     OW18937   5.594   2.584   4.476  0.2980 -0.0549 -0.0830
 6013SOL    HW118938   5.502   2.551   4.498  0.7670 -1.0034  0.5708
 6013SOL    HW218939   5.653   2.505   4.455  0.6369  0.6337 -1.8194
 6014SOL     OW18940   0.050   2.294   1.199 -0.2991  0.0715  0.2795
 6014SOL    HW118941   0.000   2.362   1.146  2.9457 -0.1800 -3.5500
 6014SOL    HW218942  -0.000   2.207   1.198 -1.3911  0.6977 -0.4566
 6015SOL     OW18943   4.925   0.173   4.978 -0.3449 -0.0033  0.4094
 6015SOL    HW118944   4.960   0.085   5.009 -2.3940 -0.1008  2.7531
 6015SOL    HW218945   4.836   0.160   4.933 -0.4872  0.7972  0.4369
 6016SOL     OW18946   7.017   0.194   5.940  0.2527 -0.0458 -0.2222
 6016SOL    HW118947   6.980   0.154   6.025 -2.3731 -0.3015 -1.3964
 6016SOL    HW218948   7.103   0.149   5.918 -0.0417 -1.4407  1.2249
 6017SOL     OW18949   0.078   3.931   0.743  0.2130 -0.0394 -0.1289
 6017SOL    HW118950   0.111   3.928   0.649  1.7245 -0.3962  0.3691
 6017SOL    HW218951   0.070   3.837   0.778 -0.7667  0.0732 -0.0373
 6018SOL     OW18952   2.777   4.458   0.523 -0.4982 -0.2246 -0.0087
 6018SOL    HW118953   2.839   4.424   0.593 -0.5833  0.5753  0.4730
 6018SOL    HW218954   2.828   4.478   0.440  0.4090  2.7395  1.1240
 6019SOL     OW18955   5.859   0.178   3.592  0.2150  0.7802  0.0402
 6019SOL    HW118956   5.786   0.226   3.641 -0.3716  0.2139 -0.2664
 6019SOL    HW218957   5.853   0.080   3.612  1.0083  0.7539  0.1588
 6020SOL     OW18958   2.580   5.867   3.447  0.0196 -0.1911  0.0605
 6020SOL    HW118959   2.567   5.833   3.540 -0.0467  0.2222  0.2030
 6020SOL    HW218960   2.498   5.848   3.393 -0.5240  0.8921  0.4933
 6021SOL     OW18961   3.587   6.749   2.287  0.3692 -0.0438 -0.4344
 6021SOL    HW118962   3.643   6.827   2.312 -1.5686  1.0278  0.8651
 6021SOL    HW218963   3.618   6.712   2.199  4.2170 -0.7374  1.0150
 6022SOL     OW18964   3.481   2.025   5.702 -0.1296 -0.0849  0.2501
 6022SOL    HW118965   3.438   1.935   5.690  0.0482 -0.3546  1.5372
 6022SOL    HW218966   3.414   2.089   5.738  0.3136 -0.3026  1.5062
 6023SOL     OW18967   1.751   2.864   1.812 -0.1138 -0.1573 -0.5313
 6023SOL    HW118968   1.848   2.842   1.798  0.0555  0.0839  0.2227
 6023SOL    HW218969   1.738   2.963   1.813 -0.4329 -0.1897 -1.0133
 6024SOL     OW18970   0.158   4.373   0.127  0.3853  0.2058 -0.0330
 6024SOL    HW118971   0.110   4.309   0.067 -1.0544  0.4546  0.8046
 6024SOL    HW218972   0.094   4.443   0.158  1.6003  1.2562  0.1863
 6025SOL     OW18973   3.467   1.143   3.581  0.1251  0.1067  0.5360
 6025SOL    HW118974   3.407   1.077   3.536 -1.6093  0.3791  2.3374
 6025SOL    HW218975   3.428   1.235   3.570 -0.5483  0.1465  2.7876
 6026SOL     OW18976   0.461   4.669   4.867  0.1194 -0.1279  0.1574
 6026SOL    HW118977   0.511   4.679   4.781 -0.0521 -0.4238  0.0184
 6026SOL    HW218978   0.397   4.745   4.877 -0.1645 -0.3169 -0.1890
 6027SOL     OW18979   2.888   3.813   1.292 -0.2967 -0.0682 -0.2673
 6027SOL    HW118980   2.870   3.743   1.360 -0.5969 -0.0395 -0.3148
 6027SOL    HW218981   2.890   3.903   1.336  0.6482 -0.1533 -0.1154
 6028SOL     OW18982   1.049   4.384   4.946 -0.2673  0.0414  0.1921
 6028SOL    HW118983   1.042   4.286   4.930  1.2790 -0.1291  0.4297
 6028SOL    HW218984   1.140   4.407   4.979 -0.8616  1.4547  0.9854
 6029SOL     OW18985   0.370   5.752   2.431 -0.5100  0.1748  0.7871
 6029SOL    HW118986   0.363   5.849   2.455 -1.1218  0.0624  1.0889
 6029SOL    HW218987   0.280   5.709   2.440 -0.4488 -0.2018 -0.3049
 6030SOL     OW18988   1.077   6.225   2.454 -0.1707 -0.5279 -0.1307
 6030SOL    HW118989   1.175   6.224   2.474 -0.2328 -0.9519  0.1643
 6030SOL    HW218990   1.063   6.224   2.355  0.1329  1.1572 -0.2127
 6031SOL     OW18991   4.497   2.173   3.764  0.0586  0.0001  0.1662
 6031SOL    HW118992   4.398   2.169   3.751 -0.0122  0.2080  0.6427
 6031SOL    HW218993   4.542   2.116   3.695 -0.1410  3.3360 -3.0098
 6032SOL     OW18994   0.230   4.721   1.363  0.5742  0.2697 -0.1736
 6032SOL    HW118995   0.213   4.624   1.379  1.2596 -0.3605 -2.7500
 6032SOL    HW218996   0.323   4.743   1.392 -0.3193  0.7802  2.5521
 6033SOL     OW18997   6.830   6.604   4.465 -0.3385  0.0355  0.2631
 6033SOL    HW118998   6.844   6.653   4.379  0.4216 -0.8827 -0.1579
 6033SOL    HW218999   6.788   6.665   4.532 -0.3236  0.9586 -0.5453
 6034SOL     OW19000   3.391   6.021   5.322  0.1630 -0.0347  0.5022
 6034SOL    HW119001   3.432   5.931   5.337  0.3535  0.1734  1.2878
 6034SOL    HW219002   3.446   6.072   5.256  1.4767  0.4204  1.9010
 6035SOL     OW19003   4.252   6.297   4.100  0.0142  0.4372  0.6544
 6035SOL    HW119004   4.309   6.369   4.061 -0.7703  0.7559  0.0428
 6035SOL    HW219005   4.173   6.281   4.040  1.2387 -2.4414 -0.3992
 6036SOL     OW19006   4.541   6.538   6.812 -0.5866  0.0360  0.0456
 6036SOL    HW119007   4.611   6.588   6.760 -1.5146  1.1097 -0.2114
 6036SOL    HW219008   4.583   6.459   6.857  0.3165 -0.8313 -2.1439
 6037SOL     OW19009   4.876   3.730   3.216 -0.3746  0.1095 -0.0863
 6037SOL    HW119010   4.879   3.747   3.315  1.7855  0.1171 -0.1031
 6037SOL    HW219011   4.841   3.811   3.170 -0.8180  0.3374  0.6361
 6038SOL     OW19012   7.004   1.547   6.026  0.2065 -0.0682 -0.0574
 6038SOL    HW119013   7.046   1.635   6.002  0.4967 -0.3471 -0.6044
 6038SOL    HW219014   6.906   1.551   6.007  0.1919  0.1844  0.0615
 6039SOL     OW19015   3.327   3.356   2.459 -0.0312 -0.2843  0.2477
 6039SOL    HW119016   3.420   3.326   2.437  0.0348  0.4010 -0.4543
 6039SOL    HW219017   3.313   3.352   2.558  0.9527  0.1754  0.4175
 6040SOL     OW19018   1.190   0.402   2.583 -0.1730 -0.0117  0.6399
 6040SOL    HW119019   1.144   0.448   2.659 -1.8167 -1.7768  0.7959
 6040SOL    HW219020   1.171   0.304   2.587  2.0246 -0.5363 -0.4819
 6041SOL     OW19021   1.823   3.387   6.332  0.0847 -0.1125  0.3761
 6041SOL    HW119022   1.830   3.312   6.266 -0.2894 -0.0889  0.3052
 6041SOL    HW219023   1.832   3.474   6.284  1.2612 -0.1187  0.5599
 6042SOL     OW19024   6.295   5.604   4.234 -0.2475  0.1115  0.6246
 6042SOL    HW119025   6.270   5.574   4.326 -0.9563  0.3641  0.5177
 6042SOL    HW219026   6.279   5.530   4.169  0.5915 -0.1893  0.7459
 6043SOL     OW19027   0.542   4.645   4.586  0.4491 -0.3424  0.1509
 6043SOL    HW119028   0.507   4.557   4.555 -0.2313  0.1290 -0.4353
 6043SOL    HW219029   0.484   4.718   4.552  0.1826  0.2639  1.7978
 6044SOL     OW19030   1.401   0.525   6.230  0.7076  0.3844 -0.4536
 6044SOL    HW119031   1.494   0.559   6.247  1.4866 -1.3186 -1.0253
 6044SOL    HW219032   1.404   0.458   6.156 -0.6055 -1.4033  1.0334
 6045SOL     OW19033   5.859   4.213   1.742 -0.1750 -0.4071 -0.4066
 6045SOL    HW119034   5.795   4.147   1.782  0.7432 -0.8751  0.3236
 6045SOL    HW219035   5.953   4.186   1.765  0.1996  1.4130  0.3100
 6046SOL     OW19036   2.589   3.941   1.039 -0.2763 -0.1117  0.1718
 6046SOL    HW119037   2.621   4.001   1.113 -3.2045  1.3022  0.4535
 6046SOL    HW219038   2.560   3.853   1.079  0.7875 -0.4363  0.2595
 6047SOL     OW19039   1.084   6.217   4.645 -0.1943  1.2302  0.7247
 6047SOL    HW119040   1.032   6.192   4.563  0.0819  0.8627  0.6604
 6047SOL    HW219041   1.172   6.170   4.644 -1.0910 -0.6219  2.3442
 6048SOL     OW19042   4.174   6.193   2.504  0.0357  0.3273  0.0959
 6048SOL    HW119043   4.137   6.210   2.412 -0.3775 -0.0702  0.1844
 6048SOL    HW219044   4.274   6.191   2.499  0.0220  0.4762 -0.3167
 6049SOL     OW19045   6.633   6.833   1.870  0.2473  0.0511  0.4529
 6049SOL    HW119046   6.670   6.819   1.778 -0.8794 -0.1758  0.0205
 6049SOL    HW219047   6.705   6.814   1.937  1.5046  1.5553 -0.3867
 6050SOL     OW19048   5.834   6.664   3.320  0.0246 -0.3779 -0.2460
 6050SOL    HW119049   5.925   6.623   3.313 -0.0350 -0.4105 -0.8783
 6050SOL    HW219050   5.792   6.637   3.406  1.4121  1.2834  1.0131
 6051SOL     OW19051   2.216   2.100   3.134  0.6667  0.8680 -0.4052
 6051SOL    HW119052   2.123   2.064   3.145  0.0821  2.0852 -1.0946
 6051SOL    HW219053   2.267   2.041   3.071  0.9110 -0.6997  1.1952
 6052SOL     OW19054   1.549   1.806   6.302 -0.4749  0.6528  0.2055
 6052SOL    HW119055   1.452   1.780   6.310  0.4988 -3.4837  1.0483
 6052SOL    HW219056   1.592   1.749   6.232  1.7017  1.3449  0.9153
 6053SOL     OW19057   2.038   1.053   4.144 -0.3134  0.2982  0.0265
 6053SOL    HW119058   2.122   1.097   4.176 -1.2703  1.4341  1.1133
 6053SOL    HW219059   1.979   1.033   4.222 -0.7508 -1.1803 -0.6445
 6054SOL     OW19060   0.951   4.620   5.096 -0.0739 -0.2378 -0.3695
 6054SOL    HW119061   0.937   4.697   5.034 -1.2437 -0.9748 -1.0560
 6054SOL    HW219062   0.996   4.545   5.046  0.5783 -0.2057  0.1537
 6055SOL     OW19063   5.354   6.985   1.393 -0.5429 -0.1585  0.1815
 6055SOL    HW119064   5.276   6.923   1.381 -1.6102  1.2080 -0.1748
 6055SOL    HW219065   5.399   6.999   1.305 -0.2713 -0.4475  0.2715
 6056SOL     OW19066   5.358   2.443   6.073 -0.1795  0.1872  0.4290
 6056SOL    HW119067   5.370   2.481   6.165  1.0352  1.3936 -0.1953
 6056SOL    HW219068   5.263   2.454   6.044 -0.4181  0.4024  1.2692
 6057SOL     OW19069   3.813   0.838   5.666 -0.2216  0.0094 -0.2042
 6057SOL    HW119070   3.738   0.781   5.699  0.3471  0.4172  1.9360
 6057SOL    HW219071   3.886   0.780   5.630 -0.0341 -0.6247  1.1138
 6058SOL     OW19072   4.708   1.555   1.210  0.0236 -0.0670  0.1446
 6058SOL    HW119073   4.667   1.528   1.123 -0.8218 -0.5316  0.6709
 6058SOL    HW219074   4.641   1.605   1.265  0.9987  1.4977 -0.0413
 6059SOL     OW19075   5.831   0.671   6.598 -0.4682  0.3587 -0.0831
 6059SOL    HW119076   5.919   0.627   6.619  0.0661  2.0075  1.2974
 6059SOL    HW219077   5.767   0.602   6.564  0.7527 -1.2334  0.7223
 6060SOL     OW19078   3.947   6.026   0.607 -0.0418 -0.3136 -0.0180
 6060SOL    HW119079   3.884   5.960   0.648  1.1382 -0.6504  1.3487
 6060SOL    HW219080   3.955   6.007   0.509 -1.3499 -0.8204 -0.0534
 6061SOL     OW19081   1.859   1.586   6.410 -0.4757  0.0910  0.1988
 6061SOL    HW119082   1.856   1.575   6.509  0.2546  1.5070  0.4156
 6061SOL    HW219083   1.868   1.497   6.366  0.2302 -0.4802  1.4583
 6062SOL     OW19084   1.276   6.963   3.321 -0.0360 -0.2572 -0.2849
 6062SOL    HW119085   1.325   6.911   3.251 -0.6600  1.0071 -1.7360
 6062SOL    HW219086   1.284   7.060   3.302  0.2546  0.1711  1.7859
 6063SOL     OW19087   5.937   6.468   5.925  0.6110 -0.2013 -0.0777
 6063SOL    HW119088   5.882   6.485   6.007 -0.6463  1.4027 -1.1759
 6063SOL    HW219089   5.894   6.395   5.871  0.5140 -0.1368 -0.0886
 6064SOL     OW19090   1.467   0.409   2.222  0.5669  0.0372  0.2444
 6064SOL    HW119091   1.469   0.316   2.259  0.0645  0.1570  0.5807
 6064SOL    HW219092   1.432   0.472   2.292  1.0808  0.5098  0.0821
 6065SOL     OW19093   3.357   5.310   1.336  0.1645 -0.4145 -0.0454
 6065SOL    HW119094   3.257   5.317   1.335  0.2176  0.8347  1.4416
 6065SOL    HW219095   3.383   5.218   1.365 -0.5470 -0.5606  0.1585
 6066SOL     OW19096   4.424   1.115   4.802 -0.5676 -0.5324 -0.2064
 6066SOL    HW119097   4.465   1.054   4.734  0.3709 -2.7203  2.1508
 6066SOL    HW219098   4.355   1.065   4.855 -1.9318  1.3632 -0.0690
 6067SOL     OW19099   4.760   6.875   6.792  0.4453  0.4858 -0.4819
 6067SOL    HW119100   4.835   6.812   6.812  0.6611  1.1605  0.9691
 6067SOL    HW219101   4.788   6.969   6.813 -0.4108  0.8871 -1.0645
 6068SOL     OW19102   5.450   1.132   4.956 -0.1851  0.1269  0.4184
 6068SOL    HW119103   5.413   1.119   5.048 -0.1053  1.8759  0.7246
 6068SOL    HW219104   5.389   1.089   4.889 -1.4776  0.8376  1.1118
 6069SOL     OW19105   1.627   5.647   2.826  0.1027  0.2481  0.3088
 6069SOL    HW119106   1.688   5.568   2.832  0.7325  0.7257  0.2442
 6069SOL    HW219107   1.624   5.679   2.731 -2.4821 -1.5027 -0.3211
 6070SOL     OW19108   5.057   3.409   1.008 -0.5066  0.4840  0.0673
 6070SOL    HW119109   5.090   3.349   1.081 -0.4654  1.0316  0.5090
 6070SOL    HW219110   5.117   3.488   1.000 -0.2352  0.1875 -0.9005
 6071SOL     OW19111   6.260   0.530   2.491  0.6418  0.3710 -0.0670
 6071SOL    HW119112   6.354   0.545   2.461  0.8586  1.1277  0.9708
 6071SOL    HW219113   6.254   0.442   2.538  1.4215  1.3911  2.0918
 6072SOL     OW19114   4.894   1.330   1.448  0.5617 -0.0258  0.3567
 6072SOL    HW119115   4.942   1.392   1.509  1.0992  0.3338 -0.4153
 6072SOL    HW219116   4.796   1.332   1.469  0.6344  0.7263  0.6583
 6073SOL     OW19117   6.082   1.008   5.858  0.0833  0.0289 -0.6489
 6073SOL    HW119118   6.133   1.094   5.853 -0.0797  0.0664 -1.9149
 6073SOL    HW219119   6.026   1.008   5.941  1.7118  0.2080  0.5154
 6074SOL     OW19120   1.181   1.388   4.512  0.0768 -0.5067 -0.1658
 6074SOL    HW119121   1.195   1.308   4.570  0.9771 -1.2009 -1.2809
 6074SOL    HW219122   1.109   1.445   4.550 -0.2642 -1.6143  0.9119
 6075SOL     OW19123   3.652   4.368   6.071  0.3000  0.0997 -0.2278
 6075SOL    HW119124   3.744   4.406   6.067  0.8711 -1.0179  1.3187
 6075SOL    HW219125   3.614   4.361   5.979  0.7698  2.8504 -0.7104
 6076SOL     OW19126   2.650   1.642   4.101 -0.3271  0.1568  0.0369
 6076SOL    HW119127   2.676   1.712   4.036 -1.5995  0.2883 -0.3639
 6076SOL    HW219128   2.705   1.559   4.086 -0.3231  0.3265 -0.9262
 6077SOL     OW19129   5.668   5.363   5.100  0.8599 -0.2400  0.1469
 6077SOL    HW119130   5.739   5.300   5.133  0.4926 -1.8511 -1.9292
 6077SOL    HW219131   5.693   5.396   5.009  1.5680  3.5932  1.5319
 6078SOL     OW19132   2.467   4.979   4.172 -0.0888  0.3260  0.1550
 6078SOL    HW119133   2.434   4.962   4.265  0.5405 -0.5174  0.2413
 6078SOL    HW219134   2.563   4.953   4.165 -0.6063 -1.4644 -1.2022
 6079SOL     OW19135   2.931   2.822   5.793 -0.0605 -0.3491 -0.6221
 6079SOL    HW119136   2.888   2.845   5.880 -1.0410  0.0506 -1.2024
 6079SOL    HW219137   3.001   2.890   5.771 -1.2225  0.7071 -1.1209
 6080SOL     OW19138   5.927   3.903   4.252  0.2116 -0.1615  0.5225
 6080SOL    HW119139   5.843   3.942   4.289  0.6982  0.9400  0.5157
 6080SOL    HW219140   5.976   3.973   4.200  1.6054 -0.4848  1.3466
 6081SOL     OW19141   0.642   4.343   2.968  0.0252  0.1864 -0.1429
 6081SOL    HW119142   0.554   4.386   2.990  0.7092  0.4642  2.4095
 6081SOL    HW219143   0.681   4.304   3.052  1.0568 -2.4432 -1.7104
 6082SOL     OW19144   4.666   1.686   5.005 -0.2547  0.7646  0.5571
 6082SOL    HW119145   4.607   1.620   5.051 -0.8658 -0.8353 -2.3112
 6082SOL    HW219146   4.611   1.765   4.978 -0.2089  1.0394  1.2423
 6083SOL     OW19147   1.825   0.057   0.823 -0.2239  0.1465 -0.2698
 6083SOL    HW119148   1.890   0.095   0.889 -0.3125  0.3121 -0.2786
 6083SOL    HW219149   1.830   0.109   0.738  0.8648 -0.8940 -0.8810
 6084SOL     OW19150   6.455   6.549   4.213 -0.4858  0.0387 -0.1060
 6084SOL    HW119151   6.505   6.634   4.230 -0.5543  0.2705 -1.0036
 6084SOL    HW219152   6.518   6.478   4.182 -0.6895  0.3615 -1.3426
 6085SOL     OW19153   5.548   0.863   2.343 -0.5724 -0.1222  0.1520
 6085SOL    HW119154   5.570   0.937   2.407 -0.3213  0.2576 -0.3667
 6085SOL    HW219155   5.620   0.794   2.345  0.1283  0.5608 -0.7087
 6086SOL     OW19156   2.444   2.015   3.649  0.2668 -0.3148  0.4724
 6086SOL    HW119157   2.438   2.011   3.550  0.5560 -0.7817  0.4675
 6086SOL    HW219158   2.540   2.030   3.676 -0.0678  1.7274  0.6449
 6087SOL     OW19159   4.094   6.025   1.061 -0.1540  0.0432 -0.2857
 6087SOL    HW119160   4.136   6.014   0.971 -0.7149  0.7044 -0.6334
 6087SOL    HW219161   4.152   5.980   1.130  1.6859  1.7681 -0.6052
 6088SOL     OW19162   1.862   1.231   4.843 -0.3434 -0.4203 -0.1039
 6088SOL    HW119163   1.844   1.233   4.941  0.4937 -2.3436  0.1393
 6088SOL    HW219164   1.952   1.272   4.825 -0.5249 -0.0097 -0.0771
 6089SOL     OW19165   6.009   2.562   1.484  0.3342 -0.5768  0.3360
 6089SOL    HW119166   5.941   2.594   1.418  1.6695  0.7843 -0.4664
 6089SOL    HW219167   6.082   2.514   1.436  0.9274 -0.2766  0.9215
 6090SOL     OW19168   5.762   6.587   5.415 -0.6312 -0.7335 -0.4336
 6090SOL    HW119169   5.724   6.573   5.324 -1.5234 -0.6493 -0.0806
 6090SOL    HW219170   5.688   6.597   5.481 -0.0030  0.5472  0.1066
 6091SOL     OW19171   5.787   3.327   3.878  0.0505  0.2265 -0.2723
 6091SOL    HW119172   5.691   3.340   3.901 -0.1320 -0.8436 -0.3873
 6091SOL    HW219173   5.795   3.302   3.781  0.3981 -0.2207 -0.1312
 6092SOL     OW19174   5.505   3.032   0.321 -0.1545  0.0566 -0.1801
 6092SOL    HW119175   5.540   3.058   0.231  0.0607  0.2465 -0.0441
 6092SOL    HW219176   5.580   3.029   0.386 -0.0437 -1.7334 -0.3627
 6093SOL     OW19177   0.442   5.111   0.427  0.0233  0.7784  0.0772
 6093SOL    HW119178   0.364   5.127   0.487 -0.6602 -1.7618 -0.0044
 6093SOL    HW219179   0.419   5.141   0.334 -0.8573  0.1818  0.0841
 6094SOL     OW19180   5.601   1.164   2.284  0.0317 -0.1382  0.0592
 6094SOL    HW119181   5.663   1.144   2.360 -0.6138 -0.2410  0.5637
 6094SOL    HW219182   5.515   1.200   2.319 -0.0331  0.4391 -0.6650
 6095SOL     OW19183   0.450   3.428   5.933  0.1461  0.2565 -0.1027
 6095SOL    HW119184   0.544   3.396   5.920  0.6366  1.8607 -0.7341
 6095SOL    HW219185   0.442   3.470   6.023 -0.5477 -1.7200  0.8040
 6096SOL     OW19186   5.491   2.116   1.508 -0.0352 -0.0092 -0.1214
 6096SOL    HW119187   5.487   2.156   1.417 -0.1555 -2.0609 -1.0831
 6096SOL    HW219188   5.586   2.108   1.537  0.0017  0.6828 -0.0401
 6097SOL     OW19189   2.879   0.545   4.650 -0.0509 -0.3010 -0.1653
 6097SOL    HW119190   2.897   0.505   4.561  0.5614  0.2291 -0.2923
 6097SOL    HW219191   2.836   0.634   4.639  0.4861 -0.0072  0.0426
 6098SOL     OW19192   0.811   1.104   1.201  0.1570 -0.4662 -0.8933
 6098SOL    HW119193   0.772   1.063   1.118  0.5452 -0.4413 -1.0913
 6098SOL    HW219194   0.768   1.063   1.282 -1.6981  0.9245 -1.1016
 6099SOL     OW19195   3.764   5.498   1.528 -0.1432  0.3283 -0.4763
 6099SOL    HW119196   3.673   5.539   1.524 -1.4078 -1.7466  2.4955
 6099SOL    HW219197   3.770   5.425   1.460  0.2030  1.9277 -2.2227
 6100SOL     OW19198   5.482   1.809   1.918 -0.3642  0.5534  0.0249
 6100SOL    HW119199   5.508   1.719   1.952  0.1717  0.9903  0.7802
 6100SOL    HW219200   5.511   1.818   1.822 -0.4574 -0.0806 -0.0677
 6101SOL     OW19201   4.907   6.571   5.016  0.0965  0.1434 -0.4310
 6101SOL    HW119202   4.857   6.543   4.933  0.4632  0.6231 -0.8206
 6101SOL    HW219203   4.956   6.492   5.053 -0.9549 -0.3491 -0.0228
 6102SOL     OW19204   2.534   6.300   3.646 -0.2815  0.1321 -0.3281
 6102SOL    HW119205   2.544   6.310   3.745  1.1431  0.8706 -0.5180
 6102SOL    HW219206   2.611   6.344   3.600 -2.3602  2.3685 -1.9082
 6103SOL     OW19207   6.382   2.727   3.307  0.2628  0.3783 -0.5777
 6103SOL    HW119208   6.435   2.647   3.335  0.2607  0.0960 -1.3478
 6103SOL    HW219209   6.293   2.726   3.353  0.7171  0.5790  0.3242
 6104SOL     OW19210   1.658   1.844   2.820  0.0166  0.4884  0.4639
 6104SOL    HW119211   1.739   1.860   2.876 -1.2487  0.2128  2.4354
 6104SOL    HW219212   1.682   1.783   2.744  1.5752  0.1828  1.1654
 6105SOL     OW19213   1.091   3.556   1.620 -0.1200 -0.0688  0.2639
 6105SOL    HW119214   1.018   3.519   1.562 -0.0170  0.1798 -0.0274
 6105SOL    HW219215   1.077   3.654   1.634 -0.3974 -0.2136  1.0445
 6106SOL     OW19216   1.691   4.723   4.209  0.3939 -0.1962  0.0123
 6106SOL    HW119217   1.745   4.776   4.144  0.3934 -1.0226 -0.6787
 6106SOL    HW219218   1.741   4.717   4.296  1.1458 -0.4539 -0.4284
 6107SOL     OW19219   2.180   3.892   4.811  0.0885 -0.0512 -0.3605
 6107SOL    HW119220   2.164   3.934   4.722  0.2842 -1.3891 -1.0544
 6107SOL    HW219221   2.231   3.955   4.870  2.1144 -0.0212 -2.0298
 6108SOL     OW19222   6.560   1.865   6.293 -0.5244  0.0969 -0.1557
 6108SOL    HW119223   6.515   1.940   6.342 -1.5449 -1.5277  1.5576
 6108SOL    HW219224   6.500   1.833   6.220  0.0198  1.0818 -1.0482
 6109SOL     OW19225   0.313   4.089   3.791 -0.0095 -0.3365  0.5221
 6109SOL    HW119226   0.395   4.121   3.839  0.8421 -0.2252 -0.9520
 6109SOL    HW219227   0.334   4.004   3.743 -0.6982 -0.1799 -0.0664
 6110SOL     OW19228   1.224   1.842   2.347 -0.0757  0.2914  0.4856
 6110SOL    HW119229   1.252   1.862   2.253 -0.1032  0.0104  0.4176
 6110SOL    HW219230   1.131   1.804   2.348 -0.2986  0.8259  0.6754
 6111SOL     OW19231   6.082   4.470   5.418  0.1054  0.9914 -0.3801
 6111SOL    HW119232   6.028   4.498   5.339  2.1648 -1.0097 -2.6503
 6111SOL    HW219233   6.179   4.474   5.395  0.7093 -1.4644  1.3905
 6112SOL     OW19234   1.127   1.254   3.299  0.4225 -0.0688 -0.4756
 6112SOL    HW119235   1.096   1.324   3.363 -0.1710 -0.8376  0.0931
 6112SOL    HW219236   1.048   1.213   3.253  0.5845 -1.7727  0.6880
 6113SOL     OW19237   2.428   4.504   6.074  0.2425 -0.1287  0.3111
 6113SOL    HW119238   2.408   4.408   6.093 -2.2542 -0.2443 -2.2457
 6113SOL    HW219239   2.390   4.561   6.147  0.2622 -0.9633  0.9980
 6114SOL     OW19240   4.278   3.828   1.461 -0.0123  0.2243  0.7065
 6114SOL    HW119241   4.329   3.840   1.376  0.0675 -1.4326  0.4816
 6114SOL    HW219242   4.276   3.914   1.511 -1.0599  1.5927 -1.5019
 6115SOL     OW19243   1.188   5.717   3.374 -0.1207 -0.0213 -0.1316
 6115SOL    HW119244   1.169   5.656   3.451  0.0226  0.1419  0.0321
 6115SOL    HW219245   1.144   5.681   3.292 -0.1349 -0.2840 -0.0095
 6116SOL     OW19246   4.074   2.516   1.091 -0.8148 -0.2256  0.2693
 6116SOL    HW119247   4.030   2.492   1.177 -0.8554 -3.0960 -0.4643
 6116SOL    HW219248   4.163   2.557   1.110 -0.1930 -2.1003  1.7087
 6117SOL     OW19249   4.107   5.150   4.795 -0.5450 -0.0693 -0.7632
 6117SOL    HW119250   4.038   5.092   4.838  0.5165  0.3740  1.6981
 6117SOL    HW219251   4.111   5.130   4.697 -2.1576 -2.0994 -0.4802
 6118SOL     OW19252   6.972   1.161   3.470 -0.3839 -0.6250 -0.3781
 6118SOL    HW119253   6.995   1.254   3.444 -1.7509  0.2841  1.3712
 6118SOL    HW219254   7.055   1.106   3.476  0.5881  0.7875 -0.3670
 6119SOL     OW19255   6.411   4.725   5.552 -0.6914  0.0826  0.6341
 6119SOL    HW119256   6.395   4.681   5.464 -0.2410  0.0422  0.5695
 6119SOL    HW219257   6.381   4.664   5.626  1.9691 -1.3401  0.6497
 6120SOL     OW19258   2.933   1.846   0.653  0.0933  0.1315 -0.2831
 6120SOL    HW119259   2.981   1.835   0.740  1.2784  1.4560 -0.7330
 6120SOL    HW219260   2.975   1.921   0.601  0.0308 -1.2118 -2.4040
 6121SOL     OW19261   0.175   2.940   4.535 -0.2977  0.9383  0.0564
 6121SOL    HW119262   0.202   2.977   4.446  0.2839 -1.2982 -0.7541
 6121SOL    HW219263   0.084   2.901   4.528  0.5672 -1.1562 -0.2106
 6122SOL     OW19264   2.892   5.499   3.902 -0.2481  0.1135  0.6759
 6122SOL    HW119265   2.914   5.417   3.849 -0.0645  0.1105  0.7568
 6122SOL    HW219266   2.976   5.549   3.923 -0.5010  1.1326 -0.6761
 6123SOL     OW19267   6.936   2.998   1.662 -0.4085  0.2145  0.4045
 6123SOL    HW119268   6.905   2.974   1.753 -0.4015 -0.5761  0.2044
 6123SOL    HW219269   7.036   2.998   1.660 -0.4075  0.3630  0.4266
 6124SOL     OW19270   0.989   6.850   5.386 -0.5906 -0.1029  0.5797
 6124SOL    HW119271   0.921   6.872   5.456 -0.8151  0.9813  0.0417
 6124SOL    HW219272   1.076   6.895   5.408 -1.3794  2.4688 -1.1393
 6125SOL     OW19273   0.370   6.099   2.190  0.0174  0.3891 -0.2253
 6125SOL    HW119274   0.427   6.018   2.177 -0.2928 -0.2605  2.0696
 6125SOL    HW219275   0.422   6.170   2.236 -0.4318  0.5721  0.0096
 6126SOL     OW19276   2.322   6.208   2.498 -0.2016  0.7473 -0.0513
 6126SOL    HW119277   2.231   6.218   2.459 -0.2023  0.4807 -0.1189
 6126SOL    HW219278   2.343   6.288   2.554  0.2255  1.6462 -1.4622
 6127SOL     OW19279   3.155   4.699   0.837 -0.4228 -0.0670 -0.4500
 6127SOL    HW119280   3.110   4.669   0.752 -0.1645 -1.7487 -0.0417
 6127SOL    HW219281   3.085   4.729   0.902 -0.7073  0.2392 -0.8883
 6128SOL     OW19282   6.575   3.724   1.157 -0.2990 -0.1064  0.6557
 6128SOL    HW119283   6.590   3.724   1.256  0.5979 -2.1624  0.5597
 6128SOL    HW219284   6.478   3.709   1.138 -0.2397 -1.3537  1.2450
 6129SOL     OW19285   6.375   2.423   2.899 -0.2111 -0.3967 -0.7442
 6129SOL    HW119286   6.395   2.502   2.957 -1.2232 -0.7844  0.1758
 6129SOL    HW219287   6.294   2.376   2.934  1.4426 -2.9708 -0.1244
 6130SOL     OW19288   5.213   4.182   3.261 -0.2502  0.5652  0.6421
 6130SOL    HW119289   5.183   4.109   3.322 -2.2045  2.1295  1.6436
 6130SOL    HW219290   5.201   4.271   3.305  1.2126  1.5774 -0.8722
 6131SOL     OW19291   6.382   2.187   4.289  0.1898  0.0755 -0.1850
 6131SOL    HW119292   6.356   2.140   4.373 -2.9632  1.8056 -0.0477
 6131SOL    HW219293   6.354   2.133   4.210  0.5029 -0.2183 -0.0977
 6132SOL     OW19294   0.779   3.465   6.167  0.5181 -0.9144  0.2525
 6132SOL    HW119295   0.783   3.372   6.132 -1.4470 -1.2449  0.7782
 6132SOL    HW219296   0.766   3.529   6.091 -2.3531 -1.5077  0.1144
 6133SOL     OW19297   3.820   6.549   1.422  0.5728 -0.2252  0.1035
 6133SOL    HW119298   3.759   6.621   1.456  1.5565  0.3070  0.7652
 6133SOL    HW219299   3.820   6.551   1.322 -0.7435 -0.4626  0.0680
 6134SOL     OW19300   4.340   5.232   6.898  0.0671 -0.3006 -0.2940
 6134SOL    HW119301   4.304   5.156   6.953 -0.6395 -0.7489 -1.3568
 6134SOL    HW219302   4.327   5.318   6.948  1.3137 -0.8860  1.1413
 6135SOL     OW19303   6.253   5.495   3.334 -0.1912 -0.1269  0.6266
 6135SOL    HW119304   6.318   5.431   3.374  0.9875  0.1586 -0.7169
 6135SOL    HW219305   6.302   5.576   3.301 -1.0612 -0.2827 -1.2293
 6136SOL     OW19306   1.659   2.496   0.956  0.1326  0.1791  0.2765
 6136SOL    HW119307   1.625   2.546   0.876 -0.5345 -0.9039 -0.1566
 6136SOL    HW219308   1.730   2.431   0.927 -0.2720 -0.3786  0.5134
 6137SOL     OW19309   2.771   0.868   0.794 -0.3166  0.1240  0.2791
 6137SOL    HW119310   2.672   0.856   0.786 -0.3876  1.3872 -1.1737
 6137SOL    HW219311   2.792   0.928   0.872 -0.6091 -0.8968  1.1632
 6138SOL     OW19312   4.740   2.840   2.221  0.2926 -0.3626 -0.4770
 6138SOL    HW119313   4.651   2.794   2.212 -0.0701 -0.5761  2.9874
 6138SOL    HW219314   4.733   2.933   2.184 -1.3317 -0.4372 -0.4514
 6139SOL     OW19315   3.404   0.695   2.283  0.2450  0.6302  0.2409
 6139SOL    HW119316   3.311   0.664   2.261  0.2815  1.1915 -0.7744
 6139SOL    HW219317   3.470   0.636   2.237  0.4370 -0.3521  1.7225
 6140SOL     OW19318   2.506   5.079   3.085  0.0511 -0.2954 -1.2214
 6140SOL    HW119319   2.599   5.070   3.121 -0.5312  1.1373  0.8174
 6140SOL    HW219320   2.456   4.994   3.098 -0.1571  0.1659  1.6085
 6141SOL     OW19321   0.152   5.294   5.711 -0.0396 -0.0578  0.1898
 6141SOL    HW119322   0.115   5.356   5.640 -1.4693 -0.5117  0.5019
 6141SOL    HW219323   0.189   5.348   5.786 -1.5431  0.4700  0.5955
 6142SOL     OW19324   5.927   4.288   5.135 -0.4993 -0.0049 -0.1327
 6142SOL    HW119325   5.884   4.262   5.222 -0.4478  0.0654 -0.0867
 6142SOL    HW219326   5.859   4.328   5.074 -0.2833  1.0861  0.3332
 6143SOL     OW19327   0.160   4.482   6.543  0.1057 -0.1262 -0.2646
 6143SOL    HW119328   0.200   4.504   6.455  3.2629  0.7215  1.2493
 6143SOL    HW219329   0.106   4.560   6.576 -1.0951 -0.4557 -1.3748
 6144SOL     OW19330   5.213   4.737   4.342  0.5381 -0.2913  0.0245
 6144SOL    HW119331   5.302   4.735   4.388 -0.2445 -0.9815  1.5825
 6144SOL    HW219332   5.160   4.815   4.374 -0.3711 -1.2940  1.0523
 6145SOL     OW19333   5.604   6.893   4.735  0.3464 -0.4334 -0.1083
 6145SOL    HW119334   5.704   6.898   4.741  0.5157 -0.8568 -1.8863
 6145SOL    HW219335   5.564   6.962   4.795  1.8073  1.7810 -1.5287
 6146SOL     OW19336   5.940   3.445   3.207 -0.2589 -0.0523 -0.6189
 6146SOL    HW119337   5.870   3.489   3.151  0.0656 -0.9056 -1.7238
 6146SOL    HW219338   5.995   3.384   3.150  0.9227  0.0475  0.3814
 6147SOL     OW19339   6.548   3.460   4.222 -0.1816  0.2370  0.1102
 6147SOL    HW119340   6.463   3.411   4.238  0.6280 -0.8978  1.1044
 6147SOL    HW219341   6.618   3.396   4.192  0.1600  1.2702 -1.3840
 6148SOL     OW19342   4.273   5.121   3.894  0.2071 -0.9477  0.3071
 6148SOL    HW119343   4.179   5.126   3.860 -0.5812 -1.3029  2.2994
 6148SOL    HW219344   4.311   5.031   3.872 -0.1924 -1.0810  0.1429
 6149SOL     OW19345   0.003   4.456   5.684 -0.0211 -0.2318  0.0388
 6149SOL    HW119346  -0.033   4.527   5.744 -2.4905 -1.6969  0.4270
 6149SOL    HW219347   0.042   4.382   5.739 -0.4387 -0.6431 -0.2030
 6150SOL     OW19348   5.340   6.904   6.124 -0.1721  0.3980 -0.2479
 6150SOL    HW119349   5.316   6.871   6.215  0.5443  0.0524 -0.1754
 6150SOL    HW219350   5.327   7.003   6.120 -0.6919  0.3466  0.0697
 6151SOL     OW19351   2.298   0.041   4.520  0.5692 -0.5667  0.1917
 6151SOL    HW119352   2.234  -0.007   4.460 -0.5849  0.4282  0.5895
 6151SOL    HW219353   2.255   0.056   4.609  0.9124  1.1161  0.0962
 6152SOL     OW19354   4.708   3.152   5.284 -0.3063 -0.7479  0.5718
 6152SOL    HW119355   4.736   3.076   5.226 -1.2332  0.5221 -1.6887
 6152SOL    HW219356   4.610   3.145   5.303 -0.2394 -0.5326  1.0133
 6153SOL     OW19357   2.750   4.697   6.665  0.5066  0.6480 -0.4675
 6153SOL    HW119358   2.749   4.793   6.691  1.7418  0.7441 -0.7043
 6153SOL    HW219359   2.799   4.687   6.578  1.2534 -0.2874  0.0334
 6154SOL     OW19360   6.167   3.799   4.090 -0.2404  0.4249  0.1119
 6154SOL    HW119361   6.258   3.763   4.067 -1.3179 -2.0284 -0.6644
 6154SOL    HW219362   6.172   3.847   4.177  1.5194 -1.0832  0.9343
 6155SOL     OW19363   2.399   5.243   6.618 -0.1828  0.0302  0.4332
 6155SOL    HW119364   2.308   5.203   6.611 -0.8398  1.5276  0.0652
 6155SOL    HW219365   2.402   5.329   6.567  1.3492  0.1672  0.7001
 6156SOL     OW19366   5.287   0.076   4.527  0.0924 -0.3312 -0.1289
 6156SOL    HW119367   5.267   0.174   4.518  0.4824 -0.2503 -0.1030
 6156SOL    HW219368   5.241   0.027   4.454 -0.4770 -0.1812  0.1206
 6157SOL     OW19369   0.352   0.205   4.453  0.5710  0.1496 -0.2270
 6157SOL    HW119370   0.346   0.167   4.360 -0.8063  2.8698 -1.3871
 6157SOL    HW219371   0.447   0.210   4.481  0.8863 -2.7809 -0.5127
 6158SOL     OW19372   4.854   3.633   6.907 -0.4761  0.6588 -0.6485
 6158SOL    HW119373   4.924   3.574   6.946  1.7592  2.6278 -1.4876
 6158SOL    HW219374   4.826   3.701   6.975 -1.7559 -0.1985 -0.2704
 6159SOL     OW19375   4.135   2.430   5.561  0.7859 -0.1389 -0.6062
 6159SOL    HW119376   4.216   2.417   5.618 -0.0054  0.9437  0.8280
 6159SOL    HW219377   4.145   2.512   5.506  0.8850 -0.3136 -0.8519
 6160SOL     OW19378   5.039   3.751   5.826  0.0188 -0.3361 -0.6190
 6160SOL    HW119379   5.108   3.727   5.895  0.9264  0.4772 -1.2134
 6160SOL    HW219380   5.044   3.686   5.750 -1.3048 -1.5192  0.2594
 6161SOL     OW19381   4.679   1.050   5.547 -0.3262  0.3584  0.4169
 6161SOL    HW119382   4.658   1.094   5.459  2.6581 -0.4614 -0.8059
 6161SOL    HW219383   4.651   0.954   5.543  1.8139 -0.2763 -0.5602
 6162SOL     OW19384   5.100   5.867   3.866 -0.1122 -0.4209  0.0265
 6162SOL    HW119385   5.003   5.844   3.858  0.3921 -3.1206  0.7103
 6162SOL    HW219386   5.130   5.914   3.783 -1.9932  0.5243 -0.1693
 6163SOL     OW19387   0.494   5.128   1.659 -0.3707  0.3365 -0.0971
 6163SOL    HW119388   0.502   5.124   1.759  1.9265  0.8990 -0.1856
 6163SOL    HW219389   0.403   5.099   1.631 -1.3217  0.9021  2.2051
 6164SOL     OW19390   5.214   2.223   0.332 -0.0219  0.3057  0.1633
 6164SOL    HW119391   5.167   2.140   0.301  1.6281 -1.1866  1.4131
 6164SOL    HW219392   5.182   2.247   0.424 -1.8852  2.2688 -0.9051
 6165SOL     OW19393   2.799   1.013   1.032 -0.0009 -0.1089  0.2867
 6165SOL    HW119394   2.720   1.073   1.031  0.1801  0.1207 -0.5814
 6165SOL    HW219395   2.876   1.059   1.077  0.2985  0.5203 -0.8598
 6166SOL     OW19396   2.668   0.621   1.060 -0.1473  0.6424 -0.0617
 6166SOL    HW119397   2.704   0.528   1.050  3.9035  2.2069 -2.9040
 6166SOL    HW219398   2.598   0.637   0.990  0.0358  0.0836 -0.3773
 6167SOL     OW19399   1.897   6.077   3.597 -0.6645 -0.5327 -0.2122
 6167SOL    HW119400   1.973   6.131   3.634 -1.6291  0.3272  0.5669
 6167SOL    HW219401   1.888   6.095   3.499  0.4236 -1.0066 -0.4082
 6168SOL     OW19402   0.109   2.009   2.059 -0.0523  0.1385  0.1298
 6168SOL    HW119403   0.017   2.025   2.095  0.5212  1.0586  1.2446
 6168SOL    HW219404   0.140   2.090   2.008  0.6193  0.3553  0.8539
 6169SOL     OW19405   1.530   4.361   2.342 -0.2675  0.1956  0.0790
 6169SOL    HW119406   1.447   4.415   2.332 -1.0296 -0.9450  0.1192
 6169SOL    HW219407   1.588   4.375   2.261  0.0448  1.8538  0.5503
 6170SOL     OW19408   5.942   2.752   2.591  0.4374  0.4252  0.0811
 6170SOL    HW119409   5.955   2.653   2.597  0.1183  0.2260 -2.0061
 6170SOL    HW219410   5.931   2.789   2.684 -1.4610 -1.7533  0.8146
 6171SOL     OW19411   6.266   3.048   4.240 -0.3738 -0.1647  0.2222
 6171SOL    HW119412   6.173   3.051   4.279 -0.9280 -0.9610 -0.9850
 6171SOL    HW219413   6.268   2.983   4.165  1.8289 -2.2125  1.8943
 6172SOL     OW19414   4.943   6.381   4.060 -0.3350  0.4374 -0.0872
 6172SOL    HW119415   4.980   6.373   3.968 -1.4390  0.2880 -0.5381
 6172SOL    HW219416   4.968   6.469   4.099 -0.5552  0.8469 -0.8603
 6173SOL     OW19417   5.141   6.256   2.597 -0.2818  0.1149 -0.6604
 6173SOL    HW119418   5.236   6.278   2.619 -0.0405  0.9893 -2.4250
 6173SOL    HW219419   5.111   6.179   2.654  0.8097  1.0982  1.3515
 6174SOL     OW19420   1.002   0.848   4.342 -0.3279  0.2528  0.2898
 6174SOL    HW119421   0.913   0.893   4.347 -0.6223 -0.4260  1.7881
 6174SOL    HW219422   1.075   0.915   4.354 -0.5744  0.8827 -1.3639
 6175SOL     OW19423   5.553   1.204   6.976 -0.7262 -0.0691 -0.1577
 6175SOL    HW119424   5.597   1.122   7.011  0.1677 -0.1503 -1.3947
 6175SOL    HW219425   5.621   1.275   6.959 -1.5516  1.1990  1.4904
 6176SOL     OW19426   4.992   5.889   6.970  0.3506 -0.4443 -0.4087
 6176SOL    HW119427   4.969   5.949   6.894  3.0591 -0.8464 -1.6527
 6176SOL    HW219428   5.081   5.846   6.954  1.2272 -0.2934  3.1527
 6177SOL     OW19429   5.909   6.553   1.278  0.0473 -0.4699 -0.1976
 6177SOL    HW119430   6.000   6.512   1.276  0.3165  0.1300 -0.3351
 6177SOL    HW219431   5.843   6.484   1.307  0.8944 -0.2647  2.4446
 6178SOL     OW19432   4.129   4.385   0.869  0.0331 -0.1691  0.2358
 6178SOL    HW119433   4.147   4.484   0.873 -0.4587 -0.1117  1.2063
 6178SOL    HW219434   4.200   4.336   0.919  0.2926 -0.3108 -0.2702
 6179SOL     OW19435   4.092   4.818   4.013 -0.0507  0.2109 -0.7459
 6179SOL    HW119436   4.032   4.896   4.033  0.3137  0.4647 -0.6227
 6179SOL    HW219437   4.168   4.817   4.079  0.2278  0.0546 -1.0671
 6180SOL     OW19438   3.019   2.591   0.222 -0.1719 -0.5311  0.0335
 6180SOL    HW119439   3.043   2.604   0.126  0.1248 -1.4612 -0.0297
 6180SOL    HW219440   2.921   2.574   0.230  0.1936 -3.3529 -0.4628
 6181SOL     OW19441   5.387   6.048   5.123  0.0601 -0.0577  0.1609
 6181SOL    HW119442   5.406   5.973   5.187  1.9953  0.7071  0.5438
 6181SOL    HW219443   5.416   6.135   5.163 -0.3272  0.6653 -1.0672
 6182SOL     OW19444   1.576   2.041   4.620  0.0063  0.2749  0.4551
 6182SOL    HW119445   1.590   2.073   4.714  2.5554  1.6184 -0.2838
 6182SOL    HW219446   1.568   2.119   4.559  2.5036 -0.4352 -0.9252
 6183SOL     OW19447   0.964   0.842   0.250 -0.0828  0.0552  0.6323
 6183SOL    HW119448   0.895   0.906   0.285 -1.0178 -1.6520  2.0487
 6183SOL    HW219449   1.039   0.835   0.316  0.0740 -0.2166  0.4267
 6184SOL     OW19450   2.814   6.201   5.140 -0.3699 -0.2416  0.3784
 6184SOL    HW119451   2.717   6.187   5.120 -0.0782  0.1736 -1.5501
 6184SOL    HW219452   2.867   6.187   5.057  1.1789  0.0744  1.2756
 6185SOL     OW19453   4.107   3.644   4.554  0.1220  0.5049  0.1910
 6185SOL    HW119454   4.074   3.681   4.467  0.1560  0.8168  0.3066
 6185SOL    HW219455   4.144   3.719   4.609  2.9643 -0.0678 -0.7820
 6186SOL     OW19456   0.955   0.672   3.007 -0.3962  0.3843  0.0040
 6186SOL    HW119457   0.917   0.749   3.057  0.4225 -0.1785  1.5717
 6186SOL    HW219458   0.894   0.646   2.932 -0.3763  2.9197 -0.9669
 6187SOL     OW19459   2.725   3.394   5.743 -0.0137  0.1059 -0.0819
 6187SOL    HW119460   2.756   3.460   5.812 -0.4084  0.7443 -0.4987
 6187SOL    HW219461   2.798   3.329   5.724  0.7427  1.0249 -0.3844
 6188SOL     OW19462   6.972   1.204   3.825  0.4963  0.0535  0.0701
 6188SOL    HW119463   6.969   1.217   3.924 -0.7784 -0.1946  0.0810
 6188SOL    HW219464   6.896   1.145   3.797  0.5797  0.4824 -1.1033
 6189SOL     OW19465   6.142   6.458   1.552  0.5758  0.3610  0.4691
 6189SOL    HW119466   6.146   6.553   1.521  1.3923  0.4010  0.6672
 6189SOL    HW219467   6.116   6.399   1.476 -0.0283  0.7533  0.3680
 6190SOL     OW19468   0.898   1.616   3.223 -0.2845 -0.1225 -0.2943
 6190SOL    HW119469   0.848   1.700   3.200  0.3162 -0.0172 -1.2828
 6190SOL    HW219470   0.854   1.538   3.180 -1.7727 -0.5929  1.8870
 6191SOL     OW19471   2.126   5.244   0.319 -0.4158  0.5720  0.2490
 6191SOL    HW119472   2.218   5.275   0.342  0.0387 -0.2299 -0.4209
 6191SOL    HW219473   2.097   5.174   0.385  0.0533 -0.2268 -0.3714
 6192SOL     OW19474   2.498   0.854   1.479 -0.5149  0.5619 -0.5001
 6192SOL    HW119475   2.491   0.954   1.480 -0.1731  0.5847  0.2608
 6192SOL    HW219476   2.448   0.816   1.557  2.4391  0.3783  1.4621
 6193SOL     OW19477   5.343   5.056   6.910  0.0639 -0.9580  0.3995
 6193SOL    HW119478   5.400   5.056   6.992  0.7160 -0.9818 -0.0453
 6193SOL    HW219479   5.391   5.008   6.836  0.5414  1.0860 -0.7012
 6194SOL     OW19480   4.645   0.072   4.931 -0.5755  0.7328  0.4442
 6194SOL    HW119481   4.704   0.008   4.883 -0.5889  0.5573  0.6581
 6194SOL    HW219482   4.633   0.041   5.026 -1.4795  0.4409  0.2473
 6195SOL     OW19483   5.747   5.291   6.088  0.7228 -0.5238 -0.1434
 6195SOL    HW119484   5.733   5.308   6.186 -1.4926  0.5615 -0.5762
 6195SOL    HW219485   5.815   5.355   6.053 -1.0056  1.5808  0.0721
 6196SOL     OW19486   6.262   1.132   3.150  0.3134 -0.1976  0.1360
 6196SOL    HW119487   6.163   1.144   3.158  0.1698 -0.8187 -0.6000
 6196SOL    HW219488   6.289   1.144   3.054  0.9504 -0.0576  0.3311
 6197SOL     OW19489   0.631   4.275   0.970 -0.1377 -0.1822  0.0712
 6197SOL    HW119490   0.715   4.302   0.923 -0.1071  0.9206  0.7385
 6197SOL    HW219491   0.552   4.298   0.913 -0.2982  3.9035  1.6286
 6198SOL     OW19492   6.155   0.170   6.154  0.1281 -0.1737  0.4149
 6198SOL    HW119493   6.114   0.081   6.172 -0.7172  0.1582  0.2096
 6198SOL    HW219494   6.134   0.232   6.230 -0.3318  0.1903 -0.0011
 6199SOL     OW19495   0.808   1.436   5.177  0.2112 -0.3839  0.5559
 6199SOL    HW119496   0.746   1.358   5.178  1.4861 -1.4595 -0.5444
 6199SOL    HW219497   0.813   1.476   5.269 -2.6247  0.2346  0.5453
 6200SOL     OW19498   3.116   5.462   0.111  0.1503  0.7745 -0.3276
 6200SOL    HW119499   3.045   5.392   0.122  0.8836  0.1596  0.5983
 6200SOL    HW219500   3.178   5.436   0.037  0.6714  0.2136  0.2939
 6201SOL     OW19501   1.664   6.017   2.646  0.0827  0.5110 -0.0798
 6201SOL    HW119502   1.629   6.105   2.614  0.3768  0.6469 -0.0325
 6201SOL    HW219503   1.750   6.032   2.695 -0.9938  0.4588  1.9218
 6202SOL     OW19504   5.104   3.209   1.199  0.1077  0.3239  1.0796
 6202SOL    HW119505   5.052   3.207   1.284 -0.5044 -0.0412  0.7098
 6202SOL    HW219506   5.113   3.115   1.164  1.0904  0.3690  1.1754
 6203SOL     OW19507   1.245   0.079   2.882 -0.4642  0.0469 -0.6802
 6203SOL    HW119508   1.241   0.129   2.968  0.9839  0.0071 -0.5600
 6203SOL    HW219509   1.334   0.033   2.875 -0.7683 -0.3763 -1.9616
 6204SOL     OW19510   1.001   4.789   4.174 -0.5161  0.0799  0.3549
 6204SOL    HW119511   0.967   4.771   4.266 -1.2239 -1.7361 -0.2274
 6204SOL    HW219512   0.965   4.721   4.111 -0.4825  1.6099 -1.3910
 6205SOL     OW19513   6.742   5.900   3.119  0.4282  0.0426  0.2145
 6205SOL    HW119514   6.784   5.960   3.052  0.3991  0.0359  0.1901
 6205SOL    HW219515   6.653   5.937   3.146 -0.1918 -0.6650 -0.7881
 6206SOL     OW19516   4.894   3.880   3.442 -0.1508 -0.2574 -0.3231
 6206SOL    HW119517   4.868   3.977   3.441 -1.6674 -0.6198 -1.8078
 6206SOL    HW219518   4.866   3.840   3.529 -0.0124  0.5097  0.0892
 6207SOL     OW19519   3.609   0.528   5.270 -0.5397 -0.7832  0.3549
 6207SOL    HW119520   3.527   0.480   5.303 -0.1061 -0.5678  1.8084
 6207SOL    HW219521   3.613   0.619   5.311 -0.6878  0.0421 -1.3978
 6208SOL     OW19522   4.800   4.653   5.759 -0.3505  0.4461  0.2791
 6208SOL    HW119523   4.823   4.749   5.741  0.3440  0.0247 -1.2338
 6208SOL    HW219524   4.870   4.594   5.718 -0.4068 -0.7024  1.7694
 6209SOL     OW19525   4.253   5.617   2.377  0.3709  0.3102  0.5730
 6209SOL    HW119526   4.351   5.635   2.390  0.5976 -0.2773 -0.2055
 6209SOL    HW219527   4.240   5.520   2.354 -0.0440  0.9608 -2.3826
 6210SOL     OW19528   5.955   1.209   1.266  0.4741  0.0533  0.2275
 6210SOL    HW119529   5.907   1.209   1.354 -1.4899 -2.3017 -0.7427
 6210SOL    HW219530   6.053   1.191   1.282  0.2534  0.1493  1.9370
 6211SOL     OW19531   5.013   2.939   6.549 -0.9779 -0.3420  0.3295
 6211SOL    HW119532   4.967   2.913   6.464 -1.9300  1.1248  0.3579
 6211SOL    HW219533   5.011   3.039   6.559 -1.7551 -0.5127  2.5107
 6212SOL     OW19534   6.007   3.082   0.262 -0.6753 -0.5667  0.3993
 6212SOL    HW119535   6.104   3.101   0.242 -1.6153  2.0246 -2.7014
 6212SOL    HW219536   5.976   3.143   0.335 -0.1859 -0.8796  0.8815
 6213SOL     OW19537   5.162   5.786   5.721 -0.0539  0.0041 -0.8369
 6213SOL    HW119538   5.089   5.770   5.788  0.6315  1.8239  0.4382
 6213SOL    HW219539   5.231   5.714   5.728 -0.8353 -0.7515 -0.7920
 6214SOL     OW19540   0.170   5.282   5.358 -0.2502  0.3906 -0.5938
 6214SOL    HW119541   0.161   5.358   5.294 -2.8179  2.3143  1.8202
 6214SOL    HW219542   0.253   5.295   5.412  0.8273 -0.1374 -2.0553
 6215SOL     OW19543   5.244   4.709   4.939 -0.3938  0.3044 -0.7052
 6215SOL    HW119544   5.187   4.743   5.013  1.5404 -1.5946  1.8591
 6215SOL    HW219545   5.186   4.665   4.870 -2.2534  2.0333 -0.3254
 6216SOL     OW19546   6.601   1.456   6.777  0.9457 -0.4970  0.2194
 6216SOL    HW119547   6.663   1.527   6.746  0.9107 -1.0817 -1.2511
 6216SOL    HW219548   6.640   1.366   6.756 -0.6894 -0.8779 -1.4484
 6217SOL     OW19549   6.110   4.098   2.468  0.3308  0.0003  0.0436
 6217SOL    HW119550   6.115   4.014   2.413 -1.1749 -0.7419  0.9699
 6217SOL    HW219551   6.098   4.177   2.407 -1.4455 -0.8144 -0.7342
 6218SOL     OW19552   5.840   6.465   0.470  0.2261 -0.1987 -0.1687
 6218SOL    HW119553   5.752   6.497   0.505  1.1057  0.9777  1.0472
 6218SOL    HW219554   5.884   6.408   0.538  0.6112 -0.4237 -0.5983
 6219SOL     OW19555   1.757   6.832   0.967  0.1133 -0.3975  0.6008
 6219SOL    HW119556   1.807   6.904   0.920  1.8567 -1.6565  0.4019
 6219SOL    HW219557   1.753   6.751   0.909 -3.0179 -0.1193  0.2365
 6220SOL     OW19558   1.935   1.120   3.746 -0.2935  0.5772  0.1640
 6220SOL    HW119559   2.020   1.148   3.701 -1.9348  1.3721 -2.7047
 6220SOL    HW219560   1.863   1.185   3.723 -2.0185 -0.8218  1.3885
 6221SOL     OW19561   3.401   5.302   6.519 -0.8446  0.2649  0.1076
 6221SOL    HW119562   3.473   5.304   6.588  0.2730  0.1687 -1.0041
 6221SOL    HW219563   3.442   5.315   6.428 -1.9270 -1.9261 -0.7838
 6222SOL     OW19564   1.895   0.834   2.488  0.2917  0.6858 -0.2148
 6222SOL    HW119565   1.829   0.867   2.556 -0.2162 -1.1095  0.2202
 6222SOL    HW219566   1.856   0.755   2.440  1.7979  0.1435 -0.5857
 6223SOL     OW19567   6.697   6.629   2.319  0.0118  0.3991  0.4175
 6223SOL    HW119568   6.678   6.715   2.365 -2.0403  0.2516 -0.0583
 6223SOL    HW219569   6.616   6.600   2.268  0.9767 -1.3355 -0.2070
 6224SOL     OW19570   5.735   0.319   6.231  0.2302  0.2275  0.6595
 6224SOL    HW119571   5.752   0.316   6.132  1.0342  1.9732  0.7142
 6224SOL    HW219572   5.641   0.348   6.248  0.8973  2.7197  0.3782
 6225SOL     OW19573   6.992   5.193   5.155  0.0989 -0.1365 -0.8475
 6225SOL    HW119574   7.087   5.191   5.188 -0.3358 -0.5222  0.4294
 6225SOL    HW219575   6.937   5.129   5.208 -0.7244 -0.4945 -2.1048
 6226SOL     OW19576   0.702   1.832   4.357  0.1193 -0.1899 -0.5588
 6226SOL    HW119577   0.793   1.873   4.355 -1.0555  2.7332  1.0243
 6226SOL    HW219578   0.692   1.776   4.440 -0.6418  2.5738  1.3383
 6227SOL     OW19579   0.207   3.123   6.150  0.1725  0.5390  0.3034
 6227SOL    HW119580   0.302   3.092   6.149  0.1836  0.5639 -0.7469
 6227SOL    HW219581   0.166   3.105   6.061 -0.4457  1.6386  0.3523
 6228SOL     OW19582   1.109   3.709   4.123  0.1045  0.0869 -0.2347
 6228SOL    HW119583   1.072   3.668   4.207  2.6466 -0.2312  0.8060
 6228SOL    HW219584   1.187   3.767   4.146 -0.5397  1.8543 -2.1899
 6229SOL     OW19585   0.857   3.871   6.157  0.0661  0.1524 -0.2112
 6229SOL    HW119586   0.845   3.848   6.253 -0.1245 -0.6321 -0.4076
 6229SOL    HW219587   0.952   3.895   6.140 -0.2440  2.0625  0.5041
 6230SOL     OW19588   0.314   6.811   1.277  0.1707  0.1985 -0.2313
 6230SOL    HW119589   0.355   6.852   1.195  0.3546 -0.2671 -0.3737
 6230SOL    HW219590   0.371   6.832   1.357 -1.5695  3.2668  0.3299
 6231SOL     OW19591   1.183   6.213   5.752 -0.5880 -0.3271 -0.0410
 6231SOL    HW119592   1.223   6.166   5.831  2.3566  0.9340 -0.6651
 6231SOL    HW219593   1.188   6.153   5.672 -2.1930 -1.0303  0.3345
 6232SOL     OW19594   3.708   1.202   5.236 -0.4940 -0.4492  0.1475
 6232SOL    HW119595   3.725   1.177   5.140 -0.1512 -1.5600  0.4775
 6232SOL    HW219596   3.676   1.296   5.241 -1.7768 -0.7759 -1.1824
 6233SOL     OW19597   4.277   4.996   1.944  0.2830  0.1982  0.0570
 6233SOL    HW119598   4.178   5.012   1.940  0.0371 -0.7347  1.6443
 6233SOL    HW219599   4.303   4.932   1.872 -0.5664 -0.8698  0.6747
 6234SOL     OW19600   5.210   4.266   0.727  0.0630 -0.4201  0.3281
 6234SOL    HW119601   5.118   4.249   0.763 -0.0573  0.8775  0.6669
 6234SOL    HW219602   5.263   4.182   0.733 -1.0104 -1.1235  0.3856
 6235SOL     OW19603   1.564   1.699   1.839 -0.2660 -0.4396  0.0969
 6235SOL    HW119604   1.636   1.681   1.772  0.8931 -1.1343  1.4632
 6235SOL    HW219605   1.492   1.630   1.830 -0.1976 -0.4400 -0.5125
 6236SOL     OW19606   4.831   1.028   2.362  0.5572  0.1693  0.4191
 6236SOL    HW119607   4.758   0.972   2.324  0.5566  1.1056 -1.0204
 6236SOL    HW219608   4.910   1.027   2.301  1.2754  0.2234  1.3176
 6237SOL     OW19609   3.575   6.510   2.798 -0.4630 -0.5111  0.0202
 6237SOL    HW119610   3.550   6.561   2.716  2.2930  0.3736 -0.3732
 6237SOL    HW219611   3.591   6.414   2.773  2.9063  0.2205 -1.1839
 6238SOL     OW19612   2.518   5.757   2.352  0.5320 -0.4268 -0.8342
 6238SOL    HW119613   2.478   5.668   2.374 -0.6537  0.3027  0.0968
 6238SOL    HW219614   2.490   5.824   2.421  0.1669  1.0045 -2.3094
 6239SOL     OW19615   4.575   2.117   3.483 -0.1167  0.1061  0.0012
 6239SOL    HW119616   4.561   2.155   3.391 -1.2536  0.7408  0.4109
 6239SOL    HW219617   4.670   2.133   3.512 -0.1506  1.2741 -0.4648
 6240SOL     OW19618   3.124   3.016   4.115 -0.4510  0.5807 -0.3126
 6240SOL    HW119619   3.102   2.974   4.203  0.9625  0.9836  0.2620
 6240SOL    HW219620   3.185   2.956   4.063  0.9603  1.5246  0.1886
 6241SOL     OW19621   5.783   1.828   1.683 -0.2271 -0.2347  0.2315
 6241SOL    HW119622   5.778   1.927   1.697 -1.8813 -0.4800  1.8170
 6241SOL    HW219623   5.722   1.801   1.608 -0.0117 -0.0938  0.0048
 6242SOL     OW19624   1.301   2.537   4.233 -0.1535 -0.0474 -0.0665
 6242SOL    HW119625   1.205   2.514   4.220  0.4400 -2.0216 -1.2633
 6242SOL    HW219626   1.353   2.455   4.252  1.2384  1.0773  1.2263
 6243SOL     OW19627   3.155   0.370   2.680  0.4161 -0.0233 -0.1400
 6243SOL    HW119628   3.164   0.325   2.591 -0.6688  0.0927 -0.3185
 6243SOL    HW219629   3.156   0.469   2.668  1.8907  0.0211  0.1622
 6244SOL     OW19630   5.644   2.155   0.506 -0.3586 -0.5874  0.2251
 6244SOL    HW119631   5.668   2.236   0.560 -3.4230  0.1816  0.6373
 6244SOL    HW219632   5.573   2.179   0.439 -0.3665 -2.6602 -0.5883
 6245SOL     OW19633   6.470   4.880   2.294  0.2077  0.1948  0.0305
 6245SOL    HW119634   6.541   4.818   2.328  0.0084  0.6142  1.2837
 6245SOL    HW219635   6.411   4.906   2.370  1.1189  3.0263 -0.1272
 6246SOL     OW19636   0.131   0.081   6.989 -0.0875  0.6998 -0.1851
 6246SOL    HW119637   0.192   0.001   6.993  0.6460  1.2832  0.5235
 6246SOL    HW219638   0.139   0.134   7.073 -2.0935  0.4412  0.2084
 6247SOL     OW19639   6.269   4.671   2.174 -0.1375 -0.1922  0.2006
 6247SOL    HW119640   6.350   4.728   2.187  0.1572 -0.2764 -1.0504
 6247SOL    HW219641   6.241   4.675   2.078 -0.4226 -1.7330  0.1837
 6248SOL     OW19642   5.011   2.244   5.557  0.5937 -1.0851 -0.3473
 6248SOL    HW119643   5.073   2.183   5.507 -0.0720  0.4485 -3.3183
 6248SOL    HW219644   4.918   2.208   5.551  0.5780 -1.1391  0.2305
 6249SOL     OW19645   5.601   2.471   1.578  0.0293  0.5487  0.4388
 6249SOL    HW119646   5.650   2.440   1.659  0.9453 -1.6770 -0.8538
 6249SOL    HW219647   5.616   2.406   1.503 -1.4197  2.0824 -1.3007
 6250SOL     OW19648   5.190   0.540   4.818  0.1234  0.1644  0.0266
 6250SOL    HW119649   5.138   0.466   4.862  0.4766 -0.1052  0.0008
 6250SOL    HW219650   5.168   0.627   4.861 -0.0559 -0.0030  0.2755
 6251SOL     OW19651   4.121   1.954   4.250 -0.2728  0.0721 -0.3111
 6251SOL    HW119652   4.161   1.934   4.339 -0.2865  1.0124 -0.0803
 6251SOL    HW219653   4.028   1.916   4.246 -0.5397  0.6258  0.3460
 6252SOL     OW19654   1.821   6.681   0.208  0.1547  0.2158  0.3893
 6252SOL    HW119655   1.813   6.769   0.161 -1.2890 -1.2739 -2.3814
 6252SOL    HW219656   1.737   6.662   0.259  0.4773  0.4093  1.0119
 6253SOL     OW19657   6.541   5.411   4.597 -0.0854 -0.3257 -0.3674
 6253SOL    HW119658   6.558   5.403   4.499  0.7291 -1.1469 -0.1804
 6253SOL    HW219659   6.610   5.470   4.638 -1.0707  0.9063 -0.4413
 6254SOL     OW19660   0.195   0.077   1.265  0.1772 -0.1579 -0.2141
 6254SOL    HW119661   0.220   0.148   1.332  0.2908  0.2184 -0.6468
 6254SOL    HW219662   0.278   0.042   1.222  0.3451 -2.1754  1.5812
 6255SOL     OW19663   3.218   0.957   0.976 -0.4136  0.6482  0.3842
 6255SOL    HW119664   3.182   0.919   0.892 -0.3454  1.7785 -0.1777
 6255SOL    HW219665   3.142   0.982   1.037 -0.4749  0.2799  0.4619
 6256SOL     OW19666   5.795   5.477   1.944 -0.2614  0.2357  0.1388
 6256SOL    HW119667   5.885   5.490   1.985  0.5890 -0.8810 -1.2619
 6256SOL    HW219668   5.799   5.500   1.847 -1.2873 -0.5345 -0.1084
 6257SOL     OW19669   4.252   2.946   1.624 -0.4234 -0.2882  0.7678
 6257SOL    HW119670   4.204   2.859   1.637 -0.9346  0.0335  1.0493
 6257SOL    HW219671   4.185   3.019   1.606  0.0478 -0.0919 -0.2564
 6258SOL     OW19672   5.439   4.115   5.418  0.1303  0.1668  0.5468
 6258SOL    HW119673   5.402   4.037   5.470 -1.0388  1.6671  2.1017
 6258SOL    HW219674   5.385   4.197   5.438 -0.8300  0.7876 -3.5893
 6259SOL     OW19675   4.752   0.178   3.038 -0.1425 -0.5237 -0.3502
 6259SOL    HW119676   4.684   0.138   2.978  1.8059 -3.9770 -0.5309
 6259SOL    HW219677   4.752   0.278   3.028 -3.8072 -0.5071 -1.6123
 6260SOL     OW19678   0.854   2.095   0.244  0.9512 -0.2314  0.2904
 6260SOL    HW119679   0.842   2.081   0.342 -0.4183  2.3588  0.5585
 6260SOL    HW219680   0.860   2.192   0.224 -1.0397 -0.5446 -2.4009
 6261SOL     OW19681   4.795   5.342   6.994  0.1713 -0.1169  0.0560
 6261SOL    HW119682   4.887   5.343   6.955  0.0384  1.1496 -0.2559
 6261SOL    HW219683   4.728   5.330   6.922  0.0541 -0.3686  0.2059
 6262SOL     OW19684   4.565   0.490   3.624  0.7440  0.9274  0.0311
 6262SOL    HW119685   4.472   0.526   3.622  0.6261  0.5870 -1.2254
 6262SOL    HW219686   4.609   0.506   3.536  0.8552 -1.5122 -0.4196
 6263SOL     OW19687   6.675   5.910   4.184  0.3889 -0.5621 -0.2932
 6263SOL    HW119688   6.765   5.937   4.149  0.8866 -1.0462  0.5878
 6263SOL    HW219689   6.683   5.823   4.231 -0.4933 -0.4633  0.0450
 6264SOL     OW19690   2.105   6.458   2.300 -0.2462  0.4014  1.1043
 6264SOL    HW119691   2.039   6.507   2.245  1.6152  1.1969 -0.5354
 6264SOL    HW219692   2.136   6.516   2.375  3.0944  2.6178 -1.6955
 6265SOL     OW19693   4.423   6.422   4.744  0.1251  0.4561 -0.3487
 6265SOL    HW119694   4.358   6.417   4.820 -0.6903 -1.1834 -1.0782
 6265SOL    HW219695   4.398   6.353   4.676  2.3152  0.1854 -0.9382
 6266SOL     OW19696   2.583   4.679   4.028  0.2785  0.2715  0.3251
 6266SOL    HW119697   2.607   4.682   4.126  0.1678  3.1929  0.3701
 6266SOL    HW219698   2.666   4.669   3.974  0.4102 -0.6621  0.6745
 6267SOL     OW19699   5.807   0.014   3.346 -0.3686  0.3890  0.3200
 6267SOL    HW119700   5.834   0.080   3.416  0.8943 -0.7495  0.9549
 6267SOL    HW219701   5.720  -0.029   3.372 -0.0568  0.1884  1.0476
 6268SOL     OW19702   2.614   3.752   0.591  0.0198  0.0365  0.2160
 6268SOL    HW119703   2.622   3.808   0.509  0.3262 -1.7074 -0.9828
 6268SOL    HW219704   2.644   3.806   0.671  0.5262  1.4835 -0.9070
 6269SOL     OW19705   2.005   3.753   1.142  0.1539 -0.2102 -0.1157
 6269SOL    HW119706   1.912   3.724   1.121  0.4192  0.0734 -1.8600
 6269SOL    HW219707   2.008   3.795   1.233 -1.1190 -1.5031  0.5511
 6270SOL     OW19708   2.045   4.756   2.046  0.2642  0.1439 -0.4040
 6270SOL    HW119709   2.130   4.708   2.068 -0.7571 -0.7264  2.0359
 6270SOL    HW219710   2.045   4.847   2.089 -1.2286 -1.0800  2.4967
 6271SOL     OW19711   6.176   4.265   6.680 -0.2833  0.0176 -0.4541
 6271SOL    HW119712   6.085   4.238   6.712 -0.5111  1.1033 -0.1448
 6271SOL    HW219713   6.172   4.358   6.644  0.3813 -0.4770 -1.9005
 6272SOL     OW19714   6.648   1.008   6.325 -0.2012 -0.1272  0.5426
 6272SOL    HW119715   6.744   1.015   6.351 -0.4210  1.6893  0.9738
 6272SOL    HW219716   6.598   0.957   6.395  0.6356 -2.2464 -0.3150
 6273SOL     OW19717   0.644   1.354   3.416  0.1428 -0.0087  0.2526
 6273SOL    HW119718   0.736   1.320   3.439  0.9511  1.6366 -0.4215
 6273SOL    HW219719   0.586   1.350   3.498  1.3066  0.5147  1.1340
 6274SOL     OW19720   3.270   5.960   2.644 -0.0429  0.2049  0.3517
 6274SOL    HW119721   3.356   5.928   2.604 -0.1064  1.1430 -0.5755
 6274SOL    HW219722   3.288   6.003   2.732  0.8821  2.6870 -0.9197
 6275SOL     OW19723   2.436   3.677   6.608 -0.2677 -0.3876  0.1775
 6275SOL    HW119724   2.347   3.638   6.584  0.5033 -1.5329 -0.9090
 6275SOL    HW219725   2.485   3.702   6.525  0.0173  1.2678  0.7928
 6276SOL     OW19726   2.529   5.028   3.774 -0.5758  0.5575 -0.3557
 6276SOL    HW119727   2.476   4.976   3.841  0.1013  0.4076  0.0696
 6276SOL    HW219728   2.612   4.978   3.751 -0.1214  1.2607 -0.2603
 6277SOL     OW19729   0.525   2.444   6.994  0.2517  0.3823  0.3680
 6277SOL    HW119730   0.436   2.470   6.956  0.5854 -0.6802 -1.2538
 6277SOL    HW219731   0.582   2.406   6.921  1.2879 -0.8783  1.7769
 6278SOL     OW19732   4.788   4.232   1.487  0.0392  0.4561 -0.5154
 6278SOL    HW119733   4.813   4.136   1.502  1.0227  0.7461 -0.2648
 6278SOL    HW219734   4.713   4.256   1.548  0.3474  0.0835  0.0165
 6279SOL     OW19735   0.376   0.553   2.146 -0.6636 -0.2706  0.2126
 6279SOL    HW119736   0.338   0.596   2.064  1.6544  0.4974 -0.5331
 6279SOL    HW219737   0.376   0.454   2.134 -2.5104 -0.3218  0.3250
 6280SOL     OW19738   6.548   0.747   0.262  0.0977  0.2908  0.1945
 6280SOL    HW119739   6.599   0.816   0.211  2.0369 -1.1012  0.1500
 6280SOL    HW219740   6.562   0.761   0.360 -0.0428  0.3441  0.2071
 6281SOL     OW19741   6.034   3.162   1.142  0.1277 -0.4268 -0.2515
 6281SOL    HW119742   6.031   3.091   1.072  1.0924 -0.6788 -0.0576
 6281SOL    HW219743   6.124   3.206   1.141 -0.1655  0.2046  0.2113
 6282SOL     OW19744   5.343   6.961   5.210 -0.5164 -0.5134 -0.1333
 6282SOL    HW119745   5.404   7.030   5.250  0.1263 -1.2071  0.1011
 6282SOL    HW219746   5.329   6.980   5.113 -1.7766  0.9697  0.2855
 6283SOL     OW19747   4.583   5.917   2.424  0.1128 -0.6861  0.1258
 6283SOL    HW119748   4.496   5.963   2.443 -0.0063 -0.1949 -1.4751
 6283SOL    HW219749   4.648   5.939   2.497 -0.2575  1.2219 -0.0454
 6284SOL     OW19750   2.147   5.859   6.218 -0.3724 -0.1911 -0.9146
 6284SOL    HW119751   2.240   5.827   6.197 -0.3620 -1.0249  0.2918
 6284SOL    HW219752   2.143   5.958   6.205  0.5206 -0.2240 -1.5500
 6285SOL     OW19753   6.520   3.343   3.964  0.0327  0.6265  0.2835
 6285SOL    HW119754   6.490   3.403   3.890  0.3092 -0.2165 -0.5343
 6285SOL    HW219755   6.601   3.383   4.008  1.0245  0.2535 -1.1219
 6286SOL     OW19756   0.455   5.835   0.969 -0.1994 -0.4830  0.2352
 6286SOL    HW119757   0.356   5.842   0.956 -0.2363 -0.2041  0.6856
 6286SOL    HW219758   0.487   5.751   0.925 -0.7595 -0.9988  0.7851
 6287SOL     OW19759   3.364   4.956   2.923 -0.0318 -0.0528  1.0126
 6287SOL    HW119760   3.405   4.978   2.835 -0.7868 -1.6444  0.2284
 6287SOL    HW219761   3.435   4.919   2.984 -0.2125 -2.9305 -0.3782
 6288SOL     OW19762   3.298   5.026   5.985 -0.3609 -0.3337  0.3717
 6288SOL    HW119763   3.268   4.962   6.055 -0.8499 -1.4384 -0.8145
 6288SOL    HW219764   3.221   5.085   5.960 -0.2343 -0.0593  0.6134
 6289SOL     OW19765   2.292   0.341   0.044  0.4001 -0.2555 -0.3080
 6289SOL    HW119766   2.257   0.345  -0.050 -0.7777  1.5374  0.1496
 6289SOL    HW219767   2.337   0.428   0.066  3.4489 -1.7601 -0.1846
 6290SOL     OW19768   5.469   2.566   3.979  0.3045  0.4373  0.8026
 6290SOL    HW119769   5.411   2.493   3.943 -1.3719  2.3450 -0.6342
 6290SOL    HW219770   5.556   2.565   3.931 -0.6364  0.8377 -1.0040
 6291SOL     OW19771   4.049   2.913   1.243  0.4880 -0.2001 -0.1388
 6291SOL    HW119772   4.068   2.923   1.146 -0.1709 -0.2497 -0.2792
 6291SOL    HW219773   3.950   2.922   1.259  0.5739 -0.3218  0.5062
 6292SOL     OW19774   0.806   3.480   4.954 -0.4074  0.0174 -0.7387
 6292SOL    HW119775   0.721   3.430   4.938 -2.3191  1.4676  3.4898
 6292SOL    HW219776   0.877   3.417   4.985 -0.6993 -0.8610 -1.7953
 6293SOL     OW19777   2.407   2.654   1.560  0.0515 -0.8202 -0.5195
 6293SOL    HW119778   2.427   2.647   1.463  0.5579 -0.7965 -0.4191
 6293SOL    HW219779   2.472   2.599   1.612 -1.4127 -2.4245 -0.3075
 6294SOL     OW19780   0.833   6.961   1.768  0.1387  0.0833 -0.2993
 6294SOL    HW119781   0.856   6.892   1.837 -2.0772  0.5900  1.0541
 6294SOL    HW219782   0.833   7.051   1.811  0.3690  0.6147 -1.4020
 6295SOL     OW19783   3.788   2.919   4.869 -0.2261 -0.1382  0.3253
 6295SOL    HW119784   3.793   3.014   4.901  2.4062 -0.2443  0.4967
 6295SOL    HW219785   3.799   2.857   4.947  0.9781 -0.4915 -0.0981
 6296SOL     OW19786   5.617   2.787   6.739  0.0233  0.3810 -0.1937
 6296SOL    HW119787   5.712   2.816   6.748 -0.2833  0.9928  1.4218
 6296SOL    HW219788   5.571   2.845   6.672  0.4227  1.0757  0.1149
 6297SOL     OW19789   0.349   2.831   4.724 -0.1918  0.7534 -0.2681
 6297SOL    HW119790   0.284   2.841   4.649 -0.2747 -3.3837 -0.9852
 6297SOL    HW219791   0.431   2.884   4.704 -1.7591  2.9857 -1.2061
 6298SOL     OW19792   6.220   2.077   5.700  0.0345 -0.0700 -0.1141
 6298SOL    HW119793   6.219   2.052   5.797  1.5613 -0.6676 -0.2376
 6298SOL    HW219794   6.312   2.102   5.673 -0.1219 -1.1249 -1.7236
 6299SOL     OW19795   4.849   1.599   4.242  0.0171 -0.2145  0.5777
 6299SOL    HW119796   4.822   1.604   4.146  1.6442 -0.6537  0.0763
 6299SOL    HW219797   4.774   1.634   4.299  0.2286  3.2123 -0.9932
 6300SOL     OW19798   1.873   1.113   6.835  0.3901  0.1375 -0.3320
 6300SOL    HW119799   1.928   1.167   6.899 -1.3349  0.4480  0.9683
 6300SOL    HW219800   1.902   1.017   6.839  1.1210  0.3662 -0.0064
 6301SOL     OW19801   6.059   6.844   5.253 -0.1032 -0.3620 -0.3497
 6301SOL    HW119802   5.962   6.863   5.265  0.1323  1.1168 -0.6463
 6301SOL    HW219803   6.079   6.751   5.285 -1.1243  0.2138  2.2118
 6302SOL     OW19804   2.715   2.570   6.485  0.3007 -0.0485 -0.6309
 6302SOL    HW119805   2.711   2.488   6.428  0.3575  0.3258 -1.1738
 6302SOL    HW219806   2.808   2.608   6.483  0.0970  0.4329 -0.9500
 6303SOL     OW19807   4.810   5.645   4.417 -0.5218 -0.4066 -0.0123
 6303SOL    HW119808   4.711   5.634   4.403 -0.2110 -3.3230 -0.5167
 6303SOL    HW219809   4.857   5.637   4.329  0.2555 -0.4981  0.4057
 6304SOL     OW19810   0.684   3.774   5.346  0.2976 -0.4742  0.8323
 6304SOL    HW119811   0.751   3.840   5.380  0.5528 -0.7266  0.8254
 6304SOL    HW219812   0.650   3.719   5.422 -1.0288  0.6460  1.0864
 6305SOL     OW19813   1.644   5.187   4.885 -0.4363 -0.5973  0.7628
 6305SOL    HW119814   1.721   5.149   4.936 -1.1260  0.3047  2.5707
 6305SOL    HW219815   1.624   5.279   4.919 -1.4528 -0.2827 -0.6112
 6306SOL     OW19816   1.512   2.996   5.424 -0.6031  0.1966 -0.0394
 6306SOL    HW119817   1.569   2.993   5.341  0.8200 -1.6620  0.9247
 6306SOL    HW219818   1.465   3.084   5.428  0.9191  1.1913 -1.7367
 6307SOL     OW19819   3.057   3.629   3.307  0.3346 -0.0008  0.5370
 6307SOL    HW119820   2.983   3.565   3.286  0.6579 -0.2225  0.0650
 6307SOL    HW219821   3.035   3.719   3.271  0.5115 -0.1821 -0.0222
 6308SOL     OW19822   1.621   0.086   3.042  0.3230 -0.3405  0.5711
 6308SOL    HW119823   1.598   0.118   3.134 -1.5358  1.0850 -0.3343
 6308SOL    HW219824   1.701   0.026   3.047  2.0112  1.9031  2.7514
 6309SOL     OW19825   1.500   5.675   6.205  0.5268 -0.0765  0.0927
 6309SOL    HW119826   1.471   5.757   6.155 -1.0438  0.2678  1.4823
 6309SOL    HW219827   1.461   5.594   6.163  0.2033  0.0998  0.0505
 6310SOL     OW19828   6.470   0.545   1.852 -0.1052 -0.5866 -0.1531
 6310SOL    HW119829   6.465   0.447   1.872 -1.1769 -0.3145  1.0447
 6310SOL    HW219830   6.553   0.564   1.800 -0.0936 -2.1839 -0.7816
 6311SOL     OW19831   4.977   1.375   0.842 -0.5073  0.0924  0.1789
 6311SOL    HW119832   4.962   1.411   0.934  0.7629  2.0317 -0.3144
 6311SOL    HW219833   4.897   1.394   0.785 -0.7572  0.1038  0.5352
 6312SOL     OW19834   3.339   4.869   1.916  0.0186  0.4812  0.5957
 6312SOL    HW119835   3.303   4.855   2.008  1.1720  1.5137  1.2347
 6312SOL    HW219836   3.429   4.825   1.909 -0.3033 -0.0591 -0.2176
 6313SOL     OW19837   3.689   5.442   3.880 -0.0773 -0.0011 -0.0378
 6313SOL    HW119838   3.684   5.419   3.977  1.3520 -1.0773 -0.1891
 6313SOL    HW219839   3.634   5.377   3.828  0.2976 -0.2992 -0.0655
 6314SOL     OW19840   1.478   4.598   3.694  0.0609 -0.1046  0.1981
 6314SOL    HW119841   1.575   4.607   3.716  0.6699 -0.8537 -1.8639
 6314SOL    HW219842   1.447   4.679   3.644  0.0961 -0.5855 -0.6228
 6315SOL     OW19843   3.035   1.835   4.921 -0.2337 -0.3440  0.0406
 6315SOL    HW119844   2.998   1.747   4.891  1.6043 -1.3538  0.6282
 6315SOL    HW219845   3.032   1.840   5.021 -0.9485  0.5618 -0.0149
 6316SOL     OW19846   3.662   6.324   6.132 -0.0681  1.1330 -0.2200
 6316SOL    HW119847   3.657   6.251   6.200  2.0777  0.1319 -1.0690
 6316SOL    HW219848   3.733   6.389   6.158  0.4527  0.9924 -1.2419
 6317SOL     OW19849   5.279   4.915   2.918 -0.3495 -0.3289  0.5203
 6317SOL    HW119850   5.322   4.826   2.903 -0.7484 -0.4584  0.1061
 6317SOL    HW219851   5.196   4.921   2.862  0.5936  0.9826 -0.7784
 6318SOL     OW19852   4.552   6.346   0.313  0.1186  0.4105  0.2182
 6318SOL    HW119853   4.593   6.386   0.231  0.3401  1.7285  0.9639
 6318SOL    HW219854   4.587   6.391   0.394  0.4946 -1.3994  1.1268
 6319SOL     OW19855   6.124   3.581   3.433 -0.5616  0.3846  0.0302
 6319SOL    HW119856   6.097   3.660   3.488 -1.4487  0.1214 -0.0008
 6319SOL    HW219857   6.059   3.506   3.449 -0.2384 -0.0380 -0.5999
 6320SOL     OW19858   6.714   3.339   0.925  0.3563 -0.5068  0.1035
 6320SOL    HW119859   6.810   3.317   0.943  0.6681  0.0037 -0.8858
 6320SOL    HW219860   6.707   3.399   0.846 -0.7711 -0.3332  0.3081
 6321SOL     OW19861   6.538   3.911   0.120  0.2960  0.1775  0.7824
 6321SOL    HW119862   6.515   3.858   0.038 -1.8614  2.0959  0.0490
 6321SOL    HW219863   6.546   4.007   0.097 -0.4680  0.7926  2.8419
 6322SOL     OW19864   2.651   0.549   3.449  0.4990 -0.0101  0.6022
 6322SOL    HW119865   2.698   0.636   3.462  1.0972 -0.3783  0.9089
 6322SOL    HW219866   2.606   0.549   3.359  0.6016  0.5675  0.5499
 6323SOL     OW19867   1.083   0.164   2.685 -0.5495 -1.2600 -0.1281
 6323SOL    HW119868   1.016   0.196   2.752  0.3589 -1.3054  0.8330
 6323SOL    HW219869   1.157   0.117   2.733 -0.6689 -2.7364 -1.3022
 6324SOL     OW19870   6.591   4.052   2.855 -0.1399 -0.0336  0.3284
 6324SOL    HW119871   6.645   3.971   2.873  0.3516  0.3566  0.6485
 6324SOL    HW219872   6.545   4.043   2.767  1.4320  0.1476 -0.5499
 6325SOL     OW19873   6.133   4.265   3.376 -0.0198 -0.2847 -0.1606
 6325SOL    HW119874   6.072   4.310   3.311 -1.2199  0.2965  1.2892
 6325SOL    HW219875   6.084   4.192   3.423  0.4697 -0.0073  0.8168
 6326SOL     OW19876   4.556   5.214   4.705  0.1649 -0.0812 -0.1511
 6326SOL    HW119877   4.479   5.255   4.754  0.1354 -1.3976  0.9673
 6326SOL    HW219878   4.637   5.272   4.715 -0.6315  1.3166 -1.3373
 6327SOL     OW19879   2.068   0.287   1.940 -0.3930  0.0458  0.0546
 6327SOL    HW119880   2.113   0.261   1.854 -1.2524 -3.0064  0.3986
 6327SOL    HW219881   1.980   0.241   1.947 -1.4574  2.1453  1.5378
 6328SOL     OW19882   2.884   3.478   1.877  0.0370  0.3917 -0.0943
 6328SOL    HW119883   2.969   3.524   1.902  0.1250 -0.9976  2.5069
 6328SOL    HW219884   2.807   3.541   1.887  0.4930  0.9441 -0.0425
 6329SOL     OW19885   0.258   3.263   4.451 -0.0986  0.6611 -0.0914
 6329SOL    HW119886   0.351   3.226   4.452 -0.2403  0.2749 -0.9372
 6329SOL    HW219887   0.222   3.264   4.545  1.5469  2.8857  0.5863
 6330SOL     OW19888   4.148   2.283   4.577  0.4497  0.2005 -0.4511
 6330SOL    HW119889   4.145   2.379   4.606  0.3574 -0.1505  0.7662
 6330SOL    HW219890   4.212   2.232   4.634  1.5246 -0.2081 -1.9602
 6331SOL     OW19891   0.838   3.036   4.121  0.2246 -0.4573 -0.1521
 6331SOL    HW119892   0.929   2.998   4.138  0.5626  1.0889  1.9598
 6331SOL    HW219893   0.845   3.114   4.059  0.3122 -0.4561 -0.1402
 6332SOL     OW19894   4.777   6.954   6.533 -0.0838 -0.1006  0.2453
 6332SOL    HW119895   4.853   6.906   6.488  2.3286  1.8331  1.9295
 6332SOL    HW219896   4.739   6.896   6.605 -0.6349 -1.3212 -0.9906
 6333SOL     OW19897   5.717   3.047   6.277 -0.2247  0.2101  0.3602
 6333SOL    HW119898   5.761   3.102   6.348 -1.9503 -0.4280  2.0285
 6333SOL    HW219899   5.777   2.971   6.251  0.2552  0.1717  1.5306
 6334SOL     OW19900   3.130   6.814   2.565 -0.5139  0.3446  0.1035
 6334SOL    HW119901   3.098   6.902   2.599  0.7307  0.0453  2.1925
 6334SOL    HW219902   3.199   6.777   2.627  0.3479 -1.2554 -1.7091
 6335SOL     OW19903   4.641   0.716   6.740  0.0149  0.2078  0.1259
 6335SOL    HW119904   4.596   0.772   6.809  0.0695 -1.3133  1.4741
 6335SOL    HW219905   4.576   0.694   6.667 -0.0848  1.7225 -0.2666
 6336SOL     OW19906   1.814   4.244   4.855 -0.0435  0.2435 -0.2048
 6336SOL    HW119907   1.791   4.203   4.943 -1.8796  0.9101 -0.3270
 6336SOL    HW219908   1.842   4.172   4.791 -0.7094 -0.5014  0.3216
 6337SOL     OW19909   6.377   1.638   4.716  0.3866  0.3673 -0.0824
 6337SOL    HW119910   6.354   1.629   4.619 -0.4422  1.4548 -0.0094
 6337SOL    HW219911   6.383   1.548   4.758  1.2183 -0.1420 -1.2390
 6338SOL     OW19912   2.428   0.628   2.630  0.5114  0.7072 -0.5866
 6338SOL    HW119913   2.497   0.582   2.573  0.4824  0.6405 -0.5685
 6338SOL    HW219914   2.474   0.683   2.700  0.5519 -0.3980  0.2802
 6339SOL     OW19915   6.305   5.901   3.097 -0.7031 -0.0330  0.1312
 6339SOL    HW119916   6.206   5.893   3.091 -0.5795 -0.8350 -1.8928
 6339SOL    HW219917   6.332   5.997   3.082 -1.1690  0.1579  0.5251
 6340SOL     OW19918   1.194   4.345   6.676 -0.5269  0.3513 -0.0343
 6340SOL    HW119919   1.124   4.311   6.739 -2.8461 -0.9879 -3.0671
 6340SOL    HW219920   1.166   4.433   6.639 -0.2078  0.1951 -0.6654
 6341SOL     OW19921   2.211   4.841   4.843  0.2594  0.5696  0.0516
 6341SOL    HW119922   2.300   4.887   4.849 -0.0157  1.4782 -2.0613
 6341SOL    HW219923   2.205   4.792   4.756 -1.1039  0.0528  0.4172
 6342SOL     OW19924   4.228   0.585   1.962  0.4281  0.0824 -0.3097
 6342SOL    HW119925   4.292   0.565   1.888 -0.9561  0.5790 -1.6649
 6342SOL    HW219926   4.135   0.560   1.935  0.0664 -1.3546  1.8973
 6343SOL     OW19927   2.132   2.693   0.056 -0.2071  0.1932  0.5486
 6343SOL    HW119928   2.225   2.664   0.032 -0.5585 -0.1704 -0.4264
 6343SOL    HW219929   2.089   2.622   0.112  0.2322  0.5419  1.3421
 6344SOL     OW19930   3.008   1.140   2.771  0.2701 -0.2478  0.1094
 6344SOL    HW119931   3.056   1.166   2.855  0.1939  1.6142 -0.3876
 6344SOL    HW219932   2.930   1.202   2.756  0.2333 -0.5975 -1.2919
 6345SOL     OW19933   6.630   4.337   5.080 -0.2641  0.0840  0.1844
 6345SOL    HW119934   6.551   4.354   5.138  0.1463  1.9965  0.2449
 6345SOL    HW219935   6.686   4.265   5.121  0.0037  1.3489  2.2026
 6346SOL     OW19936   6.862   4.508   3.794 -0.4432  0.0919 -0.4183
 6346SOL    HW119937   6.930   4.578   3.817  1.1346 -0.5525 -2.7498
 6346SOL    HW219938   6.900   4.417   3.814 -1.5418 -0.2181  0.3556
 6347SOL     OW19939   0.231   1.183   2.970 -0.4561  0.3083 -0.4867
 6347SOL    HW119940   0.259   1.093   3.002 -0.8003  0.5957  0.6702
 6347SOL    HW219941   0.177   1.173   2.886 -0.7884 -0.5915 -0.1796
 6348SOL     OW19942   5.325   2.950   1.073  0.3154 -0.3109  0.3188
 6348SOL    HW119943   5.389   2.876   1.053  0.7584  0.7722 -2.9197
 6348SOL    HW219944   5.366   3.037   1.046 -1.8971  0.5745 -0.4028
 6349SOL     OW19945   0.563   1.552   0.636 -0.1740  0.3768  0.5284
 6349SOL    HW119946   0.489   1.486   0.649 -0.8413  1.0829  0.4313
 6349SOL    HW219947   0.581   1.562   0.538 -0.8826  1.1931  0.4730
 6350SOL     OW19948   0.284   1.332   0.013 -0.3140  0.1590 -0.1959
 6350SOL    HW119949   0.205   1.393   0.016 -0.1199  0.4138 -0.1970
 6350SOL    HW219950   0.302   1.296   0.104 -1.1796 -0.8756 -0.4180
 6351SOL     OW19951   5.511   1.428   3.145  0.0907 -0.1983  0.2149
 6351SOL    HW119952   5.563   1.513   3.142  0.6232 -0.5457 -1.6124
 6351SOL    HW219953   5.419   1.444   3.110 -0.1014 -0.2020  0.7063
 6352SOL     OW19954   2.577   0.911   6.102 -0.0477 -0.6090  0.2223
 6352SOL    HW119955   2.572   0.812   6.090  0.5524 -0.5475 -0.6375
 6352SOL    HW219956   2.629   0.932   6.185  1.2668 -1.0217 -0.4657
 6353SOL     OW19957   4.159   0.790   5.863 -0.1892  0.2259  0.5508
 6353SOL    HW119958   4.155   0.870   5.922  0.9139  0.2298  0.6472
 6353SOL    HW219959   4.210   0.813   5.780  0.0751 -0.3579  0.5506
 6354SOL     OW19960   6.069   6.008   4.263  0.1459 -0.1040  0.7309
 6354SOL    HW119961   6.150   6.061   4.236  0.4751 -0.1862  1.5344
 6354SOL    HW219962   6.099   5.925   4.310 -0.2621 -1.9767 -2.0436
 6355SOL     OW19963   5.085   5.046   5.378 -0.4733 -0.1130 -0.1011
 6355SOL    HW119964   5.165   5.010   5.330  0.0509 -0.4463  0.9895
 6355SOL    HW219965   5.068   4.991   5.459 -1.1106  0.6633  0.2993
 6356SOL     OW19966   6.481   6.706   6.172  0.4346 -0.1611 -0.9264
 6356SOL    HW119967   6.478   6.664   6.081 -0.6611  1.2299 -1.5785
 6356SOL    HW219968   6.390   6.702   6.213  0.4162  1.0760 -0.7998
 6357SOL     OW19969   5.978   2.910   1.494 -0.2052 -0.0525  0.1208
 6357SOL    HW119970   6.038   2.961   1.432  0.3816  0.7324  1.3002
 6357SOL    HW219971   6.031   2.876   1.571 -1.3145  1.0045  1.4091
 6358SOL     OW19972   1.448   2.044   5.653 -0.1121  0.1447 -0.1426
 6358SOL    HW119973   1.464   2.100   5.572  0.3338 -1.1773 -0.9822
 6358SOL    HW219974   1.366   2.077   5.700  0.6319  2.0911 -0.0828
 6359SOL     OW19975   0.250   3.688   1.561 -0.7422 -0.0802  0.4866
 6359SOL    HW119976   0.309   3.757   1.519 -0.8414  0.4359  1.1709
 6359SOL    HW219977   0.211   3.725   1.646  0.0400 -1.3381  1.4284
 6360SOL     OW19978   3.057   2.079   0.056 -0.6544  0.7592  0.4677
 6360SOL    HW119979   3.109   2.164   0.069  0.2649 -0.0672  2.6788
 6360SOL    HW219980   3.106   2.021  -0.009  0.2555  0.7605  1.1291
 6361SOL     OW19981   7.020   1.614   2.789  0.4887  0.5576  0.3036
 6361SOL    HW119982   6.957   1.606   2.866 -0.2172 -0.4807 -0.3670
 6361SOL    HW219983   6.969   1.642   2.707  1.3763  2.6407  0.3886
 6362SOL     OW19984   3.642   4.473   0.304  0.6521 -0.4701 -0.3956
 6362SOL    HW119985   3.693   4.470   0.390 -0.3990 -0.8619  0.2333
 6362SOL    HW219986   3.547   4.449   0.321 -0.0444  1.4022 -1.3323
 6363SOL     OW19987   2.508   6.440   2.522  0.3094 -0.4778 -0.0569
 6363SOL    HW119988   2.500   6.525   2.573 -2.4596 -0.4507 -0.4003
 6363SOL    HW219989   2.518   6.459   2.424  1.8850 -0.5781  0.0537
 6364SOL     OW19990   2.884   2.254   3.575 -0.2315 -0.3604  0.7526
 6364SOL    HW119991   2.936   2.182   3.527  2.6608  0.1794  2.7595
 6364SOL    HW219992   2.868   2.330   3.513  0.5509 -0.9590 -0.2365
 6365SOL     OW19993   0.001   0.982   1.367 -0.4597  0.0082 -0.1967
 6365SOL    HW119994   0.002   1.033   1.281 -0.8819  1.5691  0.6800
 6365SOL    HW219995  -0.092   0.981   1.404 -0.3683 -1.0507  0.0209
 6366SOL     OW19996   1.883   1.167   4.570  0.3450  0.1195  0.9961
 6366SOL    HW119997   1.873   1.174   4.670  3.2123  0.0834  1.3696
 6366SOL    HW219998   1.902   1.257   4.532 -0.2710  0.0597  0.5446
 6367SOL     OW19999   1.921   1.513   3.814  0.6373  0.3908  0.1538
 6367SOL    HW120000   1.983   1.557   3.879  1.7915  0.2141 -0.7866
 6367SOL    HW220001   1.891   1.425   3.850  1.0417  0.4199  0.5682
 6368SOL     OW20002   6.198   3.686   5.801 -0.0669  0.1107  0.4976
 6368SOL    HW120003   6.159   3.744   5.872  0.8775  0.4020  0.7794
 6368SOL    HW220004   6.123   3.644   5.748 -0.7697  1.6354  0.2226
 6369SOL     OW20005   2.574   5.549   1.629  0.7164  0.5265 -0.6179
 6369SOL    HW120006   2.647   5.570   1.564  0.6199  2.6104 -0.1113
 6369SOL    HW220007   2.603   5.573   1.721 -0.9573  2.4534 -0.5289
 6370SOL     OW20008   0.767   2.067   6.266 -0.1206  0.4168  0.3266
 6370SOL    HW120009   0.712   2.111   6.338 -2.1451 -0.8023 -0.3844
 6370SOL    HW220010   0.791   1.974   6.295  1.8942  1.0171  0.7347
 6371SOL     OW20011   6.513   4.524   1.676  0.3317  0.1626 -0.3394
 6371SOL    HW120012   6.435   4.463   1.660  1.2159 -1.4154  1.1153
 6371SOL    HW220013   6.492   4.584   1.754  0.1761  0.4631 -0.6102
 6372SOL     OW20014   3.811   1.318   6.806 -0.2312 -0.1155 -0.0502
 6372SOL    HW120015   3.911   1.328   6.801 -0.1638 -0.6753  0.1371
 6372SOL    HW220016   3.774   1.311   6.714 -0.3633  2.4770 -0.2702
 6373SOL     OW20017   4.819   3.353   0.881  0.1861 -0.1808  0.3271
 6373SOL    HW120018   4.908   3.368   0.924  0.0535 -1.3005  1.0302
 6373SOL    HW220019   4.772   3.277   0.927 -0.7568 -0.1887 -0.6128
 6374SOL     OW20020   3.133   3.222   6.902  0.5164 -0.0215  0.4795
 6374SOL    HW120021   3.221   3.266   6.916  0.2514  0.6919 -0.0061
 6374SOL    HW220022   3.062   3.292   6.893  0.1399 -0.5326 -0.6981
 6375SOL     OW20023   3.929   2.310   1.771  0.1715  0.4490 -0.2767
 6375SOL    HW120024   3.973   2.249   1.837  1.0998  1.4480  0.0603
 6375SOL    HW220025   3.835   2.327   1.798 -0.4147 -1.5363 -0.8737
 6376SOL     OW20026   3.582   4.176   0.200  0.7990  0.3006 -0.0400
 6376SOL    HW120027   3.499   4.232   0.201  1.7674  1.7645  0.0088
 6376SOL    HW220028   3.654   4.221   0.253  1.8061 -0.6784 -0.5396
 6377SOL     OW20029   0.233   2.363   0.836 -0.4507  0.1423 -0.3164
 6377SOL    HW120030   0.174   2.423   0.781  0.5141  1.7168  0.2915
 6377SOL    HW220031   0.329   2.388   0.822 -0.0260 -1.2205  0.0297
 6378SOL     OW20032   5.570   3.206   3.708 -0.2486  0.1874 -0.0828
 6378SOL    HW120033   5.551   3.146   3.785 -0.5147 -0.1349 -0.3974
 6378SOL    HW220034   5.561   3.155   3.622  0.1472  0.5142 -0.3240
 6379SOL     OW20035   3.544   4.746   0.614  0.1570 -0.0831 -0.0116
 6379SOL    HW120036   3.489   4.704   0.686 -1.4578  1.8028 -0.0581
 6379SOL    HW220037   3.517   4.709   0.525 -1.0405  0.7753 -0.0250
 6380SOL     OW20038   1.150   4.111   5.410  0.3106  0.1188 -0.5487
 6380SOL    HW120039   1.236   4.111   5.459 -0.3164  0.1345  0.5787
 6380SOL    HW220040   1.168   4.106   5.311  1.6394  1.5583 -0.4275
 6381SOL     OW20041   3.092   4.432   1.058 -0.2295 -0.3702  0.2465
 6381SOL    HW120042   3.121   4.421   1.153 -0.9930  0.7496  0.6320
 6381SOL    HW220043   3.111   4.348   1.007  2.0436 -0.2966  0.8775
 6382SOL     OW20044   2.008   2.146   2.485  0.2276  0.3220  0.1240
 6382SOL    HW120045   2.069   2.180   2.556  0.7151  0.9639 -0.5855
 6382SOL    HW220046   1.918   2.128   2.525  0.6335  0.1668  1.0041
 6383SOL     OW20047   4.142   2.129   2.675 -0.8240  0.1674  0.9302
 6383SOL    HW120048   4.084   2.119   2.595  0.6985 -1.4968 -0.0146
 6383SOL    HW220049   4.168   2.039   2.710  1.7851  0.8057  0.8518
 6384SOL     OW20050   5.498   1.399   1.426  0.0605  0.3452  0.5590
 6384SOL    HW120051   5.472   1.325   1.363  1.6024 -0.5067  0.8719
 6384SOL    HW220052   5.581   1.443   1.393  0.8215 -0.0244  1.8974
 6385SOL     OW20053   1.874   1.526   6.679  0.2044  0.0093  0.3007
 6385SOL    HW120054   1.967   1.554   6.702  1.2691 -0.6890 -2.7244
 6385SOL    HW220055   1.854   1.438   6.723  0.4706  0.7425  1.9534
 6386SOL     OW20056   1.427   5.653   7.004  0.3546  0.2251 -0.7928
 6386SOL    HW120057   1.488   5.594   6.951  0.0797  0.6995 -1.6744
 6386SOL    HW220058   1.463   5.665   7.096 -0.3187 -2.4716 -0.0792
 6387SOL     OW20059   6.205   1.000   4.128  0.0839 -0.3167  0.4741
 6387SOL    HW120060   6.287   0.986   4.073 -0.5593 -0.2004 -0.5301
 6387SOL    HW220061   6.197   1.097   4.151 -0.3157 -0.1535 -0.3156
 6388SOL     OW20062   5.931   5.421   3.283 -0.1284  0.1875  0.0035
 6388SOL    HW120063   5.871   5.486   3.237  0.3971 -1.1996 -2.8659
 6388SOL    HW220064   6.022   5.462   3.293 -0.1449  0.3755 -0.5638
 6389SOL     OW20065   6.305   6.970   0.567 -0.6015  0.7865 -0.5187
 6389SOL    HW120066   6.216   7.015   0.561 -1.0768 -0.1542 -0.6977
 6389SOL    HW220067   6.307   6.909   0.646 -0.1181  0.7830 -0.5292
 6390SOL     OW20068   5.944   6.279   6.567  0.4224 -0.1780 -0.2852
 6390SOL    HW120069   5.955   6.331   6.482  0.7898  0.4487  0.1384
 6390SOL    HW220070   6.012   6.309   6.634  1.2389 -1.8277 -0.3166
 6391SOL     OW20071   1.447   1.160   5.446  0.0688  0.1749  0.4528
 6391SOL    HW120072   1.483   1.123   5.360  1.4498  0.5766  0.8281
 6391SOL    HW220073   1.365   1.213   5.428  1.0307  1.3003 -0.8038
 6392SOL     OW20074   4.835   6.562   2.788  0.4749  0.1770  0.2463
 6392SOL    HW120075   4.849   6.512   2.873  0.6077  0.9867  0.7125
 6392SOL    HW220076   4.738   6.569   2.768  0.2755  2.0495  1.6220
 6393SOL     OW20077   1.110   4.532   3.220  0.0382  0.3647 -0.3068
 6393SOL    HW120078   1.130   4.440   3.254 -1.0976  0.4940  0.8116
 6393SOL    HW220079   1.132   4.538   3.123  2.5677 -0.3059  0.1748
 6394SOL     OW20080   3.075   0.027   3.567  0.1694 -0.0858 -0.0108
 6394SOL    HW120081   3.104  -0.064   3.597 -0.7631 -0.4382 -0.1337
 6394SOL    HW220082   3.085   0.092   3.643  1.6761 -0.0840 -0.1856
 6395SOL     OW20083   1.442   2.720   5.136  0.5716  0.0214  0.1478
 6395SOL    HW120084   1.450   2.819   5.137  0.8883  0.0018 -0.1616
 6395SOL    HW220085   1.533   2.679   5.126  0.3859 -0.2831 -0.3753
 6396SOL     OW20086   1.392   2.481   5.308  0.0157  0.0388  0.3144
 6396SOL    HW120087   1.414   2.572   5.274  1.1192 -0.0314  0.8085
 6396SOL    HW220088   1.358   2.488   5.402  0.2074 -0.0730  0.3911
 6397SOL     OW20089   1.622   4.309   5.157  0.3494 -0.0823 -0.0836
 6397SOL    HW120090   1.565   4.290   5.237 -1.7182 -0.7530 -1.6266
 6397SOL    HW220091   1.695   4.372   5.183 -1.0782  0.8454  2.0089
 6398SOL     OW20092   0.520   6.156   2.562 -0.2216 -0.0899  0.6351
 6398SOL    HW120093   0.595   6.089   2.567 -0.5867 -0.6927 -1.1589
 6398SOL    HW220094   0.503   6.179   2.466 -0.3080  2.3955  1.1908
 6399SOL     OW20095   1.896   0.272   0.196 -0.2534  0.5164 -0.5213
 6399SOL    HW120096   1.992   0.250   0.212 -0.5491  1.0268  2.7295
 6399SOL    HW220097   1.841   0.188   0.197 -0.0759  0.4003  0.0901
 6400SOL     OW20098   3.182   0.690   3.025 -0.0266  0.3758  0.1157
 6400SOL    HW120099   3.098   0.742   3.034 -0.7266 -0.4095 -1.4247
 6400SOL    HW220100   3.164   0.607   2.972  1.5540 -0.2270  0.4597
 6401SOL     OW20101   5.682   5.488   3.955  0.3155  0.1070  0.4237
 6401SOL    HW120102   5.686   5.408   4.014 -0.2428  0.9851  1.7265
 6401SOL    HW220103   5.593   5.492   3.910  0.4848 -0.2011  0.0613
 6402SOL     OW20104   5.004   3.038   5.703  0.2673 -0.6065 -0.6395
 6402SOL    HW120105   5.034   2.951   5.664 -0.7175 -0.8681 -0.8370
 6402SOL    HW220106   4.963   3.022   5.793 -0.1145 -0.3709 -0.7706
 6403SOL     OW20107   3.900   5.980   5.264 -0.9567  0.5734  0.0306
 6403SOL    HW120108   3.841   5.966   5.344 -0.6012 -1.3811 -0.0005
 6403SOL    HW220109   3.986   5.930   5.277 -0.5838  0.8559 -1.2421
 6404SOL     OW20110   6.908   6.038   5.877 -0.1815 -0.2515 -0.3541
 6404SOL    HW120111   6.925   6.035   5.778  0.0869 -1.3239 -0.2911
 6404SOL    HW220112   6.990   6.070   5.924 -0.3959  0.5106 -0.4958
 6405SOL     OW20113   3.330   2.126   3.832 -0.4675  0.0903  0.2296
 6405SOL    HW120114   3.298   2.208   3.880 -0.3349  1.0986 -1.3397
 6405SOL    HW220115   3.275   2.112   3.750  1.2909  0.2550 -1.0222
 6406SOL     OW20116   0.143   4.165   1.278  0.7654  1.0946 -0.0713
 6406SOL    HW120117   0.202   4.090   1.309  0.2797  0.9153  0.4429
 6406SOL    HW220118   0.047   4.139   1.290  0.5364  0.9574 -1.8998
 6407SOL     OW20119   1.703   0.020   1.430  0.1510 -0.0297 -0.0331
 6407SOL    HW120120   1.712   0.067   1.518 -0.9967  2.2943 -1.0895
 6407SOL    HW220121   1.612  -0.022   1.424  0.2509 -0.2379 -0.1190
 6408SOL     OW20122   6.797   0.255   1.373  0.1252  0.1155 -0.1174
 6408SOL    HW120123   6.856   0.193   1.321 -0.9993 -0.6117 -0.5580
 6408SOL    HW220124   6.730   0.297   1.312 -1.2593 -0.8121  0.7111
 6409SOL     OW20125   1.115   3.441   3.005  0.2518  0.0493 -0.0579
 6409SOL    HW120126   1.118   3.419   2.908 -1.4236 -1.4202  0.1762
 6409SOL    HW220127   1.209   3.448   3.041  0.8767 -0.4545 -1.5391
 6410SOL     OW20128   2.913   0.748   7.011 -0.4793 -0.4664 -0.1775
 6410SOL    HW120129   2.932   0.662   7.059 -0.4830  0.3053  1.2584
 6410SOL    HW220130   2.956   0.746   6.921 -0.3483 -1.9022 -0.1058
 6411SOL     OW20131   1.398   1.600   4.843 -0.2209 -0.1093  0.8191
 6411SOL    HW120132   1.362   1.686   4.879  1.5628 -0.3437  3.4040
 6411SOL    HW220133   1.342   1.524   4.877  1.3220 -0.3113  3.0962
 6412SOL     OW20134   5.409   5.645   5.298  0.1153  0.0716 -0.2014
 6412SOL    HW120135   5.417   5.743   5.312  2.1570 -0.0890  0.0317
 6412SOL    HW220136   5.398   5.599   5.386 -1.5513  0.1050 -0.3579
 6413SOL     OW20137   5.269   6.899   1.663  0.2377  0.0792  0.8912
 6413SOL    HW120138   5.312   6.813   1.688  0.9646 -0.1221 -0.9049
 6413SOL    HW220139   5.324   6.945   1.593 -0.4720  1.6958  1.3450
 6414SOL     OW20140   2.464   5.959   6.843 -0.2498  0.2885  0.0206
 6414SOL    HW120141   2.436   6.031   6.906  0.7189  1.3086 -0.6664
 6414SOL    HW220142   2.556   5.929   6.866 -0.0298  0.4157 -0.6660
 6415SOL     OW20143   0.913   0.356   3.239  0.0311  0.3179  0.2613
 6415SOL    HW120144   0.943   0.270   3.198 -0.4754  0.3602 -0.2106
 6415SOL    HW220145   0.987   0.423   3.233 -0.0728  0.3647 -0.7218
 6416SOL     OW20146   2.761   3.310   0.381 -0.5446  0.6772 -0.2196
 6416SOL    HW120147   2.770   3.264   0.293 -0.2581  0.7928 -0.2520
 6416SOL    HW220148   2.747   3.242   0.453  0.7348  0.4575 -0.1449
 6417SOL     OW20149   5.991   2.631   5.007 -0.5804  0.1848  0.0156
 6417SOL    HW120150   5.945   2.702   4.952 -1.6120  0.8488  1.6529
 6417SOL    HW220151   6.090   2.639   4.995 -0.7253  1.1824 -0.7054
 6418SOL     OW20152   5.587   6.250   6.156 -0.1548 -0.4574  0.2946
 6418SOL    HW120153   5.601   6.153   6.175 -0.8046 -0.3544  1.4008
 6418SOL    HW220154   5.497   6.278   6.191  0.5033  0.8041  1.0473
 6419SOL     OW20155   1.547   0.271   6.024  0.4901  0.5026 -0.1839
 6419SOL    HW120156   1.591   0.357   5.998  0.1906  0.2238 -1.7046
 6419SOL    HW220157   1.516   0.277   6.118 -1.7538  3.0468 -0.9594
 6420SOL     OW20158   2.744   6.948   4.612 -0.1851 -0.3548 -0.5429
 6420SOL    HW120159   2.840   6.930   4.592 -0.4309 -1.1598 -1.0637
 6420SOL    HW220160   2.688   6.920   4.534 -0.9271 -0.8325  0.1457
 6421SOL     OW20161   3.910   0.071   1.332  0.4177 -0.7612  0.2846
 6421SOL    HW120162   3.932  -0.026   1.342  1.9758 -0.2797  2.0887
 6421SOL    HW220163   3.912   0.096   1.236 -0.3659 -2.5704 -0.2487
 6422SOL     OW20164   2.378   2.396   6.029 -0.2471 -0.2589  0.5948
 6422SOL    HW120165   2.386   2.351   6.118 -0.8700 -0.7535  0.4028
 6422SOL    HW220166   2.329   2.337   5.965 -1.5923  0.9126  0.4968
 6423SOL     OW20167   0.685   3.647   3.181  0.2255 -0.1113  0.3036
 6423SOL    HW120168   0.614   3.688   3.125  0.3484  2.7284  1.9854
 6423SOL    HW220169   0.770   3.641   3.128 -0.8084 -2.1489 -1.2501
 6424SOL     OW20170   5.514   2.987   6.904 -0.2134 -0.2877  0.3325
 6424SOL    HW120171   5.446   3.020   6.839 -1.4910 -1.9843  0.7325
 6424SOL    HW220172   5.559   2.906   6.866  0.4282 -0.1459  0.7713
 6425SOL     OW20173   0.038   0.533   4.197 -0.2042 -0.3194 -0.2115
 6425SOL    HW120174   0.007   0.609   4.254 -0.6939 -1.4910  1.1313
 6425SOL    HW220175   0.022   0.556   4.101 -0.5106  1.1887  0.1683
 6426SOL     OW20176   5.083   5.998   2.319  0.2402  0.0500 -0.5357
 6426SOL    HW120177   4.985   5.983   2.306 -0.0750  2.0312 -0.8909
 6426SOL    HW220178   5.112   6.076   2.264  1.4930  1.0251  1.3785
 6427SOL     OW20179   3.136   3.558   2.103 -0.2860 -0.0011 -0.2965
 6427SOL    HW120180   3.155   3.656   2.094  0.6174 -0.1930 -0.5790
 6427SOL    HW220181   3.221   3.510   2.122 -0.8903 -0.6037  1.0569
 6428SOL     OW20182   0.266   3.300   1.262  0.0775  0.1003  0.1633
 6428SOL    HW120183   0.344   3.239   1.249 -1.1310 -1.0421 -2.4370
 6428SOL    HW220184   0.181   3.253   1.238 -1.0794  2.3091 -0.4415
 6429SOL     OW20185   2.222   0.075   4.794  0.1231  0.1608  0.3810
 6429SOL    HW120186   2.140   0.107   4.841 -1.2711 -2.1233 -0.3473
 6429SOL    HW220187   2.270   0.008   4.851  0.7345  0.4792  0.2499
 6430SOL     OW20188   6.504   1.446   3.453  0.1578 -0.3657  0.2065
 6430SOL    HW120189   6.603   1.445   3.469  0.0620 -2.2500  0.9620
 6430SOL    HW220190   6.457   1.472   3.537 -0.0232 -0.6828  0.2057
 6431SOL     OW20191   3.162   0.010   1.448 -0.1684  0.6349 -0.0126
 6431SOL    HW120192   3.083   0.030   1.506 -1.2239  0.0458 -1.1864
 6431SOL    HW220193   3.167  -0.089   1.433  0.9174  0.6464  0.1832
 6432SOL     OW20194   3.373   3.903   0.671  0.5371  0.0525 -0.3896
 6432SOL    HW120195   3.363   3.855   0.584  1.6731 -3.3309  1.1744
 6432SOL    HW220196   3.427   3.986   0.656  1.0311 -0.6148 -2.8446
 6433SOL     OW20197   1.746   5.998   0.470  0.3488 -0.2496 -0.1886
 6433SOL    HW120198   1.714   6.073   0.413  1.3787  0.7663  0.5353
 6433SOL    HW220199   1.844   5.984   0.454  0.3938 -0.7385  0.4838
 6434SOL     OW20200   6.753   5.959   4.752  0.3980 -0.1424 -0.2780
 6434SOL    HW120201   6.838   5.915   4.722 -0.2199 -1.1001 -0.6887
 6434SOL    HW220202   6.716   5.910   4.831  1.1026  1.3153  0.9999
 6435SOL     OW20203   4.078   2.913   6.962  0.1678 -0.1813 -0.0185
 6435SOL    HW120204   4.109   2.847   7.030 -2.7794 -0.1379  1.4827
 6435SOL    HW220205   4.029   2.866   6.889 -0.4952  0.1843  0.1873
 6436SOL     OW20206   1.686   0.817   3.802  0.7568 -0.6689 -0.3128
 6436SOL    HW120207   1.777   0.839   3.838 -0.0782  1.5956  0.6500
 6436SOL    HW220208   1.624   0.799   3.879  0.6249 -3.5382 -0.9909
 6437SOL     OW20209   0.335   1.924   0.300  0.0394 -0.0636  0.2931
 6437SOL    HW120210   0.417   1.935   0.243 -0.5473 -2.0318 -1.0313
 6437SOL    HW220211   0.255   1.954   0.248 -0.1725  1.6698  1.5184
 6438SOL     OW20212   2.316   4.227   2.665 -0.3260 -0.5222  0.0793
 6438SOL    HW120213   2.223   4.208   2.698 -0.3089 -0.4067  0.1969
 6438SOL    HW220214   2.372   4.145   2.674 -0.1117 -0.2823  1.0682
 6439SOL     OW20215   3.672   5.987   4.664 -0.0625 -0.2810 -0.0936
 6439SOL    HW120216   3.645   6.082   4.657  1.3600  0.1424 -0.1794
 6439SOL    HW220217   3.666   5.957   4.759  1.3615  0.5082  0.2675
 6440SOL     OW20218   0.337   2.505   5.200 -0.2530  1.0459 -0.0059
 6440SOL    HW120219   0.279   2.561   5.259 -1.3489  0.0713 -0.1331
 6440SOL    HW220220   0.424   2.488   5.245 -0.6909  1.1549  0.8902
 6441SOL     OW20221   0.765   2.241   2.894 -0.4234 -0.3374  0.2748
 6441SOL    HW120222   0.799   2.200   2.810  0.2663  1.6018 -0.4395
 6441SOL    HW220223   0.678   2.198   2.919  0.0087 -1.8427 -0.6784
 6442SOL     OW20224   4.443   1.567   3.511 -0.3501 -0.3689 -0.0437
 6442SOL    HW120225   4.437   1.665   3.491 -0.4645 -0.2050  0.7493
 6442SOL    HW220226   4.527   1.549   3.562 -0.3201 -0.6906 -0.2061
 6443SOL     OW20227   2.589   1.073   5.880  0.6115 -0.4362 -0.3513
 6443SOL    HW120228   2.588   1.002   5.951  0.5934 -1.3231 -1.2128
 6443SOL    HW220229   2.655   1.048   5.809 -0.3633 -0.2784 -1.3395
 6444SOL     OW20230   6.752   2.794   6.928 -0.3858 -0.3016 -0.0862
 6444SOL    HW120231   6.847   2.769   6.945 -0.6160 -1.6877 -0.7122
 6444SOL    HW220232   6.748   2.862   6.855  0.1085 -0.4564 -0.2622
 6445SOL     OW20233   3.135   3.946   3.663 -0.4965 -0.0248  0.0327
 6445SOL    HW120234   3.097   3.990   3.744 -2.1009  1.2265 -1.3319
 6445SOL    HW220235   3.228   3.981   3.646 -0.0052 -0.5658  1.4913
 6446SOL     OW20236   6.524   0.302   2.310 -0.0375 -0.2934  0.0959
 6446SOL    HW120237   6.518   0.350   2.223 -1.0700 -2.8116 -1.3153
 6446SOL    HW220238   6.439   0.251   2.327  1.5428 -2.9854  0.5801
 6447SOL     OW20239   0.588   2.869   0.904  0.0277 -0.0748 -0.3204
 6447SOL    HW120240   0.607   2.954   0.855 -0.1782 -0.2691 -0.7408
 6447SOL    HW220241   0.654   2.859   0.978  1.4522 -0.6147 -1.6121
 6448SOL     OW20242   4.034   5.606   1.525  0.4237 -0.0258 -0.2947
 6448SOL    HW120243   3.955   5.578   1.580  0.7331 -1.3986 -0.5330
 6448SOL    HW220244   4.034   5.706   1.516  0.9181  0.3608  3.0022
 6449SOL     OW20245   3.965   0.067   6.279  0.2184 -0.1171 -0.0805
 6449SOL    HW120246   3.909   0.137   6.323 -2.1803 -2.1083  0.2642
 6449SOL    HW220247   4.052   0.058   6.329 -0.6944  0.5362  1.7377
 6450SOL     OW20248   0.675   4.829   0.914  0.1843  0.4354  0.7040
 6450SOL    HW120249   0.712   4.785   0.996  0.9651  1.4987  0.9367
 6450SOL    HW220250   0.701   4.925   0.912 -0.6714  0.6700 -0.2953
 6451SOL     OW20251   4.197   2.840   0.817  0.6113 -0.2350  0.0569
 6451SOL    HW120252   4.200   2.742   0.798  0.8611 -0.2893  0.3637
 6451SOL    HW220253   4.103   2.872   0.810  0.4623 -0.5870  0.3973
 6452SOL     OW20254   5.840   3.158   2.772  0.7292 -0.1661 -0.4587
 6452SOL    HW120255   5.836   3.171   2.673  2.2516 -0.0650 -0.5437
 6452SOL    HW220256   5.749   3.139   2.808  0.3915 -1.8915 -2.1130
 6453SOL     OW20257   3.146   0.181   3.783  0.0429 -0.1057  0.0257
 6453SOL    HW120258   3.172   0.183   3.880  0.2689 -0.9597 -0.0113
 6453SOL    HW220259   3.087   0.259   3.763 -1.7366 -1.0299  1.3353
 6454SOL     OW20260   5.648   2.215   5.509  0.0634  0.0375  0.1511
 6454SOL    HW120261   5.673   2.126   5.472 -0.3911 -0.9510  2.0518
 6454SOL    HW220262   5.581   2.202   5.583  1.7298  1.7104  2.0866
 6455SOL     OW20263   0.472   2.157   5.396 -0.1699 -0.5574 -0.3087
 6455SOL    HW120264   0.398   2.188   5.336  0.3844 -1.4148 -1.4825
 6455SOL    HW220265   0.469   2.208   5.481 -1.3511  0.2905 -0.8243
 6456SOL     OW20266   5.684   2.830   3.840  0.4121  0.3629  0.0522
 6456SOL    HW120267   5.611   2.863   3.901  0.6271  0.6602  0.1522
 6456SOL    HW220268   5.752   2.779   3.892  0.2524  0.0449 -0.0493
 6457SOL     OW20269   2.297   4.903   1.593  0.5334 -0.5912 -0.1119
 6457SOL    HW120270   2.200   4.926   1.578  0.9381  1.2783 -0.2037
 6457SOL    HW220271   2.306   4.806   1.615 -1.5519 -0.4511  1.6983
 6458SOL     OW20272   6.528   6.852   4.507 -0.2700 -0.2883 -0.1274
 6458SOL    HW120273   6.617   6.829   4.545  0.0250  1.1685  0.1191
 6458SOL    HW220274   6.457   6.800   4.556  0.4332 -1.6830 -0.5327
 6459SOL     OW20275   1.095   2.988   4.212  0.4461  0.0167 -0.6229
 6459SOL    HW120276   1.180   2.936   4.203  0.2770 -0.8621  1.9564
 6459SOL    HW220277   1.104   3.056   4.285 -1.5720 -1.4208  1.1125
 6460SOL     OW20278   1.510   5.038   1.322 -0.0684  0.0372  0.5819
 6460SOL    HW120279   1.558   5.123   1.342  1.7103 -0.5449 -0.8957
 6460SOL    HW220280   1.543   4.966   1.383  0.8327 -0.3115 -0.2888
 6461SOL     OW20281   5.138   2.123   1.879 -0.1443  1.0605 -0.1516
 6461SOL    HW120282   5.213   2.101   1.942  0.4665 -0.3423 -1.2979
 6461SOL    HW220283   5.175   2.152   1.791 -0.8121 -1.4077 -1.3542
 6462SOL     OW20284   4.405   3.601   5.255  0.0292 -0.1161  0.5059
 6462SOL    HW120285   4.500   3.591   5.225  0.7075 -1.4522  2.8395
 6462SOL    HW220286   4.383   3.698   5.264  1.7911  0.2210  1.6420
 6463SOL     OW20287   5.561   3.286   1.367  0.3679  0.0100  0.0744
 6463SOL    HW120288   5.641   3.240   1.329  0.3917  0.6476 -0.6828
 6463SOL    HW220289   5.589   3.344   1.444  0.2296 -1.7744  1.5389
 6464SOL     OW20290   7.023   1.830   3.061 -0.3250 -0.2904  0.2427
 6464SOL    HW120291   6.960   1.754   3.044  0.4343 -0.4227 -2.4179
 6464SOL    HW220292   6.984   1.891   3.129 -1.8792 -1.9905  0.9608
 6465SOL     OW20293   1.707   0.521   3.422  0.3329 -0.1256  0.1500
 6465SOL    HW120294   1.632   0.574   3.381  1.1783  0.8925 -0.1135
 6465SOL    HW220295   1.677   0.485   3.511  0.2283  2.1376  1.0959
 6466SOL     OW20296   6.982   4.712   6.961  0.0539  0.3717  0.3749
 6466SOL    HW120297   6.916   4.668   6.901  2.4589 -2.7116 -0.2500
 6466SOL    HW220298   6.968   4.811   6.959 -3.0373  0.0151 -1.4137
 6467SOL     OW20299   3.265   4.053   4.906  0.0107  0.1162  0.4676
 6467SOL    HW120300   3.286   4.094   4.817 -0.1954  0.4214  0.5560
 6467SOL    HW220301   3.199   3.979   4.894  0.7859 -0.5600  0.2395
 6468SOL     OW20302   0.907   1.154   4.416  0.2642 -0.2974 -0.0440
 6468SOL    HW120303   0.990   1.208   4.430 -0.7300  1.3508 -0.1701
 6468SOL    HW220304   0.869   1.175   4.325 -0.5707 -0.6387  0.2155
 6469SOL     OW20305   3.583   6.203   6.529 -0.3692  0.1661  0.1472
 6469SOL    HW120306   3.587   6.299   6.500  0.6698 -0.3067 -1.4204
 6469SOL    HW220307   3.597   6.197   6.627  2.2986  1.4654 -0.0678
 6470SOL     OW20308   6.354   1.393   6.706  0.4401 -0.0710 -0.5165
 6470SOL    HW120309   6.285   1.456   6.741  1.1940  0.9495 -0.8019
 6470SOL    HW220310   6.445   1.433   6.719  0.8166 -0.1542 -2.5682
 6471SOL     OW20311   6.291   5.112   4.006  0.0111  0.0855  0.0774
 6471SOL    HW120312   6.198   5.110   3.970 -0.1450 -2.6661  0.4380
 6471SOL    HW220313   6.288   5.128   4.105  0.0255  1.1967 -0.0920
 6472SOL     OW20314   2.343   4.266   2.065 -0.4074 -0.1987 -0.1182
 6472SOL    HW120315   2.316   4.186   2.012 -1.3550  0.9247 -1.3985
 6472SOL    HW220316   2.351   4.240   2.161  0.3199 -2.0463 -0.6258
 6473SOL     OW20317   3.523   1.565   5.000 -0.5010  0.5582 -0.3270
 6473SOL    HW120318   3.463   1.641   5.025  1.0133  1.9072 -0.5704
 6473SOL    HW220319   3.561   1.525   5.083 -0.3789  0.8726 -0.2270
 6474SOL     OW20320   4.931   0.628   3.825 -0.1751  0.1492 -0.0356
 6474SOL    HW120321   4.898   0.721   3.836  0.2566  0.3505 -0.4228
 6474SOL    HW220322   4.854   0.564   3.833 -0.5720  0.5768 -0.3623
 6475SOL     OW20323   5.164   6.474   3.516 -0.1237  0.5063  0.9858
 6475SOL    HW120324   5.128   6.534   3.444  1.5038  1.5766  1.0001
 6475SOL    HW220325   5.090   6.421   3.556 -1.2612  0.8267 -0.6097
 6476SOL     OW20326   5.272   4.972   4.056 -0.7255 -0.5627  0.3924
 6476SOL    HW120327   5.186   4.923   4.071 -1.8935  1.4761  0.8186
 6476SOL    HW220328   5.295   5.024   4.138  1.3146 -1.5877  0.5227
 6477SOL     OW20329   0.474   0.871   1.726  0.5244 -0.5562 -0.5349
 6477SOL    HW120330   0.396   0.917   1.684 -0.7975 -1.1064  1.1460
 6477SOL    HW220331   0.484   0.903   1.820  2.2518 -0.6300 -0.6699
 6478SOL     OW20332   1.042   5.071   1.626 -0.3396 -0.5643 -0.1358
 6478SOL    HW120333   1.139   5.065   1.648 -0.5572 -2.4065  0.5406
 6478SOL    HW220334   0.988   5.071   1.710 -0.9538 -0.4847 -0.5219
 6479SOL     OW20335   1.971   5.251   4.918 -0.0150  0.1459 -0.1686
 6479SOL    HW120336   1.987   5.338   4.965 -0.1489 -0.0291  0.1978
 6479SOL    HW220337   2.036   5.243   4.842 -1.5711  1.6700 -1.7424
 6480SOL     OW20338   3.718   0.575   4.085  0.2937  0.1893  0.3539
 6480SOL    HW120339   3.649   0.639   4.117  1.5687  1.5095  0.5902
 6480SOL    HW220340   3.750   0.604   3.994  0.9702 -0.0419  0.5157
 6481SOL     OW20341   4.118   4.106   0.563  0.3455 -0.3280  0.0607
 6481SOL    HW120342   4.185   4.082   0.634  0.4438 -0.0608  0.0611
 6481SOL    HW220343   4.146   4.068   0.475 -0.6194 -2.0848  0.4602
 6482SOL     OW20344   4.834   1.649   3.969 -0.4761  0.2300  0.0992
 6482SOL    HW120345   4.857   1.746   3.976  1.1705 -0.2067  1.2824
 6482SOL    HW220346   4.879   1.609   3.890  0.3716  0.0395  0.6710
 6483SOL     OW20347   1.208   0.692   6.130 -0.8085  0.1090  0.0353
 6483SOL    HW120348   1.119   0.660   6.163 -1.6635  0.1968 -2.0338
 6483SOL    HW220349   1.277   0.622   6.146 -1.1567  0.1432  1.9133
 6484SOL     OW20350   4.254   0.241   3.530  0.1575  0.6285  0.3928
 6484SOL    HW120351   4.231   0.337   3.514 -0.3292  0.0806 -3.1247
 6484SOL    HW220352   4.335   0.217   3.477  1.3158 -0.5666  2.5675
 6485SOL     OW20353   2.141   4.664   6.065  0.4393 -0.3838  0.3546
 6485SOL    HW120354   2.102   4.575   6.041  0.4262 -0.3068  0.0869
 6485SOL    HW220355   2.193   4.655   6.150 -0.7950 -0.3202  1.1468
 6486SOL     OW20356   5.196   2.654   1.779 -0.1248  0.3854  0.0151
 6486SOL    HW120357   5.266   2.591   1.745 -0.4595 -1.6420  2.7026
 6486SOL    HW220358   5.235   2.713   1.850 -0.7093  0.4352  0.3088
 6487SOL     OW20359   0.838   6.195   4.529 -0.6953  0.0163  0.1518
 6487SOL    HW120360   0.824   6.097   4.539 -0.9505 -0.0188 -0.5202
 6487SOL    HW220361   0.840   6.238   4.620  0.8986 -0.7976  0.5264
 6488SOL     OW20362   3.178   4.823   2.132 -0.2556 -0.2861 -0.4345
 6488SOL    HW120363   3.155   4.887   2.205  1.1755 -0.4338  0.1618
 6488SOL    HW220364   3.134   4.735   2.149  2.9332 -1.5248  2.3088
 6489SOL     OW20365   6.439   3.948   6.586 -0.0023 -0.1653  0.1563
 6489SOL    HW120366   6.489   4.004   6.520 -1.5261  2.2705  0.9445
 6489SOL    HW220367   6.345   3.982   6.594 -1.1354 -3.1041  0.4684
 6490SOL     OW20368   2.327   3.136   5.869 -0.1500 -0.1201  0.1532
 6490SOL    HW120369   2.249   3.164   5.925 -0.0252  1.9367 -0.6181
 6490SOL    HW220370   2.404   3.199   5.884  0.6762 -0.9060 -0.6153
 6491SOL     OW20371   0.230   5.459   2.728 -0.8456 -0.5767 -0.2368
 6491SOL    HW120372   0.259   5.382   2.670 -0.4164 -0.4014 -0.2584
 6491SOL    HW220373   0.143   5.436   2.772 -0.2341 -1.4928  0.5410
 6492SOL     OW20374   3.784   3.910   2.931  0.1125  0.0669 -0.8138
 6492SOL    HW120375   3.775   3.940   2.836 -0.9186 -0.3859 -0.8661
 6492SOL    HW220376   3.740   3.977   2.992 -1.7514 -1.0158 -0.8929
 6493SOL     OW20377   2.606   5.746   3.895  0.0450  0.0328  0.0224
 6493SOL    HW120378   2.666   5.679   3.939  0.2977  0.7188  0.7367
 6493SOL    HW220379   2.548   5.791   3.963  0.2071  0.8665 -0.3683
 6494SOL     OW20380   0.175   2.022   6.816  0.4513 -0.1293  0.2022
 6494SOL    HW120381   0.197   2.116   6.787  2.4590 -1.1433 -1.8944
 6494SOL    HW220382   0.258   1.978   6.850 -0.7970 -0.7136  2.6654
 6495SOL     OW20383   0.133   5.646   4.170 -0.0221 -0.3941 -0.2090
 6495SOL    HW120384   0.104   5.553   4.150  0.2610 -0.8596  1.4331
 6495SOL    HW220385   0.230   5.646   4.193 -0.2217  0.1674  0.6600
 6496SOL     OW20386   2.928   2.825   0.061 -0.0359  0.0074  0.0227
 6496SOL    HW120387   2.967   2.745   0.015  0.0850 -0.8960  1.6228
 6496SOL    HW220388   2.999   2.893   0.077  0.6569 -1.0779  1.7633
 6497SOL     OW20389   2.021   4.066   0.368 -0.0808 -0.4453 -0.1833
 6497SOL    HW120390   1.931   4.107   0.384 -0.6476 -1.0391 -1.6099
 6497SOL    HW220391   2.012   3.966   0.371  0.5385 -0.5067 -0.2848
 6498SOL     OW20392   3.057   6.085   3.579  0.1329  0.1589 -0.1538
 6498SOL    HW120393   3.084   6.181   3.573  0.9235 -0.1447 -1.8895
 6498SOL    HW220394   2.963   6.079   3.613 -0.2306  1.5913 -0.8340
 6499SOL     OW20395   6.570   1.644   2.942  0.0136 -0.2823  0.1824
 6499SOL    HW120396   6.553   1.672   2.847 -1.4447  0.2970  0.5847
 6499SOL    HW220397   6.488   1.600   2.979 -0.6848  2.4047  2.1670
 6500SOL     OW20398   1.282   2.637   2.365  0.2280 -0.1048 -0.1653
 6500SOL    HW120399   1.330   2.709   2.315  0.2326  0.0275  0.0301
 6500SOL    HW220400   1.346   2.562   2.384  0.8222  0.7945  1.5736
 6501SOL     OW20401   6.315   6.556   1.921  0.4919  0.0688 -0.1173
 6501SOL    HW120402   6.362   6.508   1.848  0.6942  1.9954 -1.3258
 6501SOL    HW220403   6.263   6.633   1.883  2.2264  2.4058  1.9093
 6502SOL     OW20404   6.954   0.690   3.415  0.0574 -0.2688 -0.7293
 6502SOL    HW120405   6.929   0.603   3.374  0.9810  0.4719 -3.0566
 6502SOL    HW220406   6.874   0.750   3.417 -0.0390 -0.3583 -1.4292
 6503SOL     OW20407   2.609   3.931   6.680  0.4741 -0.1310  0.0171
 6503SOL    HW120408   2.610   3.831   6.685  0.5549 -0.1428 -0.2084
 6503SOL    HW220409   2.661   3.969   6.756  0.6760 -0.2662 -0.0521
 6504SOL     OW20410   2.327   0.346   5.111  0.2227 -0.1732  0.2202
 6504SOL    HW120411   2.352   0.310   5.201  0.5596  0.1369  0.2543
 6504SOL    HW220412   2.235   0.385   5.115  0.1606 -0.3377  0.3820
 6505SOL     OW20413   6.319   0.006   1.195 -0.4782 -0.1658  0.0197
 6505SOL    HW120414   6.323   0.022   1.294 -0.8095  0.0407 -0.0014
 6505SOL    HW220415   6.390   0.059   1.150  0.6895 -1.4267  0.2918
 6506SOL     OW20416   1.786   5.903   2.406 -0.0884 -0.3033 -0.3324
 6506SOL    HW120417   1.761   5.929   2.499  1.4698 -1.5860  0.4955
 6506SOL    HW220418   1.757   5.809   2.388 -0.4661 -0.0340 -1.1896
 6507SOL     OW20419   5.174   0.468   1.446 -0.0983 -0.1879  0.1173
 6507SOL    HW120420   5.120   0.495   1.526 -1.4877  0.5290 -1.0113
 6507SOL    HW220421   5.156   0.373   1.424 -2.4824  0.4943 -1.3390
 6508SOL     OW20422   6.839   2.054   5.247 -0.3322 -0.4370  0.3693
 6508SOL    HW120423   6.864   1.993   5.323  0.1409 -1.0192 -0.2504
 6508SOL    HW220424   6.916   2.112   5.224  0.7558 -2.6136 -1.9115
 6509SOL     OW20425   3.040   4.376   6.926  0.3389 -0.1931  0.7244
 6509SOL    HW120426   3.036   4.382   6.826  2.2744 -1.1190  0.5413
 6509SOL    HW220427   3.135   4.359   6.955  0.0645  1.4452  2.8185
 6510SOL     OW20428   3.168   5.591   1.807 -0.3376 -0.0658 -0.0855
 6510SOL    HW120429   3.182   5.526   1.880 -2.1389 -0.3589  0.0493
 6510SOL    HW220430   3.181   5.546   1.718  0.0759 -0.1733  0.0312
 6511SOL     OW20431   4.812   2.463   1.176  0.2777  0.0361  0.0662
 6511SOL    HW120432   4.746   2.533   1.203  0.2269 -0.0457  0.1553
 6511SOL    HW220433   4.884   2.457   1.244 -0.3757 -0.8629  0.7047
 6512SOL     OW20434   5.391   3.515   2.273  0.3617 -0.0345 -0.7465
 6512SOL    HW120435   5.410   3.542   2.178 -1.1802  1.2977 -0.7178
 6512SOL    HW220436   5.409   3.592   2.333 -1.9304  0.2818 -0.3812
 6513SOL     OW20437   3.770   3.281   1.331  0.0600  0.0450 -0.0546
 6513SOL    HW120438   3.762   3.371   1.289  1.0069 -0.2563 -0.9281
 6513SOL    HW220439   3.723   3.281   1.420 -0.6213  1.1546 -0.3952
 6514SOL     OW20440   5.826   6.422   3.992 -0.3734  0.1506  0.1372
 6514SOL    HW120441   5.832   6.433   4.092 -1.8043 -1.1318  0.4013
 6514SOL    HW220442   5.733   6.442   3.962 -0.8736 -2.6234 -0.4514
 6515SOL     OW20443   0.213   4.885   1.135 -0.3586 -0.1546  0.2383
 6515SOL    HW120444   0.251   4.850   1.049  0.6435  1.3046  0.0581
 6515SOL    HW220445   0.218   4.813   1.205  1.8436 -0.3532 -0.0624
 6516SOL     OW20446   4.684   0.557   2.790 -0.2719 -0.0823 -0.2209
 6516SOL    HW120447   4.604   0.521   2.742 -1.0926  0.4238  0.7304
 6516SOL    HW220448   4.688   0.656   2.779  0.5987 -0.1757 -0.8039
 6517SOL     OW20449   6.063   3.645   1.496  0.5344 -0.3113  0.0434
 6517SOL    HW120450   6.017   3.569   1.451  1.4816 -0.6051 -0.4345
 6517SOL    HW220451   6.068   3.627   1.594 -0.0643 -0.4241  0.0621
 6518SOL     OW20452   1.046   0.526   3.645  0.5978 -0.2041 -0.4117
 6518SOL    HW120453   1.125   0.469   3.669  0.1149 -1.2979 -1.2933
 6518SOL    HW220454   0.973   0.467   3.609 -0.7713  0.7383  0.7129
 6519SOL     OW20455   1.710   3.051   4.015  0.1756  0.0149 -0.1098
 6519SOL    HW120456   1.774   3.127   4.019 -1.2943  1.2548  0.8503
 6519SOL    HW220457   1.671   3.045   3.923  0.3712  0.3433 -0.2159
 6520SOL     OW20458   4.873   6.122   6.234 -0.8587  0.0275 -0.0923
 6520SOL    HW120459   4.777   6.113   6.207 -0.2201 -0.3035 -2.4591
 6520SOL    HW220460   4.922   6.178   6.167  0.3852  1.2425  1.7210
 6521SOL     OW20461   2.127   3.884   4.265  0.3888  0.0452 -0.1574
 6521SOL    HW120462   2.055   3.887   4.195 -0.2269 -0.8902  0.4190
 6521SOL    HW220463   2.133   3.791   4.302 -0.0509  0.7535  1.7984
 6522SOL     OW20464   3.281   3.217   3.835 -0.1954  0.6093  0.0738
 6522SOL    HW120465   3.224   3.231   3.916  0.3504 -2.7110  1.1700
 6522SOL    HW220466   3.346   3.293   3.826 -1.6080  2.0572  1.5270
 6523SOL     OW20467   5.430   6.234   1.223 -0.2760  0.0304 -0.0229
 6523SOL    HW120468   5.520   6.191   1.230 -0.0649  0.4536 -0.1419
 6523SOL    HW220469   5.426   6.313   1.285  0.1720  1.3046 -1.5676
 6524SOL     OW20470   4.399   1.084   0.985  0.2261 -0.3018 -1.1322
 6524SOL    HW120471   4.355   1.159   0.936 -0.2872  0.7487  0.8001
 6524SOL    HW220472   4.428   1.116   1.076  0.8602 -2.2015 -0.6082
 6525SOL     OW20473   2.586   5.261   3.494 -0.4254  0.2125 -0.3681
 6525SOL    HW120474   2.633   5.292   3.576  1.5411  0.2829 -1.4637
 6525SOL    HW220475   2.487   5.273   3.505 -0.3698 -1.2215  2.5574
 6526SOL     OW20476   4.270   5.714   4.521 -0.6768 -0.8757  1.0724
 6526SOL    HW120477   4.361   5.755   4.531  0.0740 -2.1597 -0.2652
 6526SOL    HW220478   4.203   5.786   4.504  0.2758 -0.0211  0.8505
 6527SOL     OW20479   4.952   2.093   6.293  0.1797 -0.2158 -0.2075
 6527SOL    HW120480   4.862   2.073   6.252  0.6175 -0.6751 -0.9722
 6527SOL    HW220481   5.000   2.160   6.235  0.9456 -1.1242 -0.6465
 6528SOL     OW20482   6.228   0.122   6.683  0.0431  0.0086  0.3662
 6528SOL    HW120483   6.227   0.022   6.693 -1.5883 -0.0728 -0.1958
 6528SOL    HW220484   6.202   0.164   6.770  1.9928  0.0263  0.9760
 6529SOL     OW20485   4.525   6.020   6.935 -0.3127  0.9378 -0.2925
 6529SOL    HW120486   4.451   6.045   6.997  0.0487  2.1009 -0.3215
 6529SOL    HW220487   4.568   5.935   6.967 -1.2723  0.5645  0.0382
 6530SOL     OW20488   1.293   4.520   5.346  0.3481 -0.0983 -0.2537
 6530SOL    HW120489   1.205   4.511   5.394  1.8114  2.2221  3.3211
 6530SOL    HW220490   1.343   4.434   5.352 -0.6966 -0.7231 -0.1858
 6531SOL     OW20491   4.021   3.388   3.720  0.3483 -0.0332 -0.4323
 6531SOL    HW120492   4.106   3.410   3.671  0.0794  1.5380 -0.2134
 6531SOL    HW220493   4.019   3.289   3.739  4.3589  0.3410  3.6197
 6532SOL     OW20494   1.073   5.283   6.773 -0.0940  0.0908  0.5460
 6532SOL    HW120495   1.170   5.274   6.799 -0.1100 -0.5516  0.3986
 6532SOL    HW220496   1.037   5.368   6.811  1.0835  1.4303 -1.1653
 6533SOL     OW20497   5.191   6.601   1.387  0.0022 -0.2940  0.4802
 6533SOL    HW120498   5.173   6.651   1.472  0.8785  2.0313 -0.6186
 6533SOL    HW220499   5.125   6.628   1.318  1.6092  0.8741 -0.6902
 6534SOL     OW20500   6.446   3.399   5.228  0.4129 -0.4561 -0.6994
 6534SOL    HW120501   6.529   3.431   5.272  0.3150 -0.8647 -0.2121
 6534SOL    HW220502   6.369   3.406   5.291  0.1183 -0.3029 -1.0674
 6535SOL     OW20503   5.528   2.948   6.517 -0.0519 -0.3585 -0.3945
 6535SOL    HW120504   5.429   2.936   6.523  0.0595 -0.8184  0.8356
 6535SOL    HW220505   5.551   2.999   6.434 -1.5264  2.3156  0.7331
 6536SOL     OW20506   6.522   5.053   4.983  0.5702  0.3940 -0.3395
 6536SOL    HW120507   6.532   5.125   5.052  0.6035  0.4291 -0.3819
 6536SOL    HW220508   6.549   5.087   4.894  1.0128  0.1959 -0.2819
 6537SOL     OW20509   5.145   2.796   5.650 -0.1263 -0.1485 -0.3148
 6537SOL    HW120510   5.202   2.787   5.731 -0.8728  1.6731  0.4589
 6537SOL    HW220511   5.202   2.791   5.568  1.2142  1.7896  0.4328
 6538SOL     OW20512   2.755   5.092   3.204 -0.4144  0.2187  0.2273
 6538SOL    HW120513   2.812   5.022   3.249 -0.0749  0.0589 -0.4436
 6538SOL    HW220514   2.776   5.181   3.243 -0.1335  0.0798  0.3993
 6539SOL     OW20515   5.844   6.006   4.514 -0.0166  0.0674  0.1782
 6539SOL    HW120516   5.778   5.946   4.468  0.1599  0.4583 -0.5993
 6539SOL    HW220517   5.878   6.074   4.449 -0.2948  1.0818  1.0869
 6540SOL     OW20518   1.530   2.159   5.409  0.1570  0.3444  0.8081
 6540SOL    HW120519   1.516   2.185   5.313 -0.5522 -1.0690  0.5063
 6540SOL    HW220520   1.599   2.219   5.449 -2.7735  4.1505  0.8139
 6541SOL     OW20521   3.003   2.436   6.155  0.5034  0.5023  0.0046
 6541SOL    HW120522   3.068   2.457   6.082  1.0245 -1.0534 -0.0283
 6541SOL    HW220523   2.911   2.462   6.126  0.4050 -1.7561 -2.0482
 6542SOL     OW20524   2.525   4.491   1.730  0.0716  0.2798 -0.0350
 6542SOL    HW120525   2.438   4.490   1.781 -1.8036 -0.3696 -2.9663
 6542SOL    HW220526   2.561   4.584   1.728 -2.9616  1.6020 -2.2724
 6543SOL     OW20527   5.679   0.128   4.249  0.2843 -0.6481 -0.5593
 6543SOL    HW120528   5.657   0.084   4.336 -2.0352 -0.9297 -1.2335
 6543SOL    HW220529   5.625   0.211   4.239  2.4137  0.8078 -0.6516
 6544SOL     OW20530   0.510   1.302   2.132 -0.5096 -0.5511 -0.0767
 6544SOL    HW120531   0.458   1.270   2.211  0.1149 -1.8081 -0.1521
 6544SOL    HW220532   0.594   1.347   2.163 -1.7389  1.8005  0.0601
 6545SOL     OW20533   0.005   0.234   0.417 -0.2861 -0.2463  0.9995
 6545SOL    HW120534  -0.038   0.175   0.485 -0.6526 -1.4618 -0.2461
 6545SOL    HW220535  -0.041   0.324   0.418  0.3070  0.0786  2.9271
 6546SOL     OW20536   3.943   4.817   2.475  0.9893 -0.3742  0.0073
 6546SOL    HW120537   3.898   4.827   2.386 -0.2589 -1.6238  0.4530
 6546SOL    HW220538   3.922   4.897   2.532  1.5539  0.2923 -0.7089
 6547SOL     OW20539   5.545   5.976   6.178  0.1412 -0.3581 -0.1736
 6547SOL    HW120540   5.585   5.893   6.217 -0.0036 -0.5948 -0.5168
 6547SOL    HW220541   5.458   5.995   6.222  0.1559 -0.4132 -0.1211
 6548SOL     OW20542   3.231   0.004   4.913  0.1015 -0.1053 -0.2533
 6548SOL    HW120543   3.311  -0.028   4.965  0.3049 -2.2562 -1.7864
 6548SOL    HW220544   3.257   0.086   4.861  0.5355  0.7416  1.2419
 6549SOL     OW20545   1.442   2.812   2.731  0.0041  0.0887 -0.3809
 6549SOL    HW120546   1.520   2.799   2.671  0.1466  0.1417 -0.2080
 6549SOL    HW220547   1.473   2.818   2.826 -0.1099  1.1299 -0.3995
 6550SOL     OW20548   5.734   1.994   1.407 -0.3345  0.0718  0.1047
 6550SOL    HW120549   5.680   1.912   1.426  0.7424 -0.6845 -0.0551
 6550SOL    HW220550   5.779   1.985   1.318 -0.2259  0.8474  0.0732
 6551SOL     OW20551   3.350   4.347   0.034  0.8270 -0.1882  0.5061
 6551SOL    HW120552   3.326   4.444   0.027 -0.4372 -0.6357 -3.1702
 6551SOL    HW220553   3.435   4.329  -0.015 -0.7510 -1.3949 -1.9740
 6552SOL     OW20554   2.891   4.907   6.513 -0.0365  0.6920 -0.0171
 6552SOL    HW120555   2.957   4.915   6.588 -1.7789 -0.2644  1.7016
 6552SOL    HW220556   2.808   4.958   6.536 -1.3388 -1.1702 -0.4182
 6553SOL     OW20557   0.131   1.080   2.132 -0.2129  0.2195 -0.2840
 6553SOL    HW120558   0.144   1.173   2.168 -1.2526  0.8797 -1.5182
 6553SOL    HW220559   0.217   1.045   2.096  1.5086 -1.3506  4.5820
 6554SOL     OW20560   4.152   0.935   6.183  0.2455 -0.3010 -0.2453
 6554SOL    HW120561   4.143   0.981   6.095  0.7552 -1.1858 -0.7612
 6554SOL    HW220562   4.231   0.875   6.182  0.6784  0.2076  1.0611
 6555SOL     OW20563   2.232   2.424   2.821  0.5501 -0.0005  0.2020
 6555SOL    HW120564   2.200   2.339   2.863  0.4937 -1.8303 -3.1481
 6555SOL    HW220565   2.155   2.471   2.778  1.0470  0.0603 -0.6434
 6556SOL     OW20566   4.831   2.502   3.222 -0.1990 -0.1254 -0.0175
 6556SOL    HW120567   4.770   2.536   3.293 -0.0260  0.6665 -0.2394
 6556SOL    HW220568   4.778   2.476   3.142 -0.4604 -1.6289  0.6131
 6557SOL     OW20569   2.278   6.926   3.074  0.2417 -0.3793  0.2907
 6557SOL    HW120570   2.210   6.895   3.141  0.5698 -0.4821  0.5772
 6557SOL    HW220571   2.280   7.026   3.071  0.2123 -0.3752  0.4181
 6558SOL     OW20572   5.177   4.969   6.019  0.1246  0.9624  0.2104
 6558SOL    HW120573   5.156   4.873   6.040 -1.0010  0.9444 -0.9071
 6558SOL    HW220574   5.270   4.990   6.050 -0.1971 -0.0117  1.9453
 6559SOL     OW20575   5.748   1.965   5.441 -0.7312  0.1180  0.1322
 6559SOL    HW120576   5.842   1.969   5.475 -0.6110 -1.5239  0.0839
 6559SOL    HW220577   5.748   1.972   5.342 -0.7839  1.3605  0.2051
 6560SOL     OW20578   1.027   1.762   4.757  0.8663  0.2167  0.1201
 6560SOL    HW120579   1.089   1.815   4.699  0.9970 -1.2989 -1.2026
 6560SOL    HW220580   0.991   1.684   4.705  0.0360 -0.5285  1.7306
 6561SOL     OW20581   2.810   4.009   0.536 -0.3460  0.6250  0.0192
 6561SOL    HW120582   2.765   3.967   0.457 -2.9290  1.0631  1.1909
 6561SOL    HW220583   2.799   3.950   0.616  0.5083  1.1336  0.5246
 6562SOL     OW20584   4.614   1.477   0.980 -0.2671  0.6713  0.8547
 6562SOL    HW120585   4.520   1.510   0.985 -0.4489  0.3344  0.0038
 6562SOL    HW220586   4.652   1.497   0.889 -1.0258 -2.9488 -0.4637
 6563SOL     OW20587   1.522   3.221   6.758  0.0930  0.0166 -0.0179
 6563SOL    HW120588   1.576   3.209   6.842 -0.2253 -0.9132  0.0609
 6563SOL    HW220589   1.425   3.214   6.779  0.0339 -0.9016 -0.5713
 6564SOL     OW20590   6.735   3.431   3.189 -0.4543 -0.4042  0.6313
 6564SOL    HW120591   6.696   3.340   3.206 -1.1163 -0.1295  0.6222
 6564SOL    HW220592   6.725   3.454   3.092 -0.2610 -0.3375  0.6277
 6565SOL     OW20593   6.212   0.376   1.502  0.7379 -0.2674 -0.3140
 6565SOL    HW120594   6.290   0.320   1.475 -0.0617 -1.0464 -1.0814
 6565SOL    HW220595   6.212   0.461   1.450  2.4907  0.9497  1.5313
 6566SOL     OW20596   4.256   6.133   3.686 -0.3400  0.5929 -0.4097
 6566SOL    HW120597   4.266   6.233   3.693  2.8947  0.2298  3.0300
 6566SOL    HW220598   4.159   6.111   3.676 -1.2658  4.0264 -0.4594
 6567SOL     OW20599   4.845   6.977   3.165  0.1498 -0.6069  0.4657
 6567SOL    HW120600   4.866   6.908   3.095  1.1146  0.3509 -0.2416
 6567SOL    HW220601   4.827   7.065   3.120  3.1423  0.6359  1.4279
 6568SOL     OW20602   4.285   2.399   1.278  0.4054  0.0470  0.0864
 6568SOL    HW120603   4.376   2.392   1.318  0.0443 -0.3185  0.8609
 6568SOL    HW220604   4.232   2.318   1.302 -0.4172  0.6658  0.3996
 6569SOL     OW20605   0.359   3.817   3.768  0.4369 -0.8584 -0.1338
 6569SOL    HW120606   0.347   3.764   3.685  0.7560 -0.8530 -0.1841
 6569SOL    HW220607   0.271   3.856   3.796  0.0293 -2.1052  0.3756
 6570SOL     OW20608   4.533   1.194   3.866 -0.4929 -0.2228 -0.5501
 6570SOL    HW120609   4.524   1.231   3.773  2.6012  3.4286  0.3525
 6570SOL    HW220610   4.507   1.264   3.932  1.3491 -1.2312  1.3450
 6571SOL     OW20611   2.965   6.663   3.625  0.1630 -0.0274  0.4171
 6571SOL    HW120612   3.038   6.727   3.652 -0.0229  0.4229 -0.1323
 6571SOL    HW220613   2.876   6.708   3.635  0.0338 -0.1781 -0.0304
 6572SOL     OW20614   0.619   5.021   5.290 -0.0527  0.0367  0.0091
 6572SOL    HW120615   0.656   5.070   5.370 -0.5180 -0.6160  0.6361
 6572SOL    HW220616   0.556   5.081   5.241 -1.4671 -0.2429  1.3898
 6573SOL     OW20617   6.608   1.990   2.954 -0.4944  0.6106 -0.0957
 6573SOL    HW120618   6.634   1.927   3.028 -0.8794 -0.1787 -0.6182
 6573SOL    HW220619   6.545   1.944   2.892 -3.1694  2.4217  1.0849
 6574SOL     OW20620   1.005   4.482   0.358 -0.2389 -0.3705 -0.2351
 6574SOL    HW120621   1.091   4.435   0.376  0.6861  1.5492  0.6962
 6574SOL    HW220622   0.970   4.455   0.268  1.1210 -1.4987 -0.4518
 6575SOL     OW20623   6.569   1.431   4.851  0.0147  0.5276 -0.1798
 6575SOL    HW120624   6.651   1.377   4.829 -1.3932 -2.8570  2.0158
 6575SOL    HW220625   6.492   1.396   4.798 -0.5804  1.7941 -0.1612
 6576SOL     OW20626   5.200   6.378   3.057 -0.5040 -0.0615 -0.3021
 6576SOL    HW120627   5.253   6.449   3.012 -0.6683 -0.0117 -0.4205
 6576SOL    HW220628   5.103   6.389   3.033 -0.7169  0.4871  0.7439
 6577SOL     OW20629   2.826   0.397   6.322 -0.0619 -0.2570 -0.2469
 6577SOL    HW120630   2.808   0.323   6.256 -0.7369 -0.4606  0.1552
 6577SOL    HW220631   2.739   0.429   6.361  0.3528 -0.4621  0.8849
 6578SOL     OW20632   0.816   6.508   0.877  0.5730  0.1608  0.1505
 6578SOL    HW120633   0.823   6.463   0.788  0.3977 -1.4867  0.9344
 6578SOL    HW220634   0.905   6.548   0.900  0.9249 -0.3295 -0.3119
 6579SOL     OW20635   1.445   2.113   2.573  0.6005 -0.0494 -0.8989
 6579SOL    HW120636   1.492   2.188   2.526 -1.9300  1.8992 -0.5601
 6579SOL    HW220637   1.488   2.098   2.662 -0.6958  3.4062  0.5000
 6580SOL     OW20638   1.607   2.176   6.742 -0.2660 -0.0798  0.2230
 6580SOL    HW120639   1.693   2.213   6.777 -0.4378  0.9352 -0.3769
 6580SOL    HW220640   1.601   2.193   6.643 -0.8825 -0.6899  0.1503
 6581SOL     OW20641   1.291   2.296   2.279 -0.3627 -0.6658 -0.0342
 6581SOL    HW120642   1.345   2.213   2.265 -0.0403 -0.6256  0.8831
 6581SOL    HW220643   1.329   2.370   2.224 -0.7287 -1.1428 -0.9593
 6582SOL     OW20644   5.171   6.266   3.781  0.6605  0.1579 -0.3325
 6582SOL    HW120645   5.125   6.243   3.695  0.7587  1.0975 -0.6499
 6582SOL    HW220646   5.127   6.217   3.856 -1.9442  2.1786 -0.3948
 6583SOL     OW20647   1.070   3.254   1.333 -0.2715  0.2988  0.1710
 6583SOL    HW120648   1.062   3.287   1.239  2.0483  0.5366 -0.0069
 6583SOL    HW220649   1.158   3.207   1.345 -1.1077 -0.9733  1.8734
 6584SOL     OW20650   6.013   3.803   6.598  0.6563 -0.0572  0.1824
 6584SOL    HW120651   5.915   3.826   6.598  0.0332 -2.4838  0.9206
 6584SOL    HW220652   6.064   3.878   6.556 -1.8010  0.1221 -2.8569
 6585SOL     OW20653   4.561   4.447   2.524 -0.5417  0.9782 -0.0431
 6585SOL    HW120654   4.531   4.423   2.432 -2.4990  1.9295  0.3037
 6585SOL    HW220655   4.648   4.497   2.518  1.6228 -2.5495 -1.0199
 6586SOL     OW20656   0.409   1.425   1.012  0.2417  0.1509 -0.1099
 6586SOL    HW120657   0.438   1.349   1.071  2.6106  1.0270 -0.0072
 6586SOL    HW220658   0.351   1.487   1.065  0.6830 -0.1154  0.7150
 6587SOL     OW20659   2.725   5.790   6.417  0.2034  0.0511  0.1842
 6587SOL    HW120660   2.687   5.814   6.328  1.6729 -0.7081 -0.6706
 6587SOL    HW220661   2.824   5.805   6.417  0.6781 -2.5721  0.7318
 6588SOL     OW20662   2.258   2.064   1.295 -0.2317 -0.2903  0.1186
 6588SOL    HW120663   2.259   1.964   1.307 -0.4195 -0.2848  0.1879
 6588SOL    HW220664   2.332   2.091   1.235 -0.6386 -0.5553 -0.5155
 6589SOL     OW20665   6.440   2.216   0.799  0.1797  0.3593  0.1862
 6589SOL    HW120666   6.390   2.257   0.723 -1.6593 -0.4739  0.8885
 6589SOL    HW220667   6.410   2.258   0.885 -0.3259 -1.0710  0.7399
 6590SOL     OW20668   6.998   3.632   4.666  0.1301  0.0812 -0.0471
 6590SOL    HW120669   7.080   3.595   4.622  0.6640  2.7763 -1.5357
 6590SOL    HW220670   6.916   3.591   4.625  0.6967 -0.1524 -0.9727
 6591SOL     OW20671   6.595   2.466   5.312  0.2267  1.0015  1.1487
 6591SOL    HW120672   6.613   2.372   5.341  2.0975  0.9858  0.1360
 6591SOL    HW220673   6.497   2.481   5.306 -0.1083 -0.8880  1.3388
 6592SOL     OW20674   0.599   0.719   3.829  0.3534 -0.0815 -0.0006
 6592SOL    HW120675   0.690   0.682   3.806  0.4375  0.6893 -0.9801
 6592SOL    HW220676   0.600   0.756   3.922  0.6180 -1.3970  0.5375
 6593SOL     OW20677   0.426   6.841   4.350 -0.6088  0.1393 -0.4693
 6593SOL    HW120678   0.469   6.852   4.439 -2.1380 -2.0434  0.6319
 6593SOL    HW220679   0.434   6.745   4.320 -0.5329  0.7184 -2.4770
 6594SOL     OW20680   5.631   6.743   0.260 -0.0829  0.2134 -0.6029
 6594SOL    HW120681   5.572   6.788   0.327  0.3628 -0.6639  0.4077
 6594SOL    HW220682   5.612   6.780   0.169 -0.1795  1.9574  0.0880
 6595SOL     OW20683   0.599   0.027   5.438 -0.9874 -0.0727 -0.6557
 6595SOL    HW120684   0.578   0.058   5.346 -3.7914 -0.0829 -0.0990
 6595SOL    HW220685   0.582  -0.072   5.445  0.9564 -0.4504 -0.5375
 6596SOL     OW20686   3.715   1.538   3.227  0.8488  0.2612  0.0386
 6596SOL    HW120687   3.770   1.460   3.256  1.6819  0.5517 -0.6967
 6596SOL    HW220688   3.748   1.571   3.138 -1.1208 -0.1403 -0.9083
 6597SOL     OW20689   0.999   6.562   2.004  0.4080  0.7212 -0.0312
 6597SOL    HW120690   1.026   6.526   1.914 -0.7505  1.5222 -0.7344
 6597SOL    HW220691   0.926   6.629   1.992  1.4300  2.1644  1.3738
 6598SOL     OW20692   1.277   6.047   0.097 -0.4204  0.1185  0.4436
 6598SOL    HW120693   1.325   5.986   0.034  0.6633  0.4395  0.9330
 6598SOL    HW220694   1.251   6.131   0.049 -0.1126  0.1213  0.2814
 6599SOL     OW20695   0.035   6.463   6.931  0.2638 -0.2256  0.2687
 6599SOL    HW120696   0.007   6.390   6.993  1.9390  0.0559  1.4001
 6599SOL    HW220697   0.091   6.425   6.857  0.7238 -0.1606  0.5819
 6600SOL     OW20698   5.672   0.343   3.690 -0.1874 -0.3704 -0.1710
 6600SOL    HW120699   5.613   0.363   3.768 -1.5294  1.9226 -1.6465
 6600SOL    HW220700   5.616   0.309   3.614  0.8846 -1.2442 -0.5912
 6601SOL     OW20701   2.153   2.027   3.640 -0.4542 -0.1805 -0.7908
 6601SOL    HW120702   2.124   2.018   3.735  0.0277 -1.9631 -0.7730
 6601SOL    HW220703   2.240   1.979   3.627 -0.3437  0.3238 -2.0634
 6602SOL     OW20704   6.502   6.282   0.835  0.3018  0.1630 -0.4230
 6602SOL    HW120705   6.468   6.246   0.748 -1.0326  1.2962 -0.3975
 6602SOL    HW220706   6.551   6.209   0.883  0.1585 -0.7866 -1.6483
 6603SOL     OW20707   6.794   4.852   2.244  0.3069 -0.4170  0.3712
 6603SOL    HW120708   6.808   4.890   2.336  0.9358 -0.7720  0.4308
 6603SOL    HW220709   6.796   4.753   2.248  1.5326 -0.4388 -0.1841
 6604SOL     OW20710   2.414   5.970   4.705 -0.7538 -0.1972  1.1037
 6604SOL    HW120711   2.402   6.051   4.647  0.3596 -1.3567 -0.8578
 6604SOL    HW220712   2.506   5.970   4.744 -0.8820 -0.3290  1.4110
 6605SOL     OW20713   6.311   3.665   1.095 -0.1647 -0.7891 -0.1597
 6605SOL    HW120714   6.348   3.661   1.002 -0.9417 -1.1436 -0.4657
 6605SOL    HW220715   6.223   3.711   1.094  1.2238  2.1858  0.9112
 6606SOL     OW20716   2.818   6.503   4.031  0.7320  0.6627  0.2450
 6606SOL    HW120717   2.802   6.413   4.073 -0.8761  0.5682 -0.5122
 6606SOL    HW220718   2.805   6.575   4.100 -2.6056  0.5589 -0.1313
 6607SOL     OW20719   6.802   1.586   3.422  0.1636  0.0549  0.4713
 6607SOL    HW120720   6.793   1.673   3.373 -0.8670 -0.8278 -1.0159
 6607SOL    HW220721   6.810   1.512   3.356 -0.7095 -1.1482  1.6647
 6608SOL     OW20722   6.755   0.154   5.063  0.4922 -0.2712 -0.7252
 6608SOL    HW120723   6.800   0.224   5.118  1.3024 -0.8675 -0.6130
 6608SOL    HW220724   6.706   0.091   5.122 -1.5837  1.0697 -0.9052
 6609SOL     OW20725   2.942   0.243   0.342  0.5527 -0.1811  0.3820
 6609SOL    HW120726   2.866   0.307   0.350 -0.3837 -1.2679  0.4326
 6609SOL    HW220727   3.006   0.258   0.417 -0.3090 -0.1329  1.1301
 6610SOL     OW20728   4.610   3.817   5.573 -0.1859 -0.0597  0.2871
 6610SOL    HW120729   4.666   3.808   5.655 -0.1996 -0.4408  0.2570
 6610SOL    HW220730   4.664   3.794   5.492 -0.8059 -2.0545  0.3913
 6611SOL     OW20731   0.426   1.942   5.051 -0.0879  0.8991  0.4279
 6611SOL    HW120732   0.398   1.954   4.956  1.3808 -0.4446 -0.2384
 6611SOL    HW220733   0.352   1.968   5.112 -1.7324  0.0924 -1.1357
 6612SOL     OW20734   5.673   6.156   6.450  0.1382 -0.1131  0.1341
 6612SOL    HW120735   5.760   6.185   6.408 -0.9037  0.6235 -1.6175
 6612SOL    HW220736   5.638   6.230   6.507 -0.3050  0.4024 -0.7751
 6613SOL     OW20737   6.566   5.535   0.736  0.2352  0.5926 -0.2303
 6613SOL    HW120738   6.505   5.489   0.800 -0.1855  1.1367 -0.2274
 6613SOL    HW220739   6.519   5.549   0.649  1.0116 -0.6813 -0.8724
 6614SOL     OW20740   3.293   6.082   6.898 -0.1956 -0.0696 -0.4059
 6614SOL    HW120741   3.251   5.994   6.877  2.5733 -1.8083  0.8210
 6614SOL    HW220742   3.266   6.112   6.989 -0.8892  0.2266 -0.7010
 6615SOL     OW20743   3.396   6.238   0.700 -0.4329 -0.6773 -0.6979
 6615SOL    HW120744   3.411   6.247   0.601  0.1252 -0.3746 -0.5898
 6615SOL    HW220745   3.484   6.233   0.747 -0.6292  1.0141 -0.0607
 6616SOL     OW20746   3.010   4.446   6.173  0.3514  0.5066 -0.3435
 6616SOL    HW120747   3.006   4.351   6.140 -3.5340  0.4678 -0.1909
 6616SOL    HW220748   3.027   4.507   6.096  1.8956 -0.1946 -0.6036
 6617SOL     OW20749   3.574   0.800   4.206  0.2070 -0.0317 -0.5651
 6617SOL    HW120750   3.503   0.863   4.175  1.1266  1.1794 -0.2903
 6617SOL    HW220751   3.664   0.840   4.186  0.8422 -1.9277 -1.7374
 6618SOL     OW20752   1.317   3.547   5.399  0.1673  0.1584 -0.1906
 6618SOL    HW120753   1.407   3.552   5.442  1.0335  0.0071 -1.8858
 6618SOL    HW220754   1.267   3.632   5.417  1.3250  0.9648 -0.6257
 6619SOL     OW20755   4.752   6.237   2.858 -0.3796 -0.2188  0.0371
 6619SOL    HW120756   4.792   6.248   2.766 -1.8679 -0.5906 -0.6897
 6619SOL    HW220757   4.663   6.282   2.860  0.1335  0.7764  1.6812
 6620SOL     OW20758   6.834   2.014   3.643  0.6192  0.1534  0.3467
 6620SOL    HW120759   6.822   2.064   3.558  0.5909 -0.0077  0.2558
 6620SOL    HW220760   6.754   1.955   3.659  0.1471  0.9582  1.0071
 6621SOL     OW20761   2.933   3.370   2.174  0.7403 -0.0247 -0.7286
 6621SOL    HW120762   2.994   3.446   2.152  1.3317 -0.6478 -1.2781
 6621SOL    HW220763   2.847   3.382   2.125  0.6374  0.5447 -0.4219
 6622SOL     OW20764   1.080   4.180   3.046 -0.3645  0.2737 -0.1739
 6622SOL    HW120765   0.993   4.135   3.063 -0.4793  0.6991  0.3903
 6622SOL    HW220766   1.082   4.214   2.952  0.4969 -2.5737 -1.2950
 6623SOL     OW20767   3.723   2.928   3.236 -0.5658  0.1605 -0.0886
 6623SOL    HW120768   3.765   2.858   3.179 -0.2676 -0.8087  1.2518
 6623SOL    HW220769   3.635   2.894   3.270  0.3070 -0.2890  1.8760
 6624SOL     OW20770   2.724   0.812   3.428  0.6055  0.9865  0.2830
 6624SOL    HW120771   2.668   0.847   3.503  0.7678  0.7202  0.5289
 6624SOL    HW220772   2.802   0.873   3.415 -0.1933  1.8502 -0.6367
 6625SOL     OW20773   1.745   5.742   0.967 -0.7123  0.5913  0.3614
 6625SOL    HW120774   1.783   5.671   1.025 -0.6099  0.2903 -0.0683
 6625SOL    HW220775   1.796   5.827   0.979 -0.8109  0.5810  0.8462
 6626SOL     OW20776   3.243   5.719   6.091 -0.5597  0.0436  0.1087
 6626SOL    HW120777   3.226   5.803   6.142 -1.5538  0.6724 -1.1825
 6626SOL    HW220778   3.258   5.741   5.994  0.4557 -1.1708 -0.0360
 6627SOL     OW20779   3.398   0.588   4.172  0.5166 -0.2782  1.0696
 6627SOL    HW120780   3.305   0.625   4.169  0.8670  0.6899  1.7225
 6627SOL    HW220781   3.462   0.659   4.204  2.0011  0.1238 -2.3626
 6628SOL     OW20782   5.174   0.331   3.453  0.5074  0.6738  0.2812
 6628SOL    HW120783   5.136   0.420   3.430  0.7324  0.8784  0.7043
 6628SOL    HW220784   5.274   0.336   3.454  0.5028  0.7064  1.4442
 6629SOL     OW20785   4.208   4.994   4.414  0.0398 -0.1598 -0.3002
 6629SOL    HW120786   4.275   5.067   4.421  0.8850 -1.0372  2.6005
 6629SOL    HW220787   4.117   5.032   4.400  0.7636  1.2462 -1.3068
 6630SOL     OW20788   1.916   0.906   2.843 -0.4477 -0.1226  0.5952
 6630SOL    HW120789   1.996   0.887   2.899 -0.1032  3.2689  1.5117
 6630SOL    HW220790   1.834   0.905   2.901 -0.5296  0.1945  0.4884
 6631SOL     OW20791   1.952   2.831   5.502  0.6204 -0.5266 -0.1142
 6631SOL    HW120792   1.991   2.918   5.531  3.1088 -0.4671 -3.1097
 6631SOL    HW220793   2.007   2.756   5.538 -1.3329 -0.9861  2.1965
 6632SOL     OW20794   6.914   0.197   5.663 -0.4613  0.4749 -0.1972
 6632SOL    HW120795   6.891   0.110   5.621 -1.0462 -0.1758  1.3677
 6632SOL    HW220796   6.947   0.181   5.757 -0.8120  1.9466  0.2056
 6633SOL     OW20797   4.001   0.367   4.891 -0.0496 -0.1043  0.5118
 6633SOL    HW120798   3.932   0.429   4.855 -0.2960 -0.1603  0.8769
 6633SOL    HW220799   4.068   0.346   4.820 -0.9227 -0.7794 -0.1323
 6634SOL     OW20800   3.028   1.651   3.648  0.2861  0.7410 -0.0234
 6634SOL    HW120801   3.105   1.656   3.584  0.3253 -0.0965 -0.0543
 6634SOL    HW220802   2.944   1.628   3.597  0.3867 -0.3022  0.2628
 6635SOL     OW20803   4.704   5.060   0.433  0.0923  0.1453 -0.5700
 6635SOL    HW120804   4.795   5.061   0.390  0.1097  1.9594 -0.5410
 6635SOL    HW220805   4.697   5.134   0.499 -1.4022 -0.0064 -0.5281
 6636SOL     OW20806   2.760   3.173   1.770 -0.5659 -0.3688  0.5560
 6636SOL    HW120807   2.783   3.218   1.857  0.2974 -1.8312  1.1411
 6636SOL    HW220808   2.665   3.143   1.772 -0.5065 -0.5346  1.0743
 6637SOL     OW20809   0.390   4.486   1.696  0.0866  0.2861 -1.0807
 6637SOL    HW120810   0.473   4.456   1.743 -0.3172 -0.0591 -0.5844
 6637SOL    HW220811   0.334   4.407   1.673  0.3965  0.4232 -2.3872
 6638SOL     OW20812   3.587   4.157   4.338  0.1076 -0.0449 -0.2113
 6638SOL    HW120813   3.526   4.208   4.398 -0.6402 -0.8956 -0.2268
 6638SOL    HW220814   3.548   4.153   4.246  0.6810  0.2528 -0.4765
 6639SOL     OW20815   5.660   3.337   2.443  0.4847  0.6715 -0.8285
 6639SOL    HW120816   5.630   3.305   2.353  0.8845 -0.1506 -0.6710
 6639SOL    HW220817   5.603   3.295   2.514 -0.7526  2.3745 -0.7427
 6640SOL     OW20818   1.571   3.304   3.664  1.0826 -0.1121  0.0750
 6640SOL    HW120819   1.512   3.347   3.733 -2.3585 -1.2364 -1.9115
 6640SOL    HW220820   1.593   3.210   3.692  0.7393 -0.1513  0.2145
 6641SOL     OW20821   5.157   1.606   6.610 -0.6040 -0.1888  0.1792
 6641SOL    HW120822   5.207   1.561   6.536 -0.4369  0.4722 -0.1143
 6641SOL    HW220823   5.135   1.700   6.583  1.1697  0.7265  1.7194
 6642SOL     OW20824   0.460   4.099   6.446  0.4401 -0.0782 -0.5085
 6642SOL    HW120825   0.387   4.157   6.409 -1.2116 -1.0228  1.1275
 6642SOL    HW220826   0.493   4.038   6.375  0.5510  1.2122 -1.6149
 6643SOL     OW20827   6.411   4.549   5.327  0.3380 -0.0327  0.9363
 6643SOL    HW120828   6.400   4.451   5.316 -1.3992  0.2306 -0.0932
 6643SOL    HW220829   6.415   4.592   5.237 -1.9573  1.0788  1.2772
 6644SOL     OW20830   1.909   5.636   1.930 -0.1186  0.2123 -0.3496
 6644SOL    HW120831   1.983   5.645   1.863 -0.5464  1.6210 -0.6708
 6644SOL    HW220832   1.822   5.629   1.881 -0.1752 -2.3813 -0.0061
 6645SOL     OW20833   3.485   3.305   0.371  0.3915  0.3696 -0.0410
 6645SOL    HW120834   3.442   3.348   0.291 -0.9225  2.1670  1.5358
 6645SOL    HW220835   3.522   3.376   0.431  1.0675 -0.9098  1.1070
 6646SOL     OW20836   4.766   0.863   5.999 -0.1613  0.5658 -0.7003
 6646SOL    HW120837   4.759   0.963   6.000 -0.9187  0.5636  1.9688
 6646SOL    HW220838   4.680   0.824   5.967  0.2371  0.7312 -2.0342
 6647SOL     OW20839   6.013   6.411   6.342  0.2137  0.2345  0.0519
 6647SOL    HW120840   6.098   6.381   6.300  0.1638  0.2612 -0.0688
 6647SOL    HW220841   5.981   6.495   6.297 -0.1494 -0.0638 -0.2512
 6648SOL     OW20842   1.091   5.528   5.896  0.3887 -0.8538 -0.4075
 6648SOL    HW120843   1.013   5.589   5.915  0.1130 -1.0160 -0.9790
 6648SOL    HW220844   1.105   5.524   5.797  0.3455 -1.7997 -0.3769
 6649SOL     OW20845   6.862   0.784   3.790 -0.3076 -0.7145 -0.0644
 6649SOL    HW120846   6.842   0.720   3.716  0.5093 -0.5013 -0.4841
 6649SOL    HW220847   6.929   0.743   3.853 -0.5798 -0.6789  0.2525
 6650SOL     OW20848   1.766   0.850   5.530  0.7708 -0.2369  0.4562
 6650SOL    HW120849   1.837   0.818   5.593  0.3005 -0.4915  0.8706
 6650SOL    HW220850   1.697   0.902   5.582 -0.3890 -1.6638  0.4342
 6651SOL     OW20851   6.708   1.032   3.337 -0.7060 -0.3271  0.0605
 6651SOL    HW120852   6.710   1.109   3.401 -1.2662  0.1622 -0.4978
 6651SOL    HW220853   6.794   1.031   3.285 -0.2989 -0.6571  0.7278
 6652SOL     OW20854   1.961   2.926   0.018 -0.3315 -0.1029  0.2668
 6652SOL    HW120855   2.045   2.979   0.025 -1.0604  0.8994  1.9120
 6652SOL    HW220856   1.980   2.831   0.043  0.6882 -0.3806 -1.3698
 6653SOL     OW20857   5.127   3.127   0.839  0.1315 -0.0673  0.1144
 6653SOL    HW120858   5.091   3.208   0.885  0.2501  0.0160  0.0606
 6653SOL    HW220859   5.057   3.055   0.838  0.0258  0.0351  0.1575
 6654SOL     OW20860   6.157   0.024   3.889  0.1969  0.1143  0.3562
 6654SOL    HW120861   6.113   0.114   3.881  0.5972  0.2270 -0.7534
 6654SOL    HW220862   6.167   0.001   3.986 -1.2312  0.6012  0.6470
 6655SOL     OW20863   0.220   0.651   1.108 -0.2879 -0.0087  0.2941
 6655SOL    HW120864   0.217   0.570   1.049 -0.4320  0.2937 -0.1109
 6655SOL    HW220865   0.217   0.734   1.052  0.5559  0.2841  0.6617
 6656SOL     OW20866   5.621   2.892   1.998 -0.2869 -0.3301 -0.0554
 6656SOL    HW120867   5.700   2.949   2.020 -0.5206  0.3692 -0.9801
 6656SOL    HW220868   5.621   2.870   1.900 -0.8844 -0.8738  0.0548
 6657SOL     OW20869   5.973   2.487   2.601  0.2419  0.7123 -0.4015
 6657SOL    HW120870   6.065   2.448   2.594  0.4700  1.1366  0.1901
 6657SOL    HW220871   5.915   2.425   2.653  1.1942  2.1124  2.5243
 6658SOL     OW20872   5.594   5.328   4.227  0.2586  0.8120 -0.1207
 6658SOL    HW120873   5.596   5.281   4.315  0.5640  2.2394  0.6665
 6658SOL    HW220874   5.659   5.285   4.165 -1.2338 -1.3522 -0.2996
 6659SOL     OW20875   1.208   5.455   1.556  0.1365  0.2658  0.2913
 6659SOL    HW120876   1.124   5.410   1.586  0.4084 -0.5734 -0.2027
 6659SOL    HW220877   1.187   5.550   1.532 -0.1883  0.8524  2.6183
 6660SOL     OW20878   2.739   6.605   3.370 -0.0718  0.0185  0.1283
 6660SOL    HW120879   2.732   6.572   3.276 -1.4595  0.8777 -0.0925
 6660SOL    HW220880   2.759   6.528   3.431  2.2705 -0.3605 -0.9874
 6661SOL     OW20881   2.105   0.144   2.552  0.2980 -0.0619  0.7343
 6661SOL    HW120882   2.050   0.183   2.625  0.5824 -0.4933  1.1830
 6661SOL    HW220883   2.144   0.217   2.497  0.5126  0.2818  1.3363
 6662SOL     OW20884   3.386   1.002   1.685 -0.5710 -0.2858 -0.2290
 6662SOL    HW120885   3.465   0.958   1.644 -1.3908 -0.0616 -2.1746
 6662SOL    HW220886   3.329   1.042   1.613 -0.7737  2.4452  1.2849
 6663SOL     OW20887   1.389   4.600   6.330 -0.1426 -0.5706 -0.4903
 6663SOL    HW120888   1.318   4.646   6.277  0.4996 -0.3324 -1.1607
 6663SOL    HW220889   1.421   4.519   6.280 -0.8533 -1.4395  0.4108
 6664SOL     OW20890   4.591   0.516   1.212  0.3283 -0.0311  0.1285
 6664SOL    HW120891   4.645   0.570   1.148 -0.8526  0.8625 -0.1470
 6664SOL    HW220892   4.518   0.573   1.251  0.6119 -0.7386  1.7729
 6665SOL     OW20893   1.561   1.779   0.648 -0.3287  0.1635  0.9211
 6665SOL    HW120894   1.602   1.734   0.728 -1.0205  0.2720  1.3486
 6665SOL    HW220895   1.511   1.861   0.678  0.4711  0.9373  0.2182
 6666SOL     OW20896   2.764   0.442   0.395  0.0212 -0.1104  0.5798
 6666SOL    HW120897   2.830   0.517   0.401  0.8061 -0.8364  1.2003
 6666SOL    HW220898   2.732   0.419   0.487  0.8917 -1.4889  0.5660
 6667SOL     OW20899   1.152   6.048   6.212 -0.0934  0.7217 -0.4229
 6667SOL    HW120900   1.119   5.962   6.172 -2.9121  0.7566  1.5173
 6667SOL    HW220901   1.176   6.112   6.139 -0.7098 -0.7270 -1.9566
 6668SOL     OW20902   0.131   1.877   4.430 -0.1873  0.1932 -0.5967
 6668SOL    HW120903   0.207   1.884   4.364  1.3091  2.5335  1.2114
 6668SOL    HW220904   0.046   1.861   4.380  0.9135  1.4772 -3.1043
 6669SOL     OW20905   2.212   4.585   3.197 -0.3038 -0.8963 -0.3430
 6669SOL    HW120906   2.165   4.631   3.122  0.5408  2.4151  1.0073
 6669SOL    HW220907   2.286   4.529   3.160 -0.9377 -0.6735 -2.0511
 6670SOL     OW20908   1.007   3.604   0.546  0.3071 -0.2859  0.4811
 6670SOL    HW120909   0.975   3.637   0.457  0.5449  0.1500  0.5541
 6670SOL    HW220910   0.929   3.575   0.601  0.0254  0.7827  0.6625
 6671SOL     OW20911   5.209   4.261   6.757  0.1635  0.2796 -0.0904
 6671SOL    HW120912   5.288   4.307   6.797 -0.0811  0.8850 -0.2814
 6671SOL    HW220913   5.227   4.243   6.660 -0.0053  0.5896 -0.1799
 6672SOL     OW20914   0.305   2.539   6.862 -0.0401  0.3083  0.6001
 6672SOL    HW120915   0.301   2.553   6.763  1.6833  1.2347  0.6248
 6672SOL    HW220916   0.316   2.627   6.907 -2.5291  0.1054  1.7997
 6673SOL     OW20917   5.333   5.721   3.041 -0.1443  0.1343 -0.1736
 6673SOL    HW120918   5.248   5.758   3.079 -0.4677  1.1196 -1.7589
 6673SOL    HW220919   5.411   5.759   3.090 -0.5771 -0.0752  0.7035
 6674SOL     OW20920   0.051   2.061   0.060 -0.3557  0.0485  0.1436
 6674SOL    HW120921  -0.028   2.001   0.053  0.2863 -0.9140  0.9141
 6674SOL    HW220922   0.108   2.051  -0.022  0.0595 -0.8593  0.5315
 6675SOL     OW20923   5.165   1.816   0.344  0.3465 -0.0240  0.5539
 6675SOL    HW120924   5.223   1.795   0.423  0.0595 -0.4939  0.6438
 6675SOL    HW220925   5.154   1.915   0.336  1.4627  0.0909  0.3114
 6676SOL     OW20926   6.958   2.848   4.591  0.2416  0.3601 -0.1929
 6676SOL    HW120927   6.912   2.933   4.562 -1.1744 -0.3132 -0.0163
 6676SOL    HW220928   6.891   2.787   4.632  1.1439 -1.0716 -0.7922
 6677SOL     OW20929   0.539   3.153   6.509 -0.3255 -0.4406 -0.3690
 6677SOL    HW120930   0.597   3.098   6.449  2.2086  0.5964  0.9576
 6677SOL    HW220931   0.566   3.138   6.604  1.1632  3.6351  0.0435
 6678SOL     OW20932   2.870   3.903   0.061  0.4154 -0.0033  0.8348
 6678SOL    HW120933   2.951   3.844   0.066  0.6090  0.2887  1.1177
 6678SOL    HW220934   2.898   3.999   0.059  0.1618  0.0762 -0.7663
 6679SOL     OW20935   1.709   6.487   4.189 -0.1409  1.0190 -0.0694
 6679SOL    HW120936   1.790   6.430   4.184 -1.5452 -1.1944  0.7557
 6679SOL    HW220937   1.642   6.458   4.121 -2.4050 -1.0498  2.7690
 6680SOL     OW20938   4.793   5.988   3.532 -0.6458 -0.0743 -0.8051
 6680SOL    HW120939   4.774   5.944   3.444 -1.7373 -0.5258 -0.3731
 6680SOL    HW220940   4.719   6.052   3.554  0.8276  1.9066 -1.3324
 6681SOL     OW20941   4.577   6.507   1.436 -0.4821  0.2640 -0.0765
 6681SOL    HW120942   4.567   6.502   1.336  0.9050  1.3708 -0.2989
 6681SOL    HW220943   4.597   6.602   1.463 -0.5828 -0.0692  1.2408
 6682SOL     OW20944   1.602   4.000   5.595  0.1513  0.2567 -0.9367
 6682SOL    HW120945   1.551   3.978   5.512 -0.9438 -0.3490 -0.1305
 6682SOL    HW220946   1.549   3.972   5.675  1.5521  0.0396 -0.0431
 6683SOL     OW20947   6.356   0.663   3.869 -0.2084  0.3170  0.3862
 6683SOL    HW120948   6.302   0.592   3.824  0.5974  0.1462 -0.3436
 6683SOL    HW220949   6.309   0.692   3.952 -1.2845 -0.0072 -0.0804
 6684SOL     OW20950   0.903   5.572   5.653 -0.3156  0.1020  0.2196
 6684SOL    HW120951   0.839   5.601   5.724  0.9058  1.9872  0.6103
 6684SOL    HW220952   0.964   5.648   5.630  1.7980 -1.6026 -0.1236
 6685SOL     OW20953   3.626   2.130   6.821  0.2228  0.6268 -0.3361
 6685SOL    HW120954   3.677   2.089   6.897 -1.3066  0.6926  0.7832
 6685SOL    HW220955   3.607   2.226   6.841  0.6522  0.9177 -1.2704
 6686SOL     OW20956   2.619   5.186   6.776 -0.2295 -0.0916  0.0207
 6686SOL    HW120957   2.544   5.203   6.713 -0.0280  0.3859 -0.0984
 6686SOL    HW220958   2.622   5.260   6.844  0.4417  0.1652 -0.2798
 6687SOL     OW20959   6.772   2.837   0.966 -0.5407 -0.3835  0.0882
 6687SOL    HW120960   6.807   2.774   0.897 -0.4841  0.2554 -0.4704
 6687SOL    HW220961   6.679   2.865   0.940  0.0462  1.0476 -0.5457
 6688SOL     OW20962   4.619   4.145   6.085 -0.7137 -0.2812 -0.0743
 6688SOL    HW120963   4.541   4.097   6.125 -0.4922 -0.6560 -0.0885
 6688SOL    HW220964   4.649   4.097   6.003 -0.4356 -0.1655 -0.0401
 6689SOL     OW20965   4.804   4.972   6.627  0.2225  0.3166  0.6966
 6689SOL    HW120966   4.821   4.971   6.726 -1.5297  1.0714  1.0333
 6689SOL    HW220967   4.725   4.916   6.606  1.1647 -0.6394 -0.4361
 6690SOL     OW20968   6.442   6.024   6.715 -0.3028  0.0980 -0.0239
 6690SOL    HW120969   6.478   6.096   6.655  3.5534 -1.4117  0.1854
 6690SOL    HW220970   6.402   6.065   6.797 -0.8035  2.0288 -1.1808
 6691SOL     OW20971   3.167   2.003   3.625  0.2147  0.3048 -0.7896
 6691SOL    HW120972   3.098   2.023   3.556 -0.3549 -1.0609 -0.6591
 6691SOL    HW220973   3.125   2.005   3.716  0.7393  1.1224 -0.5515
 6692SOL     OW20974   4.592   6.627   2.111 -0.3634 -0.9317 -0.9896
 6692SOL    HW120975   4.666   6.681   2.151 -0.0711 -0.7747 -1.7093
 6692SOL    HW220976   4.523   6.607   2.180 -0.8594  1.0314 -0.8569
 6693SOL     OW20977   4.280   6.987   0.562  0.0454  0.0964  0.4075
 6693SOL    HW120978   4.244   6.960   0.473 -2.1694  2.1054  0.5549
 6693SOL    HW220979   4.363   7.041   0.549 -0.2074  0.3038 -0.4781
 6694SOL     OW20980   3.705   3.610   1.615  0.1261 -0.6471 -0.2878
 6694SOL    HW120981   3.645   3.689   1.608 -0.8426 -1.3537 -0.2193
 6694SOL    HW220982   3.760   3.601   1.532  0.9945  0.6626  0.1132
 6695SOL     OW20983   2.251   1.413   0.607 -0.1263  0.4665 -0.3454
 6695SOL    HW120984   2.310   1.419   0.527 -0.2496  0.1253 -0.4630
 6695SOL    HW220985   2.169   1.360   0.585 -0.1547  0.3556  0.0073
 6696SOL     OW20986   4.005   3.780   4.335 -0.0581 -0.0009 -0.2151
 6696SOL    HW120987   3.998   3.748   4.240 -2.4388  1.4036 -0.5992
 6696SOL    HW220988   4.009   3.880   4.336  1.1375 -0.0334  1.1615
 6697SOL     OW20989   4.686   0.863   4.133 -0.2990  0.2048  0.0926
 6697SOL    HW120990   4.668   0.961   4.124  2.1627  0.5196 -3.5229
 6697SOL    HW220991   4.672   0.819   4.044  0.4657 -2.4037  1.1840
 6698SOL     OW20992   2.528   4.263   0.778  0.4208  0.3137  0.1316
 6698SOL    HW120993   2.543   4.225   0.687 -2.0957  1.3013 -0.7850
 6698SOL    HW220994   2.460   4.208   0.826 -0.1438  1.2460  0.4160
 6699SOL     OW20995   1.139   3.486   6.546  0.0190 -0.0524 -0.2291
 6699SOL    HW120996   1.163   3.428   6.468  0.3303 -1.0155  0.5604
 6699SOL    HW220997   1.212   3.552   6.563 -0.1115  0.2536 -0.8275
 6700SOL     OW20998   4.003   0.901   1.133 -0.0413  0.2209  0.7471
 6700SOL    HW120999   3.917   0.852   1.146  0.8002 -1.5247  0.0297
 6700SOL    HW221000   4.000   0.952   1.047 -0.3015  0.0622  0.6611
 6701SOL     OW21001   5.876   0.209   1.246 -0.3920  0.0522 -0.4512
 6701SOL    HW121002   5.951   0.166   1.196 -0.3116 -1.5757  0.9798
 6701SOL    HW221003   5.913   0.267   1.318 -0.4958 -0.5132  0.0620
 6702SOL     OW21004   5.335   4.587   1.668 -0.3085 -0.1611  0.1863
 6702SOL    HW121005   5.310   4.591   1.572 -1.2755  2.9650  0.4460
 6702SOL    HW221006   5.375   4.498   1.689  0.0828 -0.8710 -3.1004
 6703SOL     OW21007   0.713   6.771   1.597  0.7065  0.6091  0.9133
 6703SOL    HW121008   0.771   6.842   1.638  2.3360 -1.2668  2.0410
 6703SOL    HW221009   0.766   6.686   1.588 -1.4415 -0.7591  0.5302
 6704SOL     OW21010   2.301   6.446   6.568 -0.4632 -0.4485 -0.0737
 6704SOL    HW121011   2.381   6.455   6.509 -0.2858 -0.6863  0.1283
 6704SOL    HW221012   2.302   6.356   6.613  0.3892  0.4081  1.7348
 6705SOL     OW21013   1.855   3.309   2.431  0.2636  0.1706 -0.1229
 6705SOL    HW121014   1.953   3.309   2.451  0.2618 -0.3884 -0.1134
 6705SOL    HW221015   1.841   3.304   2.332  0.2399 -0.7625 -0.0791
 6706SOL     OW21016   2.447   4.673   1.285 -0.0628  0.7920  0.2509
 6706SOL    HW121017   2.380   4.626   1.342  0.1991  1.5801  1.2437
 6706SOL    HW221018   2.502   4.606   1.235  0.5468  0.0233  1.9035
 6707SOL     OW21019   0.212   0.914   0.984 -0.0027  0.3672  0.1412
 6707SOL    HW121020   0.204   0.855   0.904 -0.6945  0.4176  0.1744
 6707SOL    HW221021   0.158   0.996   0.972  0.3797  0.6644  0.4054
 6708SOL     OW21022   1.480   4.048   6.155 -0.9423 -0.2964 -0.5222
 6708SOL    HW121023   1.383   4.044   6.128 -0.9758 -0.4080 -0.3883
 6708SOL    HW221024   1.500   3.971   6.215 -1.8346  1.9431  2.9467
 6709SOL     OW21025   1.223   3.704   2.514 -0.5305  0.4559 -0.0522
 6709SOL    HW121026   1.284   3.700   2.593 -0.9548  0.7014  0.2932
 6709SOL    HW221027   1.242   3.786   2.462 -1.4196  1.2040  0.7692
 6710SOL     OW21028   6.530   3.363   2.355 -0.4512  0.2050  0.0944
 6710SOL    HW121029   6.592   3.390   2.428 -0.6566  0.8113  0.0450
 6710SOL    HW221030   6.448   3.420   2.358 -0.5529  0.0907 -0.4807
 6711SOL     OW21031   4.947   5.159   6.460 -0.1272  0.3016 -0.3909
 6711SOL    HW121032   4.896   5.099   6.522 -1.8691  1.8421 -0.2672
 6711SOL    HW221033   4.885   5.197   6.391  0.7855  2.3973 -0.1327
 6712SOL     OW21034   5.396   3.243   0.476 -0.0472 -0.6671  0.0306
 6712SOL    HW121035   5.353   3.316   0.423  2.3839  0.5258 -0.4454
 6712SOL    HW221036   5.402   3.160   0.421 -1.7242 -0.8765  0.1371
 6713SOL     OW21037   2.599   5.575   4.866  0.0143  0.0031  0.4134
 6713SOL    HW121038   2.528   5.624   4.815  0.6644 -0.0513 -0.5648
 6713SOL    HW221039   2.591   5.477   4.849 -1.1295 -0.2693  2.1758
 6714SOL     OW21040   5.633   2.247   3.442  0.3680 -0.3541 -0.3296
 6714SOL    HW121041   5.547   2.198   3.454  0.3476 -0.5984 -1.3991
 6714SOL    HW221042   5.699   2.189   3.395  0.7157  0.2576 -0.6148
 6715SOL     OW21043   6.505   4.669   5.098  0.7561  0.0844  0.2580
 6715SOL    HW121044   6.570   4.745   5.095  0.2478  0.4933 -1.3540
 6715SOL    HW221045   6.415   4.701   5.066 -0.3367 -0.4032  2.6452
 6716SOL     OW21046   6.572   1.626   2.512 -0.1709  0.0652 -0.4282
 6716SOL    HW121047   6.493   1.685   2.492 -0.6578 -0.4850 -0.1374
 6716SOL    HW221048   6.542   1.532   2.525  0.2201  0.1997  1.9312
 6717SOL     OW21049   5.824   1.627   6.299 -0.2713  0.6074 -0.0963
 6717SOL    HW121050   5.736   1.659   6.333  0.4196  2.7491 -0.1478
 6717SOL    HW221051   5.898   1.669   6.353  0.7412  0.5850 -1.4159
 6718SOL     OW21052   4.315   3.796   0.584  0.1312  0.0318 -0.2706
 6718SOL    HW121053   4.220   3.769   0.600 -1.3025  3.4925 -1.7976
 6718SOL    HW221054   4.336   3.877   0.639  1.8945 -0.1295 -0.6602
 6719SOL     OW21055   0.401   6.305   1.857 -0.1505  0.2049  0.2814
 6719SOL    HW121056   0.466   6.355   1.799  1.3176  0.6901  2.2107
 6719SOL    HW221057   0.338   6.252   1.800  2.3879 -0.8672 -1.7290
 6720SOL     OW21058   1.586   2.517   4.567 -0.2572 -0.3496 -0.6189
 6720SOL    HW121059   1.536   2.599   4.538  0.8611  0.3148 -0.6919
 6720SOL    HW221060   1.592   2.453   4.491 -0.0383  0.0419 -0.9294
 6721SOL     OW21061   6.340   6.856   6.693  0.0743  0.5335  0.2560
 6721SOL    HW121062   6.366   6.773   6.645 -1.1625  0.8661 -1.0547
 6721SOL    HW221063   6.409   6.878   6.761  2.3284  0.4750 -1.8882
 6722SOL     OW21064   6.197   4.925   1.480 -0.1587  0.7077  0.1647
 6722SOL    HW121065   6.269   4.966   1.536 -1.3238 -0.1947  2.4584
 6722SOL    HW221066   6.112   4.975   1.495 -0.2615  1.2076 -1.8269
 6723SOL     OW21067   1.669   5.020   3.347  0.3095 -0.8435 -0.2221
 6723SOL    HW121068   1.708   4.970   3.425  0.7529 -2.3196 -1.3337
 6723SOL    HW221069   1.588   4.972   3.314 -1.1808  0.9703  0.6514
 6724SOL     OW21070   2.373   4.083   0.918 -0.3345 -0.2669  0.5230
 6724SOL    HW121071   2.290   4.115   0.966 -0.4997  0.3955 -0.1868
 6724SOL    HW221072   2.440   4.053   0.986 -0.0037  2.0070  1.2925
 6725SOL     OW21073   6.325   3.316   4.190 -0.1762  0.0729 -0.1699
 6725SOL    HW121074   6.306   3.220   4.210  1.4697 -0.2177  0.1884
 6725SOL    HW221075   6.365   3.324   4.099  0.5072  0.2949  0.1425
 6726SOL     OW21076   0.128   1.504   0.708  0.3490  0.2061 -0.0075
 6726SOL    HW121077   0.059   1.491   0.778 -0.6448  0.3305 -0.9305
 6726SOL    HW221078   0.121   1.597   0.672  1.5039  0.4674  0.4013
 6727SOL     OW21079   0.516   3.137   4.490 -0.7246 -0.3076  0.0201
 6727SOL    HW121080   0.593   3.166   4.432 -2.7310  0.0381 -2.6741
 6727SOL    HW221081   0.546   3.062   4.550  2.0929  0.9134  0.3274
 6728SOL     OW21082   4.510   3.348   0.069 -0.1225  0.3308  0.0525
 6728SOL    HW121083   4.507   3.249   0.087 -0.7488  0.1336 -1.0443
 6728SOL    HW221084   4.429   3.391   0.109 -0.5523  0.1816 -0.6443
 6729SOL     OW21085   5.390   1.869   2.435 -0.0596  0.4496  0.0186
 6729SOL    HW121086   5.329   1.836   2.507  1.4640  1.1812  1.7255
 6729SOL    HW221087   5.336   1.916   2.365 -1.6478 -0.7775  0.3529
 6730SOL     OW21088   6.462   0.273   1.080  0.0570 -0.6587  0.0439
 6730SOL    HW121089   6.543   0.260   1.023  1.3311  3.0907  0.7483
 6730SOL    HW221090   6.397   0.332   1.032 -1.4164 -1.9657  0.3359
 6731SOL     OW21091   4.032   0.634   5.499  0.0737  0.1535  0.5470
 6731SOL    HW121092   4.079   0.561   5.548  0.7298 -0.0941 -0.4081
 6731SOL    HW221093   4.094   0.713   5.490  0.0346  0.1234 -0.0299
 6732SOL     OW21094   6.705   5.728   6.993 -0.0861  0.3325  0.0187
 6732SOL    HW121095   6.723   5.634   7.023 -0.9250  1.2397  3.8306
 6732SOL    HW221096   6.674   5.726   6.898  0.2857 -3.1888 -0.1784
 6733SOL     OW21097   5.565   5.058   6.461 -0.2827 -0.0142  0.0487
 6733SOL    HW121098   5.609   4.968   6.463  0.3522  0.2801  2.1457
 6733SOL    HW221099   5.466   5.046   6.468 -0.2781 -0.5742 -0.7430
 6734SOL     OW21100   5.681   2.020   5.180 -0.1733 -0.4923 -0.2897
 6734SOL    HW121101   5.751   2.040   5.112 -2.4642  0.5760 -2.5058
 6734SOL    HW221102   5.628   2.103   5.198 -1.0767 -1.3250  1.0774
 6735SOL     OW21103   6.534   1.558   0.004 -0.1076  0.5437 -0.5373
 6735SOL    HW121104   6.588   1.487   0.049  0.3986  1.2603 -0.0076
 6735SOL    HW221105   6.546   1.550  -0.095  1.7847  1.2911 -0.4143
 6736SOL     OW21106   4.132   1.972   0.265  0.1194 -0.5119  0.6564
 6736SOL    HW121107   4.178   2.011   0.345  0.9432  1.2102 -0.5808
 6736SOL    HW221108   4.033   1.981   0.275  0.2518  3.2261 -0.0830
 6737SOL     OW21109   5.931   3.103   2.263 -0.7324  0.3012  0.0101
 6737SOL    HW121110   5.887   3.072   2.179  0.4296  0.3669 -0.6487
 6737SOL    HW221111   6.006   3.166   2.240 -0.3377  0.2496  1.0919
 6738SOL     OW21112   2.226   6.744   4.174 -0.2417  0.2768 -0.2204
 6738SOL    HW121113   2.266   6.801   4.103  1.9198 -0.2771  0.4667
 6738SOL    HW221114   2.196   6.801   4.250  0.5736  0.6331 -0.1535
 6739SOL     OW21115   1.260   1.798   5.452 -0.1067  0.2326  0.2334
 6739SOL    HW121116   1.243   1.887   5.409 -1.5251  0.5025  1.2803
 6739SOL    HW221117   1.252   1.726   5.383  0.1676  0.8347 -0.4435
 6740SOL     OW21118   2.603   7.022   1.610  0.0274 -0.1444 -0.1055
 6740SOL    HW121119   2.689   7.003   1.659  0.8821  0.4123 -1.3233
 6740SOL    HW221120   2.575   6.940   1.560 -1.6328 -1.1851  2.3657
 6741SOL     OW21121   5.337   1.862   6.816 -0.4374 -0.0517  0.1018
 6741SOL    HW121122   5.246   1.829   6.792 -0.1446 -1.6315  1.0015
 6741SOL    HW221123   5.355   1.948   6.769 -0.7335 -1.8097 -3.6148
 6742SOL     OW21124   6.660   5.276   2.098  0.3835  0.3754 -0.9680
 6742SOL    HW121125   6.755   5.288   2.070  0.3977  1.8209 -0.3694
 6742SOL    HW221126   6.658   5.247   2.194  0.2561 -2.0700 -1.6293
 6743SOL     OW21127   3.770   4.239   6.518 -0.4195 -0.9196 -0.2602
 6743SOL    HW121128   3.804   4.285   6.600 -0.7149 -0.1117 -0.5902
 6743SOL    HW221129   3.821   4.271   6.439 -2.4003  0.8938 -0.8858
 6744SOL     OW21130   5.628   5.320   5.753  0.0140 -0.0380  0.1774
 6744SOL    HW121131   5.683   5.395   5.715  1.3754 -0.6637  0.8647
 6744SOL    HW221132   5.579   5.352   5.834 -0.4527  0.4505 -0.2875
 6745SOL     OW21133   5.858   2.816   6.278 -0.0449  0.3280  0.2441
 6745SOL    HW121134   5.804   2.749   6.330 -0.7775  0.6900 -0.0267
 6745SOL    HW221135   5.946   2.777   6.255 -0.1598 -0.2596  0.7657
 6746SOL     OW21136   2.440   2.606   1.977 -0.3169  0.1061 -0.0126
 6746SOL    HW121137   2.437   2.585   2.075 -1.1763 -0.6884 -0.1885
 6746SOL    HW221138   2.496   2.538   1.930 -1.7189 -0.8600 -0.3546
 6747SOL     OW21139   1.076   4.325   4.218  0.0159 -0.1399 -0.7972
 6747SOL    HW121140   1.171   4.336   4.248  0.0586 -0.3901 -0.8406
 6747SOL    HW221141   1.031   4.254   4.272  0.2374 -0.9451 -1.6333
 6748SOL     OW21142   0.798   1.534   4.739  0.0927  0.1958 -0.4895
 6748SOL    HW121143   0.842   1.536   4.650 -1.4696  3.9503 -1.3716
 6748SOL    HW221144   0.726   1.465   4.740 -0.1576  0.3993 -2.2972
 6749SOL     OW21145   2.306   3.342   0.708 -0.7940  0.8542  0.0694
 6749SOL    HW121146   2.211   3.323   0.683 -0.1610 -0.6398 -1.4220
 6749SOL    HW221147   2.343   3.265   0.760 -0.1499  1.0429 -0.0990
 6750SOL     OW21148   3.354   0.283   6.037  0.0420 -0.5203  0.0385
 6750SOL    HW121149   3.345   0.382   6.048  1.2265 -0.1690 -1.7191
 6750SOL    HW221150   3.293   0.237   6.101  0.0832  1.3162  1.4832
 6751SOL     OW21151   3.584   2.304   5.377 -0.1138 -0.6553 -0.2849
 6751SOL    HW121152   3.660   2.354   5.418 -0.0389 -1.5494  0.7190
 6751SOL    HW221153   3.604   2.206   5.377 -1.1379 -0.8783 -0.2668
 6752SOL     OW21154   2.941   0.299   4.132  0.1669 -0.4703 -0.4164
 6752SOL    HW121155   2.908   0.256   4.216 -0.0930 -1.1775 -0.8720
 6752SOL    HW221156   3.030   0.262   4.109  1.2986  1.3644  0.7567
 6753SOL     OW21157   3.133   4.900   4.903 -0.3936  0.4531 -0.1072
 6753SOL    HW121158   3.158   4.970   4.970  1.1677  0.2900 -0.4924
 6753SOL    HW221159   3.206   4.832   4.896 -1.8713 -1.2796  0.2787
 6754SOL     OW21160   6.475   1.193   6.199  0.0275  0.1025 -0.2138
 6754SOL    HW121161   6.389   1.147   6.175 -0.6841  1.2520  0.0554
 6754SOL    HW221162   6.526   1.136   6.263 -0.4116 -0.7151 -0.5739
 6755SOL     OW21163   4.574   0.534   3.983  0.1206  0.1333  0.3322
 6755SOL    HW121164   4.526   0.482   3.913  2.0727 -0.5874 -0.5266
 6755SOL    HW221165   4.599   0.624   3.946 -1.7099  1.0768  1.2415
 6756SOL     OW21166   4.862   3.939   5.036 -0.2735  0.4543  0.5092
 6756SOL    HW121167   4.808   3.972   4.959  2.6812 -0.2797 -2.0671
 6756SOL    HW221168   4.848   3.840   5.047  1.8832 -0.1867 -1.5617
 6757SOL     OW21169   4.153   1.812   1.704  0.5817  0.2677 -0.2658
 6757SOL    HW121170   4.170   1.857   1.792  0.4619 -1.8186  0.9024
 6757SOL    HW221171   4.122   1.719   1.721  2.1291 -0.7412 -2.5432
 6758SOL     OW21172   4.663   0.334   2.582 -0.2507  0.2167 -0.3011
 6758SOL    HW121173   4.587   0.376   2.632 -1.3226  0.0412 -1.6858
 6758SOL    HW221174   4.750   0.362   2.622 -1.0387  0.2819  1.4526
 6759SOL     OW21175   1.370   2.057   1.463 -0.0002  0.5962 -0.4554
 6759SOL    HW121176   1.406   2.148   1.481 -0.6943  0.4288  2.1022
 6759SOL    HW221177   1.413   1.991   1.525 -1.9750 -0.2136  0.1265
 6760SOL     OW21178   4.864   0.504   6.536 -0.3589  0.4227 -0.1025
 6760SOL    HW121179   4.886   0.580   6.597 -0.0948  0.7890 -0.6390
 6760SOL    HW221180   4.832   0.540   6.448 -4.1847 -0.0650  0.9308
 6761SOL     OW21181   3.188   6.426   5.832  0.2128  0.4161 -0.1144
 6761SOL    HW121182   3.248   6.349   5.855 -0.2545 -0.0809 -0.5209
 6761SOL    HW221183   3.185   6.437   5.732  0.4204  1.0789 -0.0475
 6762SOL     OW21184   4.294   4.838   4.200  0.1541 -0.5116 -0.2722
 6762SOL    HW121185   4.244   4.896   4.264 -0.6255 -1.0239 -0.4031
 6762SOL    HW221186   4.365   4.787   4.249  1.0318  0.7248 -0.1976
 6763SOL     OW21187   6.033   5.519   4.658 -0.3339 -0.0344 -0.0096
 6763SOL    HW121188   5.933   5.527   4.656 -0.2442  1.2884  0.3494
 6763SOL    HW221189   6.064   5.520   4.753  0.0180 -0.6031 -0.1142
 6764SOL     OW21190   1.267   4.467   2.586  0.4531 -0.3774 -0.1823
 6764SOL    HW121191   1.229   4.460   2.493  0.3970 -0.4341 -0.1555
 6764SOL    HW221192   1.193   4.458   2.653  0.4906 -0.3116 -0.1324
 6765SOL     OW21193   1.680   6.093   2.155 -0.1889  0.6641 -0.4296
 6765SOL    HW121194   1.754   6.084   2.221 -0.5563  1.5715  0.1327
 6765SOL    HW221195   1.717   6.090   2.062  0.0337 -3.6813 -0.3848
 6766SOL     OW21196   6.501   5.714   2.880  0.4608 -0.3276  0.4672
 6766SOL    HW121197   6.506   5.686   2.976 -1.2259  1.3712  1.1291
 6766SOL    HW221198   6.507   5.814   2.875  1.1595 -0.4279 -1.2847
 6767SOL     OW21199   3.622   0.786   2.648  0.7219 -0.9183 -0.1399
 6767SOL    HW121200   3.554   0.794   2.721  0.9783  2.3519 -0.1052
 6767SOL    HW221201   3.713   0.784   2.689  0.8136 -0.4309 -0.3172
 6768SOL     OW21202   4.533   6.952   6.229  0.1024  0.1972  0.5899
 6768SOL    HW121203   4.519   6.950   6.130  0.3028  2.3060  0.4751
 6768SOL    HW221204   4.461   6.898   6.273 -0.6115  0.0849 -0.6528
 6769SOL     OW21205   0.131   2.773   0.588  0.1583  0.4275 -0.3856
 6769SOL    HW121206   0.224   2.790   0.621  0.0117  1.4096 -0.4296
 6769SOL    HW221207   0.132   2.696   0.524  0.7370 -0.3402  0.5147
 6770SOL     OW21208   6.785   1.855   0.845 -0.4145  0.0416 -0.3200
 6770SOL    HW121209   6.780   1.817   0.753  1.7858  1.3893 -1.0706
 6770SOL    HW221210   6.692   1.878   0.876 -1.0731  2.2696 -3.4190
 6771SOL     OW21211   2.066   0.939   5.656  0.1454 -0.2078 -0.6550
 6771SOL    HW121212   2.028   0.972   5.570 -1.2794 -0.1088 -0.0236
 6771SOL    HW221213   2.156   0.980   5.671 -0.6741  1.8028 -0.8985
 6772SOL     OW21214   3.428   2.205   0.144 -1.2960  0.4583 -0.2551
 6772SOL    HW121215   3.506   2.207   0.207 -1.8740  1.9546  0.4465
 6772SOL    HW221216   3.388   2.296   0.137 -1.6968  0.1827 -2.2575
 6773SOL     OW21217   6.461   2.015   2.473 -0.1379  0.2203 -0.8845
 6773SOL    HW121218   6.468   2.074   2.554  0.3185  1.5849 -1.8898
 6773SOL    HW221219   6.552   1.994   2.439 -0.3344 -0.2866 -1.1036
 6774SOL     OW21220   2.298   0.353   6.564 -0.0932  0.0418 -0.0196
 6774SOL    HW121221   2.290   0.265   6.516 -2.3373 -0.2403  0.7497
 6774SOL    HW221222   2.341   0.420   6.503  0.8592 -1.3385 -0.9352
 6775SOL     OW21223   5.880   2.513   0.151 -0.6707  0.6652 -0.1849
 6775SOL    HW121224   5.902   2.505   0.248 -1.7553 -1.4292 -0.0539
 6775SOL    HW221225   5.941   2.454   0.098 -1.7955 -0.3032 -0.4549
 6776SOL     OW21226   0.453   5.865   4.721  0.6795  0.1003  0.0116
 6776SOL    HW121227   0.379   5.932   4.724 -2.0149 -2.6543  0.0245
 6776SOL    HW221228   0.507   5.872   4.805 -1.0562  0.6508  1.1329
 6777SOL     OW21229   3.821   5.551   0.568  0.0052  0.6714  0.0849
 6777SOL    HW121230   3.724   5.527   0.560  0.2196 -0.6562  1.1394
 6777SOL    HW221231   3.844   5.619   0.499 -1.8544  1.5795  0.2948
 6778SOL     OW21232   0.060   5.878   3.989 -0.3472  0.3789 -0.2257
 6778SOL    HW121233   0.025   5.933   4.064  0.3873  0.2394  0.2318
 6778SOL    HW221234   0.081   5.786   4.022 -0.2494  0.2420 -0.6585
 6779SOL     OW21235   5.539   3.197   0.069  0.4224 -0.6281 -0.0497
 6779SOL    HW121236   5.444   3.221   0.091  0.3160  0.1175 -1.2475
 6779SOL    HW221237   5.540   3.128  -0.003  0.7973 -1.0811  0.3811
 6780SOL     OW21238   2.032   2.620   1.122 -0.5561  0.2750 -0.2140
 6780SOL    HW121239   1.942   2.588   1.150 -0.1631 -2.4228 -1.6667
 6780SOL    HW221240   2.043   2.608   1.023  0.9413  1.8479 -0.3041
 6781SOL     OW21241   4.988   4.496   5.665 -0.1647  0.2651  0.5499
 6781SOL    HW121242   5.010   4.416   5.722  0.0873 -0.9310 -1.1435
 6781SOL    HW221243   5.071   4.529   5.621 -0.2964  1.3968  1.1294
 6782SOL     OW21244   5.635   2.059   4.657  0.5639  0.0704 -0.1062
 6782SOL    HW121245   5.552   2.018   4.694 -1.2172  1.0186 -2.7510
 6782SOL    HW221246   5.660   2.138   4.712 -0.7413  0.1964  0.3433
 6783SOL     OW21247   1.445   5.657   6.483 -0.0404  0.2151 -0.2567
 6783SOL    HW121248   1.383   5.579   6.495  0.5712 -0.3188 -0.5003
 6783SOL    HW221249   1.462   5.672   6.386 -0.5281  0.9585 -0.2328
 6784SOL     OW21250   4.657   3.009   0.007  0.7957  0.4433  0.8058
 6784SOL    HW121251   4.560   3.004   0.031  0.3338  0.1985 -0.9691
 6784SOL    HW221252   4.709   2.946   0.065 -0.3407 -0.6509  0.6783
 6785SOL     OW21253   4.023   5.084   6.592 -0.4081 -0.0841 -0.3768
 6785SOL    HW121254   4.030   4.992   6.631  0.4156 -0.0275 -0.3726
 6785SOL    HW221255   4.104   5.102   6.536 -1.0866  0.2274 -1.2773
 6786SOL     OW21256   1.942   4.917   6.920  0.2121  0.4441  0.6061
 6786SOL    HW121257   1.936   4.855   6.842 -0.1936  0.4564  0.6246
 6786SOL    HW221258   1.869   4.986   6.913  1.1971  1.4643  0.1097
 6787SOL     OW21259   0.974   5.421   2.932 -0.9843  0.2263  0.5957
 6787SOL    HW121260   0.966   5.322   2.935  0.2721  0.1086  0.6674
 6787SOL    HW221261   0.924   5.457   2.853  0.4685 -0.7146 -0.8253
 6788SOL     OW21262   2.619   3.930   0.348  0.0882  0.1839 -0.2699
 6788SOL    HW121263   2.619   4.013   0.291 -0.6046  0.9913  0.8741
 6788SOL    HW221264   2.545   3.870   0.319  0.0531  0.3545 -0.5424
 6789SOL     OW21265   0.643   4.637   2.313 -0.0930 -0.0496 -0.2336
 6789SOL    HW121266   0.742   4.648   2.304 -0.1003  0.1593 -0.0758
 6789SOL    HW221267   0.622   4.568   2.382 -0.0604  0.2941  0.1252
 6790SOL     OW21268   0.057   3.245   1.082 -0.7567  0.0110 -0.1887
 6790SOL    HW121269   0.133   3.207   1.028  1.2924  0.6781  2.0379
 6790SOL    HW221270  -0.010   3.174   1.100  1.5000 -1.8479  1.3763
 6791SOL     OW21271   3.272   4.015   4.543  0.9290  0.4583  0.3952
 6791SOL    HW121272   3.265   4.055   4.451  2.7802 -1.1766 -0.5255
 6791SOL    HW221273   3.204   3.942   4.552  1.9959 -0.6659 -0.4180
 6792SOL     OW21274   1.555   5.943   6.365  0.1953  0.5368 -0.1770
 6792SOL    HW121275   1.638   5.912   6.318  0.1639  0.5076 -0.2133
 6792SOL    HW221276   1.535   5.882   6.441  0.8273  1.1680  0.5228
 6793SOL     OW21277   0.717   0.769   1.645 -0.2761  0.6555  0.5824
 6793SOL    HW121278   0.784   0.786   1.717  0.1855  0.2667  0.2474
 6793SOL    HW221279   0.636   0.826   1.662 -0.2377  0.4628  1.4823
 6794SOL     OW21280   3.283   1.566   6.143  0.5774 -0.0954  0.1561
 6794SOL    HW121281   3.196   1.517   6.144  0.7062 -0.3246  0.2225
 6794SOL    HW221282   3.318   1.571   6.049  1.0616 -1.0258  0.2731
 6795SOL     OW21283   5.208   5.953   0.646 -0.4629 -0.3600 -0.0364
 6795SOL    HW121284   5.273   6.000   0.706  0.9111  0.2439 -1.9155
 6795SOL    HW221285   5.232   5.856   0.640  0.6089 -0.0454 -1.1096
 6796SOL     OW21286   4.626   1.515   2.526 -0.1577  0.4465  0.0669
 6796SOL    HW121287   4.542   1.546   2.480  0.0354  1.0688  0.1188
 6796SOL    HW221288   4.653   1.426   2.490  0.2495  1.1199 -1.3817
 6797SOL     OW21289   0.361   2.450   0.415 -0.1072  0.5096  0.1156
 6797SOL    HW121290   0.411   2.526   0.456 -1.6065  2.1186 -0.9123
 6797SOL    HW221291   0.264   2.473   0.408 -0.8486 -2.0070  0.8941
 6798SOL     OW21292   5.609   0.264   1.171  0.1285 -0.0659  0.0655
 6798SOL    HW121293   5.551   0.184   1.185 -0.9290  0.2932 -1.9306
 6798SOL    HW221294   5.697   0.250   1.216 -1.4191 -0.6339  3.1878
 6799SOL     OW21295   6.404   0.492   3.195 -0.3142  0.0914  0.4178
 6799SOL    HW121296   6.472   0.477   3.123  0.5941  0.4452  1.1816
 6799SOL    HW221297   6.411   0.418   3.262 -0.1532  0.5464  0.9026
 6800SOL     OW21298   2.149   4.812   0.534  0.4055  0.1969 -0.2991
 6800SOL    HW121299   2.199   4.728   0.514 -0.1379 -0.3398  0.5363
 6800SOL    HW221300   2.214   4.885   0.556  0.9390  0.3138 -2.0482
 6801SOL     OW21301   4.976   1.840   1.225 -0.0623  0.0598 -0.3475
 6801SOL    HW121302   4.953   1.821   1.320  0.1640 -0.8399 -0.4651
 6801SOL    HW221303   5.072   1.869   1.219  0.1335 -0.5912 -0.3844
 6802SOL     OW21304   2.545   4.921   1.341  0.0636  0.2023  0.3157
 6802SOL    HW121305   2.473   4.988   1.323 -0.9150 -0.4243  1.6736
 6802SOL    HW221306   2.516   4.832   1.306  0.6667  0.1771 -0.1128
 6803SOL     OW21307   4.300   1.648   6.821  1.1843 -0.0692  0.1387
 6803SOL    HW121308   4.219   1.647   6.762  0.6980  1.0709  0.7606
 6803SOL    HW221309   4.275   1.680   6.912  2.3819  0.5878  0.2586
 6804SOL     OW21310   2.443   5.425   4.368 -0.8477 -0.5266 -0.2103
 6804SOL    HW121311   2.539   5.432   4.394 -0.5884  0.3446 -1.2997
 6804SOL    HW221312   2.401   5.345   4.412  0.1233 -0.3950  0.9974
 6805SOL     OW21313   5.475   2.170   5.692 -0.2185  0.1327 -0.2601
 6805SOL    HW121314   5.436   2.089   5.735  0.4184  0.5311  1.1405
 6805SOL    HW221315   5.444   2.252   5.741 -1.2911  0.8018 -1.9863
 6806SOL     OW21316   3.532   5.280   4.062  0.4680 -0.5472  1.0019
 6806SOL    HW121317   3.574   5.193   4.085 -0.4356 -0.4781  3.1586
 6806SOL    HW221318   3.432   5.270   4.062  0.3760  0.1418 -0.2857
 6807SOL     OW21319   3.926   2.170   6.901  0.3971  0.0848  0.5399
 6807SOL    HW121320   3.922   2.147   6.804  1.2093  0.0361  0.5170
 6807SOL    HW221321   3.879   2.100   6.954  0.1308  0.0067  0.2085
 6808SOL     OW21322   3.283   5.649   3.568  0.5409  0.4804  0.0977
 6808SOL    HW121323   3.346   5.668   3.643  0.0359  1.5031  0.2764
 6808SOL    HW221324   3.334   5.616   3.489  1.2483  0.8616  0.3844
 6809SOL     OW21325   3.325   1.942   1.413  0.2683 -0.0290  0.3384
 6809SOL    HW121326   3.355   1.976   1.502 -0.8951  0.8554  0.4154
 6809SOL    HW221327   3.298   2.019   1.356 -0.3469 -0.6872 -0.2768
 6810SOL     OW21328   6.715   2.064   4.996 -0.3477 -0.2472 -0.1495
 6810SOL    HW121329   6.757   2.069   5.087  0.3681  0.8847 -0.5214
 6810SOL    HW221330   6.718   1.969   4.963 -1.6487 -0.8985  1.4580
 6811SOL     OW21331   6.708   1.117   0.313  0.1870 -0.6783  0.1913
 6811SOL    HW121332   6.775   1.043   0.314  1.3852  0.3603  0.9944
 6811SOL    HW221333   6.656   1.116   0.398  1.1457  0.1666  0.8238
 6812SOL     OW21334   3.923   3.149   1.871  0.1319 -0.5227 -0.7589
 6812SOL    HW121335   4.008   3.194   1.898  0.3578 -0.4555 -1.5540
 6812SOL    HW221336   3.882   3.105   1.951  0.7137 -0.2373 -0.2903
 6813SOL     OW21337   4.818   5.116   1.337 -0.6713 -0.0570 -0.0660
 6813SOL    HW121338   4.840   5.071   1.250  0.4061  0.9300 -0.3262
 6813SOL    HW221339   4.732   5.166   1.328 -1.6399 -1.6304  0.0852
 6814SOL     OW21340   2.685   1.404   1.239 -0.3804  0.0564 -0.4590
 6814SOL    HW121341   2.592   1.380   1.211 -0.4004 -0.0069 -0.3421
 6814SOL    HW221342   2.692   1.502   1.254 -0.9989 -0.1567  1.5616
 6815SOL     OW21343   0.013   5.540   5.517  0.2132  0.4322  0.4388
 6815SOL    HW121344  -0.044   5.465   5.482 -0.0281  1.3965 -1.3662
 6815SOL    HW221345  -0.031   5.581   5.596 -1.6076  1.0962 -0.8527
 6816SOL     OW21346   4.472   5.181   1.804 -0.4670  0.8051 -0.6446
 6816SOL    HW121347   4.394   5.124   1.830 -0.0418 -0.1324 -1.4052
 6816SOL    HW221348   4.496   5.165   1.709  2.1729 -0.7682  0.1745
 6817SOL     OW21349   6.923   2.379   6.524 -0.5223  0.2860  0.7797
 6817SOL    HW121350   6.939   2.470   6.485  0.6054 -0.3806 -0.3971
 6817SOL    HW221351   6.886   2.319   6.453 -0.6792 -0.3398  1.3859
 6818SOL     OW21352   2.980   5.303   0.352 -0.2236  0.9695  0.3143
 6818SOL    HW121353   2.956   5.230   0.289 -1.3055  0.1113  1.6565
 6818SOL    HW221354   3.078   5.321   0.348  0.0147 -0.3714 -0.2421
 6819SOL     OW21355   3.814   0.879   4.922 -0.1856  0.6717  0.3307
 6819SOL    HW121356   3.819   0.858   5.020 -0.6851 -1.3969 -0.0494
 6819SOL    HW221357   3.728   0.846   4.885  1.1230 -1.0594 -1.3356
 6820SOL     OW21358   1.537   5.493   4.691 -0.3922 -0.4214 -0.3003
 6820SOL    HW121359   1.626   5.454   4.717 -0.8156  0.2140  2.3412
 6820SOL    HW221360   1.483   5.423   4.644  0.8651 -1.3267 -0.4504
 6821SOL     OW21361   2.234   3.340   5.646  0.2462  0.2572  0.4578
 6821SOL    HW121362   2.306   3.288   5.692 -0.0582 -0.4742  0.1250
 6821SOL    HW221363   2.247   3.335   5.547 -1.0792 -1.1342  0.3192
 6822SOL     OW21364   0.434   1.519   5.716  0.0276  1.3395  0.1118
 6822SOL    HW121365   0.498   1.536   5.641 -1.0467  0.0747 -1.1593
 6822SOL    HW221366   0.349   1.570   5.700  0.2446  2.0440  1.1405
 6823SOL     OW21367   3.511   3.836   2.983 -0.0108  0.4058  0.1617
 6823SOL    HW121368   3.572   3.915   2.987  0.3670  0.0477  2.3580
 6823SOL    HW221369   3.500   3.796   3.074 -1.3148 -1.2464 -0.6471
 6824SOL     OW21370   0.276   6.149   4.994 -0.0224 -0.2710  0.2005
 6824SOL    HW121371   0.316   6.234   4.962 -1.1544 -0.7048 -2.6540
 6824SOL    HW221372   0.348   6.082   5.010  0.7644  0.7651  1.1567
 6825SOL     OW21373   0.632   0.663   3.331  0.4799 -0.3226 -0.0198
 6825SOL    HW121374   0.577   0.639   3.411  3.3133 -1.5088  1.7296
 6825SOL    HW221375   0.641   0.584   3.271 -0.1313  0.0277 -0.5855
 6826SOL     OW21376   1.780   1.662   3.652  0.0185 -0.2892 -0.3602
 6826SOL    HW121377   1.813   1.614   3.734  1.6156  0.4520 -0.5246
 6826SOL    HW221378   1.696   1.711   3.673  0.0454 -0.6527  0.6423
 6827SOL     OW21379   2.462   5.614   5.090 -0.1102 -0.0841  0.5578
 6827SOL    HW121380   2.381   5.556   5.084 -1.2947  1.5298  0.2621
 6827SOL    HW221381   2.528   5.588   5.020 -0.7931 -0.7976  0.1755
 6828SOL     OW21382   2.425   2.886   1.024  0.0198 -0.2333 -0.2167
 6828SOL    HW121383   2.416   2.787   1.019 -1.2321 -0.1819  0.4422
 6828SOL    HW221384   2.360   2.922   1.091 -0.9668  1.2040 -1.8274
 6829SOL     OW21385   6.775   4.854   2.927 -0.3474  0.0484  0.4348
 6829SOL    HW121386   6.803   4.947   2.901 -0.2415 -0.1306 -0.1102
 6829SOL    HW221387   6.675   4.851   2.932 -0.3913  0.0228 -0.2518
 6830SOL     OW21388   4.055   1.584   4.405  0.1489  0.5163 -0.4014
 6830SOL    HW121389   3.982   1.641   4.440  1.4881  2.3911 -0.5217
 6830SOL    HW221390   4.027   1.544   4.317 -0.3869  2.0229 -0.9531
 6831SOL     OW21391   1.882   2.798   4.763  0.3255 -0.2574  0.7238
 6831SOL    HW121392   1.900   2.714   4.713 -0.9617 -0.1814  0.0897
 6831SOL    HW221393   1.964   2.854   4.766  0.9213 -1.0922  0.2956
 6832SOL     OW21394   2.762   4.822   1.526  0.1882 -0.3003  0.1174
 6832SOL    HW121395   2.685   4.849   1.469 -0.3025 -0.3770  0.7302
 6832SOL    HW221396   2.729   4.799   1.618  0.9075 -0.5951  0.3086
 6833SOL     OW21397   3.775   6.302   5.398 -0.3973 -0.2041  0.6968
 6833SOL    HW121398   3.734   6.328   5.311  0.3658  2.7287  1.1206
 6833SOL    HW221399   3.722   6.342   5.473  0.7925  0.0661  1.4175
 6834SOL     OW21400   2.002   5.817   2.113  0.1021  0.1616  0.2763
 6834SOL    HW121401   2.003   5.771   2.202 -1.8520 -0.3483  0.0851
 6834SOL    HW221402   1.975   5.752   2.042  2.8441  0.2383 -0.9549
 6835SOL     OW21403   3.195   5.063   4.560 -0.3353  0.8621 -0.1869
 6835SOL    HW121404   3.270   5.090   4.501 -0.4617 -1.1067 -1.3173
 6835SOL    HW221405   3.208   5.104   4.651  1.6164  1.2706 -0.6015
 6836SOL     OW21406   5.868   6.445   0.760  0.3004  0.3527  0.2353
 6836SOL    HW121407   5.868   6.353   0.799  0.0710  0.6202  0.8693
 6836SOL    HW221408   5.836   6.511   0.828  0.1134  0.8558 -0.3295
 6837SOL     OW21409   0.112   2.879   3.239 -0.2208  0.0396  0.0585
 6837SOL    HW121410   0.180   2.948   3.217  1.6684 -1.3140  1.3792
 6837SOL    HW221411   0.033   2.922   3.282  0.0043  1.5737 -0.9894
 6838SOL     OW21412   2.495   3.303   0.993  0.3984  0.6717 -0.1043
 6838SOL    HW121413   2.442   3.309   1.078  1.1113  0.5976  0.3491
 6838SOL    HW221414   2.532   3.393   0.970  1.4208  0.4042  0.4545
 6839SOL     OW21415   2.765   0.878   0.386  0.0488  0.2815  0.4886
 6839SOL    HW121416   2.671   0.845   0.396  0.2225  0.0570  1.4091
 6839SOL    HW221417   2.829   0.802   0.398  0.3646  0.5022  0.2234
 6840SOL     OW21418   6.733   1.315   6.570 -0.0582  0.4160 -0.1702
 6840SOL    HW121419   6.682   1.324   6.484  1.9271 -0.0750 -1.4677
 6840SOL    HW221420   6.828   1.344   6.555  1.4498 -3.4955  0.6934
 6841SOL     OW21421   4.496   2.653   5.806  0.1387 -0.4961  0.3975
 6841SOL    HW121422   4.466   2.632   5.899 -0.1207 -0.3573  0.3464
 6841SOL    HW221423   4.473   2.749   5.785 -2.2383 -1.2403 -0.7612
 6842SOL     OW21424   1.660   5.806   3.043 -0.0867 -0.6463  0.1302
 6842SOL    HW121425   1.651   5.767   2.951 -0.5806  2.3660 -1.2479
 6842SOL    HW221426   1.750   5.783   3.080  2.0447  1.5553 -3.0799
 6843SOL     OW21427   4.533   5.609   2.694  0.0946  0.1435  0.6806
 6843SOL    HW121428   4.498   5.623   2.601 -0.2759 -2.0654  0.4189
 6843SOL    HW221429   4.632   5.614   2.694  0.0371  1.6710  0.4852
 6844SOL     OW21430   6.022   1.534   6.143 -0.2719  0.4828 -0.2332
 6844SOL    HW121431   6.067   1.616   6.108  0.4834  1.2772  2.3641
 6844SOL    HW221432   5.958   1.560   6.215 -1.9249 -1.0290 -1.0813
 6845SOL     OW21433   6.286   3.070   2.486  0.2813  0.5731  0.0352
 6845SOL    HW121434   6.239   3.156   2.503  1.7417  2.0184 -2.6749
 6845SOL    HW221435   6.220   3.003   2.451 -0.6333  0.9811  0.9431
 6846SOL     OW21436   2.091   2.152   6.719  0.8496 -0.5793 -0.6512
 6846SOL    HW121437   2.094   2.153   6.619 -0.0222 -4.4292 -0.8570
 6846SOL    HW221438   2.184   2.145   6.755  1.0678 -1.5018 -1.3524
 6847SOL     OW21439   5.764   1.788   3.854 -0.6436 -0.1693  0.2506
 6847SOL    HW121440   5.705   1.709   3.872 -0.9843  0.4489  1.9899
 6847SOL    HW221441   5.859   1.763   3.872 -0.6774 -0.3434  0.1985
 6848SOL     OW21442   4.935   5.098   3.697  0.4452  0.0610  0.1404
 6848SOL    HW121443   4.975   5.170   3.641 -0.5489  0.3069 -0.2830
 6848SOL    HW221444   4.990   5.085   3.780  1.7818 -0.1388 -0.7632
 6849SOL     OW21445   3.330   3.441   4.116  0.0204  0.2409  0.1007
 6849SOL    HW121446   3.256   3.424   4.052  0.4356  1.6034 -0.7877
 6849SOL    HW221447   3.334   3.367   4.183 -3.0742  0.8323  1.0964
 6850SOL     OW21448   5.968   6.169   3.665  0.1039  0.2296  0.4867
 6850SOL    HW121449   5.964   6.217   3.577  0.1423 -1.1632 -0.2989
 6850SOL    HW221450   6.026   6.088   3.656 -0.8732 -0.6057  1.4709
 6851SOL     OW21451   0.940   5.162   3.807  0.5682 -0.1325 -0.2474
 6851SOL    HW121452   0.927   5.201   3.716  0.6897  0.1036 -0.1624
 6851SOL    HW221453   1.038   5.154   3.826  0.5564 -1.2266 -0.5866
 6852SOL     OW21454   4.249   3.255   0.406  0.3277 -0.0416 -0.4845
 6852SOL    HW121455   4.295   3.205   0.480  1.2439  0.0352 -0.9867
 6852SOL    HW221456   4.156   3.222   0.397  0.5025 -0.7207  0.0807
 6853SOL     OW21457   4.860   5.377   3.982  0.2581 -0.4613  0.8604
 6853SOL    HW121458   4.947   5.331   3.998  1.0222  0.8051  0.4950
 6853SOL    HW221459   4.851   5.453   4.046  0.2552  0.5128 -0.2617
 6854SOL     OW21460   5.083   5.012   4.747 -0.0288  0.3740 -0.9964
 6854SOL    HW121461   5.093   5.108   4.718  0.0515  0.7255  0.1414
 6854SOL    HW221462   5.173   4.970   4.754 -0.1054 -0.0336 -2.2527
 6855SOL     OW21463   3.645   5.984   3.241 -0.1297 -0.1255  0.1571
 6855SOL    HW121464   3.714   5.980   3.313  0.4041  0.5250 -0.3066
 6855SOL    HW221465   3.690   6.002   3.153 -0.8639  0.0985 -0.1780
 6856SOL     OW21466   5.559   1.058   1.368  0.4350  0.2693 -0.1673
 6856SOL    HW121467   5.556   1.086   1.464  0.2698 -0.2416 -0.0209
 6856SOL    HW221468   5.538   0.960   1.361  5.7067 -1.1671 -0.1256
 6857SOL     OW21469   0.824   4.971   6.087  0.1167  0.2392 -0.0108
 6857SOL    HW121470   0.902   4.971   6.150  1.2432 -0.4101 -1.3732
 6857SOL    HW221471   0.746   4.927   6.131  0.8119 -0.0171  1.0035
 6858SOL     OW21472   1.474   2.771   2.232  0.7536 -0.3304  0.1566
 6858SOL    HW121473   1.506   2.860   2.264  1.0361 -0.2430 -0.3578
 6858SOL    HW221474   1.549   2.723   2.188  0.6731 -0.9429  0.6745
 6859SOL     OW21475   0.572   0.892   0.282  0.5041 -0.3297 -0.4355
 6859SOL    HW121476   0.623   0.825   0.226  1.3456  0.7316 -0.9703
 6859SOL    HW221477   0.636   0.956   0.323 -0.2610 -0.1543  0.4982
 6860SOL     OW21478   0.363   5.782   6.284  0.1265 -0.4589 -0.1238
 6860SOL    HW121479   0.276   5.773   6.333  0.2286 -1.1014 -0.0562
 6860SOL    HW221480   0.387   5.879   6.279 -1.1054 -0.1727 -1.0627
 6861SOL     OW21481   4.480   2.919   5.713  0.2250  0.4643 -0.3811
 6861SOL    HW121482   4.460   3.015   5.731 -0.9209 -0.1454  1.9057
 6861SOL    HW221483   4.579   2.906   5.711  0.3919  1.6092 -0.2167
 6862SOL     OW21484   0.899   6.628   3.813  0.0109 -0.3696 -0.5326
 6862SOL    HW121485   0.958   6.549   3.832  1.8601  1.1287  0.4076
 6862SOL    HW221486   0.861   6.620   3.721 -1.0482 -3.0174  0.0404
 6863SOL     OW21487   4.525   3.560   6.196 -0.1155  0.2258  0.0705
 6863SOL    HW121488   4.521   3.590   6.101  1.3310 -1.5504 -0.6091
 6863SOL    HW221489   4.471   3.622   6.253 -1.3726  1.0855 -1.9488
 6864SOL     OW21490   1.206   3.058   5.744 -0.7403 -0.3798  0.0323
 6864SOL    HW121491   1.146   3.096   5.673 -0.0642  0.1818 -0.2463
 6864SOL    HW221492   1.286   3.117   5.755  1.4794 -2.8092 -1.9584
 6865SOL     OW21493   1.558   6.049   3.945  0.4031 -0.1538 -0.0606
 6865SOL    HW121494   1.636   6.064   4.006 -0.9684  0.1762  1.6988
 6865SOL    HW221495   1.582   6.078   3.852  2.4273 -0.2792  0.3753
 6866SOL     OW21496   0.186   3.107   0.594  0.0441  1.1518  0.6916
 6866SOL    HW121497   0.158   3.193   0.551  0.4330  0.9797  0.0907
 6866SOL    HW221498   0.283   3.091   0.577  0.2781  1.2238  1.8918
 6867SOL     OW21499   2.084   3.522   0.204 -0.4614 -0.9441  0.2999
 6867SOL    HW121500   2.003   3.487   0.249 -2.3378 -0.0008 -2.1122
 6867SOL    HW221501   2.156   3.538   0.272 -3.3004  1.1597  3.1015
 6868SOL     OW21502   3.695   5.296   4.858  0.1253  0.6419 -0.2470
 6868SOL    HW121503   3.627   5.251   4.916  0.0318  2.3408  1.0434
 6868SOL    HW221504   3.780   5.243   4.859 -0.5694 -0.5083 -0.3573
 6869SOL     OW21505   2.233   1.905   5.690  0.5498 -0.3721 -0.4970
 6869SOL    HW121506   2.211   2.001   5.707  1.3886 -0.0604 -1.1340
 6869SOL    HW221507   2.150   1.857   5.663  0.1015  0.1437 -0.0834
 6870SOL     OW21508   5.911   1.103   0.802 -0.5941 -0.1886 -0.7271
 6870SOL    HW121509   5.956   1.050   0.730 -0.7235 -1.0737 -0.1768
 6870SOL    HW221510   5.859   1.178   0.761 -0.8964 -0.8502 -1.5767
 6871SOL     OW21511   0.215   4.439   3.803  0.1405 -0.6474  0.1140
 6871SOL    HW121512   0.173   4.400   3.885 -1.2515  0.4457 -0.0466
 6871SOL    HW221513   0.176   4.395   3.722 -0.6737  0.3392 -0.0361
 6872SOL     OW21514   3.513   5.297   1.109  0.0550 -1.0647 -0.0861
 6872SOL    HW121515   3.576   5.373   1.125 -0.2119 -1.0833  1.2039
 6872SOL    HW221516   3.459   5.281   1.192 -2.6235 -0.1734 -1.5533
 6873SOL     OW21517   0.002   3.719   2.739 -0.2518 -0.0217  0.5432
 6873SOL    HW121518   0.039   3.697   2.830  0.7821 -0.1199  0.1145
 6873SOL    HW221519   0.041   3.656   2.672 -1.6194 -0.4700  0.1309
 6874SOL     OW21520   3.361   6.495   0.837 -0.3582 -0.0662 -0.0893
 6874SOL    HW121521   3.338   6.405   0.801  1.3961 -1.2541  1.5511
 6874SOL    HW221522   3.456   6.495   0.869 -0.3913  2.3021  0.2412
 6875SOL     OW21523   1.003   0.823   6.710 -0.5854  0.0616  0.2709
 6875SOL    HW121524   0.911   0.861   6.719 -0.4125  0.3173  1.0287
 6875SOL    HW221525   1.005   0.731   6.750 -0.8149 -0.4697 -0.8856
 6876SOL     OW21526   5.240   0.332   4.537  0.2625  0.2659  0.6853
 6876SOL    HW121527   5.174   0.356   4.608 -2.0321 -0.1845 -1.1666
 6876SOL    HW221528   5.243   0.405   4.468 -0.3398 -0.8788 -0.5984
 6877SOL     OW21529   1.063   3.049   2.858  0.2239 -0.0883 -0.4187
 6877SOL    HW121530   1.151   3.075   2.899 -0.0664  0.4117 -0.0967
 6877SOL    HW221531   1.055   3.089   2.767  0.4126 -0.2963 -0.5269
 6878SOL     OW21532   1.548   7.006   3.978 -0.2697 -0.0763  0.2432
 6878SOL    HW121533   1.620   7.046   4.034 -1.7833  0.8886  1.6154
 6878SOL    HW221534   1.490   7.079   3.942 -0.4011 -0.8070 -1.0951
 6879SOL     OW21535   0.446   0.811   1.248 -0.0127 -0.9776 -0.2589
 6879SOL    HW121536   0.518   0.745   1.267 -0.6306 -1.7991 -0.7163
 6879SOL    HW221537   0.385   0.775   1.177  0.2066  0.4885 -1.2634
 6880SOL     OW21538   6.196   5.678   2.806  0.0654  0.2341 -0.1831
 6880SOL    HW121539   6.193   5.578   2.802  1.2327  0.2238 -2.6585
 6880SOL    HW221540   6.278   5.707   2.855 -0.7523  0.0508  1.3822
 6881SOL     OW21541   6.137   4.492   1.109  0.0715 -0.0824  0.0081
 6881SOL    HW121542   6.164   4.406   1.152  0.2023  0.6506  1.4657
 6881SOL    HW221543   6.161   4.568   1.169  1.5864  1.1323 -2.0167
 6882SOL     OW21544   6.156   0.214   5.075  0.4390 -0.7371 -0.2122
 6882SOL    HW121545   6.200   0.202   5.164  1.5711 -1.0712 -0.7892
 6882SOL    HW221546   6.077   0.153   5.068  0.2782 -0.6281  0.6033
 6883SOL     OW21547   5.121   0.887   0.105  0.4305  0.4263 -0.4881
 6883SOL    HW121548   5.141   0.823   0.179  0.0036 -0.5351 -1.1727
 6883SOL    HW221549   5.168   0.974   0.122 -0.5359  0.6195  1.4467
 6884SOL     OW21550   2.782   0.305   3.466  0.1509  0.4503 -0.0564
 6884SOL    HW121551   2.715   0.376   3.445 -2.6801 -1.4786  1.7705
 6884SOL    HW221552   2.855   0.344   3.521  0.1947  2.4559 -1.3950
 6885SOL     OW21553   6.855   4.886   4.888 -0.0406  0.3025 -0.4908
 6885SOL    HW121554   6.771   4.874   4.940  0.0540 -0.9370 -0.6092
 6885SOL    HW221555   6.870   4.807   4.829  1.5302  0.1991 -0.0021
 6886SOL     OW21556   6.100   4.312   0.141  0.2413  0.0193  0.7453
 6886SOL    HW121557   6.031   4.296   0.070  1.0083  0.8096 -0.2045
 6886SOL    HW221558   6.164   4.235   0.143  0.1327 -0.0730  0.6791
 6887SOL     OW21559   5.090   6.146   4.002  0.3894  0.0916  0.4817
 6887SOL    HW121560   5.053   6.158   4.094 -1.9762  0.6885 -0.4562
 6887SOL    HW221561   5.159   6.074   4.003 -0.6198 -0.9470  2.4795
 6888SOL     OW21562   6.304   2.379   3.277 -0.2365  0.0353  0.0372
 6888SOL    HW121563   6.258   2.367   3.189  0.1712  0.1473 -0.1963
 6888SOL    HW221564   6.237   2.377   3.351 -0.5856 -0.0282 -0.2805
 6889SOL     OW21565   1.440   1.260   4.840  0.1512  0.4777 -0.2105
 6889SOL    HW121566   1.502   1.322   4.793  2.0705  1.2622  3.0469
 6889SOL    HW221567   1.461   1.259   4.938 -4.7167  0.4204  1.1002
 6890SOL     OW21568   5.091   3.333   2.716 -0.1384 -1.4008  0.7127
 6890SOL    HW121569   5.067   3.317   2.621  0.8318  0.9907 -0.0120
 6890SOL    HW221570   5.173   3.280   2.739  0.4079 -0.9773 -0.2077
 6891SOL     OW21571   0.799   0.417   0.557  0.1811 -0.2164 -0.0088
 6891SOL    HW121572   0.753   0.499   0.523  0.9155 -0.2514 -1.1350
 6891SOL    HW221573   0.837   0.366   0.480  2.3587 -0.0353  0.8697
 6892SOL     OW21574   2.560   1.023   3.832  0.0747  0.5778  0.4020
 6892SOL    HW121575   2.473   0.991   3.797  1.2878 -1.8457 -0.6238
 6892SOL    HW221576   2.625   1.032   3.756  1.3822 -0.0254  1.4142
 6893SOL     OW21577   6.904   2.373   0.478  0.1589  0.2467  0.1522
 6893SOL    HW121578   6.898   2.426   0.394  0.4870 -0.4096 -0.2934
 6893SOL    HW221579   6.990   2.321   0.478 -0.6389 -1.1105  0.0868
 6894SOL     OW21580   5.647   5.315   6.370  0.5303 -0.1181 -0.3442
 6894SOL    HW121581   5.608   5.228   6.400  0.5994  0.1465  0.5302
 6894SOL    HW221582   5.742   5.321   6.400  0.2634  0.6347  0.3786
 6895SOL     OW21583   1.114   4.728   2.869 -0.3631  0.2352 -0.7008
 6895SOL    HW121584   1.149   4.645   2.914 -0.4701  0.3152 -0.4739
 6895SOL    HW221585   1.148   4.730   2.774  0.1424  0.2416 -0.5251
 6896SOL     OW21586   5.055   0.613   0.819  0.0540 -0.4130  0.2485
 6896SOL    HW121587   5.096   0.591   0.730 -0.7458 -1.0630  0.0217
 6896SOL    HW221588   5.006   0.699   0.813 -2.2764 -1.7202 -0.7543
 6897SOL     OW21589   5.141   3.753   6.596  0.5572  0.2674  0.1373
 6897SOL    HW121590   5.158   3.775   6.500  0.1785  0.3731  0.0933
 6897SOL    HW221591   5.203   3.679   6.624  1.2735  0.8286  0.0624
 6898SOL     OW21592   1.765   4.979   1.627  0.0172 -0.0320 -0.0722
 6898SOL    HW121593   1.818   5.034   1.563  0.0892  0.6941  0.6022
 6898SOL    HW221594   1.707   4.915   1.576  1.5794 -0.9179 -0.8337
 6899SOL     OW21595   1.026   6.231   2.179 -0.1861 -0.4470 -0.5387
 6899SOL    HW121596   0.941   6.180   2.167 -0.2131 -0.8115  0.9878
 6899SOL    HW221597   1.026   6.311   2.120 -1.8049 -0.1685 -0.1876
 6900SOL     OW21598   0.010   5.508   4.901 -0.2649 -0.0017  0.0077
 6900SOL    HW121599   0.066   5.557   4.835 -0.3659  0.2960  0.1423
 6900SOL    HW221600  -0.082   5.493   4.862 -0.1522 -0.3270 -0.1402
 6901SOL     OW21601   0.144   3.933   6.142  1.0913 -0.5907 -0.3446
 6901SOL    HW121602   0.222   3.901   6.197  0.8469 -1.6207 -0.5853
 6901SOL    HW221603   0.173   3.944   6.047  0.8596 -1.3300 -0.5061
 6902SOL     OW21604   2.281   4.180   6.544  0.1975 -0.2580 -0.2392
 6902SOL    HW121605   2.313   4.208   6.454 -2.9586 -0.4243 -1.5389
 6902SOL    HW221606   2.282   4.081   6.551  0.7937 -0.2340  0.0730
 6903SOL     OW21607   1.281   4.929   5.819 -0.8404 -0.0451  0.0937
 6903SOL    HW121608   1.195   4.952   5.865 -0.9267 -2.1382  1.0695
 6903SOL    HW221609   1.260   4.877   5.736 -0.5360  0.8152 -0.5432
 6904SOL     OW21610   0.638   0.825   6.980  0.2589  0.4522 -0.7436
 6904SOL    HW121611   0.582   0.900   7.016 -0.4780 -0.0525 -0.8353
 6904SOL    HW221612   0.687   0.782   7.056 -1.6248 -0.8856 -0.2252
 6905SOL     OW21613   4.302   6.394   3.715 -0.0979 -0.4011  0.5257
 6905SOL    HW121614   4.385   6.405   3.769  1.2496 -0.6914 -1.4118
 6905SOL    HW221615   4.265   6.484   3.691  0.3474 -0.2647  0.3560
 6906SOL     OW21616   2.808   0.972   4.758  0.2577  0.0501  0.0367
 6906SOL    HW121617   2.865   0.917   4.819  2.7384  1.1600 -1.1475
 6906SOL    HW221618   2.786   1.059   4.803  0.4845  0.0913  0.0715
 6907SOL     OW21619   6.990   2.011   1.238  0.2937 -0.3688 -0.0990
 6907SOL    HW121620   6.965   1.935   1.297 -0.3258  0.6139  0.9425
 6907SOL    HW221621   6.909   2.066   1.218  0.8731  0.4893 -0.1320
 6908SOL     OW21622   3.333   5.273   1.669 -0.6899  0.5265 -0.6038
 6908SOL    HW121623   3.297   5.182   1.647 -2.5775  0.7091  1.3481
 6908SOL    HW221624   3.287   5.341   1.611 -1.0585  0.4450 -0.4127
 6909SOL     OW21625   6.575   4.947   2.675  0.1536  0.2587 -0.0432
 6909SOL    HW121626   6.529   5.010   2.613  0.1080  0.2795  0.0115
 6909SOL    HW221627   6.530   4.949   2.764  1.7902  2.1706  0.8119
 6910SOL     OW21628   1.001   3.251   2.072  0.1258  0.6561 -0.1083
 6910SOL    HW121629   1.066   3.189   2.117 -1.5185 -0.7509  0.4596
 6910SOL    HW221630   1.039   3.282   1.985  0.9566 -1.3284 -0.5160
 6911SOL     OW21631   2.191   0.105   5.639 -0.1080 -0.7984  0.1921
 6911SOL    HW121632   2.144   0.138   5.721 -2.9185 -3.3312 -0.2157
 6911SOL    HW221633   2.172   0.167   5.563 -2.4782 -1.4581  0.1740
 6912SOL     OW21634   7.021   3.917   5.381 -0.2063  0.3300 -0.6198
 6912SOL    HW121635   6.980   4.005   5.357 -1.2537 -0.1443 -0.6355
 6912SOL    HW221636   7.120   3.927   5.388 -0.2291  1.3169 -1.4524
 6913SOL     OW21637   4.205   3.322   5.644 -0.5644  0.1451 -0.1520
 6913SOL    HW121638   4.110   3.296   5.658 -0.9123  1.3546 -0.1763
 6913SOL    HW221639   4.223   3.334   5.547 -0.3379 -0.2384 -0.1598
 6914SOL     OW21640   1.643   2.338   1.677  0.1200  0.4035 -1.1583
 6914SOL    HW121641   1.580   2.341   1.599  1.4022 -0.1382 -2.2645
 6914SOL    HW221642   1.663   2.431   1.708 -0.1788  0.6397 -1.6698
 6915SOL     OW21643   6.753   1.716   4.471  0.2813 -0.2023  0.7619
 6915SOL    HW121644   6.790   1.805   4.444 -0.6106 -0.6857 -2.5266
 6915SOL    HW221645   6.664   1.729   4.516  0.0581  0.5745  0.1087
 6916SOL     OW21646   3.062   6.534   4.667  0.5291 -0.3816 -0.1731
 6916SOL    HW121647   3.099   6.594   4.738  1.4698 -1.0414 -0.0818
 6916SOL    HW221648   2.965   6.554   4.653  0.8207  1.1818 -0.1760
 6917SOL     OW21649   1.875   6.382   3.379  0.1574  0.8334 -0.1831
 6917SOL    HW121650   1.904   6.286   3.371 -2.4137 -0.2067  1.6888
 6917SOL    HW221651   1.948   6.435   3.421  1.0561 -0.6535  0.2174
 6918SOL     OW21652   0.706   2.285   6.101 -0.0629 -0.1623 -0.6956
 6918SOL    HW121653   0.677   2.360   6.161  1.1589 -0.7831  0.7409
 6918SOL    HW221654   0.746   2.212   6.156 -0.0227 -1.3067 -2.1867
 6919SOL     OW21655   6.596   6.034   2.774  0.3247 -0.1469 -0.5098
 6919SOL    HW121656   6.696   6.028   2.781  0.3850  1.7056  1.0605
 6919SOL    HW221657   6.571   6.116   2.721 -0.3706 -0.2415 -0.3382
 6920SOL     OW21658   1.705   2.613   5.175 -0.6235 -0.3436 -0.0431
 6920SOL    HW121659   1.711   2.555   5.094  1.3750 -1.9251  1.1394
 6920SOL    HW221660   1.785   2.672   5.181  0.5309 -1.9609  1.9150
 6921SOL     OW21661   2.960   0.757   6.743 -0.1665 -0.2324 -0.0520
 6921SOL    HW121662   3.031   0.826   6.749  0.3946 -0.7504 -0.5573
 6921SOL    HW221663   2.870   0.800   6.752  0.2220  0.3295  1.3868
 6922SOL     OW21664   3.275   4.073   6.676 -0.6239 -0.2002 -0.1520
 6922SOL    HW121665   3.279   3.987   6.624 -1.5191 -0.3021 -0.0732
 6922SOL    HW221666   3.327   4.063   6.761  1.1898  0.0943 -1.1611
 6923SOL     OW21667   6.191   1.785   4.124 -0.2707  0.1498  0.7252
 6923SOL    HW121668   6.283   1.765   4.158  0.2589  0.8688 -0.2308
 6923SOL    HW221669   6.123   1.735   4.178  0.6645 -0.1959  1.5980
 6924SOL     OW21670   3.098   5.474   1.116 -0.2241  0.0623  0.0627
 6924SOL    HW121671   3.186   5.490   1.071 -0.4668  0.8030 -0.1589
 6924SOL    HW221672   3.063   5.560   1.152 -0.5989 -0.3268  0.6331
 6925SOL     OW21673   3.871   5.644   4.696  0.3566 -0.0192 -0.2735
 6925SOL    HW121674   3.964   5.623   4.726  0.6816 -0.0861 -1.2786
 6925SOL    HW221675   3.875   5.708   4.619 -0.3046 -1.7395 -1.8035
 6926SOL     OW21676   2.613   2.606   6.762 -0.1789  0.2331 -0.9895
 6926SOL    HW121677   2.662   2.681   6.808 -0.4564  0.3382 -0.8657
 6926SOL    HW221678   2.656   2.588   6.674  1.3809 -1.0487 -0.0313
 6927SOL     OW21679   1.998   0.391   4.985  0.5535  0.2085 -0.0674
 6927SOL    HW121680   2.042   0.416   5.071  1.5085 -0.9469 -0.1935
 6927SOL    HW221681   2.015   0.294   4.965 -2.7793 -0.6119  0.3214
 6928SOL     OW21682   3.530   0.419   0.016 -0.4920 -0.2173 -0.0068
 6928SOL    HW121683   3.556   0.352   0.085 -1.1063 -0.5139 -0.0548
 6928SOL    HW221684   3.612   0.456  -0.027 -0.1572 -1.0838 -0.1257
 6929SOL     OW21685   5.557   5.467   2.156  0.3074 -0.5490 -0.0100
 6929SOL    HW121686   5.612   5.401   2.104 -0.0980 -0.5745 -0.4092
 6929SOL    HW221687   5.568   5.449   2.254  2.4443  0.5685  0.0253
 6930SOL     OW21688   0.389   4.497   0.368 -0.2487 -0.2743  0.1208
 6930SOL    HW121689   0.481   4.530   0.349 -0.4801  0.7246  0.7084
 6930SOL    HW221690   0.380   4.404   0.331  1.5864 -1.1433  1.6425
 6931SOL     OW21691   3.886   3.112   6.974  0.0971 -0.8685 -0.2801
 6931SOL    HW121692   3.863   3.144   6.882  1.1706  2.6952  0.5316
 6931SOL    HW221693   3.958   3.043   6.967 -1.0866 -2.0008 -2.1419
 6932SOL     OW21694   2.812   0.646   5.218  0.2015  0.1526  0.2031
 6932SOL    HW121695   2.826   0.550   5.239 -1.2404 -0.1987 -0.3055
 6932SOL    HW221696   2.891   0.682   5.169  0.0369 -1.2384 -1.1379
 6933SOL     OW21697   2.993   6.494   6.901 -0.2529  0.2722 -0.1216
 6933SOL    HW121698   3.051   6.467   6.825  1.6359  0.6226  1.1006
 6933SOL    HW221699   3.026   6.581   6.938 -0.2774 -0.4914  1.8542
 6934SOL     OW21700   4.317   5.611   6.535  0.3354 -0.3144 -0.3890
 6934SOL    HW121701   4.243   5.574   6.479  0.3461 -1.5472  0.3850
 6934SOL    HW221702   4.398   5.553   6.525 -0.2472 -1.7812  2.3996
 6935SOL     OW21703   4.446   0.352   1.488  0.1855  0.0759  0.2637
 6935SOL    HW121704   4.396   0.293   1.550 -1.2440  0.7712 -0.1824
 6935SOL    HW221705   4.426   0.327   1.394 -0.4663  1.2366  0.0642
 6936SOL     OW21706   0.540   0.701   6.770  0.0246  0.7469 -0.0426
 6936SOL    HW121707   0.596   0.766   6.823 -0.0300 -1.2163  2.6527
 6936SOL    HW221708   0.454   0.685   6.819 -0.3100 -0.7211 -1.0551
 6937SOL     OW21709   5.625   4.847   5.981 -0.1345  0.1743  0.8222
 6937SOL    HW121710   5.681   4.783   6.033 -0.9278 -0.8333  0.4687
 6937SOL    HW221711   5.554   4.797   5.932  1.1409  0.9018 -2.0366
 6938SOL     OW21712   1.362   0.061   0.465 -0.1028  0.3091  0.6046
 6938SOL    HW121713   1.438   0.086   0.405  1.1139  0.3356  2.1230
 6938SOL    HW221714   1.396   0.016   0.547 -1.8323 -0.9413  0.7209
 6939SOL     OW21715   6.348   3.929   3.588  0.7402 -0.4743  0.2097
 6939SOL    HW121716   6.365   3.963   3.496 -1.4925 -1.1343 -0.5088
 6939SOL    HW221717   6.264   3.874   3.589  1.4002 -1.5780  2.3790
 6940SOL     OW21718   1.239   6.137   0.415 -0.4075  0.1791  0.3188
 6940SOL    HW121719   1.187   6.140   0.330 -0.3592  1.3820  0.3190
 6940SOL    HW221720   1.305   6.062   0.411  1.3494  1.6943 -1.7726
 6941SOL     OW21721   3.007   2.331   1.659  0.2282  0.3016 -0.2697
 6941SOL    HW121722   3.099   2.294   1.675 -0.2257 -0.9487 -0.4812
 6941SOL    HW221723   2.972   2.371   1.744  0.4231 -0.4435  0.1680
 6942SOL     OW21724   1.042   5.596   3.162 -0.1642 -0.2588  0.0947
 6942SOL    HW121725   1.052   5.528   3.090 -0.3052  0.4470 -0.6037
 6942SOL    HW221726   1.008   5.682   3.123 -1.0410 -0.1111  1.1319
 6943SOL     OW21727   2.222   5.107   5.465  0.6263  0.1528  0.5036
 6943SOL    HW121728   2.226   5.178   5.394  1.0404  0.2015  0.5714
 6943SOL    HW221729   2.173   5.028   5.430  0.4510  0.3461  0.3106
 6944SOL     OW21730   1.075   5.841   4.675  0.2112  0.0476  0.0540
 6944SOL    HW121731   1.162   5.891   4.671 -0.3375  0.9167 -2.7837
 6944SOL    HW221732   1.093   5.742   4.671  1.0704  0.2193 -0.5854
 6945SOL     OW21733   5.679   1.529   0.477  0.2069 -0.3843  0.9654
 6945SOL    HW121734   5.635   1.549   0.565 -1.8243  1.6021 -0.3783
 6945SOL    HW221735   5.609   1.507   0.409  1.6873 -1.3709 -0.3014
 6946SOL     OW21736   4.915   5.315   3.500  0.2903  0.4715 -0.1374
 6946SOL    HW121737   4.858   5.338   3.579  1.2271 -0.7197  0.9189
 6946SOL    HW221738   4.986   5.384   3.488  0.5890  0.2783  0.5132
 6947SOL     OW21739   4.751   2.591   5.845  0.3377 -0.3569 -0.0156
 6947SOL    HW121740   4.810   2.625   5.771  0.4623 -1.3097 -0.3701
 6947SOL    HW221741   4.656   2.607   5.821  0.4198  0.7101  0.3176
 6948SOL     OW21742   0.387   6.283   6.499 -1.0414 -0.1061  0.1388
 6948SOL    HW121743   0.428   6.297   6.409  0.4152 -0.4873  0.7261
 6948SOL    HW221744   0.458   6.261   6.566 -2.1454 -0.2572  1.3057
 6949SOL     OW21745   2.938   1.951   4.536 -0.3106  0.0175 -0.1354
 6949SOL    HW121746   2.997   2.012   4.590 -1.5225 -0.1237  1.3908
 6949SOL    HW221747   2.994   1.905   4.467  0.5708  3.2430 -1.7766
 6950SOL     OW21748   2.583   1.309   3.937 -0.8227 -0.1934  0.0699
 6950SOL    HW121749   2.587   1.218   3.895 -0.9190 -0.1836  0.0371
 6950SOL    HW221750   2.675   1.344   3.950 -0.7934 -0.1437 -0.2554
 6951SOL     OW21751   1.747   3.225   6.058 -0.0429  0.2152  0.0712
 6951SOL    HW121752   1.751   3.145   6.118  0.6589  0.3995  0.2733
 6951SOL    HW221753   1.836   3.240   6.016  0.2223  1.6671  1.0606
 6952SOL     OW21754   4.918   4.331   2.578  0.5206 -0.6591  0.1225
 6952SOL    HW121755   4.960   4.321   2.668  0.9338 -0.6239 -0.0657
 6952SOL    HW221756   4.838   4.271   2.571 -0.0089 -0.0490  0.8110
 6953SOL     OW21757   0.482   6.814   2.711 -0.4448  0.9065  0.2224
 6953SOL    HW121758   0.558   6.765   2.753  0.1362  0.4088 -1.3422
 6953SOL    HW221759   0.496   6.912   2.722  1.5553  0.9348 -1.7701
 6954SOL     OW21760   5.967   6.013   5.846 -0.0851  0.0881  0.3147
 6954SOL    HW121761   6.005   5.952   5.777  0.1093  0.2672  0.2637
 6954SOL    HW221762   5.960   6.105   5.809 -0.0408  0.1719  0.5149
 6955SOL     OW21763   2.822   6.929   1.725 -0.5305 -0.1441  0.3231
 6955SOL    HW121764   2.776   6.844   1.752  1.2456 -0.2959  3.3603
 6955SOL    HW221765   2.881   6.960   1.800 -0.0911  3.0966 -1.1943
 6956SOL     OW21766   6.430   4.393   3.771 -0.1850  0.8297  0.0608
 6956SOL    HW121767   6.443   4.295   3.757  2.2670  0.9739  0.8092
 6956SOL    HW221768   6.352   4.425   3.717 -1.0607 -1.5167 -0.1531
 6957SOL     OW21769   4.528   4.743   4.020  0.2338  0.1263  0.1252
 6957SOL    HW121770   4.609   4.742   4.080 -0.0133 -0.2817  0.4616
 6957SOL    HW221771   4.447   4.764   4.075 -0.0129 -0.3816 -0.0391
 6958SOL     OW21772   3.193   3.817   1.178 -0.2317  0.0909 -0.1645
 6958SOL    HW121773   3.246   3.875   1.239 -1.5358 -0.3083  1.4066
 6958SOL    HW221774   3.106   3.861   1.157 -1.6717 -1.6063  1.8301
 6959SOL     OW21775   0.413   3.357   5.262 -0.5677 -0.1437  0.3159
 6959SOL    HW121776   0.320   3.372   5.297  0.0073 -1.1497  2.3950
 6959SOL    HW221777   0.462   3.444   5.259 -1.2168  0.2278  0.2509
 6960SOL     OW21778   4.770   4.568   2.213  0.2254  0.8247 -0.7933
 6960SOL    HW121779   4.773   4.485   2.157 -2.8450  1.0329 -1.4941
 6960SOL    HW221780   4.678   4.608   2.206  0.2656  1.9036  2.9818
 6961SOL     OW21781   6.068   2.160   5.213  0.0071 -0.2887  0.3779
 6961SOL    HW121782   5.998   2.153   5.142 -0.0986  0.3012  0.4246
 6961SOL    HW221783   6.111   2.070   5.225 -0.8511 -0.6991  0.4692
 6962SOL     OW21784   2.958   5.685   1.176  0.0270 -0.4310 -0.6182
 6962SOL    HW121785   2.982   5.764   1.120 -1.1400  0.4267  0.0687
 6962SOL    HW221786   2.863   5.660   1.159 -0.2670 -0.3201  0.7847
 6963SOL     OW21787   6.129   5.693   6.504 -0.0333 -0.7673  0.3292
 6963SOL    HW121788   6.147   5.778   6.554  2.2754 -1.8668  1.5058
 6963SOL    HW221789   6.066   5.636   6.557 -0.9035 -0.1985 -0.0600
 6964SOL     OW21790   2.045   1.211   1.013 -0.2153  0.2645 -0.2516
 6964SOL    HW121791   2.042   1.310   0.999 -0.4487  0.3413  0.3080
 6964SOL    HW221792   2.139   1.183   1.031 -0.1932  0.4287 -0.1106
 6965SOL     OW21793   0.848   0.943   5.929 -0.4764 -0.0563  0.3340
 6965SOL    HW121794   0.812   0.865   5.980 -0.6444 -0.7255 -0.7846
 6965SOL    HW221795   0.946   0.929   5.912 -0.5912 -0.1979 -0.1999
 6966SOL     OW21796   6.581   5.937   1.474  0.1783  0.4762  0.2239
 6966SOL    HW121797   6.504   5.906   1.529 -0.2887 -0.2660 -0.8134
 6966SOL    HW221798   6.563   6.029   1.439 -0.3483  0.2170 -0.1984
 6967SOL     OW21799   3.438   6.388   6.932 -0.3997  0.1721 -0.0603
 6967SOL    HW121800   3.374   6.320   6.897 -0.6612  0.3123  0.1379
 6967SOL    HW221801   3.468   6.448   6.858 -0.8359  0.3777 -0.0739
 6968SOL     OW21802   6.516   6.956   0.084 -0.1199  0.4328  0.2185
 6968SOL    HW121803   6.510   6.979  -0.014 -0.1886  0.5301  0.2458
 6968SOL    HW221804   6.593   6.894   0.098  0.7357  1.4729  0.2998
 6969SOL     OW21805   0.355   3.367   1.908 -0.2893 -0.1484  0.0212
 6969SOL    HW121806   0.449   3.334   1.914 -0.7471 -1.4093  0.6755
 6969SOL    HW221807   0.334   3.394   1.814  1.5092  2.6259  0.3331
 6970SOL     OW21808   3.372   6.449   4.792  0.0120 -0.6016 -0.2154
 6970SOL    HW121809   3.291   6.468   4.848 -0.9928  1.3848 -2.2043
 6970SOL    HW221810   3.446   6.512   4.817  0.0032 -0.5674 -0.2754
 6971SOL     OW21811   0.596   4.786   6.963 -0.2668  0.6607  0.7111
 6971SOL    HW121812   0.510   4.823   7.000 -0.7464  1.2655 -0.9475
 6971SOL    HW221813   0.616   4.698   7.008 -2.5586 -0.2622  0.0685
 6972SOL     OW21814   0.910   4.412   2.509  0.0742 -0.7430  0.1602
 6972SOL    HW121815   0.877   4.340   2.570  0.1640 -2.0184 -1.2286
 6972SOL    HW221816   0.896   4.501   2.552  0.9864 -1.6136  2.4107
 6973SOL     OW21817   2.896   6.134   0.748 -0.4110 -0.4338 -0.2982
 6973SOL    HW121818   2.861   6.151   0.656  0.8572  0.2734 -0.6806
 6973SOL    HW221819   2.995   6.149   0.749 -0.2533 -1.4080  0.9561
 6974SOL     OW21820   2.843   3.560   1.438 -0.1170  0.1059  0.4782
 6974SOL    HW121821   2.756   3.534   1.479 -0.0237 -0.9478  0.0205
 6974SOL    HW221822   2.917   3.506   1.478  0.0687 -0.4024 -0.5267
 6975SOL     OW21823   3.296   6.605   6.542  0.4476 -0.2060 -0.0576
 6975SOL    HW121824   3.353   6.641   6.468 -0.3339  2.3292  0.4894
 6975SOL    HW221825   3.204   6.587   6.507  0.3833 -0.0926  0.0531
 6976SOL     OW21826   4.224   4.981   5.959  0.0946 -0.1018  0.3028
 6976SOL    HW121827   4.240   4.923   6.039  0.7818 -1.6099 -0.8497
 6976SOL    HW221828   4.307   4.982   5.902 -0.4062  0.8399 -0.4332
 6977SOL     OW21829   3.171   5.367   2.346  0.3245  0.2483  0.4047
 6977SOL    HW121830   3.153   5.461   2.378  2.0418  1.8974 -2.9411
 6977SOL    HW221831   3.244   5.327   2.400  1.3198  1.8697  0.3422
 6978SOL     OW21832   6.917   3.640   0.581 -0.2697  0.1902  0.4814
 6978SOL    HW121833   6.914   3.709   0.654 -0.1436 -0.7340  1.3866
 6978SOL    HW221834   7.011   3.630   0.548 -0.3727  0.8110 -0.0191
 6979SOL     OW21835   0.646   5.722   2.352 -0.2537 -0.7459  0.4542
 6979SOL    HW121836   0.703   5.736   2.433 -0.7636  2.1929  0.4307
 6979SOL    HW221837   0.549   5.730   2.378 -0.4274  0.0081 -0.3608
 6980SOL     OW21838   2.392   5.937   2.542 -0.0020 -0.4762 -0.0301
 6980SOL    HW121839   2.388   6.037   2.541 -0.2849 -0.4516  1.3352
 6980SOL    HW221840   2.299   5.899   2.537  0.0732 -0.6588 -0.0697
 6981SOL     OW21841   2.807   1.809   1.056  0.2235 -0.2244  0.8467
 6981SOL    HW121842   2.819   1.828   1.153 -0.1104 -1.6368  1.1947
 6981SOL    HW221843   2.712   1.825   1.030  0.3641  0.3810  0.6823
 6982SOL     OW21844   0.410   5.081   1.138  0.1330 -0.0877 -0.2142
 6982SOL    HW121845   0.398   5.130   1.225  1.0377 -0.7795  0.3222
 6982SOL    HW221846   0.342   5.008   1.131  2.2263 -2.4430  1.6989
 6983SOL     OW21847   5.724   6.707   2.681  0.5296 -0.6300  0.1061
 6983SOL    HW121848   5.786   6.640   2.723 -0.3282 -0.8552  1.0665
 6983SOL    HW221849   5.694   6.773   2.750 -0.3926 -0.6052 -0.2937
 6984SOL     OW21850   0.276   2.409   3.026 -0.0669  0.5684  0.6464
 6984SOL    HW121851   0.178   2.424   3.039  0.1813  2.3481  0.7849
 6984SOL    HW221852   0.314   2.365   3.107 -1.2545 -3.2091 -0.6641
 6985SOL     OW21853   5.359   1.084   0.475 -0.1252 -0.1045 -0.2686
 6985SOL    HW121854   5.283   1.143   0.501  0.2902  0.4808 -0.3523
 6985SOL    HW221855   5.409   1.124   0.398  0.7675 -0.0399  0.3200
 6986SOL     OW21856   5.444   6.484   2.988 -0.2581 -0.4173  0.2961
 6986SOL    HW121857   5.431   6.539   2.906 -0.8417  0.5117  1.0059
 6986SOL    HW221858   5.542   6.465   3.000 -0.1550 -0.4048 -0.5050
 6987SOL     OW21859   6.342   2.388   6.727 -0.0758  0.0071  0.0795
 6987SOL    HW121860   6.270   2.434   6.676 -0.8024 -1.4433 -0.2458
 6987SOL    HW221861   6.331   2.289   6.719  1.6299 -0.2481  0.4936
 6988SOL     OW21862   6.906   1.045   6.456 -0.4039  0.1536 -0.3463
 6988SOL    HW121863   6.984   0.992   6.422 -1.7547 -1.8892 -0.4602
 6988SOL    HW221864   6.929   1.087   6.543  0.9407 -0.0861 -0.5710
 6989SOL     OW21865   0.373   2.621   3.199  0.6050  0.4582  0.3985
 6989SOL    HW121866   0.329   2.575   3.123  0.1411 -0.3816  1.1675
 6989SOL    HW221867   0.384   2.558   3.276  2.3624  0.8706  0.5495
 6990SOL     OW21868   1.833   6.442   4.889 -0.1402 -0.6149 -0.3149
 6990SOL    HW121869   1.906   6.409   4.949  0.7678 -0.6031 -1.3744
 6990SOL    HW221870   1.843   6.540   4.874  0.4192 -0.8276 -1.4798
 6991SOL     OW21871   6.497   5.240   5.235 -0.1540 -0.4717  0.2440
 6991SOL    HW121872   6.453   5.299   5.302 -0.6941 -0.2788 -0.2778
 6991SOL    HW221873   6.575   5.194   5.278  3.0811  3.8286 -0.3837
 6992SOL     OW21874   2.747   5.111   6.150 -0.1672  0.0624  0.6221
 6992SOL    HW121875   2.661   5.059   6.150 -1.5254  2.1789  0.8785
 6992SOL    HW221876   2.812   5.068   6.088 -2.0416 -0.6406 -0.9426
 6993SOL     OW21877   4.713   1.892   1.586 -0.1468 -0.3628  0.3811
 6993SOL    HW121878   4.745   1.810   1.537  1.1691  0.7593 -0.7294
 6993SOL    HW221879   4.790   1.936   1.631 -0.6853  0.7006  0.2943
 6994SOL     OW21880   2.371   2.571   2.484 -0.0323  0.3245 -0.2076
 6994SOL    HW121881   2.464   2.588   2.453  0.0161  0.6945  0.1383
 6994SOL    HW221882   2.356   2.472   2.491  0.2069  0.2536 -0.6340
 6995SOL     OW21883   6.451   4.187   1.852  0.1025  0.1595 -0.0696
 6995SOL    HW121884   6.418   4.267   1.901  1.0385  0.2611  0.4243
 6995SOL    HW221885   6.463   4.111   1.915 -1.0440 -0.4716 -0.5834
 6996SOL     OW21886   0.376   1.380   0.744  0.3813 -0.2503 -0.5817
 6996SOL    HW121887   0.402   1.411   0.835 -0.8432 -2.6090  0.6793
 6996SOL    HW221888   0.286   1.417   0.721  1.7711  2.4670 -2.0494
 6997SOL     OW21889   6.266   4.581   5.716 -0.2177  0.1811  0.6247
 6997SOL    HW121890   6.293   4.505   5.775  0.4492  0.1060  0.2350
 6997SOL    HW221891   6.167   4.579   5.701  0.0532 -2.2526 -1.6131
 6998SOL     OW21892   5.453   1.388   6.470 -0.5501  0.0446  0.0984
 6998SOL    HW121893   5.443   1.376   6.569 -2.1378  0.9198  0.0774
 6998SOL    HW221894   5.363   1.401   6.429  0.2402  2.4911 -1.0616
 6999SOL     OW21895   6.916   4.570   1.265  0.7602 -0.0716 -0.0947
 6999SOL    HW121896   6.861   4.542   1.186  0.6709  1.2932 -0.5426
 6999SOL    HW221897   6.900   4.667   1.285  2.2602  0.1113  0.3834
 7000SOL     OW21898   0.844   5.731   3.357  0.5119 -0.0703  0.8622
 7000SOL    HW121899   0.748   5.757   3.353  0.2426 -0.9017  1.3999
 7000SOL    HW221900   0.897   5.782   3.289 -0.0710  1.3785  1.4651
 7001SOL     OW21901   6.535   0.297   4.947 -0.3522  0.1496 -0.2546
 7001SOL    HW121902   6.499   0.307   5.040  1.2013 -0.2337  0.4178
 7001SOL    HW221903   6.622   0.249   4.951 -0.2991  0.0759 -1.9367
 7002SOL     OW21904   0.211   5.461   2.348 -0.2400 -1.0508 -0.2922
 7002SOL    HW121905   0.219   5.436   2.444 -1.1647  0.7891  0.3145
 7002SOL    HW221906   0.274   5.535   2.327 -1.1726 -0.3311 -0.6609
 7003SOL     OW21907   0.271   6.699   6.841 -0.1637  0.2754  0.2255
 7003SOL    HW121908   0.337   6.627   6.861  0.3034  0.7201  0.3363
 7003SOL    HW221909   0.276   6.769   6.912  0.0234  0.8442 -0.3268
 7004SOL     OW21910   0.345   6.570   5.467 -0.6473 -0.2837 -0.5119
 7004SOL    HW121911   0.349   6.480   5.511  1.1257  0.2280  0.4911
 7004SOL    HW221912   0.388   6.638   5.527 -1.1154  1.0736 -1.6577
 7005SOL     OW21913   1.336   6.535   2.436 -0.2831  0.3711  0.0965
 7005SOL    HW121914   1.281   6.523   2.354 -1.2068  2.9590  0.2446
 7005SOL    HW221915   1.422   6.581   2.414 -0.0601  0.1453  0.4609
 7006SOL     OW21916   2.191   0.804   1.460 -0.1926  0.3159 -0.2209
 7006SOL    HW121917   2.244   0.751   1.525  1.4738  1.4417 -0.5794
 7006SOL    HW221918   2.141   0.876   1.508 -0.6693 -0.1823  0.0289
 7007SOL     OW21919   0.107   0.177   6.418  0.6764  0.3259  0.2077
 7007SOL    HW121920   0.067   0.153   6.507  1.0188 -0.9576  0.0380
 7007SOL    HW221921   0.038   0.171   6.347  1.0972 -1.9125 -0.0890
 7008SOL     OW21922   4.814   1.746   5.775 -0.0903 -0.2225 -0.2069
 7008SOL    HW121923   4.797   1.722   5.870  0.2095 -0.2936 -0.1700
 7008SOL    HW221924   4.912   1.739   5.756 -0.0566  0.4789 -0.3286
 7009SOL     OW21925   6.312   4.383   1.399  0.3851  0.1114  0.3315
 7009SOL    HW121926   6.277   4.444   1.470  1.2023 -0.1109  0.9420
 7009SOL    HW221927   6.268   4.294   1.407 -1.8587  0.9586 -1.4371
 7010SOL     OW21928   5.184   4.586   1.882 -0.5554  0.0004  0.0376
 7010SOL    HW121929   5.160   4.489   1.871 -0.4772 -0.1481  1.0540
 7010SOL    HW221930   5.233   4.618   1.801  1.7714 -1.5532  0.7203
 7011SOL     OW21931   0.980   3.509   5.897 -0.3069 -0.4761  0.0761
 7011SOL    HW121932   0.908   3.462   5.845  0.7773 -1.5126 -0.5250
 7011SOL    HW221933   1.043   3.553   5.834 -0.7379  0.9751  0.6176
 7012SOL     OW21934   2.162   3.390   7.003  0.4068  0.2349 -0.4930
 7012SOL    HW121935   2.140   3.436   7.089 -0.4710 -0.5817 -0.2680
 7012SOL    HW221936   2.108   3.430   6.929 -1.5934 -1.4424 -0.0241
 7013SOL     OW21937   3.314   2.722   5.854 -0.0318 -0.1587  0.1284
 7013SOL    HW121938   3.281   2.720   5.759 -1.9439  0.6658  0.7269
 7013SOL    HW221939   3.389   2.787   5.862 -0.6567  0.6818 -0.6140
 7014SOL     OW21940   6.939   3.806   1.961  0.7417 -0.3257 -0.1242
 7014SOL    HW121941   6.902   3.886   2.009  0.5263  0.1809 -1.1196
 7014SOL    HW221942   6.910   3.723   2.009 -0.9588  0.0898 -0.3638
 7015SOL     OW21943   0.653   1.009   1.010 -0.3122 -0.6607 -0.4487
 7015SOL    HW121944   0.614   1.062   0.935 -0.1902 -0.6544 -0.5080
 7015SOL    HW221945   0.703   0.931   0.973  0.1393 -0.3998 -0.3941
 7016SOL     OW21946   1.398   5.358   2.299  0.3319  0.2047 -0.1782
 7016SOL    HW121947   1.457   5.303   2.358 -0.6416 -0.0842  0.5416
 7016SOL    HW221948   1.353   5.429   2.353  1.2955  1.5328 -1.0291
 7017SOL     OW21949   0.139   5.216   0.313  0.7238  0.1314  0.6315
 7017SOL    HW121950   0.218   5.207   0.252  2.3285  4.4407  1.6934
 7017SOL    HW221951   0.170   5.243   0.404 -1.9005 -0.1262  1.6926
 7018SOL     OW21952   6.875   1.571   4.675 -0.2012 -0.0760 -0.5859
 7018SOL    HW121953   6.833   1.623   4.600  0.0001  1.1724  0.1405
 7018SOL    HW221954   6.935   1.631   4.728 -1.4189 -0.5350  1.4349
 7019SOL     OW21955   3.831   6.398   3.940 -0.2420 -0.3255 -0.1316
 7019SOL    HW121956   3.873   6.460   4.006  1.5420 -3.1274  1.5577
 7019SOL    HW221957   3.755   6.349   3.983 -1.0295 -0.0274 -1.1354
 7020SOL     OW21958   5.155   2.596   0.571  0.4736 -0.2649  0.1668
 7020SOL    HW121959   5.113   2.651   0.643 -0.7445 -0.3183 -0.4761
 7020SOL    HW221960   5.106   2.610   0.485  0.8451 -1.4759 -0.2702
 7021SOL     OW21961   2.249   3.593   5.760 -0.0697 -0.1359  0.2818
 7021SOL    HW121962   2.184   3.650   5.710  1.0613  1.5021  0.5848
 7021SOL    HW221963   2.237   3.497   5.734 -1.1701  0.3815 -1.2395
 7022SOL     OW21964   2.275   2.959   1.244  0.6833 -0.1673  0.0928
 7022SOL    HW121965   2.250   3.038   1.188 -0.8426 -0.7617 -0.1176
 7022SOL    HW221966   2.202   2.940   1.309  2.1789  0.1824  1.9809
 7023SOL     OW21967   0.208   1.683   0.205 -0.2910  0.0947  0.2338
 7023SOL    HW121968   0.127   1.732   0.175 -0.5648 -0.0673  0.6963
 7023SOL    HW221969   0.261   1.740   0.268 -0.3647 -0.0262  0.4060
 7024SOL     OW21970   3.913   6.193   4.660 -0.0510  0.5408  0.3678
 7024SOL    HW121971   3.878   6.274   4.707 -2.0242 -0.6228  1.0479
 7024SOL    HW221972   3.934   6.122   4.728  0.5274  0.0780 -0.2897
 7025SOL     OW21973   4.701   2.375   2.573 -0.5807 -0.2582 -0.4870
 7025SOL    HW121974   4.789   2.367   2.526  0.0372  0.0691  0.5764
 7025SOL    HW221975   4.650   2.453   2.536 -0.0129  0.1259 -0.4724
 7026SOL     OW21976   1.030   1.272   1.124  0.0186  0.2650 -0.1797
 7026SOL    HW121977   1.068   1.241   1.037  1.4046 -0.4487  0.6444
 7026SOL    HW221978   0.980   1.197   1.167  0.3054  0.2610  0.1515
 7027SOL     OW21979   2.595   4.330   0.373 -0.3085 -0.3204  0.4594
 7027SOL    HW121980   2.527   4.278   0.426  1.5515 -2.3321  1.0328
 7027SOL    HW221981   2.651   4.384   0.436  0.2383 -0.6826  0.2918
 7028SOL     OW21982   3.232   5.499   1.543 -0.6009  0.0766  0.4292
 7028SOL    HW121983   3.145   5.465   1.508 -0.4717  1.5523 -1.5274
 7028SOL    HW221984   3.284   5.539   1.467  1.9630 -1.0974  1.4565
 7029SOL     OW21985   3.638   4.069   3.114 -0.1496 -0.3561  0.1509
 7029SOL    HW121986   3.607   4.130   3.041  0.6507  2.0700  1.7176
 7029SOL    HW221987   3.562   4.052   3.177 -0.7217 -2.0997 -0.9449
 7030SOL     OW21988   5.778   0.496   4.309  0.1194  0.2779 -0.1891
 7030SOL    HW121989   5.694   0.445   4.293 -1.0774  2.3249 -0.7588
 7030SOL    HW221990   5.797   0.499   4.407  0.7947 -2.0337 -0.1884
 7031SOL     OW21991   0.212   4.090   0.006 -0.5111 -0.2075  0.1769
 7031SOL    HW121992   0.306   4.065   0.028 -0.4349 -0.0076  0.0824
 7031SOL    HW221993   0.193   4.069  -0.090 -0.5296 -0.1469  0.1674
 7032SOL     OW21994   2.097   5.864   4.582 -0.1519 -0.5618  0.1294
 7032SOL    HW121995   2.130   5.839   4.672  0.6225  0.3592  0.1135
 7032SOL    HW221996   2.152   5.819   4.512 -0.0166 -0.3768  0.1150
 7033SOL     OW21997   1.597   3.374   5.374  0.1327  0.0326  0.9752
 7033SOL    HW121998   1.659   3.420   5.437  1.6244 -1.0200  0.3227
 7033SOL    HW221999   1.649   3.334   5.298 -1.6024  1.4539 -1.0910
 7034SOL     OW22000   6.128   1.953   1.426 -0.0485 -0.1140  0.6125
 7034SOL    HW122001   6.062   1.878   1.421  1.4460 -1.3959 -2.3068
 7034SOL    HW222002   6.219   1.916   1.443  0.4970  1.2174  0.7133
 7035SOL     OW22003   2.133   0.742   0.175 -0.4195  0.0353 -0.4389
 7035SOL    HW122004   2.084   0.735   0.262 -0.6615  0.2906 -0.5529
 7035SOL    HW222005   2.133   0.837   0.145 -1.2598 -0.2015 -1.2431
 7036SOL     OW22006   0.365   2.755   0.759 -0.0875  0.2384  0.4364
 7036SOL    HW122007   0.444   2.803   0.797  0.8239 -0.1032 -0.9455
 7036SOL    HW222008   0.286   2.765   0.821  1.1751  0.0912  2.1311
 7037SOL     OW22009   6.483   1.869   5.495  0.1259 -0.6940 -0.4466
 7037SOL    HW122010   6.520   1.776   5.500  0.7880 -0.3786  2.7395
 7037SOL    HW222011   6.558   1.935   5.498 -0.4374 -0.0561 -0.0590
 7038SOL     OW22012   6.448   4.199   0.418 -0.4410  0.1012 -0.1812
 7038SOL    HW122013   6.425   4.289   0.456 -0.8097  0.0914 -0.3770
 7038SOL    HW222014   6.529   4.207   0.359 -1.4973  0.6403 -1.5956
 7039SOL     OW22015   6.021   5.902   3.111 -0.0170  0.5672 -0.2228
 7039SOL    HW122016   6.011   5.953   3.025  0.7114  1.1055  0.0025
 7039SOL    HW222017   5.971   5.947   3.184 -1.6829 -0.5698 -0.6118
 7040SOL     OW22018   4.811   2.520   4.741 -0.4247 -0.3889 -0.1046
 7040SOL    HW122019   4.713   2.538   4.752 -0.3720  0.1631 -0.4754
 7040SOL    HW222020   4.855   2.600   4.698  0.2482 -0.4955  0.3694
 7041SOL     OW22021   0.262   6.684   2.825  0.3663 -0.4369  0.1249
 7041SOL    HW122022   0.280   6.683   2.923  1.4060 -1.6803 -0.0479
 7041SOL    HW222023   0.328   6.743   2.779  1.0478 -1.2625  0.0061
 7042SOL     OW22024   3.595   6.322   4.460  0.0463  0.2487 -0.0216
 7042SOL    HW122025   3.512   6.378   4.458  0.4878  0.9038 -0.6608
 7042SOL    HW222026   3.675   6.382   4.471  0.6598 -0.0888 -2.1803
 7043SOL     OW22027   1.163   6.107   0.903  0.2091 -0.6160  0.1082
 7043SOL    HW122028   1.185   6.014   0.931  0.2944 -1.2212 -1.7955
 7043SOL    HW222029   1.093   6.104   0.831  0.0824  0.8113  0.1423
 7044SOL     OW22030   3.688   5.912   4.911  0.1369  0.4663 -0.0729
 7044SOL    HW122031   3.743   5.834   4.940  0.0659  0.4667  0.0607
 7044SOL    HW222032   3.684   5.980   4.984  0.5891  0.8057 -0.3576
 7045SOL     OW22033   4.710   0.638   2.318  0.5520 -0.0635  0.1735
 7045SOL    HW122034   4.748   0.705   2.254 -0.7796 -0.1049 -0.6983
 7045SOL    HW222035   4.666   0.565   2.268  0.2167 -0.5468  1.1420
 7046SOL     OW22036   3.201   0.227   2.463 -0.5368 -0.1211 -0.0392
 7046SOL    HW122037   3.243   0.278   2.387  1.4430 -0.4949  0.7451
 7046SOL    HW222038   3.232   0.132   2.460 -1.6254 -0.5102  0.4052
 7047SOL     OW22039   0.391   5.196   0.181  0.7722 -0.1515 -0.0109
 7047SOL    HW122040   0.412   5.280   0.131 -0.3218 -0.8210 -1.7012
 7047SOL    HW222041   0.412   5.117   0.124  2.3819 -1.1055  1.7835
 7048SOL     OW22042   6.313   4.357   4.854  0.1880  0.3019  0.7810
 7048SOL    HW122043   6.410   4.357   4.878  1.2845  0.4399 -3.0230
 7048SOL    HW222044   6.290   4.442   4.807 -1.7094  0.1142  1.2988
 7049SOL     OW22045   1.636   2.499   6.827  0.1413  0.0281  0.8048
 7049SOL    HW122046   1.714   2.438   6.817  0.6712  0.5577  1.5845
 7049SOL    HW222047   1.621   2.519   6.924 -1.4338 -0.6568  0.7358
 7050SOL     OW22048   3.830   4.738   0.617  0.2820 -0.6122  0.1144
 7050SOL    HW122049   3.859   4.833   0.626  0.2711 -0.7127  1.2822
 7050SOL    HW222050   3.730   4.733   0.624  0.4020 -0.9282  2.4623
 7051SOL     OW22051   1.219   4.506   2.965 -0.2539  0.2544 -0.5488
 7051SOL    HW122052   1.319   4.495   2.962 -0.0730  1.8536 -1.8695
 7051SOL    HW222053   1.177   4.445   2.898  0.1638  2.1112 -2.6027
 7052SOL     OW22054   6.927   3.319   5.968  0.2891 -0.3717 -0.2006
 7052SOL    HW122055   6.837   3.312   5.924 -0.1218 -0.7536  0.6851
 7052SOL    HW222056   6.998   3.318   5.897 -0.3218 -1.6353 -0.8453
 7053SOL     OW22057   6.879   6.651   3.946  0.3654 -0.3774 -0.0525
 7053SOL    HW122058   6.830   6.575   3.901  1.1254 -0.7576 -0.2540
 7053SOL    HW222059   6.900   6.721   3.878  0.6157 -0.4841 -0.0858
 7054SOL     OW22060   4.939   5.525   2.790  0.1395 -0.2136  0.1652
 7054SOL    HW122061   5.028   5.493   2.758  0.1974  0.4754 -0.3780
 7054SOL    HW222062   4.905   5.463   2.861  0.0048 -1.7923 -1.2121
 7055SOL     OW22063   1.469   0.330   0.704  0.1988 -0.1127 -0.5573
 7055SOL    HW122064   1.500   0.358   0.796 -2.7972 -0.0365  0.5504
 7055SOL    HW222065   1.474   0.409   0.643 -0.1876  0.5791  0.2660
 7056SOL     OW22066   5.628   3.949   2.990 -0.3565 -0.4716  0.2408
 7056SOL    HW122067   5.642   4.032   3.045 -1.0543  0.0066 -0.2898
 7056SOL    HW222068   5.613   3.975   2.895  0.7772 -1.2915 -0.1819
 7057SOL     OW22069   1.943   6.789   5.421 -0.0646 -0.1007 -0.2709
 7057SOL    HW122070   1.886   6.869   5.401  0.7608 -0.1616 -3.3468
 7057SOL    HW222071   2.039   6.815   5.419  0.2351 -1.2073 -1.7795
 7058SOL     OW22072   5.235   3.440   5.310  0.2785 -0.0128 -0.1386
 7058SOL    HW122073   5.315   3.476   5.262  0.7192 -0.8284 -0.0392
 7058SOL    HW222074   5.185   3.378   5.250 -1.4094  1.9815 -0.8815
 7059SOL     OW22075   2.937   1.013   5.073  0.0085  0.1740 -0.4941
 7059SOL    HW122076   2.920   0.919   5.043 -0.1369 -0.5158  1.5931
 7059SOL    HW222077   2.870   1.074   5.030 -2.3921 -1.2537  0.9656
 7060SOL     OW22078   3.107   1.003   6.790 -0.5478 -0.2677 -0.3417
 7060SOL    HW122079   3.160   1.070   6.737 -1.0147  0.2921 -0.1179
 7060SOL    HW222080   3.165   0.966   6.863 -0.9121  1.6079  0.9796
 7061SOL     OW22081   1.092   0.571   3.209  0.1666  0.1866 -0.6721
 7061SOL    HW122082   1.080   0.635   3.285  0.5771  0.7491 -1.0682
 7061SOL    HW222083   1.043   0.606   3.129 -0.3875 -0.4760 -0.6250
 7062SOL     OW22084   4.520   1.890   4.920 -0.5824 -0.6000 -0.0542
 7062SOL    HW122085   4.465   1.936   4.990  1.8968 -0.1207  1.6976
 7062SOL    HW222086   4.598   1.948   4.895 -1.2696 -0.8510 -3.1429
 7063SOL     OW22087   6.668   4.188   2.185  0.0243  0.0588 -0.4035
 7063SOL    HW122088   6.663   4.257   2.113 -1.6027  0.0655 -0.3082
 7063SOL    HW222089   6.600   4.117   2.168  0.7846 -0.8471  0.2150
 7064SOL     OW22090   0.346   6.511   6.255 -0.4908 -0.6147  0.0239
 7064SOL    HW122091   0.271   6.476   6.310 -0.2443  0.0253  0.7741
 7064SOL    HW222092   0.430   6.461   6.277  0.2138  1.3283  2.2089
 7065SOL     OW22093   5.337   1.976   2.817  0.0119  0.2794 -0.0250
 7065SOL    HW122094   5.333   1.884   2.777 -1.4237 -0.3087  1.4078
 7065SOL    HW222095   5.314   1.972   2.914  0.5903  2.0832  0.2273
 7066SOL     OW22096   2.382   1.142   1.492  0.0647  0.4491  0.2413
 7066SOL    HW122097   2.445   1.219   1.488  0.3756  0.3898  2.7340
 7066SOL    HW222098   2.295   1.172   1.530 -0.1075 -0.2611  0.4205
 7067SOL     OW22099   3.585   5.247   5.990 -0.4760 -0.0490 -0.0407
 7067SOL    HW122100   3.596   5.152   5.962 -0.3476 -0.1181  0.2449
 7067SOL    HW222101   3.569   5.252   6.088  1.0324  0.3147  0.2197
 7068SOL     OW22102   4.441   5.446   1.259 -0.4506 -0.4454 -0.0503
 7068SOL    HW122103   4.371   5.452   1.330  0.2393  0.2105  0.5933
 7068SOL    HW222104   4.428   5.520   1.193 -0.7842 -0.7486 -0.3279
 7069SOL     OW22105   4.426   3.125   5.324 -0.3608 -0.1412 -0.1738
 7069SOL    HW122106   4.388   3.044   5.369 -1.6964 -0.8486 -2.3875
 7069SOL    HW222107   4.361   3.200   5.331  0.1755  0.2617  0.5176
 7070SOL     OW22108   0.414   2.272   4.463 -0.8994 -0.2274 -0.3328
 7070SOL    HW122109   0.361   2.271   4.378 -0.6605 -1.7127 -0.4854
 7070SOL    HW222110   0.444   2.180   4.485  0.8176  0.4342  0.2690
 7071SOL     OW22111   4.192   4.881   0.661 -0.3692  0.0114  0.1216
 7071SOL    HW122112   4.149   4.970   0.671  0.2379  0.3185  0.0095
 7071SOL    HW222113   4.221   4.869   0.566  0.1897 -0.0138  0.2955
 7072SOL     OW22114   2.032   4.455   4.898 -0.0276 -0.4309 -0.1479
 7072SOL    HW122115   2.113   4.397   4.911 -0.6302 -0.8939  1.8300
 7072SOL    HW222116   1.962   4.403   4.849 -0.1722 -1.0619  0.6896
 7073SOL     OW22117   4.238   0.089   4.658  0.2964 -0.1139  0.0987
 7073SOL    HW122118   4.217   0.057   4.750 -3.9128  0.2797 -0.4995
 7073SOL    HW222119   4.282   0.016   4.606  1.0468 -0.9671  1.8540
 7074SOL     OW22120   5.061   4.954   4.412 -0.0736 -0.3253  0.6315
 7074SOL    HW122121   4.979   4.994   4.372  0.2083  0.8502  1.1986
 7074SOL    HW222122   5.119   5.026   4.449  1.5067 -1.0814 -0.2683
 7075SOL     OW22123   1.867   3.503   2.612 -0.2235  0.0152 -0.1228
 7075SOL    HW122124   1.859   3.421   2.556  0.3582  0.8249 -1.4377
 7075SOL    HW222125   1.884   3.477   2.707  0.1129 -1.3748 -0.5420
 7076SOL     OW22126   5.715   6.950   2.186  0.3611 -0.4976 -0.4670
 7076SOL    HW122127   5.758   6.895   2.258  0.2236 -0.3829 -0.2964
 7076SOL    HW222128   5.784   6.975   2.117  0.5442 -0.4162 -0.2572
 7077SOL     OW22129   4.444   4.538   0.815  0.6300  0.5583  0.0735
 7077SOL    HW122130   4.500   4.591   0.878  1.8417 -0.7447  0.1523
 7077SOL    HW222131   4.497   4.518   0.732 -0.3382  0.7785 -0.6104
 7078SOL     OW22132   6.222   1.344   6.154  0.6760  0.0003  0.3270
 7078SOL    HW122133   6.146   1.407   6.141  2.2798  1.9930  0.2956
 7078SOL    HW222134   6.188   1.250   6.148 -1.4851  0.8111 -1.3142
 7079SOL     OW22135   1.798   5.386   6.090 -0.3306 -0.1370 -0.0005
 7079SOL    HW122136   1.736   5.343   6.155 -0.2461  0.0231  0.1857
 7079SOL    HW222137   1.891   5.384   6.125 -0.2121 -0.4610 -0.3232
 7080SOL     OW22138   2.933   1.502   0.762  0.1055  1.0301  0.4704
 7080SOL    HW122139   2.894   1.569   0.699  1.7513  1.8908  0.3007
 7080SOL    HW222140   2.905   1.524   0.855 -0.7964  0.8887  0.2396
 7081SOL     OW22141   3.792   6.702   0.215 -0.1289  0.5231  0.3220
 7081SOL    HW122142   3.697   6.734   0.219  0.2597  1.5766  1.6524
 7081SOL    HW222143   3.844   6.759   0.151 -0.3066  0.1365 -0.1759
 7082SOL     OW22144   0.165   3.801   3.407 -0.0782  0.2447 -0.3923
 7082SOL    HW122145   0.156   3.876   3.472 -3.0377 -0.4614  0.1268
 7082SOL    HW222146   0.143   3.833   3.315 -0.6556  0.1640 -0.2817
 7083SOL     OW22147   6.510   3.710   3.558 -0.4382  0.0077  0.3825
 7083SOL    HW122148   6.450   3.789   3.564 -1.1426 -0.3725 -1.1257
 7083SOL    HW222149   6.529   3.689   3.461  2.5989  0.4573  0.7673
 7084SOL     OW22150   1.251   4.110   2.261 -0.4478  0.4452  0.0933
 7084SOL    HW122151   1.326   4.176   2.254  0.3080 -0.4163 -0.1401
 7084SOL    HW222152   1.220   4.084   2.170 -0.6591  0.3800  0.1826
 7085SOL     OW22153   1.244   4.097   2.742 -0.0352  0.1350  0.2185
 7085SOL    HW122154   1.330   4.109   2.691 -0.5292 -0.1141 -0.7065
 7085SOL    HW222155   1.253   4.020   2.805  0.9243  1.0834  1.2578
 7086SOL     OW22156   3.794   0.913   3.252  0.0150 -0.1207 -0.4920
 7086SOL    HW122157   3.882   0.907   3.205 -0.1437 -3.2313 -0.6155
 7086SOL    HW222158   3.809   0.932   3.349  0.7479  0.0806 -0.6371
 7087SOL     OW22159   5.127   2.396   5.004 -0.0293 -0.1759  0.3939
 7087SOL    HW122160   5.058   2.436   5.066 -1.7989 -0.8218 -1.0604
 7087SOL    HW222161   5.202   2.461   4.992 -1.1576  1.2768  0.7884
 7088SOL     OW22162   5.902   0.109   5.066 -0.4270 -0.2561  0.2087
 7088SOL    HW122163   5.816   0.155   5.046 -1.0747 -1.0848  0.9445
 7088SOL    HW222164   5.883   0.014   5.092  0.8080 -0.7777 -0.7053
 7089SOL     OW22165   3.168   0.269   6.939 -0.4259 -0.3488 -0.8187
 7089SOL    HW122166   3.181   0.229   7.030 -0.5538  0.8640 -0.2427
 7089SOL    HW222167   3.231   0.227   6.874  0.6945 -0.2195  0.1520
 7090SOL     OW22168   5.716   4.150   1.995  0.0018  0.5745  0.0632
 7090SOL    HW122169   5.711   4.250   1.992 -0.5521  0.5414 -0.2871
 7090SOL    HW222170   5.646   4.111   1.935  0.8500 -0.0160 -0.5771
 7091SOL     OW22171   5.044   6.051   5.344 -0.3399 -0.0460  0.3404
 7091SOL    HW122172   5.048   6.042   5.245  1.0954 -1.4267  0.4684
 7091SOL    HW222173   4.993   5.973   5.382 -1.2666  0.7086  0.6804
 7092SOL     OW22174   3.309   0.605   5.707 -0.0434 -0.0324 -0.3939
 7092SOL    HW122175   3.228   0.556   5.677  0.2519 -0.2240 -0.8979
 7092SOL    HW222176   3.288   0.659   5.789 -0.1086 -1.8816  0.8802
 7093SOL     OW22177   4.252   4.120   0.286 -0.2624 -0.2546  0.3340
 7093SOL    HW122178   4.306   4.046   0.327  1.5120  0.4298 -0.6150
 7093SOL    HW222179   4.172   4.081   0.240  0.2714 -1.5229  0.4164
 7094SOL     OW22180   4.198   0.904   6.669  0.0274 -0.2991  0.0039
 7094SOL    HW122181   4.179   0.960   6.588  2.0022 -0.0669 -0.3416
 7094SOL    HW222182   4.293   0.873   6.667 -0.4259 -1.9302  1.2692
 7095SOL     OW22183   2.615   4.765   3.463 -0.2029 -0.2157 -0.3760
 7095SOL    HW122184   2.635   4.829   3.537  0.3904 -1.1377  0.2822
 7095SOL    HW222185   2.697   4.750   3.409 -0.6136  0.3936 -1.2012
 7096SOL     OW22186   0.346   2.767   7.005 -0.4026  0.0525 -0.0222
 7096SOL    HW122187   0.344   2.758   7.105 -0.6250  1.1456  0.0788
 7096SOL    HW222188   0.436   2.800   6.977  0.6466 -2.9121 -0.4500
 7097SOL     OW22189   5.506   3.718   2.401 -0.4270 -0.3964  0.3676
 7097SOL    HW122190   5.518   3.812   2.434  0.3912 -0.2342 -0.3296
 7097SOL    HW222191   5.550   3.654   2.464 -0.6074 -0.2770  0.6172
 7098SOL     OW22192   0.381   2.313   2.341 -0.0565 -0.0131 -0.2032
 7098SOL    HW122193   0.395   2.269   2.429  0.2333  0.2123 -0.1364
 7098SOL    HW222194   0.469   2.343   2.304 -0.1782 -0.0898 -0.5592
 7099SOL     OW22195   2.252   0.513   5.452 -0.1411 -0.0757  0.0655
 7099SOL    HW122196   2.321   0.572   5.494  2.8724 -4.1328  1.4662
 7099SOL    HW222197   2.190   0.479   5.522  1.7966 -2.9539  0.5248
 7100SOL     OW22198   2.189   5.692   3.585 -0.0866  0.3907 -0.1138
 7100SOL    HW122199   2.124   5.695   3.661 -0.1213 -1.7304 -0.0021
 7100SOL    HW222200   2.282   5.701   3.622 -0.1761  1.0790 -0.0308
 7101SOL     OW22201   3.417   0.246   2.731  0.1340 -0.1467  0.3528
 7101SOL    HW122202   3.470   0.325   2.762  0.8797  0.3373 -1.9289
 7101SOL    HW222203   3.330   0.277   2.692 -0.9846 -0.7710  2.2279
 7102SOL     OW22204   4.134   1.200   3.696  0.1951 -0.4000 -0.0996
 7102SOL    HW122205   4.046   1.236   3.726  0.8433 -0.3003  1.8197
 7102SOL    HW222206   4.162   1.246   3.613 -1.8737 -0.9336 -1.1779
 7103SOL     OW22207   6.855   3.042   3.116 -0.1822  0.1233  0.2988
 7103SOL    HW122208   6.796   3.066   3.193  0.8597  0.4057  1.0210
 7103SOL    HW222209   6.826   2.954   3.078  0.3190 -0.8313  2.0584
 7104SOL     OW22210   3.284   1.854   4.823 -0.4556  0.9190  0.8577
 7104SOL    HW122211   3.194   1.824   4.855  0.9448 -1.4792  2.9187
 7104SOL    HW222212   3.310   1.801   4.743  0.3650 -0.6947  2.1401
 7105SOL     OW22213   1.540   2.291   0.226  0.6218 -0.1397 -0.0666
 7105SOL    HW122214   1.473   2.232   0.272 -2.4212  3.0376 -0.0162
 7105SOL    HW222215   1.562   2.252   0.137 -0.2674 -1.9452  0.4484
 7106SOL     OW22216   2.042   1.900   1.984 -0.2435 -0.3310 -0.1276
 7106SOL    HW122217   2.028   1.984   1.930  1.1342 -1.0067 -1.6322
 7106SOL    HW222218   2.139   1.891   2.006 -0.3523 -1.5973 -0.1005
 7107SOL     OW22219   2.828   6.785   1.415  0.2429  0.2922  0.1514
 7107SOL    HW122220   2.921   6.807   1.444  0.3512 -0.5589  0.4781
 7107SOL    HW222221   2.832   6.718   1.341 -0.1042  0.3198  0.1099
 7108SOL     OW22222   2.893   0.193   3.213 -0.1096 -0.3532 -0.7673
 7108SOL    HW122223   2.863   0.106   3.174  0.3759  0.6389 -3.5393
 7108SOL    HW222224   2.849   0.206   3.302 -2.9764 -1.8127 -1.8396
 7109SOL     OW22225   6.973   0.287   5.245 -0.5414  0.2878 -0.1608
 7109SOL    HW122226   6.993   0.202   5.293 -0.7011  1.6857  2.5897
 7109SOL    HW222227   6.882   0.320   5.272 -0.4685  1.3475 -1.1297
 7110SOL     OW22228   3.506   5.389   5.777 -0.0514 -0.1012  0.4751
 7110SOL    HW122229   3.497   5.330   5.857 -2.3066  0.2880  0.5618
 7110SOL    HW222230   3.420   5.390   5.726  1.2834 -0.2931 -1.9634
 7111SOL     OW22231   6.462   3.477   3.730  0.1882  0.2655  0.4370
 7111SOL    HW122232   6.365   3.470   3.752  0.3998 -0.2843  1.2269
 7111SOL    HW222233   6.475   3.548   3.661 -0.9487 -0.6648 -0.7842
 7112SOL     OW22234   5.892   5.241   5.212  0.5310 -0.3016  0.3918
 7112SOL    HW122235   5.921   5.166   5.271  0.1665 -0.7569  0.0064
 7112SOL    HW222236   5.950   5.320   5.227  1.6860 -1.0421 -0.0456
 7113SOL     OW22237   2.304   6.667   5.703  0.7380 -0.2771  0.2030
 7113SOL    HW122238   2.275   6.663   5.798 -1.3147 -0.8592 -0.3968
 7113SOL    HW222239   2.338   6.759   5.682  0.8557 -0.0405  1.3833
 7114SOL     OW22240   7.004   4.578   0.174  0.4608 -0.2737 -0.1213
 7114SOL    HW122241   6.995   4.619   0.084  0.4256 -1.4519 -0.6719
 7114SOL    HW222242   6.955   4.634   0.241  1.0889  1.0030 -0.6889
 7115SOL     OW22243   3.571   3.700   5.006  0.0015 -0.7540 -0.4906
 7115SOL    HW122244   3.640   3.674   4.939  0.9060  1.3278 -0.4435
 7115SOL    HW222245   3.616   3.727   5.091 -0.8085  0.8216 -0.5154
 7116SOL     OW22246   0.702   2.811   4.914 -0.3696 -0.3887 -0.8041
 7116SOL    HW122247   0.744   2.732   4.868 -0.0348  0.2774 -1.6793
 7116SOL    HW222248   0.692   2.792   5.012  0.2706 -1.2760 -0.9025
 7117SOL     OW22249   4.193   5.480   3.914 -0.5483 -0.8682 -0.5119
 7117SOL    HW122250   4.227   5.520   3.999 -1.8510 -0.7249 -0.0297
 7117SOL    HW222251   4.270   5.459   3.854  0.2682  1.9107 -0.5874
 7118SOL     OW22252   6.076   6.212   5.317 -0.0416  0.0919 -0.0648
 7118SOL    HW122253   5.997   6.226   5.377 -0.5541  0.3186 -0.7839
 7118SOL    HW222254   6.126   6.297   5.307  0.4189 -0.1015  0.5580
 7119SOL     OW22255   2.301   5.540   3.161  0.2614  0.2580  0.2226
 7119SOL    HW122256   2.318   5.451   3.118 -0.2873  0.2766 -0.0404
 7119SOL    HW222257   2.310   5.532   3.260  0.4193 -0.0408  0.1841
 7120SOL     OW22258   5.024   3.320   2.438  0.0104  0.5569  0.2422
 7120SOL    HW122259   4.961   3.294   2.364 -0.9181 -0.0688  1.2354
 7120SOL    HW222260   5.113   3.343   2.398  0.1659 -1.7648 -0.9308
 7121SOL     OW22261   0.682   6.911   1.241  0.5648  0.3659  0.0920
 7121SOL    HW122262   0.644   6.837   1.296  0.4088  0.4774  0.1362
 7121SOL    HW222263   0.778   6.892   1.221  0.4731  0.0613 -0.0585
 7122SOL     OW22264   2.463   0.330   0.475 -0.3171  0.8106  0.8480
 7122SOL    HW122265   2.375   0.356   0.434  0.2206  1.4575  0.0772
 7122SOL    HW222266   2.538   0.367   0.420  0.4728 -0.6915  0.8587
 7123SOL     OW22267   4.983   4.108   0.268  0.3213  0.0372  0.1508
 7123SOL    HW122268   5.023   4.198   0.285 -2.0141  1.6826 -2.3133
 7123SOL    HW222269   4.994   4.084   0.172 -0.4251 -1.6762  0.4489
 7124SOL     OW22270   5.434   3.039   6.234 -0.0982 -0.5787 -0.3684
 7124SOL    HW122271   5.397   3.076   6.149  0.3007  0.8528  0.0491
 7124SOL    HW222272   5.534   3.032   6.227 -0.2249 -2.4641 -0.7512
 7125SOL     OW22273   1.450   5.904   3.225  0.3583  0.1495  0.1528
 7125SOL    HW122274   1.382   5.831   3.236  1.0481 -0.7543 -1.3007
 7125SOL    HW222275   1.507   5.884   3.146  1.0281  1.9357  0.1557
 7126SOL     OW22276   5.554   4.303   5.608 -0.0357  0.6139  0.0800
 7126SOL    HW122277   5.567   4.207   5.581  3.0909  1.0688 -0.4309
 7126SOL    HW222278   5.466   4.313   5.653 -1.2606 -2.1257 -1.4335
 7127SOL     OW22279   2.332   6.245   5.483  0.0759  0.2523 -0.2915
 7127SOL    HW122280   2.281   6.176   5.431  1.0566 -1.1060  0.5182
 7127SOL    HW222281   2.306   6.241   5.579 -0.0108  1.1716 -0.2672
 7128SOL     OW22282   4.807   2.897   6.339 -0.0412 -0.2963  0.0834
 7128SOL    HW122283   4.760   2.809   6.334 -1.0872  0.1820  0.8612
 7128SOL    HW222284   4.798   2.945   6.252 -0.7322 -0.3660  0.1060
 7129SOL     OW22285   5.264   0.543   0.636 -0.1530  0.0489 -0.0984
 7129SOL    HW122286   5.236   0.637   0.616  2.1308  1.2308  1.6977
 7129SOL    HW222287   5.340   0.518   0.576 -1.6471 -1.2793 -1.5570
 7130SOL     OW22288   3.724   1.189   3.980  0.1267  0.6753 -0.6706
 7130SOL    HW122289   3.722   1.181   4.080  2.5058  0.6227 -0.5577
 7130SOL    HW222290   3.634   1.168   3.943 -0.9502  1.1615  1.4773
 7131SOL     OW22291   2.883   0.510   2.784 -0.0825 -0.4125 -0.1482
 7131SOL    HW122292   2.795   0.463   2.783 -0.7269  0.6917 -2.6714
 7131SOL    HW222293   2.955   0.446   2.756 -0.5823 -0.5494 -1.1673
 7132SOL     OW22294   5.252   6.777   2.618  0.3831  0.3874  0.7445
 7132SOL    HW122295   5.278   6.857   2.672  1.0639 -0.7884  2.2515
 7132SOL    HW222296   5.155   6.782   2.594  0.6262  2.1081 -0.0668
 7133SOL     OW22297   1.066   5.293   1.050 -0.1655  0.4663 -0.3148
 7133SOL    HW122298   1.134   5.350   1.097 -1.2192  0.2588  1.5415
 7133SOL    HW222299   1.009   5.246   1.117 -1.2550 -0.4648 -1.8229
 7134SOL     OW22300   5.681   4.710   5.364  0.0240  0.1796 -0.2137
 7134SOL    HW122301   5.625   4.728   5.283  0.3959 -1.5145 -0.8947
 7134SOL    HW222302   5.770   4.674   5.335 -0.4745 -2.1499  0.9672
 7135SOL     OW22303   3.800   4.474   0.538  0.0200 -0.3053  0.3945
 7135SOL    HW122304   3.875   4.422   0.579 -0.1264 -0.8472 -0.0076
 7135SOL    HW222305   3.787   4.559   0.588  1.2620  0.0541  0.1290
 7136SOL     OW22306   2.125   3.073   3.366  0.7169 -0.0490  0.0361
 7136SOL    HW122307   2.193   3.002   3.380  0.2783 -0.3968  0.4279
 7136SOL    HW222308   2.108   3.120   3.453 -1.1552 -1.4367  0.4846
 7137SOL     OW22309   2.360   0.764   1.690 -0.9074  0.2313  0.0865
 7137SOL    HW122310   2.293   0.697   1.723 -0.2584 -0.2239  0.5134
 7137SOL    HW222311   2.348   0.850   1.739 -2.1204  0.6269 -0.8710
 7138SOL     OW22312   6.763   3.699   6.900  0.0843 -0.2862 -0.0818
 7138SOL    HW122313   6.777   3.637   6.823  0.2240 -1.6895  1.0291
 7138SOL    HW222314   6.839   3.689   6.964 -1.0059 -0.6437  1.2006
 7139SOL     OW22315   5.352   6.340   0.063  0.4723  0.1045 -0.4971
 7139SOL    HW122316   5.297   6.423   0.061 -1.9849 -1.4154 -1.8172
 7139SOL    HW222317   5.445   6.361   0.034  0.3923  2.6267  0.8029
 7140SOL     OW22318   6.780   5.417   6.674 -0.1508 -0.0400 -0.0424
 7140SOL    HW122319   6.793   5.389   6.769  2.1771 -1.2111 -0.6227
 7140SOL    HW222320   6.778   5.336   6.615  1.0598  0.7309 -1.2172
 7141SOL     OW22321   2.922   0.400   1.917  0.2806  0.2020  0.5179
 7141SOL    HW122322   2.968   0.318   1.884 -0.7580  0.1342 -0.8280
 7141SOL    HW222323   2.881   0.381   2.007 -0.0671 -0.8096  0.1645
 7142SOL     OW22324   2.768   5.699   4.277 -0.1267  0.2098  0.2657
 7142SOL    HW122325   2.864   5.693   4.251 -0.4588 -0.9392 -0.7896
 7142SOL    HW222326   2.761   5.740   4.368  1.3892 -0.2005  0.6013
 7143SOL     OW22327   2.521   4.425   5.794  0.1056 -0.1217  0.0485
 7143SOL    HW122328   2.556   4.331   5.798  0.3207 -0.1049 -1.2015
 7143SOL    HW222329   2.445   4.429   5.729  1.4141  0.9613 -1.4891
 7144SOL     OW22330   5.428   0.975   6.670  0.0901  0.2437 -0.2790
 7144SOL    HW122331   5.433   1.033   6.752 -0.5728 -0.7429  0.4950
 7144SOL    HW222332   5.410   1.031   6.590  0.7751  1.2359  0.2490
 7145SOL     OW22333   6.783   5.421   0.964 -0.3702 -1.2086  0.3968
 7145SOL    HW122334   6.879   5.392   0.972 -0.0015 -0.4185 -0.9412
 7145SOL    HW222335   6.754   5.415   0.869 -0.7663  1.2711  0.3072
 7146SOL     OW22336   0.798   2.336   3.899  1.0789 -0.0840 -0.6598
 7146SOL    HW122337   0.878   2.389   3.925  0.5511 -0.0370  1.0081
 7146SOL    HW222338   0.727   2.346   3.970  0.3647 -1.7172 -1.1021
 7147SOL     OW22339   6.156   0.555   6.119 -0.0624  0.0868  0.1454
 7147SOL    HW122340   6.150   0.497   6.038  1.5582 -0.9180  0.7111
 7147SOL    HW222341   6.243   0.541   6.165 -0.1407  2.0550  1.0240
 7148SOL     OW22342   3.820   5.211   6.443  0.0298  0.3773  0.2925
 7148SOL    HW122343   3.915   5.189   6.464 -0.0655 -0.2093  0.1332
 7148SOL    HW222344   3.763   5.130   6.458 -0.5602  0.9360  1.1151
 7149SOL     OW22345   0.251   4.220   6.304  0.0801  0.0992 -0.0753
 7149SOL    HW122346   0.247   4.317   6.325 -0.6632 -0.1200  0.8764
 7149SOL    HW222347   0.175   4.196   6.244 -0.8986 -0.2311  1.2496
 7150SOL     OW22348   1.076   6.578   0.906  0.1596  0.3760  0.6690
 7150SOL    HW122349   1.042   6.669   0.929  1.2205  0.5592  1.6183
 7150SOL    HW222350   1.174   6.572   0.929  0.1788 -0.9027  0.3355
 7151SOL     OW22351   4.172   2.675   0.076  0.5890  0.0129  0.2277
 7151SOL    HW122352   4.156   2.602   0.009  2.8504  0.6605 -1.1503
 7151SOL    HW222353   4.249   2.650   0.134  1.3109  1.2067 -0.1780
 7152SOL     OW22354   6.004   6.386   4.831 -0.3021  0.0525 -0.4777
 7152SOL    HW122355   6.052   6.449   4.770  0.2875 -0.7333 -0.8556
 7152SOL    HW222356   5.986   6.300   4.782  2.5162 -1.6213  1.1119
 7153SOL     OW22357   5.747   6.859   5.653 -0.4658  0.2084 -1.2311
 7153SOL    HW122358   5.807   6.823   5.725  0.6774  2.4414 -0.9793
 7153SOL    HW222359   5.709   6.947   5.683 -0.6148  0.7985 -3.0394
 7154SOL     OW22360   5.183   0.199   1.422  0.3446  0.5957  0.4132
 7154SOL    HW122361   5.099   0.146   1.430 -0.5886  1.9869  0.1496
 7154SOL    HW222362   5.255   0.142   1.383 -1.3400  0.2176 -2.3932
 7155SOL     OW22363   0.601   0.916   2.583 -0.0922  0.1483 -0.0036
 7155SOL    HW122364   0.593   1.015   2.570  1.0250  0.2230 -0.1796
 7155SOL    HW222365   0.670   0.897   2.652  0.2702 -0.5351 -0.5462
 7156SOL     OW22366   6.387   3.896   5.682  0.3303 -0.2921  0.4539
 7156SOL    HW122367   6.367   3.848   5.767  0.4464 -0.0122  0.6407
 7156SOL    HW222368   6.382   3.995   5.697  1.3501 -0.2126  0.3943
 7157SOL     OW22369   0.308   4.558   5.630  0.4311  0.4847 -0.9139
 7157SOL    HW122370   0.315   4.465   5.668  2.1665  0.5263 -1.0404
 7157SOL    HW222371   0.315   4.554   5.530 -4.0105  0.3873 -1.4100
 7158SOL     OW22372   3.375   1.289   4.942 -0.1279  0.0508 -0.5311
 7158SOL    HW122373   3.400   1.372   4.992  0.4710  0.2118 -1.0746
 7158SOL    HW222374   3.375   1.308   4.844 -0.2042 -0.5348 -0.6486
 7159SOL     OW22375   6.430   0.390   3.605  0.5223 -0.4979  0.6805
 7159SOL    HW122376   6.332   0.406   3.617  0.2323 -0.5423 -1.2385
 7159SOL    HW222377   6.473   0.472   3.569  0.2860 -1.7165 -2.7701
 7160SOL     OW22378   6.438   0.595   0.525  0.0602 -0.0102  0.3259
 7160SOL    HW122379   6.488   0.521   0.479  0.8605  0.6123  0.1686
 7160SOL    HW222380   6.504   0.662   0.559 -0.6918  0.9019 -0.0020
 7161SOL     OW22381   4.272   3.319   6.726  0.1661  0.4354 -0.0517
 7161SOL    HW122382   4.189   3.320   6.671 -0.0430  2.3558  0.2118
 7161SOL    HW222383   4.296   3.413   6.751  0.5823 -0.2849  2.6158
 7162SOL     OW22384   0.682   6.632   1.232 -0.2332  0.5465 -0.4115
 7162SOL    HW122385   0.750   6.590   1.173 -1.0346 -0.7992 -0.4100
 7162SOL    HW222386   0.693   6.599   1.326 -1.2420 -0.1687 -0.5231
 7163SOL     OW22387   1.107   6.256   6.702  0.2236 -0.0734  0.1848
 7163SOL    HW122388   1.167   6.265   6.781  0.6097  0.1204 -0.1273
 7163SOL    HW222389   1.158   6.216   6.626  0.0194  0.2907 -0.1480
 7164SOL     OW22390   1.454   6.028   1.058  0.0683 -0.3554 -0.1141
 7164SOL    HW122391   1.478   6.009   1.153 -0.5422  0.8113  0.2853
 7164SOL    HW222392   1.523   6.088   1.018 -0.2596  0.0597 -0.0630
 7165SOL     OW22393   4.357   2.546   0.241  0.0666  0.8570  0.4084
 7165SOL    HW122394   4.357   2.478   0.168  3.0900 -0.1303  1.1788
 7165SOL    HW222395   4.374   2.501   0.328 -0.4150  2.3520  1.3045
 7166SOL     OW22396   6.133   4.252   5.669  0.3015 -0.4005 -0.0535
 7166SOL    HW122397   6.115   4.334   5.615 -0.7864  1.5980  3.0719
 7166SOL    HW222398   6.231   4.245   5.687  0.3005  0.9288  0.6051
 7167SOL     OW22399   1.651   3.184   5.783  0.1374  0.0695  0.0828
 7167SOL    HW122400   1.698   3.186   5.872 -0.0969  0.2398  0.2030
 7167SOL    HW222401   1.708   3.136   5.716  0.0469 -0.6038  0.4809
 7168SOL     OW22402   1.241   0.216   2.169  0.2991  0.4603  0.6078
 7168SOL    HW122403   1.299   0.271   2.110  0.8551  0.1742  0.8789
 7168SOL    HW222404   1.298   0.155   2.224 -0.3246 -0.8220 -0.1249
 7169SOL     OW22405   1.459   4.700   5.288  0.2537 -0.5364  0.0177
 7169SOL    HW122406   1.396   4.627   5.316  1.1971 -0.6346  2.0513
 7169SOL    HW222407   1.435   4.731   5.196 -1.2359 -2.2210 -0.2169
 7170SOL     OW22408   5.305   2.524   1.374  0.5758 -0.1446 -0.5313
 7170SOL    HW122409   5.290   2.500   1.470  0.8458 -2.1391 -0.9419
 7170SOL    HW222410   5.318   2.623   1.366 -2.1684  0.4627  1.1296
 7171SOL     OW22411   0.622   4.233   1.563  0.2217  0.0867  0.3272
 7171SOL    HW122412   0.658   4.326   1.567 -0.8951  0.5203  0.6493
 7171SOL    HW222413   0.663   4.179   1.636  3.6330 -0.7462 -1.9792
 7172SOL     OW22414   1.604   3.301   2.974  0.3712  0.0035 -0.0915
 7172SOL    HW122415   1.593   3.311   3.073  1.7603 -2.1839  0.3612
 7172SOL    HW222416   1.601   3.391   2.931 -0.7825  0.9681  1.8593
 7173SOL     OW22417   2.234   6.452   5.336  0.0118  0.2822 -0.4662
 7173SOL    HW122418   2.266   6.383   5.401  1.1570  1.1931 -0.0155
 7173SOL    HW222419   2.138   6.471   5.352 -0.3579 -1.2558 -0.6597
 7174SOL     OW22420   0.664   2.674   4.539 -0.4410 -0.5025  0.9854
 7174SOL    HW122421   0.585   2.625   4.502 -0.9707 -1.8228  3.6060
 7174SOL    HW222422   0.700   2.624   4.618  1.1283  1.6474  1.7192
 7175SOL     OW22423   4.555   1.718   6.243  0.4114  0.7233  0.1285
 7175SOL    HW122424   4.456   1.716   6.236  0.3920  1.0887  0.2579
 7175SOL    HW222425   4.584   1.677   6.329  0.2818  1.9410  0.7758
 7176SOL     OW22426   4.746   1.787   6.053 -0.1169  0.0900  0.2014
 7176SOL    HW122427   4.689   1.755   6.128 -1.2381 -0.5641 -0.8887
 7176SOL    HW222428   4.842   1.764   6.072 -0.6178 -2.0071  0.4858
 7177SOL     OW22429   2.004   0.113   4.950 -0.2133  0.1739 -0.2942
 7177SOL    HW122430   2.014   0.108   5.050 -0.6108  2.5753 -0.0799
 7177SOL    HW222431   1.908   0.101   4.926 -0.0054 -1.3043 -0.5173
 7178SOL     OW22432   0.750   5.343   5.083  0.3672 -0.2401  0.0116
 7178SOL    HW122433   0.747   5.355   5.182  0.6660 -0.6769  0.0795
 7178SOL    HW222434   0.755   5.245   5.061  0.8830 -0.1253 -0.4139
 7179SOL     OW22435   5.767   3.556   6.424  0.1951 -0.2560  0.1862
 7179SOL    HW122436   5.693   3.489   6.418 -0.0294  0.0011  0.0334
 7179SOL    HW222437   5.783   3.596   6.333 -0.3442  0.6124  0.4644
 7180SOL     OW22438   5.876   2.441   4.123 -0.1041  0.2432 -0.2092
 7180SOL    HW122439   5.834   2.517   4.075 -2.0587  0.5248  1.8322
 7180SOL    HW222440   5.968   2.467   4.152  0.7348  0.4264 -2.7233
 7181SOL     OW22441   3.769   0.605   4.798  1.1546 -0.6915 -0.0269
 7181SOL    HW122442   3.851   0.655   4.828  0.0063  1.1110  0.2230
 7181SOL    HW222443   3.771   0.595   4.699  0.6357  1.3489 -0.2823
 7182SOL     OW22444   1.633   1.019   1.710 -0.3437 -0.3200  0.2240
 7182SOL    HW122445   1.689   1.066   1.777  2.4563 -1.9931 -0.7586
 7182SOL    HW222446   1.608   0.929   1.745 -0.4087 -0.4942 -0.2641
 7183SOL     OW22447   0.120   0.882   6.369 -0.1019  0.1399 -0.4293
 7183SOL    HW122448   0.182   0.946   6.415  0.1956 -2.2126  2.7813
 7183SOL    HW222449   0.170   0.833   6.297  0.6980  0.9173 -0.4172
 7184SOL     OW22450   5.676   1.896   3.538 -1.0982 -0.0241 -0.8559
 7184SOL    HW122451   5.741   1.836   3.492 -1.5412  0.6479 -2.4333
 7184SOL    HW222452   5.724   1.954   3.603 -0.6392 -1.9285  0.5810
 7185SOL     OW22453   4.435   0.070   3.659  0.3850  0.2850  0.0036
 7185SOL    HW122454   4.372   0.147   3.647 -1.7698 -1.2172  0.9455
 7185SOL    HW222455   4.508   0.096   3.722  0.0735  1.7381 -0.2016
 7186SOL     OW22456   5.691   2.251   1.006 -0.0081 -0.4872 -0.1937
 7186SOL    HW122457   5.709   2.348   0.988 -1.6831  0.0125  0.6701
 7186SOL    HW222458   5.766   2.214   1.061  1.6951 -0.2718 -2.2145
 7187SOL     OW22459   3.167   3.095   3.232  0.3102  0.0249  0.1449
 7187SOL    HW122460   3.225   3.176   3.229 -2.7013  2.6108  3.3135
 7187SOL    HW222461   3.188   3.041   3.314 -0.1040 -0.3817 -0.0071
 7188SOL     OW22462   3.236   5.879   0.917 -0.2713  0.2697 -0.1338
 7188SOL    HW122463   3.317   5.859   0.973 -0.7965  0.2387  0.6329
 7188SOL    HW222464   3.256   5.859   0.821  0.5092 -0.0920  0.0957
 7189SOL     OW22465   6.784   1.266   4.800 -0.2906 -0.0992 -0.3633
 7189SOL    HW122466   6.874   1.308   4.806 -1.1023  1.4547  2.3289
 7189SOL    HW222467   6.792   1.168   4.818  1.0928 -0.4567 -2.5462
 7190SOL     OW22468   5.328   6.322   6.803 -0.2170 -0.1933 -0.0331
 7190SOL    HW122469   5.267   6.245   6.822 -0.9039  0.5929  1.0794
 7190SOL    HW222470   5.375   6.348   6.888  0.5120  0.1864 -0.5451
 7191SOL     OW22471   0.512   5.348   2.369 -0.2470 -0.0911  0.8302
 7191SOL    HW122472   0.505   5.360   2.270 -2.7309  0.1562  0.9504
 7191SOL    HW222473   0.589   5.401   2.405 -0.4576  1.3437 -0.7522
 7192SOL     OW22474   2.594   4.967   6.513 -0.3801  0.4635  0.1610
 7192SOL    HW122475   2.538   5.041   6.476  0.3111  0.5043 -0.8697
 7192SOL    HW222476   2.555   4.935   6.599 -4.2549 -2.1066 -2.2493
 7193SOL     OW22477   3.772   0.705   3.859  0.2468 -0.1554  0.2111
 7193SOL    HW122478   3.763   0.645   3.779  0.5631  0.0322  0.0301
 7193SOL    HW222479   3.695   0.769   3.861  1.0830  0.9429 -0.8964
 7194SOL     OW22480   5.520   4.010   5.086  0.0926  0.5619 -0.0558
 7194SOL    HW122481   5.483   4.030   5.177 -0.5748  0.3432 -0.2725
 7194SOL    HW222482   5.505   3.914   5.064  0.1990  0.6257 -0.4193
 7195SOL     OW22483   6.708   4.198   5.536 -0.1637 -0.7173  0.0669
 7195SOL    HW122484   6.763   4.126   5.578 -0.7910 -0.1025  2.0559
 7195SOL    HW222485   6.763   4.280   5.526 -0.2696 -0.5806  0.5831
 7196SOL     OW22486   2.676   5.808   0.888 -0.2031  0.1240 -0.0945
 7196SOL    HW122487   2.737   5.786   0.813  0.7046  1.9170  0.0512
 7196SOL    HW222488   2.614   5.881   0.860 -0.9272 -0.2816  0.4109
 7197SOL     OW22489   4.153   4.544   0.528 -0.0115  0.1223  0.0796
 7197SOL    HW122490   4.113   4.478   0.591  0.7292 -0.8544 -0.4568
 7197SOL    HW222491   4.232   4.504   0.482  0.1694  1.2162 -0.6124
 7198SOL     OW22492   2.043   4.645   2.364  0.1414 -0.0340 -0.5921
 7198SOL    HW122493   2.115   4.616   2.301  0.3875 -0.2668 -0.2003
 7198SOL    HW222494   1.978   4.571   2.378 -0.2732  0.2299 -1.0766
 7199SOL     OW22495   6.525   0.600   3.493  0.4215  0.4708 -0.2504
 7199SOL    HW122496   6.443   0.657   3.495  1.1624  1.7197 -2.5045
 7199SOL    HW222497   6.594   0.642   3.435  2.3780 -0.9859  0.8927
 7200SOL     OW22498   0.424   4.505   6.865  0.0265  0.2604 -0.0101
 7200SOL    HW122499   0.367   4.585   6.882 -0.9777 -0.6175  0.9484
 7200SOL    HW222500   0.482   4.489   6.945 -0.4389 -0.4678  0.1960
 7201SOL     OW22501   4.420   5.472   3.296 -0.1613  0.1604 -0.5071
 7201SOL    HW122502   4.454   5.478   3.390 -0.0969  0.6715 -0.5622
 7201SOL    HW222503   4.496   5.474   3.232  0.0267 -2.8005 -0.5117
 7202SOL     OW22504   3.991   6.376   5.820 -0.1622 -0.2475 -0.0671
 7202SOL    HW122505   4.026   6.283   5.829 -0.5627 -0.2954  1.2360
 7202SOL    HW222506   4.067   6.438   5.800  0.2253 -0.7453 -0.1581
 7203SOL     OW22507   0.278   1.684   1.572  0.6109  0.2240 -0.4548
 7203SOL    HW122508   0.241   1.724   1.655 -1.9420 -2.1113 -0.3279
 7203SOL    HW222509   0.318   1.756   1.515  0.2571  2.2089  1.6821
 7204SOL     OW22510   5.745   1.354   2.135 -0.1116  0.2121 -0.0021
 7204SOL    HW122511   5.686   1.285   2.178 -1.1617  0.7445 -0.5655
 7204SOL    HW222512   5.815   1.308   2.081 -0.3702 -0.4313  0.1978
 7205SOL     OW22513   2.741   2.339   6.350  0.1632 -0.0657  0.1119
 7205SOL    HW122514   2.744   2.379   6.259  1.1934  0.8684  0.5243
 7205SOL    HW222515   2.691   2.253   6.348  2.2494 -1.3123 -1.8203
 7206SOL     OW22516   0.565   3.736   1.211  0.0768 -0.5826  0.0716
 7206SOL    HW122517   0.608   3.742   1.121  1.2785  0.2499  0.6731
 7206SOL    HW222518   0.490   3.669   1.208  0.3325 -0.8376 -1.4341
 7207SOL     OW22519   1.092   2.906   1.277  0.4597 -0.2152 -0.2878
 7207SOL    HW122520   1.127   3.000   1.271  1.2997 -0.4935  0.0676
 7207SOL    HW222521   1.066   2.874   1.186  1.2720 -0.0384 -0.5890
 7208SOL     OW22522   2.278   5.858   2.118  0.1116 -0.3974  0.0550
 7208SOL    HW122523   2.313   5.767   2.095 -1.1838 -1.0531  0.5896
 7208SOL    HW222524   2.178   5.858   2.114  0.0642  0.8609  0.6145
 7209SOL     OW22525   6.109   2.786   4.764 -0.2241 -0.5374 -0.4185
 7209SOL    HW122526   6.074   2.854   4.700 -2.5127  1.5901  2.7472
 7209SOL    HW222527   6.196   2.818   4.802 -0.3231 -0.3298 -0.3639
 7210SOL     OW22528   3.139   1.406   4.731  0.3719  0.1312 -0.2947
 7210SOL    HW122529   3.113   1.312   4.711  0.8779  0.2184 -1.4502
 7210SOL    HW222530   3.127   1.462   4.649  1.7160  0.6979 -0.1378
 7211SOL     OW22531   4.797   5.758   4.644 -0.3219  0.2981 -0.0218
 7211SOL    HW122532   4.821   5.713   4.557  1.7618  0.6442  0.3282
 7211SOL    HW222533   4.833   5.851   4.644  0.8471 -0.1122  1.7029
 7212SOL     OW22534   0.672   0.221   4.065 -0.1805  0.1056 -0.0420
 7212SOL    HW122535   0.712   0.210   4.156  0.5655 -0.4569 -0.4205
 7212SOL    HW222536   0.643   0.316   4.052 -1.0075  0.0221  1.0509
 7213SOL     OW22537   0.370   3.487   0.188 -0.1898 -0.2611  0.0070
 7213SOL    HW122538   0.368   3.487   0.288 -2.9929 -0.2583  0.0050
 7213SOL    HW222539   0.377   3.581   0.154 -2.0140 -0.0154  0.2362
 7214SOL     OW22540   6.954   1.022   4.972  0.4713 -0.2369  0.1922
 7214SOL    HW122541   7.039   1.012   4.920  1.5439 -1.1950  2.0131
 7214SOL    HW222542   6.879   0.979   4.922  1.6066 -1.8206 -0.2411
 7215SOL     OW22543   0.027   1.845   5.131  0.7722  0.1449  0.3814
 7215SOL    HW122544  -0.021   1.933   5.124  0.4046 -0.0015  1.0193
 7215SOL    HW222545  -0.037   1.774   5.160  1.0766 -0.3314 -0.0886
 7216SOL     OW22546   5.668   1.081   1.899 -0.3809 -0.8422 -0.9407
 7216SOL    HW122547   5.612   1.053   1.977 -0.9524  0.1847 -0.9603
 7216SOL    HW222548   5.756   1.114   1.932 -1.4224  1.6891 -0.4677
 7217SOL     OW22549   1.927   6.938   4.012  0.2283  0.2424 -0.0985
 7217SOL    HW122550   1.935   6.912   3.916  3.7904 -0.2845  0.2210
 7217SOL    HW222551   1.937   6.857   4.069 -0.5208  0.7444  0.7807
 7218SOL     OW22552   6.817   2.034   5.783 -0.1542  0.3661 -0.5729
 7218SOL    HW122553   6.726   1.992   5.788 -1.2453  2.7398  1.5178
 7218SOL    HW222554   6.851   2.028   5.689 -2.7553  0.0135 -1.5802
 7219SOL     OW22555   5.350   3.977   1.096 -0.5152  0.1360  0.4576
 7219SOL    HW122556   5.441   3.965   1.137 -0.4928 -0.9315  0.1086
 7219SOL    HW222557   5.285   4.003   1.167 -0.5489 -2.0093  1.2645
 7220SOL     OW22558   0.328   3.624   4.994 -0.6488  0.0830  0.2910
 7220SOL    HW122559   0.417   3.603   5.034 -0.5418 -0.4721 -0.2294
 7220SOL    HW222560   0.325   3.721   4.969  0.2737 -0.1391 -0.8002
 7221SOL     OW22561   4.481   4.562   3.479 -0.2779 -0.6297 -0.1522
 7221SOL    HW122562   4.410   4.572   3.548  0.9344 -1.4001  1.2682
 7221SOL    HW222563   4.509   4.466   3.473 -0.2668 -0.5600 -1.6500
 7222SOL     OW22564   6.164   3.234   5.594  0.6355  0.6457 -0.3136
 7222SOL    HW122565   6.144   3.175   5.672  1.8299  0.7832  0.1154
 7222SOL    HW222566   6.143   3.185   5.509  0.9165 -0.1332  0.0557
 7223SOL     OW22567   6.655   5.990   2.290 -0.3337  0.1977  0.4250
 7223SOL    HW122568   6.711   6.072   2.295  0.4138  0.0271 -2.8719
 7223SOL    HW222569   6.711   5.910   2.311 -0.1659  0.2747  0.2727
 7224SOL     OW22570   6.276   2.264   3.893 -0.0513  0.0378  0.0094
 7224SOL    HW122571   6.291   2.197   3.965  1.5370  1.1930  0.8309
 7224SOL    HW222572   6.343   2.338   3.902  1.7880 -0.8875 -4.0363
 7225SOL     OW22573   0.472   4.804   0.729 -0.6781 -0.2464 -0.2947
 7225SOL    HW122574   0.392   4.776   0.782 -0.7410 -0.0220 -0.2715
 7225SOL    HW222575   0.543   4.838   0.791 -0.4943 -0.6150 -0.2998
 7226SOL     OW22576   6.341   6.546   1.244  0.2492  0.3933  0.6893
 7226SOL    HW122577   6.377   6.601   1.320  0.3626 -2.3579  2.7780
 7226SOL    HW222578   6.416   6.519   1.184  0.2511  2.0473 -0.1227
 7227SOL     OW22579   1.802   1.283   2.632 -0.1004 -0.6260 -0.4578
 7227SOL    HW122580   1.835   1.260   2.724 -0.1475  0.1353 -0.2387
 7227SOL    HW222581   1.870   1.342   2.587 -1.1868  1.0792  0.0485
 7228SOL     OW22582   0.495   2.944   3.511 -0.0050  0.0933 -0.3953
 7228SOL    HW122583   0.511   3.038   3.479 -1.8623  0.1863 -1.1718
 7228SOL    HW222584   0.573   2.887   3.485  0.9095  1.2823 -0.3947
 7229SOL     OW22585   3.669   5.947   4.040 -0.0219  0.1859  0.3867
 7229SOL    HW122586   3.652   5.878   4.111  1.1076  0.3807  0.8635
 7229SOL    HW222587   3.757   5.990   4.056  0.3897  0.0415 -1.2931
 7230SOL     OW22588   1.719   5.046   6.885  0.0420  0.1366  0.2312
 7230SOL    HW122589   1.636   5.054   6.941 -1.2034 -0.3157 -1.4770
 7230SOL    HW222590   1.724   5.121   6.820  2.0241  1.2352  1.5606
 7231SOL     OW22591   4.156   3.467   0.022  0.3058 -0.3848  0.3363
 7231SOL    HW122592   4.061   3.457  -0.008  0.4329 -0.2489 -0.1198
 7231SOL    HW222593   4.158   3.518   0.108  0.0719  1.2659 -0.5909
 7232SOL     OW22594   4.313   5.415   2.911  0.1992  0.2319  0.2923
 7232SOL    HW122595   4.241   5.440   2.846 -0.0462  1.8099  1.1194
 7232SOL    HW222596   4.388   5.371   2.862 -1.3240 -1.4927 -0.5856
 7233SOL     OW22597   0.551   0.024   2.827  0.3446  0.1282 -1.0104
 7233SOL    HW122598   0.618   0.083   2.782  1.5711 -0.0303  0.5191
 7233SOL    HW222599   0.536   0.056   2.921 -0.0169 -1.1808 -0.5997
 7234SOL     OW22600   6.602   6.527   3.252  0.0537 -0.2486  0.2047
 7234SOL    HW122601   6.524   6.561   3.200  0.0898  0.7752  0.7812
 7234SOL    HW222602   6.645   6.451   3.203  0.2472  0.8379 -1.3951
 7235SOL     OW22603   6.719   5.945   1.991  0.1010 -1.1120  0.3628
 7235SOL    HW122604   6.621   5.928   2.002  0.1501 -1.3565  0.4232
 7235SOL    HW222605   6.753   5.995   2.071 -0.8587  2.9739 -1.5233
 7236SOL     OW22606   1.898   3.236   4.025  0.6298  0.0719 -0.2781
 7236SOL    HW122607   1.967   3.261   4.094  1.7344 -0.8056 -1.0269
 7236SOL    HW222608   1.918   3.283   3.939  0.7145 -0.7267 -0.7037
 7237SOL     OW22609   3.771   1.954   7.002 -0.1810 -0.3572  0.2514
 7237SOL    HW122610   3.724   1.895   6.936  1.0024 -0.7326 -0.2869
 7237SOL    HW222611   3.805   1.898   7.077 -2.0954  0.1568  1.5682
 7238SOL     OW22612   3.911   2.896   0.803 -0.1552  0.0244 -0.2356
 7238SOL    HW122613   3.894   2.907   0.901 -0.4962 -0.5494 -0.2258
 7238SOL    HW222614   3.832   2.930   0.752 -0.6923 -1.1755 -0.2455
 7239SOL     OW22615   4.672   2.691   2.975 -0.1894 -0.2750 -0.6686
 7239SOL    HW122616   4.760   2.714   3.017 -1.1039  1.2690  0.4779
 7239SOL    HW222617   4.663   2.739   2.888 -0.5666  0.9012  0.0011
 7240SOL     OW22618   6.819   2.423   1.024  0.3029  1.1819  0.0057
 7240SOL    HW122619   6.734   2.462   0.989 -0.3317  0.1945  0.4131
 7240SOL    HW222620   6.855   2.356   0.958 -0.0456  0.4958  0.4960
 7241SOL     OW22621   3.546   5.174   5.494 -0.3009  0.1881  0.2510
 7241SOL    HW122622   3.456   5.205   5.464  0.2975  0.9660 -0.8212
 7241SOL    HW222623   3.539   5.081   5.530 -1.6470  0.5111  0.8986
 7242SOL     OW22624   5.968   4.418   0.341  0.2578 -0.4218  0.3741
 7242SOL    HW122625   6.017   4.381   0.262 -0.5425  0.3265 -0.5178
 7242SOL    HW222626   5.870   4.402   0.328  0.0032  0.9240  0.5364
 7243SOL     OW22627   6.332   5.750   0.749 -0.0216 -0.6020 -0.1911
 7243SOL    HW122628   6.427   5.771   0.723 -0.3339 -0.2280 -1.0891
 7243SOL    HW222629   6.276   5.832   0.739 -0.3855 -0.7381  0.6500
 7244SOL     OW22630   0.116   5.073   6.259  0.3548 -0.0176 -0.1284
 7244SOL    HW122631   0.103   5.065   6.358 -0.1511 -1.1198 -0.2676
 7244SOL    HW222632   0.027   5.072   6.214  0.5787 -4.4697 -0.8863
 7245SOL     OW22633   1.247   2.204   5.895 -0.0513 -0.5704  0.0362
 7245SOL    HW122634   1.230   2.268   5.970  1.2848  0.5506 -0.5540
 7245SOL    HW222635   1.331   2.152   5.914  0.1398 -0.4790 -0.5337
 7246SOL     OW22636   3.694   5.852   5.746 -0.3313  0.9182  0.3037
 7246SOL    HW122637   3.793   5.850   5.741 -0.3830 -1.1954 -1.9100
 7246SOL    HW222638   3.662   5.770   5.793 -1.0439  1.6862  1.1878
 7247SOL     OW22639   3.546   3.803   3.298  0.2893  0.1224 -0.1405
 7247SOL    HW122640   3.538   3.711   3.337 -0.5121 -0.4819 -1.6543
 7247SOL    HW222641   3.476   3.862   3.336 -0.5688 -0.4977 -0.7173
 7248SOL     OW22642   0.161   3.715   6.918 -0.2331 -0.6792 -0.5590
 7248SOL    HW122643   0.156   3.657   6.836  0.3963  0.1064 -1.1617
 7248SOL    HW222644   0.114   3.801   6.902  0.7089 -0.1287 -0.4310
 7249SOL     OW22645   4.087   0.844   0.584 -0.2603 -0.6828  0.3469
 7249SOL    HW122646   4.011   0.804   0.532 -0.4868 -1.4567  1.2405
 7249SOL    HW222647   4.172   0.799   0.559 -0.1805 -0.2214 -0.2252
 7250SOL     OW22648   6.219   4.007   6.308 -0.4054 -0.4486  0.7332
 7250SOL    HW122649   6.317   4.025   6.323 -0.7822  2.1056  0.4641
 7250SOL    HW222650   6.209   3.915   6.268  2.0935  0.0421 -1.3615
 7251SOL     OW22651   6.396   6.990   3.127  0.2632 -0.0582  0.1020
 7251SOL    HW122652   6.482   7.035   3.102  0.4003 -1.0626 -1.3523
 7251SOL    HW222653   6.415   6.913   3.189  0.1775  0.9222  1.3888
 7252SOL     OW22654   3.836   3.866   1.907  0.2189  0.4551 -0.5397
 7252SOL    HW122655   3.812   3.768   1.907 -0.4391  0.5971 -1.4305
 7252SOL    HW222656   3.848   3.897   2.001  3.0289 -1.0626 -0.2816
 7253SOL     OW22657   6.922   4.432   6.286  0.4037  0.0609 -0.4429
 7253SOL    HW122658   6.975   4.451   6.369 -0.8445 -0.5213  0.5256
 7253SOL    HW222659   6.843   4.493   6.284 -1.6424 -2.3735  0.8009
 7254SOL     OW22660   5.351   3.923   2.926  0.0863 -0.4850 -0.5413
 7254SOL    HW122661   5.286   3.883   2.990 -0.5358  2.3018  0.7343
 7254SOL    HW222662   5.440   3.935   2.971 -0.0837  0.6069 -0.4565
 7255SOL     OW22663   5.112   4.802   1.052  0.8578  0.0899 -0.3400
 7255SOL    HW122664   5.026   4.820   1.098  1.1293 -0.3589  0.3723
 7255SOL    HW222665   5.095   4.764   0.961  0.3150  0.6351 -0.4701
 7256SOL     OW22666   2.073   0.096   3.393  0.3341  0.2189 -0.9359
 7256SOL    HW122667   2.121   0.172   3.349 -0.5477  1.4718  0.1637
 7256SOL    HW222668   2.020   0.131   3.470 -0.6850 -1.4305 -0.8412
 7257SOL     OW22669   2.190   1.529   5.432  0.2417  0.0675 -0.8859
 7257SOL    HW122670   2.172   1.535   5.334 -0.3776 -0.8206 -0.8351
 7257SOL    HW222671   2.177   1.435   5.463  0.1082  0.4003  0.1114
 7258SOL     OW22672   6.705   1.209   3.552 -0.1966  0.3208  0.2460
 7258SOL    HW122673   6.796   1.241   3.526  0.4418 -0.5188  1.3760
 7258SOL    HW222674   6.712   1.149   3.631 -1.8455  1.0637  1.0114
 7259SOL     OW22675   0.102   3.678   0.858 -0.6822 -0.9395  0.1739
 7259SOL    HW122676   0.004   3.688   0.875 -0.2751 -2.2276  4.4188
 7259SOL    HW222677   0.139   3.606   0.916  2.9585  0.0088 -0.6927
 7260SOL     OW22678   1.011   1.250   0.647  0.0848 -0.0597 -0.2348
 7260SOL    HW122679   1.068   1.332   0.648 -0.8408  0.6251 -1.2102
 7260SOL    HW222680   0.928   1.267   0.699  0.6534 -0.9983  1.0339
 7261SOL     OW22681   0.662   3.615   6.918  0.1751  0.4650  0.1054
 7261SOL    HW122682   0.580   3.656   6.879 -0.8243 -0.5640  1.0452
 7261SOL    HW222683   0.734   3.611   6.848 -0.1329  2.4815 -0.4002
 7262SOL     OW22684   4.105   1.470   4.660 -1.0321  0.6717 -0.5833
 7262SOL    HW122685   4.177   1.402   4.649 -1.2270  0.3977 -0.1746
 7262SOL    HW222686   4.076   1.502   4.570 -1.7238 -0.6107 -0.8441
 7263SOL     OW22687   4.924   4.787   6.369 -0.0249  0.1094  0.0268
 7263SOL    HW122688   4.913   4.859   6.437 -1.4334  1.4887 -1.5646
 7263SOL    HW222689   4.852   4.718   6.381 -0.0177  0.1335  0.1997
 7264SOL     OW22690   3.873   1.019   7.021 -0.1630 -0.6726  0.7553
 7264SOL    HW122691   3.793   1.069   6.986  0.0142 -0.2684  0.9215
 7264SOL    HW222692   3.846   0.926   7.045 -0.6146 -0.4953  0.9362
 7265SOL     OW22693   4.792   6.197   4.751  0.2018 -0.0472  0.4887
 7265SOL    HW122694   4.806   6.139   4.671 -1.0705  0.1914  0.0811
 7265SOL    HW222695   4.785   6.292   4.723  0.3352  0.0992  0.9451
 7266SOL     OW22696   1.677   6.479   3.702  0.1803 -0.5272 -0.4099
 7266SOL    HW122697   1.589   6.432   3.704 -0.2801  0.3306 -0.2080
 7266SOL    HW222698   1.676   6.549   3.630  0.7040 -0.5213 -0.4143
 7267SOL     OW22699   6.244   1.843   5.234 -0.2141 -0.1172 -0.1822
 7267SOL    HW122700   6.266   1.924   5.288  3.4795 -1.6908  1.0155
 7267SOL    HW222701   6.172   1.791   5.280 -1.8863  1.8848 -0.4308
 7268SOL     OW22702   4.037   6.235   3.914  0.4735  0.4529  0.3537
 7268SOL    HW122703   3.965   6.304   3.912  0.0034 -0.0337  0.4833
 7268SOL    HW222704   4.022   6.169   3.840  1.0317  0.5926  0.1070
 7269SOL     OW22705   1.680   6.307   5.843 -0.0516  0.2889 -0.1264
 7269SOL    HW122706   1.758   6.315   5.781 -1.5477  2.3676 -1.9063
 7269SOL    HW222707   1.657   6.211   5.856  2.6761 -0.3970  0.4131
 7270SOL     OW22708   0.549   1.393   4.792 -0.4913 -0.4153  0.5637
 7270SOL    HW122709   0.541   1.350   4.702 -0.5170  0.6479  0.0538
 7270SOL    HW222710   0.500   1.338   4.859 -0.7878 -1.0179 -0.1351
 7271SOL     OW22711   1.055   6.822   2.780  0.5064 -0.0021 -0.4855
 7271SOL    HW122712   1.142   6.816   2.829  0.5375  2.2955 -0.1691
 7271SOL    HW222713   0.979   6.809   2.843  0.5931 -0.4210 -0.4665
 7272SOL     OW22714   6.542   6.553   3.505  0.0661 -0.6307  0.2849
 7272SOL    HW122715   6.600   6.630   3.531 -0.8661 -0.0649  0.7529
 7272SOL    HW222716   6.559   6.528   3.410  2.4305 -1.7133  0.9248
 7273SOL     OW22717   6.657   0.820   4.419  0.3128 -0.1378  0.3903
 7273SOL    HW122718   6.740   0.768   4.438  0.9827  0.7532 -0.0749
 7273SOL    HW222719   6.612   0.781   4.338  1.3596  0.6083 -0.5846
 7274SOL     OW22720   0.319   5.017   6.937  0.4585 -0.1515  0.2744
 7274SOL    HW122721   0.247   4.993   7.003  1.1927 -0.2934  1.0436
 7274SOL    HW222722   0.314   4.955   6.859  0.0283 -0.4497  0.5342
 7275SOL     OW22723   0.515   1.850   3.011  0.2682 -0.4385  0.0619
 7275SOL    HW122724   0.551   1.762   2.980 -0.4446 -0.1310 -1.7719
 7275SOL    HW222725   0.416   1.844   3.021  0.3040 -0.0520  0.6602
 7276SOL     OW22726   4.668   6.381   4.078  0.3803  0.2522 -0.0943
 7276SOL    HW122727   4.632   6.290   4.097  0.8569  0.1845  0.5202
 7276SOL    HW222728   4.768   6.381   4.088  0.4174  0.7667 -0.3912
 7277SOL     OW22729   4.683   0.769   0.087 -0.3977 -0.3982 -0.3152
 7277SOL    HW122730   4.702   0.850   0.031  0.8961 -0.4779 -0.0244
 7277SOL    HW222731   4.752   0.699   0.069 -2.2352 -1.9886 -1.5215
 7278SOL     OW22732   3.280   2.903   2.543  0.3470 -0.3618 -0.4325
 7278SOL    HW122733   3.254   2.817   2.499 -0.1108  1.2612 -3.6424
 7278SOL    HW222734   3.365   2.937   2.502  1.8407 -0.3335  2.4388
 7279SOL     OW22735   3.933   6.428   6.576 -0.1124  0.1644  0.6045
 7279SOL    HW122736   3.899   6.459   6.487 -2.8473 -1.8222  0.8397
 7279SOL    HW222737   3.872   6.460   6.648 -0.7129 -2.2372  1.2317
 7280SOL     OW22738   2.729   4.956   6.787 -0.2081 -0.5085 -0.0800
 7280SOL    HW122739   2.825   4.964   6.812 -0.1969 -0.2424 -0.1989
 7280SOL    HW222740   2.691   5.047   6.768 -0.5471 -0.5884  0.1976
 7281SOL     OW22741   6.190   6.384   6.701  0.8479 -0.0759  0.2692
 7281SOL    HW122742   6.158   6.477   6.721 -1.5558 -1.2752  2.5109
 7281SOL    HW222743   6.239   6.348   6.780  1.4681 -0.8707 -0.4567
 7282SOL     OW22744   6.128   6.503   2.118  0.3445 -0.0932  0.7993
 7282SOL    HW122745   6.190   6.505   2.039 -2.7982 -3.1543 -2.1258
 7282SOL    HW222746   6.163   6.439   2.186  1.1438 -0.6928 -0.1372
 7283SOL     OW22747   2.395   0.990   4.450  0.4285  0.5851  0.2851
 7283SOL    HW122748   2.295   0.983   4.457  0.3924 -0.2062 -0.7184
 7283SOL    HW222749   2.421   0.994   4.354  1.4401 -0.9057  0.4592
 7284SOL     OW22750   2.592   1.834   5.305 -0.9061  0.0179 -0.6653
 7284SOL    HW122751   2.557   1.843   5.398 -2.0887  0.9203 -1.1672
 7284SOL    HW222752   2.615   1.925   5.269  1.0579 -0.4594 -0.7172
 7285SOL     OW22753   6.398   5.870   6.490  0.6103  0.2712  0.4747
 7285SOL    HW122754   6.350   5.925   6.422  1.7070 -0.7202 -1.1948
 7285SOL    HW222755   6.424   5.927   6.567  0.3592  1.7303 -0.4750
 7286SOL     OW22756   1.113   1.554   0.618  0.1722 -0.6896  0.1672
 7286SOL    HW122757   1.205   1.541   0.654  0.2307 -0.3137  0.1594
 7286SOL    HW222758   1.064   1.621   0.674  0.4398  0.2845 -0.7273
 7287SOL     OW22759   0.256   0.299   5.271 -0.3571 -0.4358  0.3463
 7287SOL    HW122760   0.164   0.337   5.261 -0.3682 -0.0676  1.6757
 7287SOL    HW222761   0.277   0.287   5.368  0.6067 -1.5043  0.0278
 7288SOL     OW22762   2.251   0.402   0.325  0.1507 -0.0165 -0.0463
 7288SOL    HW122763   2.208   0.486   0.360  0.2848  0.0001  0.0775
 7288SOL    HW222764   2.255   0.406   0.225 -0.9237 -0.3957 -0.1156
 7289SOL     OW22765   4.204   1.127   4.147 -0.5066 -0.0662 -0.1027
 7289SOL    HW122766   4.299   1.107   4.168 -0.8163 -3.4031 -1.1983
 7289SOL    HW222767   4.197   1.215   4.100  1.7089  1.2342  1.8389
 7290SOL     OW22768   2.646   0.871   4.045  0.5883  0.0042  0.8271
 7290SOL    HW122769   2.656   0.939   4.118  0.1727  1.5262 -0.4653
 7290SOL    HW222770   2.603   0.914   3.966  4.0285 -0.6606 -1.6006
 7291SOL     OW22771   5.244   5.750   6.905  0.1520  0.2172  0.0363
 7291SOL    HW122772   5.331   5.723   6.946  0.1766 -0.2482 -0.3196
 7291SOL    HW222773   5.250   5.745   6.805 -0.5028 -0.5038  0.0269
 7292SOL     OW22774   4.432   6.798   4.757 -0.1864 -0.6582 -0.4225
 7292SOL    HW122775   4.528   6.774   4.738  0.1030  0.6834 -0.7686
 7292SOL    HW222776   4.400   6.863   4.688 -0.6837  0.4888  0.8502
 7293SOL     OW22777   1.165   1.018   0.663  0.3116 -0.5401  0.6026
 7293SOL    HW122778   1.092   1.085   0.672  0.6764 -0.1609  0.7855
 7293SOL    HW222779   1.169   0.985   0.569  1.0675  0.7978  0.1335
 7294SOL     OW22780   5.003   3.536   5.423  0.1310 -0.1681  0.0712
 7294SOL    HW122781   4.971   3.610   5.364 -1.4693 -1.0979 -0.2914
 7294SOL    HW222782   5.076   3.485   5.377  1.1422  1.0582  0.2647
 7295SOL     OW22783   4.766   6.860   0.184  0.4792  0.0456  0.3268
 7295SOL    HW122784   4.691   6.915   0.221  1.3778  0.4623  1.5892
 7295SOL    HW222785   4.851   6.884   0.230  1.0795 -1.6832  0.1993
 7296SOL     OW22786   3.952   5.852   1.413 -0.0405  0.0005  0.0739
 7296SOL    HW122787   3.903   5.842   1.327 -0.3824  2.0047 -0.0100
 7296SOL    HW222788   3.888   5.846   1.490 -0.1129  0.5601  0.0621
 7297SOL     OW22789   5.190   1.365   1.100 -0.1862 -0.3681  0.0921
 7297SOL    HW122790   5.248   1.297   1.144  0.2105 -2.0120 -2.6954
 7297SOL    HW222791   5.103   1.372   1.148  0.9530 -0.4270  2.3007
 7298SOL     OW22792   5.145   4.338   4.096 -0.0248 -0.0369 -0.0715
 7298SOL    HW122793   5.242   4.322   4.114  0.0077 -0.2632 -0.4407
 7298SOL    HW222794   5.104   4.255   4.059 -0.4526 -0.0645  0.4537
 7299SOL     OW22795   6.300   5.237   1.960 -0.6158  0.3629  0.1059
 7299SOL    HW122796   6.297   5.196   1.868 -0.0323  2.2825 -0.8087
 7299SOL    HW222797   6.394   5.258   1.984 -0.6417 -1.0832  1.6355
 7300SOL     OW22798   4.548   4.174   0.564  1.5415  0.1119 -0.0550
 7300SOL    HW122799   4.629   4.159   0.507  2.4679 -1.5870  1.5984
 7300SOL    HW222800   4.577   4.212   0.652  0.7615 -1.9570  1.1496
 7301SOL     OW22801   6.145   0.993   4.572 -0.3191 -0.3472  0.0050
 7301SOL    HW122802   6.062   0.974   4.626 -0.0380 -0.1103  0.5262
 7301SOL    HW222803   6.218   1.024   4.633  0.2232 -0.7629 -0.4203
 7302SOL     OW22804   6.396   1.504   6.017  0.4856 -0.2235  0.6705
 7302SOL    HW122805   6.433   1.451   5.942 -2.8418 -0.0328 -1.2706
 7302SOL    HW222806   6.343   1.445   6.077 -1.7003  0.4728 -0.4757
 7303SOL     OW22807   3.259   0.297   0.778  0.2632 -0.1266 -0.3080
 7303SOL    HW122808   3.272   0.261   0.870  0.6439 -0.5009 -0.5059
 7303SOL    HW222809   3.258   0.397   0.781  1.0038 -0.1210  0.0167
 7304SOL     OW22810   4.132   3.505   3.993 -0.0240  0.0302  0.5199
 7304SOL    HW122811   4.128   3.445   3.913 -0.7132 -0.2369  0.7430
 7304SOL    HW222812   4.121   3.449   4.076 -1.9231  0.5702  0.6887
 7305SOL     OW22813   3.898   3.619   1.396 -0.6664  0.9161  0.7226
 7305SOL    HW122814   3.930   3.584   1.308 -2.2769  1.1421  0.0076
 7305SOL    HW222815   3.941   3.707   1.415  0.6278  0.2920  0.7810
 7306SOL     OW22816   5.892   6.234   1.565  0.3806  0.1043 -0.6211
 7306SOL    HW122817   5.906   6.291   1.646  1.3712  1.6376 -1.8105
 7306SOL    HW222818   5.977   6.187   1.542  0.1311 -0.2483 -0.8419
 7307SOL     OW22819   4.512   2.161   3.223 -0.1102  0.3528 -0.2477
 7307SOL    HW122820   4.438   2.220   3.191 -0.1451 -0.2775 -1.3943
 7307SOL    HW222821   4.600   2.203   3.202 -0.1185  1.0489  1.0132
 7308SOL     OW22822   3.836   0.607   4.531  0.1633 -0.1217 -0.1380
 7308SOL    HW122823   3.928   0.614   4.493  0.2249 -2.0015 -0.4630
 7308SOL    HW222824   3.779   0.553   4.469 -1.8385  2.7933 -1.0421
 7309SOL     OW22825   3.869   3.957   6.468 -0.2880 -0.3587  0.1685
 7309SOL    HW122826   3.887   3.952   6.370  0.1996  0.3726  0.2069
 7309SOL    HW222827   3.859   4.053   6.495 -0.7207 -0.5677  0.7837
 7310SOL     OW22828   2.802   6.276   2.263 -0.0328  0.0103  0.5833
 7310SOL    HW122829   2.791   6.187   2.218  0.4130 -0.3703  1.2019
 7310SOL    HW222830   2.778   6.267   2.359  3.7329 -0.4774  1.6481
 7311SOL     OW22831   4.051   2.260   3.056  1.2914 -0.3030  0.0387
 7311SOL    HW122832   3.976   2.320   3.027  2.2143  0.7515 -0.2276
 7311SOL    HW222833   4.021   2.204   3.134  0.1894 -0.0157 -0.1619
 7312SOL     OW22834   6.697   2.180   0.213 -0.2901  0.5898 -0.2053
 7312SOL    HW122835   6.748   2.127   0.280 -0.1256  1.9139  0.7568
 7312SOL    HW222836   6.601   2.150   0.212 -0.5702  1.3524  1.5141
 7313SOL     OW22837   3.535   3.634   5.656 -0.3429 -0.6236 -0.0218
 7313SOL    HW122838   3.437   3.623   5.672 -0.0172 -0.0856  2.8462
 7313SOL    HW222839   3.586   3.566   5.709  0.8815 -0.1722 -0.5706
 7314SOL     OW22840   0.568   1.672   5.104  0.0578  0.1333  0.3181
 7314SOL    HW122841   0.538   1.765   5.126  1.2399  0.5817  0.0881
 7314SOL    HW222842   0.627   1.637   5.177  0.7107  0.0837 -0.2213
 7315SOL     OW22843   5.024   1.764   6.046  0.6160 -0.3395 -0.1451
 7315SOL    HW122844   5.076   1.724   5.970  1.9920  1.1229 -0.0322
 7315SOL    HW222845   5.078   1.837   6.089 -0.9339  0.2035  0.9924
 7316SOL     OW22846   3.458   4.067   3.342  0.2022  0.3520 -0.2549
 7316SOL    HW122847   3.361   4.080   3.320 -0.3638  0.0732  1.8241
 7316SOL    HW222848   3.474   4.093   3.438  1.7683 -1.4548  0.0418
 7317SOL     OW22849   3.170   6.699   4.367  0.4489 -0.6171 -0.4629
 7317SOL    HW122850   3.191   6.625   4.431 -0.3865 -0.0508  0.5016
 7317SOL    HW222851   3.255   6.743   4.338  0.9550 -1.8952 -1.0045
 7318SOL     OW22852   2.817   1.705   1.840 -0.5627 -0.2336  0.5996
 7318SOL    HW122853   2.833   1.678   1.935  0.3015  0.2486  0.6011
 7318SOL    HW222854   2.897   1.753   1.805 -0.5957 -1.0099 -0.5945
 7319SOL     OW22855   6.641   3.028   3.910  0.0383  0.3714 -0.0229
 7319SOL    HW122856   6.650   3.128   3.915 -0.8874  0.3962  2.6562
 7319SOL    HW222857   6.551   3.005   3.873 -1.1403  0.6727  2.4335
 7320SOL     OW22858   0.034   0.060   2.183 -0.2852  0.0359  0.3706
 7320SOL    HW122859   0.017   0.146   2.231  0.8060  0.6064 -0.2081
 7320SOL    HW222860  -0.042   0.041   2.121  0.4788  1.8581 -1.2524
 7321SOL     OW22861   6.026   2.375   3.885 -0.2384 -0.0348  0.0647
 7321SOL    HW122862   6.107   2.322   3.908 -0.9755 -0.7920  1.0013
 7321SOL    HW222863   5.983   2.409   3.969  0.1369  1.9685 -0.5015
 7322SOL     OW22864   2.509   2.581   3.400  0.2505  0.9434 -0.1691
 7322SOL    HW122865   2.456   2.589   3.484 -1.4785 -2.1512 -0.8346
 7322SOL    HW222866   2.472   2.645   3.332 -0.9314  0.6931  0.2091
 7323SOL     OW22867   1.589   2.328   4.367 -0.5322  0.6688  0.2040
 7323SOL    HW122868   1.593   2.392   4.290  0.7921 -0.1956 -0.4743
 7323SOL    HW222869   1.536   2.247   4.341  0.6107  0.0051 -0.1032
 7324SOL     OW22870   3.750   5.202   2.063 -0.4206  0.2680 -0.1065
 7324SOL    HW122871   3.725   5.123   2.007 -2.9113  0.9189 -0.0219
 7324SOL    HW222872   3.754   5.284   2.005 -1.5837  0.6950  0.3865
 7325SOL     OW22873   1.724   6.074   1.871 -0.1227 -0.1733 -0.6193
 7325SOL    HW122874   1.777   5.991   1.853  0.6987 -0.0312  0.9455
 7325SOL    HW222875   1.764   6.151   1.819 -0.5970 -0.6354 -1.6986
 7326SOL     OW22876   3.422   0.338   4.104 -0.1949  0.6697 -0.2757
 7326SOL    HW122877   3.384   0.430   4.117  0.5976  0.8668  0.7931
 7326SOL    HW222878   3.521   0.341   4.114 -0.1234 -0.2419 -0.6246
 7327SOL     OW22879   0.780   3.352   5.577  0.0475 -0.2321 -0.4907
 7327SOL    HW122880   0.720   3.314   5.507  1.5202 -0.8487 -1.4615
 7327SOL    HW222881   0.853   3.405   5.533  0.5586  0.0077  0.6155
 7328SOL     OW22882   0.729   1.356   1.317  0.1547 -0.3111 -0.2723
 7328SOL    HW122883   0.801   1.424   1.303  1.1750 -1.1888  0.4732
 7328SOL    HW222884   0.756   1.270   1.274  0.0787 -0.9740  0.9574
 7329SOL     OW22885   5.238   1.951   1.199  0.2009  0.2203  0.7489
 7329SOL    HW122886   5.260   1.860   1.234 -0.3871 -0.7228 -1.1843
 7329SOL    HW222887   5.278   1.961   1.107  0.1951  1.8994  0.9028
 7330SOL     OW22888   3.157   2.342   0.044 -0.3484  0.4636 -0.1967
 7330SOL    HW122889   3.058   2.351   0.032 -0.1786  1.6977 -0.9097
 7330SOL    HW222890   3.203   2.386  -0.033  0.7643  0.9393  0.7182
 7331SOL     OW22891   4.953   1.000   1.839 -0.3467  0.6638  0.6185
 7331SOL    HW122892   4.940   1.008   1.740  1.1917 -0.7624  0.2573
 7331SOL    HW222893   5.042   0.958   1.858 -1.4835 -1.1192  2.5281
 7332SOL     OW22894   2.765   6.981   5.110  0.2358 -0.1597 -0.8717
 7332SOL    HW122895   2.834   7.040   5.068 -0.9437  2.1031  0.2050
 7332SOL    HW222896   2.675   7.022   5.097 -0.5434 -1.3142  0.6334
 7333SOL     OW22897   5.820   5.583   1.668 -0.0434 -0.1706 -0.4978
 7333SOL    HW122898   5.773   5.664   1.705  0.1290  0.5150 -1.7043
 7333SOL    HW222899   5.850   5.603   1.575 -0.0116 -1.6537 -0.8213
 7334SOL     OW22900   3.145   1.594   4.511  0.4249  0.2961 -0.1295
 7334SOL    HW122901   3.234   1.631   4.538  0.6479 -1.1931  1.4034
 7334SOL    HW222902   3.137   1.594   4.412  2.1723  0.4089 -0.3084
 7335SOL     OW22903   2.209   3.202   3.749 -0.6095 -0.1060 -0.3580
 7335SOL    HW122904   2.158   3.259   3.685 -0.8678 -0.2133 -0.2504
 7335SOL    HW222905   2.233   3.256   3.830 -1.5438 -0.3567  0.0990
 7336SOL     OW22906   2.231   5.425   4.108 -0.2820  0.0822  0.0134
 7336SOL    HW122907   2.151   5.377   4.145  0.5325  0.6089  2.6751
 7336SOL    HW222908   2.233   5.519   4.144  0.7821  0.5356 -1.1624
 7337SOL     OW22909   4.922   3.337   1.588 -0.3489  0.0985  0.0768
 7337SOL    HW122910   4.874   3.424   1.580  0.3685  0.4076 -0.9912
 7337SOL    HW222911   4.895   3.292   1.674 -4.5682 -0.9384 -1.5338
 7338SOL     OW22912   0.464   3.021   0.562  0.3652 -0.6402  0.2455
 7338SOL    HW122913   0.469   2.924   0.537 -0.0282 -0.1418 -2.0517
 7338SOL    HW222914   0.522   3.074   0.500 -1.8961  0.8920 -0.7029
 7339SOL     OW22915   0.895   6.871   4.854  0.1519  0.5918  0.4949
 7339SOL    HW122916   0.886   6.849   4.951 -0.3834  0.9186  0.5215
 7339SOL    HW222917   0.887   6.786   4.800  1.5168  0.2569  0.7830
 7340SOL     OW22918   2.327   5.674   6.092  0.0900 -0.7352  0.2770
 7340SOL    HW122919   2.296   5.643   6.002 -1.2279 -0.2769  0.5498
 7340SOL    HW222920   2.405   5.735   6.081 -0.4182 -0.2229 -0.6085
 7341SOL     OW22921   3.697   1.810   1.516  0.1239 -0.2564 -0.7460
 7341SOL    HW122922   3.632   1.745   1.555 -0.6303  0.0115 -1.5317
 7341SOL    HW222923   3.652   1.899   1.503  1.0584  0.3578  0.0388
 7342SOL     OW22924   1.194   0.129   0.117 -0.3614 -0.3563 -0.3305
 7342SOL    HW122925   1.227   0.221   0.095 -1.4742  0.6841  1.9548
 7342SOL    HW222926   1.271   0.071   0.144  0.3584 -0.1490 -1.8669
 7343SOL     OW22927   6.428   4.864   1.028  0.1073 -0.0701  0.4295
 7343SOL    HW122928   6.463   4.849   1.120 -3.6600 -0.1391  2.0610
 7343SOL    HW222929   6.398   4.776   0.989 -1.0828  0.3003  0.4611
 7344SOL     OW22930   2.745   2.600   5.800  0.3040  0.7058 -0.4765
 7344SOL    HW122931   2.838   2.633   5.789  0.1554  1.0854 -0.6045
 7344SOL    HW222932   2.682   2.678   5.810  0.0798  0.4418  0.2389
 7345SOL     OW22933   4.847   4.638   0.696  0.3147 -0.8993  0.2606
 7345SOL    HW122934   4.862   4.685   0.609 -0.9134 -0.7797  0.0929
 7345SOL    HW222935   4.834   4.540   0.679 -2.2840 -0.5882 -0.0256
 7346SOL     OW22936   4.548   6.051   1.595  0.4918 -0.4016  0.3447
 7346SOL    HW122937   4.547   6.150   1.612  1.1543 -0.4154  0.4639
 7346SOL    HW222938   4.464   6.011   1.632 -0.4539  0.3106 -0.9317
 7347SOL     OW22939   5.060   1.904   5.044  0.3745 -0.0170  0.4911
 7347SOL    HW122940   5.087   1.833   5.108  2.6353 -0.1940 -0.5748
 7347SOL    HW222941   5.057   1.867   4.951  3.7020  1.6119 -0.4174
 7348SOL     OW22942   1.519   6.941   6.502  0.1870  0.5899  0.6781
 7348SOL    HW122943   1.443   6.937   6.566 -0.5491  0.5960 -0.1812
 7348SOL    HW222944   1.604   6.955   6.553 -0.2798 -0.1532  1.7029
 7349SOL     OW22945   5.393   0.655   1.990  0.0462 -0.0180 -0.2325
 7349SOL    HW122946   5.424   0.591   1.920 -2.2482  0.8367 -2.1629
 7349SOL    HW222947   5.367   0.604   2.072 -0.3148 -1.4444 -1.1855
 7350SOL     OW22948   1.925   1.876   6.347  0.2348 -0.4433  0.3540
 7350SOL    HW122949   1.854   1.926   6.297  0.6907  1.2414  1.2868
 7350SOL    HW222950   1.902   1.779   6.350 -0.7790 -0.3112 -1.4215
 7351SOL     OW22951   2.207   5.317   5.657 -0.3787 -0.8473  0.6079
 7351SOL    HW122952   2.212   5.239   5.595 -0.7026 -1.5271  1.4058
 7351SOL    HW222953   2.112   5.350   5.662 -0.1291  0.0639 -0.2569
 7352SOL     OW22954   6.416   1.878   2.748  0.0221  1.0157 -0.2933
 7352SOL    HW122955   6.393   1.976   2.747 -0.9285  0.8031 -1.0678
 7352SOL    HW222956   6.449   1.851   2.657  0.6972  0.7045  0.0413
 7353SOL     OW22957   6.634   2.219   5.379  0.4815  0.6445 -0.7863
 7353SOL    HW122958   6.563   2.191   5.315 -0.5629  1.3639  0.0294
 7353SOL    HW222959   6.724   2.196   5.341 -0.0817  1.2680 -2.6042
 7354SOL     OW22960   1.046   6.887   2.521 -0.4343  0.1312 -0.2113
 7354SOL    HW122961   1.099   6.882   2.605 -1.0583 -2.4685  0.1076
 7354SOL    HW222962   0.953   6.919   2.542 -0.2794  0.5171 -0.1016
 7355SOL     OW22963   4.346   2.310   0.073 -0.1638 -0.5986  0.1817
 7355SOL    HW122964   4.265   2.298   0.130  0.2635 -1.4310  0.6286
 7355SOL    HW222965   4.321   2.298  -0.023 -0.2427 -2.8622  0.4277
 7356SOL     OW22966   3.402   3.601   6.609  0.9661  0.1756  0.3415
 7356SOL    HW122967   3.329   3.539   6.641  1.3788  0.2606  1.5165
 7356SOL    HW222968   3.486   3.582   6.660  1.3831  0.9992 -0.0243
 7357SOL     OW22969   4.657   0.172   2.360  0.1639 -0.9889  0.1366
 7357SOL    HW122970   4.748   0.171   2.319 -0.8534 -0.1553 -2.3345
 7357SOL    HW222971   4.660   0.219   2.448  2.1612 -1.2870  0.2635
 7358SOL     OW22972   5.549   0.746   1.629  0.2142 -0.4478  0.1167
 7358SOL    HW122973   5.542   0.764   1.531  1.5855 -3.4900 -0.6600
 7358SOL    HW222974   5.481   0.678   1.656 -0.3505  0.5812  1.3815
 7359SOL     OW22975   4.858   5.524   0.943 -0.2150 -0.2618  0.2112
 7359SOL    HW122976   4.765   5.489   0.933  0.0745 -0.8823 -0.3688
 7359SOL    HW222977   4.874   5.550   1.039 -0.3387 -2.0193  0.7462
 7360SOL     OW22978   1.817   3.953   5.373 -0.6412  0.3376  0.3593
 7360SOL    HW122979   1.806   3.926   5.469 -0.0694  1.3609  0.7305
 7360SOL    HW222980   1.798   3.874   5.314 -2.0115 -0.0394  1.2549
 7361SOL     OW22981   5.847   0.827   2.561  0.1420  0.0147 -0.1995
 7361SOL    HW122982   5.863   0.786   2.651 -0.6773 -1.3473 -0.6562
 7361SOL    HW222983   5.826   0.756   2.494 -0.9758  1.1465 -1.1073
 7362SOL     OW22984   3.616   6.878   0.773 -0.1007  0.5650 -0.0547
 7362SOL    HW122985   3.696   6.874   0.832 -0.7900  0.2058  0.8776
 7362SOL    HW222986   3.560   6.958   0.798 -1.1515 -0.4038  0.7985
 7363SOL     OW22987   4.995   6.287   6.443 -0.0979  0.4019 -0.4037
 7363SOL    HW122988   4.911   6.340   6.437 -1.0879 -0.7827  1.7824
 7363SOL    HW222989   4.984   6.201   6.393  0.5412  1.0441 -1.6990
 7364SOL     OW22990   0.193   6.871   2.281  0.5074  0.1138  0.3368
 7364SOL    HW122991   0.138   6.952   2.257  1.4335  0.4932 -0.5668
 7364SOL    HW222992   0.153   6.827   2.361 -2.2757 -0.7323 -1.3528
 7365SOL     OW22993   5.596   4.391   2.639 -0.5128  0.1176  0.9330
 7365SOL    HW122994   5.688   4.399   2.601 -0.3800 -1.4043  0.8408
 7365SOL    HW222995   5.573   4.474   2.690  1.0517  0.3853  1.2602
 7366SOL     OW22996   1.870   5.454   1.370  0.4601 -0.3508 -0.5443
 7366SOL    HW122997   1.909   5.400   1.444  0.6200  1.7626  1.0126
 7366SOL    HW222998   1.912   5.428   1.284  2.2590 -1.0108  0.4863
 7367SOL     OW22999   5.760   1.927   0.193  0.6210 -0.4874  0.2784
 7367SOL    HW123000   5.813   1.874   0.259  2.4209  2.5647  1.5161
 7367SOL    HW223001   5.777   2.025   0.207 -1.9896  0.4945 -2.2317
 7368SOL     OW23002   3.634   3.615   3.765  0.2532  0.7170 -0.8286
 7368SOL    HW123003   3.658   3.520   3.746  1.6573  1.3800 -2.6450
 7368SOL    HW223004   3.648   3.635   3.862 -0.6598 -1.0595 -0.2948
 7369SOL     OW23005   5.208   5.220   5.945  0.0421 -0.1910  0.7111
 7369SOL    HW123006   5.300   5.199   5.910 -0.2964 -0.1429 -0.2536
 7369SOL    HW223007   5.161   5.135   5.968 -1.3297 -0.6997 -3.1950
 7370SOL     OW23008   2.123   0.358   3.372  0.4809 -0.0383 -0.0954
 7370SOL    HW123009   2.116   0.341   3.470  0.6859 -2.0042 -0.3752
 7370SOL    HW223010   2.032   0.363   3.332  0.4007  0.2554  0.1279
 7371SOL     OW23011   3.930   0.304   2.564  0.2363 -0.1873  0.2535
 7371SOL    HW123012   3.919   0.403   2.563 -0.0263 -0.2199 -0.1834
 7371SOL    HW223013   3.840   0.260   2.563  0.3444 -0.4321  0.6844
 7372SOL     OW23014   2.896   2.048   6.697 -0.4870 -0.3195 -0.8479
 7372SOL    HW123015   2.971   2.026   6.760  0.4470  0.9977 -1.4750
 7372SOL    HW223016   2.809   2.041   6.746  0.2579  1.2564  0.7792
 7373SOL     OW23017   5.926   2.542   5.364  0.3447  0.3810 -0.0375
 7373SOL    HW123018   5.911   2.572   5.270  0.8523  2.4385  0.4944
 7373SOL    HW223019   6.018   2.505   5.373 -0.0603 -0.8138 -0.5512
 7374SOL     OW23020   5.844   3.221   6.481 -0.1705 -0.1983 -0.4583
 7374SOL    HW123021   5.768   3.243   6.541 -1.4642 -0.6168 -1.8656
 7374SOL    HW223022   5.881   3.304   6.440 -1.4645 -0.1433 -1.5835
 7375SOL     OW23023   2.643   1.575   2.376  0.7014  0.1003 -0.6621
 7375SOL    HW123024   2.644   1.547   2.472 -1.6831  0.9515 -0.3242
 7375SOL    HW223025   2.642   1.494   2.317 -0.3524 -0.4727  0.1217
 7376SOL     OW23026   6.266   4.542   0.109 -0.2592  0.4942  0.0944
 7376SOL    HW123027   6.345   4.484   0.123 -0.8863 -0.2626  0.5903
 7376SOL    HW223028   6.182   4.489   0.125 -0.8602  1.3145 -0.2542
 7377SOL     OW23029   1.849   5.616   1.603 -0.4799  0.0551 -0.7498
 7377SOL    HW123030   1.938   5.661   1.610 -0.9488  1.0451 -1.0098
 7377SOL    HW223031   1.838   5.577   1.511 -0.2322 -0.2640 -0.6464
 7378SOL     OW23032   2.395   6.057   3.619  0.1068 -0.1565 -0.1011
 7378SOL    HW123033   2.443   6.145   3.624 -0.8778  0.3328  2.1600
 7378SOL    HW223034   2.367   6.039   3.525  2.5753  0.6658 -1.0867
 7379SOL     OW23035   6.110   2.999   1.865 -0.6580 -0.1480 -0.3732
 7379SOL    HW123036   6.138   3.084   1.821 -0.5410 -0.4514 -0.8835
 7379SOL    HW223037   6.061   2.942   1.800 -2.1566  0.2093  0.3989
 7380SOL     OW23038   5.759   2.171   6.789 -0.1155  0.4386  0.1817
 7380SOL    HW123039   5.719   2.124   6.710  0.1752 -1.0597  0.8896
 7380SOL    HW223040   5.846   2.212   6.763  0.4472 -0.8563 -0.0864
 7381SOL     OW23041   2.600   6.627   0.491 -0.4695 -0.1566 -0.4226
 7381SOL    HW123042   2.664   6.617   0.567  0.5124 -0.3911 -1.2675
 7381SOL    HW223043   2.507   6.639   0.527 -0.0886 -0.7596  0.7941
 7382SOL     OW23044   1.917   2.998   0.775  0.4385 -0.0187  0.2355
 7382SOL    HW123045   1.951   3.088   0.803  0.8702 -0.0215 -0.2716
 7382SOL    HW223046   1.969   2.966   0.696 -0.1783 -0.4062 -0.0140
 7383SOL     OW23047   5.434   6.623   2.763  0.2183 -0.3291 -0.7773
 7383SOL    HW123048   5.490   6.640   2.682  0.2736  2.7412 -0.2074
 7383SOL    HW223049   5.339   6.648   2.744  0.1917  0.2272  0.0158
 7384SOL     OW23050   6.715   0.286   5.901  0.3911 -0.3887 -0.5364
 7384SOL    HW123051   6.755   0.203   5.940 -0.0596 -1.3583 -2.0360
 7384SOL    HW223052   6.634   0.261   5.848 -0.0085  1.0769 -0.6378
 7385SOL     OW23053   0.249   5.326   3.980  0.4741 -0.1524  0.1801
 7385SOL    HW123054   0.186   5.339   4.057 -0.0334 -0.4682 -0.1820
 7385SOL    HW223055   0.342   5.351   4.009  0.1927  0.2782  0.7243
 7386SOL     OW23056   0.858   4.992   1.429 -0.2090  0.0600  0.4779
 7386SOL    HW123057   0.870   4.900   1.466  0.4189 -0.8666 -1.8482
 7386SOL    HW223058   0.932   5.051   1.461 -0.1461 -0.4569  1.3159
 7387SOL     OW23059   6.670   4.622   3.642  0.2052 -0.1667 -0.4554
 7387SOL    HW123060   6.752   4.600   3.694 -0.8226  0.0712  1.3451
 7387SOL    HW223061   6.671   4.573   3.555  2.3763  0.0702 -0.6006
 7388SOL     OW23062   1.590   3.935   3.086 -0.4021  0.1933 -0.0763
 7388SOL    HW123063   1.567   4.022   3.042  0.7721  1.0521  0.9405
 7388SOL    HW223064   1.683   3.939   3.122 -0.1595 -1.6586 -0.3836
 7389SOL     OW23065   5.921   1.365   1.509  0.5417 -0.0902  0.5019
 7389SOL    HW123066   6.020   1.376   1.519  0.3052  1.3262  1.7639
 7389SOL    HW223067   5.893   1.276   1.545  1.2836 -0.2448  0.7133
 7390SOL     OW23068   6.027   2.847   3.601 -0.1773  0.2030 -0.1239
 7390SOL    HW123069   6.082   2.894   3.532  0.7017  0.1575  0.5249
 7390SOL    HW223070   5.931   2.871   3.589  0.1952  1.8602 -0.0677
 7391SOL     OW23071   3.173   2.997   2.967 -0.1750  0.1313 -0.0956
 7391SOL    HW123072   3.189   3.035   3.058 -0.2187  0.0090 -0.0378
 7391SOL    HW223073   3.261   2.985   2.920 -0.1357 -0.0465  0.0255
 7392SOL     OW23074   3.519   6.302   0.974  0.6917  0.0667 -0.1271
 7392SOL    HW123075   3.422   6.278   0.970  0.4625  0.6867  1.1774
 7392SOL    HW223076   3.568   6.233   1.027  1.0495 -0.4615 -1.1269
 7393SOL     OW23077   7.019   4.093   3.322  0.3914  0.2011 -0.6995
 7393SOL    HW123078   7.000   4.179   3.275  1.3085  0.5548 -0.4415
 7393SOL    HW223079   6.932   4.051   3.350 -0.1050  0.5612 -1.6601
 7394SOL     OW23080   0.915   2.335   5.966 -0.6073  0.4822  0.4918
 7394SOL    HW123081   0.839   2.299   6.021  0.8686 -1.1712  1.5460
 7394SOL    HW223082   0.895   2.322   5.869 -1.5587 -0.1558  0.7558
 7395SOL     OW23083   2.500   6.024   0.800  0.4548  0.1293 -0.3922
 7395SOL    HW123084   2.542   6.076   0.725 -0.2297  1.5594  0.1759
 7395SOL    HW223085   2.435   6.083   0.848 -1.5819 -1.7347 -0.7053
 7396SOL     OW23086   7.000   5.886   2.633 -0.1763  0.1496 -0.4941
 7396SOL    HW123087   7.034   5.943   2.708 -0.7087 -1.8908  1.4187
 7396SOL    HW223088   6.900   5.886   2.634 -0.1821 -0.3115 -0.8724
 7397SOL     OW23089   0.243   3.598   5.454 -0.0254 -0.4309  0.0705
 7397SOL    HW123090   0.327   3.636   5.493 -0.1740 -0.2354  0.1973
 7397SOL    HW223091   0.175   3.671   5.443 -0.5882 -0.7996  1.0345
 7398SOL     OW23092   2.712   4.634   3.042 -0.0126 -0.0936  0.0047
 7398SOL    HW123093   2.761   4.721   3.040 -1.3733  0.7103 -0.1485
 7398SOL    HW223094   2.696   4.603   2.948 -0.7173  0.2138  0.0139
 7399SOL     OW23095   5.416   1.027   6.180  0.0442  0.3930 -0.6377
 7399SOL    HW123096   5.477   1.075   6.117 -0.4626 -0.4383 -1.8078
 7399SOL    HW223097   5.339   0.989   6.128 -0.6433  0.0899  0.5754
 7400SOL     OW23098   3.801   3.333   4.863  0.5914  0.4114  0.4851
 7400SOL    HW123099   3.802   3.389   4.781 -0.6124 -0.7503 -0.3585
 7400SOL    HW223100   3.892   3.294   4.878  0.9292  0.9887 -0.0315
 7401SOL     OW23101   1.233   1.991   5.261  0.5504 -0.4819  0.2382
 7401SOL    HW123102   1.146   2.029   5.228 -0.9501 -3.0185  0.9445
 7401SOL    HW223103   1.307   2.018   5.199 -0.2762  3.4276  0.7023
 7402SOL     OW23104   3.845   5.310   4.551  0.7233  0.1500 -0.2628
 7402SOL    HW123105   3.792   5.383   4.596  0.8502  0.5881 -0.8153
 7402SOL    HW223106   3.942   5.320   4.574  0.8654  0.7040 -1.0514
 7403SOL     OW23107   2.223   5.273   5.237 -0.2326  0.5662 -0.0769
 7403SOL    HW123108   2.235   5.341   5.164 -0.1508 -0.7884 -1.3735
 7403SOL    HW223109   2.126   5.270   5.263 -0.0256  2.2037  1.0788
 7404SOL     OW23110   1.067   3.372   0.744  0.0312 -0.6421  0.5663
 7404SOL    HW123111   0.983   3.377   0.797 -0.8279 -1.0274 -0.7054
 7404SOL    HW223112   1.084   3.460   0.700 -0.7455 -1.0790 -0.6634
 7405SOL     OW23113   2.694   6.523   5.002  0.2448 -0.0216 -0.1381
 7405SOL    HW123114   2.765   6.462   4.966  1.6992 -0.1614  2.6624
 7405SOL    HW223115   2.724   6.618   4.995  0.3517 -0.0225  0.2527
 7406SOL     OW23116   2.836   4.869   4.917 -0.2488  0.1180  0.0354
 7406SOL    HW123117   2.823   4.774   4.946  0.3811 -0.2044 -0.6980
 7406SOL    HW223118   2.933   4.885   4.897 -0.5777  0.4294 -1.4473
 7407SOL     OW23119   1.448   6.959   3.713  0.1017  0.2214 -0.2056
 7407SOL    HW123120   1.461   6.901   3.793  0.7564  1.5512  0.6853
 7407SOL    HW223121   1.350   6.968   3.694 -0.0353 -0.5198  0.1155
 7408SOL     OW23122   2.935   5.020   0.205  0.1820  0.2281  0.2701
 7408SOL    HW123123   3.024   5.023   0.250  0.5848 -0.1337 -0.4925
 7408SOL    HW223124   2.927   5.096   0.141  0.6021 -0.6378 -0.8534
 7409SOL     OW23125   6.207   4.877   0.636 -0.1094  0.4958 -0.4135
 7409SOL    HW123126   6.237   4.899   0.729  1.4829 -0.9066 -0.5401
 7409SOL    HW223127   6.108   4.874   0.632 -0.1960  0.4003  1.2778
 7410SOL     OW23128   1.517   0.882   0.652 -0.3701 -0.2072  0.3495
 7410SOL    HW123129   1.453   0.832   0.711 -0.4353 -1.0897 -0.4415
 7410SOL    HW223130   1.477   0.893   0.561  0.3560 -0.2412  0.0199
 7411SOL     OW23131   4.617   2.276   6.869 -0.3124  0.3952  0.0617
 7411SOL    HW123132   4.532   2.270   6.817 -0.8743  0.9268  0.8833
 7411SOL    HW223133   4.645   2.372   6.877 -0.6208  0.3979  1.3110
 7412SOL     OW23134   3.931   6.784   6.586  0.5098  0.2128 -0.4841
 7412SOL    HW123135   3.972   6.706   6.634 -1.7687 -0.0219  1.2787
 7412SOL    HW223136   3.962   6.869   6.628 -2.1132  0.0018  2.2805
 7413SOL     OW23137   5.396   1.038   2.593  0.1073 -0.6255  0.6756
 7413SOL    HW123138   5.454   0.957   2.599 -0.6402 -1.0683  2.5290
 7413SOL    HW223139   5.327   1.024   2.522  1.6660 -0.4270 -0.9722
 7414SOL     OW23140   2.282   1.249   6.144  0.2819 -0.5356  0.6854
 7414SOL    HW123141   2.224   1.182   6.099 -0.2830 -0.1355  0.8139
 7414SOL    HW223142   2.266   1.339   6.104  3.0461 -0.8587 -1.4776
 7415SOL     OW23143   3.226   1.785   5.845  0.2154  0.0916  0.3239
 7415SOL    HW123144   3.179   1.820   5.926 -0.7736  2.2025 -1.0790
 7415SOL    HW223145   3.212   1.847   5.768  3.5712 -0.2753 -0.7573
 7416SOL     OW23146   6.480   5.848   2.611 -0.5360  0.3957 -0.0206
 7416SOL    HW123147   6.531   5.776   2.563 -1.5171 -0.0019 -0.4871
 7416SOL    HW223148   6.539   5.889   2.681  0.1756 -0.5584 -0.0361
 7417SOL     OW23149   0.475   6.284   2.895 -0.1366  0.3120  0.1412
 7417SOL    HW123150   0.390   6.278   2.842 -0.0474  0.9723 -0.0741
 7417SOL    HW223151   0.488   6.198   2.944 -0.8135  0.1165 -0.0009
 7418SOL     OW23152   2.974   1.549   5.795 -0.0525 -0.3338  0.9284
 7418SOL    HW123153   3.037   1.504   5.857  0.7727 -0.5825 -0.0587
 7418SOL    HW223154   3.022   1.623   5.747 -0.6879 -0.0982  0.6466
 7419SOL     OW23155   6.011   1.943   5.540  0.2235  0.0992  0.4675
 7419SOL    HW123156   6.043   1.848   5.547  1.9107  0.6003 -0.0972
 7419SOL    HW223157   6.052   1.998   5.613  1.2295  0.9060 -0.6792
 7420SOL     OW23158   4.512   6.893   6.870 -0.3037  0.0374  0.0697
 7420SOL    HW123159   4.607   6.866   6.855 -0.9617 -1.4608 -1.8268
 7420SOL    HW223160   4.503   6.992   6.860  1.0096  0.1623  0.0109
 7421SOL     OW23161   5.717   4.451   0.236 -0.6165  0.7644  0.5652
 7421SOL    HW123162   5.638   4.436   0.296 -0.5100  0.9778  0.7557
 7421SOL    HW223163   5.716   4.545   0.202  0.1092  1.0631  1.3600
 7422SOL     OW23164   6.909   4.072   4.299  0.5106 -0.1560 -0.7395
 7422SOL    HW123165   6.858   3.999   4.344 -0.5872 -0.0737 -1.8185
 7422SOL    HW223166   7.005   4.044   4.290  0.8347 -0.0733  1.8233
 7423SOL     OW23167   4.571   1.372   6.277 -0.7483 -0.4003  0.1705
 7423SOL    HW123168   4.567   1.275   6.254  0.5824 -0.1988 -1.0682
 7423SOL    HW223169   4.519   1.389   6.360 -1.8425 -1.9938 -0.1510
 7424SOL     OW23170   2.021   1.227   5.803 -0.2361  0.4333  0.4093
 7424SOL    HW123171   2.010   1.277   5.717 -0.9343  3.9245  2.3068
 7424SOL    HW223172   1.972   1.141   5.799 -0.8956  0.8512 -2.3772
 7425SOL     OW23173   4.617   0.918   2.218  0.0894 -0.0778  0.4056
 7425SOL    HW123174   4.566   0.856   2.158  0.9060 -0.5812  0.2237
 7425SOL    HW223175   4.599   1.012   2.190  1.4836 -0.3248 -1.5109
 7426SOL     OW23176   3.117   4.221   6.497  0.0113 -0.0951 -0.3599
 7426SOL    HW123177   3.175   4.287   6.449  0.7605 -1.0243 -0.7750
 7426SOL    HW223178   3.174   4.166   6.558 -0.9790  1.4127  2.0776
 7427SOL     OW23179   2.830   6.518   2.672  0.4140  0.1541  0.2394
 7427SOL    HW123180   2.861   6.600   2.720  0.4735  1.0483 -1.2599
 7427SOL    HW223181   2.909   6.463   2.645  0.5753  0.9609 -1.0344
 7428SOL     OW23182   1.640   6.543   5.540  0.1702 -0.1643 -0.0953
 7428SOL    HW123183   1.556   6.528   5.593  0.4170 -0.5999  0.1816
 7428SOL    HW223184   1.699   6.608   5.588  0.5625 -0.8493  0.3632
 7429SOL     OW23185   0.099   0.145   1.898  0.3190  0.4169 -0.3640
 7429SOL    HW123186   0.043   0.179   1.822  0.5257 -0.3680 -0.8864
 7429SOL    HW223187   0.039   0.110   1.970  0.1280  0.0847 -0.6800
 7430SOL     OW23188   5.345   4.099   4.251  0.4566  0.3823 -0.0421
 7430SOL    HW123189   5.246   4.095   4.237  0.5314 -0.2116 -0.4522
 7430SOL    HW223190   5.378   4.192   4.230 -0.5630  1.9082  4.1799
 7431SOL     OW23191   1.029   2.736   3.929 -0.9396 -0.4621  0.1179
 7431SOL    HW123192   0.963   2.740   3.854 -1.2304 -0.4429  0.3747
 7431SOL    HW223193   1.073   2.826   3.939 -0.5570 -0.5925 -0.3325
 7432SOL     OW23194   2.523   1.149   4.173  0.5772 -0.2104  0.0270
 7432SOL    HW123195   2.526   1.207   4.092 -0.0935  0.3712  0.4161
 7432SOL    HW223196   2.598   1.173   4.234 -0.0544  0.6705  0.4696
 7433SOL     OW23197   3.080   6.742   4.844  0.1083 -0.1932 -0.4315
 7433SOL    HW123198   2.993   6.733   4.893 -0.2311  0.8874 -0.8198
 7433SOL    HW223199   3.137   6.811   4.889  1.7159 -2.3965  1.1330
 7434SOL     OW23200   3.867   0.161   2.999 -0.0138  0.2252  0.0432
 7434SOL    HW123201   3.960   0.134   3.025 -0.7983 -1.4436  1.2906
 7434SOL    HW223202   3.819   0.081   2.962 -1.2777  0.8029  0.3995
 7435SOL     OW23203   3.862   4.833   1.520 -0.2608  0.4484  0.2594
 7435SOL    HW123204   3.887   4.922   1.558  0.2330  1.5270 -2.3343
 7435SOL    HW223205   3.849   4.767   1.594  2.9627  1.7259  2.1843
 7436SOL     OW23206   3.895   4.303   6.267  0.2449  0.5553 -0.0200
 7436SOL    HW123207   3.872   4.393   6.230  0.4039 -0.0592 -1.6757
 7436SOL    HW223208   3.994   4.288   6.256 -0.1315 -0.8034 -2.1229
 7437SOL     OW23209   3.570   6.932   3.142  0.1053 -0.0291 -0.4315
 7437SOL    HW123210   3.554   6.967   3.049  2.3717  0.6598 -0.6485
 7437SOL    HW223211   3.484   6.929   3.193 -1.0352  0.4965 -2.2363
 7438SOL     OW23212   0.219   2.263   6.745 -0.0381 -0.2162  0.0854
 7438SOL    HW123213   0.255   2.286   6.655 -3.8866 -0.0482 -1.6328
 7438SOL    HW223214   0.215   2.344   6.803 -1.2346  0.6410 -1.1348
 7439SOL     OW23215   6.657   3.475   5.740  0.4713 -1.0956 -0.2003
 7439SOL    HW123216   6.558   3.474   5.733  0.2885  0.6465  1.3143
 7439SOL    HW223217   6.686   3.417   5.816  0.6505 -1.8766 -0.8578
 7440SOL     OW23218   5.239   3.447   4.967 -0.3380 -0.7877  0.3707
 7440SOL    HW123219   5.183   3.529   4.978 -2.6760 -2.1498 -0.6068
 7440SOL    HW223220   5.181   3.366   4.975  1.8807 -2.3686  1.2097
 7441SOL     OW23221   4.546   1.937   5.959 -0.1445  0.0485 -0.3716
 7441SOL    HW123222   4.583   2.027   5.937 -0.6748  0.2695 -0.3854
 7441SOL    HW223223   4.619   1.879   5.995 -0.0149  0.8517  0.7374
 7442SOL     OW23224   6.790   0.666   4.848 -0.2953  0.2191 -1.0531
 7442SOL    HW123225   6.721   0.624   4.789 -1.6931 -0.0303  0.6857
 7442SOL    HW223226   6.772   0.765   4.853  0.6235  0.4554 -2.0427
 7443SOL     OW23227   0.455   1.678   0.933  0.3176 -0.0100  0.2659
 7443SOL    HW123228   0.448   1.683   0.834  0.0868  0.6566  0.3086
 7443SOL    HW223229   0.455   1.582   0.962 -1.3820 -0.1964 -0.2566
 7444SOL     OW23230   1.757   6.265   6.680  0.1357  0.1072  0.2895
 7444SOL    HW123231   1.703   6.198   6.731 -0.9654  0.0586 -0.8819
 7444SOL    HW223232   1.767   6.235   6.585 -0.0361  1.3867 -0.1572
 7445SOL     OW23233   3.248   5.119   1.934  0.6546  0.6138 -0.2482
 7445SOL    HW123234   3.258   5.021   1.949  0.9599  0.7053  0.1654
 7445SOL    HW223235   3.296   5.145   1.850 -1.3920  0.0350 -1.6788
 7446SOL     OW23236   5.631   4.418   6.418  0.3737  0.3970 -0.5643
 7446SOL    HW123237   5.711   4.446   6.365 -0.6058  0.5462 -2.0052
 7446SOL    HW223238   5.548   4.435   6.365 -0.5169 -1.4530  0.1579
 7447SOL     OW23239   6.798   3.522   2.003 -0.6256  0.4243 -0.4346
 7447SOL    HW123240   6.764   3.429   1.991  0.0041  0.1989 -0.5348
 7447SOL    HW223241   6.856   3.526   2.085  1.5633  0.0585 -1.8853
 7448SOL     OW23242   6.152   6.120   0.207  0.2717  0.1892 -0.2052
 7448SOL    HW123243   6.124   6.060   0.282 -1.2474  0.8846 -0.1721
 7448SOL    HW223244   6.071   6.146   0.153  0.9924  1.6089 -0.6618
 7449SOL     OW23245   0.166   4.914   0.119  0.3925  0.6455 -0.3266
 7449SOL    HW123246   0.245   4.871   0.162  0.1258  0.7766  0.3010
 7449SOL    HW223247   0.082   4.867   0.147  0.2100  0.7743 -0.6465
 7450SOL     OW23248   5.050   5.005   6.866  0.6851 -0.5804 -0.1303
 7450SOL    HW123249   5.096   5.000   6.955  1.4541 -2.0193 -0.5777
 7450SOL    HW223250   5.108   5.056   6.802 -0.4285  1.5717  0.4720
 7451SOL     OW23251   5.508   0.009   2.014  0.6235 -0.2843 -0.1315
 7451SOL    HW123252   5.530   0.083   2.078  0.5729 -3.5492  4.1044
 7451SOL    HW223253   5.414   0.021   1.981  1.0046  2.0684 -0.5337
 7452SOL     OW23254   0.529   1.076   7.016  0.5615  0.6587  0.3191
 7452SOL    HW123255   0.515   1.125   7.102 -1.1248 -0.8679  0.9589
 7452SOL    HW223256   0.453   1.093   6.954  0.1586 -0.7680  0.3857
 7453SOL     OW23257   4.345   6.198   6.401  0.4217  0.1491  0.2793
 7453SOL    HW123258   4.298   6.110   6.392 -0.1236  0.4770 -0.1592
 7453SOL    HW223259   4.395   6.200   6.487 -0.4504 -0.1789  0.8045
 7454SOL     OW23260   3.740   2.299   0.045  0.5948  0.0790 -0.2450
 7454SOL    HW123261   3.836   2.290   0.018  1.4819  2.3396  1.7675
 7454SOL    HW223262   3.694   2.362  -0.019  0.8667  0.1722 -0.3521
 7455SOL     OW23263   0.183   0.120   3.259  0.0065 -0.1901 -0.4956
 7455SOL    HW123264   0.165   0.183   3.183  0.7688 -1.6770 -1.9560
 7455SOL    HW223265   0.096   0.085   3.294 -0.3255 -0.2583 -1.3651
 7456SOL     OW23266   3.622   0.223   5.936  0.1428  0.0312 -0.0193
 7456SOL    HW123267   3.654   0.224   5.842  2.0963  0.7099  0.6047
 7456SOL    HW223268   3.527   0.255   5.939  0.4881  1.3483 -1.6048
 7457SOL     OW23269   2.706   0.284   2.999  0.2304 -0.4570 -0.1524
 7457SOL    HW123270   2.768   0.211   3.023  3.3780  2.2387  0.6342
 7457SOL    HW223271   2.669   0.268   2.907  4.2587 -1.0211 -1.8894
 7458SOL     OW23272   0.158   6.681   4.206  0.0171 -0.0156 -0.2992
 7458SOL    HW123273   0.180   6.748   4.277 -1.6716 -0.4190  0.6594
 7458SOL    HW223274   0.203   6.707   4.120  1.2566  1.0499  0.6395
 7459SOL     OW23275   5.621   1.597   2.007  0.2197 -0.8083 -0.6021
 7459SOL    HW123276   5.648   1.528   2.074  0.4108 -1.6218 -1.5037
 7459SOL    HW223277   5.698   1.619   1.948  0.6075  1.2936  0.5838
 7460SOL     OW23278   1.165   1.854   1.629  0.1414 -0.0306  0.1611
 7460SOL    HW123279   1.140   1.924   1.563  0.0861  0.0219  0.2378
 7460SOL    HW223280   1.203   1.897   1.711  2.3935 -0.1588 -0.7257
 7461SOL     OW23281   3.308   4.327   5.797  0.0978  0.4402  0.6106
 7461SOL    HW123282   3.234   4.324   5.731  2.6117 -0.7087 -2.4070
 7461SOL    HW223283   3.303   4.247   5.858 -1.8218  1.1155  1.4101
 7462SOL     OW23284   3.335   4.460   6.738 -0.7164 -0.0503  0.2426
 7462SOL    HW123285   3.328   4.436   6.641  1.3849  1.3109 -0.3107
 7462SOL    HW223286   3.364   4.380   6.790 -1.7745 -0.7689 -0.2190
 7463SOL     OW23287   5.341   5.734   0.720  0.7066  0.0644 -0.4980
 7463SOL    HW123288   5.298   5.707   0.806  0.4627  1.6573 -0.0824
 7463SOL    HW223289   5.440   5.745   0.734  0.7543 -0.2350 -0.5810
 7464SOL     OW23290   6.710   5.360   5.001  0.1070  0.3050 -0.3676
 7464SOL    HW123291   6.734   5.402   5.089  0.0149 -1.1646  0.3809
 7464SOL    HW223292   6.779   5.293   4.976 -0.2055  0.2483 -1.1025
 7465SOL     OW23293   2.450   4.926   6.801 -0.2520 -0.3812  0.4738
 7465SOL    HW123294   2.546   4.908   6.821 -0.3709 -1.1474  0.3692
 7465SOL    HW223295   2.431   5.024   6.814  0.0884 -0.5386  2.3870
 7466SOL     OW23296   1.771   0.880   5.864 -0.2621 -0.2170  0.0393
 7466SOL    HW123297   1.816   0.904   5.950  0.5930  0.2433 -0.5199
 7466SOL    HW223298   1.836   0.832   5.804 -0.2689  1.0724 -1.0636
 7467SOL     OW23299   0.324   4.241   3.355  0.0834  0.2697  0.6589
 7467SOL    HW123300   0.279   4.171   3.411  0.7757  0.3701  1.3708
 7467SOL    HW223301   0.413   4.262   3.395  0.3341  0.7898 -0.1594
 7468SOL     OW23302   5.296   3.792   6.301 -0.1166 -0.6131 -0.5615
 7468SOL    HW123303   5.359   3.868   6.316 -0.8116 -0.0661 -0.3349
 7468SOL    HW223304   5.339   3.706   6.328 -0.0935 -0.0460  1.3148
 7469SOL     OW23305   5.051   2.431   6.582 -0.2276 -0.2180  0.1911
 7469SOL    HW123306   4.970   2.451   6.638 -0.3024  0.4391 -0.1450
 7469SOL    HW223307   5.091   2.344   6.611  0.0074  0.3326  1.5907
 7470SOL     OW23308   4.392   1.963   3.568 -0.8128  0.4408 -0.1841
 7470SOL    HW123309   4.422   1.968   3.664  2.6397 -2.6999 -0.8772
 7470SOL    HW223310   4.456   2.015   3.511 -0.3323 -1.1706 -1.1562
 7471SOL     OW23311   6.835   0.325   1.071  0.6902  0.0466 -0.1390
 7471SOL    HW123312   6.828   0.348   0.974 -1.0541 -0.2274 -0.1165
 7471SOL    HW223313   6.801   0.402   1.126  0.3948 -0.3164  0.1906
 7472SOL     OW23314   0.348   0.845   4.094  0.0244 -0.5744 -0.1714
 7472SOL    HW123315   0.339   0.746   4.106  0.4317 -0.4794  1.0090
 7472SOL    HW223316   0.266   0.890   4.130  0.5475 -0.3911  0.8344
 7473SOL     OW23317   4.186   0.465   2.253 -0.2595  0.0869 -0.2524
 7473SOL    HW123318   4.227   0.517   2.178  1.5346 -1.4100 -0.3875
 7473SOL    HW223319   4.102   0.422   2.222 -0.5925  1.1052 -0.7878
 7474SOL     OW23320   5.016   2.934   1.958 -0.6522  0.7755 -1.1798
 7474SOL    HW123321   4.936   2.952   2.016  0.2007  1.1212 -0.0930
 7474SOL    HW223322   5.001   2.976   1.868 -2.3702 -0.5359 -1.5688
 7475SOL     OW23323   6.283   2.787   0.756 -0.5153 -0.3281  0.0963
 7475SOL    HW123324   6.193   2.770   0.716 -0.1751 -1.1434 -0.3403
 7475SOL    HW223325   6.346   2.714   0.729  0.6359  0.9022 -0.7128
 7476SOL     OW23326   1.884   7.004   2.455  0.0433 -0.0918  0.2032
 7476SOL    HW123327   1.918   6.911   2.453  1.2571  0.2079  2.8137
 7476SOL    HW223328   1.960   7.068   2.464 -0.8872  0.9549  1.0051
 7477SOL     OW23329   3.281   3.667   6.949  0.4227  0.0490 -0.3336
 7477SOL    HW123330   3.271   3.737   6.878  0.9422 -0.2692 -0.7250
 7477SOL    HW223331   3.348   3.599   6.920  2.5041  1.1892  1.4580
 7478SOL     OW23332   1.858   1.980   6.653 -0.5768  0.1689  0.5837
 7478SOL    HW123333   1.776   1.927   6.633  0.7338 -2.2431  1.3097
 7478SOL    HW223334   1.884   2.032   6.571 -2.5066  0.6115  0.1969
 7479SOL     OW23335   5.353   4.033   0.679  0.1176  0.3294  0.1326
 7479SOL    HW123336   5.381   3.984   0.595  1.5909  1.1685  0.1055
 7479SOL    HW223337   5.435   4.060   0.730 -0.7524 -1.0524  2.4059
 7480SOL     OW23338   4.956   5.859   2.823  0.3655  0.2039 -0.2228
 7480SOL    HW123339   4.973   5.761   2.833  1.2173  0.3189 -0.4272
 7480SOL    HW223340   4.997   5.892   2.738 -0.8077  0.5520 -0.6787
 7481SOL     OW23341   6.070   2.386   6.390  0.2250  0.3882 -0.1871
 7481SOL    HW123342   6.050   2.459   6.455  0.2523  1.2848 -1.1482
 7481SOL    HW223343   6.146   2.415   6.330  0.0373 -0.3057 -0.7707
 7482SOL     OW23344   3.488   2.985   4.687 -0.3335 -0.4586 -0.3637
 7482SOL    HW123345   3.529   3.075   4.702  1.0310 -1.1182  0.1277
 7482SOL    HW223346   3.561   2.918   4.670 -1.3989 -1.1759 -2.4795
 7483SOL     OW23347   5.017   2.175   4.347  0.0008 -0.1255 -0.1772
 7483SOL    HW123348   4.966   2.152   4.430  0.6677 -1.3674 -0.0768
 7483SOL    HW223349   4.971   2.135   4.268 -0.4470  0.7661 -0.3767
 7484SOL     OW23350   0.564   6.825   3.862 -0.4365 -0.7046 -0.0062
 7484SOL    HW123351   0.596   6.806   3.770  0.1283 -0.9111  0.2243
 7484SOL    HW223352   0.629   6.788   3.928 -0.6138 -0.1848  0.4719
 7485SOL     OW23353   0.145   0.587   5.536 -0.1122 -0.6258  0.3410
 7485SOL    HW123354   0.054   0.546   5.537 -0.2766 -0.4634 -1.9299
 7485SOL    HW223355   0.171   0.608   5.441  2.0283 -0.0803  0.9884
 7486SOL     OW23356   5.692   5.539   0.425 -0.4618  0.5578  0.2616
 7486SOL    HW123357   5.594   5.542   0.445 -0.7586 -0.9483 -0.7693
 7486SOL    HW223358   5.723   5.444   0.428  0.8442  0.9575 -0.0182
 7487SOL     OW23359   4.346   6.651   4.482 -0.1500  0.0096 -0.5038
 7487SOL    HW123360   4.301   6.617   4.399 -0.1037 -0.3483 -0.3831
 7487SOL    HW223361   4.325   6.591   4.559  0.0456  0.1778 -0.3180
 7488SOL     OW23362   4.867   0.898   3.864 -0.2620 -0.2434  0.1511
 7488SOL    HW123363   4.890   0.954   3.944  0.0545 -0.0938 -0.0417
 7488SOL    HW223364   4.896   0.945   3.781 -1.5824  0.1111 -0.1392
 7489SOL     OW23365   6.686   3.784   5.406 -0.0305 -0.3685  0.3100
 7489SOL    HW123366   6.667   3.690   5.379  1.9561 -0.8918  0.5349
 7489SOL    HW223367   6.689   3.790   5.506 -1.5759  0.2733  0.3382
 7490SOL     OW23368   1.194   2.554   0.446  0.0400 -0.1366 -0.2783
 7490SOL    HW123369   1.234   2.494   0.516 -0.9047  0.0300  0.4260
 7490SOL    HW223370   1.240   2.642   0.448 -0.1572 -0.0428  0.3265
 7491SOL     OW23371   4.744   4.207   5.780  0.4982  0.2575 -0.2189
 7491SOL    HW123372   4.733   4.115   5.819 -0.8571  0.0699 -0.9541
 7491SOL    HW223373   4.726   4.203   5.682  1.9966  1.0472 -0.5418
 7492SOL     OW23374   2.368   1.598   2.936  0.3414  0.0700 -0.5101
 7492SOL    HW123375   2.284   1.545   2.945  1.1581 -1.0861  0.6596
 7492SOL    HW223376   2.440   1.540   2.898  1.5673 -0.0939  1.8599
 7493SOL     OW23377   6.338   2.773   3.725 -0.0331 -0.3562 -0.2670
 7493SOL    HW123378   6.263   2.829   3.759 -1.2709 -1.9201 -0.2915
 7493SOL    HW223379   6.425   2.811   3.757 -0.9717 -0.1996  2.3862
 7494SOL     OW23380   2.853   1.111   2.117 -0.3625 -0.6984  0.2189
 7494SOL    HW123381   2.862   1.208   2.094  1.0270 -1.0032 -0.6410
 7494SOL    HW223382   2.841   1.101   2.216 -0.2107  0.3371  0.3522
 7495SOL     OW23383   1.995   3.265   4.378 -0.3223 -0.1094 -0.0633
 7495SOL    HW123384   1.973   3.362   4.384 -0.7734 -0.2918  1.9981
 7495SOL    HW223385   1.916   3.215   4.343 -0.7384  0.0590  0.6212
 7496SOL     OW23386   5.666   2.600   3.165 -0.0865  0.4996  0.0722
 7496SOL    HW123387   5.628   2.531   3.225 -1.8487  1.4813  0.1351
 7496SOL    HW223388   5.594   2.639   3.108  1.2212  0.8727 -1.4094
 7497SOL     OW23389   6.613   0.078   1.856 -0.1217  0.5011 -0.0257
 7497SOL    HW123390   6.607  -0.022   1.855 -1.0124  0.5491 -0.2548
 7497SOL    HW223391   6.661   0.108   1.773 -0.1256  0.2813 -0.1100
 7498SOL     OW23392   1.786   4.746   4.941 -0.1836 -0.4770 -0.2035
 7498SOL    HW123393   1.798   4.699   5.028  3.0506 -0.6475 -0.6245
 7498SOL    HW223394   1.778   4.680   4.867 -0.0733 -0.3721 -0.3121
 7499SOL     OW23395   3.533   1.247   0.653 -0.0257 -0.2541  0.5084
 7499SOL    HW123396   3.552   1.310   0.578 -0.3532  0.8376  1.3207
 7499SOL    HW223397   3.491   1.164   0.616 -1.9596  1.0417 -0.3731
 7500SOL     OW23398   2.831   1.911   6.984  0.1226  0.6509 -0.1361
 7500SOL    HW123399   2.873   1.980   7.043 -1.1549  0.8684  0.5600
 7500SOL    HW223400   2.759   1.953   6.929  0.1579  0.1077 -0.6080
 7501SOL     OW23401   6.447   0.935   4.025 -0.4881  0.3723 -0.0932
 7501SOL    HW123402   6.459   0.837   4.010 -2.2008  0.1116  0.0411
 7501SOL    HW223403   6.460   0.984   3.939 -2.0538 -0.2601 -0.7413
 7502SOL     OW23404   4.164   0.284   3.875  0.3528 -0.2544 -0.3137
 7502SOL    HW123405   4.167   0.383   3.862 -0.3447 -0.4964 -2.8254
 7502SOL    HW223406   4.257   0.248   3.881  0.6465  0.3991 -0.8096
 7503SOL     OW23407   2.291   5.357   0.785 -0.0526 -0.5793  0.5362
 7503SOL    HW123408   2.301   5.401   0.696 -0.3875 -1.2582  0.1561
 7503SOL    HW223409   2.362   5.287   0.796 -0.1062 -0.6035  0.7445
 7504SOL     OW23410   3.429   6.196   5.568  0.0236 -0.2717 -0.2165
 7504SOL    HW123411   3.526   6.215   5.582 -0.1205  0.2556  0.0932
 7504SOL    HW223412   3.417   6.149   5.481  0.6687 -1.3349  0.2553
 7505SOL     OW23413   0.695   0.573   4.194  0.2354  0.0020  0.1047
 7505SOL    HW123414   0.674   0.671   4.196  3.4654  0.8317  0.3297
 7505SOL    HW223415   0.680   0.534   4.285 -2.4560 -0.1455 -0.3267
 7506SOL     OW23416   2.618   2.724   5.370 -0.3930  0.0042  0.5911
 7506SOL    HW123417   2.701   2.726   5.426 -1.0640  1.2713  1.6029
 7506SOL    HW223418   2.600   2.631   5.339  0.4349 -0.5863  1.8338
 7507SOL     OW23419   6.645   3.720   6.554  1.1849 -0.2624 -0.4543
 7507SOL    HW123420   6.675   3.728   6.459  0.8150 -0.2250 -0.5729
 7507SOL    HW223421   6.577   3.792   6.573  0.1042 -1.2037 -0.6228
 7508SOL     OW23422   1.479   5.725   0.974  0.2074 -0.0105  0.0995
 7508SOL    HW123423   1.455   5.818   1.003  0.6469  0.6551 -1.5557
 7508SOL    HW223424   1.576   5.721   0.950 -0.1899 -0.3760 -1.6114
 7509SOL     OW23425   4.501   4.442   2.242 -0.2255  0.1180  0.7839
 7509SOL    HW123426   4.469   4.397   2.159 -1.8065  1.1852  0.7644
 7509SOL    HW223427   4.471   4.537   2.242  4.5827  1.9230 -0.0787
 7510SOL     OW23428   4.550   3.748   1.650  0.0035 -0.4471 -0.3266
 7510SOL    HW123429   4.489   3.827   1.656  0.7929  0.1055  0.8830
 7510SOL    HW223430   4.498   3.667   1.625 -1.2335 -0.0007  0.7002
 7511SOL     OW23431   5.256   0.562   4.394 -0.0308  0.2164 -0.2349
 7511SOL    HW123432   5.273   0.539   4.298  1.8469  1.5275 -0.2661
 7511SOL    HW223433   5.194   0.640   4.400 -0.0170  0.2375 -0.3717
 7512SOL     OW23434   2.573   4.516   1.115 -0.3981 -0.0732  0.0920
 7512SOL    HW123435   2.502   4.522   1.044  0.3373 -0.0628 -0.6556
 7512SOL    HW223436   2.655   4.475   1.076 -0.3717 -1.1835  1.2599
 7513SOL     OW23437   6.901   6.285   4.042 -0.3837  0.1820 -0.0922
 7513SOL    HW123438   6.944   6.358   4.095 -0.6347  0.7598 -0.6727
 7513SOL    HW223439   6.938   6.285   3.949  0.0133 -0.7881  0.0546
 7514SOL     OW23440   5.763   0.928   6.440  0.3542 -0.4144 -0.3725
 7514SOL    HW123441   5.816   0.846   6.462 -1.6269 -1.8253 -0.6008
 7514SOL    HW223442   5.666   0.907   6.444 -0.2345  2.1086  0.0989
 7515SOL     OW23443   4.894   5.132   4.230 -0.2540  0.0627 -0.2449
 7515SOL    HW123444   4.923   5.225   4.204 -1.7257  0.2546 -1.2799
 7515SOL    HW223445   4.796   5.132   4.247 -0.2544 -1.3099 -0.2164
 7516SOL     OW23446   2.425   6.636   4.338 -0.2459  0.3850  0.0042
 7516SOL    HW123447   2.353   6.689   4.295 -0.2090 -0.6907 -1.4366
 7516SOL    HW223448   2.497   6.616   4.271  0.1772 -0.6968  0.7457
 7517SOL     OW23449   5.454   3.639   6.992  0.0176 -0.0886 -0.1202
 7517SOL    HW123450   5.536   3.663   7.045 -0.3053 -1.5538  1.1064
 7517SOL    HW223451   5.375   3.689   7.030 -0.3569 -1.7210  1.3657
 7518SOL     OW23452   5.206   3.114   4.834  0.0820  0.1188  0.5110
 7518SOL    HW123453   5.119   3.141   4.877 -0.4336 -1.5348  0.5596
 7518SOL    HW223454   5.215   3.162   4.746 -0.2235  1.3224  1.1097
 7519SOL     OW23455   3.750   6.748   5.915 -0.0313  0.7641 -0.1792
 7519SOL    HW123456   3.822   6.783   5.856  0.5412 -0.2728 -0.1205
 7519SOL    HW223457   3.661   6.779   5.882  0.5049  4.1008  1.1324
 7520SOL     OW23458   1.779   5.847   1.767  0.0039 -0.4290 -0.1227
 7520SOL    HW123459   1.841   5.823   1.693 -2.2082  1.1135 -2.6580
 7520SOL    HW223460   1.703   5.782   1.770 -1.4088  1.0808 -1.2106
 7521SOL     OW23461   5.603   0.555   1.292  0.1596  0.0094  0.0767
 7521SOL    HW123462   5.638   0.530   1.382  0.6978 -0.4700 -0.2578
 7521SOL    HW223463   5.603   0.474   1.233 -0.0562  0.3496 -0.3977
 7522SOL     OW23464   0.989   5.370   4.063  0.2758  0.2241 -0.0649
 7522SOL    HW123465   1.085   5.396   4.052  0.1197  1.0094  0.3552
 7522SOL    HW223466   0.971   5.286   4.012  1.3376 -0.2828  0.3840
 7523SOL     OW23467   4.367   1.977   1.225  0.5077  0.5388  0.1108
 7523SOL    HW123468   4.280   2.025   1.220 -0.6701 -1.4154  0.8699
 7523SOL    HW223469   4.421   2.015   1.300 -0.8074  0.0758  1.3287
 7524SOL     OW23470   1.046   2.608   4.833  0.0934  0.7678 -0.3437
 7524SOL    HW123471   1.095   2.692   4.853 -0.0017  0.5222  1.0579
 7524SOL    HW223472   1.020   2.563   4.919 -1.6421  0.3415 -1.0376
 7525SOL     OW23473   1.657   6.205   6.395  0.1009  0.7779 -0.0816
 7525SOL    HW123474   1.610   6.117   6.387 -2.0844  2.0030 -1.5581
 7525SOL    HW223475   1.599   6.270   6.444  1.0072  1.8596 -0.3945
 7526SOL     OW23476   6.921   3.271   1.401  0.3066 -0.0477  0.5518
 7526SOL    HW123477   7.006   3.316   1.426  0.6524 -0.1941 -0.3574
 7526SOL    HW223478   6.853   3.340   1.373  1.3837 -0.1127 -2.5536
 7527SOL     OW23479   3.844   5.899   2.744  0.2594  0.3367  0.0376
 7527SOL    HW123480   3.826   5.870   2.649  0.6408 -0.1735  0.1200
 7527SOL    HW223481   3.757   5.921   2.788  0.2306  2.9713 -1.1668
 7528SOL     OW23482   0.220   2.289   5.285 -0.3384 -0.1068 -0.2213
 7528SOL    HW123483   0.188   2.323   5.373 -1.0635 -1.9857  0.2899
 7528SOL    HW223484   0.232   2.366   5.222  0.6407  1.3468  1.6160
 7529SOL     OW23485   4.958   3.298   4.629 -0.2827  0.5381 -0.6578
 7529SOL    HW123486   5.053   3.268   4.636 -0.0419  1.2464 -0.8556
 7529SOL    HW223487   4.908   3.236   4.568  0.0996  0.2766 -0.7089
 7530SOL     OW23488   1.176   0.406   5.329 -0.0783 -0.2344 -0.3514
 7530SOL    HW123489   1.183   0.390   5.231 -1.2590  0.3141 -0.5511
 7530SOL    HW223490   1.103   0.472   5.347 -0.1040 -0.5695  0.9212
 7531SOL     OW23491   5.770   1.287   3.594  1.0989  0.0695 -0.0646
 7531SOL    HW123492   5.734   1.206   3.640 -0.4136  1.0502  0.5384
 7531SOL    HW223493   5.742   1.287   3.499 -0.7152  0.8898  0.4287
 7532SOL     OW23494   3.783   4.258   5.152 -0.8306 -0.7097 -0.0421
 7532SOL    HW123495   3.740   4.168   5.154 -0.5286 -0.8432  1.2608
 7532SOL    HW223496   3.868   4.256   5.205  0.6936 -0.3736 -2.2926
 7533SOL     OW23497   3.885   5.106   5.630  0.2925 -0.0599 -0.2308
 7533SOL    HW123498   3.847   5.190   5.668 -1.1752  0.0084 -1.7092
 7533SOL    HW223499   3.836   5.084   5.545  2.1909 -1.1561 -1.0911
 7534SOL     OW23500   4.017   6.830   4.073 -0.1230 -0.4472  0.7360
 7534SOL    HW123501   4.029   6.876   3.985 -0.6308 -1.2185  0.2483
 7534SOL    HW223502   4.093   6.855   4.134  0.1594  0.2107  0.1387
 7535SOL     OW23503   6.221   4.728   6.444  0.0983  0.5875  0.3749
 7535SOL    HW123504   6.209   4.682   6.356 -1.9024 -0.5220  1.1657
 7535SOL    HW223505   6.139   4.781   6.465 -0.3176 -0.7786  2.4581
 7536SOL     OW23506   5.615   0.482   3.199  0.0410 -0.2064  0.2924
 7536SOL    HW123507   5.561   0.547   3.146 -1.1219 -1.8156 -0.6102
 7536SOL    HW223508   5.712   0.503   3.189 -0.3112  2.3270  1.3754
 7537SOL     OW23509   3.506   0.148   1.759 -0.1806  0.3097 -0.0923
 7537SOL    HW123510   3.487   0.154   1.661  0.9187  0.7682 -0.3001
 7537SOL    HW223511   3.600   0.179   1.776 -0.0777 -0.5414  1.0027
 7538SOL     OW23512   0.594   6.865   6.788  0.1219  0.3845  0.2975
 7538SOL    HW123513   0.512   6.827   6.832  0.0181  0.2938  0.0303
 7538SOL    HW223514   0.603   6.827   6.696  0.0780  0.9252  0.0633
 7539SOL     OW23515   0.451   0.057   3.966 -0.2417  0.8177 -0.4784
 7539SOL    HW123516   0.528   0.120   3.980  0.1326  0.5298 -1.1736
 7539SOL    HW223517   0.483  -0.023   3.915 -0.9295  0.5282 -0.4581
 7540SOL     OW23518   4.275   4.683   2.861  0.4016 -0.0601  0.2235
 7540SOL    HW123519   4.353   4.621   2.872  1.2390  1.1175  1.2111
 7540SOL    HW223520   4.230   4.665   2.774  0.1427 -2.5591  0.7913
 7541SOL     OW23521   0.929   2.839   6.277 -0.4281  0.3568  0.5425
 7541SOL    HW123522   0.990   2.913   6.306 -1.6463  1.9363 -0.7450
 7541SOL    HW223523   0.974   2.785   6.207  0.3544  0.0576  1.2598
 7542SOL     OW23524   5.816   4.593   4.822 -0.3565  0.2419 -0.2788
 7542SOL    HW123525   5.777   4.505   4.851  2.0773 -0.6872  0.3527
 7542SOL    HW223526   5.870   4.580   4.739  0.8496  0.9279  0.3724
 7543SOL     OW23527   2.396   6.924   0.756 -0.0256 -0.5066 -0.8547
 7543SOL    HW123528   2.450   6.840   0.745  0.7232  0.1731 -2.7280
 7543SOL    HW223529   2.322   6.925   0.688 -0.1598  0.2542 -0.7033
 7544SOL     OW23530   5.806   1.146   4.286  0.4407 -0.6370  0.2422
 7544SOL    HW123531   5.873   1.082   4.323  0.3372 -2.9967 -3.1288
 7544SOL    HW223532   5.851   1.230   4.257  1.3776 -0.9216  0.8508
 7545SOL     OW23533   6.227   4.447   3.551 -0.4209 -0.0497  0.0432
 7545SOL    HW123534   6.178   4.500   3.482 -1.9557 -2.2245 -0.6577
 7545SOL    HW223535   6.269   4.367   3.508 -0.8896 -1.1268  1.5048
 7546SOL     OW23536   2.729   1.115   2.418 -0.4912  0.0682  0.0080
 7546SOL    HW123537   2.669   1.158   2.485 -1.4190 -0.9175 -0.1658
 7546SOL    HW223538   2.694   1.025   2.394  1.5760 -0.9643  0.6008
 7547SOL     OW23539   4.504   6.951   2.639  0.3108  0.3435  0.2550
 7547SOL    HW123540   4.540   6.929   2.548 -0.7018  1.8135 -0.5485
 7547SOL    HW223541   4.443   6.877   2.670  0.2219  0.0868 -0.5099
 7548SOL     OW23542   2.964   3.481   6.081 -0.4791 -0.0225  0.0174
 7548SOL    HW123543   2.977   3.386   6.053  0.5349 -0.5134  2.0009
 7548SOL    HW223544   3.053   3.520   6.106 -1.0847  0.9852  0.6080
 7549SOL     OW23545   2.986   0.080   4.986  0.3093 -0.0596  0.5401
 7549SOL    HW123546   3.079   0.059   4.956 -0.0766  0.1310 -0.8815
 7549SOL    HW223547   2.981   0.175   5.015  0.2405  0.4163 -0.9152
 7550SOL     OW23548   1.680   0.440   4.723  0.2154  0.4708  0.3321
 7550SOL    HW123549   1.757   0.478   4.775 -1.1066 -1.5002  4.1170
 7550SOL    HW223550   1.708   0.355   4.679  0.4262  0.1658  1.0470
 7551SOL     OW23551   6.062   2.692   0.638  0.2313 -0.1042 -0.0025
 7551SOL    HW123552   6.059   2.593   0.630  2.4196 -0.1967 -0.2572
 7551SOL    HW223553   6.033   2.733   0.551 -0.4357 -0.5234  0.0212
 7552SOL     OW23554   4.541   0.207   3.429 -0.1513 -0.0858 -0.0125
 7552SOL    HW123555   4.545   0.114   3.392  0.2287  0.3615 -1.1626
 7552SOL    HW223556   4.562   0.205   3.526 -0.4390 -1.2345  0.0461
 7553SOL     OW23557   0.067   0.931   5.285 -0.5865 -0.6673 -0.1654
 7553SOL    HW123558   0.010   1.001   5.242  0.6907  1.0469  0.8311
 7553SOL    HW223559   0.142   0.906   5.224 -0.2545 -0.1350  0.0192
 7554SOL     OW23560   4.057   1.914   3.541  0.0986 -0.3378 -0.1822
 7554SOL    HW123561   4.012   1.875   3.461  0.3683  1.0915 -1.0600
 7554SOL    HW223562   4.033   2.010   3.550  1.1706 -0.1168  0.6612
 7555SOL     OW23563   4.106   5.335   4.574  0.0140 -0.0661 -0.2464
 7555SOL    HW123564   4.156   5.360   4.657  0.6025  1.2810 -0.9795
 7555SOL    HW223565   4.143   5.386   4.496 -1.6388 -0.0193 -1.0400
 7556SOL     OW23566   0.737   4.554   2.052  0.1155 -0.3477  0.2863
 7556SOL    HW123567   0.787   4.468   2.047 -1.9859 -1.7291  1.7010
 7556SOL    HW223568   0.709   4.571   2.146 -0.5528  1.2822 -0.1741
 7557SOL     OW23569   3.574   5.348   6.705  0.3944  0.0252 -0.0745
 7557SOL    HW123570   3.624   5.428   6.736  1.1192 -0.1023 -0.8659
 7557SOL    HW223571   3.628   5.265   6.725  0.4094 -0.1302 -0.7278
 7558SOL     OW23572   2.222   3.148   4.174  0.0391  0.4100  0.4362
 7558SOL    HW123573   2.158   3.201   4.229  0.7414  2.0796 -0.2701
 7558SOL    HW223574   2.260   3.073   4.228 -0.7370  0.8261  1.5777
 7559SOL     OW23575   0.133   6.593   6.014  0.0302  0.3956 -0.4521
 7559SOL    HW123576   0.205   6.560   6.074  0.7863  1.1902 -0.8986
 7559SOL    HW223577   0.055   6.530   6.018  1.2875 -1.2839 -1.0433
 7560SOL     OW23578   1.598   1.586   6.590  0.8425  0.4009  0.4601
 7560SOL    HW123579   1.664   1.521   6.628 -0.8134 -2.5065 -1.2422
 7560SOL    HW223580   1.525   1.601   6.658  0.1741 -1.2701  0.1797
 7561SOL     OW23581   5.355   1.814   5.724 -0.1595 -0.0048 -0.1559
 7561SOL    HW123582   5.384   1.767   5.641 -1.5165  1.9014 -1.7910
 7561SOL    HW223583   5.429   1.810   5.792  1.6528 -0.2169 -2.0388
 7562SOL     OW23584   1.745   6.758   5.094  0.0700 -0.2218 -0.0786
 7562SOL    HW123585   1.727   6.698   5.172 -0.9798  0.2145  0.0194
 7562SOL    HW223586   1.837   6.739   5.059 -0.4206 -2.2963 -0.3948
 7563SOL     OW23587   3.447   6.075   1.740  0.0712 -0.5640 -0.7630
 7563SOL    HW123588   3.416   5.990   1.781 -3.1865  0.3826 -1.0048
 7563SOL    HW223589   3.499   6.127   1.809 -1.8601 -0.7602  0.9506
 7564SOL     OW23590   5.609   3.410   6.841  0.7212 -0.1489 -0.0119
 7564SOL    HW123591   5.554   3.454   6.912  0.7122 -2.5708  1.6320
 7564SOL    HW223592   5.692   3.372   6.883  0.5680 -1.9141 -1.2076
 7565SOL     OW23593   5.528   3.506   5.776 -0.0234 -0.3729 -0.3342
 7565SOL    HW123594   5.602   3.468   5.831  0.1007 -0.9127 -0.8545
 7565SOL    HW223595   5.440   3.471   5.809 -0.1701  1.2227  1.0597
 7566SOL     OW23596   5.480   4.839   1.656 -0.2705  0.6003 -0.0266
 7566SOL    HW123597   5.417   4.912   1.630 -0.1405  0.3409 -1.1627
 7566SOL    HW223598   5.429   4.761   1.691 -0.5166  0.7258 -0.1054
 7567SOL     OW23599   1.418   6.161   3.175  0.2109  0.1201 -0.5309
 7567SOL    HW123600   1.496   6.216   3.207 -0.3616  0.4970  0.2550
 7567SOL    HW223601   1.442   6.064   3.178  0.2357  0.1508  0.9196
 7568SOL     OW23602   6.707   4.025   6.822  0.1612 -0.2750 -0.0699
 7568SOL    HW123603   6.714   4.070   6.733 -0.8313 -0.4850 -0.2625
 7568SOL    HW223604   6.705   3.926   6.810 -0.4480 -0.2906  0.1517
 7569SOL     OW23605   3.280   3.669   1.577 -0.0243 -0.3945 -0.1672
 7569SOL    HW123606   3.190   3.655   1.619 -0.4204  0.6684 -0.6156
 7569SOL    HW223607   3.283   3.623   1.488 -0.0589 -0.5944 -0.0652
 7570SOL     OW23608   5.880   1.669   1.893  0.1321 -0.2512  0.0391
 7570SOL    HW123609   5.853   1.737   1.825 -1.4514 -1.3956 -0.5271
 7570SOL    HW223610   5.944   1.604   1.851 -0.4763 -0.6820 -0.2288
 7571SOL     OW23611   5.355   2.895   1.621  0.1153  0.0113  0.2882
 7571SOL    HW123612   5.378   2.854   1.532 -0.2971  1.0825 -0.3305
 7571SOL    HW223613   5.259   2.878   1.641  0.0082  0.4434  0.1509
 7572SOL     OW23614   5.865   0.672   0.485  0.2912  0.1027  0.5808
 7572SOL    HW123615   5.916   0.623   0.556  0.2352 -0.4984  0.2195
 7572SOL    HW223616   5.771   0.686   0.515 -0.0420 -1.1477  0.1980
 7573SOL     OW23617   3.657   0.061   5.463 -0.0718  0.7097  0.2093
 7573SOL    HW123618   3.681  -0.032   5.491  1.9446  1.5184  1.3798
 7573SOL    HW223619   3.694   0.078   5.372 -1.2564  0.1061 -0.4150
 7574SOL     OW23620   1.351   3.256   3.525 -0.3006  0.2538  0.1013
 7574SOL    HW123621   1.445   3.273   3.553  0.0625  0.5392 -1.2193
 7574SOL    HW223622   1.298   3.225   3.604  0.9757 -0.2641  0.7866
 7575SOL     OW23623   6.524   1.101   6.637  0.1785 -0.3544  0.5140
 7575SOL    HW123624   6.613   1.146   6.643  0.6379 -1.2600  0.6646
 7575SOL    HW223625   6.451   1.170   6.637  0.8870  0.4027  0.1532
 7576SOL     OW23626   3.291   3.425   0.603  0.0490  0.5612  0.3843
 7576SOL    HW123627   3.374   3.480   0.593  0.4442 -0.1246 -0.2412
 7576SOL    HW223628   3.316   3.329   0.617 -0.6316  0.2664 -0.3473
 7577SOL     OW23629   0.345   0.013   4.666  0.2337 -0.4938  0.0303
 7577SOL    HW123630   0.339   0.100   4.617  0.1539  0.6925  2.0369
 7577SOL    HW223631   0.432  -0.031   4.646  0.8507  0.7043 -0.0073
 7578SOL     OW23632   6.834   4.137   3.005  0.0893 -0.4453 -0.0302
 7578SOL    HW123633   6.868   4.206   2.941  1.9707 -0.9534  0.3694
 7578SOL    HW223634   6.818   4.051   2.957 -0.7990 -0.1732 -0.2405
 7579SOL     OW23635   1.623   0.655   6.382 -0.5627 -0.2113  0.2502
 7579SOL    HW123636   1.592   0.751   6.383 -1.1000 -0.3861  0.6838
 7579SOL    HW223637   1.608   0.614   6.472  0.7695 -0.3669  0.4168
 7580SOL     OW23638   6.860   4.391   3.463  0.3741 -0.6126 -0.4824
 7580SOL    HW123639   6.853   4.374   3.365  0.3198 -1.0029 -0.4144
 7580SOL    HW223640   6.880   4.488   3.480 -0.0711 -0.4498 -0.8639
 7581SOL     OW23641   6.906   5.431   2.529  0.0692 -0.2250  0.4596
 7581SOL    HW123642   6.976   5.359   2.527 -0.3826 -0.6465 -1.1080
 7581SOL    HW223643   6.936   5.507   2.472 -0.2682  0.0734  0.6788
 7582SOL     OW23644   0.903   0.681   3.812  0.0227 -0.4267  0.0518
 7582SOL    HW123645   0.899   0.770   3.767 -1.6781  0.2289  1.3900
 7582SOL    HW223646   0.925   0.610   3.745  0.8180  0.8970 -1.1427
 7583SOL     OW23647   4.806   4.778   2.702  0.5832  0.2385 -0.0944
 7583SOL    HW123648   4.736   4.818   2.644  0.2715  0.6086  0.5224
 7583SOL    HW223649   4.847   4.699   2.656 -1.3692 -1.0033  0.2090
 7584SOL     OW23650   6.589   0.240   4.388  0.2662 -0.4203 -0.0950
 7584SOL    HW123651   6.538   0.196   4.463 -0.1485 -0.7525 -0.5671
 7584SOL    HW223652   6.534   0.237   4.305  0.9485 -0.5145 -0.5436
 7585SOL     OW23653   0.738   1.117   5.587  0.1646  0.0186 -0.6815
 7585SOL    HW123654   0.664   1.050   5.575 -0.2775  0.7282 -2.1980
 7585SOL    HW223655   0.819   1.071   5.625 -1.4106 -0.5204  2.2790
 7586SOL     OW23656   1.892   6.570   2.682 -0.0352  0.3695  0.0046
 7586SOL    HW123657   1.925   6.664   2.672 -0.1334  0.3412 -0.6123
 7586SOL    HW223658   1.792   6.570   2.689 -0.0827  0.2629 -0.6539
 7587SOL     OW23659   6.511   2.249   2.117  0.2488  0.1112 -0.8666
 7587SOL    HW123660   6.512   2.323   2.184 -0.0805  0.7395 -1.5389
 7587SOL    HW223661   6.432   2.259   2.057 -0.9152 -1.9032  0.2211
 7588SOL     OW23662   1.189   4.052   5.147 -0.3455  0.1061  0.5824
 7588SOL    HW123663   1.278   4.040   5.103 -0.7841  0.1461 -0.3358
 7588SOL    HW223664   1.124   3.986   5.108 -0.8847  0.5146  0.7873
 7589SOL     OW23665   4.231   1.360   3.488 -0.0205  0.5347  0.1065
 7589SOL    HW123666   4.326   1.384   3.507 -0.8566  2.5717  2.1652
 7589SOL    HW223667   4.191   1.428   3.426 -0.3850  0.1480 -0.0911
 7590SOL     OW23668   5.066   2.006   0.900 -0.3290 -0.1511 -0.5874
 7590SOL    HW123669   5.033   1.959   0.817  0.3637  2.6143 -2.5689
 7590SOL    HW223670   5.155   1.968   0.925  0.5880  0.4652 -2.6187
 7591SOL     OW23671   3.854   3.115   5.067 -0.0556 -0.4676  0.0072
 7591SOL    HW123672   3.935   3.135   5.012  0.8211 -0.8565  1.1323
 7591SOL    HW223673   3.833   3.193   5.126 -0.0479 -0.6625  0.2683
 7592SOL     OW23674   5.698   2.680   2.463 -0.3995 -0.1084 -0.3536
 7592SOL    HW123675   5.783   2.717   2.500 -0.9158  1.3260 -0.5557
 7592SOL    HW223676   5.707   2.669   2.364 -1.5968  3.6324 -1.0428
 7593SOL     OW23677   2.130   0.541   5.875 -0.1473 -0.4357 -0.2079
 7593SOL    HW123678   2.204   0.607   5.883 -0.3267 -0.3779  1.4714
 7593SOL    HW223679   2.122   0.491   5.962 -0.5819 -2.0467 -1.1416
 7594SOL     OW23680   6.577   5.176   0.496  0.0668 -0.0807 -0.1086
 7594SOL    HW123681   6.601   5.081   0.475  0.6047  0.1507 -0.5864
 7594SOL    HW223682   6.634   5.209   0.571  0.8162  0.2708 -0.8204
 7595SOL     OW23683   0.935   3.436   1.148  0.6528 -0.0578 -0.7409
 7595SOL    HW123684   0.988   3.513   1.112  2.2444 -0.3060  0.9031
 7595SOL    HW223685   0.847   3.469   1.182  1.3877  1.0889  0.1067
 7596SOL     OW23686   3.914   4.099   4.954 -0.0205 -0.3734  0.0840
 7596SOL    HW123687   3.819   4.122   4.931  0.5471  1.8596 -0.2463
 7596SOL    HW223688   3.958   4.178   4.996  2.0049 -1.0066 -0.7315
 7597SOL     OW23689   2.471   5.144   0.775  0.3306  0.5485 -0.5302
 7597SOL    HW123690   2.419   5.062   0.751 -1.2709  2.2630 -3.6084
 7597SOL    HW223691   2.547   5.155   0.711  1.0087  1.0508  0.3476
 7598SOL     OW23692   3.765   1.371   2.466 -0.2624 -0.4636 -1.0314
 7598SOL    HW123693   3.750   1.272   2.466 -1.0391 -0.3555 -0.7226
 7598SOL    HW223694   3.687   1.417   2.510  1.0018  0.1618  0.6473
 7599SOL     OW23695   2.635   2.023   0.783 -0.2310 -0.4289 -0.4640
 7599SOL    HW123696   2.677   2.013   0.693 -1.4979  0.5265 -1.1927
 7599SOL    HW223697   2.559   2.088   0.777 -0.2954 -0.3081  1.3156
 7600SOL     OW23698   1.930   0.170   3.810  0.4990  0.4941  0.3872
 7600SOL    HW123699   2.016   0.123   3.791  0.5996  0.5540  0.6925
 7600SOL    HW223700   1.854   0.114   3.776  0.4418 -1.1279  2.9290
 7601SOL     OW23701   2.908   5.406   2.263 -0.1685  0.2863  0.0556
 7601SOL    HW123702   2.833   5.386   2.327  0.7867 -1.0560  0.8087
 7601SOL    HW223703   2.995   5.382   2.306  0.3962 -3.3417 -2.6499
 7602SOL     OW23704   4.526   6.454   6.504 -0.3179  0.1288 -0.4471
 7602SOL    HW123705   4.448   6.491   6.452  0.0447  1.1967 -0.2664
 7602SOL    HW223706   4.503   6.448   6.601  0.4719  2.4743 -0.0460
 7603SOL     OW23707   4.510   2.220   0.399  0.0499  0.4041  0.2368
 7603SOL    HW123708   4.540   2.237   0.305  0.7945  1.8647  0.7038
 7603SOL    HW223709   4.589   2.211   0.459 -0.4005  1.7217  1.0785
 7604SOL     OW23710   3.472   2.772   0.206 -0.2150  0.3173 -0.2067
 7604SOL    HW123711   3.372   2.779   0.211 -0.1828  1.5554 -0.8716
 7604SOL    HW223712   3.506   2.724   0.287 -1.2763  0.7813  0.5423
 7605SOL     OW23713   2.269   6.348   1.224  0.3950 -0.0976  0.0813
 7605SOL    HW123714   2.215   6.401   1.289  0.9432 -1.2046  1.4923
 7605SOL    HW223715   2.210   6.286   1.172 -0.3614  2.2771 -2.0913
 7606SOL     OW23716   0.733   1.306   4.544  0.6475 -0.1154  0.3764
 7606SOL    HW123717   0.656   1.247   4.571  1.4137 -0.4043  2.0402
 7606SOL    HW223718   0.819   1.258   4.558  1.2200  0.8476  0.2645
 7607SOL     OW23719   1.045   6.821   6.010 -1.1730 -0.0788 -0.3733
 7607SOL    HW123720   1.079   6.728   6.022 -2.1642 -1.1751 -4.3074
 7607SOL    HW223721   1.032   6.864   6.099  1.9401 -2.6405  1.5535
 7608SOL     OW23722   0.840   3.497   6.424 -0.4756 -0.1132 -0.6716
 7608SOL    HW123723   0.890   3.413   6.444 -1.0140 -0.1787  0.4791
 7608SOL    HW223724   0.818   3.500   6.327 -1.8052 -2.0889 -0.4923
 7609SOL     OW23725   4.925   6.960   3.864 -0.2289  0.3157  0.1407
 7609SOL    HW123726   4.936   7.000   3.773  0.1055 -1.8737 -0.8380
 7609SOL    HW223727   5.014   6.930   3.898 -0.4275  0.6630  0.9956
 7610SOL     OW23728   3.882   6.717   4.542  0.6854 -0.4489  0.1315
 7610SOL    HW123729   3.909   6.719   4.638  0.5170 -0.3108  0.1777
 7610SOL    HW223730   3.888   6.810   4.504  0.1748 -0.3938  0.1734
 7611SOL     OW23731   4.536   2.957   0.526 -0.4853 -0.2569  0.0026
 7611SOL    HW123732   4.478   2.915   0.457 -0.8077  0.7660 -0.3632
 7611SOL    HW223733   4.498   3.045   0.554 -0.0650 -0.3935  1.0831
 7612SOL     OW23734   4.257   4.578   1.744  0.2859  0.1768  0.8000
 7612SOL    HW123735   4.177   4.633   1.770 -0.0311 -0.1393  0.5175
 7612SOL    HW223736   4.314   4.561   1.824  0.2279  0.6573  0.9477
 7613SOL     OW23737   6.614   0.363   6.651  0.0944  0.3710 -0.4167
 7613SOL    HW123738   6.652   0.372   6.559 -0.3182 -0.5821 -0.6968
 7613SOL    HW223739   6.649   0.279   6.693 -0.2483  0.4513  0.0339
 7614SOL     OW23740   6.263   5.946   5.947  0.4387 -0.6737  0.7905
 7614SOL    HW123741   6.192   5.967   5.879  1.8556  0.2331 -0.4826
 7614SOL    HW223742   6.324   6.025   5.957  1.4039 -1.5035  1.6787
 7615SOL     OW23743   5.285   2.809   6.311  0.3971  0.4777  0.3849
 7615SOL    HW123744   5.363   2.813   6.248 -0.3855  0.4416 -0.6138
 7615SOL    HW223745   5.254   2.902   6.330 -0.5478  0.4205 -0.8074
 7616SOL     OW23746   1.060   6.821   3.093 -0.2666  0.2366 -0.9709
 7616SOL    HW123747   1.158   6.831   3.110 -0.6003 -1.5653  3.3427
 7616SOL    HW223748   1.043   6.731   3.053 -0.2339  0.1303 -0.7468
 7617SOL     OW23749   3.445   5.721   3.781  0.1249  1.0607  0.0130
 7617SOL    HW123750   3.447   5.667   3.865 -0.4255 -0.0455 -0.6634
 7617SOL    HW223751   3.526   5.780   3.778  0.8556  0.1426  0.6910
 7618SOL     OW23752   3.399   3.290   6.589 -0.3223  0.3985  0.0251
 7618SOL    HW123753   3.408   3.259   6.494 -0.0671  0.8660 -0.1074
 7618SOL    HW223754   3.308   3.328   6.603 -1.3379 -2.0560  0.6906
 7619SOL     OW23755   1.071   2.476   3.848 -0.5896 -0.2600  0.1951
 7619SOL    HW123756   1.102   2.548   3.910 -0.0623  0.1302 -0.5127
 7619SOL    HW223757   1.047   2.515   3.759 -1.0019 -0.8592  0.0299
 7620SOL     OW23758   4.005   4.340   0.639  0.1094 -0.6219  0.4742
 7620SOL    HW123759   4.026   4.350   0.736  3.8586  0.5380 -0.2981
 7620SOL    HW223760   4.054   4.261   0.602 -0.6491 -0.5947 -0.6558
 7621SOL     OW23761   5.678   5.557   0.819 -0.0395  0.2534  0.3973
 7621SOL    HW123762   5.633   5.467   0.817  1.2256 -0.3864  0.0351
 7621SOL    HW223763   5.743   5.560   0.894  1.2514  0.1928 -0.6893
 7622SOL     OW23764   2.965   3.205   5.969  0.0523 -0.2611  0.4099
 7622SOL    HW123765   2.944   3.197   5.872  0.7124  0.1952  0.2166
 7622SOL    HW223766   3.064   3.191   5.982  0.1003  0.4959  0.9059
 7623SOL     OW23767   5.833   5.078   3.061 -0.0258 -0.2114  0.1014
 7623SOL    HW123768   5.862   4.991   3.020  1.4413  0.9713 -1.5415
 7623SOL    HW223769   5.863   5.082   3.156 -1.7604 -2.2205  0.8095
 7624SOL     OW23770   1.178   1.751   4.991 -0.2304 -0.7972 -0.4593
 7624SOL    HW123771   1.232   1.835   4.978 -2.2305  1.0829  2.2091
 7624SOL    HW223772   1.103   1.750   4.925 -0.8455  0.1525  0.1958
 7625SOL     OW23773   5.216   1.986   2.256 -0.4372  0.5379 -0.1528
 7625SOL    HW123774   5.261   1.991   2.167  1.4994 -2.3560  0.5177
 7625SOL    HW223775   5.139   1.924   2.251  0.1822 -0.2926  0.3275
 7626SOL     OW23776   4.577   5.652   0.809 -0.5056 -0.1317  0.1833
 7626SOL    HW123777   4.669   5.667   0.772  0.1444 -2.4293  0.6972
 7626SOL    HW223778   4.509   5.683   0.743  0.6394 -0.3499 -1.1354
 7627SOL     OW23779   4.728   3.759   5.335  0.5174 -0.0604  0.1722
 7627SOL    HW123780   4.692   3.704   5.260  0.9934  2.4506 -2.0706
 7627SOL    HW223781   4.816   3.799   5.308 -0.2163  2.4901  1.2260
 7628SOL     OW23782   2.897   3.164   2.013 -0.2938  0.0417 -0.1114
 7628SOL    HW123783   2.917   3.235   2.081 -1.9389 -1.6671  2.3371
 7628SOL    HW223784   2.830   3.100   2.051 -2.0203 -0.5419 -3.7614
 7629SOL     OW23785   6.994   1.471   3.775 -0.4657  0.4610  0.0697
 7629SOL    HW123786   6.904   1.501   3.746 -0.4765 -1.0307 -1.5812
 7629SOL    HW223787   6.993   1.372   3.790  0.5275  0.6356  1.5388
 7630SOL     OW23788   1.601   4.758   6.424  0.2150  0.3139 -0.0658
 7630SOL    HW123789   1.532   4.704   6.375  0.0603  0.7211 -0.3016
 7630SOL    HW223790   1.689   4.711   6.420 -0.0070 -0.1228  0.0790
 7631SOL     OW23791   1.650   6.339   0.557  0.1810 -0.4696  0.5347
 7631SOL    HW123792   1.558   6.314   0.585  0.3371  0.6924  2.2729
 7631SOL    HW223793   1.673   6.294   0.471 -1.4991 -1.8272  0.7594
 7632SOL     OW23794   4.053   4.563   1.446  0.2544  0.4180 -0.0471
 7632SOL    HW123795   4.001   4.524   1.522  0.3658  0.2773 -0.0428
 7632SOL    HW223796   4.077   4.658   1.468 -0.8062  0.7914 -0.4545
 7633SOL     OW23797   4.730   0.386   0.197 -0.1022 -0.3844 -0.0363
 7633SOL    HW123798   4.631   0.374   0.202 -0.1539  0.0324 -0.0358
 7633SOL    HW223799   4.757   0.465   0.254  0.3733 -1.2701  1.0061
 7634SOL     OW23800   1.079   1.807   5.632 -0.3136  0.2509 -0.1652
 7634SOL    HW123801   1.089   1.877   5.704  0.4850 -1.3345  1.3475
 7634SOL    HW223802   1.158   1.811   5.571 -0.0757  0.4371  0.1478
 7635SOL     OW23803   2.671   2.397   0.171  0.0722  0.0554  0.5617
 7635SOL    HW123804   2.704   2.394   0.077  2.1680  1.3822  1.1700
 7635SOL    HW223805   2.685   2.489   0.208 -0.9291 -0.3694  2.0901
 7636SOL     OW23806   1.302   1.978   3.227  0.0367 -0.2531 -0.0300
 7636SOL    HW123807   1.241   1.914   3.275  0.9992 -1.1755  0.0037
 7636SOL    HW223808   1.247   2.044   3.176 -1.0077  0.0479  1.4178
 7637SOL     OW23809   6.757   4.968   4.440 -0.1381 -0.1055  0.5964
 7637SOL    HW123810   6.831   4.911   4.476 -0.1665  0.0870  0.9651
 7637SOL    HW223811   6.679   4.964   4.503 -0.4531 -0.3239  0.2033
 7638SOL     OW23812   0.099   0.282   1.101 -0.2171 -0.3223  0.2774
 7638SOL    HW123813  -0.001   0.285   1.090 -0.1431  2.5429 -0.3842
 7638SOL    HW223814   0.123   0.208   1.163 -2.9043 -0.1300  1.7193
 7639SOL     OW23815   1.512   3.810   1.209  0.1350 -0.3181 -0.1718
 7639SOL    HW123816   1.475   3.861   1.131 -0.4209 -1.4461 -0.6621
 7639SOL    HW223817   1.447   3.739   1.235  1.6218 -1.8732 -0.5699
 7640SOL     OW23818   3.275   6.692   0.072 -0.3508 -0.2723 -0.0462
 7640SOL    HW123819   3.273   6.772   0.133 -0.5907 -0.2697 -0.0545
 7640SOL    HW223820   3.199   6.698   0.008 -0.1498 -0.3211 -0.2896
 7641SOL     OW23821   6.688   4.876   5.121 -0.5861  0.1790  0.4132
 7641SOL    HW123822   6.637   4.956   5.089  1.3972  1.0475 -0.8099
 7641SOL    HW223823   6.753   4.904   5.192 -0.5679 -0.5482  0.6892
 7642SOL     OW23824   6.083   6.566   4.649  0.5803 -0.3530  0.1044
 7642SOL    HW123825   6.105   6.638   4.714  0.5623  0.7897 -1.1042
 7642SOL    HW223826   6.155   6.561   4.579  0.1163 -0.8761 -0.3461
 7643SOL     OW23827   5.008   2.965   2.598  0.0992  0.7461 -0.0880
 7643SOL    HW123828   5.103   2.961   2.629  0.1480  2.5215  0.1056
 7643SOL    HW223829   4.948   2.983   2.675 -0.5982 -1.6073  0.0074
 7644SOL     OW23830   0.113   4.218   5.466  0.0865 -0.1181  0.5288
 7644SOL    HW123831   0.147   4.174   5.549  1.9693  0.2947  0.0222
 7644SOL    HW223832   0.172   4.195   5.389 -0.0300  1.6505 -0.1500
 7645SOL     OW23833   5.920   4.895   0.614 -0.2885 -0.2603 -0.0377
 7645SOL    HW123834   5.848   4.960   0.589 -0.8591 -0.9110 -0.1145
 7645SOL    HW223835   5.900   4.806   0.573  0.3026 -0.5781  0.3510
 7646SOL     OW23836   0.422   1.332   3.604 -0.1070 -0.0897 -0.9281
 7646SOL    HW123837   0.384   1.316   3.513 -0.9145  2.4210 -1.1277
 7646SOL    HW223838   0.357   1.300   3.673 -0.0201 -0.9386 -1.2293
 7647SOL     OW23839   2.334   2.160   5.252 -0.0325  0.4587 -0.3400
 7647SOL    HW123840   2.405   2.211   5.301 -0.9799  1.7540 -0.2613
 7647SOL    HW223841   2.252   2.152   5.310 -0.0639 -0.7991 -0.5225
 7648SOL     OW23842   0.911   2.615   0.731 -0.0274 -0.0612 -0.2651
 7648SOL    HW123843   1.002   2.609   0.772  0.3062 -3.2656 -1.1994
 7648SOL    HW223844   0.842   2.614   0.802  0.6352  1.0079  0.4087
 7649SOL     OW23845   3.191   1.829   0.104 -0.0115 -0.7653 -0.0893
 7649SOL    HW123846   3.107   1.849   0.156 -0.6850 -0.4340 -1.2746
 7649SOL    HW223847   3.257   1.902   0.118  0.3819 -1.3761  1.4271
 7650SOL     OW23848   3.660   2.218   5.767 -0.0016  0.2004 -0.3007
 7650SOL    HW123849   3.614   2.303   5.791  0.1881  0.6691 -1.5621
 7650SOL    HW223850   3.595   2.156   5.724 -0.4593 -0.8336  1.7270
 7651SOL     OW23851   4.960   6.818   6.998 -0.2238  0.3269 -0.2665
 7651SOL    HW123852   4.992   6.912   6.985 -2.2699  1.0075 -0.9039
 7651SOL    HW223853   4.883   6.818   7.062 -0.8379 -0.7681 -0.9709
 7652SOL     OW23854   2.866   2.268   5.801 -0.3631 -0.2628  0.2793
 7652SOL    HW123855   2.770   2.269   5.829 -0.6120 -0.4002 -0.5380
 7652SOL    HW223856   2.914   2.345   5.843 -0.9246  0.0446  0.3591
 7653SOL     OW23857   3.319   0.776   0.203  0.2367 -0.6205 -0.5370
 7653SOL    HW123858   3.408   0.797   0.163  0.1128 -0.9551 -0.9909
 7653SOL    HW223859   3.249   0.836   0.163  0.6036  1.3666  1.5556
 7654SOL     OW23860   1.120   0.881   5.955  0.2494 -0.0380  0.2671
 7654SOL    HW123861   1.197   0.924   5.908  1.1943 -0.3105  1.5259
 7654SOL    HW223862   1.153   0.810   6.016 -1.2582 -2.6425 -1.7119
 7655SOL     OW23863   2.756   0.639   5.930  0.4365 -0.4467  0.5802
 7655SOL    HW123864   2.790   0.701   5.859 -2.3765  1.3881  0.6937
 7655SOL    HW223865   2.831   0.617   5.992  2.2156  0.5348 -1.0829
 7656SOL     OW23866   6.468   2.785   0.026 -0.0490  0.3583 -0.1955
 7656SOL    HW123867   6.565   2.798   0.005  0.1971 -0.6273  0.2663
 7656SOL    HW223868   6.459   2.720   0.101 -1.0095  1.6455  0.8593
 7657SOL     OW23869   1.217   2.809   5.836  0.1700  0.2484  0.2972
 7657SOL    HW123870   1.241   2.759   5.753 -3.4935 -0.7288 -0.3144
 7657SOL    HW223871   1.223   2.908   5.818 -0.8780  0.0543 -1.2555
 7658SOL     OW23872   4.527   6.342   1.645  0.4576  0.2239  0.0246
 7658SOL    HW123873   4.568   6.392   1.569  2.9979 -0.4906  0.8331
 7658SOL    HW223874   4.575   6.363   1.730 -2.2348  0.9174  1.5093
 7659SOL     OW23875   5.771   3.407   5.602  0.2013  0.0412 -0.3084
 7659SOL    HW123876   5.765   3.414   5.503  0.9273  1.5397 -0.2677
 7659SOL    HW223877   5.703   3.468   5.644 -0.2272 -0.7179  0.1301
 7660SOL     OW23878   0.882   0.494   4.020  0.2207 -0.7555  0.4720
 7660SOL    HW123879   0.905   0.559   3.948 -1.8277 -0.5892 -0.1005
 7660SOL    HW223880   0.810   0.533   4.078  0.8463 -1.4595  1.7716
 7661SOL     OW23881   1.637   5.793   4.015  0.4574 -0.6508 -0.6351
 7661SOL    HW123882   1.585   5.861   3.963 -0.1027  0.1284  0.8545
 7661SOL    HW223883   1.734   5.813   4.010  0.2061  1.5045  1.3094
 7662SOL     OW23884   5.952   0.321   1.500  0.5054  0.1832 -0.4010
 7662SOL    HW123885   5.908   0.411   1.493 -0.7497 -0.2588  1.0019
 7662SOL    HW223886   6.051   0.332   1.506  0.3523  1.4972  0.0433
 7663SOL     OW23887   1.221   6.479   6.395 -0.6136  0.0288 -0.1986
 7663SOL    HW123888   1.276   6.554   6.359 -1.9342  0.7602 -0.7774
 7663SOL    HW223889   1.165   6.439   6.322 -0.9381 -0.6065  0.3807
 7664SOL     OW23890   6.254   2.462   4.999 -0.4109 -0.0541  0.5328
 7664SOL    HW123891   6.288   2.477   4.906 -0.5301  1.2317  0.6764
 7664SOL    HW223892   6.167   2.413   4.995 -0.2803 -0.2477 -0.0150
 7665SOL     OW23893   1.568   6.623   4.682  0.0202  0.0283 -0.5884
 7665SOL    HW123894   1.483   6.590   4.639 -0.5807 -0.6664  1.0436
 7665SOL    HW223895   1.646   6.587   4.631 -0.6592 -0.5047 -1.2957
 7666SOL     OW23896   1.265   4.815   4.386  0.5289  0.2307  0.5623
 7666SOL    HW123897   1.178   4.823   4.338  0.4239 -1.8646  0.3433
 7666SOL    HW223898   1.335   4.780   4.324  0.8108 -0.8304  1.4454
 7667SOL     OW23899   4.560   0.131   6.869  0.2804 -0.3104  0.3320
 7667SOL    HW123900   4.632   0.104   6.932 -1.1815  1.2514  2.8294
 7667SOL    HW223901   4.593   0.207   6.812  0.8676 -0.1421  0.8885
 7668SOL     OW23902   2.486   5.678   0.221  0.5097  0.5667  0.2973
 7668SOL    HW123903   2.444   5.588   0.233  1.9840 -0.0195  1.3745
 7668SOL    HW223904   2.487   5.702   0.124 -0.2925 -0.3737  0.0433
 7669SOL     OW23905   5.373   3.123   0.737  0.4696 -0.6360  0.1795
 7669SOL    HW123906   5.363   3.183   0.657  0.4327 -0.7386  0.1074
 7669SOL    HW223907   5.286   3.119   0.787  0.4760 -0.6186  0.1924
 7670SOL     OW23908   1.980   1.921   1.337 -0.1243 -0.1956 -0.9443
 7670SOL    HW123909   2.031   1.900   1.253 -0.9457  0.4348 -1.6242
 7670SOL    HW223910   1.978   2.020   1.351  0.4036 -0.3197  0.0911
 7671SOL     OW23911   3.905   1.017   2.654 -0.4212  0.7113 -0.7109
 7671SOL    HW123912   3.966   1.088   2.617 -1.7096  1.2805 -1.8221
 7671SOL    HW223913   3.960   0.949   2.702  1.0824  1.2679 -1.5563
 7672SOL     OW23914   1.246   3.046   3.424  0.0504 -0.1871 -0.2734
 7672SOL    HW123915   1.254   3.133   3.472  2.8276  0.1560 -1.1727
 7672SOL    HW223916   1.229   2.972   3.490  3.6948  0.2599  1.4045
 7673SOL     OW23917   0.674   6.224   5.464  0.2727 -0.4646  0.1920
 7673SOL    HW123918   0.704   6.129   5.474  1.5522  0.0084  1.0713
 7673SOL    HW223919   0.586   6.236   5.509 -0.2271 -1.3669 -0.4976
 7674SOL     OW23920   4.052   5.449   3.388  0.3941 -0.1540  0.1757
 7674SOL    HW123921   4.111   5.410   3.317  0.9486 -0.7343  0.9333
 7674SOL    HW223922   3.974   5.495   3.345 -0.3058 -2.1037 -0.7901
 7675SOL     OW23923   5.121   6.437   1.782 -0.0742 -0.3865  0.1866
 7675SOL    HW123924   5.039   6.389   1.814  0.6589 -1.3056  0.7611
 7675SOL    HW223925   5.097   6.530   1.755 -1.5063 -0.9753 -0.7102
 7676SOL     OW23926   2.856   3.448   3.257  0.5048  0.1113  0.4471
 7676SOL    HW123927   2.783   3.415   3.317 -0.8097 -0.8125 -1.5580
 7676SOL    HW223928   2.894   3.371   3.206  0.7656  1.0163 -0.7514
 7677SOL     OW23929   0.519   5.853   6.055  0.0111 -0.1711  0.6507
 7677SOL    HW123930   0.609   5.898   6.058 -0.3804  0.5993  1.2094
 7677SOL    HW223931   0.493   5.823   6.146 -0.7629  0.5628  0.6854
 7678SOL     OW23932   2.429   1.482   4.189 -0.1999  0.0023 -0.0655
 7678SOL    HW123933   2.481   1.534   4.121 -1.0626 -1.1599 -1.6771
 7678SOL    HW223934   2.492   1.450   4.260  1.5454 -1.8671 -2.2537
 7679SOL     OW23935   1.985   4.380   4.539 -0.2951  0.7727  0.2382
 7679SOL    HW123936   1.925   4.300   4.542 -1.1243  1.3101 -1.1533
 7679SOL    HW223937   2.018   4.395   4.445 -1.7542  3.1725  0.0084
 7680SOL     OW23938   0.675   3.995   2.701 -0.0346 -0.1547 -0.5363
 7680SOL    HW123939   0.763   3.949   2.713  0.3913  1.0337  1.3637
 7680SOL    HW223940   0.602   3.938   2.738  0.2062 -0.2855 -0.2526
 7681SOL     OW23941   3.205   2.986   6.532 -0.2580 -0.1933 -0.4363
 7681SOL    HW123942   3.249   2.950   6.615  1.5044  0.0072 -1.2207
 7681SOL    HW223943   3.123   3.037   6.556 -0.1813 -0.7536  1.1091
 7682SOL     OW23944   3.763   1.076   1.419 -0.3355 -0.1473  0.4393
 7682SOL    HW123945   3.828   1.003   1.437  0.1739 -0.3335 -1.9161
 7682SOL    HW223946   3.769   1.104   1.324 -1.7471  1.7901  0.8499
 7683SOL     OW23947   1.422   3.902   3.311  0.0836 -0.3861  0.0345
 7683SOL    HW123948   1.483   3.938   3.240 -1.8609  1.2604 -0.8999
 7683SOL    HW223949   1.379   3.977   3.360 -0.8534 -1.4925  0.9710
 7684SOL     OW23950   6.199   4.443   1.696 -0.0103  0.5305 -0.3102
 7684SOL    HW123951   6.106   4.466   1.669  0.0441  0.8566 -0.2282
 7684SOL    HW223952   6.232   4.510   1.762  0.4403  0.6693 -0.6714
 7685SOL     OW23953   3.823   0.541   6.998 -0.2053 -0.1511 -0.2944
 7685SOL    HW123954   3.795   0.631   7.029  0.6477  0.5335 -1.4379
 7685SOL    HW223955   3.829   0.540   6.898  3.3886 -0.3339 -0.2039
 7686SOL     OW23956   5.870   0.458   4.566 -0.3930  0.3160  0.5499
 7686SOL    HW123957   5.943   0.391   4.559 -0.0272  0.7887 -0.2660
 7686SOL    HW223958   5.903   0.537   4.618 -0.1257  0.7844 -0.3226
 7687SOL     OW23959   6.234   2.015   0.987  0.1111  0.1145  0.1014
 7687SOL    HW123960   6.146   2.016   0.941 -0.4800 -0.8257  1.1513
 7687SOL    HW223961   6.286   1.935   0.959  0.3292  0.2792  0.0304
 7688SOL     OW23962   5.622   4.078   2.739 -0.1252  0.2059 -0.1148
 7688SOL    HW123963   5.596   4.037   2.652 -0.9494  0.6363 -0.0762
 7688SOL    HW223964   5.612   4.178   2.732 -0.0933  0.2465  0.4418
 7689SOL     OW23965   5.542   5.746   2.725  0.7381  0.0944  0.0153
 7689SOL    HW123966   5.629   5.751   2.775  1.2572  0.9273 -0.9535
 7689SOL    HW223967   5.472   5.797   2.775  0.7708 -0.6241  0.8249
 7690SOL     OW23968   0.938   4.149   1.297  0.3915 -0.5063 -1.5564
 7690SOL    HW123969   0.848   4.106   1.282 -0.0720  0.5352 -1.8698
 7690SOL    HW223970   0.969   4.191   1.212 -0.1788  1.6331 -0.7609
 7691SOL     OW23971   5.844   1.567   4.059  0.4086 -0.2572 -0.0041
 7691SOL    HW123972   5.756   1.552   4.015  0.9664 -0.5819 -1.0524
 7691SOL    HW223973   5.894   1.637   4.008 -0.4951  2.3174  2.4211
 7692SOL     OW23974   1.794   0.929   2.142 -0.2233  0.0197  0.3984
 7692SOL    HW123975   1.757   0.840   2.115 -0.6473  0.3659 -0.1913
 7692SOL    HW223976   1.725   0.979   2.196 -1.3636  1.3614 -2.1246
 7693SOL     OW23977   3.203   0.466   1.151  0.2242 -0.2621  0.2492
 7693SOL    HW123978   3.169   0.504   1.065  0.0401 -1.6613 -0.3298
 7693SOL    HW223979   3.137   0.400   1.187  1.2626 -1.3248  0.2904
 7694SOL     OW23980   2.687   2.593   0.837 -0.7311 -0.2581  0.3220
 7694SOL    HW123981   2.733   2.533   0.772 -1.2438 -0.9455  0.5775
 7694SOL    HW223982   2.678   2.685   0.799  0.5633 -0.1945  0.1470
 7695SOL     OW23983   4.813   6.005   4.549 -0.2340 -0.2446 -0.1773
 7695SOL    HW123984   4.722   5.974   4.521 -0.5746  0.3329  0.2876
 7695SOL    HW223985   4.873   6.007   4.469 -0.4888 -1.1082 -0.3979
 7696SOL     OW23986   1.381   0.819   4.478  0.3407 -0.3158  0.1700
 7696SOL    HW123987   1.359   0.741   4.536  1.0726 -1.4090 -0.9821
 7696SOL    HW223988   1.297   0.862   4.445 -0.0849  0.2676  1.9244
 7697SOL     OW23989   0.134   0.456   3.815 -0.1980 -0.0624 -0.5817
 7697SOL    HW123990   0.169   0.517   3.743  1.5367 -0.5927 -0.2517
 7697SOL    HW223991   0.062   0.398   3.778 -1.9727  2.1800 -0.8899
 7698SOL     OW23992   5.160   3.309   2.008  0.1455 -0.6352 -0.3666
 7698SOL    HW123993   5.176   3.244   2.082  2.5861  0.6575  0.3584
 7698SOL    HW223994   5.097   3.380   2.039  0.1410 -0.8035  0.0189
 7699SOL     OW23995   3.934   5.759   6.802  0.6286 -0.0160  0.2637
 7699SOL    HW123996   3.872   5.834   6.778  1.1507  0.5064  0.5174
 7699SOL    HW223997   4.026   5.780   6.768  1.4182  0.7785  2.6983
 7700SOL     OW23998   6.686   4.102   0.263  0.7517 -0.1673  0.0248
 7700SOL    HW123999   6.753   4.125   0.192  0.9272 -0.8286 -0.0253
 7700SOL    HW224000   6.629   4.026   0.232 -0.1551  0.5032 -0.0072
 7701SOL     OW24001   4.592   3.303   6.157  0.3856 -0.0461 -0.5915
 7701SOL    HW124002   4.529   3.248   6.102 -1.3801  0.9541  0.3345
 7701SOL    HW224003   4.561   3.398   6.158  0.7407  0.1001  1.5185
 7702SOL     OW24004   6.816   5.355   5.540 -0.0871  0.1537  0.3469
 7702SOL    HW124005   6.838   5.343   5.637  2.4762 -1.4166 -0.3200
 7702SOL    HW224006   6.755   5.433   5.529  1.8741  2.2573  2.9677
 7703SOL     OW24007   0.939   6.190   1.602 -0.3585 -0.0078 -0.0370
 7703SOL    HW124008   0.922   6.105   1.651  1.3591 -0.2077  0.2800
 7703SOL    HW224009   0.905   6.181   1.508 -2.0684 -0.2550  0.5596
 7704SOL     OW24010   1.002   3.619   5.570 -0.7506 -0.0601  0.1625
 7704SOL    HW124011   0.972   3.657   5.483  1.2425  0.3423 -0.3835
 7704SOL    HW224012   1.036   3.526   5.556 -0.8495 -0.1647  0.5962
 7705SOL     OW24013   1.736   4.207   6.519 -0.1820 -0.2868 -0.0164
 7705SOL    HW124014   1.814   4.153   6.550  0.2307 -0.5746 -1.4860
 7705SOL    HW224015   1.734   4.209   6.419 -2.0897 -0.3358 -0.0235
 7706SOL     OW24016   3.479   2.702   1.351  0.2302 -0.6300  0.3518
 7706SOL    HW124017   3.572   2.709   1.387  0.4946  0.3441 -0.4701
 7706SOL    HW224018   3.425   2.642   1.410  1.0553 -0.2951  1.4890
 7707SOL     OW24019   6.609   4.259   5.943 -0.1555  0.3440 -0.2973
 7707SOL    HW124020   6.628   4.323   5.869 -0.9833 -0.7746 -1.5162
 7707SOL    HW224021   6.644   4.169   5.919 -0.0253  0.0627  0.8872
 7708SOL     OW24022   1.203   6.619   3.488  0.1122  0.3734 -0.3667
 7708SOL    HW124023   1.209   6.560   3.408  2.2923 -0.7311  0.5446
 7708SOL    HW224024   1.192   6.714   3.458 -1.4798 -0.2221 -1.8758
 7709SOL     OW24025   0.832   5.434   0.939  0.0861  0.0279  0.6813
 7709SOL    HW124026   0.881   5.517   0.910  1.5340 -0.8073  0.6285
 7709SOL    HW224027   0.898   5.368   0.975 -0.9153 -1.4695 -0.1333
 7710SOL     OW24028   0.827   4.496   1.642  0.0230 -0.3483 -0.6145
 7710SOL    HW124029   0.739   4.523   1.603  0.2735 -0.1150 -1.0260
 7710SOL    HW224030   0.823   4.504   1.741  0.5407  2.6920 -0.7398
 7711SOL     OW24031   1.314   3.873   4.191 -0.5364 -0.1216 -0.5661
 7711SOL    HW124032   1.394   3.834   4.145 -1.1134 -0.9821 -0.8666
 7711SOL    HW224033   1.328   3.871   4.290  0.2606  0.7484 -0.6443
 7712SOL     OW24034   1.896   3.387   6.574  0.4897  0.1984  0.2995
 7712SOL    HW124035   1.989   3.355   6.596 -0.1838 -1.3204  1.1081
 7712SOL    HW224036   1.887   3.398   6.476  1.2882 -0.4664  0.1388
 7713SOL     OW24037   1.509   4.914   6.123  0.7414  0.0524 -0.5270
 7713SOL    HW124038   1.600   4.886   6.153  0.3405  0.7313  1.4486
 7713SOL    HW224039   1.456   4.833   6.097  1.5055 -0.4627 -0.5037
 7714SOL     OW24040   5.719   0.844   4.257  0.5144 -0.7490 -0.5292
 7714SOL    HW124041   5.800   0.861   4.313  0.2968 -0.3508 -0.3286
 7714SOL    HW224042   5.640   0.826   4.317 -0.0216  1.0365 -0.6490
 7715SOL     OW24043   2.910   4.176   0.053  0.2854 -0.2698 -0.1986
 7715SOL    HW124044   2.894   4.269   0.020 -0.7136 -0.4709 -0.2970
 7715SOL    HW224045   2.999   4.172   0.098  0.3762  0.7085 -0.2698
 7716SOL     OW24046   1.368   0.625   1.684  0.2433 -0.5786  0.1540
 7716SOL    HW124047   1.341   0.657   1.593 -1.6506  0.6587  1.0862
 7716SOL    HW224048   1.435   0.551   1.675  0.0587 -0.5280 -2.2288
 7717SOL     OW24049   1.441   1.059   6.607 -0.2255 -0.7474  0.3152
 7717SOL    HW124050   1.514   1.100   6.662  0.4305 -1.0530 -0.3180
 7717SOL    HW224051   1.354   1.065   6.657 -0.2612  1.8430  0.0371
 7718SOL     OW24052   0.662   3.572   3.437 -0.4856  0.1909 -0.0360
 7718SOL    HW124053   0.687   3.590   3.342 -0.8502  0.8752 -0.0036
 7718SOL    HW224054   0.708   3.638   3.497 -0.9378  0.3068  0.1875
 7719SOL     OW24055   1.454   6.047   5.025 -0.2134  0.1525 -1.1078
 7719SOL    HW124056   1.494   6.026   4.936  1.1465 -1.5638 -0.1331
 7719SOL    HW224057   1.397   5.971   5.055  0.0046  0.3664 -0.1259
 7720SOL     OW24058   4.252   1.700   0.050  0.2594  0.6144 -0.4300
 7720SOL    HW124059   4.224   1.795   0.068 -0.4177  0.1741  1.0743
 7720SOL    HW224060   4.316   1.670   0.121  0.8060  0.0750 -1.1372
 7721SOL     OW24061   4.264   6.033   1.622  0.1913  0.1200  0.4646
 7721SOL    HW124062   4.224   6.123   1.608 -0.2142 -0.0899  0.2587
 7721SOL    HW224063   4.276   5.987   1.534  0.6598  0.0834  0.5445
 7722SOL     OW24064   2.151   6.086   5.078  0.0190 -0.1881 -0.2375
 7722SOL    HW124065   2.182   6.179   5.058 -2.3984  1.0451  1.3470
 7722SOL    HW224066   2.068   6.067   5.026  1.6409 -2.3822 -2.2521
 7723SOL     OW24067   6.650   3.791   5.674 -0.1201 -0.1154 -0.1281
 7723SOL    HW124068   6.556   3.821   5.685  0.0514  0.2459  0.4240
 7723SOL    HW224069   6.660   3.698   5.712  0.0200  0.3428  0.9874
 7724SOL     OW24070   6.662   3.233   5.873 -0.9586 -0.6790  0.3324
 7724SOL    HW124071   6.598   3.215   5.948 -1.6522 -0.9205 -0.3069
 7724SOL    HW224072   6.708   3.148   5.848 -0.7839 -0.6136  0.4291
 7725SOL     OW24073   4.821   2.986   3.700  0.1602 -0.2447 -0.0886
 7725SOL    HW124074   4.777   2.993   3.610  0.3236 -0.7525 -0.2128
 7725SOL    HW224075   4.803   2.896   3.738 -1.7008  0.6643  1.3470
 7726SOL     OW24076   2.474   3.764   1.528  0.4264 -0.5565 -0.3721
 7726SOL    HW124077   2.555   3.713   1.500  1.6210  0.4395  1.0938
 7726SOL    HW224078   2.392   3.722   1.489  1.6208 -1.6929 -1.7452
 7727SOL     OW24079   6.393   5.929   2.305 -0.1489 -0.1126 -0.7838
 7727SOL    HW124080   6.489   5.930   2.275  0.5029  1.2100  1.0755
 7727SOL    HW224081   6.386   5.875   2.389 -0.6105  1.3163  0.1412
 7728SOL     OW24082   2.094   3.186   0.886 -0.1863  0.5358  0.6475
 7728SOL    HW124083   2.119   3.191   0.983  1.0209  1.1455  0.3275
 7728SOL    HW224084   2.145   3.112   0.842 -0.9978  0.0270  0.5410
 7729SOL     OW24085   0.639   1.544   2.865 -0.3123 -0.2034 -0.2211
 7729SOL    HW124086   0.642   1.516   2.961 -1.6580 -0.1659 -0.1425
 7729SOL    HW224087   0.577   1.484   2.815 -0.2211  0.2559 -0.8999
 7730SOL     OW24088   5.841   1.872   6.070  0.5833  0.0174 -0.2097
 7730SOL    HW124089   5.842   1.801   6.140 -0.1722 -0.0124 -0.2245
 7730SOL    HW224090   5.935   1.897   6.047  0.9005 -1.5647 -0.7999
 7731SOL     OW24091   0.427   1.383   5.264 -0.8550 -0.1819  0.3153
 7731SOL    HW124092   0.371   1.465   5.265 -0.8029 -0.1248 -0.6370
 7731SOL    HW224093   0.474   1.373   5.352 -0.9483  0.7428  0.4740
 7732SOL     OW24094   3.487   1.063   6.683  0.0163  0.4007  0.3013
 7732SOL    HW124095   3.439   1.127   6.623  1.1994  1.8023  0.7700
 7732SOL    HW224096   3.547   1.004   6.629  0.0389  0.7146 -0.0195
 7733SOL     OW24097   6.139   0.745   0.977  0.1359 -0.0553 -0.4476
 7733SOL    HW124098   6.099   0.655   0.999  0.5783  0.0507  0.8278
 7733SOL    HW224099   6.172   0.744   0.883  0.4449 -1.3550 -0.3455
 7734SOL     OW24100   3.196   3.592   2.477  0.3284  0.1810 -0.0693
 7734SOL    HW124101   3.153   3.593   2.568 -2.1765 -3.8399 -0.9432
 7734SOL    HW224102   3.260   3.515   2.471  0.6092  0.5037 -1.6389
 7735SOL     OW24103   2.117   6.747   0.864 -0.1283  0.0256  0.1912
 7735SOL    HW124104   2.189   6.688   0.902 -0.0781 -1.0356 -1.4196
 7735SOL    HW224105   2.145   6.842   0.870  0.6827 -0.2531  1.0762
 7736SOL     OW24106   3.636   6.746   6.185  0.0907 -0.2470 -0.9768
 7736SOL    HW124107   3.712   6.788   6.234 -0.8729  0.5108 -0.0764
 7736SOL    HW224108   3.658   6.740   6.088  0.5446  1.7142 -1.0303
 7737SOL     OW24109   4.048   6.665   5.203 -0.1886 -0.2345 -0.4290
 7737SOL    HW124110   4.142   6.634   5.192  0.2163  0.8629 -0.1054
 7737SOL    HW224111   4.046   6.754   5.248 -1.4482 -0.8791  0.8887
 7738SOL     OW24112   3.120   1.068   4.862  0.1592 -0.0074 -0.0172
 7738SOL    HW124113   3.053   1.045   4.932  0.3393  0.2107  0.2299
 7738SOL    HW224114   3.078   1.126   4.793  0.5078  1.5691  1.0270
 7739SOL     OW24115   1.543   2.818   6.776  0.7213 -0.1730  0.3980
 7739SOL    HW124116   1.629   2.819   6.725  1.9815 -1.6077  2.3762
 7739SOL    HW224117   1.544   2.744   6.843 -2.1724 -0.3717  0.3510
 7740SOL     OW24118   3.095   1.521   6.460 -0.8951 -0.2302 -0.5200
 7740SOL    HW124119   3.062   1.598   6.404  2.3885  0.8530 -1.1628
 7740SOL    HW224120   3.149   1.556   6.536 -0.5917 -1.9014  0.0642
 7741SOL     OW24121   6.070   5.377   6.152 -0.2030 -0.0084  0.1692
 7741SOL    HW124122   6.075   5.294   6.097  1.0749  0.2377 -0.1141
 7741SOL    HW224123   6.050   5.455   6.092  0.8380  0.2078  0.0881
 7742SOL     OW24124   4.964   2.583   5.126  0.1103  0.1428 -0.9142
 7742SOL    HW124125   4.871   2.564   5.096  0.2463  0.3686 -1.4886
 7742SOL    HW224126   4.985   2.680   5.114  0.5058  0.0470 -1.0330
 7743SOL     OW24127   4.412   2.601   6.332 -0.5695  0.3364 -0.1376
 7743SOL    HW124128   4.363   2.514   6.338 -1.8552  0.9317 -1.3785
 7743SOL    HW224129   4.346   2.676   6.326  0.4764  1.1962 -1.4812
 7744SOL     OW24130   1.273   6.753   3.941 -0.3398  0.5954  0.2042
 7744SOL    HW124131   1.304   6.677   3.882 -0.4949 -0.9005  1.9560
 7744SOL    HW224132   1.181   6.781   3.913 -1.3029 -1.5502  0.9701
 7745SOL     OW24133   1.701   5.222   6.546 -0.2248 -0.5931  0.8953
 7745SOL    HW124134   1.700   5.123   6.554  1.5592 -0.8737 -1.3197
 7745SOL    HW224135   1.773   5.260   6.605 -0.2601 -0.7087  1.0122
 7746SOL     OW24136   6.930   6.840   0.751  0.2928 -0.1353 -0.0098
 7746SOL    HW124137   6.888   6.756   0.785  0.3456  0.3738  1.3877
 7746SOL    HW224138   6.973   6.823   0.663  2.8586 -2.3740  1.5217
 7747SOL     OW24139   6.487   6.412   2.210 -0.4323  0.5939  0.5873
 7747SOL    HW124140   6.536   6.414   2.123  0.1370  0.6868  0.9038
 7747SOL    HW224141   6.445   6.501   2.228  0.3147  0.8895  0.8886
 7748SOL     OW24142   6.544   1.713   5.819  1.0090  0.3892  0.2257
 7748SOL    HW124143   6.556   1.684   5.724  0.3700  1.8638 -0.3339
 7748SOL    HW224144   6.478   1.652   5.864 -0.5360  1.0862 -0.9999
 7749SOL     OW24145   3.676   3.364   3.696 -0.0342 -0.1624 -0.4407
 7749SOL    HW124146   3.769   3.328   3.693 -0.0243 -0.0760 -1.3146
 7749SOL    HW224147   3.616   3.307   3.641 -0.0531  1.0192 -1.6925
 7750SOL     OW24148   5.230   4.669   6.796  0.1685 -0.1357 -0.2067
 7750SOL    HW124149   5.272   4.595   6.850  0.5647  0.0166 -0.3108
 7750SOL    HW224150   5.133   4.676   6.822 -0.0928 -1.2463 -0.7848
 7751SOL     OW24151   6.138   0.920   2.805 -0.2953 -0.0455  0.1594
 7751SOL    HW124152   6.138   0.873   2.717  0.9793  0.6525 -0.2391
 7751SOL    HW224153   6.057   0.893   2.858 -1.7688  0.4828 -1.7248
 7752SOL     OW24154   4.904   4.215   7.006  0.0833  0.0871 -0.5026
 7752SOL    HW124155   4.868   4.212   6.912  0.1370 -2.0658 -0.4875
 7752SOL    HW224156   4.967   4.140   7.020  0.5373  0.7291  1.1101
 7753SOL     OW24157   3.561   2.102   4.883  0.2737 -0.0193  0.4704
 7753SOL    HW124158   3.573   2.086   4.981 -0.8418  0.7533  0.7469
 7753SOL    HW224159   3.465   2.119   4.863  0.3825 -0.7816 -0.8669
 7754SOL     OW24160   5.126   1.481   2.187 -0.7326  0.6382 -0.0606
 7754SOL    HW124161   5.107   1.387   2.157 -1.1419 -0.2529  2.7606
 7754SOL    HW224162   5.075   1.545   2.130 -0.4114 -0.7794 -2.0880
 7755SOL     OW24163   0.687   1.183   5.176  0.1065  0.1521  0.4671
 7755SOL    HW124164   0.599   1.155   5.213 -0.0654  1.5213  1.1732
 7755SOL    HW224165   0.694   1.155   5.080 -0.8853 -0.4073  0.5533
 7756SOL     OW24166   4.496   6.550   2.831 -0.5750 -0.1963  0.8474
 7756SOL    HW124167   4.521   6.586   2.921 -2.8359 -1.1955  1.9572
 7756SOL    HW224168   4.453   6.461   2.842 -0.0857 -0.7644 -1.3474
 7757SOL     OW24169   4.563   2.560   3.946  0.0901  0.0176 -0.3014
 7757SOL    HW124170   4.510   2.500   3.885 -0.8104  0.0769  0.3991
 7757SOL    HW224171   4.537   2.541   4.041  1.0174  0.3667  0.0275
 7758SOL     OW24172   2.512   0.308   6.769  0.3847  0.6909  0.1293
 7758SOL    HW124173   2.442   0.291   6.700 -1.5783 -0.5303  2.2903
 7758SOL    HW224174   2.484   0.385   6.826  0.8197  0.2251  0.9873
 7759SOL     OW24175   1.667   6.624   3.446  0.0389  0.2621  0.2375
 7759SOL    HW124176   1.581   6.605   3.399  0.0130 -3.1622  1.3817
 7759SOL    HW224177   1.740   6.572   3.404  1.0859  1.2462  0.7835
 7760SOL     OW24178   5.323   3.187   2.845  0.6629  0.0239 -0.4330
 7760SOL    HW124179   5.286   3.099   2.875  1.0285  0.4784  1.4702
 7760SOL    HW224180   5.327   3.250   2.923  3.9026  0.5204 -0.8771
 7761SOL     OW24181   4.179   2.394   6.350 -0.0398  0.0031  0.5726
 7761SOL    HW124182   4.113   2.319   6.343 -0.0375  0.0729 -0.2848
 7761SOL    HW224183   4.237   2.380   6.430 -1.5149  0.2799  1.7181
 7762SOL     OW24184   1.573   1.929   2.023 -0.1208  0.0594  0.7925
 7762SOL    HW124185   1.558   2.004   1.958 -0.0994  1.2362  2.0923
 7762SOL    HW224186   1.587   1.844   1.972  0.4632  1.0191 -0.7534
 7763SOL     OW24187   1.939   1.959   0.193  0.2817  0.8149 -0.5141
 7763SOL    HW124188   2.024   1.936   0.239  0.2243  0.6247 -0.5032
 7763SOL    HW224189   1.958   1.988   0.099  0.2228 -0.8496 -1.0761
 7764SOL     OW24190   3.717   3.455   0.230  0.0559  0.0813 -0.1460
 7764SOL    HW124191   3.662   3.538   0.240  0.2767  0.5466 -2.2740
 7764SOL    HW224192   3.657   3.376   0.223 -0.4177  0.5746 -2.3810
 7765SOL     OW24193   0.004   2.351   1.508  0.2977  0.0040 -0.1259
 7765SOL    HW124194   0.099   2.376   1.524 -0.4005  2.0751  1.1224
 7765SOL    HW224195  -0.029   2.295   1.584  0.2805 -0.0224 -0.1523
 7766SOL     OW24196   6.737   5.693   0.983 -0.3215 -0.3469 -0.3160
 7766SOL    HW124197   6.739   5.598   0.955  0.6973 -0.6443  0.6768
 7766SOL    HW224198   6.668   5.705   1.055 -0.9728 -0.1575 -0.9508
 7767SOL     OW24199   1.542   1.451   6.071  0.0517  0.2596 -0.2633
 7767SOL    HW124200   1.543   1.484   6.166 -1.0879  1.0462 -0.4979
 7767SOL    HW224201   1.483   1.371   6.064  0.9886 -0.4638 -0.1283
 7768SOL     OW24202   5.003   3.208   6.563 -0.6644 -0.6127  0.1023
 7768SOL    HW124203   4.909   3.175   6.556 -1.5077  1.0643  2.6157
 7768SOL    HW224204   5.006   3.292   6.617  2.0283  0.7093 -1.8498
 7769SOL     OW24205   5.158   2.075   4.680 -0.3253  0.4043  0.1623
 7769SOL    HW124206   5.216   2.035   4.750  0.3097 -0.6665 -0.9309
 7769SOL    HW224207   5.151   2.174   4.695 -0.7565  0.1207  2.0852
 7770SOL     OW24208   4.293   0.012   1.352  0.5455 -0.4431 -0.3476
 7770SOL    HW124209   4.276  -0.086   1.341 -0.6795 -0.7852  3.2038
 7770SOL    HW224210   4.391   0.029   1.358  0.7342 -1.7657  0.8020
 7771SOL     OW24211   1.711   1.313   3.736  0.1572 -0.0117 -0.5252
 7771SOL    HW124212   1.684   1.409   3.740 -0.0638 -0.0234 -1.5738
 7771SOL    HW224213   1.671   1.264   3.813  2.0863  1.1609  1.3562
 7772SOL     OW24214   4.700   2.193   6.570  0.1659  0.6752  0.1665
 7772SOL    HW124215   4.767   2.168   6.639 -0.0135  0.0266  0.1098
 7772SOL    HW224216   4.711   2.136   6.489 -0.6692  0.3148  0.2897
 7773SOL     OW24217   4.171   4.265   6.244  0.3198 -0.0535  0.0409
 7773SOL    HW124218   4.202   4.290   6.152  0.0613  0.2782  0.0430
 7773SOL    HW224219   4.202   4.172   6.265  0.2926 -0.1699 -0.4224
 7774SOL     OW24220   2.338   1.335   0.865  0.6582  0.4977 -0.3266
 7774SOL    HW124221   2.317   1.237   0.872  2.3409  0.0257 -1.2438
 7774SOL    HW224222   2.311   1.368   0.775 -0.9883  1.2108  0.3843
 7775SOL     OW24223   0.807   6.894   0.759  0.8056  0.2236  0.6752
 7775SOL    HW124224   0.715   6.879   0.724  0.5095  1.5226  0.8469
 7775SOL    HW224225   0.828   6.992   0.758  1.9503  0.0087  1.2321
 7776SOL     OW24226   2.232   4.730   2.556 -0.4972 -0.0828  0.5375
 7776SOL    HW124227   2.171   4.685   2.491  1.9095 -0.8390 -1.3522
 7776SOL    HW224228   2.246   4.670   2.634 -1.9369  0.0074  0.8989
 7777SOL     OW24229   0.691   1.755   0.390  0.3621  0.3179 -0.1209
 7777SOL    HW124230   0.787   1.727   0.396  0.2063 -0.3181 -0.4551
 7777SOL    HW224231   0.659   1.747   0.296 -0.3428 -0.6266  0.1754
 7778SOL     OW24232   5.687   2.499   3.571  0.0587 -0.0852 -0.0065
 7778SOL    HW124233   5.676   2.407   3.533  1.3525  0.5032 -1.9862
 7778SOL    HW224234   5.600   2.547   3.568  0.2242  0.2993 -3.4680
 7779SOL     OW24235   3.930   3.230   5.669  0.4761 -0.1526  0.1927
 7779SOL    HW124236   3.914   3.213   5.766 -1.4623  2.0195  0.3264
 7779SOL    HW224237   3.861   3.182   5.615 -0.9555  1.7856  0.1952
 7780SOL     OW24238   1.466   6.840   5.327  0.0016  0.2028  0.7025
 7780SOL    HW124239   1.511   6.854   5.239  2.3841 -0.0265  1.8217
 7780SOL    HW224240   1.383   6.897   5.330 -0.9115 -0.7562 -2.1283
 7781SOL     OW24241   1.706   3.603   4.918  0.2724  0.0787 -0.1762
 7781SOL    HW124242   1.769   3.657   4.863  0.2396 -1.3999 -1.7537
 7781SOL    HW224243   1.612   3.633   4.902  0.3671  0.6101  0.2272
 7782SOL     OW24244   5.202   3.216   5.780  0.4721 -0.2394  0.5226
 7782SOL    HW124245   5.250   3.266   5.708  1.2182  0.0787  1.2279
 7782SOL    HW224246   5.129   3.161   5.739 -1.9883  3.1862 -0.1078
 7783SOL     OW24247   4.310   5.066   6.447 -0.4023 -0.4261 -0.0571
 7783SOL    HW124248   4.354   4.989   6.401 -1.5925 -0.9847 -0.2851
 7783SOL    HW224249   4.360   5.086   6.532  1.5922  0.3922 -1.3332
 7784SOL     OW24250   5.848   4.395   2.519  0.2356 -0.1989  0.2787
 7784SOL    HW124251   5.945   4.419   2.524  0.3195 -0.1068 -1.2018
 7784SOL    HW224252   5.836   4.318   2.457 -0.7172  0.3389 -0.2365
 7785SOL     OW24253   1.788   6.693   5.683  0.3881 -0.7413 -0.0377
 7785SOL    HW124254   1.775   6.716   5.779 -0.2132 -0.4542 -0.1819
 7785SOL    HW224255   1.882   6.662   5.668  0.4545 -0.8852  0.6580
 7786SOL     OW24256   3.404   3.099   5.060 -0.4959 -0.0791  0.2316
 7786SOL    HW124257   3.337   3.113   5.133 -0.6289 -0.7039  0.2359
 7786SOL    HW224258   3.373   3.026   5.000 -1.0529  1.3101 -1.2508
 7787SOL     OW24259   2.095   2.657   4.325 -0.8477  0.3175  0.5449
 7787SOL    HW124260   2.101   2.558   4.342 -0.4206  0.3223  0.4350
 7787SOL    HW224261   2.003   2.689   4.348 -2.2724 -0.7705 -2.9467
 7788SOL     OW24262   1.931   0.980   1.145  0.7470 -0.3791  0.4135
 7788SOL    HW124263   1.977   1.063   1.114  0.2969 -0.2880 -0.0315
 7788SOL    HW224264   1.918   0.984   1.244 -0.0480  0.4906  0.2942
 7789SOL     OW24265   0.953   2.008   0.654  0.0850 -0.0230 -0.2400
 7789SOL    HW124266   0.934   1.935   0.720  1.5996 -0.4506 -0.2310
 7789SOL    HW224267   1.037   1.986   0.604 -1.2578  0.0251 -2.6900
 7790SOL     OW24268   6.816   3.425   2.287  0.1938 -0.4427  0.2804
 7790SOL    HW124269   6.738   3.362   2.288  0.6127 -0.9566  0.5616
 7790SOL    HW224270   6.884   3.396   2.354 -0.4698  1.3939  1.8536
 7791SOL     OW24271   6.157   4.822   5.922  0.0451  0.4046  0.2225
 7791SOL    HW124272   6.124   4.789   6.011 -1.7694  0.9687 -0.1953
 7791SOL    HW224273   6.132   4.918   5.911 -0.0718  0.2436 -1.0411
 7792SOL     OW24274   2.162   5.912   0.090  0.2557  0.2965  0.2072
 7792SOL    HW124275   2.226   5.879   0.020  0.4284  3.1174 -1.0979
 7792SOL    HW224276   2.186   5.873   0.179  2.1351 -0.7408 -0.7026
 7793SOL     OW24277   2.197   0.365   6.809 -0.2214  0.3962  0.3133
 7793SOL    HW124278   2.217   0.378   6.712  1.7609 -0.3012  0.5728
 7793SOL    HW224279   2.131   0.434   6.840 -1.5201  0.1237 -1.6845
 7794SOL     OW24280   4.946   5.059   1.958  0.4548  0.0205  0.1013
 7794SOL    HW124281   5.007   5.000   1.905  0.6744 -0.2326  0.6361
 7794SOL    HW224282   4.854   5.021   1.956  0.8464 -1.1203  1.5768
 7795SOL     OW24283   1.149   5.517   6.153 -0.3201  0.3491  0.4298
 7795SOL    HW124284   1.070   5.563   6.193  0.4574  2.8323 -0.6543
 7795SOL    HW224285   1.138   5.512   6.053 -0.1071 -1.3692  0.4660
 7796SOL     OW24286   4.178   3.305   1.920 -0.7227 -0.3471 -0.5226
 7796SOL    HW124287   4.147   3.315   1.826 -1.3783  0.5633 -0.2316
 7796SOL    HW224288   4.268   3.262   1.922 -0.4521  0.1392 -1.5920
 7797SOL     OW24289   2.886   5.852   4.754 -0.2352 -0.0188  0.0968
 7797SOL    HW124290   2.976   5.863   4.712 -0.8875  0.0992 -1.3200
 7797SOL    HW224291   2.892   5.783   4.826  1.3378  1.1891  1.1827
 7798SOL     OW24292   5.402   5.151   5.746 -0.0205  0.1905  0.5197
 7798SOL    HW124293   5.488   5.201   5.738 -0.8481  1.7240  0.9224
 7798SOL    HW224294   5.334   5.190   5.684 -1.4628  1.3339  2.6992
 7799SOL     OW24295   6.379   6.289   0.237 -0.1120 -0.0539 -0.3646
 7799SOL    HW124296   6.299   6.236   0.208  0.0432 -0.7007  0.3750
 7799SOL    HW224297   6.430   6.238   0.306  1.9432 -0.4534 -2.0873
 7800SOL     OW24298   0.167   4.770   2.148 -0.4312  0.0694  0.4604
 7800SOL    HW124299   0.260   4.746   2.173  0.3576 -0.6207 -2.6932
 7800SOL    HW224300   0.118   4.688   2.117 -1.1242  0.8606 -0.6285
 7801SOL     OW24301   4.098   2.328   5.305  0.3217  0.4139  0.3035
 7801SOL    HW124302   4.114   2.336   5.403  2.9116 -0.2233  0.0282
 7801SOL    HW224303   4.128   2.412   5.259  0.1014  0.3082 -0.0407
 7802SOL     OW24304   0.123   2.954   0.321  0.3667 -0.4698 -0.1042
 7802SOL    HW124305   0.217   2.927   0.300  1.5790  1.0770  2.7576
 7802SOL    HW224306   0.086   2.895   0.392  0.5119  0.9619  1.2296
 7803SOL     OW24307   3.351   2.902   0.785 -0.1229  0.2072 -0.3230
 7803SOL    HW124308   3.422   2.832   0.799 -1.6160 -1.1013  1.0861
 7803SOL    HW224309   3.295   2.910   0.867  0.1393  3.3219 -0.3338
 7804SOL     OW24310   4.917   1.077   4.082 -0.0712 -0.3966 -0.2027
 7804SOL    HW124311   4.872   1.132   4.151 -1.2315 -0.8392 -0.5925
 7804SOL    HW224312   4.986   1.018   4.125  0.6752  0.8008  0.3020
 7805SOL     OW24313   5.518   4.351   1.141  0.1032 -0.4399 -0.0371
 7805SOL    HW124314   5.614   4.374   1.131 -0.6373  2.7671 -1.0174
 7805SOL    HW224315   5.494   4.348   1.238  0.9126  0.2475  0.1934
 7806SOL     OW24316   6.272   3.902   0.741 -0.1663  0.1561  0.3950
 7806SOL    HW124317   6.364   3.905   0.780 -0.4157  0.3187  0.9662
 7806SOL    HW224318   6.273   3.947   0.651  0.2837  0.2534  0.4457
 7807SOL     OW24319   1.231   5.579   0.407 -0.8316  0.1778 -0.0371
 7807SOL    HW124320   1.244   5.504   0.342 -1.7682 -0.2335  0.2445
 7807SOL    HW224321   1.134   5.599   0.417 -0.6999  0.2909  1.1788
 7808SOL     OW24322   6.072   2.282   4.859  0.0338  0.4764 -0.0165
 7808SOL    HW124323   6.115   2.209   4.806  1.2648  1.4987 -0.4767
 7808SOL    HW224324   6.053   2.360   4.799 -2.4447  0.1150  0.1882
 7809SOL     OW24325   0.429   4.584   5.331 -0.0174 -0.5690  0.5257
 7809SOL    HW124326   0.494   4.654   5.300  0.0559 -0.7617  0.2454
 7809SOL    HW224327   0.338   4.605   5.296 -0.2363  0.0252  1.3934
 7810SOL     OW24328   2.881   1.177   5.965  0.9547 -0.0252  0.0208
 7810SOL    HW124329   2.916   1.084   5.969  0.9172 -0.0092  0.9433
 7810SOL    HW224330   2.858   1.208   6.057  0.7259  0.8052 -0.3053
 7811SOL     OW24331   6.224   3.656   6.717  0.0501  0.4985  0.6558
 7811SOL    HW124332   6.196   3.671   6.812 -0.4402  1.8032  0.3229
 7811SOL    HW224333   6.179   3.723   6.658  2.2186  1.2904 -0.1943
 7812SOL     OW24334   1.647   1.407   4.733 -0.6730 -0.2705  0.7715
 7812SOL    HW124335   1.673   1.501   4.716 -0.7617 -0.1421  1.3216
 7812SOL    HW224336   1.725   1.355   4.768 -0.6142 -0.4108  0.4348
 7813SOL     OW24337   0.313   1.122   0.229  0.3045 -0.6187 -0.1087
 7813SOL    HW124338   0.305   1.028   0.261 -0.8808 -0.6794 -0.5521
 7813SOL    HW224339   0.408   1.152   0.238  0.8009 -2.0286 -0.4565
 7814SOL     OW24340   2.122   3.353   2.567  0.5055 -0.1083 -0.2362
 7814SOL    HW124341   2.169   3.285   2.511  0.1060 -0.7504  0.1924
 7814SOL    HW224342   2.081   3.309   2.646  0.0336  0.5973 -0.0709
 7815SOL     OW24343   3.961   1.613   6.458 -0.6633 -0.4566  0.0051
 7815SOL    HW124344   3.872   1.657   6.448 -0.6593 -0.2963  0.6596
 7815SOL    HW224345   3.995   1.586   6.367 -1.8913 -1.5611 -0.1552
 7816SOL     OW24346   6.712   3.551   4.640 -0.5694 -0.3646 -0.1738
 7816SOL    HW124347   6.697   3.568   4.543  1.2363  0.8837 -0.2882
 7816SOL    HW224348   6.626   3.525   4.684 -2.1978  2.5146 -1.3960
 7817SOL     OW24349   5.842   2.435   6.709  0.0774 -0.2165 -0.1015
 7817SOL    HW124350   5.895   2.483   6.638 -0.0843 -2.0351 -1.5116
 7817SOL    HW224351   5.822   2.499   6.783  1.5244  1.3676 -0.9877
 7818SOL     OW24352   6.038   4.046   4.572  0.0354  0.2926 -0.4668
 7818SOL    HW124353   6.103   4.046   4.648 -1.2092 -2.3881  0.7336
 7818SOL    HW224354   6.084   4.078   4.489  1.7527  2.2077  1.0915
 7819SOL     OW24355   7.003   1.225   5.970  0.1059  0.1077  0.4360
 7819SOL    HW124356   6.925   1.164   5.955  0.4048  0.0272 -0.9053
 7819SOL    HW224357   7.010   1.290   5.894  1.0389  0.4510  0.8018
 7820SOL     OW24358   1.381   5.716   4.496  0.8962  0.4249 -0.3254
 7820SOL    HW124359   1.396   5.741   4.401  1.7495  2.4717  0.2972
 7820SOL    HW224360   1.299   5.659   4.503  0.1032  1.2667 -2.1446
 7821SOL     OW24361   2.838   5.105   0.952  0.0204  0.1478 -0.1630
 7821SOL    HW124362   2.937   5.111   0.964 -0.0990  1.6699  0.2180
 7821SOL    HW224363   2.814   5.127   0.857  0.1265 -1.4891 -0.5957
 7822SOL     OW24364   0.431   4.995   4.239  0.2166  0.2687  0.2640
 7822SOL    HW124365   0.397   4.966   4.149  3.4481  0.2439 -1.0680
 7822SOL    HW224366   0.385   5.079   4.267 -1.2105  0.0012 -1.1425
 7823SOL     OW24367   3.676   3.998   5.207 -0.4979  0.1375  0.0972
 7823SOL    HW124368   3.673   3.904   5.240 -2.4206  0.9943  2.7812
 7823SOL    HW224369   3.616   4.008   5.128 -0.8319 -0.7355  0.2316
 7824SOL     OW24370   1.138   2.756   5.189  0.5256  0.3085 -0.4784
 7824SOL    HW124371   1.238   2.753   5.183  0.6954  0.0722  1.5915
 7824SOL    HW224372   1.109   2.850   5.204  0.3566  0.4897 -1.8692
 7825SOL     OW24373   1.697   1.854   1.157 -0.1218 -0.6062  0.0253
 7825SOL    HW124374   1.693   1.879   1.254 -1.2056  0.5741 -0.3057
 7825SOL    HW224375   1.680   1.756   1.148 -0.2573 -0.6874  1.0051
 7826SOL     OW24376   6.671   4.944   6.548 -0.5442  0.0628  0.1055
 7826SOL    HW124377   6.579   4.935   6.509  0.3702  0.8989 -2.4535
 7826SOL    HW224378   6.734   4.884   6.499  0.4285  0.1018  1.2821
 7827SOL     OW24379   0.254   4.270   3.080  0.3464  0.0538  0.8149
 7827SOL    HW124380   0.270   4.270   3.178 -0.1429  1.3191  0.9167
 7827SOL    HW224381   0.308   4.343   3.037 -0.3769  0.3135  0.3222
 7828SOL     OW24382   0.840   5.325   4.352 -0.1686 -0.0830  0.0501
 7828SOL    HW124383   0.762   5.275   4.388 -0.3896  0.2313  0.0061
 7828SOL    HW224384   0.829   5.338   4.253  0.4274 -0.9326 -0.1483
 7829SOL     OW24385   4.603   5.959   0.648 -0.8149  0.3704 -0.2047
 7829SOL    HW124386   4.542   6.033   0.620  0.4661  1.0803 -1.2828
 7829SOL    HW224387   4.551   5.889   0.696 -2.3550  1.2181 -0.5619
 7830SOL     OW24388   2.021   4.977   4.241 -0.0535 -0.3383  0.0801
 7830SOL    HW124389   1.931   4.965   4.198  0.6988  0.5176 -1.8315
 7830SOL    HW224390   2.092   4.940   4.182  0.9546 -0.1623  1.1327
 7831SOL     OW24391   2.488   0.535   2.126  0.2823  0.1391  0.4615
 7831SOL    HW124392   2.431   0.520   2.045  0.6632  1.6326 -0.1197
 7831SOL    HW224393   2.429   0.546   2.206 -0.3201  1.8528 -0.1611
 7832SOL     OW24394   6.343   0.915   4.380 -0.1711 -0.0209 -0.3758
 7832SOL    HW124395   6.379   0.823   4.397  0.9003  0.2664 -1.0201
 7832SOL    HW224396   6.284   0.942   4.456  0.7332 -0.6314  0.5668
 7833SOL     OW24397   2.319   1.788   3.190  0.1007 -0.0896  0.6945
 7833SOL    HW124398   2.332   1.794   3.091  2.6677  0.2245  0.9842
 7833SOL    HW224399   2.312   1.691   3.217  0.7005 -0.2492  0.3122
 7834SOL     OW24400   0.386   2.905   3.136  0.2185 -0.2932 -0.0962
 7834SOL    HW124401   0.399   2.822   3.189  0.2949  0.6252  1.3822
 7834SOL    HW224402   0.449   2.976   3.169  0.3228  0.2974 -1.4731
 7835SOL     OW24403   3.119   3.487   5.170  0.5337 -0.5577 -0.1790
 7835SOL    HW124404   3.027   3.508   5.203  0.2244 -1.6941 -0.2662
 7835SOL    HW224405   3.163   3.570   5.136 -0.9475 -0.2129 -1.3290
 7836SOL     OW24406   3.531   4.050   4.984 -0.1191  0.0864  0.2981
 7836SOL    HW124407   3.581   4.098   4.912 -0.6265  2.3578  1.3911
 7836SOL    HW224408   3.438   4.033   4.953 -0.0841  0.2691  0.0868
 7837SOL     OW24409   0.841   3.626   6.724 -0.4202 -0.8573 -0.0302
 7837SOL    HW124410   0.785   3.570   6.663 -1.2292  0.8217 -0.9005
 7837SOL    HW224411   0.914   3.669   6.672  0.9504 -2.0117  0.8637
 7838SOL     OW24412   4.449   2.917   0.930 -0.2525 -0.5220 -0.3011
 7838SOL    HW124413   4.379   2.906   0.860 -1.6952  0.1562  0.9869
 7838SOL    HW224414   4.530   2.864   0.904 -1.4083 -1.7618 -1.5694
 7839SOL     OW24415   5.484   3.030   4.523 -0.0687 -0.6252  0.0119
 7839SOL    HW124416   5.501   3.119   4.566 -0.8153 -0.2925 -0.3761
 7839SOL    HW224417   5.438   3.043   4.435  0.6776 -1.3484 -0.4985
 7840SOL     OW24418   1.314   2.182   3.753 -0.5551  0.0073 -0.3573
 7840SOL    HW124419   1.248   2.188   3.828 -1.2416  1.3374 -1.0361
 7840SOL    HW224420   1.313   2.089   3.715  0.1970 -0.8707  1.5789
 7841SOL     OW24421   5.009   3.751   5.232 -0.1552  0.1630 -0.1258
 7841SOL    HW124422   4.930   3.719   5.179 -1.8156  1.0339  1.6925
 7841SOL    HW224423   5.077   3.790   5.169 -1.9478  0.9949 -1.6574
 7842SOL     OW24424   1.043   0.626   1.807  0.1173  0.0374 -0.1499
 7842SOL    HW124425   1.119   0.628   1.872  0.1414 -2.3660 -0.0152
 7842SOL    HW224426   0.965   0.675   1.845  0.6037 -0.1128  1.0742
 7843SOL     OW24427   6.751   5.619   1.723  0.5888 -0.5750  0.2106
 7843SOL    HW124428   6.785   5.534   1.681 -0.1629 -0.7470 -0.0736
 7843SOL    HW224429   6.732   5.686   1.651  0.3060 -0.4980  0.3539
 7844SOL     OW24430   2.403   5.174   1.666  0.0110 -0.1461  0.0163
 7844SOL    HW124431   2.356   5.098   1.623 -1.4970  1.3784 -1.1868
 7844SOL    HW224432   2.485   5.198   1.613 -0.3210 -0.0148 -0.4385
 7845SOL     OW24433   6.767   4.068   1.782  0.1571 -0.8264 -0.6197
 7845SOL    HW124434   6.829   4.052   1.705  0.4535 -2.2952 -0.0986
 7845SOL    HW224435   6.674   4.042   1.756  0.1180 -0.6017 -0.7134
 7846SOL     OW24436   0.077   3.188   0.138  0.2168 -0.3327 -0.9657
 7846SOL    HW124437   0.113   3.115   0.196  2.1802  0.6701 -0.8361
 7846SOL    HW224438   0.153   3.232   0.089 -0.4617  3.3718  0.9879
 7847SOL     OW24439   5.997   4.597   5.650 -0.0982  0.1171  0.0206
 7847SOL    HW124440   6.029   4.550   5.568 -1.2289 -0.0239 -0.3527
 7847SOL    HW224441   5.932   4.668   5.625 -1.5794 -0.8937  0.8807
 7848SOL     OW24442   5.497   4.620   7.009  0.0651  0.2742  0.0313
 7848SOL    HW124443   5.499   4.676   6.926 -2.3074  0.2356 -0.1323
 7848SOL    HW224444   5.542   4.668   7.084  0.8943  0.9701 -0.8924
 7849SOL     OW24445   5.946   5.144   0.092 -0.2904 -0.5176 -0.1980
 7849SOL    HW124446   6.041   5.124   0.115 -0.5000 -1.2857  0.0293
 7849SOL    HW224447   5.941   5.173  -0.003  0.4104  1.4013  0.3088
 7850SOL     OW24448   6.338   0.307   3.928 -0.0737  0.2598  0.6264
 7850SOL    HW124449   6.240   0.319   3.945 -0.1983 -1.8896  1.8406
 7850SOL    HW224450   6.351   0.227   3.869  0.9909 -0.2066  1.4718
 7851SOL     OW24451   0.427   4.009   1.113 -0.0873 -0.5482  0.0074
 7851SOL    HW124452   0.440   4.044   1.206 -1.9993 -1.4948  0.6996
 7851SOL    HW224453   0.501   4.041   1.054  1.3790 -0.2210  1.9236
 7852SOL     OW24454   0.483   1.803   6.322 -0.1980 -0.5858  0.0256
 7852SOL    HW124455   0.567   1.778   6.274  0.4975  0.2165  0.7857
 7852SOL    HW224456   0.409   1.743   6.293  0.3482 -0.5541 -1.5551
 7853SOL     OW24457   3.484   2.861   3.359  0.3267 -0.0458 -0.1520
 7853SOL    HW124458   3.453   2.857   3.264  0.7472 -1.4721 -0.2580
 7853SOL    HW224459   3.412   2.899   3.417  0.0869  0.8795 -1.0411
 7854SOL     OW24460   1.703   1.337   0.285 -0.4504 -0.5857 -0.3676
 7854SOL    HW124461   1.723   1.296   0.196 -0.1273  1.9348 -1.5529
 7854SOL    HW224462   1.719   1.270   0.358  1.4273 -2.0643 -2.0418
 7855SOL     OW24463   0.814   6.808   3.412 -0.3461  0.8258  0.2377
 7855SOL    HW124464   0.903   6.837   3.446 -0.4992  0.2616  1.1588
 7855SOL    HW224465   0.825   6.733   3.347 -0.2162 -0.6426  1.8673
 7856SOL     OW24466   2.589   5.154   5.405  0.3326  0.3538  0.1193
 7856SOL    HW124467   2.539   5.228   5.449 -2.3503 -0.9353 -0.5620
 7856SOL    HW224468   2.606   5.081   5.471 -0.2157  0.0652 -0.0590
 7857SOL     OW24469   6.808   4.231   0.810 -0.3707 -0.0871  0.1166
 7857SOL    HW124470   6.818   4.181   0.724  0.5547  1.9785 -1.0690
 7857SOL    HW224471   6.789   4.328   0.790  3.2612  1.2262  2.0555
 7858SOL     OW24472   0.379   3.918   4.962 -0.5291  0.3595  0.0743
 7858SOL    HW124473   0.473   3.951   4.950 -0.9809  0.8385 -2.6405
 7858SOL    HW224474   0.316   3.995   4.964 -0.9966 -0.0244  0.7469
 7859SOL     OW24475   4.525   1.838   1.772  0.5550  0.8294  0.3888
 7859SOL    HW124476   4.437   1.877   1.744  0.7265  1.4020  0.6288
 7859SOL    HW224477   4.592   1.852   1.699  0.7007  1.2820  0.6050
 7860SOL     OW24478   3.101   1.860   3.116  0.4912 -0.6810  0.1094
 7860SOL    HW124479   3.134   1.949   3.146  1.6510 -0.4195 -1.7886
 7860SOL    HW224480   3.093   1.799   3.195  0.2305  0.9156  1.3504
 7861SOL     OW24481   1.039   5.444   0.655  0.0096 -0.0589 -0.6030
 7861SOL    HW124482   1.137   5.435   0.671  0.4660  3.5921 -0.5694
 7861SOL    HW224483   0.995   5.483   0.736 -1.2855 -0.5051 -1.0537
 7862SOL     OW24484   0.959   0.316   0.337  0.4720  0.5611 -0.1454
 7862SOL    HW124485   1.054   0.337   0.361  0.9970  0.3920 -1.9039
 7862SOL    HW224486   0.928   0.379   0.267  0.1001 -0.8396 -1.2852
 7863SOL     OW24487   1.156   4.651   3.519  0.1302 -0.1719  0.1762
 7863SOL    HW124488   1.220   4.582   3.553  0.3844 -0.0785 -0.1082
 7863SOL    HW224489   1.152   4.646   3.419  1.0326  0.9996  0.0678
 7864SOL     OW24490   1.706   6.133   5.202  0.1007  0.1209 -0.1383
 7864SOL    HW124491   1.615   6.150   5.165 -0.7559  2.9463  2.7535
 7864SOL    HW224492   1.775   6.142   5.130 -1.7504 -0.5267 -2.0676
 7865SOL     OW24493   0.214   6.026   4.626 -0.1962  0.3504 -0.3511
 7865SOL    HW124494   0.161   6.031   4.541 -2.3529  1.0336  0.9282
 7865SOL    HW224495   0.151   6.024   4.704  1.6997 -0.2103  1.2566
 7866SOL     OW24496   1.138   0.015   6.767 -0.2121 -0.1044 -0.1397
 7866SOL    HW124497   1.146   0.029   6.669  2.1984 -0.6083 -0.0902
 7866SOL    HW224498   1.204   0.074   6.814 -0.7120 -0.5157  1.1165
 7867SOL     OW24499   5.480   0.029   1.170 -0.1398 -0.0467 -0.5146
 7867SOL    HW124500   5.414   0.002   1.101  1.2678 -1.8471 -1.2263
 7867SOL    HW224501   5.569  -0.012   1.150  1.0625  1.7502  0.7756
 7868SOL     OW24502   5.052   6.401   0.708  0.3807 -0.3622 -0.3200
 7868SOL    HW124503   5.064   6.352   0.622  0.8121  0.5343 -0.7901
 7868SOL    HW224504   5.078   6.497   0.695  1.2140 -0.3886  1.0084
 7869SOL     OW24505   6.590   5.877   0.554  0.5031 -1.1526 -0.0056
 7869SOL    HW124506   6.615   5.885   0.650 -0.9424 -2.0198  0.4754
 7869SOL    HW224507   6.653   5.814   0.508  1.9634  0.2038  0.0320
 7870SOL     OW24508   1.479   0.841   3.970  0.3873 -0.3922 -0.4672
 7870SOL    HW124509   1.491   0.802   4.061 -0.9034  0.0138 -0.0976
 7870SOL    HW224510   1.393   0.892   3.967  0.8260  0.3134 -1.6692
 7871SOL     OW24511   5.932   0.731   0.237  0.1205 -0.2698 -0.4412
 7871SOL    HW124512   5.930   0.705   0.334 -1.0453 -1.7886 -0.8390
 7871SOL    HW224513   5.839   0.752   0.206  0.3881 -0.5079 -1.4263
 7872SOL     OW24514   0.796   4.648   3.818  0.7031 -0.1069 -0.0240
 7872SOL    HW124515   0.871   4.707   3.787  1.1166  0.2149  1.5100
 7872SOL    HW224516   0.727   4.704   3.864 -0.4514 -0.4192 -1.3011
 7873SOL     OW24517   5.634   1.725   0.945 -0.1721 -0.3632 -0.7649
 7873SOL    HW124518   5.620   1.716   1.044  0.0445 -0.6843 -0.7619
 7873SOL    HW224519   5.622   1.820   0.918 -1.3711 -0.4567 -0.6096
 7874SOL     OW24520   5.190   1.305   1.533  0.6021 -0.5422  0.2432
 7874SOL    HW124521   5.194   1.395   1.491  3.0136 -1.0134 -0.7064
 7874SOL    HW224522   5.148   1.312   1.623 -0.3303  1.3076 -0.2906
 7875SOL     OW24523   2.003   4.602   5.716 -0.2623  0.9808  0.3433
 7875SOL    HW124524   2.005   4.503   5.705  0.4053  0.8778  1.2902
 7875SOL    HW224525   1.919   4.630   5.763 -1.0870  1.0146 -1.0835
 7876SOL     OW24526   1.268   0.824   2.776  0.0972 -0.2480  0.6499
 7876SOL    HW124527   1.234   0.870   2.857 -1.4069 -3.0082  1.7040
 7876SOL    HW224528   1.195   0.817   2.708  0.0464 -1.6566  0.8168
 7877SOL     OW24529   1.673   2.759   2.597 -0.3120  0.4298 -0.8663
 7877SOL    HW124530   1.734   2.782   2.672 -0.7744 -1.9042  0.3197
 7877SOL    HW224531   1.727   2.729   2.518  0.1222  0.0772 -0.4426
 7878SOL     OW24532   3.088   0.401   3.166  0.9718  0.2391 -0.3094
 7878SOL    HW124533   3.135   0.377   3.081  1.5668 -1.3944  0.4338
 7878SOL    HW224534   3.025   0.327   3.191  1.9117 -0.0330  1.4101
 7879SOL     OW24535   6.940   6.183   1.571  0.1242  0.1703  0.4891
 7879SOL    HW124536   6.891   6.150   1.652 -0.8182 -1.3571 -0.6224
 7879SOL    HW224537   6.913   6.277   1.552 -0.3095  0.2545  1.4506
 7880SOL     OW24538   7.015   3.159   3.650  0.3946 -0.0000 -0.1078
 7880SOL    HW124539   6.932   3.107   3.628  0.1606  1.1144 -2.2286
 7880SOL    HW224540   7.094   3.116   3.606  0.4842  0.4040 -0.3500
 7881SOL     OW24541   5.160   3.958   3.422 -0.2740  0.2527 -0.1999
 7881SOL    HW124542   5.198   3.938   3.513  2.0585  0.2419 -1.0999
 7881SOL    HW224543   5.063   3.933   3.420 -0.3895  0.2591  2.2663
 7882SOL     OW24544   0.334   3.753   0.099 -0.0645  0.2138 -0.4023
 7882SOL    HW124545   0.280   3.804   0.166  1.2929  0.3697  0.6155
 7882SOL    HW224546   0.286   3.753   0.011 -0.9803  1.6434  0.0565
 7883SOL     OW24547   1.216   1.102   5.110 -0.1134 -0.6842 -0.2890
 7883SOL    HW124548   1.165   1.152   5.179 -1.2669 -2.8284  0.4813
 7883SOL    HW224549   1.312   1.130   5.113 -0.1829 -0.5358  1.9907
 7884SOL     OW24550   2.147   2.664   5.584 -0.0651 -0.0888 -0.3242
 7884SOL    HW124551   2.228   2.715   5.557  0.0124  0.3608  0.7183
 7884SOL    HW224552   2.169   2.606   5.663 -0.5241 -0.6667 -0.6097
 7885SOL     OW24553   0.787   6.688   6.982 -0.4158 -0.4704 -0.2408
 7885SOL    HW124554   0.711   6.627   7.004 -0.8147  0.0475 -0.1394
 7885SOL    HW224555   0.760   6.747   6.906 -1.1960  1.6160  1.5272
 7886SOL     OW24556   4.473   3.457   6.567  0.6108 -0.6516  0.5714
 7886SOL    HW124557   4.392   3.500   6.607  0.0604 -0.7960 -0.3678
 7886SOL    HW224558   4.551   3.469   6.628  0.2089  0.7041  0.8322
 7887SOL     OW24559   4.093   6.715   0.911  0.0677 -0.1812 -0.0202
 7887SOL    HW124560   4.024   6.643   0.901 -0.9528  0.6631  0.6909
 7887SOL    HW224561   4.097   6.769   0.827 -0.1662 -0.2124 -0.0526
 7888SOL     OW24562   3.424   5.116   3.572  0.6315 -0.7143  0.4083
 7888SOL    HW124563   3.340   5.117   3.626  0.6789 -1.2509  0.4944
 7888SOL    HW224564   3.404   5.149   3.480  0.6385  0.6440  0.8592
 7889SOL     OW24565   1.046   4.066   4.344 -0.2656  0.4166  0.2085
 7889SOL    HW124566   0.994   3.981   4.347  1.7573 -0.8639  0.0496
 7889SOL    HW224567   1.126   4.059   4.402 -0.6243  2.6439  1.0631
 7890SOL     OW24568   2.763   4.939   3.620 -0.5717 -0.5059  0.1884
 7890SOL    HW124569   2.833   4.876   3.586  0.3773  0.1687  0.8405
 7890SOL    HW224570   2.792   5.033   3.604 -2.3712 -0.1769 -1.5900
 7891SOL     OW24571   0.341   5.696   2.917  0.7130 -0.0686 -0.2893
 7891SOL    HW124572   0.354   5.605   2.876  0.9067  0.3419 -1.1626
 7891SOL    HW224573   0.319   5.762   2.845  1.1518  0.6981  0.2625
 7892SOL     OW24574   2.244   3.680   5.303  0.0925 -0.0171 -0.8838
 7892SOL    HW124575   2.146   3.659   5.310 -0.1757  0.7511 -1.9220
 7892SOL    HW224576   2.297   3.596   5.312 -0.5216 -0.1926  1.6935
 7893SOL     OW24577   4.467   0.293   1.227 -0.0575 -0.4217  0.6966
 7893SOL    HW124578   4.414   0.257   1.151 -1.6595 -0.2227  1.6789
 7893SOL    HW224579   4.511   0.379   1.199 -1.4233  0.1660  0.2655
 7894SOL     OW24580   2.281   6.514   0.957 -0.3434 -0.1573 -0.5432
 7894SOL    HW124581   2.363   6.544   1.005 -0.1825  0.5852 -1.2730
 7894SOL    HW224582   2.305   6.444   0.890 -0.6787 -1.8090  0.9569
 7895SOL     OW24583   2.465   1.879   5.543 -0.5746  0.2574 -0.0576
 7895SOL    HW124584   2.442   1.786   5.572  0.2958  0.0387 -0.0358
 7895SOL    HW224585   2.396   1.943   5.576 -0.2925 -0.1544  1.3726
 7896SOL     OW24586   4.775   1.701   4.609  0.6189 -0.5415 -0.5160
 7896SOL    HW124587   4.678   1.714   4.589  1.0651  2.1304 -1.3186
 7896SOL    HW224588   4.786   1.622   4.670 -2.2554  0.3860  1.4013
 7897SOL     OW24589   3.166   3.449   6.647  0.0392 -0.5752 -0.2854
 7897SOL    HW124590   3.123   3.509   6.714  1.2789  0.4672 -0.3987
 7897SOL    HW224591   3.107   3.442   6.566 -0.5638 -0.3123  0.1237
 7898SOL     OW24592   5.591   1.585   3.915  0.2873  0.4591  0.2409
 7898SOL    HW124593   5.527   1.662   3.918  0.8637  0.9214  2.0468
 7898SOL    HW224594   5.541   1.500   3.904 -0.3610  1.0566 -1.8786
 7899SOL     OW24595   3.320   0.941   2.403 -0.2149 -0.0650 -0.0316
 7899SOL    HW124596   3.364   0.854   2.383 -3.0217 -1.5002 -0.3785
 7899SOL    HW224597   3.221   0.932   2.393 -0.7877  2.6045  2.0332
 7900SOL     OW24598   6.696   0.126   0.744 -0.6122 -0.5130 -0.6601
 7900SOL    HW124599   6.681   0.082   0.833  0.4291  0.7582  0.1737
 7900SOL    HW224600   6.613   0.176   0.718 -0.6615 -0.2372 -0.0103
 7901SOL     OW24601   5.264   4.533   0.664  0.2504  0.1822 -0.0038
 7901SOL    HW124602   5.242   4.436   0.677  0.3818  0.0376 -0.7994
 7901SOL    HW224603   5.362   4.547   0.681  0.9473 -0.4560 -2.9568
 7902SOL     OW24604   6.229   0.720   4.117 -0.2950  0.4447  0.5225
 7902SOL    HW124605   6.234   0.810   4.160 -2.0979  1.0834 -0.4957
 7902SOL    HW224606   6.198   0.653   4.185  2.4843  0.2180  1.6887
 7903SOL     OW24607   0.744   2.478   2.481  0.2999  0.1608 -0.6178
 7903SOL    HW124608   0.793   2.393   2.496 -0.9774 -0.4699  0.1893
 7903SOL    HW224609   0.775   2.547   2.546 -1.4344 -0.9316  1.4609
 7904SOL     OW24610   5.720   2.175   1.952  0.4146 -0.5912 -0.1801
 7904SOL    HW124611   5.687   2.082   1.968  1.3059 -1.0513 -0.9095
 7904SOL    HW224612   5.680   2.237   2.020 -0.7121 -1.3804 -0.0936
 7905SOL     OW24613   2.833   1.917   3.075  0.2747  0.0652 -0.4550
 7905SOL    HW124614   2.922   1.961   3.088  0.7750 -0.9731 -0.2612
 7905SOL    HW224615   2.836   1.858   2.994 -0.0430 -0.4394 -0.1047
 7906SOL     OW24616   2.905   3.380   6.895  0.0468 -0.4944  0.0600
 7906SOL    HW124617   2.822   3.405   6.945 -0.8741 -1.1460 -1.0914
 7906SOL    HW224618   2.901   3.418   6.803  0.7438 -1.0318 -0.2017
 7907SOL     OW24619   6.019   1.718   3.909  0.9105 -0.0490  0.3159
 7907SOL    HW124620   6.076   1.746   3.987  1.5914 -2.0691  0.6040
 7907SOL    HW224621   6.065   1.742   3.824  0.5488  1.4169  0.4945
 7908SOL     OW24622   1.238   5.954   3.501  0.4064  0.4800 -0.7343
 7908SOL    HW124623   1.223   5.861   3.465  0.4837 -1.2153  3.1215
 7908SOL    HW224624   1.336   5.973   3.504  0.3517  1.5972 -3.2912
 7909SOL     OW24625   3.846   5.670   3.818  0.2584 -0.4434  0.1693
 7909SOL    HW124626   3.887   5.675   3.909  0.2567  0.4580  0.1253
 7909SOL    HW224627   3.780   5.594   3.816  0.2338 -0.4526  0.9287
 7910SOL     OW24628   6.353   1.338   5.278  0.6011 -0.8731 -0.3401
 7910SOL    HW124629   6.359   1.433   5.248 -1.7444 -0.0475  1.4577
 7910SOL    HW224630   6.322   1.281   5.203  1.0352 -0.0366 -1.1703
 7911SOL     OW24631   6.257   5.560   5.101 -0.2001  0.6443 -0.1513
 7911SOL    HW124632   6.199   5.515   5.169  0.1296  0.3230 -0.0758
 7911SOL    HW224633   6.317   5.493   5.058  1.9380  1.2802  1.5914
 7912SOL     OW24634   0.299   5.903   5.893  0.4310  0.1494  0.2725
 7912SOL    HW124635   0.268   5.998   5.897 -1.4376 -0.3768 -0.3792
 7912SOL    HW224636   0.376   5.889   5.955  0.1887  1.8868  1.0012
 7913SOL     OW24637   2.552   6.800   1.462  0.1310 -0.3270 -0.3090
 7913SOL    HW124638   2.538   6.731   1.533 -0.7405 -0.6036 -0.7328
 7913SOL    HW224639   2.647   6.796   1.430  0.4747 -0.3484  0.6701
 7914SOL     OW24640   5.871   4.096   2.944  0.3410 -0.1379  0.2942
 7914SOL    HW124641   5.797   4.096   3.011  0.4302  1.7906  0.4586
 7914SOL    HW224642   5.843   4.047   2.862 -0.3865 -1.0845  1.0959
 7915SOL     OW24643   3.246   0.791   3.779  0.1595 -0.2561 -0.3898
 7915SOL    HW124644   3.268   0.734   3.700 -1.4505 -0.5851 -0.6254
 7915SOL    HW224645   3.218   0.882   3.749  0.3352 -0.1165 -0.1416
 7916SOL     OW24646   3.393   4.162   6.298  0.0250  0.0144  0.2442
 7916SOL    HW124647   3.396   4.251   6.345 -0.7785  1.4495 -2.2384
 7916SOL    HW224648   3.483   4.141   6.260 -0.0077  0.2067  0.0617
 7917SOL     OW24649   3.592   3.314   2.470 -0.2289 -0.1095 -0.1879
 7917SOL    HW124650   3.632   3.342   2.557 -0.2979 -0.9718  0.1210
 7917SOL    HW224651   3.665   3.283   2.408 -0.3633 -1.2598  0.2193
 7918SOL     OW24652   6.235   2.790   2.826  0.3475 -0.3829  0.5658
 7918SOL    HW124653   6.164   2.844   2.871  1.2440  0.2103  1.2979
 7918SOL    HW224654   6.280   2.732   2.894  1.7118  0.5192  0.4631
 7919SOL     OW24655   5.151   4.908   2.678  0.2765  0.2278  0.1094
 7919SOL    HW124656   5.107   4.979   2.623 -0.1593  0.0527  0.2269
 7919SOL    HW224657   5.130   4.818   2.640  0.7971  0.1567 -0.0163
 7920SOL     OW24658   5.817   6.705   5.879 -0.3542 -0.5515  0.5918
 7920SOL    HW124659   5.863   6.619   5.861 -0.2407 -0.2343 -0.7269
 7920SOL    HW224660   5.736   6.689   5.935  1.1908 -1.1421  2.7829
 7921SOL     OW24661   3.601   3.784   2.572 -0.0781 -0.3622 -0.7470
 7921SOL    HW124662   3.572   3.745   2.660 -2.0715  1.4628 -0.4991
 7921SOL    HW224663   3.584   3.718   2.499 -0.8085 -0.9757 -0.0448
 7922SOL     OW24664   1.752   4.648   3.758 -0.0859  0.1326 -0.7615
 7922SOL    HW124665   1.826   4.612   3.702 -1.1444 -0.3666 -1.8754
 7922SOL    HW224666   1.754   4.604   3.848  2.1426  1.5471 -0.0093
 7923SOL     OW24667   2.714   2.021   3.744 -0.4328 -0.2455 -0.6431
 7923SOL    HW124668   2.780   2.003   3.671  1.2769 -0.6619  0.9470
 7923SOL    HW224669   2.742   2.102   3.795 -1.0118 -0.5840  0.2211
 7924SOL     OW24670   4.392   1.719   5.983 -0.4193 -0.5973 -0.2357
 7924SOL    HW124671   4.428   1.812   5.970  0.2072 -0.4514  2.1244
 7924SOL    HW224672   4.464   1.660   6.019 -1.4258 -1.3923  0.5171
 7925SOL     OW24673   0.022   2.551   0.742  0.3648 -0.3051  0.5159
 7925SOL    HW124674  -0.077   2.544   0.735  0.3975  0.2287 -0.6274
 7925SOL    HW224675   0.055   2.625   0.684  1.6691 -1.9596 -0.9585
 7926SOL     OW24676   2.942   3.038   0.385  0.6208 -0.4416  0.6955
 7926SOL    HW124677   2.879   3.049   0.462  0.6670  4.2158  0.3177
 7926SOL    HW224678   3.036   3.041   0.418  0.6902 -2.2322  0.7431
 7927SOL     OW24679   5.262   3.428   3.542 -0.4390  0.4526  0.2451
 7927SOL    HW124680   5.274   3.411   3.444  0.3565 -3.5504  0.8287
 7927SOL    HW224681   5.350   3.453   3.582 -1.0513  3.6378 -0.1672
 7928SOL     OW24682   1.297   5.364   0.624 -0.2726  0.3253 -0.6027
 7928SOL    HW124683   1.346   5.384   0.539  0.8194  0.5838  0.0703
 7928SOL    HW224684   1.362   5.334   0.694 -0.9936  1.2521  0.4949
 7929SOL     OW24685   3.449   3.658   5.381 -0.0208  0.0754  0.3179
 7929SOL    HW124686   3.477   3.663   5.477  1.4684  1.6656 -0.1455
 7929SOL    HW224687   3.358   3.699   5.372 -0.2995 -0.3413  1.0691
 7930SOL     OW24688   4.455   0.436   0.748  0.0644 -0.5019  0.5185
 7930SOL    HW124689   4.454   0.524   0.795  0.1893 -0.7083  0.9188
 7930SOL    HW224690   4.400   0.441   0.665  0.7310  0.1840  0.1068
 7931SOL     OW24691   3.104   3.842   4.752 -0.2718  0.7457 -0.3478
 7931SOL    HW124692   3.199   3.819   4.773 -0.2891 -0.7045 -1.7038
 7931SOL    HW224693   3.066   3.773   4.690 -2.0073  1.6695 -0.3596
 7932SOL     OW24694   2.884   2.920   0.951  0.2356 -0.4881  0.0973
 7932SOL    HW124695   2.975   2.889   0.978  1.2425  2.4120  0.3154
 7932SOL    HW224696   2.824   2.922   1.031  1.7226  3.0581  1.3326
 7933SOL     OW24697   1.831   0.736   7.016  0.4721 -1.2262  0.1231
 7933SOL    HW124698   1.838   0.675   6.936 -0.6750 -0.8813 -0.2717
 7933SOL    HW224699   1.812   0.681   7.097  0.7614 -1.5090  0.0026
 7934SOL     OW24700   4.632   4.182   6.775 -0.1249  0.2659  0.1257
 7934SOL    HW124701   4.655   4.086   6.791  0.1276  0.2852 -0.1120
 7934SOL    HW224702   4.670   4.212   6.688 -2.3059 -0.1333 -1.0427
 7935SOL     OW24703   4.252   5.621   3.540 -0.0257  0.2959  0.4764
 7935SOL    HW124704   4.325   5.567   3.582 -1.1429 -0.9279  0.9185
 7935SOL    HW224705   4.205   5.565   3.471 -1.3501  0.5855  1.0982
 7936SOL     OW24706   3.311   4.926   0.615 -0.4231 -0.4856  0.1105
 7936SOL    HW124707   3.375   4.853   0.591  0.7197  0.3816  0.3751
 7936SOL    HW224708   3.261   4.902   0.698  0.8420 -0.4783  0.9068
 7937SOL     OW24709   6.136   1.661   0.038 -0.2503 -0.3069 -0.0801
 7937SOL    HW124710   6.135   1.589  -0.031  1.0087 -0.6780  0.2711
 7937SOL    HW224711   6.144   1.620   0.129  0.8288  0.2889  0.1021
 7938SOL     OW24712   7.010   3.122   5.694 -0.0914 -0.2974  0.1042
 7938SOL    HW124713   7.070   3.202   5.693 -0.0722 -0.2956  1.0386
 7938SOL    HW224714   6.933   3.138   5.631 -0.5740  0.8312  0.9489
 7939SOL     OW24715   0.910   4.856   3.703  0.0193 -0.3743 -0.1395
 7939SOL    HW124716   0.863   4.928   3.755  0.8964  0.1141 -0.0157
 7939SOL    HW224717   1.008   4.872   3.706  0.1305 -0.8067 -1.2694
 7940SOL     OW24718   1.274   4.767   2.632 -0.5333  0.3703  0.0470
 7940SOL    HW124719   1.332   4.846   2.611 -0.8129  0.4995 -0.2508
 7940SOL    HW224720   1.323   4.683   2.610  0.0675  0.4298  1.1173
 7941SOL     OW24721   2.362   6.536   2.785 -0.5990  0.2042  0.1904
 7941SOL    HW124722   2.392   6.618   2.833  0.6935 -0.8343  1.2190
 7941SOL    HW224723   2.302   6.483   2.845 -1.3320  0.3172 -0.4250
 7942SOL     OW24724   2.696   0.232   2.161 -0.0573 -0.6183  0.0471
 7942SOL    HW124725   2.621   0.262   2.220 -2.7521 -1.5658 -2.6434
 7942SOL    HW224726   2.773   0.296   2.169 -2.3488  2.2451  0.6717
 7943SOL     OW24727   5.673   2.713   0.374  0.2027 -0.3414 -0.0254
 7943SOL    HW124728   5.742   2.654   0.331 -0.3348 -0.8995 -0.1332
 7943SOL    HW224729   5.598   2.657   0.409 -0.8641  0.3428 -1.1163
 7944SOL     OW24730   5.739   5.306   1.280  0.1085  0.5948  0.4408
 7944SOL    HW124731   5.688   5.261   1.353  0.0663 -1.0632 -0.5537
 7944SOL    HW224732   5.677   5.326   1.203  0.0229  2.8534  1.0206
 7945SOL     OW24733   4.671   4.658   6.027 -0.1453  0.2330  0.2279
 7945SOL    HW124734   4.719   4.730   6.078  1.1948 -1.4174  1.3949
 7945SOL    HW224735   4.711   4.649   5.936  1.0415 -0.3563  0.7876
 7946SOL     OW24736   2.533   6.061   5.685  0.5364  0.2329  0.2545
 7946SOL    HW124737   2.625   6.063   5.647 -0.1779 -0.7357 -1.6805
 7946SOL    HW224738   2.510   6.151   5.723  2.2234  0.4941  0.7284
 7947SOL     OW24739   3.150   4.996   0.361  0.0413 -0.1755  0.2302
 7947SOL    HW124740   3.124   4.901   0.374 -0.5265  0.0848  1.0720
 7947SOL    HW224741   3.195   5.030   0.444 -2.1487  1.0464  0.9974
 7948SOL     OW24742   0.711   3.814   3.605 -0.4661 -0.0213  0.4370
 7948SOL    HW124743   0.677   3.873   3.532 -1.0546 -0.3989  0.4034
 7948SOL    HW224744   0.757   3.870   3.675  1.1955  0.2412 -0.7890
 7949SOL     OW24745   1.853   3.901   4.893 -0.0348  0.2050  0.8668
 7949SOL    HW124746   1.950   3.889   4.874  0.2651  0.3487  2.2003
 7949SOL    HW224747   1.841   3.966   4.968 -1.2186  0.9962  0.0315
 7950SOL     OW24748   1.078   6.179   3.617 -0.4128 -0.0295  0.1227
 7950SOL    HW124749   1.003   6.121   3.586 -1.4903  1.0758  0.5780
 7950SOL    HW224750   1.165   6.132   3.602 -1.1334 -1.0344 -1.0902
 7951SOL     OW24751   3.266   4.922   6.235  0.3750  0.4221  0.4838
 7951SOL    HW124752   3.294   4.923   6.331  1.0286 -1.2849  0.3331
 7951SOL    HW224753   3.167   4.940   6.229 -0.1999 -1.9841  1.7139
 7952SOL     OW24754   6.333   3.410   0.544 -0.2124 -0.7860  0.2042
 7952SOL    HW124755   6.331   3.323   0.494  0.8210 -0.5722 -0.2361
 7952SOL    HW224756   6.310   3.394   0.640 -0.6062 -1.4551  0.0046
 7953SOL     OW24757   6.346   4.124   3.211  0.6051  0.0011 -0.0099
 7953SOL    HW124758   6.306   4.101   3.123 -1.7655  0.6758  0.8137
 7953SOL    HW224759   6.277   4.168   3.269  1.8968 -0.9217  2.3933
 7954SOL     OW24760   6.150   5.984   3.530  0.2935 -0.5190  0.7243
 7954SOL    HW124761   6.236   6.013   3.572  0.9132  0.6111 -1.1714
 7954SOL    HW224762   6.146   5.884   3.528  1.8316 -0.6003  0.3870
 7955SOL     OW24763   1.241   0.502   0.306 -0.1515  0.4978 -0.2684
 7955SOL    HW124764   1.191   0.547   0.380  0.2280  3.2896 -1.5620
 7955SOL    HW224765   1.335   0.536   0.305 -0.6023  1.9635 -3.0302
 7956SOL     OW24766   4.445   6.576   2.318  0.1432 -0.1454  0.0774
 7956SOL    HW124767   4.428   6.477   2.314  0.4247 -0.1566 -2.4299
 7956SOL    HW224768   4.358   6.625   2.317  0.0047 -0.3663 -1.5949
 7957SOL     OW24769   6.861   3.967   2.721 -0.3306 -0.3163  0.6108
 7957SOL    HW124770   6.914   4.045   2.688 -0.2300 -1.1331 -1.3102
 7957SOL    HW224771   6.923   3.899   2.760 -0.4159  0.5065  2.2591
 7958SOL     OW24772   2.406   6.127   2.213  0.4237  0.1963 -0.6018
 7958SOL    HW124773   2.371   6.040   2.178  1.3743 -0.7848  0.7735
 7958SOL    HW224774   2.351   6.156   2.291  2.4334 -1.2875  1.4876
 7959SOL     OW24775   4.654   4.611   0.277  0.2463  0.1275 -0.2273
 7959SOL    HW124776   4.677   4.628   0.373  0.6907 -1.2800 -0.0664
 7959SOL    HW224777   4.656   4.513   0.259 -1.4525  0.2570 -1.2943
 7960SOL     OW24778   2.920   0.128   1.582 -0.2127  0.1464  0.5161
 7960SOL    HW124779   2.923   0.188   1.663  0.4040  0.9327 -0.0732
 7960SOL    HW224780   2.874   0.043   1.606 -0.6026  0.6221  1.5306
 7961SOL     OW24781   1.577   5.677   0.200  0.3777 -0.1432 -0.2342
 7961SOL    HW124782   1.534   5.669   0.290  2.7025 -2.7525  0.8056
 7961SOL    HW224783   1.661   5.730   0.208  0.3913 -0.0363 -1.0051
 7962SOL     OW24784   1.345   6.202   2.540  0.2315 -0.0079  0.0553
 7962SOL    HW124785   1.426   6.256   2.562 -0.1291  0.1001  1.1877
 7962SOL    HW224786   1.372   6.109   2.515  0.6450 -0.4011  1.8440
 7963SOL     OW24787   6.363   6.416   4.825  0.0563 -0.4741  0.0249
 7963SOL    HW124788   6.349   6.513   4.845  1.2030  0.3122 -2.6474
 7963SOL    HW224789   6.290   6.363   4.868 -1.0870  1.6403  0.8462
 7964SOL     OW24790   5.987   5.438   4.113  0.1924  0.0622 -0.4738
 7964SOL    HW124791   5.914   5.397   4.059  1.3631 -2.7960 -0.0248
 7964SOL    HW224792   6.076   5.419   4.070  1.0262 -0.8944  1.5557
 7965SOL     OW24793   3.397   0.858   0.500 -0.2268 -0.0373 -0.3212
 7965SOL    HW124794   3.464   0.931   0.508 -0.5489  0.2146  0.1577
 7965SOL    HW224795   3.367   0.849   0.405  0.3379 -0.0235 -0.5015
 7966SOL     OW24796   6.577   5.265   4.316 -0.1238  0.0185 -0.5891
 7966SOL    HW124797   6.626   5.307   4.240 -1.3049  1.6101 -0.5261
 7966SOL    HW224798   6.600   5.168   4.321  1.4057  0.2848 -1.7983
 7967SOL     OW24799   2.547   0.193   4.260  0.1041  0.2836  0.2158
 7967SOL    HW124800   2.451   0.210   4.239 -0.1485 -3.1508 -2.4011
 7967SOL    HW224801   2.604   0.230   4.186  0.5619  0.2199  0.5318
 7968SOL     OW24802   1.764   1.683   6.140 -0.5328 -0.7559 -0.3695
 7968SOL    HW124803   1.827   1.633   6.081  0.9140  0.7648 -0.1875
 7968SOL    HW224804   1.772   1.649   6.234  0.7370 -0.0069 -0.1697
 7969SOL     OW24805   2.840   1.319   2.595 -0.3516  0.3708 -0.4631
 7969SOL    HW124806   2.798   1.403   2.630 -2.6642 -1.1111  0.5512
 7969SOL    HW224807   2.782   1.280   2.524 -0.2469 -1.2523  0.3013
 7970SOL     OW24808   6.007   6.782   4.208  0.3586  0.1980  0.4178
 7970SOL    HW124809   5.983   6.685   4.204  2.7004 -0.4235 -1.6607
 7970SOL    HW224810   6.045   6.803   4.299 -1.0217 -0.5581  1.2023
 7971SOL     OW24811   4.982   2.693   4.024 -0.3520 -0.1371  0.5014
 7971SOL    HW124812   5.038   2.766   3.986  0.6134 -0.2948  1.5779
 7971SOL    HW224813   5.040   2.615   4.048 -1.3959 -1.4063 -0.8853
 7972SOL     OW24814   6.649   6.354   0.332 -0.3993  0.1775  0.0593
 7972SOL    HW124815   6.660   6.379   0.236  0.6907 -1.8693 -0.4049
 7972SOL    HW224816   6.732   6.376   0.382 -0.3930 -0.1494  0.1952
 7973SOL     OW24817   5.272   2.916   2.672 -0.3554  0.3205 -0.5618
 7973SOL    HW124818   5.348   2.880   2.727 -0.4552 -0.4025 -0.8828
 7973SOL    HW224819   5.269   2.869   2.584  0.7770  2.5740 -1.8726
 7974SOL     OW24820   4.939   4.526   3.570  0.2927 -0.1598  0.1309
 7974SOL    HW124821   4.844   4.535   3.540  0.4762 -1.0873 -0.7885
 7974SOL    HW224822   4.995   4.495   3.493  1.4233  0.8163  0.5462
 7975SOL     OW24823   6.974   1.169   2.873  0.3303  0.2821 -0.3015
 7975SOL    HW124824   6.927   1.257   2.867  1.3515  0.7744 -1.6174
 7975SOL    HW224825   6.958   1.117   2.789  0.5763 -0.3465  0.0342
 7976SOL     OW24826   0.354   5.805   5.230  0.0280 -0.2481  0.6362
 7976SOL    HW124827   0.342   5.709   5.202 -0.8182 -0.4133  1.5215
 7976SOL    HW224828   0.430   5.845   5.179  0.7789 -1.5629  0.6847
 7977SOL     OW24829   4.815   1.053   3.453  0.0111 -0.5572 -0.0894
 7977SOL    HW124830   4.818   0.955   3.431 -2.1735 -0.4627 -1.0064
 7977SOL    HW224831   4.776   1.103   3.376  0.7369  1.0232  0.5275
 7978SOL     OW24832   4.238   2.157   5.641  0.3672  0.0773  0.1722
 7978SOL    HW124833   4.303   2.124   5.573 -1.3735 -2.8975 -0.2145
 7978SOL    HW224834   4.176   2.223   5.598  2.4332  2.2929  0.3422
 7979SOL     OW24835   4.235   6.033   5.102 -0.0982  0.4365 -0.7498
 7979SOL    HW124836   4.216   5.937   5.124  0.5846  0.0293 -1.8750
 7979SOL    HW224837   4.334   6.049   5.108 -0.2856  1.3209  0.3437
 7980SOL     OW24838   2.172   1.554   1.014 -0.0938  0.1226  0.4108
 7980SOL    HW124839   2.223   1.512   0.939 -2.3218  0.6632 -1.5389
 7980SOL    HW224840   2.139   1.483   1.077 -0.3065 -0.6293 -0.5282
 7981SOL     OW24841   1.055   6.603   2.531  0.0980 -0.3656  0.4614
 7981SOL    HW124842   1.069   6.702   2.527  0.1211 -0.2213  2.6161
 7981SOL    HW224843   1.132   6.557   2.487  1.3099  0.5879  1.4730
 7982SOL     OW24844   0.658   3.746   0.962 -0.6116 -0.1540  0.2421
 7982SOL    HW124845   0.575   3.720   0.912 -0.9822  2.5127 -0.7037
 7982SOL    HW224846   0.701   3.825   0.917  0.6256  0.6052  2.5552
 7983SOL     OW24847   4.283   1.825   1.006 -0.9316  0.0628 -0.4516
 7983SOL    HW124848   4.339   1.885   1.064  0.1009 -0.9745 -0.3522
 7983SOL    HW224849   4.188   1.858   1.006 -1.0648 -0.1611  2.1807
 7984SOL     OW24850   5.926   1.403   0.506 -0.2187 -0.0807 -0.4512
 7984SOL    HW124851   5.841   1.455   0.504 -0.7234 -0.7532  1.3896
 7984SOL    HW224852   5.999   1.460   0.546 -0.3643 -0.2128  0.0146
 7985SOL     OW24853   0.596   1.782   6.572 -0.3664 -0.7550 -0.1118
 7985SOL    HW124854   0.574   1.777   6.475 -1.0611 -1.4705  0.0795
 7985SOL    HW224855   0.635   1.695   6.603  1.5594  0.0340 -0.1386
 7986SOL     OW24856   4.925   4.198   1.239  0.2521 -0.6261 -0.0974
 7986SOL    HW124857   4.856   4.206   1.168  0.3979 -2.6848 -0.5429
 7986SOL    HW224858   4.883   4.209   1.329 -0.2722  0.0913 -0.4216
 7987SOL     OW24859   0.841   4.074   6.573 -0.3210 -0.2615  0.1140
 7987SOL    HW124860   0.884   4.107   6.489  0.5943 -0.3391  0.5406
 7987SOL    HW224861   0.811   4.153   6.628 -2.6995 -0.2047 -1.1384
 7988SOL     OW24862   2.907   2.061   6.431 -0.1512  0.2565  0.4568
 7988SOL    HW124863   2.916   2.061   6.531  0.9111 -0.5517  0.3893
 7988SOL    HW224864   2.987   2.107   6.391  0.3513 -1.0117 -0.0510
 7989SOL     OW24865   2.960   2.320   6.805 -0.2412  0.2554  0.3687
 7989SOL    HW124866   3.017   2.353   6.731  0.2261 -1.5426 -0.1231
 7989SOL    HW224867   2.907   2.241   6.774  0.4001 -0.9149  2.0611
 7990SOL     OW24868   1.589   2.414   4.823  0.0086  0.6055 -0.7641
 7990SOL    HW124869   1.656   2.461   4.881  0.1642 -0.2314 -0.2492
 7990SOL    HW224870   1.599   2.445   4.729  0.6080  1.0428 -0.5639
 7991SOL     OW24871   2.632   3.841   6.973  0.3663 -0.0442 -0.1863
 7991SOL    HW124872   2.567   3.852   7.047  0.5356  2.0921 -0.2979
 7991SOL    HW224873   2.725   3.860   7.006  0.4840  0.5798 -0.8598
 7992SOL     OW24874   4.529   0.539   2.122 -0.1603  0.3361  0.3002
 7992SOL    HW124875   4.541   0.471   2.049 -2.3575 -0.7128  0.8089
 7992SOL    HW224876   4.459   0.506   2.186 -0.9722  2.8812  0.8422
 7993SOL     OW24877   3.835   5.493   0.832  0.0533 -0.1330  0.0837
 7993SOL    HW124878   3.848   5.397   0.856  0.4271  0.1357  0.9914
 7993SOL    HW224879   3.840   5.503   0.732  1.8192 -0.8018  0.0649
 7994SOL     OW24880   5.851   5.905   4.100 -0.2217 -0.4481 -0.2343
 7994SOL    HW124881   5.807   5.994   4.087  0.5796 -0.1733 -1.2030
 7994SOL    HW224882   5.943   5.919   4.136  0.2801 -0.8111 -1.3341
 7995SOL     OW24883   0.018   0.709   1.471 -0.1924  0.4443 -0.0707
 7995SOL    HW124884   0.006   0.630   1.411  1.9834  0.5054 -0.6869
 7995SOL    HW224885   0.043   0.789   1.416  1.5318  0.5798  0.8403
 7996SOL     OW24886   4.175   1.863   5.016  0.5248 -0.4239  0.2210
 7996SOL    HW124887   4.156   1.952   5.058  1.5066 -0.8218  1.5680
 7996SOL    HW224888   4.264   1.830   5.047 -0.5166 -2.6414  1.0840
 7997SOL     OW24889   4.919   3.793   0.658  0.0861 -0.3736 -0.1780
 7997SOL    HW124890   4.985   3.868   0.659 -0.2952 -0.0109 -1.1533
 7997SOL    HW224891   4.947   3.725   0.590 -0.2512 -0.4815 -0.2095
 7998SOL     OW24892   0.444   5.569   0.894 -0.3533  0.2060  0.0805
 7998SOL    HW124893   0.404   5.525   0.974  0.2385  0.1539  0.3595
 7998SOL    HW224894   0.436   5.509   0.815  1.6274 -1.0423  0.7365
 7999SOL     OW24895   4.587   2.852   6.672 -0.3709  0.0679  0.0798
 7999SOL    HW124896   4.628   2.835   6.761 -2.3865  1.4363  1.3563
 7999SOL    HW224897   4.540   2.940   6.673 -0.6136  0.0460 -2.3097
 8000SOL     OW24898   4.903   6.639   4.412 -0.4069  0.3960 -0.3713
 8000SOL    HW124899   4.871   6.546   4.394  0.7474 -0.0540 -0.1829
 8000SOL    HW224900   4.962   6.640   4.492  2.8491  0.5157 -2.5683
 8001SOL     OW24901   2.218   4.189   1.159  0.5136  0.5097  0.7868
 8001SOL    HW124902   2.179   4.265   1.211  0.5606  0.8169  0.3796
 8001SOL    HW224903   2.147   4.146   1.104  0.9084  1.7394 -0.7768
 8002SOL     OW24904   5.555   1.808   5.911  0.0031  0.4691  0.2448
 8002SOL    HW124905   5.582   1.868   5.987  1.2022  0.6442 -0.2969
 8002SOL    HW224906   5.635   1.788   5.855 -0.9388  0.6822 -1.2108
 8003SOL     OW24907   4.850   6.254   2.604  0.1259  0.2103 -0.0442
 8003SOL    HW124908   4.795   6.298   2.533 -0.1516  2.3346  1.3862
 8003SOL    HW224909   4.947   6.275   2.589  0.3569 -1.5347 -1.2169
 8004SOL     OW24910   1.585   5.530   3.927 -0.1004 -0.0026  0.5155
 8004SOL    HW124911   1.661   5.467   3.942  0.2337 -0.0621 -1.2740
 8004SOL    HW224912   1.606   5.619   3.968 -0.2370 -0.7775  2.3559
 8005SOL     OW24913   4.076   2.253   3.441 -0.7632 -0.0148  0.3383
 8005SOL    HW124914   4.018   2.335   3.442 -0.2632  0.3486 -0.2829
 8005SOL    HW224915   4.039   2.188   3.375 -0.2891  0.3491 -0.2924
 8006SOL     OW24916   4.904   5.585   3.670  0.1837  0.2905 -0.0349
 8006SOL    HW124917   4.973   5.518   3.696 -0.1011 -0.4209 -1.0347
 8006SOL    HW224918   4.814   5.542   3.666  0.1300  0.4726 -1.5836
 8007SOL     OW24919   0.519   1.232   2.628 -0.0268 -0.4820 -0.2250
 8007SOL    HW124920   0.566   1.179   2.698 -0.6124  0.4610  0.9123
 8007SOL    HW224921   0.492   1.320   2.666 -0.0936  0.1773 -1.7338
 8008SOL     OW24922   0.664   5.260   0.770  0.0742 -0.0335  0.0121
 8008SOL    HW124923   0.742   5.228   0.716 -0.0180 -0.3117  0.0408
 8008SOL    HW224924   0.695   5.330   0.835 -0.3077  2.4602 -2.3510
 8009SOL     OW24925   5.902   6.535   4.224 -0.5886 -0.2642 -0.0744
 8009SOL    HW124926   5.987   6.484   4.211 -1.0174 -0.7691 -1.0602
 8009SOL    HW224927   5.872   6.527   4.319  1.3587  1.3839  0.7469
 8010SOL     OW24928   2.113   0.201   0.498 -0.1221 -0.2761  0.3828
 8010SOL    HW124929   2.148   0.266   0.431  0.8436 -3.1141 -2.0844
 8010SOL    HW224930   2.014   0.190   0.486 -0.2138  0.4111  0.5176
 8011SOL     OW24931   1.032   3.898   6.605  0.1529 -0.1593  0.3320
 8011SOL    HW124932   1.115   3.954   6.604 -0.4062  0.8174  2.5636
 8011SOL    HW224933   0.952   3.956   6.614 -0.5630 -1.2227  1.1452
 8012SOL     OW24934   2.711   6.067   3.006 -0.2110  0.2901  0.1234
 8012SOL    HW124935   2.635   6.010   2.976 -0.9423 -0.2408  2.7372
 8012SOL    HW224936   2.675   6.149   3.051  0.7615  0.3989  0.7264
 8013SOL     OW24937   2.005   5.131   3.822 -0.5998 -0.4626  0.2489
 8013SOL    HW124938   2.091   5.089   3.795  0.6458  1.9270  0.2697
 8013SOL    HW224939   1.929   5.069   3.799  0.9974 -2.1465 -0.7665
 8014SOL     OW24940   4.143   1.148   5.674 -0.1751 -0.0704 -0.3607
 8014SOL    HW124941   4.119   1.245   5.666  1.6953  0.5347  0.6696
 8014SOL    HW224942   4.067   1.097   5.714 -0.6108  1.2646  0.5439
 8015SOL     OW24943   1.589   0.447   1.616 -0.3343 -0.5505  0.2382
 8015SOL    HW124944   1.644   0.373   1.652 -0.9253 -2.0745 -1.8387
 8015SOL    HW224945   1.604   0.456   1.518 -1.5692  0.9460  0.1433
 8016SOL     OW24946   4.218   4.329   1.702  0.0328 -0.2426 -0.6738
 8016SOL    HW124947   4.243   4.424   1.684  0.8337 -0.8958 -3.5885
 8016SOL    HW224948   4.291   4.286   1.756  0.4058  0.4115 -0.6399
 8017SOL     OW24949   5.888   4.841   3.328  0.2896 -0.1231  0.2859
 8017SOL    HW124950   5.914   4.936   3.313  2.9256 -0.4754  1.9345
 8017SOL    HW224951   5.936   4.805   3.409 -1.3743 -2.5863  0.3054
 8018SOL     OW24952   4.892   3.351   3.947  0.3541 -0.4414  0.0958
 8018SOL    HW124953   4.918   3.254   3.945  2.2182  0.0244 -0.1692
 8018SOL    HW224954   4.865   3.380   3.855  0.8874 -0.4396 -0.0620
 8019SOL     OW24955   4.696   4.742   1.224  0.0965  0.1803  0.0304
 8019SOL    HW124956   4.636   4.670   1.189 -0.7438  0.8532  0.0691
 8019SOL    HW224957   4.781   4.701   1.257  0.0284 -0.6908 -0.8312
 8020SOL     OW24958   6.237   6.078   5.641  0.4659 -0.3423  0.1372
 8020SOL    HW124959   6.263   6.124   5.726  0.1572 -0.0704  0.0835
 8020SOL    HW224960   6.258   6.137   5.563  0.2819 -0.3832  0.0555
 8021SOL     OW24961   6.964   0.723   2.861  0.1743  0.1289  0.3545
 8021SOL    HW124962   7.032   0.778   2.813  2.8627 -1.7073  1.7901
 8021SOL    HW224963   6.969   0.628   2.830  0.0701 -0.5333  2.2349
 8022SOL     OW24964   6.017   4.780   1.896 -0.1211  0.0982 -0.4348
 8022SOL    HW124965   5.987   4.822   1.981 -1.2692  0.9476 -1.2275
 8022SOL    HW224966   5.938   4.765   1.837  0.9332  2.0942 -2.4882
 8023SOL     OW24967   1.660   6.024   4.368 -0.7161 -0.2380  0.6654
 8023SOL    HW124968   1.634   6.120   4.383  1.8167  0.3914  1.5932
 8023SOL    HW224969   1.719   5.994   4.443 -1.3518 -2.5345  0.3298
 8024SOL     OW24970   5.459   5.453   3.333 -0.0213  0.6392  0.2752
 8024SOL    HW124971   5.512   5.406   3.262 -0.1777  0.9793 -0.0719
 8024SOL    HW224972   5.484   5.417   3.423  0.1613  0.1836  0.0475
 8025SOL     OW24973   0.882   5.167   0.116  0.9118 -0.2333 -0.3379
 8025SOL    HW124974   0.828   5.145   0.197  1.6420  1.3856  0.6168
 8025SOL    HW224975   0.826   5.219   0.052  0.7199 -0.3802 -0.2906
 8026SOL     OW24976   3.159   1.000   6.351 -0.6237  0.3171 -0.5229
 8026SOL    HW124977   3.233   0.954   6.400 -1.8913 -0.7425  0.4655
 8026SOL    HW224978   3.158   1.097   6.376 -0.1838  0.1396  0.2046
 8027SOL     OW24979   4.614   2.283   0.146  0.0260  0.0431 -0.5407
 8027SOL    HW124980   4.680   2.335   0.092  0.2780 -2.1183 -2.4225
 8027SOL    HW224981   4.522   2.301   0.111 -0.1112  0.6854  0.1062
 8028SOL     OW24982   6.999   4.818   1.434 -0.1424  0.2119  0.6545
 8028SOL    HW124983   6.983   4.784   1.526  1.5509  0.7586  1.1907
 8028SOL    HW224984   7.087   4.783   1.400 -0.1336  1.0472 -0.2419
 8029SOL     OW24985   3.528   3.371   4.442  0.1645  0.1010  0.3843
 8029SOL    HW124986   3.520   3.469   4.425  1.4918  0.1492 -0.1536
 8029SOL    HW224987   3.578   3.328   4.366  1.1535 -0.6753  1.4226
 8030SOL     OW24988   6.746   3.556   1.727  0.1001  0.3555  0.3030
 8030SOL    HW124989   6.794   3.617   1.664 -0.4658 -0.4782 -0.9774
 8030SOL    HW224990   6.773   3.578   1.821  0.5250  2.0107 -0.1652
 8031SOL     OW24991   3.089   5.448   6.143 -0.0983 -0.0458  0.0817
 8031SOL    HW124992   3.016   5.511   6.167  0.7341  1.3014 -0.7831
 8031SOL    HW224993   3.176   5.498   6.137  0.8672 -1.5366  0.7823
 8032SOL     OW24994   3.520   4.026   5.996  0.0238  0.5954  0.0919
 8032SOL    HW124995   3.577   4.063   6.069 -0.5654  2.4043 -0.2891
 8032SOL    HW224996   3.552   4.062   5.908 -0.8738  0.5774 -0.2534
 8033SOL     OW24997   5.086   1.211   2.118 -0.1002  0.5722 -0.0946
 8033SOL    HW124998   5.030   1.128   2.122  0.1915  0.3508 -0.5495
 8033SOL    HW224999   5.162   1.198   2.054 -1.1355  1.8639 -1.6476
 8034SOL     OW25000   5.189   0.732   6.151 -0.3778 -0.2875 -0.0105
 8034SOL    HW125001   5.143   0.821   6.143  0.5131  0.4008  1.8814
 8034SOL    HW225002   5.133   0.670   6.206 -0.9718 -0.9271 -1.2812
 8035SOL     OW25003   5.680   6.795   6.492  0.3403  0.2461 -0.5709
 8035SOL    HW125004   5.719   6.782   6.583 -2.0200  0.1806  0.4906
 8035SOL    HW225005   5.638   6.885   6.486 -1.3962 -0.5334 -0.8095
 8036SOL     OW25006   0.970   4.581   1.183 -0.0341  0.8177 -0.0686
 8036SOL    HW125007   1.041   4.588   1.253  0.6041 -0.9213 -0.4734
 8036SOL    HW225008   0.903   4.512   1.211  0.2740  0.0331 -1.1579
 8037SOL     OW25009   2.535   1.620   0.862  0.0671  0.1530  0.3722
 8037SOL    HW125010   2.568   1.625   0.768 -4.6583  2.1872 -1.5281
 8037SOL    HW225011   2.489   1.532   0.876 -1.5667  0.8509 -0.2953
 8038SOL     OW25012   5.189   6.725   4.905  0.4968 -0.5655 -0.3161
 8038SOL    HW125013   5.258   6.748   4.837  0.7391 -0.4055 -0.0155
 8038SOL    HW225014   5.222   6.749   4.996 -0.3528  0.4918 -0.2599
 8039SOL     OW25015   3.203   5.910   2.335  0.5187  0.0364 -0.0550
 8039SOL    HW125016   3.181   5.948   2.424  1.0109 -1.9678  0.9876
 8039SOL    HW225017   3.121   5.907   2.278 -0.3641 -0.8459  1.2134
 8040SOL     OW25018   5.484   5.678   7.002  0.2834  0.1021 -0.0996
 8040SOL    HW125019   5.513   5.593   7.047  1.7492 -0.6748 -2.3330
 8040SOL    HW225020   5.565   5.728   6.970 -0.6570  0.5297 -1.9465
 8041SOL     OW25021   1.724   2.553   1.452  0.1648  0.6231 -0.1973
 8041SOL    HW125022   1.632   2.516   1.438  0.4108  0.1598 -0.5984
 8041SOL    HW225023   1.767   2.573   1.364  1.7384 -2.3611 -0.2336
 8042SOL     OW25024   3.011   3.342   6.443  0.3903 -0.3902 -0.1040
 8042SOL    HW125025   2.939   3.405   6.472  0.3948 -1.2820  2.0464
 8042SOL    HW225026   2.980   3.291   6.363  0.4124  2.2781 -1.9386
 8043SOL     OW25027   2.491   0.806   2.097 -0.0923  0.5256  0.0557
 8043SOL    HW125028   2.519   0.710   2.091 -1.4035  0.0334  1.2004
 8043SOL    HW225029   2.556   0.863   2.046  0.4733 -0.9986 -1.0160
 8044SOL     OW25030   1.067   2.120   1.990 -0.1402 -0.1220 -0.2732
 8044SOL    HW125031   1.057   2.107   2.088  1.9763  1.1529  0.1838
 8044SOL    HW225032   0.982   2.096   1.944 -0.8702 -1.6733  1.7514
 8045SOL     OW25033   5.583   3.296   4.222 -0.4414  0.1403  0.4716
 8045SOL    HW125034   5.589   3.225   4.152 -1.4279 -0.4605  0.9798
 8045SOL    HW225035   5.577   3.386   4.178  2.7688  0.1472 -0.1755
 8046SOL     OW25036   3.111   6.377   4.170 -0.2408 -0.1345  0.1885
 8046SOL    HW125037   3.047   6.373   4.246  1.5425  1.7194  1.9298
 8046SOL    HW225038   3.135   6.473   4.153  1.6031 -0.7295 -0.7736
 8047SOL     OW25039   2.344   0.061   2.807  0.2026  0.1505 -0.0824
 8047SOL    HW125040   2.300   0.130   2.864  1.8883 -0.2906  1.8468
 8047SOL    HW225041   2.341   0.091   2.711 -1.4662  1.5842  0.3598
 8048SOL     OW25042   2.936   0.117   6.513  0.0462  0.7417  0.4230
 8048SOL    HW125043   3.014   0.085   6.459  0.1598  0.4806  0.7345
 8048SOL    HW225044   2.933   0.217   6.511 -0.1857  0.7275 -0.3877
 8049SOL     OW25045   1.174   0.133   0.790  0.5037  0.1465 -0.6959
 8049SOL    HW125046   1.212   0.104   0.702  0.6703  0.0780 -0.6011
 8049SOL    HW225047   1.170   0.233   0.794 -0.6715  0.1314 -1.2828
 8050SOL     OW25048   1.415   2.654   1.464 -0.3831 -0.0874  0.4316
 8050SOL    HW125049   1.401   2.715   1.541 -0.4936  0.2157  0.1723
 8050SOL    HW225050   1.419   2.559   1.497 -1.9975 -0.1163  0.6608
 8051SOL     OW25051   2.785   2.354   4.265 -0.3444 -0.4301  0.0874
 8051SOL    HW125052   2.725   2.400   4.200 -2.2809 -0.4235  1.7739
 8051SOL    HW225053   2.877   2.347   4.227 -0.9307  1.3138 -1.8091
 8052SOL     OW25054   3.673   0.329   4.130  0.5115  0.1092  0.1376
 8052SOL    HW125055   3.732   0.250   4.111 -0.8540 -0.4323 -2.2546
 8052SOL    HW225056   3.714   0.411   4.091 -0.3061 -0.2852 -1.6187
 8053SOL     OW25057   5.396   2.791   1.360  0.2746 -0.1132 -0.1879
 8053SOL    HW125058   5.372   2.870   1.304  1.1718 -0.5112 -1.1681
 8053SOL    HW225059   5.496   2.784   1.368  0.2675 -1.6917 -0.9663
 8054SOL     OW25060   4.642   6.229   3.636  0.2378  0.2112 -0.1818
 8054SOL    HW125061   4.601   6.145   3.671  2.4831 -0.7564  0.3002
 8054SOL    HW225062   4.614   6.306   3.693 -1.2348 -0.3056 -0.1683
 8055SOL     OW25063   1.885   0.571   4.839  0.2495  0.2307  0.2314
 8055SOL    HW125064   1.921   0.496   4.894  1.0797 -0.3783 -1.0880
 8055SOL    HW225065   1.959   0.633   4.814 -0.3445  1.2384  0.8806
 8056SOL     OW25066   5.138   1.771   1.694  0.0739 -0.2012  0.0924
 8056SOL    HW125067   5.057   1.822   1.721  0.3672  0.2892  0.0468
 8056SOL    HW225068   5.158   1.701   1.764 -0.4316 -0.3807  0.0597
 8057SOL     OW25069   2.567   0.372   3.215  0.0757 -0.6821 -0.3458
 8057SOL    HW125070   2.631   0.384   3.139  1.6068  1.5932  1.1584
 8057SOL    HW225071   2.570   0.278   3.247  0.7716 -1.2253 -1.9103
 8058SOL     OW25072   3.103   0.085   2.915 -0.5891  0.0324  0.1110
 8058SOL    HW125073   3.024   0.096   2.976 -1.3479  0.3570 -0.8855
 8058SOL    HW225074   3.184   0.125   2.957 -1.3430  1.2818  0.4395
 8059SOL     OW25075   1.518   1.014   4.973  0.5489 -0.7996  0.2986
 8059SOL    HW125076   1.577   0.966   4.908  1.6705  0.6775  0.1840
 8059SOL    HW225077   1.480   1.096   4.930 -0.6981 -1.1137  0.7432
 8060SOL     OW25078   1.344   4.274   6.314  0.2844  0.5545  0.0779
 8060SOL    HW125079   1.308   4.265   6.221  2.5523  0.1077 -0.8033
 8060SOL    HW225080   1.438   4.243   6.317  0.3570  0.8106  2.5039
 8061SOL     OW25081   0.029   0.350   2.236  0.4512  0.0186  0.2887
 8061SOL    HW125082   0.126   0.335   2.258  0.7407  0.9676 -0.2735
 8061SOL    HW225083  -0.028   0.307   2.306  1.2970  0.2778  1.1684
 8062SOL     OW25084   6.913   1.496   0.136 -0.6271 -0.2783  0.4200
 8062SOL    HW125085   6.824   1.461   0.165 -0.3313  0.0021  1.7285
 8062SOL    HW225086   6.982   1.473   0.205  0.5832 -1.5474 -1.0974
 8063SOL     OW25087   3.556   0.492   5.620 -0.1471  0.2421  0.1388
 8063SOL    HW125088   3.611   0.530   5.694 -0.3122  1.6885 -0.4659
 8063SOL    HW225089   3.474   0.449   5.659  0.5169 -0.3978  0.8957
 8064SOL     OW25090   5.139   2.299   0.581 -0.6555  0.1656 -0.1247
 8064SOL    HW125091   5.078   2.271   0.655  0.8421 -0.4262  0.9444
 8064SOL    HW225092   5.170   2.392   0.596  0.2976 -0.2382  0.4593
 8065SOL     OW25093   4.896   6.254   5.462 -0.1899 -0.1587 -0.6530
 8065SOL    HW125094   4.962   6.192   5.420 -0.8614 -2.9178  1.9722
 8065SOL    HW225095   4.933   6.289   5.548 -2.0173 -1.7777  0.8892
 8066SOL     OW25096   1.446   6.988   1.732 -0.1767  0.1333  0.7251
 8066SOL    HW125097   1.440   6.959   1.636 -1.6638  0.8409  0.5892
 8066SOL    HW225098   1.356   6.987   1.773  0.4752 -0.3716  2.2144
 8067SOL     OW25099   4.137   2.175   1.386  0.1219  0.1611  0.6094
 8067SOL    HW125100   4.117   2.260   1.435  0.3249  0.2717  0.5012
 8067SOL    HW225101   4.052   2.123   1.375 -0.0968  0.5870  0.2284
 8068SOL     OW25102   6.133   4.935   2.714  0.5157 -0.2083  0.4585
 8068SOL    HW125103   6.086   4.852   2.744 -1.2679  1.5914  3.0144
 8068SOL    HW225104   6.172   4.982   2.793 -0.1769  2.3585 -0.6295
 8069SOL     OW25105   1.251   0.623   1.993  0.5061 -0.2284 -0.1691
 8069SOL    HW125106   1.329   0.685   1.990  0.6049 -0.3771 -1.8876
 8069SOL    HW225107   1.239   0.588   2.086  1.4640  1.0592  0.4626
 8070SOL     OW25108   3.707   1.373   3.642 -0.0707 -0.5233  0.2784
 8070SOL    HW125109   3.663   1.285   3.624  2.5414 -2.1518  1.2764
 8070SOL    HW225110   3.641   1.436   3.681 -1.7384 -2.4391  0.7235
 8071SOL     OW25111   7.014   5.341   1.073 -0.1635 -0.5285  0.3852
 8071SOL    HW125112   6.982   5.403   1.145 -0.6184 -0.3536  0.0313
 8071SOL    HW225113   7.049   5.257   1.115 -3.6993 -2.0147  0.7143
 8072SOL     OW25114   2.960   1.090   3.950  0.1328  0.5471  0.3100
 8072SOL    HW125115   3.053   1.125   3.955  0.3136  0.0979  0.1959
 8072SOL    HW225116   2.935   1.049   4.037  0.5929 -0.6649 -0.1034
 8073SOL     OW25117   5.531   1.241   6.054  0.2527 -0.4608 -0.0889
 8073SOL    HW125118   5.589   1.290   6.119 -1.4117 -0.8760  1.8141
 8073SOL    HW225119   5.438   1.279   6.057 -0.1127 -1.1602 -1.5061
 8074SOL     OW25120   2.590   3.235   0.023 -0.1553 -0.1652  0.1067
 8074SOL    HW125121   2.589   3.333   0.045 -2.0191 -0.1045 -0.1359
 8074SOL    HW225122   2.680   3.197   0.045  0.5447  1.5627  0.3586
 8075SOL     OW25123   5.423   1.579   4.408  0.2716 -0.6395  0.4421
 8075SOL    HW125124   5.375   1.561   4.322  1.8327 -0.6256 -0.4667
 8075SOL    HW225125   5.513   1.535   4.407  0.1827 -0.9579  2.2426
 8076SOL     OW25126   4.454   2.600   1.555 -0.1016  0.1080 -0.1683
 8076SOL    HW125127   4.484   2.530   1.489 -0.7623 -0.2344 -0.1234
 8076SOL    HW225128   4.467   2.691   1.515 -0.8161 -0.1082 -0.9287
 8077SOL     OW25129   0.994   6.397   6.236 -0.2970 -0.4930 -0.0197
 8077SOL    HW125130   0.963   6.322   6.177  0.4927 -2.3748  1.8039
 8077SOL    HW225131   0.944   6.394   6.322  1.4004 -0.4879  1.0199
 8078SOL     OW25132   0.691   2.571   6.788  0.0091 -0.0743 -0.0036
 8078SOL    HW125133   0.686   2.542   6.692  0.5644  1.1375 -0.4112
 8078SOL    HW225134   0.785   2.561   6.822 -0.0208  0.2458  0.1764
 8079SOL     OW25135   2.761   2.817   6.881 -0.1923  0.0140 -0.2363
 8079SOL    HW125136   2.804   2.832   6.970  1.6728 -2.3419 -0.6424
 8079SOL    HW225137   2.692   2.888   6.866  1.8761  2.6460  1.4996
 8080SOL     OW25138   3.443   4.904   2.199  0.4763  0.0210  0.0085
 8080SOL    HW125139   3.354   4.859   2.206  0.9156 -0.7845  0.6727
 8080SOL    HW225140   3.488   4.877   2.114  1.2846 -1.9011  0.9779
 8081SOL     OW25141   4.552   2.537   3.624  0.0712  0.4444 -0.1869
 8081SOL    HW125142   4.636   2.488   3.647 -0.0600  0.3342  0.0601
 8081SOL    HW225143   4.483   2.521   3.695  0.5544  2.2888  0.7376
 8082SOL     OW25144   1.382   2.488   4.976  0.1706 -0.1838  0.5107
 8082SOL    HW125145   1.414   2.574   5.015 -1.2822  0.8023 -0.3676
 8082SOL    HW225146   1.449   2.453   4.911 -0.0821  1.3878 -0.6493
 8083SOL     OW25147   6.358   1.101   4.741  0.4687 -0.2915  0.0409
 8083SOL    HW125148   6.366   1.068   4.835  0.7256  0.9554  0.4661
 8083SOL    HW225149   6.446   1.094   4.695  0.7936  0.8067  0.4775
 8084SOL     OW25150   5.561   6.451   3.925  0.4460 -0.3996 -0.4706
 8084SOL    HW125151   5.517   6.468   3.836  0.4162 -1.1032 -0.6025
 8084SOL    HW225152   5.523   6.512   3.994  0.8303  0.5056 -1.0472
 8085SOL     OW25153   4.235   2.314   0.748 -0.0690  0.3554  0.2128
 8085SOL    HW125154   4.142   2.287   0.770  0.4888 -0.3874  1.8108
 8085SOL    HW225155   4.279   2.352   0.829  0.4991  2.3460 -0.9468
 8086SOL     OW25156   4.044   4.401   6.826  0.8171 -0.5376 -0.4418
 8086SOL    HW125157   4.059   4.403   6.925  1.4025 -0.9917 -0.5174
 8086SOL    HW225158   3.977   4.330   6.804  2.2525 -1.9086 -0.5540
 8087SOL     OW25159   1.205   3.161   1.070  0.2671  0.1355 -0.0853
 8087SOL    HW125160   1.280   3.172   1.136  0.2632 -0.1678 -0.0300
 8087SOL    HW225161   1.232   3.200   0.982  0.0064  1.2050  0.2883
 8088SOL     OW25162   3.558   1.783   2.270  0.6381 -0.6494 -0.3519
 8088SOL    HW125163   3.571   1.882   2.276  1.2186 -0.5396 -2.5195
 8088SOL    HW225164   3.536   1.746   2.360 -0.0499  1.5126  0.4152
 8089SOL     OW25165   1.473   2.151   6.034  0.0251 -0.2977  0.5085
 8089SOL    HW125166   1.441   2.214   6.105  0.2649  0.8002 -0.3328
 8089SOL    HW225167   1.544   2.196   5.980  1.4636 -1.9232  0.9785
 8090SOL     OW25168   5.149   0.955   4.158 -0.0629  0.0464 -0.0685
 8090SOL    HW125169   5.224   1.021   4.158  0.9352 -1.0595  0.3422
 8090SOL    HW225170   5.178   0.872   4.205 -1.0454 -0.9787 -1.2291
 8091SOL     OW25171   2.163   2.288   4.447 -0.2144 -0.3624  0.1835
 8091SOL    HW125172   2.231   2.274   4.375 -1.2874  0.3369 -0.9973
 8091SOL    HW225173   2.170   2.381   4.482  1.0790 -1.0403  1.8500
 8092SOL     OW25174   6.260   2.205   4.565  0.7922  0.4413  0.4919
 8092SOL    HW125175   6.329   2.277   4.571  0.8523  0.3872  0.4517
 8092SOL    HW225176   6.256   2.156   4.652 -1.2771  2.3370  1.5523
 8093SOL     OW25177   6.543   5.137   1.315  0.1133  0.0944 -0.1440
 8093SOL    HW125178   6.552   5.037   1.324 -0.6649 -0.2122 -2.1232
 8093SOL    HW225179   6.544   5.161   1.218 -1.8973  1.8052  0.1933
 8094SOL     OW25180   6.937   4.192   5.088  0.0301 -0.0516 -0.1506
 8094SOL    HW125181   7.035   4.190   5.067  0.3689  2.4966  0.8724
 8094SOL    HW225182   6.924   4.217   5.184 -1.6263  0.1505 -0.4036
 8095SOL     OW25183   6.104   2.730   5.800 -0.1030 -0.0967  0.1088
 8095SOL    HW125184   6.037   2.669   5.758 -0.5987 -1.5257  2.7893
 8095SOL    HW225185   6.177   2.748   5.735 -0.2262 -3.0923 -1.0320
 8096SOL     OW25186   4.406   1.591   0.238 -0.6283  0.0928 -0.1205
 8096SOL    HW125187   4.462   1.512   0.215 -1.1021 -0.1261 -0.5244
 8096SOL    HW225188   4.437   1.629   0.326 -0.6423 -0.7660  0.2686
 8097SOL     OW25189   4.728   1.840   0.678 -0.2970 -0.2117  0.7247
 8097SOL    HW125190   4.635   1.813   0.704  0.0610 -2.3867 -0.0434
 8097SOL    HW225191   4.739   1.828   0.580  0.6654  0.5549  0.7258
 8098SOL     OW25192   1.725   1.383   5.368  0.1390  0.7056  0.7922
 8098SOL    HW125193   1.778   1.383   5.453  0.4820  0.7787  0.5791
 8098SOL    HW225194   1.632   1.415   5.387  0.2434  0.8182  1.1221
 8099SOL     OW25195   4.737   0.041   5.434 -0.1623 -0.2224  0.2962
 8099SOL    HW125196   4.829   0.078   5.418  0.0166 -0.2581  1.2264
 8099SOL    HW225197   4.694   0.021   5.346 -0.5246  2.7770 -0.3097
 8100SOL     OW25198   6.308   5.467   3.053  0.3179  0.0487 -0.7620
 8100SOL    HW125199   6.391   5.502   3.098  0.4766 -0.2223 -0.8467
 8100SOL    HW225200   6.247   5.429   3.122  0.2707  0.2349 -0.7009
 8101SOL     OW25201   1.010   6.374   1.799  0.2920  0.5380  0.4512
 8101SOL    HW125202   0.956   6.331   1.726 -0.7841  0.9106  1.0098
 8101SOL    HW225203   1.105   6.342   1.793  0.4183  1.1298 -1.5776
 8102SOL     OW25204   1.174   0.028   3.760 -0.0813 -0.3429  0.0386
 8102SOL    HW125205   1.229   0.082   3.825  0.1852  1.2584 -1.4415
 8102SOL    HW225206   1.111  -0.030   3.811  1.3799 -0.5350  1.7513
 8103SOL     OW25207   4.170   0.688   3.067  0.5330  0.1362  0.1102
 8103SOL    HW125208   4.224   0.681   2.983 -1.8727  1.3094 -1.6405
 8103SOL    HW225209   4.163   0.598   3.110  0.5714 -0.8112 -1.7823
 8104SOL     OW25210   2.746   1.312   5.358  0.0733 -0.2933 -0.1926
 8104SOL    HW125211   2.808   1.233   5.352 -0.6822 -0.7855 -2.3264
 8104SOL    HW225212   2.746   1.361   5.272 -1.3886  0.5661  0.2625
 8105SOL     OW25213   2.770   2.341   4.968  0.1573  0.3154 -0.2010
 8105SOL    HW125214   2.805   2.249   4.953  2.3473  0.9939  0.2942
 8105SOL    HW225215   2.843   2.399   5.005 -0.7586  2.5962 -1.7110
 8106SOL     OW25216   0.738   5.162   0.365 -0.0235  0.3575  0.2261
 8106SOL    HW125217   0.790   5.160   0.451 -0.0418  1.1107  0.2621
 8106SOL    HW225218   0.645   5.129   0.382  0.5069 -1.2404  0.1091
 8107SOL     OW25219   0.834   5.630   5.918  0.5698  0.3100  0.5126
 8107SOL    HW125220   0.776   5.573   5.976 -1.4650  0.1383 -1.5295
 8107SOL    HW225221   0.779   5.704   5.879  2.5062  2.0218  0.8895
 8108SOL     OW25222   2.455   2.359   5.632  0.3200 -0.0804  0.0191
 8108SOL    HW125223   2.513   2.362   5.714 -0.2626 -0.7362  0.4637
 8108SOL    HW225224   2.499   2.302   5.563  2.3104  2.8490 -1.3452
 8109SOL     OW25225   6.181   5.961   5.232 -0.1446 -0.4332  0.2293
 8109SOL    HW125226   6.169   6.044   5.286  0.9638  0.4675 -0.8849
 8109SOL    HW225227   6.261   5.969   5.174 -1.2578 -1.3853 -1.5412
 8110SOL     OW25228   3.618   3.744   7.018 -0.8285  0.7332  0.1108
 8110SOL    HW125229   3.591   3.651   6.993 -0.3742  0.8563 -0.9025
 8110SOL    HW225230   3.644   3.746   7.114  0.1611 -0.4344 -0.0992
 8111SOL     OW25231   4.389   6.894   3.414 -0.4780 -0.5410 -0.1321
 8111SOL    HW125232   4.298   6.855   3.429 -0.3703 -0.3567  1.1563
 8111SOL    HW225233   4.414   6.951   3.493  0.3182  0.2747 -0.9438
 8112SOL     OW25234   4.256   2.244   4.835  0.1009 -0.1907  0.1276
 8112SOL    HW125235   4.210   2.309   4.895 -0.5543 -0.6053  0.0767
 8112SOL    HW225236   4.354   2.266   4.831  0.1252 -0.0663  1.2253
 8113SOL     OW25237   5.605   6.093   6.846  0.6140 -0.0923  0.0897
 8113SOL    HW125238   5.600   6.157   6.769  1.7612 -0.3008 -0.1869
 8113SOL    HW225239   5.517   6.090   6.893  0.6058  1.9194  0.2936
 8114SOL     OW25240   1.226   4.357   0.425  0.5218 -0.4400 -0.1257
 8114SOL    HW125241   1.280   4.423   0.373 -0.4757 -0.0328 -0.6798
 8114SOL    HW225242   1.195   4.284   0.364 -1.1578  0.3575 -0.2828
 8115SOL     OW25243   3.861   2.165   1.419  0.0160  0.1181 -0.4037
 8115SOL    HW125244   3.804   2.229   1.470  2.8963  1.9513  0.8119
 8115SOL    HW225245   3.884   2.087   1.478 -2.3053 -1.4298 -1.4019
 8116SOL     OW25246   4.961   0.037   6.711 -0.3504  0.4927 -0.1994
 8116SOL    HW125247   4.901  -0.004   6.643  0.5194 -0.9380 -0.1459
 8116SOL    HW225248   4.973   0.134   6.691 -0.1265  0.1162 -2.1014
 8117SOL     OW25249   3.967   3.539   5.685 -0.0219  0.1869  0.1042
 8117SOL    HW125250   4.020   3.617   5.720  0.7297  0.6114 -1.8431
 8117SOL    HW225251   4.023   3.456   5.689 -0.5872 -0.1585  1.5472
 8118SOL     OW25252   2.878   1.080   5.358  0.5493  0.7866  0.3175
 8118SOL    HW125253   2.955   1.064   5.420  0.1791 -0.7881  0.3975
 8118SOL    HW225254   2.903   1.053   5.265  0.7949  2.3065 -0.0979
 8119SOL     OW25255   3.620   6.739   1.456 -0.8129 -0.2357 -0.1941
 8119SOL    HW125256   3.556   6.702   1.390 -0.8402 -0.5633  0.0160
 8119SOL    HW225257   3.629   6.838   1.442 -0.1528 -0.4349 -1.2509
 8120SOL     OW25258   4.976   4.595   1.613  0.3663  0.3363  0.1235
 8120SOL    HW125259   4.938   4.635   1.530  0.3953  0.7932  0.3257
 8120SOL    HW225260   5.076   4.594   1.607  0.4739  2.1500  0.9323
 8121SOL     OW25261   0.994   6.492   2.756 -0.2116 -0.7712 -0.2844
 8121SOL    HW125262   0.924   6.427   2.726 -0.0095 -0.4193 -1.5893
 8121SOL    HW225263   1.022   6.549   2.679  0.3999  0.1436  0.5826
 8122SOL     OW25264   1.526   4.182   0.389  0.0846 -0.2161 -0.3649
 8122SOL    HW125265   1.607   4.232   0.358 -0.0002 -0.6530 -1.3062
 8122SOL    HW225266   1.503   4.212   0.482  1.5244 -0.3325  0.0595
 8123SOL     OW25267   0.724   5.062   5.036  0.0679  0.6435 -0.2310
 8123SOL    HW125268   0.642   5.045   4.982  1.4603 -0.1069 -2.2257
 8123SOL    HW225269   0.704   5.046   5.133 -2.0021  0.0978 -0.6934
 8124SOL     OW25270   1.266   6.969   4.105 -0.2407 -0.4210  0.2133
 8124SOL    HW125271   1.324   7.048   4.090  2.0922 -1.8117  1.3719
 8124SOL    HW225272   1.294   6.895   4.044 -0.5115 -1.2554  1.0762
 8125SOL     OW25273   6.262   5.088   5.188 -0.4285  0.3527  0.3563
 8125SOL    HW125274   6.208   5.132   5.116 -0.7747 -0.3882  0.1542
 8125SOL    HW225275   6.357   5.119   5.183 -0.5797  0.7532 -0.0483
 8126SOL     OW25276   0.842   4.300   2.105 -0.2492 -0.2002 -0.2939
 8126SOL    HW125277   0.865   4.276   2.011 -1.2725 -0.3816 -0.5097
 8126SOL    HW225278   0.925   4.299   2.161  0.1072 -2.0022 -0.7790
 8127SOL     OW25279   4.547   0.545   5.935 -0.1719 -1.1479 -0.2654
 8127SOL    HW125280   4.604   0.535   6.016  1.2115 -0.4936 -1.1260
 8127SOL    HW225281   4.555   0.462   5.879  1.9381 -0.1432 -1.5809
 8128SOL     OW25282   2.337   3.142   5.435 -0.5721  0.3442  0.0213
 8128SOL    HW125283   2.409   3.205   5.463 -0.0550 -0.4205  0.4262
 8128SOL    HW225284   2.361   3.101   5.346 -0.0107 -0.6569  0.6161
 8129SOL     OW25285   4.753   5.864   5.188  0.3176  0.3012  0.0334
 8129SOL    HW125286   4.822   5.837   5.255  1.5731  0.7848 -1.0231
 8129SOL    HW225287   4.795   5.923   5.119  0.0072 -3.0454 -3.2639
 8130SOL     OW25288   0.501   0.595   5.951 -0.2003  0.0694  0.1554
 8130SOL    HW125289   0.463   0.571   5.861  0.6300 -1.3481  0.1653
 8130SOL    HW225290   0.449   0.548   6.022 -0.1416  0.3127  0.3619
 8131SOL     OW25291   2.890   6.654   2.217 -0.3543  0.3800 -0.4625
 8131SOL    HW125292   2.936   6.725   2.164  1.9557 -0.8157 -0.2102
 8131SOL    HW225293   2.848   6.588   2.155 -0.0669  0.4594 -0.7443
 8132SOL     OW25294   6.134   5.721   3.509 -0.2319  0.2928  0.5427
 8132SOL    HW125295   6.150   5.664   3.429 -2.8563 -0.7914  0.6904
 8132SOL    HW225296   6.173   5.678   3.590  0.8891  0.5187  0.1344
 8133SOL     OW25297   0.280   4.985   2.574 -0.5336  0.1588 -0.1587
 8133SOL    HW125298   0.197   4.946   2.534 -0.7084  0.2554  0.1037
 8133SOL    HW225299   0.351   4.993   2.504 -0.1380 -1.6001  0.0018
 8134SOL     OW25300   2.845   3.156   0.158 -0.4724 -0.4379 -0.4703
 8134SOL    HW125301   2.933   3.162   0.112 -0.1052 -0.1458  0.2658
 8134SOL    HW225302   2.851   3.090   0.233 -1.5580 -2.2964 -1.9042
 8135SOL     OW25303   4.901   6.419   3.040 -0.1035 -0.2511 -0.0175
 8135SOL    HW125304   4.847   6.338   3.021 -0.4962  0.1321 -0.5758
 8135SOL    HW225305   4.871   6.460   3.126 -0.2205 -0.4350  0.0296
 8136SOL     OW25306   3.782   4.763   1.273  0.0732 -0.4599 -0.1718
 8136SOL    HW125307   3.809   4.796   1.363 -2.8305 -1.1260  1.0389
 8136SOL    HW225308   3.801   4.665   1.267  1.6723 -0.1511 -0.9432
 8137SOL     OW25309   3.007   4.788   6.767 -0.0388 -0.9179 -0.0137
 8137SOL    HW125310   3.078   4.754   6.706  1.4046 -0.9600  1.6303
 8137SOL    HW225311   2.933   4.720   6.773 -0.0345 -1.0688 -1.3866
 8138SOL     OW25312   5.438   0.976   3.837 -0.1096  0.0752  0.1695
 8138SOL    HW125313   5.479   0.978   3.928 -1.7986  0.2276  0.9752
 8138SOL    HW225314   5.374   1.053   3.828 -0.8479 -0.6170 -0.7156
 8139SOL     OW25315   2.722   4.044   5.455  0.4040  0.1459  0.1262
 8139SOL    HW125316   2.663   4.114   5.414  0.8648  0.3704 -0.1581
 8139SOL    HW225317   2.717   3.960   5.401  0.8666  0.3818 -0.2916
 8140SOL     OW25318   4.062   1.579   1.781  0.0078  0.2730 -0.1366
 8140SOL    HW125319   4.025   1.562   1.689  0.6542 -0.1522 -0.3218
 8140SOL    HW225320   3.991   1.563   1.849  0.0391 -1.2619 -0.4351
 8141SOL     OW25321   4.852   2.117   6.766 -0.1149  0.7179 -0.2932
 8141SOL    HW125322   4.876   2.039   6.822 -1.6358 -1.9763 -3.0932
 8141SOL    HW225323   4.765   2.155   6.797 -0.6622 -0.3772 -0.4435
 8142SOL     OW25324   4.049   4.688   6.391 -0.2474  0.4542 -0.5600
 8142SOL    HW125325   4.023   4.610   6.449  1.0376 -0.3184 -0.9807
 8142SOL    HW225326   4.134   4.728   6.425  2.2118 -1.8395 -3.3947
 8143SOL     OW25327   5.867   5.341   0.482  0.1563  0.2317  0.0457
 8143SOL    HW125328   5.892   5.430   0.517 -0.3945  0.0236  0.9994
 8143SOL    HW225329   5.938   5.274   0.504 -0.8055 -0.1960  2.0697
 8144SOL     OW25330   2.993   5.891   1.001 -0.3232  0.3535  0.4757
 8144SOL    HW125331   2.932   5.918   0.926 -0.6176 -0.3791  0.4408
 8144SOL    HW225332   3.087   5.887   0.967 -0.0194  2.8288  0.8592
 8145SOL     OW25333   3.342   0.574   5.098 -0.3112 -0.7347 -1.1585
 8145SOL    HW125334   3.313   0.663   5.060 -2.1454 -0.0827  1.5230
 8145SOL    HW225335   3.425   0.587   5.151 -0.5050 -0.6503 -0.8760
 8146SOL     OW25336   6.786   4.136   6.265  0.2267 -0.5382  0.3271
 8146SOL    HW125337   6.807   4.216   6.208  1.3547 -1.1451 -0.1554
 8146SOL    HW225338   6.869   4.080   6.275 -0.4756 -1.5142  0.8590
 8147SOL     OW25339   1.652   6.795   6.322  0.1741  0.1084  0.0082
 8147SOL    HW125340   1.608   6.831   6.404  0.1719 -1.8867  0.9301
 8147SOL    HW225341   1.627   6.852   6.243 -0.7356  1.3973  1.1795
 8148SOL     OW25342   5.259   6.745   5.876 -0.7389  0.4747 -0.3122
 8148SOL    HW125343   5.293   6.657   5.909  0.2125  1.0344  0.2537
 8148SOL    HW225344   5.277   6.816   5.945  1.8895  1.8111 -2.2231
 8149SOL     OW25345   1.119   0.436   2.286 -0.1323  0.1173 -0.5222
 8149SOL    HW125346   1.146   0.353   2.238 -1.5302 -1.1864  0.8231
 8149SOL    HW225347   1.137   0.426   2.384 -1.2432  0.9862 -0.1967
 8150SOL     OW25348   1.153   2.368   5.221  0.1965  0.8178  0.1729
 8150SOL    HW125349   1.108   2.325   5.299  0.2986  1.1754  0.4284
 8150SOL    HW225350   1.246   2.393   5.246  0.4505  0.3384 -0.2676
 8151SOL     OW25351   0.092   3.115   2.793  0.0506 -0.2748 -0.1231
 8151SOL    HW125352   0.158   3.186   2.818  1.4628 -1.5888  0.0501
 8151SOL    HW225353   0.066   3.127   2.697 -0.8201  1.2583  0.2604
 8152SOL     OW25354   5.964   0.448   3.376  0.4790 -0.4144  0.1789
 8152SOL    HW125355   6.056   0.482   3.360 -0.8039  2.2377 -2.8564
 8152SOL    HW225356   5.908   0.521   3.416 -1.2474 -0.3874 -2.0409
 8153SOL     OW25357   0.198   0.891   1.770  0.2859 -0.1056 -0.2499
 8153SOL    HW125358   0.167   0.891   1.675 -0.6260  1.8025  0.0098
 8153SOL    HW225359   0.121   0.911   1.830  1.0870 -0.1530  0.8089
 8154SOL     OW25360   6.973   6.504   4.179  0.3134  0.4783 -0.0802
 8154SOL    HW125361   6.920   6.554   4.110 -0.2123  2.1888  1.4634
 8154SOL    HW225362   7.065   6.542   4.183 -0.1006  1.4538  1.1290
 8155SOL     OW25363   2.385   5.019   5.676 -0.2311  0.5441 -0.1071
 8155SOL    HW125364   2.387   4.920   5.661  1.7986  0.5425 -0.1055
 8155SOL    HW225365   2.315   5.060   5.618 -0.9381 -0.8596 -0.2873
 8156SOL     OW25366   1.301   1.286   6.103  0.1502  0.1880 -0.7202
 8156SOL    HW125367   1.280   1.356   6.034 -1.1144 -0.6870 -1.2584
 8156SOL    HW225368   1.287   1.325   6.195 -0.1986  0.7579 -1.0080
 8157SOL     OW25369   0.752   3.310   6.699  0.2204 -0.3499  0.1226
 8157SOL    HW125370   0.693   3.244   6.746 -0.0770 -0.2211 -0.0712
 8157SOL    HW225371   0.697   3.367   6.638  0.5774 -0.3930 -0.2461
 8158SOL     OW25372   4.610   5.121   5.631 -0.6427 -0.4176  0.1460
 8158SOL    HW125373   4.605   5.093   5.535  0.0996 -1.0688  0.2889
 8158SOL    HW225374   4.564   5.209   5.643 -0.9120 -0.4283 -0.7686
 8159SOL     OW25375   2.532   5.358   4.679 -0.5746  0.0656 -0.1472
 8159SOL    HW125376   2.597   5.374   4.605 -2.0227  1.2064 -1.2379
 8159SOL    HW225377   2.570   5.290   4.742  0.9171 -0.5902 -1.6516
 8160SOL     OW25378   4.979   3.859   2.783 -0.1475  0.1461  0.1620
 8160SOL    HW125379   4.961   3.815   2.695 -2.6684  1.5960 -0.1450
 8160SOL    HW225380   5.024   3.947   2.768  0.1872  0.0223  0.4093
 8161SOL     OW25381   0.399   2.201   0.564  0.3349 -0.0498  0.3403
 8161SOL    HW125382   0.438   2.209   0.655 -0.5686 -1.4422  0.8897
 8161SOL    HW225383   0.391   2.292   0.523  1.6838  0.5062  1.2205
 8162SOL     OW25384   4.651   6.964   5.177 -0.1413  0.1663  0.0885
 8162SOL    HW125385   4.571   6.905   5.179  0.0444 -0.0734  0.5533
 8162SOL    HW225386   4.731   6.910   5.151  0.3676 -0.2017  2.2723
 8163SOL     OW25387   3.106   0.085   4.538  0.1231  0.5578 -0.4151
 8163SOL    HW125388   3.059   0.001   4.568  0.0557  1.0558  0.9586
 8163SOL    HW225389   3.059   0.164   4.578  1.1215  1.1598 -0.4246
 8164SOL     OW25390   3.784   1.285   5.932 -0.4724 -0.7767 -0.4168
 8164SOL    HW125391   3.883   1.279   5.944 -0.0809  0.3110 -2.5792
 8164SOL    HW225392   3.756   1.381   5.936 -1.4833 -1.0966  0.4110
 8165SOL     OW25393   6.460   1.746   4.194  0.6753 -0.1666 -0.2616
 8165SOL    HW125394   6.496   1.811   4.261  0.3561 -0.1159 -0.1363
 8165SOL    HW225395   6.501   1.656   4.210 -0.3633 -0.4713  0.8489
 8166SOL     OW25396   4.908   2.092   2.733 -0.4340  0.7049 -0.0686
 8166SOL    HW125397   4.991   2.109   2.679 -1.8794  0.3944 -2.5274
 8166SOL    HW225398   4.893   1.993   2.739 -0.2985  0.7378  0.9457
 8167SOL     OW25399   1.582   1.946   2.370 -0.1267  0.4701 -0.2106
 8167SOL    HW125400   1.563   1.996   2.454  1.4853  1.4287 -0.3749
 8167SOL    HW225401   1.653   1.994   2.318  0.2017 -1.0646 -1.2499
 8168SOL     OW25402   0.915   5.148   3.077  0.0110  0.1145 -0.7552
 8168SOL    HW125403   0.816   5.142   3.088 -0.0139 -0.4369 -1.2407
 8168SOL    HW225404   0.947   5.071   3.023  0.4711  1.2569 -2.1761
 8169SOL     OW25405   6.084   3.710   6.343  0.5811  0.0237 -0.4351
 8169SOL    HW125406   6.013   3.679   6.280  0.3425  0.2894 -0.2960
 8169SOL    HW225407   6.045   3.720   6.435  0.3554  1.9105 -0.7117
 8170SOL     OW25408   5.675   5.566   4.363 -0.6603  0.2850  0.1722
 8170SOL    HW125409   5.640   5.486   4.314 -1.5159  1.1921 -0.7763
 8170SOL    HW225410   5.774   5.563   4.366 -0.6875 -0.9286  0.3689
 8171SOL     OW25411   0.815   0.861   2.783 -0.3881 -0.0440  0.3296
 8171SOL    HW125412   0.838   0.925   2.856 -0.2065 -0.3469  0.5411
 8171SOL    HW225413   0.890   0.855   2.717 -0.8656  0.8188 -0.3126
 8172SOL     OW25414   0.637   4.912   6.727  0.0177 -0.0830  0.0462
 8172SOL    HW125415   0.633   4.876   6.820  1.2671 -0.0407  0.1318
 8172SOL    HW225416   0.732   4.929   6.701 -0.3447  0.4187 -1.0480
 8173SOL     OW25417   5.804   0.905   1.680  0.0718 -0.1814 -0.5618
 8173SOL    HW125418   5.761   0.969   1.744  0.8497  1.5977 -1.7277
 8173SOL    HW225419   5.738   0.835   1.653 -0.3449 -0.8525  1.9343
 8174SOL     OW25420   3.495   0.456   3.872 -0.2341  0.3090  0.0162
 8174SOL    HW125421   3.473   0.391   3.944 -0.7041  1.0254  0.5355
 8174SOL    HW225422   3.488   0.549   3.909  2.7470  0.6436 -0.0053
 8175SOL     OW25423   1.840   1.572   0.280  0.4650 -0.1595 -0.3581
 8175SOL    HW125424   1.766   1.511   0.310  0.2882 -0.1182 -0.7042
 8175SOL    HW225425   1.926   1.522   0.280  0.2996 -0.4536 -0.7697
 8176SOL     OW25426   6.225   6.463   0.396  0.0619 -0.5485  0.2550
 8176SOL    HW125427   6.239   6.555   0.360  0.0173 -1.0495 -1.0731
 8176SOL    HW225428   6.281   6.398   0.345 -1.6127 -1.5802 -0.3425
 8177SOL     OW25429   2.010   0.154   0.993 -0.1169 -0.0365 -0.4180
 8177SOL    HW125430   2.062   0.168   1.077 -1.4543  0.7505  0.3136
 8177SOL    HW225431   2.055   0.201   0.917  0.2230  0.6364  0.1965
 8178SOL     OW25432   2.021   6.081   2.053  0.4092  0.6270 -0.1640
 8178SOL    HW125433   2.032   6.091   1.954  0.5454  0.9490 -0.1148
 8178SOL    HW225434   2.011   5.984   2.075  0.6153  0.5366 -0.4668
 8179SOL     OW25435   5.913   6.123   5.125  0.1878 -0.5044  0.0011
 8179SOL    HW125436   5.894   6.195   5.058 -2.3214  1.6557  2.7769
 8179SOL    HW225437   5.968   6.161   5.199  0.9147 -2.1902  0.3746
 8180SOL     OW25438   4.164   5.449   1.363 -0.8938  0.2592  0.2321
 8180SOL    HW125439   4.106   5.418   1.288 -1.3210 -1.9059  1.3897
 8180SOL    HW225440   4.118   5.525   1.411 -3.3811 -1.9931  1.6997
 8181SOL     OW25441   5.943   6.431   5.104 -0.2494  0.5215 -0.2567
 8181SOL    HW125442   6.019   6.487   5.137  0.8221 -0.6145 -0.7104
 8181SOL    HW225443   5.950   6.421   5.005 -0.2096 -0.7069 -0.1412
 8182SOL     OW25444   3.397   4.031   2.587 -0.3681 -0.2597  0.0014
 8182SOL    HW125445   3.407   4.029   2.487 -1.4465 -1.8890 -0.1164
 8182SOL    HW225446   3.446   3.954   2.627  0.0896  0.4096  0.7548
 8183SOL     OW25447   6.820   0.523   5.856  0.1128 -0.1152 -0.3290
 8183SOL    HW125448   6.770   0.439   5.877  0.3633 -0.1428  0.1577
 8183SOL    HW225449   6.811   0.588   5.931 -0.4073  0.4589 -0.8680
 8184SOL     OW25450   5.805   4.132   3.727 -0.1157 -0.4452 -0.2375
 8184SOL    HW125451   5.796   4.130   3.628  1.6584  1.2752 -0.4946
 8184SOL    HW225452   5.859   4.053   3.757  0.7087 -0.1214 -0.8380
 8185SOL     OW25453   5.467   5.883   3.503 -0.4878  0.0893  0.3466
 8185SOL    HW125454   5.551   5.843   3.466 -0.8344 -1.2987  1.0034
 8185SOL    HW225455   5.437   5.958   3.444 -0.0165 -0.8637 -1.1437
 8186SOL     OW25456   6.697   6.226   7.007  0.0413  0.1789 -0.0256
 8186SOL    HW125457   6.678   6.312   7.054 -0.1995 -0.0973  0.3848
 8186SOL    HW225458   6.615   6.170   7.004  0.0933  0.1227 -0.6445
 8187SOL     OW25459   0.675   0.147   6.099 -0.1080 -0.4389  0.1753
 8187SOL    HW125460   0.697   0.127   6.194  1.6910  1.9384  0.3459
 8187SOL    HW225461   0.727   0.085   6.039  2.1326  0.8022  0.7278
 8188SOL     OW25462   2.043   3.629   4.409 -0.3031 -0.2007  0.0906
 8188SOL    HW125463   2.093   3.627   4.496  1.0517 -0.8171 -0.6709
 8188SOL    HW225464   1.960   3.684   4.419 -0.3238 -0.4985  1.8496
 8189SOL     OW25465   1.744   6.123   3.041  0.4598  0.5707  0.0099
 8189SOL    HW125466   1.800   6.158   2.967 -1.6368  2.7531 -0.6520
 8189SOL    HW225467   1.719   6.028   3.022  1.5545  0.4768 -1.0643
 8190SOL     OW25468   4.829   4.394   1.758  0.5289 -0.6567 -0.0127
 8190SOL    HW125469   4.884   4.456   1.702 -1.9428  1.8496  0.1301
 8190SOL    HW225470   4.752   4.360   1.704 -0.3359 -0.4372  1.0644
 8191SOL     OW25471   5.329   5.377   7.009  0.6527  0.5190  0.3234
 8191SOL    HW125472   5.263   5.365   7.084 -0.8225  2.1920 -0.6505
 8191SOL    HW225473   5.361   5.287   6.979  1.0505 -0.2184  2.7185
 8192SOL     OW25474   5.948   5.599   2.612 -0.0715  0.1897  0.1812
 8192SOL    HW125475   5.888   5.606   2.533 -1.3912  0.7958  1.1911
 8192SOL    HW225476   5.923   5.669   2.679  2.2044  0.9231  0.3787
 8193SOL     OW25477   6.895   6.239   6.217 -0.0495  0.0625 -0.1484
 8193SOL    HW125478   6.807   6.200   6.241 -0.0721  0.9262  1.2443
 8193SOL    HW225479   6.884   6.335   6.192  0.3745 -0.0712 -0.8850
 8194SOL     OW25480   3.660   1.130   1.705 -0.1407 -0.1103 -0.3600
 8194SOL    HW125481   3.632   1.049   1.757 -2.1027  1.2086  0.7656
 8194SOL    HW225482   3.696   1.101   1.616 -1.0857 -2.2171 -0.1210
 8195SOL     OW25483   4.379   6.324   2.902  0.2610  0.0613  0.0317
 8195SOL    HW125484   4.424   6.256   2.958  0.5807  0.7203  0.5864
 8195SOL    HW225485   4.307   6.369   2.955 -0.9204 -0.8265 -0.7726
 8196SOL     OW25486   5.245   1.022   3.556  0.3378 -0.1033  0.4996
 8196SOL    HW125487   5.198   1.034   3.643 -0.2958 -1.1923  0.3329
 8196SOL    HW225488   5.203   1.080   3.486 -0.5291 -0.7675  0.4490
 8197SOL     OW25489   3.288   1.441   3.857 -0.0180 -0.0526 -0.4278
 8197SOL    HW125490   3.357   1.460   3.928 -1.6274 -1.9028  1.7840
 8197SOL    HW225491   3.333   1.435   3.768  2.2162  1.6590  0.4786
 8198SOL     OW25492   2.857   5.510   0.465 -0.5183 -0.2141 -0.4396
 8198SOL    HW125493   2.910   5.441   0.417 -0.1220  1.0124 -1.8465
 8198SOL    HW225494   2.840   5.588   0.404 -3.1959 -0.1529  0.2294
 8199SOL     OW25495   5.725   3.397   5.935  0.1844 -0.2104 -0.2737
 8199SOL    HW125496   5.685   3.375   6.025  0.2887 -0.1135 -0.2032
 8199SOL    HW225497   5.823   3.381   5.938 -0.0572 -2.0098 -0.9233
 8200SOL     OW25498   6.683   2.167   6.768 -0.2201  0.2384 -0.2584
 8200SOL    HW125499   6.634   2.211   6.693 -0.3895 -1.7746 -1.4130
 8200SOL    HW225500   6.775   2.205   6.775 -0.2633  0.5974 -1.3873
 8201SOL     OW25501   6.097   0.896   4.861 -0.0279 -0.3409 -0.0120
 8201SOL    HW125502   6.091   0.826   4.932 -0.3757 -1.7733 -1.3966
 8201SOL    HW225503   6.185   0.888   4.814 -0.3875 -0.4016 -0.6967
 8202SOL     OW25504   5.699   5.834   6.874  0.1758  0.7644 -0.3291
 8202SOL    HW125505   5.754   5.810   6.954 -0.2161  0.0390 -0.2673
 8202SOL    HW225506   5.696   5.934   6.864 -1.3763  0.9860  1.7106
 8203SOL     OW25507   1.225   3.593   6.300 -0.2342  0.0141 -0.4319
 8203SOL    HW125508   1.151   3.661   6.307 -0.0245  0.1845  0.1785
 8203SOL    HW225509   1.296   3.614   6.367 -0.2144 -0.8699 -0.1674
 8204SOL     OW25510   2.158   3.922   7.022 -0.0076 -0.2041  0.1320
 8204SOL    HW125511   2.171   4.005   6.968 -2.5778  0.1881 -0.0188
 8204SOL    HW225512   2.212   3.929   7.106  1.7219  0.4889 -0.9702
 8205SOL     OW25513   0.876   3.568   0.116  0.4000 -0.2110  0.0132
 8205SOL    HW125514   0.785   3.571   0.074  1.2658  0.6202 -1.9207
 8205SOL    HW225515   0.897   3.656   0.157  0.2159 -0.5166  0.7881
 8206SOL     OW25516   2.342   2.629   0.991  0.3511 -0.8555 -0.1075
 8206SOL    HW125517   2.268   2.619   0.925  1.0552  0.6817 -1.2115
 8206SOL    HW225518   2.311   2.602   1.081 -0.8825 -2.2804 -0.9212
 8207SOL     OW25519   3.789   3.129   0.200  0.4047 -0.0079  0.3485
 8207SOL    HW125520   3.833   3.125   0.110  1.8789 -1.0840  1.0818
 8207SOL    HW225521   3.719   3.059   0.206 -0.7308  1.0194 -0.4517
 8208SOL     OW25522   4.181   0.355   6.108 -0.4259 -0.4530 -0.0115
 8208SOL    HW125523   4.202   0.264   6.072 -1.3933 -0.4612 -0.5975
 8208SOL    HW225524   4.202   0.423   6.038  0.9086 -0.1448  0.6529
 8209SOL     OW25525   5.697   4.654   4.240 -0.4616  0.1089  0.4758
 8209SOL    HW125526   5.686   4.657   4.140 -0.7774  0.0386  0.5068
 8209SOL    HW225527   5.713   4.559   4.268 -0.9404  0.0445  0.5467
 8210SOL     OW25528   5.875   1.267   6.825  0.0946  0.0324 -0.2457
 8210SOL    HW125529   5.814   1.220   6.761  0.5717  0.3423 -0.9322
 8210SOL    HW225530   5.819   1.315   6.894 -0.4460  0.3319 -0.8759
 8211SOL     OW25531   4.013   3.862   1.480 -0.4870  0.5419  0.5800
 8211SOL    HW125532   3.991   3.954   1.448  1.3356  0.3030 -1.6518
 8211SOL    HW225533   4.109   3.841   1.459 -0.6076 -1.5600  1.8049
 8212SOL     OW25534   0.576   3.224   3.545  0.4847 -0.1017  0.3238
 8212SOL    HW125535   0.584   3.192   3.639 -0.4270 -0.9654  0.1263
 8212SOL    HW225536   0.666   3.222   3.501  0.4859 -2.3577  0.3479
 8213SOL     OW25537   1.408   4.521   6.594  0.2875 -0.2220  0.3456
 8213SOL    HW125538   1.360   4.434   6.591  0.2145 -0.1752 -2.3462
 8213SOL    HW225539   1.415   4.559   6.502  1.5242  1.9798  1.2499
 8214SOL     OW25540   6.046   3.273   3.990 -0.6040  0.0677 -0.3904
 8214SOL    HW125541   5.953   3.303   3.969 -0.4669  0.6113 -0.2172
 8214SOL    HW225542   6.044   3.205   4.063 -0.8267  0.4132 -0.0749
 8215SOL     OW25543   2.013   4.692   0.722 -0.2237  0.3231  0.1457
 8215SOL    HW125544   2.033   4.769   0.661 -0.5438  1.9679  2.0095
 8215SOL    HW225545   1.943   4.634   0.681  0.1283  0.9298 -1.3735
 8216SOL     OW25546   6.030   6.997   5.867 -0.0728  0.4042 -0.0104
 8216SOL    HW125547   5.958   6.967   5.931  0.9252 -1.1584  0.4561
 8216SOL    HW225548   6.119   6.974   5.906  0.7613  3.1280 -0.1647
 8217SOL     OW25549   1.857   5.585   0.695 -0.0391 -0.1759 -0.0194
 8217SOL    HW125550   1.864   5.671   0.745 -1.3318 -0.5245  0.8336
 8217SOL    HW225551   1.848   5.509   0.760 -0.8142 -0.7414 -0.7531
 8218SOL     OW25552   4.712   3.017   6.107  0.5302  0.2696  0.3245
 8218SOL    HW125553   4.745   3.020   6.012 -1.4600  0.2052 -0.4162
 8218SOL    HW225554   4.684   3.109   6.135  0.1840  0.1161  0.4877
 8219SOL     OW25555   0.003   4.098   1.006  0.1509  0.1030  0.8105
 8219SOL    HW125556  -0.041   4.188   1.002  1.0425  0.5458  0.6215
 8219SOL    HW225557   0.004   4.057   0.915  1.1716  0.6327  0.5561
 8220SOL     OW25558   4.699   3.826   0.361 -0.3443  0.4829  0.2419
 8220SOL    HW125559   4.673   3.841   0.457 -0.5423  3.0422 -0.1479
 8220SOL    HW225560   4.798   3.816   0.355 -0.3244  0.3540  0.7026
 8221SOL     OW25561   5.418   2.396   2.658 -0.0549  0.0972  0.3833
 8221SOL    HW125562   5.414   2.489   2.624 -2.5201  0.4254  1.3096
 8221SOL    HW225563   5.398   2.395   2.756 -1.7757 -1.4768  0.0844
 8222SOL     OW25564   5.860   2.261   0.007 -0.2751 -0.5137 -0.2058
 8222SOL    HW125565   5.774   2.235  -0.037 -1.0983 -0.9904  1.5667
 8222SOL    HW225566   5.936   2.237  -0.052 -1.3714  1.7116 -2.7078
 8223SOL     OW25567   1.343   3.573   1.296  0.3200  0.2607 -0.0777
 8223SOL    HW125568   1.374   3.529   1.212  1.9211  0.5259  0.3405
 8223SOL    HW225569   1.278   3.513   1.343 -0.0400 -0.2005 -1.1349
 8224SOL     OW25570   0.748   3.050   2.002  0.4367  0.6054 -0.1318
 8224SOL    HW125571   0.834   3.101   2.008  1.2648 -0.7577  0.2020
 8224SOL    HW225572   0.768   2.952   2.005 -0.9140  0.1605 -2.5594
 8225SOL     OW25573   5.186   6.738   6.378 -0.5096 -0.2407  0.3842
 8225SOL    HW125574   5.175   6.746   6.477 -0.1632  0.2445  0.3860
 8225SOL    HW225575   5.147   6.651   6.347 -2.0190  0.3081  0.7151
 8226SOL     OW25576   4.948   6.618   6.778 -0.1979  0.1382  0.1407
 8226SOL    HW125577   5.008   6.544   6.749 -0.5675  0.2900 -1.0662
 8226SOL    HW225578   4.975   6.649   6.870  0.0597 -1.3583  0.5966
 8227SOL     OW25579   4.615   4.346   3.139  0.8060 -0.0732  0.2259
 8227SOL    HW125580   4.536   4.404   3.155 -0.3725 -1.7578  0.8117
 8227SOL    HW225581   4.651   4.363   3.047  0.1255  1.1215  0.1666
 8228SOL     OW25582   5.890   6.954   1.938 -0.9472 -0.3086 -0.0024
 8228SOL    HW125583   5.849   7.042   1.913  2.8479  1.5706 -0.2909
 8228SOL    HW225584   5.882   6.891   1.861 -1.4104  0.6959 -0.8072
 8229SOL     OW25585   5.670   4.141   0.531 -0.3242 -0.0856  0.1841
 8229SOL    HW125586   5.666   4.136   0.630  2.6241 -0.0777  0.3926
 8229SOL    HW225587   5.643   4.052   0.492  1.7362 -1.2239  1.2077
 8230SOL     OW25588   4.744   2.989   3.446 -0.1986  0.5563 -0.2620
 8230SOL    HW125589   4.654   3.017   3.414 -0.1117 -0.1611 -1.1885
 8230SOL    HW225590   4.792   2.941   3.372 -0.6062 -2.6255  1.3392
 8231SOL     OW25591   2.240   4.917   2.915  0.4592  1.0673  0.1485
 8231SOL    HW125592   2.164   4.979   2.937  1.0732  1.3689  1.5602
 8231SOL    HW225593   2.282   4.885   3.000 -0.2962 -1.9267 -0.5015
 8232SOL     OW25594   1.454   1.884   6.781 -0.2917 -0.5439  0.2257
 8232SOL    HW125595   1.475   1.792   6.748 -0.6667 -0.7168  0.4561
 8232SOL    HW225596   1.486   1.952   6.715 -0.8830 -0.8748 -0.4094
 8233SOL     OW25597   1.706   5.086   1.105 -0.2168  0.1180  0.0517
 8233SOL    HW125598   1.645   5.063   1.180  0.4763 -1.3649  0.1934
 8233SOL    HW225599   1.662   5.062   1.018 -0.6709  1.0311  0.0200
 8234SOL     OW25600   2.962   2.785   6.419  0.1904 -0.4654  0.3407
 8234SOL    HW125601   2.959   2.785   6.519  1.2346  0.4496  0.3843
 8234SOL    HW225602   3.056   2.770   6.388  0.1362  0.7575 -0.4801
 8235SOL     OW25603   4.665   2.528   6.871  0.4997 -0.2498 -0.0836
 8235SOL    HW125604   4.600   2.593   6.912  0.0090  0.5498 -2.0490
 8235SOL    HW225605   4.749   2.526   6.926  1.3197  3.5055 -0.9379
 8236SOL     OW25606   6.146   2.410   3.509 -0.0588  0.3043  0.6321
 8236SOL    HW125607   6.225   2.459   3.546  1.1062  0.2098 -1.5961
 8236SOL    HW225608   6.127   2.330   3.566  1.9406 -0.1040  0.7883
 8237SOL     OW25609   2.630   5.707   5.302  0.1851 -0.1214  0.0487
 8237SOL    HW125610   2.725   5.692   5.276  0.3709 -0.9121  1.1001
 8237SOL    HW225611   2.570   5.652   5.245  0.5381 -1.4143  0.8960
 8238SOL     OW25612   1.849   6.890   4.356 -0.3665 -0.2116  0.2186
 8238SOL    HW125613   1.840   6.878   4.257  2.1752 -2.0440  0.1150
 8238SOL    HW225614   1.761   6.874   4.399 -1.4020  0.0617 -1.6766
 8239SOL     OW25615   5.749   1.509   1.323  0.3003 -0.0465 -0.2841
 8239SOL    HW125616   5.814   1.561   1.267  0.9601  2.6349  2.6804
 8239SOL    HW225617   5.800   1.454   1.389 -0.4006  0.1740  0.4500
 8240SOL     OW25618   3.890   3.205   1.613 -0.0450 -0.3880  0.0325
 8240SOL    HW125619   3.797   3.240   1.612  0.2246  0.3844  0.5284
 8240SOL    HW225620   3.917   3.185   1.707  0.1127 -1.1025 -0.1622
 8241SOL     OW25621   4.809   3.933   1.508  0.3934  0.0599 -0.1654
 8241SOL    HW125622   4.818   3.838   1.538 -0.3664  0.1947  0.5291
 8241SOL    HW225623   4.713   3.952   1.487  0.2786  1.1000  1.2083
 8242SOL     OW25624   1.996   3.098   5.116  0.3308 -0.5414  0.0562
 8242SOL    HW125625   2.051   3.026   5.158  0.4458 -0.6288 -0.2404
 8242SOL    HW225626   2.020   3.107   5.020  0.5944  0.1626  0.1825
 8243SOL     OW25627   5.473   4.346   1.728 -0.5314  0.1974  0.0140
 8243SOL    HW125628   5.405   4.302   1.786 -0.7080 -1.5334 -1.4266
 8243SOL    HW225629   5.565   4.319   1.756 -0.5658  0.1812  0.1113
 8244SOL     OW25630   2.674   6.283   4.663 -0.5142  0.4909 -0.6822
 8244SOL    HW125631   2.620   6.333   4.731  0.0986 -1.5727  1.4772
 8244SOL    HW225632   2.770   6.310   4.671 -0.3972  0.0348 -0.5082
 8245SOL     OW25633   3.363   3.327   2.049  0.5268  0.0353  0.3796
 8245SOL    HW125634   3.447   3.380   2.034 -0.5388  1.7780  0.3540
 8245SOL    HW225635   3.342   3.275   1.966  1.5277 -0.3788  0.3663
 8246SOL     OW25636   5.682   4.302   4.294 -0.3251  0.1464  0.2274
 8246SOL    HW125637   5.649   4.258   4.211  0.5625 -1.5499  0.7227
 8246SOL    HW225638   5.605   4.328   4.352 -0.8898 -0.2916 -0.3214
 8247SOL     OW25639   6.417   4.166   0.053 -0.8289 -0.3984 -0.2295
 8247SOL    HW125640   6.429   4.167  -0.046  1.2563  0.0023 -0.0149
 8247SOL    HW225641   6.434   4.257   0.090 -0.1692 -0.8473  0.6204
 8248SOL     OW25642   6.261   4.181   3.919  0.2817 -0.3350  1.1442
 8248SOL    HW125643   6.319   4.202   3.997  1.0763 -1.9378  1.0425
 8248SOL    HW225644   6.306   4.112   3.862 -0.4229  0.5353 -0.5612
 8249SOL     OW25645   1.342   5.245   3.220  0.2512 -0.6041  0.0100
 8249SOL    HW125646   1.256   5.195   3.225 -1.1844  1.7619  0.7839
 8249SOL    HW225647   1.377   5.262   3.312 -0.1258  1.0377 -0.1098
 8250SOL     OW25648   3.459   2.510   1.125 -0.3410  0.6431  0.0105
 8250SOL    HW125649   3.493   2.419   1.146  1.4576  1.1832 -0.3807
 8250SOL    HW225650   3.486   2.573   1.197  0.6727  1.3404 -0.9389
 8251SOL     OW25651   6.015   2.183   4.189  0.2213  0.7309 -0.0238
 8251SOL    HW125652   6.026   2.259   4.125 -0.4400  1.4234  0.6662
 8251SOL    HW225653   5.936   2.128   4.161 -0.3852  1.3315  0.4704
 8252SOL     OW25654   1.716   3.304   4.284  0.3364 -0.0872 -0.6789
 8252SOL    HW125655   1.734   3.397   4.251 -0.8607  0.1123 -0.7898
 8252SOL    HW225656   1.686   3.247   4.208  0.6238 -0.4575 -0.5201
 8253SOL     OW25657   3.600   0.946   6.469 -0.3432  0.0545  0.6140
 8253SOL    HW125658   3.641   1.014   6.408 -0.1657  0.6002  1.3271
 8253SOL    HW225659   3.638   0.856   6.449 -0.9592  0.0564 -0.6990
 8254SOL     OW25660   4.711   4.649   1.932 -0.7133 -0.3834 -0.0076
 8254SOL    HW125661   4.702   4.748   1.924  1.0107 -0.0186  1.5937
 8254SOL    HW225662   4.625   4.610   1.966 -0.1945  1.2396  3.7359
 8255SOL     OW25663   3.043   5.665   4.201  0.1202 -0.2625  0.0116
 8255SOL    HW125664   3.084   5.611   4.127  0.7719 -2.2668  1.7575
 8255SOL    HW225665   3.089   5.754   4.206  0.1636 -0.1286 -1.8450
 8256SOL     OW25666   5.953   1.626   1.174 -0.1501  0.4277 -0.3934
 8256SOL    HW125667   5.956   1.631   1.074  1.9099 -1.1677 -0.4839
 8256SOL    HW225668   6.047   1.623   1.210 -0.8240  2.2291  1.6987
 8257SOL     OW25669   0.644   4.038   4.914  0.1876 -0.5309 -0.1658
 8257SOL    HW125670   0.627   4.131   4.881 -0.2086 -0.5839 -0.1266
 8257SOL    HW225671   0.637   3.974   4.837 -1.2737 -0.7151  0.0857
 8258SOL     OW25672   0.315   1.032   6.470  0.4497  0.5956  0.5189
 8258SOL    HW125673   0.389   0.984   6.517  0.5677  1.2808  1.0390
 8258SOL    HW225674   0.294   1.117   6.518 -0.5835  0.4777  0.2987
 8259SOL     OW25675   4.526   0.792   5.806 -0.5822 -0.3619 -0.4455
 8259SOL    HW125676   4.509   0.708   5.857  0.9903 -0.9977 -0.9110
 8259SOL    HW225677   4.568   0.769   5.718 -1.2631  0.8461 -1.1083
 8260SOL     OW25678   3.601   0.578   0.545  0.1002  0.1131 -0.6288
 8260SOL    HW125679   3.505   0.580   0.573  0.7194 -0.1807  1.7099
 8260SOL    HW225680   3.615   0.504   0.480 -1.2540  0.2007 -1.0497
 8261SOL     OW25681   3.489   1.020   1.061 -0.4160  0.4984 -0.2091
 8261SOL    HW125682   3.508   0.967   1.144  0.9029  1.3329  0.0596
 8261SOL    HW225683   3.411   0.980   1.013  1.0209 -2.2139 -0.4714
 8262SOL     OW25684   0.106   3.421   1.449  0.4612 -0.0195  0.2318
 8262SOL    HW125685   0.126   3.517   1.469 -1.4146  0.7379 -1.1351
 8262SOL    HW225686   0.179   3.383   1.393  0.8211  0.9070  0.0507
 8263SOL     OW25687   6.985   1.443   6.562 -0.4600 -0.2708  0.2644
 8263SOL    HW125688   6.925   1.517   6.590  1.0857  0.4097  1.9542
 8263SOL    HW225689   7.023   1.398   6.643 -0.8663 -2.5348 -0.7219
 8264SOL     OW25690   0.919   2.500   1.336  0.5148 -0.5012 -0.8156
 8264SOL    HW125691   0.823   2.528   1.345  0.6289 -0.2712 -0.2925
 8264SOL    HW225692   0.978   2.572   1.373  0.9072 -0.4819 -1.4733
 8265SOL     OW25693   1.044   2.746   2.852  0.6363 -0.4549  0.1252
 8265SOL    HW125694   1.081   2.839   2.853  1.3887 -0.7527  0.5559
 8265SOL    HW225695   0.951   2.747   2.890  0.2178  0.2820 -0.8658
 8266SOL     OW25696   2.259   2.395   3.486  0.3072  0.2537 -0.2350
 8266SOL    HW125697   2.235   2.488   3.513 -1.6926 -0.2694 -0.0005
 8266SOL    HW225698   2.316   2.397   3.404 -1.8536  1.6770 -1.8029
 8267SOL     OW25699   0.369   0.609   6.451 -0.2741  0.0662 -0.7430
 8267SOL    HW125700   0.333   0.639   6.540  0.1601  1.5903 -1.0541
 8267SOL    HW225701   0.418   0.522   6.462  1.4332  1.1702  0.8881
 8268SOL     OW25702   3.938   4.968   5.899 -0.0112  0.2662  0.3835
 8268SOL    HW125703   4.038   4.968   5.908  0.0784  1.1793 -0.4750
 8268SOL    HW225704   3.911   5.037   5.832 -1.2766  0.5830  1.1999
 8269SOL     OW25705   3.980   2.884   0.457  0.5726 -0.1498 -0.0927
 8269SOL    HW125706   3.971   2.972   0.410  2.2074 -1.1554 -2.5526
 8269SOL    HW225707   3.954   2.894   0.553  1.1438  3.0990 -0.1525
 8270SOL     OW25708   3.170   6.459   4.966  0.0610 -0.4338 -0.3279
 8270SOL    HW125709   3.204   6.369   4.995 -0.4592 -0.5969 -0.2108
 8270SOL    HW225710   3.132   6.508   5.044  1.4437  0.4104 -0.1473
 8271SOL     OW25711   0.342   3.278   2.296  0.7488  0.2063 -0.2826
 8271SOL    HW125712   0.319   3.183   2.273  0.2554  0.2987 -0.1748
 8271SOL    HW225713   0.262   3.336   2.281  1.3028  0.7600 -1.2123
 8272SOL     OW25714   4.862   1.818   3.107 -0.0127  0.6558 -0.1770
 8272SOL    HW125715   4.950   1.806   3.060  0.0318  0.1767  0.0236
 8272SOL    HW225716   4.798   1.865   3.046  1.0860  3.1393  0.4767
 8273SOL     OW25717   2.092   4.007   3.236 -0.0223  0.1125 -0.0634
 8273SOL    HW125718   2.007   3.974   3.196  0.5338 -2.1076  0.4276
 8273SOL    HW225719   2.133   4.076   3.176 -1.7207  0.6107 -0.7086
 8274SOL     OW25720   5.029   3.660   4.880 -0.3788  0.4873  0.0009
 8274SOL    HW125721   4.945   3.654   4.934 -0.4893 -0.0214 -0.2125
 8274SOL    HW225722   5.071   3.749   4.892  0.2628 -0.0234  1.9127
 8275SOL     OW25723   6.604   2.582   6.015 -0.9502 -0.0205 -0.0027
 8275SOL    HW125724   6.509   2.592   5.988 -0.9808 -1.2862 -0.4596
 8275SOL    HW225725   6.660   2.652   5.970 -1.4878 -0.0608 -0.7556
 8276SOL     OW25726   1.276   1.861   2.730 -0.4857 -0.1791  0.0520
 8276SOL    HW125727   1.297   1.766   2.754 -1.2628 -0.2276  0.5816
 8276SOL    HW225728   1.282   1.873   2.631 -1.0582 -0.9517 -0.0849
 8277SOL     OW25729   6.722   0.261   2.624  0.1058 -0.1678 -0.2914
 8277SOL    HW125730   6.635   0.212   2.622 -0.4251  0.7935 -1.1170
 8277SOL    HW225731   6.706   0.358   2.643  0.9039  0.2055 -1.4586
 8278SOL     OW25732   1.522   3.591   6.210 -0.1505  0.5930  0.5559
 8278SOL    HW125733   1.536   3.564   6.305  0.0769 -2.5809 -0.2568
 8278SOL    HW225734   1.514   3.509   6.153  0.6622  2.3630 -2.3250
 8279SOL     OW25735   1.214   5.756   2.468 -0.7235 -0.2501 -0.1261
 8279SOL    HW125736   1.134   5.800   2.510 -1.7247 -1.4234 -0.7515
 8279SOL    HW225737   1.276   5.826   2.434 -0.3998  0.7418  2.2800
 8280SOL     OW25738   4.014   3.971   4.596 -0.1250 -0.1436  0.0049
 8280SOL    HW125739   3.941   3.903   4.612  0.3427 -0.6267  0.1254
 8280SOL    HW225740   4.029   4.023   4.680 -2.2234  1.8789 -0.7665
 8281SOL     OW25741   3.049   4.886   3.334 -0.5444 -0.1743  0.1515
 8281SOL    HW125742   3.053   4.947   3.412 -2.0166  0.2894 -0.0938
 8281SOL    HW225743   3.119   4.911   3.267  1.5664 -1.3546  1.8074
 8282SOL     OW25744   0.651   4.219   5.599 -0.0661 -0.4008  0.4145
 8282SOL    HW125745   0.641   4.308   5.644  1.5069  0.3319 -0.5695
 8282SOL    HW225746   0.653   4.233   5.500  1.0072 -1.4263  0.2754
 8283SOL     OW25747   3.799   2.149   6.351  0.0323  0.2689 -0.3076
 8283SOL    HW125748   3.899   2.142   6.361  0.0642  0.8610 -0.1355
 8283SOL    HW225749   3.757   2.138   6.441  0.1629  3.1580  0.2338
 8284SOL     OW25750   6.218   4.164   0.936  0.0739 -0.4892 -0.3648
 8284SOL    HW125751   6.302   4.143   0.986  0.0066 -0.5326 -0.2689
 8284SOL    HW225752   6.224   4.127   0.844 -0.1365 -1.1255 -0.1262
 8285SOL     OW25753   3.065   3.446   3.559 -0.4289  0.0257 -0.2049
 8285SOL    HW125754   3.082   3.537   3.597  3.0632 -0.8695  0.6999
 8285SOL    HW225755   3.092   3.444   3.463  3.4095 -0.8881  0.7378
 8286SOL     OW25756   6.713   0.642   1.750  0.1934 -0.2207 -0.2474
 8286SOL    HW125757   6.763   0.678   1.829  0.9635  0.7288 -1.1264
 8286SOL    HW225758   6.767   0.569   1.708  2.1333  2.2594 -2.5215
 8287SOL     OW25759   2.240   6.203   3.351  0.3948 -0.6414  0.4732
 8287SOL    HW125760   2.266   6.106   3.356  2.8984 -0.2347 -2.0349
 8287SOL    HW225761   2.318   6.259   3.377  0.0739  0.6744 -1.2265
 8288SOL     OW25762   3.507   1.691   3.360  0.2923  0.0089 -0.1443
 8288SOL    HW125763   3.593   1.656   3.397 -0.1008 -1.4428 -0.5084
 8288SOL    HW225764   3.524   1.735   3.272  0.5734 -1.0663 -0.6519
 8289SOL     OW25765   0.450   6.918   2.370  0.0066 -0.1251  0.1826
 8289SOL    HW125766   0.361   6.900   2.326 -0.1017 -0.3462  0.4928
 8289SOL    HW225767   0.436   6.936   2.467  0.3908 -1.0962  0.4280
 8290SOL     OW25768   6.610   1.404   6.304  0.1662 -0.1358 -0.2024
 8290SOL    HW125769   6.628   1.467   6.228  0.9257 -1.0795 -0.8381
 8290SOL    HW225770   6.549   1.331   6.272 -0.6472  0.2205  0.5047
 8291SOL     OW25771   4.928   1.950   1.727  0.1070  0.6709 -0.7704
 8291SOL    HW125772   4.986   1.976   1.805 -2.3947 -0.9840  1.8766
 8291SOL    HW225773   4.934   2.021   1.656  1.7963  2.7963  1.2984
 8292SOL     OW25774   2.726   6.542   1.584 -0.4620 -0.0750  0.0603
 8292SOL    HW125775   2.819   6.506   1.587 -1.0071 -1.5039  0.4185
 8292SOL    HW225776   2.725   6.624   1.526  0.8281 -0.6018 -0.7704
 8293SOL     OW25777   5.408   5.257   5.315 -0.5022 -0.3222  0.2044
 8293SOL    HW125778   5.466   5.177   5.299 -0.7343 -0.8328  1.7590
 8293SOL    HW225779   5.464   5.334   5.345 -0.1420  0.4627 -2.2667
 8294SOL     OW25780   6.631   3.528   0.696 -0.2645  0.6097  0.0538
 8294SOL    HW125781   6.599   3.460   0.630  1.7511 -1.9302  1.4827
 8294SOL    HW225782   6.709   3.578   0.659 -0.7929  1.0779 -0.4378
 8295SOL     OW25783   0.543   2.361   1.538 -0.7898  0.2284 -0.0051
 8295SOL    HW125784   0.595   2.352   1.623  0.9647 -1.0766 -1.1574
 8295SOL    HW225785   0.559   2.452   1.498 -0.5648  0.3626  0.3852
 8296SOL     OW25786   1.626   5.460   5.472 -0.4180 -0.0261  0.1353
 8296SOL    HW125787   1.687   5.485   5.547  0.1550 -1.1054  0.0586
 8296SOL    HW225788   1.669   5.481   5.385 -0.0425 -0.9776  0.0767
 8297SOL     OW25789   3.040   1.850   4.302  0.0200  0.9183  0.2420
 8297SOL    HW125790   2.960   1.868   4.245  0.0218 -1.1210 -0.4585
 8297SOL    HW225791   3.108   1.798   4.251  1.7644  2.4251  0.8889
 8298SOL     OW25792   4.347   2.448   3.810  0.2016 -0.1429 -0.0895
 8298SOL    HW125793   4.287   2.423   3.886 -0.4012  2.0146  0.2273
 8298SOL    HW225794   4.312   2.408   3.725  0.0099 -1.3154  0.5348
 8299SOL     OW25795   1.313   0.500   3.081  0.2481  0.2244  0.4174
 8299SOL    HW125796   1.233   0.531   3.132  1.1017  0.5432  1.6082
 8299SOL    HW225797   1.365   0.579   3.048  0.7380  0.0291  0.7223
 8300SOL     OW25798   1.317   6.440   4.754 -0.7745 -0.3350  0.0757
 8300SOL    HW125799   1.394   6.448   4.817 -1.3512 -0.8083  0.8565
 8300SOL    HW225800   1.277   6.349   4.761 -0.7074 -0.4819 -1.1544
 8301SOL     OW25801   3.226   3.245   6.023  0.0006  0.1220  0.0732
 8301SOL    HW125802   3.271   3.280   6.105  1.4901  0.0746 -0.7022
 8301SOL    HW225803   3.275   3.277   5.942 -0.8374 -0.6871 -0.7721
 8302SOL     OW25804   4.486   5.985   1.002  0.1878  0.3765  0.3167
 8302SOL    HW125805   4.398   5.978   0.956  0.1854 -1.3250  0.5175
 8302SOL    HW225806   4.475   6.035   1.088  0.0089  2.6985 -0.9566
 8303SOL     OW25807   6.689   0.597   6.894 -0.5110 -0.2252 -0.0295
 8303SOL    HW125808   6.667   0.591   6.796 -0.7316 -0.4976  0.0341
 8303SOL    HW225809   6.637   0.527   6.944 -0.4500 -0.0423  0.2918
 8304SOL     OW25810   0.595   3.327   0.598  0.2772 -0.1741  0.4261
 8304SOL    HW125811   0.675   3.331   0.538  0.7732  0.2945  1.0927
 8304SOL    HW225812   0.601   3.247   0.657  0.6172  0.2187  0.9426
 8305SOL     OW25813   2.216   4.618   2.807 -0.2477  0.0644 -0.1371
 8305SOL    HW125814   2.206   4.706   2.853  0.4904 -0.0497  0.2464
 8305SOL    HW225815   2.128   4.570   2.806 -0.3961  0.3205  0.6361
 8306SOL     OW25816   2.302   0.197   3.081 -0.2852  0.3530 -0.5385
 8306SOL    HW125817   2.361   0.168   3.156 -2.0279 -0.8381  0.4325
 8306SOL    HW225818   2.347   0.271   3.030  2.5266 -1.2489 -0.5834
 8307SOL     OW25819   3.613   5.163   0.541  0.1096 -0.1278 -0.9314
 8307SOL    HW125820   3.642   5.258   0.555  0.0203 -0.2251 -0.0094
 8307SOL    HW225821   3.563   5.131   0.621 -1.6186 -0.3300 -2.0455
 8308SOL     OW25822   4.487   6.794   1.499  0.5369  0.1545 -0.2287
 8308SOL    HW125823   4.445   6.774   1.410 -2.3221  0.4181  0.9512
 8308SOL    HW225824   4.503   6.893   1.506 -0.4781  0.3119  0.0186
 8309SOL     OW25825   5.478   6.981   2.340 -0.7493  0.2342 -0.6273
 8309SOL    HW125826   5.448   6.887   2.356 -0.7760  0.5198  1.0969
 8309SOL    HW225827   5.548   6.982   2.268  0.1035 -1.2302  0.1533
 8310SOL     OW25828   5.294   6.492   5.973  0.0554 -0.3096 -0.0117
 8310SOL    HW125829   5.272   6.489   6.070  1.3727 -0.6459  0.3066
 8310SOL    HW225830   5.223   6.447   5.920 -0.8773  0.2363  0.7483
 8311SOL     OW25831   5.524   2.688   5.794  0.1814  0.2006  0.4178
 8311SOL    HW125832   5.455   2.723   5.858  0.7535 -0.8083  1.6397
 8311SOL    HW225833   5.614   2.722   5.822  0.5202 -0.7855  0.5634
 8312SOL     OW25834   5.626   5.449   0.135  0.1834 -1.0528 -0.5974
 8312SOL    HW125835   5.700   5.405   0.186  0.1488 -1.1059 -0.5927
 8312SOL    HW225836   5.607   5.396   0.052  1.7770  0.2401 -1.8746
 8313SOL     OW25837   5.928   3.933   3.891 -0.4922 -0.0589 -0.4911
 8313SOL    HW125838   5.982   3.970   3.967  0.7877 -2.6877 -0.0240
 8313SOL    HW225839   5.883   3.849   3.920 -0.3581 -0.8784 -2.5078
 8314SOL     OW25840   6.840   1.379   3.212 -0.5344  0.1265  0.2394
 8314SOL    HW125841   6.802   1.292   3.181 -0.9803  0.4738 -0.2014
 8314SOL    HW225842   6.939   1.379   3.197 -0.6732  0.0980 -0.7583
 8315SOL     OW25843   5.532   5.105   1.002  0.7306 -0.2035 -0.3820
 8315SOL    HW125844   5.482   5.020   1.020  1.0115 -0.3074 -0.0860
 8315SOL    HW225845   5.617   5.085   0.954 -0.1440  0.0996 -2.1154
 8316SOL     OW25846   3.311   5.330   0.380  0.3884 -0.2006  0.6373
 8316SOL    HW125847   3.329   5.266   0.455 -0.1265 -1.3230 -0.1777
 8316SOL    HW225848   3.310   5.281   0.293 -0.3908  0.8577  0.0267
 8317SOL     OW25849   6.860   4.586   2.263  0.3050 -0.2336 -0.4669
 8317SOL    HW125850   6.910   4.585   2.176  2.1152 -1.0656  0.5184
 8317SOL    HW225851   6.807   4.502   2.272  1.4036 -0.9208 -0.1130
 8318SOL     OW25852   3.723   0.205   6.386  0.5884 -0.1666  0.4630
 8318SOL    HW125853   3.673   0.290   6.372  0.4886  0.0123  1.7288
 8318SOL    HW225854   3.663   0.127   6.365  0.2061  0.0672  0.6684
 8319SOL     OW25855   1.504   0.622   5.308 -0.1246  0.1546 -0.2721
 8319SOL    HW125856   1.512   0.721   5.292  1.5475  0.2657  1.0398
 8319SOL    HW225857   1.465   0.579   5.227 -0.2870  1.8007 -1.1157
 8320SOL     OW25858   4.755   6.386   0.738  0.5159 -0.0689 -0.6195
 8320SOL    HW125859   4.701   6.347   0.813  0.1083  1.5224 -0.0496
 8320SOL    HW225860   4.838   6.429   0.775  1.9065 -1.9237 -1.4256
 8321SOL     OW25861   1.166   3.602   2.032 -0.5565 -0.0683 -0.3585
 8321SOL    HW125862   1.077   3.641   2.010 -0.3673  0.1139 -0.8172
 8321SOL    HW225863   1.160   3.552   2.118 -0.8294  0.8905  0.1976
 8322SOL     OW25864   6.335   0.328   6.552 -0.0267  0.4019  0.2922
 8322SOL    HW125865   6.330   0.411   6.609  0.8136  0.0831  0.8450
 8322SOL    HW225866   6.301   0.250   6.604  1.1640  0.0286  0.5334
 8323SOL     OW25867   6.941   0.204   2.785 -0.4309 -0.4571  0.4922
 8323SOL    HW125868   6.994   0.138   2.731 -1.9009 -0.5521 -0.9088
 8323SOL    HW225869   6.845   0.199   2.758 -1.1267 -0.0416  2.7132
 8324SOL     OW25870   6.847   1.625   3.033 -0.3561  0.0393  0.3992
 8324SOL    HW125871   6.760   1.618   2.984  0.1730  0.8687 -0.7004
 8324SOL    HW225872   6.857   1.546   3.092 -0.9755 -1.0921 -0.9327
 8325SOL     OW25873   3.605   4.078   3.867 -0.9701 -0.4990 -0.0620
 8325SOL    HW125874   3.684   4.059   3.810 -0.3926  0.5031  0.3769
 8325SOL    HW225875   3.635   4.116   3.955 -1.8155 -2.2331  1.0456
 8326SOL     OW25876   5.139   3.683   6.076  0.3148 -0.2845 -0.0090
 8326SOL    HW125877   5.056   3.632   6.098 -0.7005  0.7724 -1.2013
 8326SOL    HW225878   5.164   3.741   6.153 -0.4997 -0.0520  0.0922
 8327SOL     OW25879   5.230   1.465   0.745  0.6073  0.4652 -0.0773
 8327SOL    HW125880   5.145   1.443   0.793  0.3578  1.1150 -0.1990
 8327SOL    HW225881   5.239   1.407   0.665  0.2680  0.3961 -0.0678
 8328SOL     OW25882   1.304   1.483   4.171 -0.1229 -0.5005  0.1903
 8328SOL    HW125883   1.340   1.523   4.256  0.9254  1.4774 -1.0962
 8328SOL    HW225884   1.363   1.407   4.142  1.2822  0.7230 -0.2692
 8329SOL     OW25885   3.033   1.506   3.895 -0.1257 -0.1828  0.1223
 8329SOL    HW125886   3.034   1.581   3.829 -0.6828  0.6644  1.0666
 8329SOL    HW225887   3.126   1.472   3.907  0.3001  1.0776  0.4965
 8330SOL     OW25888   3.180   6.238   6.494 -0.5579 -0.0105  0.5085
 8330SOL    HW125889   3.147   6.310   6.432  0.5252  0.4467  0.4448
 8330SOL    HW225890   3.259   6.193   6.454  0.3875  0.5419  1.7058
 8331SOL     OW25891   1.282   1.112   1.306  0.4145 -0.1772 -0.3850
 8331SOL    HW125892   1.240   1.203   1.309 -1.4580 -1.0097  0.3483
 8331SOL    HW225893   1.335   1.098   1.390  1.9519  0.7468 -1.1552
 8332SOL     OW25894   6.075   5.501   1.774  0.1433 -0.7522  0.2837
 8332SOL    HW125895   6.084   5.401   1.770 -0.7514 -0.8078 -2.4587
 8332SOL    HW225896   5.979   5.526   1.764  0.4739  0.4315 -0.0732
 8333SOL     OW25897   2.340   3.944   6.709 -0.3587 -0.2577  0.0358
 8333SOL    HW125898   2.438   3.964   6.707 -0.2763 -0.6030  0.3830
 8333SOL    HW225899   2.324   3.855   6.665 -0.5763  0.0097 -0.4378
 8334SOL     OW25900   6.461   0.775   1.294 -0.2747 -0.1292  0.2190
 8334SOL    HW125901   6.465   0.781   1.394  1.1099 -0.0756  0.1862
 8334SOL    HW225902   6.553   0.790   1.257 -0.9401  0.8450 -1.1153
 8335SOL     OW25903   5.822   6.270   5.424  0.3313  0.2690  0.4046
 8335SOL    HW125904   5.737   6.229   5.457 -0.4623  1.7769  0.3356
 8335SOL    HW225905   5.801   6.356   5.378  1.7401 -0.2062 -1.2048
 8336SOL     OW25906   2.259   2.652   3.573  0.0243  0.2369  0.0747
 8336SOL    HW125907   2.318   2.674   3.651 -1.0742 -0.4945  1.1447
 8336SOL    HW225908   2.165   2.675   3.595 -0.7364 -2.4944  0.0782
 8337SOL     OW25909   4.718   0.840   2.783  0.1052  0.2915 -0.0674
 8337SOL    HW125910   4.649   0.869   2.717 -0.7712  0.7297  0.9953
 8337SOL    HW225911   4.802   0.892   2.769  0.0426  0.1531 -1.0182
 8338SOL     OW25912   0.489   5.211   6.443 -0.0580 -0.0239  0.5750
 8338SOL    HW125913   0.494   5.153   6.525  1.6919 -0.1861  0.4013
 8338SOL    HW225914   0.466   5.155   6.364 -2.1627  0.1991  0.9763
 8339SOL     OW25915   3.933   0.714   3.508  0.8362  0.3686  0.2833
 8339SOL    HW125916   3.992   0.774   3.564  1.2506  0.0183  0.2293
 8339SOL    HW225917   3.888   0.647   3.567  0.8510  0.3438  0.2664
 8340SOL     OW25918   6.502   4.019   1.638  0.1724  0.5599 -0.4878
 8340SOL    HW125919   6.466   4.041   1.547 -1.3317 -1.3278 -0.3971
 8340SOL    HW225920   6.478   4.093   1.701  0.8868  1.7008 -1.5121
 8341SOL     OW25921   1.489   1.746   0.945  0.2445 -0.5295  0.1110
 8341SOL    HW125922   1.502   1.665   1.002 -0.7070 -0.5156  0.3524
 8341SOL    HW225923   1.475   1.826   1.003  1.4097 -0.1320 -0.1215
 8342SOL     OW25924   3.666   2.027   1.888 -0.5966 -0.0566 -0.3059
 8342SOL    HW125925   3.712   2.115   1.896 -0.9000  0.2628 -1.6874
 8342SOL    HW225926   3.609   2.011   1.968 -1.0010  1.2902 -0.3035
 8343SOL     OW25927   5.178   5.636   4.975 -0.3825 -0.3660 -0.1475
 8343SOL    HW125928   5.264   5.687   4.984 -0.1715 -1.0547  2.2369
 8343SOL    HW225929   5.195   5.539   4.987 -1.6810 -0.3745  2.0261
 8344SOL     OW25930   3.306   6.988   4.172  0.4165  0.1271  0.3713
 8344SOL    HW125931   3.381   7.032   4.124 -0.0710  2.0087  1.2562
 8344SOL    HW225932   3.342   6.919   4.234  1.4297  1.0540  0.8394
 8345SOL     OW25933   5.792   3.327   3.409  0.1034 -0.3575  0.8024
 8345SOL    HW125934   5.824   3.367   3.495  1.2179 -0.6240  0.5266
 8345SOL    HW225935   5.865   3.329   3.341 -0.2572 -1.5759  0.3391
 8346SOL     OW25936   2.921   4.948   1.285  0.0040 -0.0040  0.4207
 8346SOL    HW125937   2.914   4.999   1.371 -0.6065  0.4405  0.1109
 8346SOL    HW225938   3.009   4.900   1.282  0.8474  1.4810  0.4698
 8347SOL     OW25939   3.761   6.010   3.536 -0.1819 -0.0348 -0.3577
 8347SOL    HW125940   3.705   5.968   3.607 -0.1547  1.7804  0.7979
 8347SOL    HW225941   3.807   5.938   3.483 -1.6773 -1.4844  0.2044
 8348SOL     OW25942   2.452   6.916   2.468 -0.3872  0.3157  0.6507
 8348SOL    HW125943   2.507   6.837   2.498  0.9596 -0.0505 -2.4056
 8348SOL    HW225944   2.388   6.886   2.398  0.9877  2.0698 -1.4621
 8349SOL     OW25945   6.628   4.488   3.925 -0.3896  0.9605  0.1135
 8349SOL    HW125946   6.572   4.450   3.851 -1.0366 -1.2640  1.6531
 8349SOL    HW225947   6.718   4.513   3.889  1.0893 -4.3746 -0.7719
 8350SOL     OW25948   5.632   1.543   5.047 -0.3754  0.2590  0.6744
 8350SOL    HW125949   5.700   1.581   5.110  0.5955 -1.5223  0.7622
 8350SOL    HW225950   5.641   1.586   4.957  1.5044 -0.5611  0.4330
 8351SOL     OW25951   5.002   0.361   2.584 -0.2207  0.3954 -0.0095
 8351SOL    HW125952   4.966   0.454   2.583 -0.5479  0.2672 -0.8770
 8351SOL    HW225953   5.023   0.334   2.678 -0.8791  1.0558  0.3350
 8352SOL     OW25954   4.985   5.968   0.960  0.1048  0.2897  0.7931
 8352SOL    HW125955   4.995   5.970   1.059  1.7786 -1.0274  0.6949
 8352SOL    HW225956   5.063   5.921   0.919 -1.6004 -1.1929 -0.9925
 8353SOL     OW25957   2.223   2.828   2.356 -0.3526  0.0857 -0.2290
 8353SOL    HW125958   2.146   2.793   2.303 -0.4731 -0.7058  0.4479
 8353SOL    HW225959   2.275   2.752   2.394 -0.7939  0.6139  1.5302
 8354SOL     OW25960   3.214   0.511   0.280  0.0983  0.2656  0.1257
 8354SOL    HW125961   3.132   0.483   0.232 -0.4021  0.6531  0.7343
 8354SOL    HW225962   3.262   0.582   0.228 -0.6582  0.9820  0.3789
 8355SOL     OW25963   2.743   2.119   1.983  0.2895 -0.0598  0.6072
 8355SOL    HW125964   2.726   2.062   2.063 -1.1024  1.9354  1.8396
 8355SOL    HW225965   2.805   2.194   2.008  1.2343 -0.3791 -0.6778
 8356SOL     OW25966   2.316   5.604   1.052 -0.1350  0.4806 -0.3820
 8356SOL    HW125967   2.377   5.540   1.099  0.2021  1.3244  0.3467
 8356SOL    HW225968   2.245   5.552   1.004 -0.1183 -0.4323  0.5365
 8357SOL     OW25969   2.945   6.222   3.325 -0.1987 -0.0998  0.6660
 8357SOL    HW125970   2.966   6.129   3.356 -1.2314 -1.5656 -2.6116
 8357SOL    HW225971   3.029   6.268   3.297  0.5163  0.6209  3.6815
 8358SOL     OW25972   3.243   1.975   6.542 -0.2440  0.4402 -0.0161
 8358SOL    HW125973   3.231   1.907   6.469 -0.5303  1.8397 -1.3314
 8358SOL    HW225974   3.206   1.939   6.628  1.7790 -1.9992 -0.0485
 8359SOL     OW25975   3.877   5.535   4.110  0.3427 -0.0726 -0.0530
 8359SOL    HW125976   3.912   5.629   4.112  1.3232 -0.4248 -0.3719
 8359SOL    HW225977   3.803   5.526   4.177  2.2405  0.1547  2.2068
 8360SOL     OW25978   5.089   1.257   3.957 -0.4478  0.3999 -0.0968
 8360SOL    HW125979   5.036   1.178   3.986  1.0150 -1.3819 -1.9633
 8360SOL    HW225980   5.095   1.323   4.032 -1.8433 -1.1578  1.4702
 8361SOL     OW25981   2.112   6.767   3.246 -0.9090 -0.5697 -0.2000
 8361SOL    HW125982   2.088   6.676   3.210 -1.6608 -0.2318 -0.5870
 8361SOL    HW225983   2.028   6.814   3.274 -0.9583  1.3196 -3.1496
 8362SOL     OW25984   2.531   3.568   0.958 -0.3423 -0.1804  0.3626
 8362SOL    HW125985   2.478   3.650   0.935 -0.4666 -0.1249  0.8431
 8362SOL    HW225986   2.620   3.594   0.994  0.4412 -0.2780 -1.3770
 8363SOL     OW25987   0.699   2.564   0.933  0.2395 -0.1265 -0.7650
 8363SOL    HW125988   0.620   2.624   0.935  0.4255  0.2122  3.1964
 8363SOL    HW225989   0.669   2.469   0.939  0.0787  0.0072  0.8529
 8364SOL     OW25990   0.797   6.446   5.602  0.2515 -0.6465  0.0355
 8364SOL    HW125991   0.774   6.351   5.583 -0.4110 -0.2984 -1.0207
 8364SOL    HW225992   0.896   6.456   5.608  0.4526 -1.1027 -1.7694
 8365SOL     OW25993   2.077   3.825   5.127  0.6895  0.6250  0.5513
 8365SOL    HW125994   2.150   3.841   5.061  0.4824  0.6385  0.3226
 8365SOL    HW225995   2.117   3.803   5.216  1.0114 -1.4611 -0.0395
 8366SOL     OW25996   2.154   0.406   1.455  0.6490  0.0445  0.1348
 8366SOL    HW125997   2.090   0.479   1.433  0.8272  0.1053 -0.1936
 8366SOL    HW225998   2.232   0.410   1.392  0.0551 -1.2114 -0.7164
 8367SOL     OW25999   5.625   6.317   3.250 -0.3488 -0.5771  0.2367
 8367SOL    HW126000   5.541   6.297   3.200 -1.6015  0.3349  1.8869
 8367SOL    HW226001   5.607   6.385   3.321  1.9055  0.0254  0.3257
 8368SOL     OW26002   2.320   5.459   0.196 -0.1484 -0.0291  0.7096
 8368SOL    HW126003   2.363   5.380   0.152 -1.1324 -1.6090  2.3964
 8368SOL    HW226004   2.232   5.478   0.151 -0.6394 -0.9342  1.2497
 8369SOL     OW26005   1.321   1.351   2.034  0.1742 -0.1838 -0.0051
 8369SOL    HW126006   1.282   1.413   2.103  0.5170 -0.0723  0.0923
 8369SOL    HW226007   1.298   1.257   2.057 -0.2230 -0.1073 -0.0698
 8370SOL     OW26008   1.073   0.951   1.287 -0.6594 -0.2043  0.2557
 8370SOL    HW126009   1.153   1.010   1.298  0.2621 -0.8536 -2.2720
 8370SOL    HW226010   1.021   0.950   1.372  2.0041  0.2282  2.0246
 8371SOL     OW26011   1.138   0.812   0.460  0.9444 -0.4831 -0.0121
 8371SOL    HW126012   1.233   0.819   0.429  1.1293 -0.8618  0.4563
 8371SOL    HW226013   1.128   0.732   0.519  0.2536 -0.6418 -0.3335
 8372SOL     OW26014   5.171   0.185   0.582  0.3775  0.0600  0.4087
 8372SOL    HW126015   5.173   0.252   0.657 -1.7974  0.7528 -0.1010
 8372SOL    HW226016   5.143   0.230   0.498 -1.3863 -1.5075  0.0943
 8373SOL     OW26017   1.653   1.162   2.240  0.2189 -0.3849 -0.0736
 8373SOL    HW126018   1.628   1.247   2.194  1.1735 -0.5278 -0.8951
 8373SOL    HW226019   1.641   1.173   2.339 -1.2222  0.1440 -0.2869
 8374SOL     OW26020   6.201   1.783   4.414 -0.2148  0.2773 -0.0794
 8374SOL    HW126021   6.163   1.873   4.390  1.2403  1.3428  1.3738
 8374SOL    HW226022   6.143   1.740   4.483 -2.4842 -1.2555 -2.7421
 8375SOL     OW26023   3.855   5.025   0.604 -0.6045 -0.4524 -0.1053
 8375SOL    HW126024   3.938   5.079   0.592  1.1842 -3.0590 -0.3302
 8375SOL    HW226025   3.775   5.085   0.601  1.3046  2.6143  2.8610
 8376SOL     OW26026   4.624   6.544   3.502  0.3210 -0.4597  0.1072
 8376SOL    HW126027   4.697   6.511   3.562 -1.0749 -0.0885  2.1136
 8376SOL    HW226028   4.585   6.628   3.540  3.2357  3.4543 -4.3960
 8377SOL     OW26029   5.222   3.425   0.706 -0.8891  0.4655 -0.5893
 8377SOL    HW126030   5.152   3.402   0.774 -0.0232 -1.1390 -0.1883
 8377SOL    HW226031   5.222   3.357   0.633  1.5791 -0.8390  0.4810
 8378SOL     OW26032   5.121   3.784   3.078 -0.4908 -0.1103 -0.1842
 8378SOL    HW126033   5.032   3.792   3.122 -0.5546  0.3356 -0.3944
 8378SOL    HW226034   5.116   3.715   3.005 -0.9432  0.6254 -0.8741
 8379SOL     OW26035   5.328   2.825   4.068 -0.2976 -0.6649 -0.0509
 8379SOL    HW126036   5.374   2.737   4.078  0.4484 -0.3113 -0.3444
 8379SOL    HW226037   5.324   2.870   4.157  1.1860 -0.0821 -0.2540
 8380SOL     OW26038   5.975   1.147   3.160 -0.2721 -0.2321 -0.6487
 8380SOL    HW126039   5.924   1.083   3.218  1.1213  0.0030  0.9261
 8380SOL    HW226040   5.919   1.228   3.142 -0.4142  0.1161  1.2036
 8381SOL     OW26041   0.441   4.403   4.966  0.2825  0.3061 -0.5301
 8381SOL    HW126042   0.443   4.502   4.973  0.9083  0.4515 -2.2544
 8381SOL    HW226043   0.444   4.363   5.057 -0.8452  1.8629  0.2336
 8382SOL     OW26044   1.113   3.387   5.460  0.0826  0.2790 -0.0589
 8382SOL    HW126045   1.180   3.437   5.405  1.2209  0.0171  1.0469
 8382SOL    HW226046   1.139   3.291   5.466 -1.7335 -0.3968 -1.6066
 8383SOL     OW26047   1.728   2.602   5.435  0.0532  0.1663 -0.2290
 8383SOL    HW126048   1.827   2.589   5.427 -0.1582 -1.0698 -1.0413
 8383SOL    HW226049   1.688   2.619   5.345 -0.6931 -1.0576 -0.1443
 8384SOL     OW26050   1.818   6.441   1.281  0.0249  0.1518  0.0581
 8384SOL    HW126051   1.898   6.428   1.222  1.4652  3.2819  1.0689
 8384SOL    HW226052   1.738   6.461   1.225  1.1034  1.8947 -0.9650
 8385SOL     OW26053   3.777   2.695   1.401  0.7072 -0.9808 -0.2653
 8385SOL    HW126054   3.792   2.777   1.456 -0.8439 -0.6894 -0.2152
 8385SOL    HW226055   3.863   2.647   1.386  1.3624 -0.2839  1.1841
 8386SOL     OW26056   6.588   2.798   1.542 -0.2067 -0.0281  0.3149
 8386SOL    HW126057   6.597   2.894   1.569  1.2835  0.1069 -0.5236
 8386SOL    HW226058   6.673   2.749   1.563 -0.1730 -0.6545 -1.1475
 8387SOL     OW26059   1.994   0.128   5.886  0.2293 -0.0310 -0.3856
 8387SOL    HW126060   1.908   0.151   5.930 -0.0595  0.7449 -1.3229
 8387SOL    HW226061   1.977   0.064   5.811  0.5095 -0.0822 -0.4069
 8388SOL     OW26062   3.288   5.950   3.516  0.4274  0.3045 -0.3223
 8388SOL    HW126063   3.214   6.007   3.550  0.0414  0.0299 -0.6938
 8388SOL    HW226064   3.305   5.875   3.580  0.4923  0.4576 -0.1596
 8389SOL     OW26065   5.664   1.453   4.648  0.1714  0.1912 -0.0324
 8389SOL    HW126066   5.759   1.424   4.642  0.8118  2.2647 -0.7875
 8389SOL    HW226067   5.655   1.527   4.714 -0.9340 -0.0209  0.0803
 8390SOL     OW26068   1.328   1.366   6.695  0.2119 -0.1407 -0.4758
 8390SOL    HW126069   1.410   1.346   6.641  1.7605 -1.6043  2.2216
 8390SOL    HW226070   1.327   1.309   6.777 -1.2470  2.9343  1.8254
 8391SOL     OW26071   4.501   0.623   0.939  0.1345  0.1723  0.7302
 8391SOL    HW126072   4.418   0.677   0.956 -0.4005 -0.2806 -0.3062
 8391SOL    HW226073   4.579   0.684   0.926 -0.2491  0.6544  0.6714
 8392SOL     OW26074   4.798   3.104   6.815  0.5622  0.4027  0.1332
 8392SOL    HW126075   4.713   3.085   6.865 -0.8150  0.1848 -2.1389
 8392SOL    HW226076   4.778   3.110   6.717  3.4107 -1.2453 -0.6736
 8393SOL     OW26077   5.300   6.853   5.635 -0.1441  0.2099 -0.4068
 8393SOL    HW126078   5.327   6.948   5.651 -1.4923  0.4500  0.7102
 8393SOL    HW226079   5.281   6.809   5.723 -2.5157 -0.1308 -1.0269
 8394SOL     OW26080   5.120   3.600   1.340  0.0904  0.4999  0.0454
 8394SOL    HW126081   5.198   3.539   1.325 -0.0141  0.7695 -1.8457
 8394SOL    HW226082   5.061   3.598   1.260  0.0831  3.0752 -0.0966
 8395SOL     OW26083   0.831   0.196   6.554  0.7008  0.1110  0.3520
 8395SOL    HW126084   0.900   0.131   6.586  0.6808  0.5544  1.3566
 8395SOL    HW226085   0.871   0.255   6.484  0.7588 -0.8703 -0.4620
 8396SOL     OW26086   2.831   6.625   4.547 -0.0191 -0.2910 -0.0489
 8396SOL    HW126087   2.734   6.646   4.552  0.5218  2.7715 -0.4087
 8396SOL    HW226088   2.882   6.709   4.526  2.6910 -1.8345 -0.0595
 8397SOL     OW26089   5.206   5.254   1.352 -0.1605 -0.4715  0.1277
 8397SOL    HW126090   5.194   5.207   1.440  0.2426  0.8467  0.9202
 8397SOL    HW226091   5.117   5.271   1.311 -0.7948  2.7387  2.4263
 8398SOL     OW26092   6.191   1.918   0.000 -0.6671  0.1136 -0.0036
 8398SOL    HW126093   6.195   1.819   0.011 -0.2045  0.1786  0.4607
 8398SOL    HW226094   6.218   1.962   0.086 -2.5574  0.6507  0.3711
 8399SOL     OW26095   5.952   4.666   3.987 -0.2821  0.6358 -0.5235
 8399SOL    HW126096   6.031   4.686   4.045 -0.6850 -2.2887  1.2231
 8399SOL    HW226097   5.978   4.679   3.891  2.3621 -0.2295 -0.0208
 8400SOL     OW26098   1.996   1.799   4.912  0.0392  0.2324  0.3294
 8400SOL    HW126099   2.067   1.831   4.975  0.2814 -0.4522  0.4144
 8400SOL    HW226100   1.963   1.710   4.942  0.6292 -0.4186 -0.8726
 8401SOL     OW26101   6.881   0.135   6.887 -0.1988 -0.1973 -0.3226
 8401SOL    HW126102   6.825   0.183   6.955  0.2186 -0.6015  0.3220
 8401SOL    HW226103   6.971   0.116   6.926  0.1272 -0.2277 -1.0796
 8402SOL     OW26104   2.205   1.523   6.542  0.1555 -0.0302  0.5699
 8402SOL    HW126105   2.213   1.428   6.573  0.7001 -0.2937 -0.3471
 8402SOL    HW226106   2.169   1.579   6.616 -1.3521 -1.1704  0.7478
 8403SOL     OW26107   5.953   4.154   0.456 -0.4090  0.5874  0.2328
 8403SOL    HW126108   5.979   4.246   0.488  1.2417  0.4510 -0.6380
 8403SOL    HW226109   5.853   4.148   0.452 -0.5602  2.6369 -0.5148
 8404SOL     OW26110   2.635   0.596   5.614 -0.3508  0.1612  0.1627
 8404SOL    HW126111   2.715   0.638   5.657  0.1704  0.5060 -1.0830
 8404SOL    HW226112   2.630   0.626   5.519 -1.7139 -0.2229  0.0978
 8405SOL     OW26113   1.563   0.252   6.719 -0.0104 -0.2933  0.2213
 8405SOL    HW126114   1.498   0.272   6.647  0.7331  0.2769 -0.3041
 8405SOL    HW226115   1.650   0.225   6.679  0.4970  0.2911  0.8913
 8406SOL     OW26116   0.735   1.963   4.796  0.1843 -0.3458 -0.5527
 8406SOL    HW126117   0.680   2.023   4.854  0.3593 -0.4432 -0.2837
 8406SOL    HW226118   0.809   1.924   4.850  0.1395 -0.7129 -0.7579
 8407SOL     OW26119   5.138   0.965   5.030 -0.4646  0.3631 -0.1747
 8407SOL    HW126120   5.059   0.977   4.969 -0.5659  0.3999 -0.0371
 8407SOL    HW226121   5.119   1.009   5.118 -1.2425 -1.6416  0.7008
 8408SOL     OW26122   2.913   2.237   2.332  0.0786  0.4540  0.4471
 8408SOL    HW126123   3.009   2.243   2.360  0.2235 -0.7056  0.2490
 8408SOL    HW226124   2.906   2.258   2.234  0.4596 -1.5204 -0.0474
 8409SOL     OW26125   4.831   2.988   1.154 -0.5774 -0.1306 -0.6033
 8409SOL    HW126126   4.799   3.036   1.236 -3.8561 -1.8515 -0.6997
 8409SOL    HW226127   4.908   2.929   1.177 -0.4899  0.5248  0.8823
 8410SOL     OW26128   0.148   0.779   0.751 -0.5049  0.4444  0.5026
 8410SOL    HW126129   0.164   0.684   0.725 -0.3728  0.6307 -0.1255
 8410SOL    HW226130   0.215   0.837   0.705 -0.5301  0.8324  0.9512
 8411SOL     OW26131   0.857   4.663   3.258  0.3632  0.2885 -0.0587
 8411SOL    HW126132   0.914   4.583   3.237  0.6756  0.7585 -1.0578
 8411SOL    HW226133   0.859   4.726   3.181  0.0689  1.2368  0.6931
 8412SOL     OW26134   2.369   1.817   6.736 -0.0701  0.6113 -0.3647
 8412SOL    HW126135   2.337   1.892   6.678 -0.8791  0.5382 -0.0219
 8412SOL    HW226136   2.397   1.740   6.679 -1.6785  0.2058 -0.6505
 8413SOL     OW26137   3.368   5.259   2.795 -0.1062  0.2194  0.0335
 8413SOL    HW126138   3.308   5.304   2.862  2.7092  1.9228  1.5894
 8413SOL    HW226139   3.331   5.168   2.774 -1.6449 -0.0366  3.1969
 8414SOL     OW26140   1.320   0.905   0.860 -0.0039  0.2782 -0.0584
 8414SOL    HW126141   1.270   0.872   0.941  0.1226 -0.0252 -0.1007
 8414SOL    HW226142   1.256   0.946   0.796  0.1891  3.0009  1.3614
 8415SOL     OW26143   4.542   2.319   6.195 -0.3736 -0.0075  0.0709
 8415SOL    HW126144   4.599   2.376   6.255  2.1146 -0.0783 -2.0520
 8415SOL    HW226145   4.591   2.234   6.173 -0.6899  0.4566 -2.8285
 8416SOL     OW26146   0.092   0.922   3.242  0.0229 -0.0983 -0.5951
 8416SOL    HW126147   0.078   0.844   3.303 -0.6420  1.4371  1.3086
 8416SOL    HW226148   0.156   0.986   3.284 -0.3081  0.9283 -1.6117
 8417SOL     OW26149   1.157   2.973   6.330 -0.2012 -1.0212  0.0386
 8417SOL    HW126150   1.153   3.072   6.314  0.8970 -0.7854  1.1128
 8417SOL    HW226151   1.250   2.941   6.316 -0.4142 -1.7937  0.3483
 8418SOL     OW26152   6.686   6.102   0.950  0.1355 -0.2202  0.6130
 8418SOL    HW126153   6.702   6.129   1.045  0.3776 -0.2500  0.5818
 8418SOL    HW226154   6.748   6.151   0.890 -0.1737 -0.0305  0.4430
 8419SOL     OW26155   3.235   2.131   4.116  0.4041 -0.0874 -0.5247
 8419SOL    HW126156   3.151   2.168   4.077  1.0003  0.7755 -1.0075
 8419SOL    HW226157   3.223   2.119   4.215 -0.7080 -1.1811 -0.7669
 8420SOL     OW26158   3.217   1.496   2.032 -0.6921  0.1428 -0.2013
 8420SOL    HW126159   3.179   1.483   2.123 -3.1295 -1.0639 -1.2939
 8420SOL    HW226160   3.187   1.584   1.996 -0.0979  0.4185 -0.0483
 8421SOL     OW26161   6.523   6.215   6.534 -0.2718  0.4696  0.0791
 8421SOL    HW126162   6.563   6.176   6.451 -2.2303 -1.2826 -0.1201
 8421SOL    HW226163   6.434   6.256   6.512 -1.0109 -0.3811  1.3496
 8422SOL     OW26164   5.205   2.399   3.882 -0.1252 -0.3004  0.1524
 8422SOL    HW126165   5.218   2.300   3.884 -0.1183 -0.3012  0.0826
 8422SOL    HW226166   5.203   2.430   3.787  1.1504 -0.0648  0.1854
 8423SOL     OW26167   5.554   5.924   0.198  0.4074  0.0516 -0.2514
 8423SOL    HW126168   5.477   5.968   0.152  0.2245  1.0852  0.9662
 8423SOL    HW226169   5.617   5.886   0.130  0.0913  1.3939 -1.3338
 8424SOL     OW26170   4.815   0.267   3.293  0.2873  0.0995  0.4263
 8424SOL    HW126171   4.725   0.245   3.330  0.5611  0.3881  1.3086
 8424SOL    HW226172   4.820   0.240   3.197 -1.0036  0.8061  0.1444
 8425SOL     OW26173   1.310   1.591   2.807  0.5090 -0.3723  0.4312
 8425SOL    HW126174   1.400   1.552   2.823  0.3545 -0.3557  1.3872
 8425SOL    HW226175   1.277   1.636   2.890 -1.3506 -2.3594  0.8702
 8426SOL     OW26176   3.391   4.321   0.411 -0.0927 -0.0792  0.1388
 8426SOL    HW126177   3.300   4.281   0.406  0.6919 -1.7806 -2.1842
 8426SOL    HW226178   3.443   4.278   0.484 -0.0472 -1.7206 -0.8025
 8427SOL     OW26179   4.047   3.368   2.175 -0.1451  0.0739  0.0912
 8427SOL    HW126180   4.105   3.404   2.249 -0.4999  1.8984 -0.4667
 8427SOL    HW226181   4.105   3.340   2.098  0.2667 -2.3152  1.1785
 8428SOL     OW26182   4.386   0.860   2.354  0.2657 -0.3326  0.6042
 8428SOL    HW126183   4.393   0.763   2.333 -2.4601 -0.1257 -1.8916
 8428SOL    HW226184   4.464   0.908   2.315  0.2927 -1.2257 -0.4828
 8429SOL     OW26185   3.815   5.047   0.112  0.4157 -0.3766  0.1630
 8429SOL    HW126186   3.872   4.986   0.057  0.5647  2.0991 -2.6468
 8429SOL    HW226187   3.747   4.992   0.161  0.2975 -2.8351 -2.4485
 8430SOL     OW26188   5.182   1.325   0.012 -0.4623  0.2677 -0.0369
 8430SOL    HW126189   5.094   1.334   0.059  0.2953  1.5631  1.2388
 8430SOL    HW226190   5.200   1.408  -0.041  0.2562  0.3008  0.2394
 8431SOL     OW26191   3.449   3.910   5.651 -0.1095 -0.2807 -0.1836
 8431SOL    HW126192   3.349   3.903   5.650 -0.0284 -1.7160 -0.0472
 8431SOL    HW226193   3.489   3.819   5.667  1.2399  0.1343 -1.0285
 8432SOL     OW26194   5.561   3.869   6.613 -0.0043 -0.4044  0.3975
 8432SOL    HW126195   5.536   3.773   6.603  1.1510 -0.9955  2.5087
 8432SOL    HW226196   5.509   3.910   6.688 -1.9306  1.2544 -1.6887
 8433SOL     OW26197   4.774   0.563   0.435 -0.0222  0.0982  0.4867
 8433SOL    HW126198   4.729   0.651   0.447 -1.1905 -0.3603 -0.4078
 8433SOL    HW226199   4.863   0.576   0.392 -0.2776  0.8300  0.1718
 8434SOL     OW26200   2.470   6.963   5.418  0.2296 -0.0814  0.2771
 8434SOL    HW126201   2.455   6.966   5.517  0.2569  1.4684  0.2677
 8434SOL    HW226202   2.553   6.911   5.398  1.0767  0.8614  1.1976
 8435SOL     OW26203   6.738   2.556   4.530 -0.5949  0.4455 -0.0814
 8435SOL    HW126204   6.831   2.521   4.519 -1.0726 -1.0737  0.5456
 8435SOL    HW226205   6.718   2.620   4.456  0.6972  0.2691 -0.6102
 8436SOL     OW26206   2.076   4.183   2.809 -0.4281 -0.3997  0.2345
 8436SOL    HW126207   2.029   4.266   2.776 -0.2426 -0.5462 -0.4100
 8436SOL    HW226208   2.009   4.109   2.817 -1.2655  0.5421  3.7349
 8437SOL     OW26209   3.634   6.107   1.109  0.6010 -0.4716  0.1202
 8437SOL    HW126210   3.700   6.058   1.052 -0.9408 -1.6370 -0.7033
 8437SOL    HW226211   3.554   6.050   1.124 -0.1947  0.8860  1.1944
 8438SOL     OW26212   6.427   5.529   3.721  0.2124 -0.1044 -0.0698
 8438SOL    HW126213   6.521   5.547   3.748  0.2017  2.0941 -1.1997
 8438SOL    HW226214   6.374   5.613   3.728 -0.9900 -0.6357 -1.9788
 8439SOL     OW26215   4.276   6.034   3.357  0.0794  0.3800 -0.2473
 8439SOL    HW126216   4.239   6.088   3.282  2.2140  3.5419  0.7509
 8439SOL    HW226217   4.263   6.082   3.443  1.4568 -1.0583  0.8411
 8440SOL     OW26218   2.411   1.989   3.391 -0.3375 -0.5178  0.0678
 8440SOL    HW126219   2.353   1.921   3.347  0.1552 -0.9628  0.0921
 8440SOL    HW226220   2.477   2.024   3.324 -1.6846  1.2168 -0.4264
 8441SOL     OW26221   6.517   2.935   4.361  0.3468 -0.7164  0.4003
 8441SOL    HW126222   6.552   2.971   4.447  3.1959 -0.8254 -0.5970
 8441SOL    HW226223   6.433   2.983   4.336  2.5583  3.6400  0.3642
 8442SOL     OW26224   2.643   3.519   5.378  0.9690  0.6198 -0.2104
 8442SOL    HW126225   2.693   3.575   5.444  0.0021  1.3400 -0.0638
 8442SOL    HW226226   2.707   3.468   5.322  1.9604  3.0162 -1.3637
 8443SOL     OW26227   1.765   4.527   2.980 -0.4901  0.7944 -0.5664
 8443SOL    HW126228   1.776   4.452   3.046 -1.1952 -0.2845 -1.6361
 8443SOL    HW226229   1.854   4.562   2.955 -0.0348 -0.6849 -1.1383
 8444SOL     OW26230   3.788   6.491   5.597 -0.1613  0.2189  0.2952
 8444SOL    HW126231   3.783   6.565   5.664 -1.1249 -1.6549  2.3976
 8444SOL    HW226232   3.884   6.468   5.581  0.0893 -0.4144  2.3948
 8445SOL     OW26233   1.487   6.386   6.493  0.0786  0.1238 -0.2139
 8445SOL    HW126234   1.519   6.425   6.580  0.9611 -0.9540 -0.0283
 8445SOL    HW226235   1.433   6.454   6.444  3.1003  2.3238 -0.7901
 8446SOL     OW26236   0.961   4.804   4.448  0.5625 -0.2273 -0.7267
 8446SOL    HW126237   0.932   4.805   4.544  0.2614  0.3935 -0.8234
 8446SOL    HW226238   0.972   4.898   4.416  0.1903 -0.4295 -1.4489
 8447SOL     OW26239   3.348   0.911   4.119  0.2745 -0.1348 -0.1915
 8447SOL    HW126240   3.275   0.846   4.141  0.8262 -0.8107 -0.3285
 8447SOL    HW226241   3.310   1.003   4.113 -0.3426 -0.2813  1.0762
 8448SOL     OW26242   2.878   1.352   1.983 -0.3199 -0.0541  0.4384
 8448SOL    HW126243   2.929   1.362   1.898  1.6287 -0.8412  1.4600
 8448SOL    HW226244   2.875   1.439   2.032 -3.2595  0.9773 -1.3073
 8449SOL     OW26245   0.731   4.032   4.237 -0.4659  0.0068  0.1837
 8449SOL    HW126246   0.800   3.961   4.256  1.8798  1.5743 -1.8115
 8449SOL    HW226247   0.675   4.004   4.160 -1.3616 -0.7968  1.1061
 8450SOL     OW26248   6.702   0.794   2.183 -0.3149 -0.2093 -0.3448
 8450SOL    HW126249   6.635   0.747   2.240 -1.5333  1.1430 -0.6050
 8450SOL    HW226250   6.758   0.854   2.240 -0.2059 -0.3311 -0.3209
 8451SOL     OW26251   4.003   5.094   1.118 -0.5542  0.1537 -0.0904
 8451SOL    HW126252   3.913   5.052   1.107 -0.0297 -0.9353 -0.3675
 8451SOL    HW226253   4.052   5.091   1.031  1.5809 -3.7099  0.9661
 8452SOL     OW26254   6.424   6.659   6.494  0.2005  0.1623  0.3835
 8452SOL    HW126255   6.493   6.588   6.479  1.7128  1.5989  0.1932
 8452SOL    HW226256   6.372   6.673   6.410  0.2189 -0.3778  0.2768
 8453SOL     OW26257   1.298   1.719   6.023  0.0372 -0.4486  0.2056
 8453SOL    HW126258   1.234   1.791   6.048  1.2913  0.4962  0.8183
 8453SOL    HW226259   1.374   1.718   6.088  0.4861 -1.7578 -0.3011
 8454SOL     OW26260   0.364   6.931   0.474 -0.3855 -0.0917  0.6259
 8454SOL    HW126261   0.388   7.027   0.491 -1.9297  0.3284  0.5741
 8454SOL    HW226262   0.444   6.873   0.492  1.2342  1.3725 -1.3942
 8455SOL     OW26263   0.155   2.224   1.917 -0.1324  0.2993 -0.3167
 8455SOL    HW126264   0.173   2.319   1.942 -2.5035  0.1806  2.3724
 8455SOL    HW226265   0.072   2.219   1.862 -0.2134 -0.2365 -0.1487
 8456SOL     OW26266   5.635   1.670   3.094  0.1626  0.1672 -0.3889
 8456SOL    HW126267   5.636   1.694   2.997  0.5011 -1.3344 -0.7747
 8456SOL    HW226268   5.584   1.740   3.145 -2.7514 -0.5701 -2.0703
 8457SOL     OW26269   0.068   6.398   4.429  0.1999 -0.2571  0.2364
 8457SOL    HW126270   0.008   6.413   4.351 -2.6509 -2.6918  1.7421
 8457SOL    HW226271   0.081   6.485   4.478 -0.0353  0.8058 -1.5062
 8458SOL     OW26272   0.270   5.973   1.918  0.5997  0.1872 -0.3288
 8458SOL    HW126273   0.316   6.044   1.971  1.9265 -1.7521  1.2276
 8458SOL    HW226274   0.184   5.948   1.962  0.5919  0.1626 -0.3572
 8459SOL     OW26275   1.949   5.385   5.604  0.2179  0.4487 -0.1933
 8459SOL    HW126276   1.928   5.358   5.699  0.0790 -2.1171 -0.8678
 8459SOL    HW226277   1.901   5.470   5.583 -0.3094  0.7177  1.8180
 8460SOL     OW26278   4.023   3.567   1.969 -0.2751 -0.2564  0.0678
 8460SOL    HW126279   4.073   3.518   1.896  0.4735 -0.0926  0.4580
 8460SOL    HW226280   3.993   3.501   2.037 -0.8901 -0.3980 -0.3333
 8461SOL     OW26281   5.141   5.290   4.742  0.4291  0.1793  0.3486
 8461SOL    HW126282   5.230   5.292   4.787  1.1254  0.8107 -0.9945
 8461SOL    HW226283   5.090   5.373   4.765 -0.6587 -1.0337  2.6547
 8462SOL     OW26284   2.522   3.044   1.690  0.5979 -0.4733  0.9224
 8462SOL    HW126285   2.555   3.016   1.599 -0.2546 -0.5456  0.6297
 8462SOL    HW226286   2.461   2.974   1.726 -1.5014  0.9069  0.2205
 8463SOL     OW26287   6.300   2.284   1.949 -0.1993 -0.3447 -0.1587
 8463SOL    HW126288   6.281   2.361   1.887 -0.1792 -0.4100 -0.2453
 8463SOL    HW226289   6.265   2.200   1.909 -0.9513 -0.2636  0.3068
 8464SOL     OW26290   0.302   2.050   3.266  0.5983  0.4224  0.3333
 8464SOL    HW126291   0.315   2.149   3.254  0.3843  0.2409 -1.7300
 8464SOL    HW226292   0.222   2.034   3.323  0.6227  1.4479  0.6722
 8465SOL     OW26293   2.715   0.402   0.696 -0.4352  0.2177 -0.2529
 8465SOL    HW126294   2.641   0.343   0.664 -0.9539  0.3654  0.6564
 8465SOL    HW226295   2.712   0.408   0.795  1.5685 -0.8027 -0.0776
 8466SOL     OW26296   0.326   6.567   3.394 -0.0148 -0.1601 -0.5617
 8466SOL    HW126297   0.337   6.588   3.491  0.9496  1.0439 -0.9041
 8466SOL    HW226298   0.299   6.649   3.345 -2.1015 -1.1203 -1.1087
 8467SOL     OW26299   4.020   5.050   1.906 -0.5168  0.2839 -0.1438
 8467SOL    HW126300   3.987   4.974   1.962 -1.3072 -0.5767 -1.7133
 8467SOL    HW226301   3.973   5.049   1.817  1.6387  0.7750 -1.3578
 8468SOL     OW26302   5.200   1.554   6.890  0.0292 -0.8033  0.4169
 8468SOL    HW126303   5.182   1.598   6.801 -0.8174 -1.1532  0.4078
 8468SOL    HW226304   5.199   1.624   6.961 -2.2764 -0.8561  0.5327
 8469SOL     OW26305   0.077   3.214   4.253 -0.0595  0.0928  0.4688
 8469SOL    HW126306  -0.019   3.236   4.273 -0.6168 -0.6333 -1.2294
 8469SOL    HW226307   0.130   3.216   4.338 -1.8173 -0.6993  1.6450
 8470SOL     OW26308   3.626   4.238   1.450  0.4776 -0.0270 -0.5704
 8470SOL    HW126309   3.541   4.185   1.461 -0.0881  0.9030 -0.3713
 8470SOL    HW226310   3.618   4.298   1.370  0.7029  0.5186 -0.1889
 8471SOL     OW26311   4.695   2.543   5.428 -0.3135 -0.0033 -0.1772
 8471SOL    HW126312   4.690   2.634   5.470 -1.0918 -0.2298  0.2389
 8471SOL    HW226313   4.790   2.510   5.431 -0.6588 -1.1365  3.8826
 8472SOL     OW26314   2.911   6.077   4.448  0.1222  0.0801 -0.0401
 8472SOL    HW126315   2.994   6.027   4.475  0.1073 -0.2907 -0.6626
 8472SOL    HW226316   2.927   6.175   4.459  1.2135  0.1324 -1.5759
 8473SOL     OW26317   1.959   0.394   0.691  0.4777  0.8401  0.2491
 8473SOL    HW126318   1.920   0.317   0.639  0.1059  0.9447  0.3678
 8473SOL    HW226319   2.053   0.373   0.717  0.3126  0.3401  0.4542
 8474SOL     OW26320   2.761   5.945   0.327 -0.8782  0.3774  0.0148
 8474SOL    HW126321   2.761   5.847   0.310 -1.7117  0.2851  0.4646
 8474SOL    HW226322   2.713   5.992   0.253  0.3760  0.5570 -0.7031
 8475SOL     OW26323   6.072   0.399   1.823  0.0287 -0.3439 -0.5184
 8475SOL    HW126324   6.109   0.459   1.753  0.2289  0.8506  0.5810
 8475SOL    HW226325   5.976   0.379   1.804 -0.8670  2.5303  0.4572
 8476SOL     OW26326   5.228   1.005   1.187  0.2732  0.5193 -0.0957
 8476SOL    HW126327   5.296   1.077   1.173 -0.2243  1.2933  1.3004
 8476SOL    HW226328   5.271   0.916   1.171  0.7372  1.0835 -2.4930
 8477SOL     OW26329   0.730   1.375   3.973  0.2273  0.1761  0.3954
 8477SOL    HW126330   0.742   1.346   3.878 -0.1646 -1.6143  0.8550
 8477SOL    HW226331   0.784   1.458   3.990 -0.0787  0.8015 -1.4933
 8478SOL     OW26332   1.119   1.871   6.523  0.6086  0.4743  0.1914
 8478SOL    HW126333   1.128   1.807   6.599  0.5328  1.7706  1.3303
 8478SOL    HW226334   1.041   1.931   6.539 -0.0356  0.1415 -1.4199
 8479SOL     OW26335   6.858   1.410   1.111 -0.1015 -0.1746  0.0251
 8479SOL    HW126336   6.930   1.454   1.057 -0.7058 -1.3452 -1.7948
 8479SOL    HW226337   6.817   1.477   1.173  0.9995  1.0623 -0.5431
 8480SOL     OW26338   3.470   6.987   2.805  0.0913 -0.5365 -0.0968
 8480SOL    HW126339   3.425   7.076   2.806 -1.5940 -1.3125 -1.7042
 8480SOL    HW226340   3.415   6.921   2.857  0.5623 -0.9927 -0.1587
 8481SOL     OW26341   4.759   6.485   6.342 -0.1893  0.5183 -0.0499
 8481SOL    HW126342   4.673   6.471   6.391 -0.4630  2.3941  0.0928
 8481SOL    HW226343   4.743   6.544   6.262  0.4491 -1.5733 -1.8241
 8482SOL     OW26344   5.641   5.355   2.392 -0.1359  0.2826 -0.4238
 8482SOL    HW126345   5.591   5.405   2.462 -0.0979  0.0755 -0.2462
 8482SOL    HW226346   5.737   5.385   2.392 -0.4900  1.4948 -1.5280
 8483SOL     OW26347   5.319   5.589   2.153 -0.2225 -0.0981  0.3803
 8483SOL    HW126348   5.394   5.526   2.171 -1.7332 -1.7787  1.1309
 8483SOL    HW226349   5.302   5.645   2.234 -2.7968 -3.1243  2.1925
 8484SOL     OW26350   5.495   4.237   0.143  0.4233 -0.9300  0.0228
 8484SOL    HW126351   5.417   4.177   0.160 -0.7780  0.2843 -0.9381
 8484SOL    HW226352   5.547   4.202   0.065  0.6298 -1.5536  0.4369
 8485SOL     OW26353   3.166   2.941   6.848 -0.4567 -0.2793  0.3947
 8485SOL    HW126354   3.155   3.037   6.873 -0.2154 -0.0678 -0.3094
 8485SOL    HW226355   3.257   2.909   6.876 -0.9992 -0.6778  1.8053
 8486SOL     OW26356   4.176   1.055   2.346  0.1266  0.4533  0.0784
 8486SOL    HW126357   4.124   0.976   2.377  0.7196  0.1723  0.3910
 8486SOL    HW226358   4.274   1.036   2.357  0.3043  0.8417 -0.7945
 8487SOL     OW26359   5.173   0.410   6.897  0.1752 -0.4808  0.5978
 8487SOL    HW126360   5.217   0.348   6.962  0.1464  0.2690  1.3455
 8487SOL    HW226361   5.242   0.472   6.859  0.1956 -0.9263 -0.1167
 8488SOL     OW26362   5.800   3.038   6.726 -0.0341 -0.9720  0.4286
 8488SOL    HW126363   5.828   3.066   6.634  1.8496 -1.3429  0.8450
 8488SOL    HW226364   5.736   3.105   6.764  1.5168  0.8219  0.0010
 8489SOL     OW26365   3.667   6.889   2.662 -0.0806  0.4989  0.2278
 8489SOL    HW126366   3.588   6.900   2.722 -1.6004  1.2853 -1.8092
 8489SOL    HW226367   3.746   6.934   2.703 -1.5980  2.9324  0.6974
 8490SOL     OW26368   1.809   5.305   3.655 -0.2850  0.0749 -0.2683
 8490SOL    HW126369   1.858   5.365   3.719  0.8395 -0.5317 -0.5454
 8490SOL    HW226370   1.754   5.361   3.592  0.0681  0.7646  0.0235
 8491SOL     OW26371   1.314   6.812   6.695  0.0421  0.5556 -0.0040
 8491SOL    HW126372   1.262   6.881   6.747 -0.9666  0.3490 -0.7053
 8491SOL    HW226373   1.253   6.736   6.671  1.2046 -0.7371  0.9985
 8492SOL     OW26374   6.610   1.942   4.009 -0.3082  0.4995  0.3278
 8492SOL    HW126375   6.660   2.027   3.990 -1.6878  0.6654 -3.1440
 8492SOL    HW226376   6.675   1.866   4.015  0.6403  1.2039 -0.5904
 8493SOL     OW26377   5.412   2.088   5.961 -0.4811 -0.0833  0.1615
 8493SOL    HW126378   5.484   2.060   6.025 -1.5156 -1.3652  0.8204
 8493SOL    HW226379   5.404   2.187   5.962  1.9610  0.2061 -0.7281
 8494SOL     OW26380   1.844   5.171   0.639  0.0874 -0.1895  0.3683
 8494SOL    HW126381   1.873   5.263   0.611 -0.5482  0.3585  1.4166
 8494SOL    HW226382   1.744   5.170   0.648 -0.1693 -1.6762 -1.9474
 8495SOL     OW26383   2.173   3.207   0.335  0.0561  0.0946 -0.2460
 8495SOL    HW126384   2.161   3.172   0.243  2.4673  0.3013 -0.6874
 8495SOL    HW226385   2.266   3.241   0.347 -0.4588  0.9338  1.9893
 8496SOL     OW26386   2.250   1.994   4.049 -0.6310 -0.4693  0.1277
 8496SOL    HW126387   2.270   2.088   4.077 -0.0114 -0.1988 -1.1616
 8496SOL    HW226388   2.319   1.933   4.087 -0.4500 -0.2653  0.1271
 8497SOL     OW26389   0.709   2.442   4.147  0.2973 -0.0658 -0.1119
 8497SOL    HW126390   0.695   2.410   4.241 -2.7994  1.1841 -0.0478
 8497SOL    HW226391   0.759   2.528   4.149  0.6721 -0.2871  0.3479
 8498SOL     OW26392   6.378   1.101   2.908  0.2152  0.1109  0.6380
 8498SOL    HW126393   6.468   1.058   2.922  0.5245  1.2999  2.6718
 8498SOL    HW226394   6.321   1.040   2.854  1.3742 -1.8754  1.5302
 8499SOL     OW26395   6.938   3.309   2.595 -0.7286 -0.2046 -0.7506
 8499SOL    HW126396   6.859   3.248   2.605 -0.9762  0.0798 -0.9458
 8499SOL    HW226397   7.012   3.260   2.550  0.0484 -1.1901  1.4642
 8500SOL     OW26398   2.346   0.990   5.704  0.0025 -0.3080  0.6425
 8500SOL    HW126399   2.378   1.035   5.621 -1.4044  0.4929  0.5037
 8500SOL    HW226400   2.380   1.041   5.784 -1.0032  0.6458  0.4935
 8501SOL     OW26401   2.757   0.991   5.670 -0.1795 -0.4639 -0.2068
 8501SOL    HW126402   2.731   0.964   5.577 -0.2310  1.2810 -0.7220
 8501SOL    HW226403   2.825   1.064   5.666  0.7045 -1.1897  1.1471
 8502SOL     OW26404   6.910   5.181   1.801  0.2385 -0.4425  0.9081
 8502SOL    HW126405   7.008   5.199   1.790  0.5454 -1.4663  1.7927
 8502SOL    HW226406   6.897   5.113   1.873 -1.0124 -1.5068 -0.2747
 8503SOL     OW26407   3.117   6.127   4.095 -0.1173 -0.0846 -0.1614
 8503SOL    HW126408   3.076   6.212   4.129  1.9889 -0.0632  2.7426
 8503SOL    HW226409   3.175   6.148   4.015  1.0114  1.4431  0.9815
 8504SOL     OW26410   0.645   5.537   3.642 -0.7676 -0.0909  0.0166
 8504SOL    HW126411   0.739   5.553   3.610 -1.4491  0.5047 -1.7997
 8504SOL    HW226412   0.603   5.625   3.666 -1.0692 -0.2923  0.2325
 8505SOL     OW26413   4.577   1.021   3.045 -0.6842  0.4377  0.1545
 8505SOL    HW126414   4.530   1.099   3.004 -1.9440 -0.2624  0.2076
 8505SOL    HW226415   4.526   0.937   3.025  1.0477 -0.5014 -0.5642
 8506SOL     OW26416   0.791   5.236   1.678 -0.0808 -0.0559 -0.3944
 8506SOL    HW126417   0.693   5.215   1.682 -0.0282 -1.0206 -2.5993
 8506SOL    HW226418   0.809   5.298   1.602  1.1255 -0.6913 -0.6652
 8507SOL     OW26419   2.282   4.767   4.560 -0.5616  0.3588  0.4925
 8507SOL    HW126420   2.194   4.720   4.569 -0.0107 -0.6553  0.7037
 8507SOL    HW226421   2.354   4.700   4.540 -0.1871  1.3909 -2.0006
 8508SOL     OW26422   0.745   1.765   6.236 -0.3312  0.1305 -0.3136
 8508SOL    HW126423   0.737   1.679   6.186 -3.6125 -0.4110  0.9127
 8508SOL    HW226424   0.791   1.748   6.323  2.1928  0.4064 -1.4968
 8509SOL     OW26425   6.914   4.045   5.869 -0.0920 -0.3969 -0.8520
 8509SOL    HW126426   6.833   4.052   5.928  0.0452 -0.9061 -0.5956
 8509SOL    HW226427   6.886   4.046   5.773 -0.5404 -2.0273 -0.7624
 8510SOL     OW26428   5.546   0.083   1.565  0.7130  0.3366  0.1318
 8510SOL    HW126429   5.511   0.027   1.490  0.3472 -2.5289  2.2623
 8510SOL    HW226430   5.641   0.107   1.547  0.3178  0.6313 -1.7100
 8511SOL     OW26431   5.989   5.592   2.136  0.0251 -0.0359 -0.0898
 8511SOL    HW126432   6.060   5.599   2.205  1.3809 -1.4052 -1.2779
 8511SOL    HW226433   5.993   5.671   2.075 -0.6206  0.7400  0.8351
 8512SOL     OW26434   2.002   2.274   1.570  1.0950 -0.6636 -0.1567
 8512SOL    HW126435   1.974   2.362   1.531  0.8788  0.0152  1.4701
 8512SOL    HW226436   2.101   2.262   1.558  1.6011  1.0085  1.8304
 8513SOL     OW26437   1.230   4.372   0.706  0.1772  0.4598  0.9033
 8513SOL    HW126438   1.212   4.368   0.607 -2.1740  0.4914  1.2631
 8513SOL    HW226439   1.154   4.328   0.755  1.4737  0.1197  2.7034
 8514SOL     OW26440   2.115   3.145   4.863 -0.9769 -0.3958 -0.1367
 8514SOL    HW126441   2.197   3.103   4.900 -1.7822 -0.1597  2.0371
 8514SOL    HW226442   2.140   3.216   4.797  0.5941  0.0665  0.9097
 8515SOL     OW26443   2.912   0.153   6.825 -0.4157  0.2905 -0.4238
 8515SOL    HW126444   2.928   0.070   6.772  0.1023  0.3099 -0.2951
 8515SOL    HW226445   2.999   0.193   6.853 -0.6732  0.5931 -0.0408
 8516SOL     OW26446   0.011   3.233   6.479 -0.3535  0.0788 -0.1254
 8516SOL    HW126447   0.097   3.200   6.516 -1.4054  1.3110  3.9016
 8516SOL    HW226448  -0.043   3.155   6.447  1.2984 -0.9291 -0.5747
 8517SOL     OW26449   5.745   1.752   5.629  0.6250 -0.4899 -0.0190
 8517SOL    HW126450   5.837   1.747   5.669  0.2609  3.5807  1.7880
 8517SOL    HW226451   5.739   1.832   5.570 -2.0541  0.0414  0.8553
 8518SOL     OW26452   6.047   5.159   0.581 -0.9687 -0.0144  0.0534
 8518SOL    HW126453   6.144   5.173   0.560 -1.2735  1.2003 -0.6469
 8518SOL    HW226454   6.029   5.061   0.590  0.4642 -0.2338  0.9707
 8519SOL     OW26455   0.667   2.206   6.893 -0.0996  0.1982  0.7629
 8519SOL    HW126456   0.679   2.128   6.832  0.1837 -0.5839  1.7772
 8519SOL    HW226457   0.754   2.225   6.939 -0.0155  1.4875  0.1140
 8520SOL     OW26458   4.250   4.756   6.134 -0.6030 -0.7956  0.0350
 8520SOL    HW126459   4.185   4.754   6.210 -1.5336  0.6144 -0.6752
 8520SOL    HW226460   4.223   4.689   6.065 -2.6791  1.2756 -1.2795
 8521SOL     OW26461   0.662   4.740   5.331  0.0019 -0.2482 -0.0975
 8521SOL    HW126462   0.668   4.689   5.245 -2.0073 -1.6575  0.5308
 8521SOL    HW226463   0.656   4.838   5.312  0.2582 -0.4907 -1.5102
 8522SOL     OW26464   0.881   0.153   0.763  0.1068  0.0869  0.6224
 8522SOL    HW126465   0.980   0.168   0.769  0.3522 -0.6010 -1.0024
 8522SOL    HW226466   0.834   0.213   0.827  1.4846  1.6553  0.2506
 8523SOL     OW26467   4.159   0.244   2.434 -0.2584 -0.1771  0.4296
 8523SOL    HW126468   4.079   0.257   2.493  0.0668  0.9037  0.6604
 8523SOL    HW226469   4.196   0.334   2.408  0.8805 -0.6543  0.3421
 8524SOL     OW26470   1.958   6.719   0.628  0.1103  0.1902  0.1207
 8524SOL    HW126471   1.867   6.678   0.635  0.2742 -0.4161 -0.9257
 8524SOL    HW226472   1.996   6.734   0.719 -1.3034  1.0873  0.5869
 8525SOL     OW26473   6.071   2.026   4.416  0.0318 -0.0483  1.4242
 8525SOL    HW126474   6.119   2.083   4.483 -0.4036  0.6617  1.1399
 8525SOL    HW226475   6.077   2.069   4.326  0.2914 -0.8091  1.0706
 8526SOL     OW26476   6.848   4.092   4.722 -0.5615 -0.4259  0.4331
 8526SOL    HW126477   6.813   4.064   4.811 -0.4597 -0.9912  0.2960
 8526SOL    HW226478   6.937   4.136   4.733 -0.0283 -1.4909  0.5098
 8527SOL     OW26479   3.164   1.878   5.561 -0.1784 -0.1563 -0.0296
 8527SOL    HW126480   3.179   1.930   5.477  0.6790  3.6709  2.2459
 8527SOL    HW226481   3.066   1.866   5.576 -0.4569  1.4945 -0.3158
 8528SOL     OW26482   4.392   1.081   0.294 -0.1949 -0.2369 -0.5141
 8528SOL    HW126483   4.341   1.095   0.378 -1.0131 -1.7307 -0.7286
 8528SOL    HW226484   4.394   0.983   0.271 -1.9171  0.2854 -3.3925
 8529SOL     OW26485   4.203   3.346   6.330  0.2528 -0.7644 -0.3445
 8529SOL    HW126486   4.149   3.385   6.256  0.9220 -0.2935 -0.5923
 8529SOL    HW226487   4.248   3.262   6.298  0.1430 -0.8335 -0.3179
 8530SOL     OW26488   4.103   3.748   2.247  0.2952  0.0638  0.2837
 8530SOL    HW126489   4.121   3.681   2.175  1.4770  1.4551 -0.7703
 8530SOL    HW226490   4.137   3.712   2.335  2.0033 -0.2707 -0.4622
 8531SOL     OW26491   6.178   0.212   3.416 -0.0840  0.5848 -0.6713
 8531SOL    HW126492   6.198   0.165   3.502 -0.1534  0.2758 -0.8206
 8531SOL    HW226493   6.117   0.290   3.434  0.5923  1.0415 -0.3307
 8532SOL     OW26494   2.211   5.811   6.760  0.3237 -0.5078 -0.1012
 8532SOL    HW126495   2.306   5.840   6.760  0.1215  0.1829  0.2415
 8532SOL    HW226496   2.172   5.820   6.668  0.1768  0.6412  0.0577
 8533SOL     OW26497   0.288   0.875   5.114 -0.7357  0.4498  0.4673
 8533SOL    HW126498   0.363   0.927   5.154 -1.3090  1.5105  0.1994
 8533SOL    HW226499   0.300   0.778   5.134 -0.1233  0.7755  1.7613
 8534SOL     OW26500   1.664   4.443   3.503  0.8817 -0.0031  0.5501
 8534SOL    HW126501   1.610   4.406   3.578 -0.1199 -2.6013 -1.2803
 8534SOL    HW226502   1.760   4.419   3.516  0.9002  0.6105  1.5676
 8535SOL     OW26503   0.042   0.516   1.259  0.2645  0.1356  0.0003
 8535SOL    HW126504   0.107   0.571   1.207 -0.2976  2.2270  1.3710
 8535SOL    HW226505   0.057   0.419   1.239  2.4588  0.6481 -1.2187
 8536SOL     OW26506   2.358   0.713   5.654 -0.1260  0.0811  0.6221
 8536SOL    HW126507   2.348   0.807   5.687 -1.0285  0.9402 -1.8234
 8536SOL    HW226508   2.455   0.690   5.647  0.1286  1.1061  0.5649
 8537SOL     OW26509   4.860   2.048   3.528  0.4214  0.4819  0.9420
 8537SOL    HW126510   4.918   2.113   3.577 -0.0224  0.2174  1.8433
 8537SOL    HW226511   4.906   2.017   3.445  0.4941  2.2356  0.2758
 8538SOL     OW26512   5.016   2.162   5.935  0.7636 -0.5192  0.3643
 8538SOL    HW126513   4.921   2.133   5.922  0.4583  0.1686  1.0070
 8538SOL    HW226514   5.036   2.240   5.876  0.6532 -0.0882  0.8923
 8539SOL     OW26515   5.653   5.128   1.536  0.1231  0.0127 -0.0896
 8539SOL    HW126516   5.616   5.099   1.447  0.7250  0.3612 -0.4609
 8539SOL    HW226517   5.583   5.180   1.585  0.2528  1.0866 -0.9889
 8540SOL     OW26518   4.374   5.785   0.649  0.5552 -0.6768  0.0710
 8540SOL    HW126519   4.388   5.799   0.551 -0.9786 -0.0357 -0.0993
 8540SOL    HW226520   4.322   5.701   0.663 -0.3578 -0.1068  0.2104
 8541SOL     OW26521   6.690   4.334   1.914 -0.5060 -0.3111  0.2366
 8541SOL    HW126522   6.632   4.262   1.875 -1.6929  0.1929  1.0238
 8541SOL    HW226523   6.667   4.422   1.874  0.8593 -0.3213 -0.6329
 8542SOL     OW26524   3.708   5.537   6.222  0.1858 -0.0534  0.2266
 8542SOL    HW126525   3.768   5.518   6.299 -1.1327  0.8576  1.5332
 8542SOL    HW226526   3.717   5.634   6.196 -1.6437  0.4557  1.3298
 8543SOL     OW26527   4.384   2.029   5.100 -0.3676 -0.3559 -0.3630
 8543SOL    HW126528   4.371   1.974   5.183  0.1711 -0.4727 -0.3565
 8543SOL    HW226529   4.303   2.087   5.087 -0.6084 -0.5845  0.0529
 8544SOL     OW26530   5.711   2.920   5.109 -0.5925  1.0832  0.7167
 8544SOL    HW126531   5.641   2.850   5.123  0.7159  0.1700  3.2076
 8544SOL    HW226532   5.667   3.008   5.090 -2.2887 -0.1055 -1.3100
 8545SOL     OW26533   2.109   0.512   5.206 -0.2146 -0.6203  0.2227
 8545SOL    HW126534   2.167   0.515   5.287  0.7795 -0.6871 -0.4668
 8545SOL    HW226535   2.031   0.573   5.219  0.7371  0.5691  0.6365
 8546SOL     OW26536   4.630   1.638   6.496  0.1060  0.1810  0.2264
 8546SOL    HW126537   4.668   1.552   6.465 -0.0953  0.0215  0.4155
 8546SOL    HW226538   4.679   1.669   6.578  1.1971  1.0303 -0.7219
 8547SOL     OW26539   1.537   4.983   0.903  0.0122  0.7984  0.0823
 8547SOL    HW126540   1.449   4.986   0.855  0.7618  2.4920 -1.3114
 8547SOL    HW226541   1.600   4.923   0.853  0.9544  2.9556 -1.4796
 8548SOL     OW26542   6.122   3.351   6.881  0.1720 -0.0174 -0.1196
 8548SOL    HW126543   6.154   3.259   6.859  0.5780  0.6007 -2.3752
 8548SOL    HW226544   6.200   3.414   6.884 -0.1626  0.3727  0.8237
 8549SOL     OW26545   6.540   2.142   5.619  0.1526 -0.0456  0.1530
 8549SOL    HW126546   6.532   2.206   5.695  0.8995  0.7680 -0.4364
 8549SOL    HW226547   6.590   2.185   5.544 -1.0966 -0.6039 -1.0510
 8550SOL     OW26548   2.407   4.458   4.763  0.1336  0.1016  0.5215
 8550SOL    HW126549   2.465   4.530   4.802  0.5461  0.2441 -0.3475
 8550SOL    HW226550   2.361   4.409   4.838 -2.1182  2.8424  1.1262
 8551SOL     OW26551   2.985   5.177   0.634 -0.2818  0.5597  0.2323
 8551SOL    HW126552   2.953   5.198   0.541  0.5645  0.8352 -0.0057
 8551SOL    HW226553   3.069   5.227   0.652 -0.5033  0.5971  1.2035
 8552SOL     OW26554   2.585   0.706   5.380  0.0140 -0.2274 -0.0846
 8552SOL    HW126555   2.658   0.657   5.332 -0.3513  0.5363 -1.4658
 8552SOL    HW226556   2.584   0.802   5.351  0.2300  0.4433  2.0151
 8553SOL     OW26557   5.958   0.463   0.028  0.5281 -0.1475 -0.2725
 8553SOL    HW126558   5.938   0.403   0.106 -0.0388  0.0341 -0.2770
 8553SOL    HW226559   5.937   0.557   0.052  2.4427  0.2349  0.1175
 8554SOL     OW26560   6.701   4.502   1.086 -0.2122 -0.0976 -0.4408
 8554SOL    HW126561   6.717   4.470   0.993 -0.3317 -0.2847 -0.3975
 8554SOL    HW226562   6.603   4.518   1.100 -0.6669 -3.1341  0.6097
 8555SOL     OW26563   1.633   5.778   5.533  0.2311  0.3781  0.4425
 8555SOL    HW126564   1.552   5.802   5.585  1.1560  2.1923  1.1077
 8555SOL    HW226565   1.610   5.774   5.436 -0.8764 -0.2340  0.7118
 8556SOL     OW26566   6.107   1.439   6.489 -0.4055 -0.5050 -0.2081
 8556SOL    HW126567   6.154   1.403   6.409  0.6988  0.4597 -0.0225
 8556SOL    HW226568   6.105   1.370   6.561  1.2193 -0.4131 -0.0391
 8557SOL     OW26569   5.712   0.848   2.075  0.5567  0.4286 -0.2163
 8557SOL    HW126570   5.645   0.857   2.149 -1.2275  1.7718 -1.8833
 8557SOL    HW226571   5.790   0.907   2.093 -0.4400  1.7131  0.0302
 8558SOL     OW26572   0.117   4.530   3.159 -0.2080 -0.2369  0.0539
 8558SOL    HW126573   0.133   4.599   3.089 -0.2084 -0.5563 -0.2592
 8558SOL    HW226574   0.171   4.553   3.241  1.4889 -1.0176 -0.8007
 8559SOL     OW26575   1.442   0.563   2.546  0.0877  0.1003  0.1401
 8559SOL    HW126576   1.359   0.539   2.594  1.0501  1.0073  2.3980
 8559SOL    HW226577   1.507   0.487   2.549 -0.1811 -0.1667 -0.5570
 8560SOL     OW26578   4.365   4.954   0.979  0.2041  0.1813  0.1955
 8560SOL    HW126579   4.412   5.022   0.922  0.5055  2.3626  2.8431
 8560SOL    HW226580   4.407   4.951   1.069 -1.3317 -1.8846  0.9202
 8561SOL     OW26581   6.155   6.964   4.531  0.2479  0.2001 -0.0304
 8561SOL    HW126582   6.160   7.033   4.458  1.7980 -0.9797 -1.1359
 8561SOL    HW226583   6.060   6.949   4.557 -0.2283  1.6750 -0.8228
 8562SOL     OW26584   5.920   2.264   5.589 -0.5155  0.7602  0.0336
 8562SOL    HW126585   5.933   2.301   5.681 -1.2377  0.9973  0.0514
 8562SOL    HW226586   5.824   2.237   5.578 -0.4321  0.7372 -0.6441
 8563SOL     OW26587   1.731   2.313   5.573 -0.1160  0.0316  0.0118
 8563SOL    HW126588   1.796   2.247   5.612 -1.3271 -0.7412  0.7641
 8563SOL    HW226589   1.780   2.397   5.551  1.4065 -0.9674 -0.6485
 8564SOL     OW26590   0.339   3.224   2.917  0.2700 -0.4783  0.3810
 8564SOL    HW126591   0.294   3.206   3.004 -0.1301  0.3509  0.3566
 8564SOL    HW226592   0.431   3.183   2.917 -0.4042 -2.0453  0.4935
 8565SOL     OW26593   2.686   1.555   1.669 -0.1463 -0.0603  0.2226
 8565SOL    HW126594   2.740   1.604   1.738 -0.7637  0.2729  0.4721
 8565SOL    HW226595   2.593   1.591   1.667 -0.4594 -0.8625  0.0260
 8566SOL     OW26596   2.887   5.350   2.836  0.3482 -0.1151 -0.5285
 8566SOL    HW126597   2.913   5.255   2.815 -0.4564 -0.2784 -0.8241
 8566SOL    HW226598   2.790   5.353   2.861  0.9850  0.2212  2.2640
 8567SOL     OW26599   4.303   6.005   4.783  0.3851 -0.0208  0.3376
 8567SOL    HW126600   4.403   6.002   4.777  0.3986 -0.9723  0.9324
 8567SOL    HW226601   4.274   5.994   4.878 -0.3160 -0.4053  0.0877
 8568SOL     OW26602   5.829   6.899   0.663 -0.5735  0.2645 -0.2490
 8568SOL    HW126603   5.742   6.948   0.662 -1.3793 -1.1159 -0.6074
 8568SOL    HW226604   5.832   6.833   0.588  0.2734 -0.5496  0.4603
 8569SOL     OW26605   2.586   1.644   6.310 -0.0617  0.0795  0.2103
 8569SOL    HW126606   2.669   1.588   6.301 -2.0136 -3.0366  0.0459
 8569SOL    HW226607   2.537   1.644   6.223 -0.2762  1.9181  0.2907
 8570SOL     OW26608   0.385   4.184   4.566 -0.1352 -0.7148  0.2445
 8570SOL    HW126609   0.445   4.203   4.644  1.0632 -1.5597 -0.4605
 8570SOL    HW226610   0.321   4.111   4.590 -0.2686 -0.4625  0.6718
 8571SOL     OW26611   1.221   4.109   6.524  0.3857  0.1099 -0.0402
 8571SOL    HW126612   1.235   4.178   6.595  1.4902 -1.2042  1.0955
 8571SOL    HW226613   1.303   4.105   6.466 -0.6411  1.4112 -1.6687
 8572SOL     OW26614   2.102   3.067   5.570 -0.4321  0.6417 -0.3064
 8572SOL    HW126615   2.077   3.159   5.599  2.2292  0.9291  1.4437
 8572SOL    HW226616   2.191   3.068   5.526 -0.4050 -1.0906 -0.3738
 8573SOL     OW26617   4.233   4.784   3.405 -0.6434 -0.4603  0.2606
 8573SOL    HW126618   4.284   4.749   3.484  2.4994 -0.7637 -1.7528
 8573SOL    HW226619   4.263   4.737   3.322 -0.8664  2.5885 -1.6978
 8574SOL     OW26620   1.402   3.457   5.134  0.1554 -0.7418  0.0781
 8574SOL    HW126621   1.495   3.491   5.124  0.1129 -0.4219  0.7234
 8574SOL    HW226622   1.379   3.450   5.231 -0.5404 -0.6894 -0.0758
 8575SOL     OW26623   3.857   3.059   4.287 -0.0434  0.0614 -0.1683
 8575SOL    HW126624   3.785   3.122   4.317 -0.0900 -0.4079  0.7391
 8575SOL    HW226625   3.902   3.019   4.367  0.4799 -0.5006 -0.7322
 8576SOL     OW26626   2.996   0.239   5.935  0.4461 -0.1502  0.3207
 8576SOL    HW126627   3.015   0.228   6.032  0.9468 -2.1510  0.0397
 8576SOL    HW226628   2.987   0.149   5.892 -1.7352  0.6829 -1.1305
 8577SOL     OW26629   6.685   6.490   3.783 -0.0997  0.4355 -0.4870
 8577SOL    HW126630   6.703   6.419   3.714 -0.0425  0.9401 -1.0025
 8577SOL    HW226631   6.616   6.554   3.747 -0.3696  0.4712  0.0919
 8578SOL     OW26632   3.667   6.535   4.969  0.2219 -0.0515 -0.3030
 8578SOL    HW126633   3.748   6.580   5.007 -0.4603  1.2211 -0.2955
 8578SOL    HW226634   3.602   6.516   5.042  0.2855 -0.5871 -0.3837
 8579SOL     OW26635   0.178   5.428   3.158  0.1478  0.4275 -0.1398
 8579SOL    HW126636   0.239   5.355   3.127 -0.4144  0.1775 -0.6789
 8579SOL    HW226637   0.201   5.454   3.251  0.8413  0.0819 -0.2155
 8580SOL     OW26638   1.280   6.124   6.489  0.2269 -0.0745  0.0173
 8580SOL    HW126639   1.229   6.097   6.408  2.0164  0.2299 -1.2686
 8580SOL    HW226640   1.347   6.194   6.466  0.6058  0.2286  1.8191
 8581SOL     OW26641   3.073   2.638   6.977 -0.2465  0.6030 -0.9548
 8581SOL    HW126642   3.172   2.628   6.976 -0.1851  0.1569  2.1129
 8581SOL    HW226643   3.036   2.604   6.890  2.0431 -2.2838 -0.9859
 8582SOL     OW26644   2.456   6.192   0.001 -0.1075 -0.0281  0.6897
 8582SOL    HW126645   2.538   6.173   0.055  0.2805 -1.8560 -0.4748
 8582SOL    HW226646   2.453   6.290  -0.021  2.3132 -0.0685 -0.0974
 8583SOL     OW26647   4.387   6.829   3.861 -0.3493  0.6561  0.2823
 8583SOL    HW126648   4.475   6.876   3.867  0.4621 -0.7536 -0.2403
 8583SOL    HW226649   4.367   6.784   3.948 -0.8932  1.5059  0.6179
 8584SOL     OW26650   0.722   4.688   5.610  0.6184 -0.3823 -0.3403
 8584SOL    HW126651   0.688   4.739   5.531 -0.5115  2.4209  1.7986
 8584SOL    HW226652   0.807   4.728   5.643  1.7576 -2.2958 -0.7776
 8585SOL     OW26653   1.234   2.133   6.244  0.2980  0.2411 -0.1818
 8585SOL    HW126654   1.239   2.145   6.343  0.0864  0.0754 -0.1489
 8585SOL    HW226655   1.199   2.216   6.202  0.6370  0.4033 -0.1413
 8586SOL     OW26656   4.543   5.761   1.528 -0.0480  0.2345 -0.1660
 8586SOL    HW126657   4.497   5.812   1.601  0.0935  1.3975 -0.8598
 8586SOL    HW226658   4.630   5.806   1.507 -0.5527  0.5216 -1.7394
 8587SOL     OW26659   6.134   1.539   1.871 -0.0384  0.0100  0.5010
 8587SOL    HW126660   6.168   1.623   1.911  1.4528  0.0892 -0.8361
 8587SOL    HW226661   6.208   1.493   1.822 -1.2564 -1.1655 -0.3084
 8588SOL     OW26662   4.684   3.473   6.762  0.8638 -0.4135 -0.5391
 8588SOL    HW126663   4.690   3.552   6.823 -1.3251 -0.8068  0.2490
 8588SOL    HW226664   4.693   3.389   6.816  2.2954 -0.7582 -1.2594
 8589SOL     OW26665   4.027   0.941   3.131 -0.4238  0.2162  0.1429
 8589SOL    HW126666   4.071   0.852   3.126  0.3821  0.5689  0.6167
 8589SOL    HW226667   4.059   0.998   3.056 -0.0492  0.4807  0.4987
 8590SOL     OW26668   4.991   1.408   6.669 -0.2577 -0.5865  0.4889
 8590SOL    HW126669   5.045   1.482   6.628 -0.9380  0.0097  0.6503
 8590SOL    HW226670   5.046   1.324   6.672  1.3731  0.4407  2.3491
 8591SOL     OW26671   1.072   4.859   0.397 -0.3039 -0.1487  0.1864
 8591SOL    HW126672   1.118   4.839   0.310  2.7012 -0.5832  1.7281
 8591SOL    HW226673   1.067   4.958   0.411  0.7328 -0.0879  0.2100
 8592SOL     OW26674   2.222   6.775   6.336  0.4180 -0.1312  0.0306
 8592SOL    HW126675   2.160   6.807   6.264  0.5701 -3.5727 -1.9143
 8592SOL    HW226676   2.170   6.749   6.417 -0.1969  0.6001 -0.1269
 8593SOL     OW26677   0.725   5.146   3.959 -0.1368  0.4291 -0.0719
 8593SOL    HW126678   0.751   5.077   4.026 -0.2703 -0.6546 -1.1052
 8593SOL    HW226679   0.793   5.151   3.886 -2.5057 -2.3981 -2.7866
 8594SOL     OW26680   3.598   2.833   2.250 -0.1468 -0.6697 -0.3057
 8594SOL    HW126681   3.541   2.765   2.203  1.0107 -0.7051 -1.7338
 8594SOL    HW226682   3.541   2.892   2.305 -1.4004 -1.6028 -0.5659
 8595SOL     OW26683   6.137   1.654   3.406 -0.9388  0.4270 -0.1785
 8595SOL    HW126684   6.127   1.565   3.361 -1.8322  0.3675  0.1116
 8595SOL    HW226685   6.213   1.704   3.365 -0.5825 -0.3665 -0.5151
 8596SOL     OW26686   6.249   5.403   3.983 -0.2399  0.1483  0.5283
 8596SOL    HW126687   6.255   5.472   3.911  1.8106 -0.6362 -0.1231
 8596SOL    HW226688   6.294   5.319   3.953 -2.8865 -1.6208  1.2016
 8597SOL     OW26689   2.471   2.065   1.106  0.2451 -0.1615  0.3837
 8597SOL    HW126690   2.495   1.969   1.093 -1.9926 -0.5697 -1.0884
 8597SOL    HW226691   2.549   2.122   1.078  1.1541 -1.4804  0.0949
 8598SOL     OW26692   0.812   3.085   0.556  0.0370  0.2180  0.1480
 8598SOL    HW126693   0.871   3.143   0.501  0.1523  0.8705  0.9495
 8598SOL    HW226694   0.868   3.018   0.606 -0.1657 -1.3427 -1.5946
 8599SOL     OW26695   6.088   4.492   0.838  0.0851 -0.0067 -0.4434
 8599SOL    HW126696   6.028   4.571   0.828  0.3962  0.2170 -0.5466
 8599SOL    HW226697   6.138   4.499   0.925  1.6149  0.9487 -1.3556
 8600SOL     OW26698   6.639   3.994   5.878 -0.3678  0.2383  0.7481
 8600SOL    HW126699   6.542   3.971   5.885 -0.0114 -0.9208  3.3812
 8600SOL    HW226700   6.694   3.910   5.882  0.7827  0.7329 -2.2764
 8601SOL     OW26701   3.192   0.234   6.251  0.2238 -0.2590  0.1927
 8601SOL    HW126702   3.219   0.154   6.305 -3.2925 -0.9759  1.1350
 8601SOL    HW226703   3.187   0.314   6.311  1.1260  0.1006 -0.1903
 8602SOL     OW26704   0.253   6.452   0.402 -0.5917  0.5848 -0.1306
 8602SOL    HW126705   0.297   6.488   0.320 -0.6438  0.0075 -0.4171
 8602SOL    HW226706   0.233   6.355   0.389 -0.1990  0.3784  0.7387
 8603SOL     OW26707   0.026   4.941   3.169  0.6216  0.5700 -0.4626
 8603SOL    HW126708  -0.011   4.905   3.084  2.6351 -3.4290  0.1397
 8603SOL    HW226709  -0.021   4.900   3.247  2.0217  0.2974  0.2859
 8604SOL     OW26710   6.530   2.945   3.264 -0.1912 -0.2961  0.3453
 8604SOL    HW126711   6.472   2.866   3.284  0.7587 -1.3201 -0.7968
 8604SOL    HW226712   6.525   2.966   3.166 -0.1582  0.8542  0.5789
 8605SOL     OW26713   1.670   6.620   0.610 -0.4851  0.0880  0.3929
 8605SOL    HW126714   1.623   6.669   0.535 -1.3212 -0.9570  0.2140
 8605SOL    HW226715   1.685   6.525   0.583 -0.4411 -0.2005  1.4087
 8606SOL     OW26716   3.653   0.428   4.402  0.2389  0.0953  0.0609
 8606SOL    HW126717   3.604   0.497   4.348  0.0661  1.0090  1.3434
 8606SOL    HW226718   3.676   0.350   4.343  0.7626  1.3925 -1.5114
 8607SOL     OW26719   3.681   0.211   0.154  0.2913 -0.2245 -0.3108
 8607SOL    HW126720   3.776   0.243   0.144 -0.3680  1.8002 -0.5678
 8607SOL    HW226721   3.669   0.127   0.101  1.7622 -0.1292 -0.8537
 8608SOL     OW26722   6.341   0.561   5.686 -0.1945 -0.4638  0.6223
 8608SOL    HW126723   6.418   0.578   5.624  1.2720 -2.1279  1.9050
 8608SOL    HW226724   6.333   0.638   5.749  0.2459 -0.1515  0.3097
 8609SOL     OW26725   3.643   5.488   4.691  0.1836  0.3097  0.0224
 8609SOL    HW126726   3.667   5.428   4.768  2.4695  1.4615  0.2935
 8609SOL    HW226727   3.711   5.560   4.683 -1.5815  1.9191 -1.3390
 8610SOL     OW26728   6.674   1.007   5.567 -0.2668 -0.5563 -0.1290
 8610SOL    HW126729   6.629   0.997   5.478 -1.8967 -3.2511  0.8814
 8610SOL    HW226730   6.765   0.965   5.564 -0.8642 -1.8858 -0.2008
 8611SOL     OW26731   0.364   1.967   2.341 -0.0176  0.6354  0.1591
 8611SOL    HW126732   0.400   2.017   2.262  0.3029  1.1030  0.5901
 8611SOL    HW226733   0.391   2.014   2.425  0.0679 -0.1255  0.5695
 8612SOL     OW26734   5.330   3.307   4.333 -0.4254 -0.3181  0.5087
 8612SOL    HW126735   5.325   3.397   4.375  0.9875 -0.3910  0.8459
 8612SOL    HW226736   5.423   3.290   4.300 -0.7244 -1.5790  0.2765
 8613SOL     OW26737   0.201   6.277   2.789 -0.8152 -0.0067 -0.0552
 8613SOL    HW126738   0.175   6.274   2.693  0.7725 -1.6067 -0.4865
 8613SOL    HW226739   0.153   6.352   2.835 -2.8850 -0.2681 -1.6808
 8614SOL     OW26740   1.013   1.106   3.561  0.2348 -0.3187  0.3203
 8614SOL    HW126741   1.007   1.199   3.524 -0.4490 -1.1395 -1.7440
 8614SOL    HW226742   1.107   1.072   3.551  0.0138 -0.6066 -0.9094
 8615SOL     OW26743   5.776   2.254   6.119 -0.1700  0.1839  0.1948
 8615SOL    HW126744   5.756   2.195   6.041  0.2158  0.2523  0.0463
 8615SOL    HW226745   5.833   2.330   6.090  0.6465 -0.2240  0.6982
 8616SOL     OW26746   0.402   1.842   1.372 -0.1265  0.2890  0.0057
 8616SOL    HW126747   0.434   1.874   1.283  0.0960 -0.1755 -0.0858
 8616SOL    HW226748   0.481   1.812   1.426 -0.4720 -2.1524 -0.7254
 8617SOL     OW26749   6.585   3.523   1.491  0.0609  0.8745  0.8014
 8617SOL    HW126750   6.634   3.520   1.578  0.8868  0.8513  0.3410
 8617SOL    HW226751   6.641   3.483   1.419 -1.4580 -1.0645  0.6245
 8618SOL     OW26752   2.357   0.621   3.874  0.4504  0.0117  0.2621
 8618SOL    HW126753   2.429   0.603   3.941 -0.6085  0.8539  1.6754
 8618SOL    HW226754   2.377   0.570   3.790  1.0255 -2.3343  1.7213
 8619SOL     OW26755   4.543   1.240   1.176  0.2403  0.5170 -0.0449
 8619SOL    HW126756   4.575   1.274   1.264  0.9269  0.9962 -0.4712
 8619SOL    HW226757   4.583   1.295   1.102 -0.2548  0.0680 -0.6594
 8620SOL     OW26758   5.139   6.762   2.947  0.3560 -0.3707 -0.0828
 8620SOL    HW126759   5.193   6.759   3.032  1.8025 -0.1288 -0.9611
 8620SOL    HW226760   5.157   6.680   2.893  0.3424  0.0085 -0.6730
 8621SOL     OW26761   4.577   1.518   3.225 -0.3342  0.7550  0.4787
 8621SOL    HW126762   4.672   1.549   3.217 -0.6788  1.6165 -0.5930
 8621SOL    HW226763   4.546   1.529   3.319 -0.1919  3.0423  0.3144
 8622SOL     OW26764   5.091   6.487   6.268  0.1077 -0.3974  0.6132
 8622SOL    HW126765   5.060   6.482   6.173 -0.4870 -2.3210  0.8652
 8622SOL    HW226766   5.029   6.435   6.326  0.6124  0.5329  2.0359
 8623SOL     OW26767   5.991   0.086   4.203 -0.1206  0.4175  0.3002
 8623SOL    HW126768   5.985  -0.013   4.193 -0.8584  0.1394  2.9093
 8623SOL    HW226769   5.900   0.126   4.196  0.3099  1.1761 -2.2272
 8624SOL     OW26770   6.675   1.259   4.104 -0.5133  0.7513 -0.2400
 8624SOL    HW126771   6.658   1.174   4.152 -0.6307  1.4083  0.9051
 8624SOL    HW226772   6.772   1.266   4.081 -0.1504  1.1197  1.2876
 8625SOL     OW26773   4.669   0.438   6.903 -0.8368 -0.3713  0.5635
 8625SOL    HW126774   4.655   0.394   6.992  0.0328  2.3578  2.2067
 8625SOL    HW226775   4.603   0.512   6.892 -0.6335 -0.3739 -0.8678
 8626SOL     OW26776   3.933   4.132   1.440  0.0354  0.5855 -0.0334
 8626SOL    HW126777   3.918   4.210   1.501 -0.2616 -0.9375  1.9701
 8626SOL    HW226778   3.855   4.122   1.378 -0.9714  0.6020  1.1915
 8627SOL     OW26779   3.458   6.268   5.878 -0.4383 -0.3051 -0.1815
 8627SOL    HW126780   3.474   6.175   5.912  3.1959  0.3079  0.2205
 8627SOL    HW226781   3.465   6.268   5.778  2.6895 -0.1502 -0.0671
 8628SOL     OW26782   6.854   1.156   1.214  0.1863 -0.0248 -0.7626
 8628SOL    HW126783   6.764   1.176   1.252  1.7059  0.2879  3.1059
 8628SOL    HW226784   6.894   1.240   1.177 -0.4609  0.1961 -0.9655
 8629SOL     OW26785   0.726   5.927   2.572  0.4981 -0.1327  0.2600
 8629SOL    HW126786   0.733   5.903   2.669  2.5754  1.2584  0.5098
 8629SOL    HW226787   0.818   5.935   2.533 -0.2613  1.1160 -1.3770
 8630SOL     OW26788   4.072   6.196   4.436  0.0684 -0.4658  0.3327
 8630SOL    HW126789   4.013   6.228   4.362 -0.4688 -0.5297  0.7251
 8630SOL    HW226790   4.018   6.187   4.520  0.5802 -0.7886  0.6314
 8631SOL     OW26791   3.315   5.638   2.808 -0.7152  0.2227  0.1796
 8631SOL    HW126792   3.217   5.616   2.806 -0.9486  1.1052  1.3738
 8631SOL    HW226793   3.350   5.627   2.900  0.5734 -1.0552 -0.4185
 8632SOL     OW26794   2.354   0.612   4.183  0.1854 -0.2318 -0.1056
 8632SOL    HW126795   2.444   0.620   4.140 -0.0410  0.4773 -0.4623
 8632SOL    HW226796   2.341   0.519   4.217  0.6314 -0.6138 -0.9749
 8633SOL     OW26797   5.703   5.383   2.669  0.6001 -0.7452  0.1805
 8633SOL    HW126798   5.664   5.300   2.710 -1.5977  0.8843  1.6211
 8633SOL    HW226799   5.802   5.384   2.683  0.6115 -2.8344  0.6009
 8634SOL     OW26800   5.705   0.537   1.773  0.2710  0.0846 -0.2745
 8634SOL    HW126801   5.628   0.579   1.724 -0.2677  0.0676  0.5427
 8634SOL    HW226802   5.705   0.567   1.868  2.5173  1.7498 -0.7209
 8635SOL     OW26803   5.933   3.539   0.094  0.2503 -0.0224 -0.1150
 8635SOL    HW126804   5.962   3.494   0.010  2.9747 -0.2262  0.8400
 8635SOL    HW226805   5.889   3.472   0.154 -1.7541  0.1333 -1.3049
 8636SOL     OW26806   4.915   6.414   1.383 -0.2595  0.3299  0.6221
 8636SOL    HW126807   4.906   6.346   1.456 -0.2721 -1.0725 -0.6197
 8636SOL    HW226808   4.936   6.367   1.297  2.3738  2.1000  0.1833
 8637SOL     OW26809   6.812   1.693   2.602 -0.2416  0.2582 -0.3414
 8637SOL    HW126810   6.823   1.786   2.637 -1.2732  0.2100  0.1467
 8637SOL    HW226811   6.718   1.679   2.573 -0.1634 -0.7182 -0.1703
 8638SOL     OW26812   1.048   6.685   0.335 -0.3526  0.5037 -0.2042
 8638SOL    HW126813   0.982   6.710   0.406 -0.9146  0.5350 -0.7399
 8638SOL    HW226814   1.010   6.613   0.277 -0.2264  1.0638 -0.9887
 8639SOL     OW26815   4.954   3.255   4.886 -0.4792  0.3302 -0.3267
 8639SOL    HW126816   4.883   3.295   4.944  1.1765  2.6425  0.2446
 8639SOL    HW226817   4.938   3.281   4.791 -0.0183  1.5430 -0.0964
 8640SOL     OW26818   4.910   6.664   0.686 -0.7793  0.1805  0.1227
 8640SOL    HW126819   4.820   6.707   0.687 -1.2332 -0.7077 -0.5322
 8640SOL    HW226820   4.969   6.707   0.754 -0.9427  2.3534 -1.0252
 8641SOL     OW26821   4.490   6.226   3.229  0.6616  0.1656 -0.6653
 8641SOL    HW126822   4.509   6.171   3.148 -1.9089 -1.0129 -0.5656
 8641SOL    HW226823   4.423   6.178   3.287  1.1724  1.7253  1.3305
 8642SOL     OW26824   5.527   2.321   6.835  0.2016 -0.3262 -0.2089
 8642SOL    HW126825   5.523   2.412   6.878 -0.9859  0.5746 -2.0827
 8642SOL    HW226826   5.622   2.300   6.812  0.2709  1.6611 -2.0933
 8643SOL     OW26827   5.486   6.534   6.496 -0.2047  0.0613 -0.2251
 8643SOL    HW126828   5.529   6.615   6.457  1.2428 -0.4176  0.3166
 8643SOL    HW226829   5.416   6.562   6.562 -0.1074  0.8584 -0.4563
 8644SOL     OW26830   5.935   2.873   5.254 -0.6208 -0.2138  0.0870
 8644SOL    HW126831   5.861   2.884   5.188 -0.8317 -4.1216 -0.5356
 8644SOL    HW226832   5.898   2.881   5.347 -1.0470  1.5345 -0.2031
 8645SOL     OW26833   6.538   2.403   1.561  0.0987  1.1684 -0.0647
 8645SOL    HW126834   6.586   2.325   1.600  0.1363  0.9584 -0.5185
 8645SOL    HW226835   6.592   2.486   1.574  0.7470  0.8860 -0.8424
 8646SOL     OW26836   4.697   5.630   6.104  0.4901 -0.1474 -0.7454
 8646SOL    HW126837   4.608   5.585   6.091  0.1915 -0.7599  2.6767
 8646SOL    HW226838   4.683   5.722   6.141  1.1460 -1.4060  3.0541
 8647SOL     OW26839   5.330   4.601   1.362  0.7948  0.5034  0.0653
 8647SOL    HW126840   5.410   4.622   1.306 -0.1140  0.1507 -1.4255
 8647SOL    HW226841   5.257   4.565   1.304  0.8798 -3.0187  1.8955
 8648SOL     OW26842   6.425   0.124   4.582 -0.1542  0.4227 -0.0894
 8648SOL    HW126843   6.425   0.025   4.596 -0.6045  0.0653 -2.2788
 8648SOL    HW226844   6.371   0.167   4.654 -1.6594 -1.1361 -0.2187
 8649SOL     OW26845   5.568   1.624   6.352  0.3497 -0.1767  0.1097
 8649SOL    HW126846   5.510   1.603   6.273 -0.3160  0.8712  0.3054
 8649SOL    HW226847   5.532   1.578   6.433 -0.3766  0.6913  0.2865
 8650SOL     OW26848   1.448   5.295   1.606 -0.4059 -0.2394  0.4961
 8650SOL    HW126849   1.354   5.325   1.594 -0.2019  0.7651  1.2066
 8650SOL    HW226850   1.471   5.296   1.703  0.0562 -1.3853  0.4112
 8651SOL     OW26851   5.455   5.280   1.232  0.0107 -0.2237 -0.2102
 8651SOL    HW126852   5.364   5.256   1.265 -0.0343 -0.0438 -0.2007
 8651SOL    HW226853   5.495   5.203   1.184 -0.5953  0.0651 -1.1974
 8652SOL     OW26854   0.938   3.210   2.613  0.4436  0.8276  0.4774
 8652SOL    HW126855   1.011   3.183   2.550 -0.4181  0.3487 -0.3517
 8652SOL    HW226856   0.851   3.172   2.580 -0.1631  1.3227  1.4836
 8653SOL     OW26857   5.245   2.384   6.916  0.0423  0.4848  0.0514
 8653SOL    HW126858   5.222   2.436   6.999  0.7197  2.7723 -1.1021
 8653SOL    HW226859   5.344   2.382   6.905  0.0038 -0.7306 -0.1658
 8654SOL     OW26860   2.772   4.398   1.676 -0.0431  0.1186  0.1821
 8654SOL    HW126861   2.677   4.427   1.685  0.6107  2.7170 -0.5399
 8654SOL    HW226862   2.829   4.446   1.743  1.1917  1.0394 -1.4474
 8655SOL     OW26863   6.050   6.903   3.490  0.0705 -0.1510 -0.2592
 8655SOL    HW126864   5.980   6.872   3.427  2.6628 -1.6512 -2.6282
 8655SOL    HW226865   6.102   6.824   3.524  1.9613  1.0127 -0.3097
 8656SOL     OW26866   5.972   3.303   2.936 -0.4036  0.0240  0.4924
 8656SOL    HW126867   6.067   3.278   2.917 -1.0306 -2.6355  0.4469
 8656SOL    HW226868   5.912   3.248   2.877 -1.9732  3.6637 -1.6005
 8657SOL     OW26869   2.083   6.156   1.151 -0.6219  0.2170 -0.7568
 8657SOL    HW126870   2.099   6.091   1.076 -0.1551  0.3656 -0.7884
 8657SOL    HW226871   2.040   6.108   1.228 -0.6382 -0.0448 -0.9283
 8658SOL     OW26872   5.873   5.575   5.991 -0.3675  0.1103 -0.4658
 8658SOL    HW126873   5.839   5.629   6.069 -2.7155 -3.7342  1.4983
 8658SOL    HW226874   5.805   5.578   5.917  1.0312  2.2785 -1.7873
 8659SOL     OW26875   1.700   5.244   3.922 -0.0233  0.2411 -0.3704
 8659SOL    HW126876   1.696   5.148   3.950  1.8399  0.1141 -0.4458
 8659SOL    HW226877   1.752   5.251   3.836 -0.2514  1.3129 -0.4299
 8660SOL     OW26878   5.861   5.326   1.682  0.6691 -0.5044  0.6603
 8660SOL    HW126879   5.827   5.416   1.657  1.2672 -0.0493  1.4361
 8660SOL    HW226880   5.816   5.256   1.626  1.2482  0.3884 -0.9810
 8661SOL     OW26881   5.661   3.427   1.569  0.4416 -0.6230  0.5973
 8661SOL    HW126882   5.582   3.446   1.628  1.5799  0.9661  1.6793
 8661SOL    HW226883   5.741   3.410   1.626  1.2592 -0.5336 -0.5028
 8662SOL     OW26884   0.527   1.535   6.881 -0.0804 -0.3950  0.4225
 8662SOL    HW126885   0.443   1.487   6.855  0.6872 -0.8498 -1.3626
 8662SOL    HW226886   0.588   1.472   6.928 -0.6902 -0.0619  1.7302
 8663SOL     OW26887   2.816   6.206   1.673 -0.0646 -0.5402  0.3734
 8663SOL    HW126888   2.805   6.169   1.765 -2.9393 -2.4331 -0.6111
 8663SOL    HW226889   2.843   6.302   1.680  1.7808 -1.1334  3.1045
 8664SOL     OW26890   5.643   5.734   2.090  0.0805  0.6459 -0.1038
 8664SOL    HW126891   5.612   5.786   2.169 -0.3712 -0.0006  0.1514
 8664SOL    HW226892   5.624   5.637   2.104 -2.6042  0.7543 -2.1653
 8665SOL     OW26893   6.523   4.950   4.612  0.1355 -0.1267  0.0949
 8665SOL    HW126894   6.429   4.928   4.635 -0.5219  1.4731 -0.9023
 8665SOL    HW226895   6.553   5.030   4.664  0.7519 -0.2753 -0.0159
 8666SOL     OW26896   1.935   4.418   3.937  0.2267  0.1780 -0.7864
 8666SOL    HW126897   1.955   4.347   4.004  1.1059 -1.5025 -2.6945
 8666SOL    HW226898   2.020   4.446   3.892 -0.2534  1.7166 -0.7822
 8667SOL     OW26899   6.781   3.071   3.526 -0.6393 -0.3199 -0.1471
 8667SOL    HW126900   6.751   3.162   3.497 -1.4444 -0.1215  1.2228
 8667SOL    HW226901   6.756   3.003   3.457 -0.3860  0.4311 -0.9982
 8668SOL     OW26902   3.280   1.039   3.396 -0.1261  0.3913 -0.1504
 8668SOL    HW126903   3.243   1.011   3.307 -1.1846  0.3731  0.2812
 8668SOL    HW226904   3.218   1.008   3.468  1.0401 -0.1347  0.6378
 8669SOL     OW26905   3.035   5.280   5.327  0.0137 -0.4534  0.5915
 8669SOL    HW126906   2.967   5.208   5.315 -0.3416 -0.2520  1.3220
 8669SOL    HW226907   2.990   5.366   5.351  0.4478 -0.0276 -0.0927
 8670SOL     OW26908   4.853   6.247   1.587 -0.0745  0.0899  0.0928
 8670SOL    HW126909   4.859   6.227   1.684  1.1141 -1.1627 -0.2066
 8670SOL    HW226910   4.918   6.189   1.537 -0.4256  0.9415 -1.4094
 8671SOL     OW26911   0.202   6.197   0.348 -0.3252  0.4586 -0.0544
 8671SOL    HW126912   0.167   6.173   0.438 -0.8459  0.9095 -0.1313
 8671SOL    HW226913   0.223   6.114   0.296 -0.7858  0.1893  0.1861
 8672SOL     OW26914   2.590   0.326   5.283 -0.4772  0.1909  0.1537
 8672SOL    HW126915   2.633   0.356   5.368 -0.5710  0.9918 -0.0708
 8672SOL    HW226916   2.634   0.372   5.206  0.2840 -1.2929 -0.3230
 8673SOL     OW26917   3.072   2.048   0.567  0.1305 -0.5519  0.5592
 8673SOL    HW126918   3.040   2.101   0.488  1.8274  0.8632  0.7601
 8673SOL    HW226919   3.137   1.979   0.536  0.0401 -0.6611  0.6119
 8674SOL     OW26920   0.456   2.191   3.715 -0.2303 -0.3422  0.5171
 8674SOL    HW126921   0.461   2.091   3.716 -2.5193 -0.5126  0.2637
 8674SOL    HW226922   0.370   2.220   3.759 -0.6034  1.3996 -1.2539
 8675SOL     OW26923   1.988   2.452   2.503  0.0169  0.0080 -0.0049
 8675SOL    HW126924   2.054   2.511   2.456  0.6187  0.5193  1.4176
 8675SOL    HW226925   1.985   2.363   2.457  0.4221  0.5390 -1.1112
 8676SOL     OW26926   5.179   1.362   1.800  0.5362  0.4956  0.2888
 8676SOL    HW126927   5.198   1.456   1.825  3.0774 -0.2027  1.2566
 8676SOL    HW226928   5.214   1.300   1.871 -0.3531 -1.2202 -0.6850
 8677SOL     OW26929   3.717   5.512   5.058 -0.5803 -0.6530 -0.3704
 8677SOL    HW126930   3.776   5.436   5.086  0.2131  0.0959  0.0355
 8677SOL    HW226931   3.635   5.476   5.014  0.3634 -1.7049 -1.3340
 8678SOL     OW26932   1.590   1.753   6.986  0.0914 -0.5300  0.4453
 8678SOL    HW126933   1.537   1.755   7.071  0.3226 -0.3523  0.5867
 8678SOL    HW226934   1.551   1.819   6.921  0.6405  0.2086  0.8544
 8679SOL     OW26935   6.525   2.154   6.055 -0.3852 -0.4354  0.0265
 8679SOL    HW126936   6.427   2.169   6.045 -0.0007  2.7720  0.0535
 8679SOL    HW226937   6.555   2.087   5.987 -2.1722  0.7184 -2.0526
 8680SOL     OW26938   6.901   3.541   5.599 -0.0410  0.5208 -0.1248
 8680SOL    HW126939   6.803   3.520   5.592  0.2434 -1.1239  0.2435
 8680SOL    HW226940   6.933   3.578   5.513 -0.6015 -0.8475 -0.9629
 8681SOL     OW26941   5.230   3.871   0.876 -0.9456  0.1372 -0.5681
 8681SOL    HW126942   5.278   3.901   0.958  0.2278 -0.9876 -0.8058
 8681SOL    HW226943   5.259   3.927   0.798 -0.0124 -0.5187 -0.7044
 8682SOL     OW26944   2.137   7.011   2.213  0.1736  0.1637  0.6683
 8682SOL    HW126945   2.038   7.013   2.202  0.0170 -1.4285  1.5370
 8682SOL    HW226946   2.165   6.925   2.254  1.9729  0.4252  0.1072
 8683SOL     OW26947   1.133   5.160   0.460 -0.3116  0.0258  0.1156
 8683SOL    HW126948   1.118   5.213   0.376  1.4043  0.4473  0.0302
 8683SOL    HW226949   1.176   5.219   0.529  0.3709 -0.8952  0.5038
 8684SOL     OW26950   6.828   2.367   4.260  0.3355 -0.3232 -0.3665
 8684SOL    HW126951   6.867   2.308   4.331  0.4042 -1.0192 -0.9668
 8684SOL    HW226952   6.745   2.325   4.224 -1.2000  1.2983  1.1164
 8685SOL     OW26953   1.217   3.242   4.039  0.2332 -0.3570  0.7446
 8685SOL    HW126954   1.232   3.227   4.137 -0.3712 -1.5663  0.6584
 8685SOL    HW226955   1.244   3.161   3.988 -1.2644 -0.4784  0.0890
 8686SOL     OW26956   6.356   0.660   4.498  0.8258  0.2552  0.0548
 8686SOL    HW126957   6.267   0.620   4.477 -0.4539  3.8989 -2.5249
 8686SOL    HW226958   6.423   0.630   4.430 -0.1916  2.3999 -2.0357
 8687SOL     OW26959   2.820   0.776   2.784  0.3016  0.7408  0.4469
 8687SOL    HW126960   2.837   0.678   2.773 -1.4302  0.5968 -1.2552
 8687SOL    HW226961   2.754   0.790   2.858 -0.2351  0.5423  0.0083
 8688SOL     OW26962   6.132   6.754   6.889  0.0644 -0.0903 -0.2748
 8688SOL    HW126963   6.187   6.770   6.807 -0.3790 -0.0222 -0.5666
 8688SOL    HW226964   6.191   6.740   6.967  0.5288 -1.6540 -0.8775
 8689SOL     OW26965   4.035   0.536   0.879 -0.7002 -0.2119 -0.1498
 8689SOL    HW126966   4.089   0.452   0.872  1.2269  0.8942  0.7066
 8689SOL    HW226967   3.955   0.528   0.820  0.0117 -2.2072 -0.9578
 8690SOL     OW26968   1.029   0.225   6.138  0.4444 -0.1936 -0.2320
 8690SOL    HW126969   0.998   0.134   6.164 -1.7209  0.4566 -0.3535
 8690SOL    HW226970   1.002   0.244   6.043 -0.9204  1.2759  0.4015
 8691SOL     OW26971   6.400   0.288   7.018 -0.0587  0.3078 -0.2208
 8691SOL    HW126972   6.326   0.250   7.073 -1.4639  2.7313 -0.2747
 8691SOL    HW226973   6.424   0.379   7.053  0.0257  1.3047 -2.6522
 8692SOL     OW26974   1.036   5.919   3.774  0.2900 -0.5257  0.5627
 8692SOL    HW126975   1.038   5.819   3.766 -1.1658 -0.4829 -0.9100
 8692SOL    HW226976   1.099   5.959   3.708  0.8806 -0.4497  1.1599
 8693SOL     OW26977   4.982   2.404   1.387 -0.2950  0.4560 -0.0342
 8693SOL    HW126978   5.036   2.321   1.379 -1.8651 -0.6545  0.3460
 8693SOL    HW226979   4.931   2.402   1.473  0.9264  2.6458  0.8251
 8694SOL     OW26980   2.869   0.376   5.285 -0.1652 -0.2902  0.3843
 8694SOL    HW126981   2.863   0.317   5.365 -0.7271  0.2272  0.7287
 8694SOL    HW226982   2.909   0.325   5.209 -0.9096 -1.2077  0.5887
 8695SOL     OW26983   3.907   4.501   6.091 -0.0402 -0.0688 -0.1918
 8695SOL    HW126984   3.859   4.581   6.056  1.1335 -0.5717 -3.2073
 8695SOL    HW226985   3.993   4.490   6.042  1.5361 -1.2043  2.6252
 8696SOL     OW26986   1.876   4.498   0.612  0.0487 -0.3345  0.1369
 8696SOL    HW126987   1.918   4.462   0.529 -2.0781 -2.3203 -0.1774
 8696SOL    HW226988   1.890   4.433   0.687 -2.3545 -1.1259 -0.0007
 8697SOL     OW26989   6.069   2.181   6.885  0.5712  0.0819 -0.1935
 8697SOL    HW126990   6.095   2.089   6.913  1.0319  0.2336 -0.1293
 8697SOL    HW226991   6.123   2.208   6.805 -0.2752 -0.0963 -0.8459
 8698SOL     OW26992   5.266   5.948   5.519  0.9980  0.1907  1.0736
 8698SOL    HW126993   5.212   5.934   5.436  1.6359  0.8843  0.5368
 8698SOL    HW226994   5.217   5.908   5.597 -0.0170  0.3029  0.5111
 8699SOL     OW26995   3.198   1.122   3.711  1.1874 -0.4553 -0.3360
 8699SOL    HW126996   3.147   1.205   3.687 -0.2997 -0.8315  1.3300
 8699SOL    HW226997   3.154   1.043   3.668  2.1789 -0.4969 -1.3295
 8700SOL     OW26998   2.701   6.680   6.433  0.4380 -0.2620  0.0403
 8700SOL    HW126999   2.751   6.608   6.384 -1.0898 -0.0510 -1.9487
 8700SOL    HW227000   2.720   6.769   6.390 -2.7262 -0.3449 -1.8731
 8701SOL     OW27001   1.908   0.389   3.213  0.0569 -0.1075  0.1720
 8701SOL    HW127002   1.880   0.325   3.141 -0.4313  0.1926  0.0883
 8701SOL    HW227003   1.827   0.431   3.253  0.3085 -0.5346  1.1486
 8702SOL     OW27004   3.824   6.010   6.737  0.5380 -0.3574  0.1967
 8702SOL    HW127005   3.740   6.058   6.764  0.7310 -0.2388  0.5876
 8702SOL    HW227006   3.811   5.970   6.646 -0.1839 -0.9044  0.5291
 8703SOL     OW27007   0.081   1.451   0.325 -0.3932 -0.3958  0.3402
 8703SOL    HW127008   0.140   1.408   0.393 -2.6732  0.0716  2.8035
 8703SOL    HW227009   0.120   1.539   0.297  0.3593 -0.3387  1.5086
 8704SOL     OW27010   1.156   4.643   0.729 -0.8043 -0.1182  0.9898
 8704SOL    HW127011   1.193   4.552   0.711 -0.1628  0.4480 -0.8305
 8704SOL    HW227012   1.069   4.653   0.680 -0.6423  0.3897  0.7978
 8705SOL     OW27013   4.214   1.370   6.545 -0.4905 -0.5512  0.2245
 8705SOL    HW127014   4.279   1.446   6.543 -1.6049  0.5012  1.4122
 8705SOL    HW227015   4.256   1.288   6.507  1.0964  0.3972 -0.1426
 8706SOL     OW27016   6.625   2.612   1.334 -0.1753  0.4847 -0.6000
 8706SOL    HW127017   6.697   2.546   1.358 -0.6283  0.2769  0.2531
 8706SOL    HW227018   6.626   2.688   1.399  0.3361  1.3321 -1.5713
 8707SOL     OW27019   3.715   1.694   5.375 -0.1490  0.0470 -0.0782
 8707SOL    HW127020   3.747   1.649   5.459 -0.0559 -1.1180 -0.7138
 8707SOL    HW227021   3.793   1.735   5.328 -0.2008  0.7026  0.3936
 8708SOL     OW27022   1.934   1.464   2.224  0.0587 -0.1968 -0.3842
 8708SOL    HW127023   1.845   1.504   2.245  0.3588  0.8323 -0.9627
 8708SOL    HW227024   1.942   1.450   2.126  0.7562  0.2933 -0.4042
 8709SOL     OW27025   2.983   2.783   6.691 -0.1274  0.7623 -0.2181
 8709SOL    HW127026   2.891   2.814   6.717  0.3681  1.2435  1.0339
 8709SOL    HW227027   3.052   2.841   6.734  0.8510 -1.8794  2.0763
 8710SOL     OW27028   0.090   3.544   5.114 -0.2331  0.2905 -0.2362
 8710SOL    HW127029   0.187   3.563   5.103 -0.4744  1.3256 -0.7408
 8710SOL    HW227030   0.069   3.452   5.081  0.2694  0.7544 -1.9469
 8711SOL     OW27031   1.928   1.475   3.164  0.4065 -0.0762  0.5320
 8711SOL    HW127032   1.895   1.473   3.258  1.8067 -0.2901  1.0402
 8711SOL    HW227033   1.858   1.515   3.104 -0.9870 -1.0623  1.4546
 8712SOL     OW27034   3.278   6.549   5.334 -0.3109 -0.1743 -0.0149
 8712SOL    HW127035   3.319   6.637   5.312 -1.4272  0.6285  0.9572
 8712SOL    HW227036   3.205   6.529   5.269  0.7177 -0.9814 -0.9588
 8713SOL     OW27037   4.748   4.602   3.383  0.5471  0.5223 -0.3955
 8713SOL    HW127038   4.797   4.688   3.365 -1.2477  1.6107 -0.3511
 8713SOL    HW227039   4.651   4.621   3.395  0.2712 -1.3889  0.8928
 8714SOL     OW27040   1.753   6.538   4.481 -0.6056 -0.0562  0.3137
 8714SOL    HW127041   1.847   6.506   4.464 -0.7052 -0.3601  0.3371
 8714SOL    HW227042   1.710   6.562   4.395 -0.2370  0.8515  0.3652
 8715SOL     OW27043   3.424   2.032   2.046  0.5334 -0.2307  0.3305
 8715SOL    HW127044   3.346   2.090   2.071  1.5338  1.5595 -0.4749
 8715SOL    HW227045   3.391   1.942   2.018 -1.1151  0.0271  1.2885
 8716SOL     OW27046   3.049   0.693   3.349  0.6760  0.7130 -0.4353
 8716SOL    HW127047   3.117   0.620   3.355 -0.0346 -0.0303 -1.1719
 8716SOL    HW227048   3.021   0.705   3.253 -0.8730  0.3729 -0.0644
 8717SOL     OW27049   4.471   3.903   1.258 -0.4251 -0.3997 -0.0672
 8717SOL    HW127050   4.410   3.968   1.213  0.3418  0.1774 -0.3025
 8717SOL    HW227051   4.513   3.845   1.189  0.0210 -0.1509 -0.0103
 8718SOL     OW27052   5.061   0.747   6.884  0.1514  0.5104 -0.5353
 8718SOL    HW127053   5.066   0.792   6.973  1.4441 -1.2517  0.3201
 8718SOL    HW227054   5.144   0.766   6.832  0.0487  0.3006 -0.7786
 8719SOL     OW27055   6.548   0.599   4.255  0.4443 -0.0269  0.0124
 8719SOL    HW127056   6.495   0.593   4.170  0.3979 -0.7167  0.0817
 8719SOL    HW227057   6.617   0.527   4.256 -1.1982 -1.7094  1.6507
 8720SOL     OW27058   5.006   3.481   6.690  0.0630  0.4221 -0.0003
 8720SOL    HW127059   4.916   3.473   6.732  0.2125 -2.1190  0.0190
 8720SOL    HW227060   5.074   3.504   6.760 -0.1402 -0.7627  0.6111
 8721SOL     OW27061   0.902   6.354   4.771  0.3717 -0.0880 -0.3509
 8721SOL    HW127062   0.891   6.334   4.868 -1.1049  0.7550 -0.3032
 8721SOL    HW227063   0.979   6.302   4.734  0.4791 -1.0056  1.0855
 8722SOL     OW27064   3.356   1.149   6.119  0.6394 -0.2304 -0.3156
 8722SOL    HW127065   3.312   1.228   6.076  0.1208  0.9297  2.1710
 8722SOL    HW227066   3.295   1.070   6.116 -0.5858  0.6462  0.8180
 8723SOL     OW27067   1.836   6.125   0.773  0.3662 -0.5705  0.5843
 8723SOL    HW127068   1.795   6.138   0.683  1.9096  0.4361 -0.0213
 8723SOL    HW227069   1.875   6.212   0.804  0.0820 -0.9669  2.1273
 8724SOL     OW27070   5.448   4.868   5.537  0.3499 -0.3195  0.1490
 8724SOL    HW127071   5.410   4.887   5.628  1.1612 -0.0738  0.4448
 8724SOL    HW227072   5.515   4.795   5.544  0.5325 -0.1876 -0.2297
 8725SOL     OW27073   1.210   5.485   2.507 -0.5592 -0.4200  0.2017
 8725SOL    HW127074   1.180   5.471   2.601  1.3084 -0.4542  0.8231
 8725SOL    HW227075   1.212   5.583   2.486 -0.2789 -0.3756  0.4395
 8726SOL     OW27076   0.954   0.005   0.142  0.0892  0.4269 -0.2588
 8726SOL    HW127077   1.042   0.053   0.144  0.5261 -0.3535 -0.2279
 8726SOL    HW227078   0.970  -0.094   0.138 -0.7769  0.1995  1.2382
 8727SOL     OW27079   5.551   6.821   0.006 -0.2024 -0.2454  0.2479
 8727SOL    HW127080   5.601   6.899  -0.033 -1.3597  1.1837  1.4764
 8727SOL    HW227081   5.569   6.739  -0.048  2.1114  0.5631 -0.3356
 8728SOL     OW27082   2.452   5.195   5.142 -0.3600  0.3719 -0.0728
 8728SOL    HW127083   2.514   5.188   5.221  1.3093 -1.5429 -1.4531
 8728SOL    HW227084   2.359   5.211   5.175  0.2552 -0.4358  2.3062
 8729SOL     OW27085   0.038   5.556   3.809  0.4362  0.2492 -0.5626
 8729SOL    HW127086   0.104   5.591   3.875  1.5914  0.2081 -1.6584
 8729SOL    HW227087   0.034   5.616   3.730  1.2285 -1.1814 -1.7330
 8730SOL     OW27088   6.228   0.630   0.083 -0.2634  0.6221 -0.2655
 8730SOL    HW127089   6.249   0.687   0.003  0.9377 -1.7009 -1.7283
 8730SOL    HW227090   6.135   0.595   0.075 -0.4724  1.1448 -0.1491
 8731SOL     OW27091   1.384   1.567   3.461 -1.0785  0.4986 -0.0752
 8731SOL    HW127092   1.320   1.575   3.384 -0.2255  0.2666 -0.8298
 8731SOL    HW227093   1.456   1.636   3.451 -0.5239 -0.0508  0.0774
 8732SOL     OW27094   0.080   5.746   2.086  0.0129  0.2621  0.1379
 8732SOL    HW127095   0.117   5.810   2.153  2.1011  2.0857 -2.5757
 8732SOL    HW227096   0.024   5.796   2.020  1.4857 -0.6699 -1.9102
 8733SOL     OW27097   1.181   2.218   0.006  0.0904  0.0729  0.2434
 8733SOL    HW127098   1.180   2.283   0.082 -1.1355 -0.0219  0.3331
 8733SOL    HW227099   1.213   2.264  -0.077 -0.4534  0.7066  0.3821
 8734SOL     OW27100   4.765   0.195   1.070  0.6448  0.2851 -0.3998
 8734SOL    HW127101   4.803   0.287   1.078  3.5623 -0.5854 -2.5578
 8734SOL    HW227102   4.692   0.195   1.003  0.2765  1.0867 -0.0170
 8735SOL     OW27103   1.205   3.264   6.349 -0.1795 -0.1839 -0.2086
 8735SOL    HW127104   1.289   3.222   6.383  0.2423  1.5563  1.0429
 8735SOL    HW227105   1.211   3.275   6.249  0.8796 -0.4702 -0.1850
 8736SOL     OW27106   0.470   4.443   4.160 -0.4717  0.0425  0.3947
 8736SOL    HW127107   0.489   4.499   4.079  0.3101  1.7882  1.7117
 8736SOL    HW227108   0.555   4.402   4.192 -0.8217 -0.8496  0.2116
 8737SOL     OW27109   4.255   5.320   6.321 -0.1384  0.6253 -0.0227
 8737SOL    HW127110   4.302   5.251   6.377 -2.6318 -0.4274  0.9276
 8737SOL    HW227111   4.230   5.279   6.233 -1.2839  0.4160  0.3910
 8738SOL     OW27112   1.469   3.092   4.127  0.4370  0.1362 -0.0725
 8738SOL    HW127113   1.474   3.090   4.227 -1.5392 -0.5260  0.0716
 8738SOL    HW227114   1.560   3.080   4.088  1.2145  0.2145  1.6373
 8739SOL     OW27115   0.921   2.855   5.587 -0.0251 -0.5594 -0.0622
 8739SOL    HW127116   1.001   2.800   5.563 -0.3263 -0.7459 -0.6544
 8739SOL    HW227117   0.924   2.877   5.685  1.1268  0.0340 -0.2020
 8740SOL     OW27118   2.621   0.096   1.079 -0.0289  0.1354  0.4400
 8740SOL    HW127119   2.602   0.113   1.176 -0.9855  0.4710  0.2110
 8740SOL    HW227120   2.542   0.051   1.037  0.3275  0.1039 -0.2123
 8741SOL     OW27121   2.360   1.685   3.494 -0.1302  0.0796 -0.2849
 8741SOL    HW127122   2.316   1.690   3.584  0.9994 -2.4946  0.5184
 8741SOL    HW227123   2.410   1.770   3.477 -0.1215  0.5262  1.6597
 8742SOL     OW27124   5.188   5.022   0.121  0.6184 -0.1325 -0.0119
 8742SOL    HW127125   5.195   4.941   0.179  0.4313  0.6115  1.0628
 8742SOL    HW227126   5.279   5.055   0.098  0.7098  0.9041  1.7592
 8743SOL     OW27127   2.705   5.350   3.265 -0.3582 -0.2447 -0.2194
 8743SOL    HW127128   2.639   5.315   3.331 -1.2764  1.8470  0.0443
 8743SOL    HW227129   2.760   5.422   3.308 -0.2878  0.4558 -1.4488
 8744SOL     OW27130   3.688   4.172   4.790 -0.3351 -0.5378  0.0579
 8744SOL    HW127131   3.651   4.119   4.714 -0.1789 -0.1844 -0.2670
 8744SOL    HW227132   3.687   4.269   4.767  2.0086 -0.5857 -0.5202
 8745SOL     OW27133   0.371   0.058   4.232 -0.0153 -0.2159 -0.1689
 8745SOL    HW127134   0.402  -0.031   4.265  1.3654  0.5228  0.6211
 8745SOL    HW227135   0.399   0.070   4.137  0.9881 -0.0856  0.1402
 8746SOL     OW27136   6.059   4.359   3.998 -0.3138 -0.1879  0.2076
 8746SOL    HW127137   6.148   4.327   3.965  0.1076  1.2570 -0.1096
 8746SOL    HW227138   6.004   4.391   3.921  0.0295  1.6230  0.6588
 8747SOL     OW27139   1.278   2.379   2.766  0.5960  0.7151 -0.1692
 8747SOL    HW127140   1.225   2.418   2.690  0.6286  2.0487  0.4559
 8747SOL    HW227141   1.263   2.281   2.770  0.5270  0.6140 -1.8534
 8748SOL     OW27142   3.624   1.363   0.172 -0.6075 -0.0451  0.5117
 8748SOL    HW127143   3.604   1.438   0.109  1.3294  0.4618  0.4395
 8748SOL    HW227144   3.564   1.285   0.152 -1.4582  0.8589 -0.5513
 8749SOL     OW27145   2.903   2.199   3.206  0.3478 -0.2423  0.0409
 8749SOL    HW127146   2.924   2.235   3.115 -0.4333  0.5243  0.1582
 8749SOL    HW227147   2.852   2.267   3.258  1.1022 -0.5261  1.1908
 8750SOL     OW27148   3.061   6.589   5.175 -0.0967  0.5766  0.4142
 8750SOL    HW127149   2.985   6.528   5.197 -0.7984  1.0158 -0.7335
 8750SOL    HW227150   3.036   6.683   5.196  0.3912  0.6566  0.6631
 8751SOL     OW27151   2.308   6.338   5.082 -0.0900  0.5046  0.1498
 8751SOL    HW127152   2.301   6.359   5.180  0.6085 -2.0059  0.8065
 8751SOL    HW227153   2.328   6.421   5.032 -1.6148  2.0814  1.9887
 8752SOL     OW27154   2.478   6.512   6.366 -0.2510 -0.6619 -0.5793
 8752SOL    HW127155   2.433   6.527   6.278  1.0886 -1.9609 -1.5464
 8752SOL    HW227156   2.539   6.589   6.386 -0.4986 -0.4006 -0.8275
 8753SOL     OW27157   4.887   3.039   5.049  0.5710  0.0696  0.1132
 8753SOL    HW127158   4.906   3.115   4.988 -0.2532  0.8425  0.7879
 8753SOL    HW227159   4.826   2.974   5.004  1.0680 -0.0617 -0.3747
 8754SOL     OW27160   1.638   0.599   5.058  0.4512 -0.1665  0.4343
 8754SOL    HW127161   1.640   0.654   4.974 -0.5458  0.6361  0.9132
 8754SOL    HW227162   1.728   0.605   5.103  0.7281  0.0938 -0.1427
 8755SOL     OW27163   1.582   2.323   0.505  0.0675 -0.0762 -0.2655
 8755SOL    HW127164   1.604   2.229   0.533  3.5878  1.2028  2.0426
 8755SOL    HW227165   1.584   2.329   0.405  0.9010 -2.2413 -0.4472
 8756SOL     OW27166   3.614   5.045   4.615 -0.1928 -0.1019  0.2381
 8756SOL    HW127167   3.685   4.979   4.639  1.8832  0.0947 -4.2944
 8756SOL    HW227168   3.541   4.999   4.564  0.7487  0.7446 -2.0287
 8757SOL     OW27169   2.585   0.609   4.068  0.4410  0.5523 -0.3137
 8757SOL    HW127170   2.598   0.708   4.064  1.8068  0.3696 -1.0132
 8757SOL    HW227171   2.659   0.568   4.121  0.9185 -0.2542 -1.5511
 8758SOL     OW27172   5.126   1.610   1.488  0.4475  0.2720  0.1934
 8758SOL    HW127173   5.158   1.664   1.565 -0.7191 -0.9200  1.5616
 8758SOL    HW227174   5.029   1.628   1.471  0.3199 -0.5435 -0.0263
 8759SOL     OW27175   6.393   6.256   5.454 -0.8345 -0.5911 -0.2980
 8759SOL    HW127176   6.342   6.330   5.410  0.8377  1.3595  0.8635
 8759SOL    HW227177   6.434   6.198   5.384 -0.1807  1.0378 -1.3474
 8760SOL     OW27178   0.890   1.622   3.910  0.2538 -0.2098  0.1125
 8760SOL    HW127179   0.895   1.713   3.952 -0.2000 -0.0212 -0.2316
 8760SOL    HW227180   0.977   1.574   3.925  0.6597  0.4454 -0.0661
 8761SOL     OW27181   5.802   6.601   1.001  0.4638  0.0121  0.0407
 8761SOL    HW127182   5.857   6.603   1.085 -0.2248 -0.2523  0.5032
 8761SOL    HW227183   5.706   6.614   1.023  0.1689 -0.9579 -0.6145
 8762SOL     OW27184   2.776   4.887   2.921 -0.2609 -0.2053  0.4616
 8762SOL    HW127185   2.740   4.836   2.843 -1.6506 -0.2795  1.1211
 8762SOL    HW227186   2.707   4.950   2.954  0.7106  0.6310  0.9515
 8763SOL     OW27187   0.899   0.759   1.170 -0.3520  0.1644  0.7433
 8763SOL    HW127188   0.816   0.743   1.224 -0.2739 -0.5510  0.6648
 8763SOL    HW227189   0.936   0.849   1.192 -0.0143 -0.3213  2.2907
 8764SOL     OW27190   2.882   0.745   5.714 -0.1130 -0.2658  0.1085
 8764SOL    HW127191   2.976   0.731   5.683 -0.0776 -0.7359  0.4223
 8764SOL    HW227192   2.861   0.843   5.714 -0.3015 -0.2589 -1.9677
 8765SOL     OW27193   4.209   6.918   3.671 -0.2508 -0.2450  0.3024
 8765SOL    HW127194   4.253   7.007   3.656  1.5061 -0.7351  2.1512
 8765SOL    HW227195   4.265   6.863   3.733 -1.4316 -2.5630 -0.5618
 8766SOL     OW27196   2.091   2.304   1.220  0.6842  0.5091 -0.1801
 8766SOL    HW127197   2.134   2.223   1.260  0.9739  1.5700  1.8231
 8766SOL    HW227198   1.992   2.291   1.215  0.6821  0.1872  0.5583
 8767SOL     OW27199   3.311   0.614   6.654  0.0301 -0.1731 -0.0396
 8767SOL    HW127200   3.222   0.599   6.613  0.6990  0.1852 -1.6791
 8767SOL    HW227201   3.300   0.630   6.752 -1.6685 -0.3259 -0.1794
 8768SOL     OW27202   1.135   2.636   0.863  0.3942  0.0893  0.6614
 8768SOL    HW127203   1.195   2.634   0.782  1.6971  2.7396  1.4350
 8768SOL    HW227204   1.190   2.620   0.945 -0.2145  1.1627  1.2919
 8769SOL     OW27205   2.499   0.803   6.488 -0.3113 -0.3022 -0.3006
 8769SOL    HW127206   2.413   0.837   6.449  0.4198  0.1269 -1.5974
 8769SOL    HW227207   2.525   0.860   6.566  0.3480  1.5488 -1.7992
 8770SOL     OW27208   6.742   2.417   5.596  0.2701  0.1432 -0.1502
 8770SOL    HW127209   6.713   2.394   5.688  0.1902 -0.7816 -0.3956
 8770SOL    HW227210   6.671   2.473   5.552  0.0587  0.1203  0.1587
 8771SOL     OW27211   3.279   2.972   3.514 -0.3687 -0.5110  0.1842
 8771SOL    HW127212   3.251   2.912   3.590 -0.3547  0.1357  0.7031
 8771SOL    HW227213   3.225   3.056   3.516 -1.6977 -1.2558 -1.6411
 8772SOL     OW27214   0.943   0.745   0.698 -0.4156  0.0702 -0.1330
 8772SOL    HW127215   0.880   0.717   0.771  1.3547  0.7395  1.7520
 8772SOL    HW227216   1.006   0.670   0.678 -0.6907  0.0018 -0.7529
 8773SOL     OW27217   3.423   1.827   5.045  0.9325 -0.1004  0.5775
 8773SOL    HW127218   3.378   1.816   4.956 -0.9894 -1.4863  1.6522
 8773SOL    HW227219   3.508   1.880   5.033  1.2242 -1.0235 -2.1993
 8774SOL     OW27220   1.243   0.044   1.413 -0.1764 -0.0396  0.0495
 8774SOL    HW127221   1.285   0.131   1.389 -0.6667 -0.2522 -1.7597
 8774SOL    HW227222   1.258  -0.022   1.339 -0.9892 -1.0747  0.7674
 8775SOL     OW27223   6.425   5.995   4.137  0.3396  0.5191 -0.0812
 8775SOL    HW127224   6.521   5.968   4.149  0.1504 -1.0621 -1.6384
 8775SOL    HW227225   6.418   6.065   4.066  0.1256 -1.9761 -2.6865
 8776SOL     OW27226   2.204   4.168   5.226  0.1351 -0.0279  0.2291
 8776SOL    HW127227   2.225   4.133   5.135  0.1146  1.3495 -0.3373
 8776SOL    HW227228   2.276   4.141   5.290  0.0698 -1.1406 -0.1530
 8777SOL     OW27229   0.011   5.874   3.709  0.4372  0.0708  0.9233
 8777SOL    HW127230   0.036   5.874   3.806  1.0310  1.4889  0.7996
 8777SOL    HW227231   0.090   5.848   3.654 -0.0795 -1.3804  0.8357
 8778SOL     OW27232   2.274   1.307   4.538 -0.0374 -0.5952 -0.0539
 8778SOL    HW127233   2.298   1.403   4.525 -0.6943 -0.4954 -0.5736
 8778SOL    HW227234   2.358   1.253   4.545  0.3520 -0.1402 -0.9874
 8779SOL     OW27235   2.779   4.300   6.666 -0.3613 -0.5775 -0.4367
 8779SOL    HW127236   2.710   4.363   6.702 -0.0910  0.2268 -1.2625
 8779SOL    HW227237   2.866   4.349   6.656 -0.2926 -0.9122 -1.6417
 8780SOL     OW27238   1.943   0.392   6.448 -0.3575 -0.0868 -0.3479
 8780SOL    HW127239   1.926   0.341   6.363  0.1912 -3.6420  1.5161
 8780SOL    HW227240   2.041   0.403   6.461 -0.4167 -0.1927  0.1928
 8781SOL     OW27241   1.405   3.143   1.702  0.3774 -0.0282 -0.3807
 8781SOL    HW127242   1.364   3.184   1.782  0.1101 -1.2133  0.1113
 8781SOL    HW227243   1.504   3.157   1.704  0.4862 -0.8326  0.6464
 8782SOL     OW27244   5.597   2.275   3.036  0.2107 -0.4355  0.1275
 8782SOL    HW127245   5.593   2.218   2.953  0.1796 -0.4882  0.1649
 8782SOL    HW227246   5.648   2.226   3.107  1.7157  0.3065 -0.3979
 8783SOL     OW27247   5.496   1.680   5.493 -0.1107 -0.7641 -0.1939
 8783SOL    HW127248   5.581   1.678   5.547 -0.0435  0.2689 -0.2517
 8783SOL    HW227249   5.513   1.726   5.406 -1.0515  0.7064  0.3675
 8784SOL     OW27250   4.808   1.616   0.806 -0.2313 -0.2631  0.0533
 8784SOL    HW127251   4.874   1.641   0.877  1.0759 -0.3685 -1.0986
 8784SOL    HW227252   4.767   1.699   0.769  1.6257  0.0561 -1.4227
 8785SOL     OW27253   4.456   2.652   5.208  0.2824  0.2127 -0.1904
 8785SOL    HW127254   4.514   2.694   5.278  0.2147 -2.5770  1.7258
 8785SOL    HW227255   4.367   2.697   5.206  1.0947  1.8727 -0.2155
 8786SOL     OW27256   5.203   6.400   1.079  0.1126 -0.7831  0.3899
 8786SOL    HW127257   5.123   6.355   1.040 -0.7221  1.2694 -0.3545
 8786SOL    HW227258   5.280   6.336   1.079 -0.8825 -2.0487 -1.0770
 8787SOL     OW27259   6.288   2.672   6.204 -0.2885 -0.1327  0.1027
 8787SOL    HW127260   6.374   2.714   6.233 -0.0283 -0.5141 -0.1032
 8787SOL    HW227261   6.225   2.744   6.173  0.4939  0.0555 -1.1577
 8788SOL     OW27262   2.677   2.019   4.964  0.2981 -0.1542  0.8232
 8788SOL    HW127263   2.657   1.922   4.951  0.3560 -0.2408  1.3679
 8788SOL    HW227264   2.762   2.042   4.916 -1.1658  0.2835 -1.7555
 8789SOL     OW27265   0.490   4.513   0.779  0.0656 -0.0676  0.2586
 8789SOL    HW127266   0.428   4.584   0.812 -1.1270 -0.8623 -0.1954
 8789SOL    HW227267   0.582   4.551   0.769 -0.4859  1.3360  0.2526
 8790SOL     OW27268   3.962   2.087   6.660  0.7700  0.0962  0.3797
 8790SOL    HW127269   3.880   2.044   6.624  2.8468 -0.5926 -4.1843
 8790SOL    HW227270   4.015   2.020   6.711 -0.5631  0.0706  1.7975
 8791SOL     OW27271   4.503   5.251   5.942 -0.4526 -0.4491  0.3718
 8791SOL    HW127272   4.414   5.233   5.900 -0.2358  0.3177 -0.4520
 8791SOL    HW227273   4.556   5.166   5.947 -0.3951 -0.5246 -1.1366
 8792SOL     OW27274   4.435   2.358   2.337 -0.0319  0.4080 -0.2541
 8792SOL    HW127275   4.469   2.448   2.364 -0.9754  0.6702  0.1091
 8792SOL    HW227276   4.397   2.311   2.416  0.3415 -0.2702 -0.4665
 8793SOL     OW27277   1.666   6.307   3.192  0.2805  0.0893 -0.1633
 8793SOL    HW127278   1.703   6.230   3.140  0.3526 -0.5462  0.7967
 8793SOL    HW227279   1.733   6.336   3.260  0.5929  1.5760 -1.0652
 8794SOL     OW27280   2.240   0.244   4.327 -0.0454 -0.0615  0.1284
 8794SOL    HW127281   2.309   0.209   4.390 -0.2501  0.5208  0.6981
 8794SOL    HW227282   2.156   0.191   4.337  0.0962 -0.3242 -0.0604
 8795SOL     OW27283   4.141   6.809   3.145  0.1856 -0.3753 -0.4254
 8795SOL    HW127284   4.237   6.780   3.147  0.4153  0.3190  1.8744
 8795SOL    HW227285   4.105   6.808   3.238 -1.3720  1.5707 -0.9498
 8796SOL     OW27286   3.609   2.043   5.427 -0.3005  0.0554  0.1897
 8796SOL    HW127287   3.547   1.993   5.487 -0.3583  0.2594  0.3029
 8796SOL    HW227288   3.703   2.029   5.455 -0.3325  0.2295  0.3928
 8797SOL     OW27289   6.140   5.532   0.250  0.3213  0.9625 -0.1701
 8797SOL    HW127290   6.049   5.572   0.251 -1.1214 -2.0087 -1.0942
 8797SOL    HW227291   6.166   5.506   0.343 -0.0417  1.2975  0.0255
 8798SOL     OW27292   3.738   1.801   5.869  0.1732 -0.2083 -0.9030
 8798SOL    HW127293   3.661   1.858   5.898 -0.2239 -1.1592  0.0151
 8798SOL    HW227294   3.822   1.835   5.909 -0.1727 -0.6784  0.2892
 8799SOL     OW27295   4.546   0.212   0.882 -0.2188 -0.0019  0.3683
 8799SOL    HW127296   4.461   0.161   0.896  0.3768 -0.5624  2.3640
 8799SOL    HW227297   4.525   0.303   0.847 -1.4088 -1.0479 -1.8185
 8800SOL     OW27298   3.310   1.354   1.408  0.7301 -0.1451 -0.0505
 8800SOL    HW127299   3.363   1.328   1.488  0.6786  0.0176  0.0371
 8800SOL    HW227300   3.291   1.453   1.411 -0.7036 -0.4212  0.5806
 8801SOL     OW27301   1.260   5.671   5.631  0.3648 -0.1690  0.1510
 8801SOL    HW127302   1.291   5.578   5.610  0.6709 -0.1840  0.6567
 8801SOL    HW227303   1.332   5.720   5.680 -0.1746 -0.0024  0.7898
 8802SOL     OW27304   2.095   6.503   1.427 -0.4263 -0.2770 -0.1854
 8802SOL    HW127305   2.116   6.593   1.465 -1.8712 -0.3274  0.8349
 8802SOL    HW227306   2.021   6.461   1.480  1.0534 -2.6328  0.1554
 8803SOL     OW27307   5.399   6.140   0.763  0.5903  0.3703 -0.5813
 8803SOL    HW127308   5.470   6.122   0.694  0.9366  0.7405 -0.3192
 8803SOL    HW227309   5.342   6.217   0.733  1.0621  0.8670 -0.2117
 8804SOL     OW27310   3.204   0.944   3.133  0.3630 -0.2153  0.7941
 8804SOL    HW127311   3.241   0.854   3.110 -0.4877 -0.1473 -0.9816
 8804SOL    HW227312   3.106   0.945   3.116  0.4722  1.2595  0.1118
 8805SOL     OW27313   6.908   6.912   3.458  0.0223  0.4358  0.0002
 8805SOL    HW127314   6.964   6.958   3.527  1.8226  1.0198 -1.7425
 8805SOL    HW227315   6.890   6.975   3.383 -2.1438 -0.0885  0.0022
 8806SOL     OW27316   3.038   3.676   6.718 -0.0650 -0.2211 -0.1895
 8806SOL    HW127317   3.033   3.771   6.688 -1.3523  0.0853  0.9118
 8806SOL    HW227318   2.950   3.648   6.755  0.2110 -1.9430 -0.7289
 8807SOL     OW27319   0.592   4.902   6.250  0.1148  0.3218  0.4380
 8807SOL    HW127320   0.583   4.881   6.348 -0.6716 -4.3320 -0.3878
 8807SOL    HW227321   0.509   4.950   6.219 -0.9701 -0.7436  1.5540
 8808SOL     OW27322   6.391   0.844   5.494 -0.0024  0.0176 -0.1553
 8808SOL    HW127323   6.382   0.887   5.584  1.2557  1.3605 -0.6248
 8808SOL    HW227324   6.306   0.856   5.442 -0.2927  0.3400  0.3915
 8809SOL     OW27325   5.275   2.843   0.259  0.4346 -0.0425 -0.1502
 8809SOL    HW127326   5.213   2.901   0.311  0.6933  1.1235 -1.0914
 8809SOL    HW227327   5.368   2.854   0.294  0.1570 -1.8789  1.3382
 8810SOL     OW27328   5.580   2.793   4.763  0.0393 -0.1034 -0.7415
 8810SOL    HW127329   5.626   2.878   4.737 -1.0536  0.2689 -1.5001
 8810SOL    HW227330   5.501   2.813   4.821 -0.7090 -0.5258 -1.5983
 8811SOL     OW27331   1.380   0.702   2.330 -0.3135  0.3970 -0.3553
 8811SOL    HW127332   1.410   0.667   2.419 -1.3493  1.9581  0.6637
 8811SOL    HW227333   1.283   0.724   2.334  0.0684  2.4891 -1.1781
 8812SOL     OW27334   2.398   1.330   1.919 -0.1750 -0.0707 -0.2381
 8812SOL    HW127335   2.317   1.347   1.862  1.6929  0.8508 -2.7684
 8812SOL    HW227336   2.438   1.417   1.947  0.7303 -0.4835 -0.2125
 8813SOL     OW27337   0.937   4.790   7.006 -0.1250 -0.3088 -0.3655
 8813SOL    HW127338   0.876   4.823   7.078  1.0841  0.9741  0.1183
 8813SOL    HW227339   0.925   4.845   6.924  0.5627  0.1476 -0.1717
 8814SOL     OW27340   5.660   0.279   6.592  0.6510 -0.2623  0.7364
 8814SOL    HW127341   5.753   0.272   6.628  0.3852 -2.1441  1.1688
 8814SOL    HW227342   5.647   0.368   6.550  2.2305  0.5199  1.8196
 8815SOL     OW27343   5.831   5.909   2.076  0.0084 -0.1041  0.0910
 8815SOL    HW127344   5.920   5.881   2.038 -0.4698 -2.1698  0.3460
 8815SOL    HW227345   5.766   5.834   2.065 -1.6776  1.3094  0.0798
 8816SOL     OW27346   0.231   0.486   2.533 -0.3071 -0.5636  0.1969
 8816SOL    HW127347   0.309   0.480   2.596 -0.5757 -1.4643  0.4646
 8816SOL    HW227348   0.226   0.578   2.494 -0.4906  0.2230  1.9771
 8817SOL     OW27349   1.110   3.303   4.710 -0.3395 -0.5485  0.3278
 8817SOL    HW127350   1.019   3.271   4.737 -0.3642 -0.2454  0.6102
 8817SOL    HW227351   1.161   3.330   4.792 -1.2569  2.6590 -0.0192
 8818SOL     OW27352   0.706   4.221   3.937 -0.0699 -0.1840  0.2881
 8818SOL    HW127353   0.774   4.290   3.959  0.5605 -1.0080  0.9662
 8818SOL    HW227354   0.660   4.245   3.851  1.6068 -0.0165 -0.5855
 8819SOL     OW27355   2.742   1.466   6.048  0.2632 -0.1745 -0.2788
 8819SOL    HW127356   2.661   1.424   6.089 -0.4255  2.1131  0.8730
 8819SOL    HW227357   2.718   1.556   6.010  2.4952  1.3069  1.5186
 8820SOL     OW27358   2.518   0.827   2.810 -0.4012 -0.1706 -0.0413
 8820SOL    HW127359   2.581   0.804   2.884  2.2626  2.3792 -1.2948
 8820SOL    HW227360   2.463   0.907   2.837 -0.2202  0.0711 -0.3778
 8821SOL     OW27361   1.037   0.523   6.665  0.3960  0.2976 -0.1281
 8821SOL    HW127362   0.940   0.524   6.642  0.4929  0.7470 -0.5293
 8821SOL    HW227363   1.091   0.527   6.581  0.7613 -0.0761  0.0877
 8822SOL     OW27364   2.622   2.370   5.857  0.2189  0.0118 -0.7092
 8822SOL    HW127365   2.554   2.388   5.928  0.1204  0.5912 -0.9346
 8822SOL    HW227366   2.661   2.457   5.827  0.6541 -0.2748 -0.9761
 8823SOL     OW27367   2.760   5.661   0.268  0.0070  0.4500 -0.4402
 8823SOL    HW127368   2.800   5.650   0.177  0.3013  0.7957 -0.3568
 8823SOL    HW227369   2.661   5.657   0.262  0.0367  0.1380 -0.7286
 8824SOL     OW27370   5.729   5.932   2.558  0.1502 -0.2553 -0.8783
 8824SOL    HW127371   5.715   5.870   2.636 -0.3771 -0.3235 -1.0247
 8824SOL    HW227372   5.691   5.891   2.475  3.0138 -1.4105 -1.7604
 8825SOL     OW27373   1.434   0.829   0.119 -0.2505 -0.5522 -0.8466
 8825SOL    HW127374   1.362   0.831   0.049  1.1944  0.0012 -2.3733
 8825SOL    HW227375   1.520   0.857   0.079  0.5110  0.4775  1.3615
 8826SOL     OW27376   6.179   0.766   6.447 -0.0179 -0.5740  0.1816
 8826SOL    HW127377   6.108   0.750   6.378  0.0556 -1.8760  0.3830
 8826SOL    HW227378   6.176   0.862   6.477 -0.7020 -0.2444 -0.8912
 8827SOL     OW27379   2.222   0.883   3.932 -0.1057  0.0728 -0.0527
 8827SOL    HW127380   2.293   0.813   3.924  1.1777  1.1912  1.1663
 8827SOL    HW227381   2.200   0.898   4.028 -0.2817  1.4340 -0.2829
 8828SOL     OW27382   2.675   5.048   4.792  0.0953  0.1937  0.2455
 8828SOL    HW127383   2.740   4.979   4.823 -3.4359 -3.1156  1.0649
 8828SOL    HW227384   2.679   5.056   4.692  0.2679 -1.6595  0.0724
 8829SOL     OW27385   2.058   6.961   1.727  0.2547  0.3730  0.4692
 8829SOL    HW127386   2.084   6.879   1.676 -0.0620 -0.4053  1.5226
 8829SOL    HW227387   2.030   7.032   1.663 -0.2510 -0.6097 -0.4380
 8830SOL     OW27388   0.207   1.534   2.063  0.6198 -0.2356 -0.2350
 8830SOL    HW127389   0.200   1.633   2.076  3.5057 -0.2207  2.3552
 8830SOL    HW227390   0.260   1.515   1.980 -1.1490  0.2988 -1.5282
 8831SOL     OW27391   0.659   0.508   1.678 -0.2470 -0.3275  0.0345
 8831SOL    HW127392   0.597   0.510   1.757 -0.8805  1.0128 -0.4490
 8831SOL    HW227393   0.681   0.602   1.652  1.9550 -0.7813  0.1346
 8832SOL     OW27394   0.681   1.339   6.992 -0.5076 -0.5580 -0.2366
 8832SOL    HW127395   0.652   1.244   7.004  2.1480 -1.4591 -0.2545
 8832SOL    HW227396   0.741   1.365   7.068 -0.2096  0.7099 -0.8778
 8833SOL     OW27397   6.503   3.083   2.987 -0.1673 -0.2865 -0.0528
 8833SOL    HW127398   6.459   3.057   2.901 -1.4806 -1.9362  1.0474
 8833SOL    HW227399   6.503   3.183   2.996 -0.0023 -0.0862 -1.9357
 8834SOL     OW27400   5.355   4.898   4.727 -0.2781 -0.7011 -0.0168
 8834SOL    HW127401   5.338   4.867   4.821 -0.2742  1.2916  0.6893
 8834SOL    HW227402   5.450   4.879   4.703  0.2856  0.5022  1.1330
 8835SOL     OW27403   1.016   2.517   6.843 -0.2424  0.1451  0.2909
 8835SOL    HW127404   1.019   2.422   6.809  0.6550  0.0059  0.7398
 8835SOL    HW227405   1.024   2.580   6.766  3.3057 -0.1657  0.2197
 8836SOL     OW27406   5.145   3.671   1.650 -0.4038 -0.4092 -0.7037
 8836SOL    HW127407   5.160   3.586   1.700 -3.0443 -0.1134  0.7281
 8836SOL    HW227408   5.076   3.656   1.579  0.3696  0.1580 -1.5928
 8837SOL     OW27409   2.302   2.136   1.796 -0.3021 -0.3057  0.5359
 8837SOL    HW127410   2.363   2.191   1.854  0.5333  0.9057 -1.3854
 8837SOL    HW227411   2.355   2.093   1.723 -1.4465 -1.0843  0.1263
 8838SOL     OW27412   2.227   5.695   4.180 -0.0772  0.1129 -0.2733
 8838SOL    HW127413   2.152   5.759   4.194  0.0851  0.1583  0.3973
 8838SOL    HW227414   2.294   5.735   4.117 -0.8738 -0.1501 -1.3322
 8839SOL     OW27415   5.469   5.999   4.839  0.0702 -0.5666 -0.1059
 8839SOL    HW127416   5.471   6.089   4.882 -1.2534 -0.4144 -0.3136
 8839SOL    HW227417   5.418   5.935   4.897 -0.0779 -0.8494 -0.5373
 8840SOL     OW27418   4.626   6.665   3.084 -0.3879  0.0149 -0.1741
 8840SOL    HW127419   4.657   6.612   3.162 -0.6191 -3.6724 -2.3546
 8840SOL    HW227420   4.701   6.721   3.049  0.7599 -0.9953  0.6063
 8841SOL     OW27421   4.908   6.292   1.863 -0.4225 -0.0926  0.3552
 8841SOL    HW127422   4.821   6.341   1.872 -2.2473 -2.5406 -2.2138
 8841SOL    HW227423   4.919   6.228   1.939 -0.0093  1.3424  1.5447
 8842SOL     OW27424   0.990   2.881   1.845 -0.3963  0.0490  0.2013
 8842SOL    HW127425   0.961   2.813   1.913  0.3783  1.3077  1.8681
 8842SOL    HW227426   0.947   2.861   1.757  0.8924 -3.4449  0.1889
 8843SOL     OW27427   0.165   5.670   4.724 -0.4655 -0.3365 -0.0758
 8843SOL    HW127428   0.213   5.583   4.730  0.4412  0.1563  0.0592
 8843SOL    HW227429   0.231   5.744   4.715 -1.1884  0.4102  0.5681
 8844SOL     OW27430   5.036   1.523   0.400 -0.5286  0.2944  0.3324
 8844SOL    HW127431   5.063   1.619   0.407  2.0077 -0.4139  1.4716
 8844SOL    HW227432   4.987   1.508   0.314  1.7323  2.0235 -1.3816
 8845SOL     OW27433   4.902   2.686   6.102 -0.2979  0.3163  0.3376
 8845SOL    HW127434   4.957   2.639   6.171  1.9645  1.2522 -0.7332
 8845SOL    HW227435   4.809   2.651   6.104  0.8191 -2.9531  0.7874
 8846SOL     OW27436   4.022   5.752   3.607 -1.4550 -0.4554 -0.4717
 8846SOL    HW127437   4.092   5.682   3.600 -1.0682 -0.2158  0.8217
 8846SOL    HW227438   3.969   5.739   3.690 -2.5297 -0.2405 -1.0987
 8847SOL     OW27439   1.254   1.760   3.028 -0.3261  0.4741  0.0373
 8847SOL    HW127440   1.176   1.809   2.990 -0.0976  1.9047  1.2981
 8847SOL    HW227441   1.286   1.807   3.110 -0.4483 -2.1264  1.6997
 8848SOL     OW27442   0.821   1.583   4.235 -0.3213  0.1669  0.4809
 8848SOL    HW127443   0.845   1.642   4.312  1.1747 -0.0458  0.2085
 8848SOL    HW227444   0.886   1.507   4.229 -0.6646 -0.0574 -0.7322
 8849SOL     OW27445   3.855   2.126   2.233  0.2402 -0.2726  0.4072
 8849SOL    HW127446   3.945   2.167   2.247  0.9086 -1.2285 -0.8904
 8849SOL    HW227447   3.816   2.159   2.147 -0.9992  0.6696  1.2779
 8850SOL     OW27448   2.921   0.738   6.323  0.5778  0.5842 -0.4502
 8850SOL    HW127449   2.867   0.816   6.353 -0.8886 -0.5789  0.0834
 8850SOL    HW227450   2.899   0.659   6.381  2.8297  0.0356 -0.2565
 8851SOL     OW27451   0.015   4.273   2.046 -0.7523  0.3929  0.0808
 8851SOL    HW127452  -0.061   4.333   2.022  0.7099  2.6267  0.7326
 8851SOL    HW227453  -0.020   4.193   2.094 -2.8199  0.4292 -1.2500
 8852SOL     OW27454   1.404   4.265   4.792  0.1150 -0.4570  0.2367
 8852SOL    HW127455   1.456   4.337   4.838 -3.2167  0.8563  2.2625
 8852SOL    HW227456   1.367   4.300   4.706 -1.2643  0.2653  1.0845
 8853SOL     OW27457   5.027   0.956   2.145  0.2754 -0.7557 -0.2131
 8853SOL    HW127458   5.061   0.944   2.052  0.5173  0.4151 -0.2927
 8853SOL    HW227459   5.018   0.867   2.189  2.3389 -1.2060 -0.5832
 8854SOL     OW27460   0.165   2.695   5.339 -0.0929 -0.7312 -0.5127
 8854SOL    HW127461   0.103   2.711   5.416  2.2153  0.5904  1.1792
 8854SOL    HW227462   0.197   2.783   5.303  2.0308 -1.3464 -0.2482
 8855SOL     OW27463   5.114   5.339   0.154  0.1706  0.1823 -0.0466
 8855SOL    HW127464   5.079   5.377   0.240  1.8989  1.3498  0.1932
 8855SOL    HW227465   5.099   5.240   0.153 -1.4974  0.4020  0.7805
 8856SOL     OW27466   5.983   1.224   4.579 -0.2318  0.7664  0.7719
 8856SOL    HW127467   5.997   1.301   4.518  1.1106  0.2328  0.3668
 8856SOL    HW227468   6.062   1.162   4.574 -2.3797 -2.0590 -0.9850
 8857SOL     OW27469   1.272   1.735   6.326  0.4687  0.4504  0.4807
 8857SOL    HW127470   1.224   1.810   6.374  0.1003  2.9874 -3.4281
 8857SOL    HW227471   1.227   1.649   6.348 -0.2752  1.4856  3.7393
 8858SOL     OW27472   0.070   6.655   4.544 -0.3273 -0.0007  0.1576
 8858SOL    HW127473  -0.028   6.654   4.523 -0.1916 -0.1644 -0.4813
 8858SOL    HW227474   0.096   6.746   4.575 -0.8802 -0.2128  1.3114
 8859SOL     OW27475   1.114   5.100   3.297 -0.3327 -0.2329 -0.4301
 8859SOL    HW127476   1.114   5.061   3.389  1.0243 -1.1715 -0.7997
 8859SOL    HW227477   1.022   5.129   3.273 -0.6776  0.2118  1.2952
 8860SOL     OW27478   1.380   2.872   4.748  0.4684 -0.0137  0.0751
 8860SOL    HW127479   1.457   2.929   4.720  0.9462 -0.4922  0.3898
 8860SOL    HW227480   1.361   2.804   4.678  1.2355 -0.7837  0.5921
 8861SOL     OW27481   2.200   0.650   0.498  0.2842  0.3001  0.7457
 8861SOL    HW127482   2.262   0.693   0.433  0.8471 -0.2640  0.8937
 8861SOL    HW227483   2.207   0.695   0.587 -1.3373  1.8280  0.1509
 8862SOL     OW27484   4.825   3.907   4.691  0.1527 -0.2696 -0.1358
 8862SOL    HW127485   4.776   3.990   4.717  1.2970  0.0495  1.1366
 8862SOL    HW227486   4.781   3.828   4.735  0.6303 -0.0092  0.8373
 8863SOL     OW27487   2.271   3.588   0.374  0.5024 -0.4815 -0.4860
 8863SOL    HW127488   2.341   3.517   0.382  2.0273  1.0366  0.3686
 8863SOL    HW227489   2.284   3.655   0.447 -2.2396 -0.4364  0.0522
 8864SOL     OW27490   0.305   1.884   4.229  0.2003  0.0612  0.0724
 8864SOL    HW127491   0.347   1.796   4.207 -3.0266 -2.0331  1.5062
 8864SOL    HW227492   0.281   1.932   4.144  1.0593 -0.9343 -0.7560
 8865SOL     OW27493   2.873   2.065   0.911  0.7139  0.1816  0.0488
 8865SOL    HW127494   2.892   1.979   0.960 -1.3881 -0.0441  0.5727
 8865SOL    HW227495   2.787   2.056   0.861 -0.0727  2.2788  0.9120
 8866SOL     OW27496   6.778   0.134   1.651 -0.2292 -0.0695 -0.4609
 8866SOL    HW127497   6.872   0.150   1.681 -0.2620  0.3086 -0.5608
 8866SOL    HW227498   6.778   0.106   1.555 -0.3269  1.4704 -0.9300
 8867SOL     OW27499   5.710   2.349   4.514 -0.0964 -0.4547  0.2765
 8867SOL    HW127500   5.665   2.293   4.584 -1.0058  1.2038  1.0784
 8867SOL    HW227501   5.809   2.334   4.518 -0.2083 -0.9766  1.3992
 8868SOL     OW27502   2.978   1.318   3.349 -0.3204  0.4836  0.2985
 8868SOL    HW127503   2.914   1.319   3.272  1.7111  2.2856 -1.4950
 8868SOL    HW227504   3.001   1.223   3.372 -2.0116 -0.1186 -0.3868
 8869SOL     OW27505   4.187   0.725   1.501 -0.9881  0.1459 -0.8057
 8869SOL    HW127506   4.230   0.726   1.411  0.0153 -0.0191 -0.3436
 8869SOL    HW227507   4.257   0.738   1.572 -2.1060  3.6069 -0.1438
 8870SOL     OW27508   0.885   2.398   0.225  0.5251 -0.3519  0.2974
 8870SOL    HW127509   0.806   2.384   0.285  0.8228  0.3614  0.8731
 8870SOL    HW227510   0.905   2.496   0.218  2.2345 -0.5726  1.3612
 8871SOL     OW27511   0.492   6.525   6.812 -0.4099 -0.0793 -0.2540
 8871SOL    HW127512   0.524   6.515   6.906  0.8010  1.6612 -0.4374
 8871SOL    HW227513   0.524   6.447   6.758  2.1283  0.6738 -0.0023
 8872SOL     OW27514   6.340   3.167   3.610  0.7655 -0.5383  0.1384
 8872SOL    HW127515   6.311   3.255   3.573  0.6421 -1.0819 -1.1105
 8872SOL    HW227516   6.331   3.168   3.710  1.1099  0.9732  0.1693
 8873SOL     OW27517   1.047   0.731   3.449  0.2336  0.2835 -0.1057
 8873SOL    HW127518   1.067   0.684   3.535 -0.7011  0.3080  0.1385
 8873SOL    HW227519   0.962   0.783   3.459  0.1055  0.2706 -1.0539
 8874SOL     OW27520   3.328   5.811   1.821 -0.2930  0.0752  0.5506
 8874SOL    HW127521   3.268   5.732   1.815 -0.4098  0.1286  0.9690
 8874SOL    HW227522   3.423   5.780   1.824 -0.2030  0.0470 -1.5169
 8875SOL     OW27523   0.081   3.589   6.695 -0.7653  0.5032 -0.3089
 8875SOL    HW127524   0.078   3.553   6.602  0.4556  4.0027 -1.8984
 8875SOL    HW227525  -0.004   3.638   6.715 -1.0850 -0.3631  0.5238
 8876SOL     OW27526   5.825   0.242   0.891 -0.4299  0.2159  0.1327
 8876SOL    HW127527   5.743   0.196   0.924 -0.8733  0.1470 -1.0028
 8876SOL    HW227528   5.815   0.341   0.904 -0.3918  0.1526  0.6372
 8877SOL     OW27529   0.069   3.106   2.472 -0.1044 -0.3830  0.0772
 8877SOL    HW127530   0.003   3.039   2.439  0.5788 -1.0753  0.0965
 8877SOL    HW227531   0.157   3.093   2.425  1.7295 -3.0885  3.7464
 8878SOL     OW27532   5.091   4.627   2.682  0.5318 -0.1086 -0.3730
 8878SOL    HW127533   5.055   4.601   2.592  0.2036 -1.3601  0.1001
 8878SOL    HW227534   5.083   4.550   2.745  1.8867  0.3471  0.4079
 8879SOL     OW27535   0.921   6.362   3.220 -0.7696 -0.2620  0.2395
 8879SOL    HW127536   0.988   6.296   3.186  1.0986  1.1622  0.9599
 8879SOL    HW227537   0.942   6.384   3.315 -2.8428 -0.4277  0.7694
 8880SOL     OW27538   3.574   1.456   2.692 -0.1462 -0.0865 -0.1526
 8880SOL    HW127539   3.658   1.414   2.726 -0.5162  0.3831  1.4163
 8880SOL    HW227540   3.502   1.450   2.762 -1.2047  0.1649 -1.1882
 8881SOL     OW27541   3.873   0.367   1.067  0.7531 -0.2156 -0.1164
 8881SOL    HW127542   3.807   0.393   1.139 -1.3408  0.3505 -2.0997
 8881SOL    HW227543   3.920   0.449   1.035  0.5844 -0.2177 -0.3768
 8882SOL     OW27544   5.844   1.735   6.999  0.0871  0.6283 -0.5579
 8882SOL    HW127545   5.805   1.782   7.078  1.0512  2.3643 -1.0401
 8882SOL    HW227546   5.944   1.732   7.008  0.0460 -1.5254 -0.4829
 8883SOL     OW27547   1.987   6.527   3.157  0.0815 -0.5097 -0.0862
 8883SOL    HW127548   1.954   6.450   3.212  0.6648  0.8023  2.2694
 8883SOL    HW227549   1.910   6.570   3.110 -0.4341 -1.7315 -0.4092
 8884SOL     OW27550   6.008   1.678   5.779  0.0792 -0.5301 -0.0894
 8884SOL    HW127551   6.038   1.665   5.874  0.4925 -4.0502 -0.5666
 8884SOL    HW227552   6.087   1.692   5.721  0.2240 -2.1626 -0.3410
 8885SOL     OW27553   5.259   4.377   6.303 -0.2057  0.2769  0.8058
 8885SOL    HW127554   5.353   4.400   6.277 -0.1117 -1.2063 -0.2828
 8885SOL    HW227555   5.210   4.341   6.223 -0.9999 -1.1018  1.8710
 8886SOL     OW27556   5.322   0.131   0.272 -0.1147 -0.2701 -0.2471
 8886SOL    HW127557   5.265   0.093   0.345  1.0061 -0.3517  0.6206
 8886SOL    HW227558   5.326   0.067   0.195 -1.8864  0.1328 -0.7098
 8887SOL     OW27559   3.027   1.185   4.653  0.0931 -0.4003 -0.4993
 8887SOL    HW127560   3.055   1.202   4.558  0.6620  2.0563  0.0321
 8887SOL    HW227561   2.935   1.222   4.667  0.3490  0.0259  0.1049
 8888SOL     OW27562   3.292   2.913   1.658  0.9306  0.3835  0.3802
 8888SOL    HW127563   3.347   2.867   1.728 -0.6995 -0.6756  1.0197
 8888SOL    HW227564   3.267   2.848   1.587 -1.1917  0.2778  1.1578
 8889SOL     OW27565   2.166   3.227   1.132  0.1739  0.3781  0.4635
 8889SOL    HW127566   2.078   3.227   1.179  1.1015  0.5507  2.3287
 8889SOL    HW227567   2.216   3.311   1.156  1.3026 -0.2491  0.3668
 8890SOL     OW27568   1.377   3.695   6.807 -0.6247  0.2236  0.2601
 8890SOL    HW127569   1.371   3.795   6.816  0.1281  0.1492  2.0073
 8890SOL    HW227570   1.299   3.653   6.852 -0.2760 -0.0114  0.6467
 8891SOL     OW27571   4.519   4.539   4.773  0.7699  0.4532 -0.6581
 8891SOL    HW127572   4.460   4.545   4.854  0.1880  1.9354 -1.1671
 8891SOL    HW227573   4.615   4.541   4.802  0.7182  5.1708 -0.0701
 8892SOL     OW27574   2.451   5.237   6.068  0.3495  0.0412 -0.3786
 8892SOL    HW127575   2.490   5.298   6.137  0.4187  0.7784 -1.0533
 8892SOL    HW227576   2.437   5.287   5.983 -2.4565 -0.0733 -0.0746
 8893SOL     OW27577   3.037   5.001   3.791 -0.0300 -0.1270 -0.2031
 8893SOL    HW127578   2.997   4.949   3.866  0.6879 -0.3098  0.0682
 8893SOL    HW227579   3.131   4.969   3.775 -0.5980 -0.9898 -2.0376
 8894SOL     OW27580   6.311   2.478   1.748  0.3998  0.0999 -0.2008
 8894SOL    HW127581   6.347   2.409   1.686 -1.0886 -0.0902 -0.8904
 8894SOL    HW227582   6.371   2.558   1.749  1.9389 -1.0138  0.3110
 8895SOL     OW27583   0.901   3.463   2.180  0.4169  0.4022 -0.1987
 8895SOL    HW127584   0.914   3.392   2.110 -1.1625  1.3282 -1.5235
 8895SOL    HW227585   0.974   3.456   2.248  0.7246 -2.0057 -0.6590
 8896SOL     OW27586   1.405   1.206   3.721 -0.6498 -0.0765  0.2075
 8896SOL    HW127587   1.380   1.282   3.661  0.8068  0.1016 -0.2063
 8896SOL    HW227588   1.504   1.205   3.735 -0.9323  0.0316  2.8044
 8897SOL     OW27589   1.160   3.428   4.455 -0.6004  0.1838 -0.3796
 8897SOL    HW127590   1.149   3.393   4.548 -0.1791  3.7967  1.2137
 8897SOL    HW227591   1.076   3.475   4.427  0.2003  1.4955 -0.6576
 8898SOL     OW27592   6.526   0.039   2.473  0.2531 -0.6136 -0.2760
 8898SOL    HW127593   6.430   0.013   2.466  0.0725 -0.2746  0.7432
 8898SOL    HW227594   6.551   0.096   2.395 -0.0085 -1.7638 -1.2381
 8899SOL     OW27595   2.003   2.596   0.618  0.1940 -0.4191 -0.1239
 8899SOL    HW127596   2.028   2.658   0.543 -2.3859  1.8944  0.7651
 8899SOL    HW227597   1.945   2.522   0.583 -0.5418  0.3347 -0.5306
 8900SOL     OW27598   3.846   2.128   4.865  0.5737  0.3555 -0.3921
 8900SOL    HW127599   3.865   2.156   4.959  2.2882 -1.8088 -0.0372
 8900SOL    HW227600   3.747   2.119   4.852  0.0071  4.0166  0.1042
 8901SOL     OW27601   1.377   4.733   5.974  0.1318 -0.4706 -0.3823
 8901SOL    HW127602   1.306   4.725   6.044 -0.1369 -0.1533 -0.6156
 8901SOL    HW227603   1.357   4.811   5.914  0.9342 -0.0750 -0.1559
 8902SOL     OW27604   0.035   2.050   5.890 -0.2605 -0.5158  0.4057
 8902SOL    HW127605   0.079   2.121   5.945 -0.2052 -0.7714  0.6915
 8902SOL    HW227606  -0.055   2.082   5.860 -1.5174 -1.3913  2.9757
 8903SOL     OW27607   0.887   1.652   2.917  0.1003 -0.2924  0.1704
 8903SOL    HW127608   0.808   1.600   2.885  0.0747 -0.7720  0.9707
 8903SOL    HW227609   0.960   1.589   2.943  0.7238  0.1436 -0.4780
 8904SOL     OW27610   5.890   2.296   2.130 -0.4296 -0.1581  0.0784
 8904SOL    HW127611   5.930   2.386   2.111 -0.2116  0.3319  2.5198
 8904SOL    HW227612   5.868   2.250   2.044 -1.0748  2.4495 -1.2373
 8905SOL     OW27613   0.493   3.576   0.778 -0.3391  0.6546 -0.3176
 8905SOL    HW127614   0.415   3.600   0.720  0.6933  0.4154 -1.8726
 8905SOL    HW227615   0.524   3.483   0.757  0.2477  0.6690  0.4088
 8906SOL     OW27616   6.924   1.921   4.082  0.4372 -0.5635 -0.2332
 8906SOL    HW127617   6.891   1.877   3.998 -2.4301  3.2296 -1.4151
 8906SOL    HW227618   6.956   2.014   4.060  0.3466  0.2669  2.7661
 8907SOL     OW27619   3.871   3.005   3.495 -0.4113  0.0445 -0.3281
 8907SOL    HW127620   3.840   2.980   3.403  0.3457 -1.8157 -0.1320
 8907SOL    HW227621   3.804   2.974   3.563  0.9635 -2.5191 -0.0162
 8908SOL     OW27622   0.836   0.081   0.511 -0.0837 -0.2437  0.7290
 8908SOL    HW127623   0.845   0.145   0.587  1.3100 -0.8819  1.1305
 8908SOL    HW227624   0.927   0.055   0.478 -0.6240 -1.4790  0.1321
 8909SOL     OW27625   2.590   6.977   2.855 -0.3652  0.5016  0.6324
 8909SOL    HW127626   2.626   6.990   2.763 -0.7927 -1.3480  0.1645
 8909SOL    HW227627   2.499   7.019   2.861 -0.9223 -0.5185 -0.2393
 8910SOL     OW27628   1.550   5.700   3.669 -0.6344  0.2136  0.0339
 8910SOL    HW127629   1.578   5.642   3.745 -1.4491 -0.3158 -0.0521
 8910SOL    HW227630   1.510   5.643   3.597  1.5615  0.5142 -1.5119
 8911SOL     OW27631   4.384   1.781   2.298  0.5139  0.1562  0.9455
 8911SOL    HW127632   4.469   1.834   2.298  0.2497  0.5938 -0.0254
 8911SOL    HW227633   4.405   1.684   2.314  1.2700  0.1580  0.0133
 8912SOL     OW27634   3.346   3.310   3.223  0.1443  0.1283 -0.1848
 8912SOL    HW127635   3.421   3.296   3.158  1.2298 -0.8122  1.1996
 8912SOL    HW227636   3.325   3.408   3.229  1.1254  0.3899 -0.7597
 8913SOL     OW27637   5.705   5.097   0.230  0.4703  0.5918  0.3883
 8913SOL    HW127638   5.734   5.112   0.325 -0.0997  1.0331  0.5036
 8913SOL    HW227639   5.775   5.131   0.168  0.6517  0.7165  0.6594
 8914SOL     OW27640   5.429   3.780   5.282 -0.1429  0.3910  0.4469
 8914SOL    HW127641   5.514   3.733   5.259 -1.1752 -0.6015 -1.5033
 8914SOL    HW227642   5.398   3.750   5.372  0.0390 -1.5253 -0.0869
 8915SOL     OW27643   3.732   1.116   2.486  0.0823 -0.2504 -0.3905
 8915SOL    HW127644   3.793   1.062   2.544  0.5196  0.7623  0.1405
 8915SOL    HW227645   3.638   1.106   2.517  0.2470 -0.1500  0.1522
 8916SOL     OW27646   6.034   0.563   2.328  0.2702  0.0059  1.0036
 8916SOL    HW127647   6.059   0.603   2.240  0.4063  0.3643  1.2042
 8916SOL    HW227648   6.116   0.544   2.381  0.2245 -0.8196  0.7919
 8917SOL     OW27649   5.829   1.994   0.614  0.0442 -0.0493 -0.1242
 8917SOL    HW127650   5.891   1.950   0.548  0.5300 -0.0798  0.3411
 8917SOL    HW227651   5.764   2.051   0.565 -0.9027 -1.6307 -0.7844
 8918SOL     OW27652   1.280   3.884   2.911 -0.0175  0.5185  0.5347
 8918SOL    HW127653   1.313   3.967   2.957 -0.1567  0.1499  1.3280
 8918SOL    HW227654   1.184   3.869   2.934  0.0120  0.1284  0.4071
 8919SOL     OW27655   6.941   2.234   1.737  0.3819 -0.0723 -0.7952
 8919SOL    HW127656   7.002   2.158   1.714  1.3539 -0.1298  1.6320
 8919SOL    HW227657   6.847   2.208   1.715  0.8612 -1.3211 -1.5156
 8920SOL     OW27658   0.885   1.748   1.470 -0.6299  0.0985 -0.4411
 8920SOL    HW127659   0.866   1.841   1.501  0.4952  0.7726 -1.6667
 8920SOL    HW227660   0.836   1.732   1.384 -1.1827 -0.6284 -0.0071
 8921SOL     OW27661   3.301   1.650   3.027  0.3442  0.1452 -0.3134
 8921SOL    HW127662   3.271   1.589   3.100 -0.9173 -1.5582 -2.1535
 8921SOL    HW227663   3.258   1.740   3.040 -1.9148 -0.8746 -0.2885
 8922SOL     OW27664   4.250   4.755   3.137 -0.0812 -0.0832  0.2687
 8922SOL    HW127665   4.253   4.728   3.041 -1.4004  0.2014  0.1352
 8922SOL    HW227666   4.223   4.851   3.144 -1.4518 -0.4856  0.9529
 8923SOL     OW27667   2.706   2.088   5.255  0.0946 -0.7690  0.1702
 8923SOL    HW127668   2.706   2.079   5.156  1.4179  3.0631 -0.3393
 8923SOL    HW227669   2.790   2.134   5.284 -1.0109 -0.3078  2.8931
 8924SOL     OW27670   6.024   4.326   3.133 -0.2711 -0.0578  0.1428
 8924SOL    HW127671   6.087   4.263   3.087 -0.2288 -1.0437  1.4768
 8924SOL    HW227672   5.943   4.340   3.077 -0.1532 -1.0951 -0.3048
 8925SOL     OW27673   1.617   6.300   4.407  0.2375  0.3846  0.7229
 8925SOL    HW127674   1.670   6.328   4.327 -0.3538  1.3305  0.6445
 8925SOL    HW227675   1.620   6.373   4.476  1.5543 -0.8126  1.9930
 8926SOL     OW27676   6.141   3.078   6.816  0.2814 -0.2934  0.0380
 8926SOL    HW127677   6.069   3.019   6.852 -0.1640 -0.5258 -1.2045
 8926SOL    HW227678   6.223   3.023   6.797  0.2133 -0.3311 -0.1479
 8927SOL     OW27679   0.803   1.149   4.889 -0.3423 -0.1242 -0.1101
 8927SOL    HW127680   0.900   1.123   4.894 -0.7018 -1.2285  1.6999
 8927SOL    HW227681   0.796   1.248   4.875  1.0846  0.5131  2.9828
 8928SOL     OW27682   6.851   6.156   4.419  0.5720  0.2347  0.2406
 8928SOL    HW127683   6.816   6.246   4.446  0.2089 -0.0153  0.6205
 8928SOL    HW227684   6.790   6.085   4.453  0.9221 -0.1649  0.0483
 8929SOL     OW27685   2.250   1.289   3.730 -0.5852  0.3860  0.3094
 8929SOL    HW127686   2.279   1.316   3.822  3.0073 -0.0521 -0.5610
 8929SOL    HW227687   2.200   1.365   3.688 -1.4508  0.9526  2.2131
 8930SOL     OW27688   2.540   6.009   1.401 -0.2485  0.0018 -0.4316
 8930SOL    HW127689   2.604   5.979   1.330 -1.6108 -0.2995 -1.5774
 8930SOL    HW227690   2.454   5.958   1.392 -1.6853  2.3276 -0.7408
 8931SOL     OW27691   4.594   5.308   6.816 -0.1131  0.9714  0.0369
 8931SOL    HW127692   4.495   5.290   6.822  0.0376 -0.1310 -0.5009
 8931SOL    HW227693   4.619   5.329   6.722  0.4297 -0.6211 -0.2133
 8932SOL     OW27694   0.364   3.914   2.730 -0.0081  0.1108  0.2708
 8932SOL    HW127695   0.324   3.962   2.808 -2.0507 -1.6729  0.4199
 8932SOL    HW227696   0.405   3.828   2.760 -0.4167 -0.3860 -0.5292
 8933SOL     OW27697   3.752   3.911   0.417 -0.2786  0.1440  0.3029
 8933SOL    HW127698   3.753   3.876   0.323  0.6298 -0.0396  0.3663
 8933SOL    HW227699   3.730   4.008   0.416  0.4409  0.3112 -0.1757
 8934SOL     OW27700   2.869   5.593   2.537 -0.0546 -0.1161 -0.7817
 8934SOL    HW127701   2.827   5.502   2.538  1.1381 -0.7743  2.4513
 8934SOL    HW227702   2.883   5.623   2.631  1.4428  2.5738 -1.7724
 8935SOL     OW27703   0.012   5.467   6.014 -0.0163 -0.4470 -0.0899
 8935SOL    HW127704   0.077   5.542   6.023 -0.3083 -0.1749 -0.2281
 8935SOL    HW227705  -0.060   5.476   6.083  1.0269 -1.7159  1.2163
 8936SOL     OW27706   4.092   3.690   0.210 -0.0194 -0.1265 -0.0330
 8936SOL    HW127707   4.003   3.661   0.247  0.1275 -2.1496 -1.1119
 8936SOL    HW227708   4.165   3.656   0.268  0.1043  0.0025 -0.1116
 8937SOL     OW27709   0.093   1.759   0.626  0.5375 -0.3557  0.6849
 8937SOL    HW127710   0.081   1.774   0.724  1.7020  1.6217  0.5625
 8937SOL    HW227711   0.171   1.812   0.593 -0.2057 -0.5057 -1.4408
 8938SOL     OW27712   3.872   5.065   2.536  0.0452 -0.2362  0.2189
 8938SOL    HW127713   3.809   5.104   2.604 -0.1113 -1.1260  0.6000
 8938SOL    HW227714   3.886   5.131   2.462  1.3137  1.3115  1.7765
 8939SOL     OW27715   5.475   1.393   5.256 -0.0699 -0.8816  0.1381
 8939SOL    HW127716   5.492   1.435   5.167  0.1408 -0.5256  0.3463
 8939SOL    HW227717   5.559   1.393   5.309 -0.6753  0.9175  1.1882
 8940SOL     OW27718   4.334   0.764   0.563 -0.2647  0.4021 -0.1573
 8940SOL    HW127719   4.384   0.818   0.495  0.3242  1.3993  1.0207
 8940SOL    HW227720   4.357   0.797   0.655 -1.7106 -0.3093  0.4972
 8941SOL     OW27721   4.812   1.486   1.660  0.3887 -0.0142 -0.1945
 8941SOL    HW127722   4.714   1.500   1.666  0.3261 -0.0991 -0.8885
 8941SOL    HW227723   4.844   1.433   1.739 -0.1612 -0.2162 -0.1056
 8942SOL     OW27724   2.094   1.821   1.107 -0.3230  0.3592 -0.4508
 8942SOL    HW127725   2.059   1.741   1.058  1.0658 -1.2490  1.0096
 8942SOL    HW227726   2.163   1.867   1.052  0.5160 -0.8439 -0.4407
 8943SOL     OW27727   5.279   1.611   0.991  0.7214 -0.0179 -0.2187
 8943SOL    HW127728   5.233   1.557   1.061  0.0296  0.6905 -0.1066
 8943SOL    HW227729   5.297   1.554   0.911 -1.2202 -0.0978 -0.6413
 8944SOL     OW27730   5.495   5.681   1.577 -0.0729  0.0632  0.2549
 8944SOL    HW127731   5.526   5.654   1.668  0.3497 -0.9124 -0.1572
 8944SOL    HW227732   5.503   5.602   1.515 -2.1192  0.1585 -0.1838
 8945SOL     OW27733   1.969   6.144   3.314 -0.3885  0.1977 -0.1746
 8945SOL    HW127734   2.064   6.175   3.307 -0.1675 -0.5472 -0.6600
 8945SOL    HW227735   1.957   6.061   3.259 -1.8981  1.5947 -2.0796
 8946SOL     OW27736   3.007   0.915   6.128 -0.3551  0.1889  0.0337
 8946SOL    HW127737   2.979   0.832   6.176  0.0112 -0.2410 -0.4886
 8946SOL    HW227738   3.070   0.968   6.186  0.8181 -0.7858 -0.3281
 8947SOL     OW27739   3.917   5.362   5.188  0.1304  0.5442  0.3366
 8947SOL    HW127740   3.938   5.302   5.265 -0.6042  0.1462  0.2448
 8947SOL    HW227741   3.957   5.325   5.105 -3.6000 -2.1887 -0.5310
 8948SOL     OW27742   5.104   6.546   3.815 -0.4651  0.1841  0.3021
 8948SOL    HW127743   5.174   6.611   3.784 -1.0188 -0.8664 -3.7424
 8948SOL    HW227744   5.149   6.462   3.846  0.1412  1.4641  3.2340
 8949SOL     OW27745   1.499   5.822   4.250  0.2276  0.2255 -0.1212
 8949SOL    HW127746   1.550   5.885   4.308 -1.1951  1.5501 -0.2472
 8949SOL    HW227747   1.553   5.800   4.168  1.1716  0.4321  0.4401
 8950SOL     OW27748   6.054   0.273   3.914 -0.5008  0.4318  0.1630
 8950SOL    HW127749   6.012   0.316   3.994 -1.6929  1.5036 -1.0107
 8950SOL    HW227750   6.014   0.310   3.831  0.2907 -1.1084 -0.9497
 8951SOL     OW27751   3.112   2.551   6.662  0.1240 -0.0839 -0.4234
 8951SOL    HW127752   3.077   2.504   6.582 -1.4982 -0.4093  0.4376
 8951SOL    HW227753   3.060   2.635   6.678  0.7527  0.2397  0.0084
 8952SOL     OW27754   5.580   0.624   3.530 -0.4031  0.5315 -0.2304
 8952SOL    HW127755   5.552   0.530   3.551  1.1849  0.2783  0.9338
 8952SOL    HW227756   5.680   0.629   3.525 -0.5165  1.8090 -2.1327
 8953SOL     OW27757   4.409   5.047   6.701  0.2415 -0.1995 -0.8471
 8953SOL    HW127758   4.376   5.131   6.744 -0.5625 -0.2439 -1.3625
 8953SOL    HW227759   4.499   5.024   6.739  0.0542  0.3730 -0.0169
 8954SOL     OW27760   0.942   5.955   0.317  0.0310 -0.1699 -0.0562
 8954SOL    HW127761   0.881   5.910   0.252  1.1373 -0.1411 -1.1468
 8954SOL    HW227762   1.034   5.918   0.307 -0.1307 -1.7323  2.9777
 8955SOL     OW27763   0.884   3.842   4.393 -0.3149 -0.2489 -0.2746
 8955SOL    HW127764   0.837   3.814   4.476  0.1447  0.7144  0.3252
 8955SOL    HW227765   0.929   3.763   4.351  0.4764 -0.5394  1.0631
 8956SOL     OW27766   1.644   0.398   3.658  0.0760  0.3787 -0.1906
 8956SOL    HW127767   1.562   0.438   3.699 -2.2391 -1.6778 -2.5140
 8956SOL    HW227768   1.722   0.411   3.721 -2.4028  0.4644  3.1421
 8957SOL     OW27769   2.537   0.168   2.494 -0.2617  0.3847  0.5299
 8957SOL    HW127770   2.537   0.069   2.481 -1.3168  0.3363  0.7960
 8957SOL    HW227771   2.446   0.205   2.473  0.2627  1.3734 -0.0973
 8958SOL     OW27772   5.043   6.373   4.696 -0.0529  0.1070  0.0503
 8958SOL    HW127773   4.989   6.297   4.734 -0.7756  0.7735  0.3967
 8958SOL    HW227774   5.086   6.343   4.611  0.2706 -0.9124  0.5532
 8959SOL     OW27775   3.032   6.495   0.620 -0.8302  0.5357  0.2816
 8959SOL    HW127776   3.042   6.448   0.707 -0.1344  0.0746 -0.0354
 8959SOL    HW227777   3.037   6.594   0.634  0.4987  0.4395  0.6310
 8960SOL     OW27778   2.701   6.419   6.838  0.6668 -0.3655  0.0158
 8960SOL    HW127779   2.685   6.488   6.768 -0.8457 -0.0958  0.5800
 8960SOL    HW227780   2.796   6.423   6.868  0.5575  1.6467  0.2000
 8961SOL     OW27781   1.117   3.787   5.373  0.3698  0.1933 -0.4528
 8961SOL    HW127782   1.071   3.862   5.420 -1.1478 -0.7588 -0.3583
 8961SOL    HW227783   1.088   3.785   5.277  0.3851 -0.2835 -0.4499
 8962SOL     OW27784   5.171   1.336   2.484  0.1967  0.0847  0.0956
 8962SOL    HW127785   5.162   1.301   2.578  1.1460  1.4472  0.7305
 8962SOL    HW227786   5.088   1.388   2.461  0.0393 -0.0932  0.2515
 8963SOL     OW27787   2.792   6.770   4.959  0.5953  0.2420 -0.1230
 8963SOL    HW127788   2.737   6.789   4.877 -1.0222 -1.0740  0.6088
 8963SOL    HW227789   2.778   6.844   5.025 -0.5973 -0.2359  0.1862
 8964SOL     OW27790   6.494   1.798   3.440  0.5214 -0.2814  0.6303
 8964SOL    HW127791   6.414   1.854   3.461  1.1906  1.2793 -0.7172
 8964SOL    HW227792   6.559   1.804   3.515  0.9332  1.4908  0.1900
 8965SOL     OW27793   1.319   4.496   2.260  0.5065 -0.2249  0.2293
 8965SOL    HW127794   1.300   4.593   2.245  1.7670  0.0962  0.5459
 8965SOL    HW227795   1.288   4.443   2.181  1.1925  0.6314 -0.6401
 8966SOL     OW27796   5.335   1.618   4.130 -0.4853 -0.0353  0.0761
 8966SOL    HW127797   5.378   1.536   4.093 -0.1311 -0.2543  0.9382
 8966SOL    HW227798   5.371   1.699   4.083  1.9369 -0.0974  1.6494
 8967SOL     OW27799   4.729   5.511   0.424 -0.1973 -0.2036  0.8849
 8967SOL    HW127800   4.634   5.525   0.394 -0.0464  0.7271  0.7996
 8967SOL    HW227801   4.791   5.551   0.357  0.1839  1.0125  1.9137
 8968SOL     OW27802   5.104   5.128   2.222 -0.3315 -0.0411 -0.2638
 8968SOL    HW127803   5.031   5.081   2.173  1.4081  0.3327 -3.4781
 8968SOL    HW227804   5.113   5.221   2.188  1.4912 -0.0252  0.1393
 8969SOL     OW27805   6.845   5.647   3.144 -0.3665 -0.2379 -0.4977
 8969SOL    HW127806   6.942   5.634   3.123  0.2825 -1.3686  2.6785
 8969SOL    HW227807   6.826   5.745   3.152  0.9963 -0.0298  0.6334
 8970SOL     OW27808   1.982   4.427   1.858 -0.5111  0.6304 -0.0584
 8970SOL    HW127809   1.999   4.368   1.780 -0.3458 -1.5361  1.5359
 8970SOL    HW227810   1.884   4.447   1.865 -0.6613 -0.0360 -0.2142
 8971SOL     OW27811   3.937   5.085   2.931  0.0062  0.0150  0.1810
 8971SOL    HW127812   3.945   4.986   2.919  2.1501  0.1587  0.0109
 8971SOL    HW227813   3.949   5.108   3.028 -0.8071  0.0948  0.2670
 8972SOL     OW27814   5.990   1.396   5.231 -0.2892  0.0538  0.3953
 8972SOL    HW127815   6.017   1.417   5.137  0.3168 -0.7919  0.3668
 8972SOL    HW227816   5.960   1.300   5.236 -0.8573  0.2498  0.9566
 8973SOL     OW27817   1.877   4.162   0.607 -0.0149  0.1505 -0.4466
 8973SOL    HW127818   1.791   4.200   0.641  0.1390  1.0971 -1.0572
 8973SOL    HW227819   1.916   4.225   0.539  0.5743 -0.8235 -1.0288
 8974SOL     OW27820   1.988   2.635   3.678  0.2437  0.4144 -0.4273
 8974SOL    HW127821   2.048   2.589   3.744  1.3813  0.9737 -1.0433
 8974SOL    HW227822   1.935   2.567   3.628 -0.1487 -0.0505  0.5938
 8975SOL     OW27823   3.274   6.892   6.049  0.2027  0.1359 -0.1396
 8975SOL    HW127824   3.282   6.818   5.983  0.2968 -0.3093  0.3636
 8975SOL    HW227825   3.359   6.945   6.050  0.2736  0.0239 -0.2370
 8976SOL     OW27826   3.044   5.640   3.208 -0.6266 -0.4608  0.6144
 8976SOL    HW127827   2.960   5.691   3.189 -0.2780 -0.2577 -0.4759
 8976SOL    HW227828   3.039   5.551   3.164  0.1359 -0.0539 -0.3298
 8977SOL     OW27829   0.077   2.834   1.343  0.2652  0.2775 -0.2757
 8977SOL    HW127830   0.035   2.744   1.351  0.4410  0.1392 -0.8267
 8977SOL    HW227831   0.007   2.902   1.323  0.2718  0.0732 -1.0365
 8978SOL     OW27832   5.561   4.882   3.239 -0.2571  0.1760  0.5327
 8978SOL    HW127833   5.658   4.887   3.264 -0.7701 -0.1560  2.7957
 8978SOL    HW227834   5.542   4.947   3.166  1.0405  2.7978  2.3491
 8979SOL     OW27835   0.306   4.802   4.393  0.1427 -0.0792  0.3676
 8979SOL    HW127836   0.289   4.722   4.336 -3.6466  0.8465 -0.1147
 8979SOL    HW227837   0.365   4.866   4.345 -1.3779 -0.1707 -1.7957
 8980SOL     OW27838   3.822   3.469   3.180  0.3463 -0.3596 -0.3878
 8980SOL    HW127839   3.916   3.466   3.215  0.0822 -1.2102  0.2584
 8980SOL    HW227840   3.799   3.564   3.158  1.3021 -0.1182 -0.4030
 8981SOL     OW27841   2.212   4.572   5.299 -0.1318  0.1522  0.2205
 8981SOL    HW127842   2.195   4.623   5.384  2.0941 -0.2478  0.9772
 8981SOL    HW227843   2.144   4.598   5.231 -0.8571  1.9000  1.5169
 8982SOL     OW27844   2.012   3.890   1.388  0.1297 -0.4579 -0.3551
 8982SOL    HW127845   2.107   3.910   1.362  0.3842 -0.2200  0.7255
 8982SOL    HW227846   2.009   3.855   1.481 -0.8533 -0.4325 -0.3627
 8983SOL     OW27847   5.041   5.356   6.877  0.0872 -0.0731  0.9306
 8983SOL    HW127848   5.101   5.357   6.957  1.3208  0.7875  0.0233
 8983SOL    HW227849   5.009   5.449   6.858 -0.5978 -0.3496  0.7071
 8984SOL     OW27850   2.550   6.400   1.302  0.0724  0.3462 -0.1601
 8984SOL    HW127851   2.561   6.364   1.394 -0.9825  2.9614  1.0965
 8984SOL    HW227852   2.464   6.367   1.263 -0.0600  0.1562  0.2854
 8985SOL     OW27853   4.143   2.666   5.394  0.0249  0.9333  0.0208
 8985SOL    HW127854   4.193   2.752   5.403  0.9178  0.4219  0.1452
 8985SOL    HW227855   4.154   2.630   5.301  1.4334 -0.0750  0.5407
 8986SOL     OW27856   2.100   5.934   2.846  0.4068  0.1978  0.1831
 8986SOL    HW127857   2.165   6.000   2.882  0.5115 -0.1552  0.6400
 8986SOL    HW227858   2.105   5.849   2.898 -0.2687  0.0934  0.0937
 8987SOL     OW27859   3.524   0.021   1.997 -0.1908  0.5906  0.0151
 8987SOL    HW127860   3.497   0.065   1.911 -0.0395 -0.8938 -0.8302
 8987SOL    HW227861   3.495   0.078   2.074  0.8088  2.5941 -1.0131
 8988SOL     OW27862   0.827   4.813   4.699 -0.1137  0.3397  0.0103
 8988SOL    HW127863   0.885   4.835   4.778  0.7767 -2.7192  0.3287
 8988SOL    HW227864   0.781   4.725   4.715 -0.4205 -0.0513 -2.6017
 8989SOL     OW27865   2.618   2.849   5.867  0.1871 -0.4891  0.2084
 8989SOL    HW127866   2.532   2.854   5.917  1.0637 -0.1573  1.7553
 8989SOL    HW227867   2.607   2.894   5.778 -0.5384  2.0606  1.4764
 8990SOL     OW27868   6.151   4.720   4.148 -0.3190 -0.5906 -0.6694
 8990SOL    HW127869   6.183   4.637   4.193  0.9460  0.2396  0.0194
 8990SOL    HW227870   6.160   4.798   4.211  0.9554  0.5108 -2.1361
 8991SOL     OW27871   1.651   1.681   4.823  0.1194 -0.1879  0.5830
 8991SOL    HW127872   1.644   1.772   4.864 -0.5230  0.0374 -0.0115
 8991SOL    HW227873   1.564   1.633   4.832 -0.3319  0.1987 -1.2580
 8992SOL     OW27874   5.855   1.096   1.498  0.2934  0.3253  0.1355
 8992SOL    HW127875   5.846   1.019   1.561 -1.9189  0.6167  0.2654
 8992SOL    HW227876   5.845   1.062   1.404  3.2542 -0.0594 -0.1265
 8993SOL     OW27877   3.895   1.740   2.643 -0.4100  0.3288 -0.5589
 8993SOL    HW127878   3.937   1.651   2.629  1.1079  0.8509  0.4131
 8993SOL    HW227879   3.914   1.799   2.564 -0.5059  0.1235 -0.7352
 8994SOL     OW27880   1.034   4.777   2.515 -0.1463  0.2865  0.7315
 8994SOL    HW127881   1.009   4.864   2.472 -1.9757  0.3535  1.8595
 8994SOL    HW227882   1.125   4.786   2.556 -0.2020  1.5838  0.6257
 8995SOL     OW27883   0.413   6.630   2.521  0.0820 -0.0484 -0.2699
 8995SOL    HW127884   0.483   6.562   2.542  1.3291  0.7902 -1.5128
 8995SOL    HW227885   0.436   6.716   2.565 -1.7162 -0.4727  1.6532
 8996SOL     OW27886   4.815   6.384   4.379  0.5806 -0.6122  0.6225
 8996SOL    HW127887   4.721   6.356   4.399 -0.5109  1.7828 -0.6907
 8996SOL    HW227888   4.862   6.310   4.331 -1.1585 -1.3005 -0.1028
 8997SOL     OW27889   6.363   5.692   5.596  0.5690 -0.3877  0.1444
 8997SOL    HW127890   6.405   5.686   5.687 -1.0205 -0.0112  0.9532
 8997SOL    HW227891   6.339   5.787   5.577 -2.8514 -0.9119  1.2044
 8998SOL     OW27892   0.109   4.921   4.903  0.0211  0.1918  0.2595
 8998SOL    HW127893   0.010   4.908   4.898  0.1052 -0.1600 -0.6769
 8998SOL    HW227894   0.129   5.018   4.918 -0.4420  0.4766 -0.8951
 8999SOL     OW27895   3.446   6.794   6.885  0.0517  0.5328  0.1629
 8999SOL    HW127896   3.478   6.888   6.895  1.8069 -0.2121  2.5530
 8999SOL    HW227897   3.384   6.771   6.961  0.1058 -0.3922 -0.0557
 9000SOL     OW27898   1.976   2.563   6.404  0.0848 -0.8178 -0.7259
 9000SOL    HW127899   1.951   2.573   6.501 -0.9331  0.6674 -1.1103
 9000SOL    HW227900   2.075   2.560   6.396  0.2062 -0.2062  0.3200
 9001SOL     OW27901   1.977   5.312   1.563  0.1228  0.5848  0.3465
 9001SOL    HW127902   1.954   5.239   1.498 -1.0608  1.4221 -0.2104
 9001SOL    HW227903   1.984   5.273   1.655  0.6060 -0.4103 -0.0932
 9002SOL     OW27904   4.847   6.970   4.796  0.4067  0.8843 -0.5928
 9002SOL    HW127905   4.928   7.019   4.763  0.9232  0.4369 -0.0142
 9002SOL    HW227906   4.869   6.923   4.881 -0.0974 -0.2775 -1.0787
 9003SOL     OW27907   5.107   5.259   0.465 -0.0653 -0.8322 -0.0802
 9003SOL    HW127908   5.198   5.250   0.423 -0.0577  1.1459 -0.5972
 9003SOL    HW227909   5.117   5.257   0.564  0.4536 -1.4171 -0.1382
 9004SOL     OW27910   1.401   4.041   0.185  0.2080  0.4302  0.0539
 9004SOL    HW127911   1.441   4.100   0.255 -1.0116  1.0614  0.2422
 9004SOL    HW227912   1.454   4.049   0.100  1.7488 -0.4084  0.8999
 9005SOL     OW27913   5.135   2.357   4.723  0.4006  0.1333 -0.4120
 9005SOL    HW127914   5.062   2.411   4.681  0.7446  1.0217  0.1178
 9005SOL    HW227915   5.125   2.358   4.822  1.3446  0.5916 -0.3100
 9006SOL     OW27916   5.033   4.715   0.177  0.1296 -0.2611 -0.2258
 9006SOL    HW127917   5.056   4.618   0.170 -1.0227 -0.6203  0.7219
 9006SOL    HW227918   4.954   4.735   0.117  0.2081  0.0394 -0.2314
 9007SOL     OW27919   0.090   0.276   3.015  0.2037 -0.5408 -0.4838
 9007SOL    HW127920  -0.006   0.253   3.000 -0.6408  0.7815  2.1587
 9007SOL    HW227921   0.100   0.375   3.012  1.0475 -0.5479  1.2311
 9008SOL     OW27922   1.719   4.609   1.265  0.7356 -0.5653  0.0790
 9008SOL    HW127923   1.753   4.664   1.189 -2.4156  1.4132 -0.1067
 9008SOL    HW227924   1.674   4.527   1.230  0.2549 -0.2100 -0.1570
 9009SOL     OW27925   2.970   0.386   2.191  0.1918  0.4716  0.3563
 9009SOL    HW127926   3.058   0.432   2.179 -0.9989  2.3401 -2.1032
 9009SOL    HW227927   2.907   0.446   2.240 -0.7789  0.7053 -1.1100
 9010SOL     OW27928   2.867   5.648   4.936 -0.3634  0.0884  0.6028
 9010SOL    HW127929   2.780   5.605   4.911 -1.4064  1.6027  1.4423
 9010SOL    HW227930   2.887   5.629   5.032 -0.5594  0.9583  0.8294
 9011SOL     OW27931   2.360   1.262   3.137  0.4112 -0.3693 -0.7898
 9011SOL    HW127932   2.263   1.266   3.113  0.5109 -0.6041 -1.2454
 9011SOL    HW227933   2.376   1.313   3.221  0.3154  1.8467 -2.0409
 9012SOL     OW27934   0.871   5.103   6.538 -0.6681 -0.3735 -0.5324
 9012SOL    HW127935   0.969   5.121   6.548 -0.3102 -2.1512 -0.4426
 9012SOL    HW227936   0.836   5.153   6.459  0.4618 -0.2108 -0.9492
 9013SOL     OW27937   1.517   0.289   4.928  0.1425 -0.0940 -0.2742
 9013SOL    HW127938   1.467   0.360   4.977  1.3427  0.6211 -0.0412
 9013SOL    HW227939   1.587   0.331   4.870  1.1905 -1.0738  0.2168
 9014SOL     OW27940   6.697   5.027   1.745  0.2075  0.0922  0.4486
 9014SOL    HW127941   6.720   4.946   1.799 -1.4398  0.5986  2.0076
 9014SOL    HW227942   6.768   5.097   1.757 -0.9389  0.8872  3.5602
 9015SOL     OW27943   3.452   6.217   5.085  0.5151  0.3791 -0.4995
 9015SOL    HW127944   3.503   6.300   5.108  0.6983  0.2297 -0.3579
 9015SOL    HW227945   3.466   6.195   4.989  0.3188  0.6131 -0.5837
 9016SOL     OW27946   4.612   4.757   6.590 -0.2113  0.1876  0.3434
 9016SOL    HW127947   4.665   4.699   6.528 -1.2110  1.7100 -2.0822
 9016SOL    HW227948   4.590   4.706   6.673 -0.0705 -2.5079 -1.1541
 9017SOL     OW27949   0.836   1.031   6.188  0.2261 -0.0298 -0.0663
 9017SOL    HW127950   0.811   1.025   6.091 -2.1075  2.6975  0.2165
 9017SOL    HW227951   0.924   1.078   6.197 -0.0567  0.6841 -0.8538
 9018SOL     OW27952   3.172   5.181   6.513  0.3036 -0.7755  0.2134
 9018SOL    HW127953   3.261   5.224   6.525 -0.0808 -0.5208  2.7680
 9018SOL    HW227954   3.126   5.220   6.433  1.9326  0.0252 -0.3702
 9019SOL     OW27955   0.100   4.223   5.860  0.0863 -0.4370  0.1939
 9019SOL    HW127956   0.039   4.148   5.884  0.0227 -0.3622  0.2635
 9019SOL    HW227957   0.183   4.186   5.819  0.8286 -0.6534  1.8184
 9020SOL     OW27958   4.539   0.104   2.887  0.4886 -0.3121 -0.7351
 9020SOL    HW127959   4.560   0.077   2.793 -0.4023  2.1642 -1.7281
 9020SOL    HW227960   4.454   0.061   2.916 -1.3356  1.8354 -2.5600
 9021SOL     OW27961   6.456   1.350   2.951  0.1299 -0.3878 -0.3518
 9021SOL    HW127962   6.438   1.383   3.044 -1.2978 -0.3025 -0.6403
 9021SOL    HW227963   6.433   1.253   2.945 -1.5523  0.0192 -1.0556
 9022SOL     OW27964   5.564   3.832   4.412  0.1222  0.6819 -0.3539
 9022SOL    HW127965   5.603   3.924   4.404  0.3053  0.7473  1.0098
 9022SOL    HW227966   5.478   3.837   4.462  0.6738  0.0008  0.7140
 9023SOL     OW27967   0.578   4.463   0.065 -0.6039  0.2914 -0.2583
 9023SOL    HW127968   0.661   4.417   0.096  0.9362  3.2826  0.4825
 9023SOL    HW227969   0.497   4.412   0.095  0.9259 -1.4421  1.1067
 9024SOL     OW27970   0.562   6.220   7.018 -0.3222  0.3849  0.1606
 9024SOL    HW127971   0.616   6.174   7.089  0.9248 -0.3380 -1.1890
 9024SOL    HW227972   0.477   6.170   7.003  0.8053 -1.2852 -0.9615
 9025SOL     OW27973   7.019   6.053   1.036  0.5278 -0.6515 -0.2522
 9025SOL    HW127974   6.984   5.995   1.109 -0.6024  0.2260 -0.0631
 9025SOL    HW227975   7.007   6.149   1.061  2.3951 -0.3045 -0.5338
 9026SOL     OW27976   5.583   0.996   0.605 -0.2028  0.1138 -0.2407
 9026SOL    HW127977   5.498   1.039   0.575 -0.0965  0.6932  0.2810
 9026SOL    HW227978   5.591   1.003   0.704 -0.5935 -1.8593 -0.0249
 9027SOL     OW27979   0.802   6.651   2.401  0.7408 -0.2942  0.2774
 9027SOL    HW127980   0.760   6.582   2.342  1.8275  0.6683 -1.7650
 9027SOL    HW227981   0.886   6.614   2.441  1.4539 -0.1290 -1.0094
 9028SOL     OW27982   2.203   4.916   6.234  0.4241 -0.3099 -0.6404
 9028SOL    HW127983   2.119   4.910   6.180  0.3228  0.3159 -0.5610
 9028SOL    HW227984   2.181   4.943   6.327  0.5301 -2.0711 -0.0662
 9029SOL     OW27985   3.095   0.868   5.462 -1.0590 -0.6769 -0.0375
 9029SOL    HW127986   3.102   0.768   5.457  3.6560 -0.5579 -0.9885
 9029SOL    HW227987   3.134   0.908   5.379 -1.6317  2.0010  0.8783
 9030SOL     OW27988   2.417   2.319   3.691 -0.3273  0.3155  0.4412
 9030SOL    HW127989   2.384   2.363   3.607 -0.1835 -0.1013  0.1657
 9030SOL    HW227990   2.375   2.229   3.700  1.2943 -0.5546 -0.3169
 9031SOL     OW27991   4.979   0.124   5.274  0.1893  0.3690 -0.2496
 9031SOL    HW127992   5.021   0.186   5.340 -0.9108 -0.4745  1.3148
 9031SOL    HW227993   4.924   0.177   5.209  0.4634  1.1499  0.1435
 9032SOL     OW27994   5.852   3.753   0.608 -0.0695 -0.4194 -0.2910
 9032SOL    HW127995   5.889   3.783   0.695 -0.5615  0.6378 -0.4285
 9032SOL    HW227996   5.898   3.802   0.533 -0.4322 -0.4838 -0.5609
 9033SOL     OW27997   2.325   5.290   3.610  0.2035 -0.3726  0.3445
 9033SOL    HW127998   2.364   5.201   3.633  2.1336 -0.1340 -1.6640
 9033SOL    HW227999   2.281   5.329   3.691  1.5020 -2.0388  1.9438
 9034SOL     OW28000   2.057   6.408   6.121 -0.1286 -0.3843  0.0513
 9034SOL    HW128001   2.118   6.458   6.182  0.3447  0.5954 -1.1863
 9034SOL    HW228002   1.988   6.360   6.175 -0.5258  1.4896  1.3053
 9035SOL     OW28003   0.262   6.947   5.413 -0.0290 -0.9125  0.9282
 9035SOL    HW128004   0.321   6.959   5.333 -1.1687  1.7020  0.3632
 9035SOL    HW228005   0.316   6.956   5.497  0.5243  0.8239  0.4260
 9036SOL     OW28006   6.594   3.793   3.799 -0.3406  0.1088  0.6775
 9036SOL    HW128007   6.560   3.771   3.708 -0.0083 -1.3090  0.8558
 9036SOL    HW228008   6.559   3.882   3.828 -0.3857  0.6134 -0.8515
 9037SOL     OW28009   6.968   0.258   2.488  0.0280 -0.1542  0.0944
 9037SOL    HW128010   6.878   0.252   2.531 -0.4421 -0.6348 -0.9401
 9037SOL    HW228011   7.025   0.183   2.520 -0.5592 -0.9305 -0.6644
 9038SOL     OW28012   3.586   4.750   5.798 -0.2829 -0.2156  0.2362
 9038SOL    HW128013   3.654   4.730   5.869  0.2928 -1.4010 -0.6127
 9038SOL    HW228014   3.618   4.714   5.711 -0.5524  2.0003 -0.8440
 9039SOL     OW28015   4.322   5.737   5.503 -0.4861  0.1206 -0.3469
 9039SOL    HW128016   4.403   5.786   5.469 -0.7768  2.4151  2.0063
 9039SOL    HW228017   4.240   5.788   5.479 -0.8277  0.6634  1.8381
 9040SOL     OW28018   1.001   1.323   1.955 -0.6110  0.0600  0.3264
 9040SOL    HW128019   1.056   1.240   1.958  1.8066  1.3259 -2.9435
 9040SOL    HW228020   0.984   1.355   2.048 -0.3634 -3.1931  1.6200
 9041SOL     OW28021   0.776   2.024   3.817  0.3907  0.0989 -0.1724
 9041SOL    HW128022   0.726   2.003   3.901 -3.7378 -0.8115 -2.5613
 9041SOL    HW228023   0.767   2.122   3.797 -0.7583 -0.0909 -0.6872
 9042SOL     OW28024   5.926   4.734   6.549  0.2310 -0.4864 -0.3036
 9042SOL    HW128025   5.991   4.719   6.624 -2.6585 -0.1685  2.5010
 9042SOL    HW228026   5.903   4.831   6.544  0.0794 -0.5660 -1.3720
 9043SOL     OW28027   2.467   2.610   1.316 -0.7641 -0.1502 -0.3982
 9043SOL    HW128028   2.389   2.556   1.284  0.3024 -1.1723 -1.3663
 9043SOL    HW228029   2.551   2.575   1.275  0.0720  1.7618 -0.4482
 9044SOL     OW28030   2.289   1.046   1.037 -0.4108  0.2260 -0.2199
 9044SOL    HW128031   2.255   0.957   1.007  2.1490 -0.3837 -1.5188
 9044SOL    HW228032   2.264   1.060   1.133 -2.3930 -1.0597 -0.4949
 9045SOL     OW28033   3.766   1.238   4.938  0.3399 -0.0494 -0.4978
 9045SOL    HW128034   3.672   1.249   4.908  0.0759 -0.0699  0.2933
 9045SOL    HW228035   3.826   1.228   4.858 -0.3807 -0.4946 -0.9964
 9046SOL     OW28036   4.379   3.538   1.578  0.2559 -0.0110 -0.2340
 9046SOL    HW128037   4.365   3.538   1.479  0.0263  1.6247 -0.2232
 9046SOL    HW228038   4.296   3.572   1.623  1.2055  1.5913  0.3636
 9047SOL     OW28039   1.045   2.408   4.560  0.6174 -0.3706 -0.2771
 9047SOL    HW128040   1.011   2.454   4.478 -0.3163  0.5492  0.6131
 9047SOL    HW228041   0.969   2.383   4.619  1.2028 -1.9354 -0.1247
 9048SOL     OW28042   0.472   2.933   5.261 -0.4646  0.0679  0.1368
 9048SOL    HW128043   0.522   2.848   5.248 -1.3620 -0.3416 -0.6895
 9048SOL    HW228044   0.378   2.913   5.287 -0.3283  0.8301  1.3230
 9049SOL     OW28045   0.057   6.683   3.580  0.0862  0.3407 -0.6907
 9049SOL    HW128046  -0.010   6.701   3.509 -0.5299 -0.3608 -0.3039
 9049SOL    HW228047   0.038   6.741   3.660 -1.5443 -1.4795  0.3313
 9050SOL     OW28048   0.149   4.040   6.555  0.0899 -0.5591 -0.1478
 9050SOL    HW128049   0.186   4.127   6.587  0.2000  0.2041 -2.2645
 9050SOL    HW228050   0.224   3.978   6.532  0.0040 -0.8259  0.2593
 9051SOL     OW28051   0.842   1.998   1.554  0.8363  0.0391  0.2280
 9051SOL    HW128052   0.780   2.065   1.513  1.0887 -0.4714 -1.0192
 9051SOL    HW228053   0.930   1.999   1.505 -0.4668 -4.1252 -2.7687
 9052SOL     OW28054   3.436   4.217   5.444 -0.0194 -0.1835  0.3799
 9052SOL    HW128055   3.425   4.169   5.357  1.6470 -1.9581  1.0798
 9052SOL    HW228056   3.348   4.219   5.492 -0.5668 -0.7506 -0.5631
 9053SOL     OW28057   0.552   1.330   5.531 -0.0999 -0.8332 -0.1930
 9053SOL    HW128058   0.640   1.284   5.545  0.2396 -0.1674 -0.0653
 9053SOL    HW228059   0.492   1.313   5.608  0.0479 -1.0056 -0.1168
 9054SOL     OW28060   2.368   5.507   2.396 -0.0209  0.1963  0.3220
 9054SOL    HW128061   2.436   5.433   2.396 -1.1334 -0.8608 -0.3761
 9054SOL    HW228062   2.331   5.517   2.488 -3.2803 -3.4657 -0.3249
 9055SOL     OW28063   2.207   2.295   6.246  0.0680  0.0511  0.4369
 9055SOL    HW128064   2.188   2.217   6.187  0.2045 -0.0360  0.5072
 9055SOL    HW228065   2.166   2.279   6.336  1.1241 -0.4896  0.8404
 9056SOL     OW28066   3.864   0.153   4.616 -0.0170 -0.1513  0.4185
 9056SOL    HW128067   3.934   0.218   4.646  1.5970 -1.8947  0.6549
 9056SOL    HW228068   3.774   0.195   4.623  0.9427  1.9953  0.6454
 9057SOL     OW28069   6.660   2.648   2.765 -0.4790  0.0671  0.0252
 9057SOL    HW128070   6.588   2.609   2.709 -0.7664  1.2295 -0.4521
 9057SOL    HW228071   6.688   2.583   2.835 -1.0781 -0.8811 -0.6055
 9058SOL     OW28072   0.604   0.223   4.539  0.1947  0.1369  0.4887
 9058SOL    HW128073   0.655   0.159   4.481 -0.0720  0.4748 -0.1209
 9058SOL    HW228074   0.627   0.206   4.635  0.3788 -0.6513  0.3107
 9059SOL     OW28075   1.627   1.724   4.003  0.3960 -0.2711  0.0271
 9059SOL    HW128076   1.675   1.661   4.064 -2.0599 -0.1422  2.3155
 9059SOL    HW228077   1.674   1.812   4.001  1.7500 -0.9768 -0.1163
 9060SOL     OW28078   6.932   0.442   5.591  0.3409 -0.6253 -0.6379
 9060SOL    HW128079   6.955   0.348   5.615  0.5001 -0.2571  0.7358
 9060SOL    HW228080   6.905   0.492   5.673 -0.1542  0.4254 -1.4085
 9061SOL     OW28081   4.296   4.643   3.664  0.0033  0.4000 -0.0227
 9061SOL    HW128082   4.203   4.677   3.675 -0.0231  1.2770 -2.2633
 9061SOL    HW228083   4.322   4.587   3.743 -3.1668 -1.6589 -0.2678
 9062SOL     OW28084   0.564   6.795   5.935  0.0419 -0.6123 -0.0629
 9062SOL    HW128085   0.627   6.869   5.956 -1.9599  1.0194  0.5533
 9062SOL    HW228086   0.546   6.742   6.018 -1.6426  0.8290  0.5772
 9063SOL     OW28087   2.335   6.641   3.367 -0.1754  0.3897  0.1463
 9063SOL    HW128088   2.263   6.694   3.323 -0.5025 -0.1578  0.0141
 9063SOL    HW228089   2.412   6.630   3.305 -0.4909 -0.0791 -0.1738
 9064SOL     OW28090   2.731   2.667   0.214  0.4091  0.1634 -0.3410
 9064SOL    HW128091   2.761   2.752   0.172 -1.2996  2.1137  2.1248
 9064SOL    HW228092   2.632   2.669   0.227  0.5554 -1.4160  1.4245
 9065SOL     OW28093   4.016   0.227   1.546 -0.4513 -0.1079 -0.1613
 9065SOL    HW128094   4.071   0.287   1.488 -2.8514  0.7884 -1.6387
 9065SOL    HW228095   3.986   0.148   1.493 -0.3521 -0.7419  0.7072
 9066SOL     OW28096   5.303   0.730   6.669 -0.1311 -0.6588 -0.3237
 9066SOL    HW128097   5.360   0.811   6.658  0.9199 -1.4491 -0.8377
 9066SOL    HW228098   5.359   0.652   6.695 -1.1868 -1.1514  0.5928
 9067SOL     OW28099   0.283   6.318   3.329 -0.4591 -0.4204  0.4530
 9067SOL    HW128100   0.202   6.272   3.365 -2.0761  1.1955 -0.9116
 9067SOL    HW228101   0.283   6.413   3.358  1.5206 -0.6020  1.2235
 9068SOL     OW28102   0.365   5.905   5.553 -0.4758 -0.9502  0.6280
 9068SOL    HW128103   0.397   5.998   5.535 -1.4281 -0.6133  0.6356
 9068SOL    HW228104   0.407   5.842   5.487  0.8268 -0.6676  1.1444
 9069SOL     OW28105   2.441   4.162   6.044 -0.0293 -0.0031  0.4130
 9069SOL    HW128106   2.389   4.227   5.988  1.5145  0.6205 -0.3770
 9069SOL    HW228107   2.389   4.139   6.125 -1.8710 -0.0479 -0.7191
 9070SOL     OW28108   1.761   3.264   5.201 -0.4151  0.1952 -0.6078
 9070SOL    HW128109   1.783   3.329   5.128 -1.2173  1.4067  0.1954
 9070SOL    HW228110   1.830   3.192   5.202  1.4788  1.9026 -0.4846
 9071SOL     OW28111   5.480   3.535   0.525 -0.1929  0.7663  0.0575
 9071SOL    HW128112   5.538   3.587   0.588 -1.6411  2.8325 -0.2185
 9071SOL    HW228113   5.449   3.452   0.571  0.8597  0.9268  1.1171
 9072SOL     OW28114   5.159   5.722   1.947  0.3653 -0.2078  0.1333
 9072SOL    HW128115   5.214   5.678   2.019  0.0847  0.4388  0.7578
 9072SOL    HW228116   5.195   5.697   1.858 -0.0467 -2.0468  0.4475
 9073SOL     OW28117   0.842   6.784   1.984  0.1112 -0.0541 -0.0003
 9073SOL    HW128118   0.808   6.833   2.064  0.6402 -1.1347  0.9026
 9073SOL    HW228119   0.766   6.739   1.936  0.0161 -0.8931  0.9239
 9074SOL     OW28120   6.796   0.163   6.626  0.1245 -0.0346  0.3176
 9074SOL    HW128121   6.846   0.178   6.711 -0.2777 -1.3138  0.8050
 9074SOL    HW228122   6.775   0.066   6.616 -0.5936  0.2155 -0.8197
 9075SOL     OW28123   6.642   6.486   0.085  0.0473  0.1639 -0.2339
 9075SOL    HW128124   6.552   6.507   0.047  0.9008  3.1048 -0.8845
 9075SOL    HW228125   6.676   6.566   0.135  2.2012 -0.9722  0.2130
 9076SOL     OW28126   0.286   3.782   6.495  0.3967  0.4205  0.5076
 9076SOL    HW128127   0.209   3.718   6.497  1.6488 -1.1790  0.1168
 9076SOL    HW228128   0.312   3.800   6.400  2.0118 -1.0461  0.6161
 9077SOL     OW28129   4.698   6.208   6.867 -0.1817 -0.3237 -0.0745
 9077SOL    HW128130   4.630   6.137   6.883 -1.4431  0.8777  0.0929
 9077SOL    HW228131   4.733   6.242   6.954 -1.4057  0.9181 -0.0211
 9078SOL     OW28132   6.807   1.744   3.882  0.4155  0.1277 -0.0900
 9078SOL    HW128133   6.778   1.713   3.791  1.8061 -2.2873  0.1998
 9078SOL    HW228134   6.776   1.678   3.950  1.7490  0.4560  0.8656
 9079SOL     OW28135   0.309   0.885   0.357 -0.2189 -0.2798  0.0524
 9079SOL    HW128136   0.255   0.805   0.332  0.0593 -1.0236  1.6918
 9079SOL    HW228137   0.401   0.876   0.319  0.5105 -1.8849  1.9746
 9080SOL     OW28138   3.089   0.102   0.129 -0.1941 -0.3992 -0.1338
 9080SOL    HW128139   3.099   0.146   0.219  2.0586  1.6054 -1.2517
 9080SOL    HW228140   3.178   0.066   0.099 -0.9572 -1.2496 -1.4870
 9081SOL     OW28141   5.593   0.357   2.101 -0.5535  0.2814  0.1457
 9081SOL    HW128142   5.638   0.446   2.101 -2.6854  1.4721  1.7935
 9081SOL    HW228143   5.503   0.365   2.058 -1.4450 -0.6136  1.7253
 9082SOL     OW28144   2.188   6.696   1.601 -0.2549  0.1073  0.4012
 9082SOL    HW128145   2.288   6.696   1.597 -0.1680  3.3831 -1.0832
 9082SOL    HW228146   2.157   6.625   1.664  2.9600 -1.1488  0.7661
 9083SOL     OW28147   2.443   6.587   4.020 -0.1205  0.2154 -0.7011
 9083SOL    HW128148   2.364   6.578   3.959 -0.8698  0.0116  0.2707
 9083SOL    HW228149   2.487   6.675   4.003 -0.6095  0.3749 -1.1972
 9084SOL     OW28150   3.515   3.773   1.487  0.1261  1.0083  0.2917
 9084SOL    HW128151   3.422   3.748   1.515  0.4665 -0.4527  0.2232
 9084SOL    HW228152   3.513   3.861   1.441 -0.9794  1.7733  1.6974
 9085SOL     OW28153   1.634   2.045   0.526  0.5472 -0.6016 -0.3006
 9085SOL    HW128154   1.615   1.978   0.454 -2.7789 -0.0544 -0.0902
 9085SOL    HW228155   1.610   2.007   0.615  0.3981  0.2153  0.0193
 9086SOL     OW28156   0.798   3.992   2.417 -0.3702 -0.0414 -0.1353
 9086SOL    HW128157   0.799   3.893   2.403 -0.3887 -0.4293  2.0960
 9086SOL    HW228158   0.885   4.020   2.458 -0.7421  0.6892  0.1665
 9087SOL     OW28159   4.145   4.699   2.620  0.1935  0.0602  0.4062
 9087SOL    HW128160   4.213   4.680   2.549  0.4273 -0.7930  0.8394
 9087SOL    HW228161   4.055   4.713   2.579  0.6407  1.3811 -0.1920
 9088SOL     OW28162   6.156   4.297   2.186  0.3373 -0.4538  0.2889
 9088SOL    HW128163   6.168   4.205   2.149 -0.5747 -1.0380  1.3579
 9088SOL    HW228164   6.229   4.316   2.252  0.1986 -0.6429  0.4972
 9089SOL     OW28165   5.909   1.397   5.686 -0.7627 -0.3421  0.4654
 9089SOL    HW128166   5.962   1.479   5.706  0.5460 -1.0027 -0.1880
 9089SOL    HW228167   5.854   1.372   5.766 -0.6456  0.7747  0.9037
 9090SOL     OW28168   0.255   3.236   3.170 -0.3313  0.6487  0.1577
 9090SOL    HW128169   0.156   3.228   3.155 -0.4979  0.7501  1.1041
 9090SOL    HW228170   0.272   3.260   3.266  0.6564 -0.5455  0.3035
 9091SOL     OW28171   3.935   2.796   6.773  0.0433  0.1608  0.0310
 9091SOL    HW128172   3.873   2.846   6.713  1.1327  1.0195 -0.4100
 9091SOL    HW228173   3.948   2.703   6.738 -0.5353  0.1590 -0.1859
 9092SOL     OW28174   0.002   3.501   6.436  0.5583  0.0980 -0.1716
 9092SOL    HW128175  -0.022   3.534   6.344 -1.9142 -1.3407 -0.1340
 9092SOL    HW228176  -0.044   3.414   6.453  0.0361  0.8541  2.8348
 9093SOL     OW28177   4.720   6.271   3.363 -0.4422  0.3658 -0.1276
 9093SOL    HW128178   4.690   6.245   3.455  0.1582 -2.0709 -0.5507
 9093SOL    HW228179   4.642   6.267   3.300 -0.9423  2.4262  0.2805
 9094SOL     OW28180   2.049   4.235   5.730  0.0618 -0.4572 -0.4889
 9094SOL    HW128181   1.969   4.246   5.672  1.1237  1.8984 -1.6418
 9094SOL    HW228182   2.129   4.216   5.673  0.7952 -0.0036  0.3645
 9095SOL     OW28183   4.961   0.358   4.709  0.1398  0.6729  0.0705
 9095SOL    HW128184   5.005   0.278   4.750 -0.5056  0.5609  0.5661
 9095SOL    HW228185   4.875   0.331   4.666 -0.7715  1.2866  1.4261
 9096SOL     OW28186   0.913   4.412   3.746  0.4116  0.2133 -0.2290
 9096SOL    HW128187   0.874   4.501   3.769  0.3834  0.4720 -1.2565
 9096SOL    HW228188   1.000   4.400   3.794 -1.4621 -0.9340  3.2162
 9097SOL     OW28189   0.208   4.281   1.643 -1.0067  0.4768 -0.8458
 9097SOL    HW128190   0.196   4.315   1.550 -0.1945  1.4843 -0.6023
 9097SOL    HW228191   0.228   4.183   1.640  1.4460  0.9193 -1.9533
 9098SOL     OW28192   3.268   5.982   5.649  0.0329  0.4796  0.0117
 9098SOL    HW128193   3.298   5.886   5.645  0.7929  0.6279  1.5411
 9098SOL    HW228194   3.336   6.040   5.606  0.3121  0.4727  0.4370
 9099SOL     OW28195   0.699   2.003   1.932 -0.1890  0.4700  0.4482
 9099SOL    HW128196   0.651   1.976   1.848  1.2087  0.7547 -0.4778
 9099SOL    HW228197   0.756   2.082   1.913  0.3197  0.3996  1.6251
 9100SOL     OW28198   0.991   4.810   5.677  0.0919  0.7703  0.0076
 9100SOL    HW128199   1.026   4.855   5.594  1.6161  1.8964  1.1824
 9100SOL    HW228200   0.995   4.875   5.753 -1.3042 -0.2286  0.9735
 9101SOL     OW28201   6.546   1.870   0.560 -0.2912 -0.1728 -0.5041
 9101SOL    HW128202   6.622   1.808   0.580  0.5792  1.1436  0.4090
 9101SOL    HW228203   6.463   1.817   0.545  0.2637 -1.5367  1.0157
 9102SOL     OW28204   4.119   0.051   3.103 -0.1309  0.2546  0.3382
 9102SOL    HW128205   4.180   0.080   3.030  0.4692  0.9904  1.1089
 9102SOL    HW228206   4.131  -0.047   3.120  0.0329  0.1714 -0.2549
 9103SOL     OW28207   0.201   0.442   0.922  0.0019 -0.3017  0.1114
 9103SOL    HW128208   0.128   0.484   0.868 -1.3257  1.4048  2.9661
 9103SOL    HW228209   0.160   0.381   0.990  1.5393 -1.8862 -0.3248
 9104SOL     OW28210   5.225   4.557   3.679 -0.4163  0.4401 -0.3384
 9104SOL    HW128211   5.264   4.536   3.768 -1.1251 -0.6146 -0.2520
 9104SOL    HW228212   5.298   4.570   3.612  0.1057  0.0099  0.1370
 9105SOL     OW28213   2.262   5.392   1.526  0.1750 -0.4608  0.0577
 9105SOL    HW128214   2.170   5.369   1.559  0.1752 -3.2305 -1.5368
 9105SOL    HW228215   2.330   5.363   1.592 -0.0065 -1.6618 -0.2537
 9106SOL     OW28216   1.525   1.881   5.263  0.1465  0.3029  0.0850
 9106SOL    HW128217   1.463   1.865   5.340 -0.6708  0.9642 -0.4288
 9106SOL    HW228218   1.583   1.959   5.283 -0.9006  1.2444 -0.4555
 9107SOL     OW28219   4.774   2.358   0.625 -0.4064 -0.1494 -0.2875
 9107SOL    HW128220   4.859   2.322   0.663  0.7551  1.9227 -0.7580
 9107SOL    HW228221   4.701   2.291   0.637  1.6516 -2.8012 -1.5015
 9108SOL     OW28222   5.256   0.090   4.965  0.6275  0.6364  0.4871
 9108SOL    HW128223   5.344   0.078   4.920  1.1635 -1.0408  1.8545
 9108SOL    HW228224   5.256   0.175   5.017  1.1248  1.0511 -0.1715
 9109SOL     OW28225   5.732   4.355   4.958 -0.0602  0.1893 -0.2852
 9109SOL    HW128226   5.639   4.362   4.994  1.1645 -0.1290  3.2981
 9109SOL    HW228227   5.742   4.267   4.910 -1.4986  0.0886 -0.4451
 9110SOL     OW28228   1.367   3.681   6.540  0.4234  0.2800  0.2598
 9110SOL    HW128229   1.362   3.709   6.635  0.2104 -1.5617  0.8318
 9110SOL    HW228230   1.462   3.681   6.510  0.4811  0.9464  0.4350
 9111SOL     OW28231   5.364   4.047   6.838  0.4623  0.6558 -0.4682
 9111SOL    HW128232   5.283   3.991   6.852  0.3591  0.7783 -0.5766
 9111SOL    HW228233   5.338   4.143   6.831  0.6481  0.7309 -0.1850
 9112SOL     OW28234   0.435   5.183   0.893 -0.3759 -0.3174  0.3647
 9112SOL    HW128235   0.517   5.207   0.840 -1.1420 -0.6051 -1.0076
 9112SOL    HW228236   0.461   5.156   0.985  1.2290 -1.7543 -0.4568
 9113SOL     OW28237   4.499   1.071   5.951 -0.0633 -0.3925  0.2710
 9113SOL    HW128238   4.508   0.972   5.935  1.9931 -0.2860  0.5482
 9113SOL    HW228239   4.569   1.119   5.899 -0.1964  0.8269  1.1869
 9114SOL     OW28240   5.539   1.492   0.186 -0.2852  0.3964  0.2038
 9114SOL    HW128241   5.500   1.584   0.181  0.1062  0.5065 -0.9061
 9114SOL    HW228242   5.599   1.476   0.108  0.2897 -0.5179  0.8135
 9115SOL     OW28243   6.123   3.740   4.370 -0.6180 -0.2535 -0.3027
 9115SOL    HW128244   6.097   3.649   4.339 -0.3788 -0.6323  0.5786
 9115SOL    HW228245   6.050   3.805   4.349 -1.6711 -1.0300  0.8461
 9116SOL     OW28246   1.497   5.897   2.219  0.0902  0.0635 -0.1735
 9116SOL    HW128247   1.542   5.814   2.186  0.7999  0.1118  0.6120
 9116SOL    HW228248   1.555   5.976   2.198 -0.6217  0.3753 -0.9897
 9117SOL     OW28249   1.189   1.362   1.325 -0.0687 -0.2207  0.2736
 9117SOL    HW128250   1.129   1.347   1.247  1.1494 -0.8350 -0.5726
 9117SOL    HW228251   1.178   1.456   1.358 -0.2099  0.2177 -0.9819
 9118SOL     OW28252   0.593   4.568   1.516 -0.3946  0.1034  0.3954
 9118SOL    HW128253   0.576   4.627   1.437 -0.5761  0.1922  0.5024
 9118SOL    HW228254   0.509   4.555   1.567 -0.2175  0.2830  0.7393
 9119SOL     OW28255   3.763   1.358   1.383 -0.2558 -0.2063  0.2789
 9119SOL    HW128256   3.731   1.307   1.303  1.4735 -0.2305 -0.4488
 9119SOL    HW228257   3.801   1.293   1.449  2.7603  0.0695 -1.0258
 9120SOL     OW28258   5.708   4.651   5.076 -0.0786  0.1916  0.1580
 9120SOL    HW128259   5.681   4.558   5.103  1.3143 -0.1742  0.4112
 9120SOL    HW228260   5.753   4.647   4.987 -1.5370  0.8971 -0.6401
 9121SOL     OW28261   5.319   1.233   5.722  0.3792 -0.8171  0.5577
 9121SOL    HW128262   5.328   1.317   5.777  0.1397 -0.4183 -0.0032
 9121SOL    HW228263   5.333   1.255   5.626 -1.7095 -1.0283  0.1547
 9122SOL     OW28264   0.280   0.679   2.378 -0.5425 -0.4616  0.2043
 9122SOL    HW128265   0.316   0.619   2.307 -1.3701 -0.0145 -0.6170
 9122SOL    HW228266   0.213   0.741   2.338 -0.2613  0.5014  1.1814
 9123SOL     OW28267   2.534   4.592   3.741 -0.3310 -0.9011 -0.2583
 9123SOL    HW128268   2.485   4.538   3.809 -0.0743 -1.2847 -0.3701
 9123SOL    HW228269   2.554   4.535   3.661 -0.3051 -0.5604 -0.4987
 9124SOL     OW28270   2.566   3.331   6.580  0.4751  0.2829 -0.9373
 9124SOL    HW128271   2.491   3.337   6.646 -1.7771 -2.5206 -3.0247
 9124SOL    HW228272   2.633   3.264   6.613  0.4744  0.4929 -0.5021
 9125SOL     OW28273   5.837   1.714   2.731  0.1934 -0.1191  0.0321
 9125SOL    HW128274   5.811   1.799   2.687  2.2006  0.6737  0.2884
 9125SOL    HW228275   5.874   1.651   2.663  2.0064  0.5845  0.3255
 9126SOL     OW28276   3.839   4.731   7.006  0.3419  0.3920  0.2309
 9126SOL    HW128277   3.927   4.770   7.034  0.1839 -0.5559  2.2493
 9126SOL    HW228278   3.783   4.803   6.964  2.0383  1.0152 -1.0811
 9127SOL     OW28279   5.700   4.825   6.742  0.2980  0.0492  0.5927
 9127SOL    HW128280   5.744   4.740   6.771 -1.4374 -0.6631  1.2360
 9127SOL    HW228281   5.608   4.805   6.708  1.1897  1.1620 -2.9807
 9128SOL     OW28282   3.514   1.568   1.468 -0.7265 -0.0967  0.4019
 9128SOL    HW128283   3.515   1.488   1.528 -1.2213  0.6219  1.4092
 9128SOL    HW228284   3.582   1.557   1.396 -2.0211 -2.2279 -0.5765
 9129SOL     OW28285   6.732   4.167   6.547 -0.6148  0.0062 -0.0150
 9129SOL    HW128286   6.736   4.147   6.449  2.4774 -1.5684  0.2855
 9129SOL    HW228287   6.753   4.263   6.562 -2.9222  0.7153 -0.9106
 9130SOL     OW28288   2.684   4.855   0.583 -0.0316 -0.0830  0.2395
 9130SOL    HW128289   2.659   4.767   0.622  1.3373 -0.6364 -0.0810
 9130SOL    HW228290   2.709   4.843   0.487 -1.2122  0.9008 -0.2212
 9131SOL     OW28291   6.807   0.837   7.013 -0.2559 -0.0811 -0.0641
 9131SOL    HW128292   6.759   0.913   6.969  0.3343 -0.0189 -0.6181
 9131SOL    HW228293   6.759   0.751   6.995 -2.5441  0.4035  2.8718
 9132SOL     OW28294   6.942   5.114   4.283 -0.6412 -0.2422  0.1220
 9132SOL    HW128295   6.964   5.054   4.206  0.1362 -1.4566  1.2398
 9132SOL    HW228296   6.865   5.076   4.334  0.9102 -1.3318  1.8252
 9133SOL     OW28297   4.934   0.463   5.963 -0.2738  0.0676 -0.3402
 9133SOL    HW128298   4.862   0.408   5.922  1.0710 -2.1411  0.0869
 9133SOL    HW228299   4.943   0.549   5.913 -2.0834 -0.3183 -1.3990
 9134SOL     OW28300   5.802   3.983   6.585 -0.2883 -0.5588  0.5597
 9134SOL    HW128301   5.818   4.019   6.493  0.6446  0.1972  0.9992
 9134SOL    HW228302   5.708   3.951   6.592 -0.6285  0.1687 -0.3872
 9135SOL     OW28303   6.312   4.800   3.235 -0.7210  0.7532 -0.1673
 9135SOL    HW128304   6.341   4.759   3.322 -0.5956  0.6189 -0.2718
 9135SOL    HW228305   6.259   4.733   3.183  2.5088 -0.6388 -1.9774
 9136SOL     OW28306   1.010   3.806   5.118  0.0347  0.0622 -0.3358
 9136SOL    HW128307   0.979   3.750   5.042 -0.0809 -1.8851  1.0820
 9136SOL    HW228308   0.955   3.889   5.123 -1.9811 -1.2118 -0.5432
 9137SOL     OW28309   4.884   4.421   0.301  0.0262  0.3467  0.1074
 9137SOL    HW128310   4.809   4.355   0.293 -0.4079  0.8446 -0.0386
 9137SOL    HW228311   4.926   4.434   0.211 -0.1686  0.5889  0.0515
 9138SOL     OW28312   2.563   4.740   5.203 -0.2858 -0.2981 -0.2394
 9138SOL    HW128313   2.598   4.666   5.260  0.8898 -0.2689 -0.8775
 9138SOL    HW228314   2.639   4.782   5.153 -0.9814  1.1117 -0.1598
 9139SOL     OW28315   1.149   1.537   0.994  0.1712 -0.3756  0.6692
 9139SOL    HW128316   1.051   1.520   0.996  0.0715  0.1214  2.7658
 9139SOL    HW228317   1.168   1.626   1.035  1.2679  1.2784 -3.0102
 9140SOL     OW28318   5.283   5.676   4.361  0.0568  0.6093  0.1631
 9140SOL    HW128319   5.208   5.733   4.330 -0.9578  0.0547  1.4713
 9140SOL    HW228320   5.295   5.599   4.299 -1.4847 -0.1225  0.7124
 9141SOL     OW28321   0.172   4.548   4.878 -0.0030 -0.1008  0.0879
 9141SOL    HW128322   0.161   4.593   4.966  1.9081 -0.9298  0.7943
 9141SOL    HW228323   0.252   4.488   4.880 -1.1959 -1.8916 -1.4968
 9142SOL     OW28324   1.172   5.156   2.748  0.4858  0.0287  0.2816
 9142SOL    HW128325   1.104   5.098   2.793 -0.6259  0.4914 -0.7377
 9142SOL    HW228326   1.202   5.228   2.811 -0.4223  0.1717  0.5698
 9143SOL     OW28327   6.422   3.337   3.050  0.2002  0.0618 -0.2601
 9143SOL    HW128328   6.369   3.356   3.133  0.6056  1.2021 -0.2505
 9143SOL    HW228329   6.460   3.422   3.014  2.3540 -0.7535 -0.0617
 9144SOL     OW28330   3.180   3.755   5.408 -0.0150 -0.6358  0.1746
 9144SOL    HW128331   3.169   3.807   5.493  0.2825 -1.6296  0.8328
 9144SOL    HW228332   3.096   3.703   5.390 -0.6274  0.6687 -0.9190
 9145SOL     OW28333   3.008   5.808   1.883 -0.4236  0.0096  0.3752
 9145SOL    HW128334   2.911   5.786   1.871 -0.6910  1.8949 -1.3785
 9145SOL    HW228335   3.063   5.729   1.857 -1.4392 -0.3335 -0.8263
 9146SOL     OW28336   5.207   0.490   2.803 -0.0411  0.6219 -0.2477
 9146SOL    HW128337   5.292   0.440   2.791  0.5648  1.2083  1.3343
 9146SOL    HW228338   5.138   0.430   2.843  0.3440  0.7091  0.5847
 9147SOL     OW28339   2.853   7.024   0.403 -0.1930  0.2020 -0.4210
 9147SOL    HW128340   2.848   7.035   0.502  1.1150 -1.3044 -0.1546
 9147SOL    HW228341   2.881   7.110   0.361 -2.2990  1.3258  0.3164
 9148SOL     OW28342   5.142   5.815   1.269  0.5129 -0.7183 -0.9740
 9148SOL    HW128343   5.215   5.750   1.292  0.5070  0.2908  2.4517
 9148SOL    HW228344   5.180   5.908   1.268 -0.7886 -0.0581  1.9349
 9149SOL     OW28345   1.071   4.002   2.528  0.0932  0.2948  0.2668
 9149SOL    HW128346   1.144   3.981   2.462  0.5885  1.5528  0.3848
 9149SOL    HW228347   1.108   4.060   2.600 -0.4273 -1.1448  1.7383
 9150SOL     OW28348   3.524   3.692   0.283  0.3231 -0.7600  0.1055
 9150SOL    HW128349   3.470   3.634   0.222 -1.4183  0.5145  0.3809
 9150SOL    HW228350   3.490   3.786   0.280  2.5913  0.1463  0.2513
 9151SOL     OW28351   1.664   4.528   4.031 -0.1828  0.1326  0.0874
 9151SOL    HW128352   1.667   4.602   4.098 -1.0860 -1.1745  1.6590
 9151SOL    HW228353   1.723   4.454   4.061 -1.1831 -0.7884 -0.1465
 9152SOL     OW28354   2.201   6.203   2.882 -0.0542  0.4649 -0.3281
 9152SOL    HW128355   2.132   6.261   2.840 -0.6405 -0.6675 -0.9711
 9152SOL    HW228356   2.292   6.233   2.855 -0.3992  0.1656 -1.8796
 9153SOL     OW28357   6.400   2.866   1.316  0.3394 -0.2049 -0.2550
 9153SOL    HW128358   6.467   2.810   1.366  1.5825  0.7951 -0.7481
 9153SOL    HW228359   6.326   2.892   1.378 -0.1960 -2.2483  0.0178
 9154SOL     OW28360   2.528   4.736   2.229  0.6355  0.4843  0.3089
 9154SOL    HW128361   2.534   4.717   2.131 -0.0491  0.8225  0.1967
 9154SOL    HW228362   2.620   4.755   2.265  0.8702  0.5200 -0.3008
 9155SOL     OW28363   5.619   1.263   2.927 -0.1778 -0.2830  0.3223
 9155SOL    HW128364   5.585   1.317   3.003 -2.6288  1.5136 -1.9030
 9155SOL    HW228365   5.548   1.254   2.857  1.9746 -1.7471 -1.8447
 9156SOL     OW28366   4.702   5.827   7.001 -0.6540  0.2450 -0.4555
 9156SOL    HW128367   4.708   5.749   7.064 -0.9525 -0.3980 -1.2095
 9156SOL    HW228368   4.788   5.878   7.004 -0.4017 -0.1908 -0.0545
 9157SOL     OW28369   3.228   5.272   3.970 -0.2301 -0.2610  0.5290
 9157SOL    HW128370   3.161   5.296   4.040 -1.1424 -1.3527  0.0605
 9157SOL    HW228371   3.248   5.174   3.973  0.5866 -0.1277  0.0040
 9158SOL     OW28372   0.523   2.038   4.288  0.0532 -0.2402  0.4878
 9158SOL    HW128373   0.582   1.967   4.328 -0.7653 -0.0689  2.0881
 9158SOL    HW228374   0.431   2.001   4.275 -0.5343  0.6607  1.8874
 9159SOL     OW28375   0.875   0.372   3.498 -0.0185  0.0823 -0.1308
 9159SOL    HW128376   0.784   0.341   3.528 -0.1239  0.2139 -0.3156
 9159SOL    HW228377   0.883   0.362   3.399 -0.1142  0.7965 -0.2187
 9160SOL     OW28378   1.133   2.460   6.366  0.5026  0.9200 -0.0458
 9160SOL    HW128379   1.094   2.546   6.398 -1.0013  0.5321 -0.7779
 9160SOL    HW228380   1.218   2.442   6.415  0.3049  2.2993  0.8503
 9161SOL     OW28381   5.929   1.884   5.045 -0.0938  0.2235  0.2949
 9161SOL    HW128382   5.940   1.979   5.014  0.3035  0.2654  0.5536
 9161SOL    HW228383   6.012   1.833   5.025  0.1348  0.2275  1.1870
 9162SOL     OW28384   4.912   2.104   2.063  0.3202  0.2419  0.3532
 9162SOL    HW128385   4.888   2.185   2.117  0.7292  0.3679  0.3521
 9162SOL    HW228386   4.999   2.120   2.016  0.8228 -0.5105  1.0112
 9163SOL     OW28387   0.292   3.248   3.445  0.3212  0.1075  0.0601
 9163SOL    HW128388   0.210   3.302   3.464  0.6079  1.7221 -2.7862
 9163SOL    HW228389   0.268   3.151   3.445 -1.3031  0.4758  0.4129
 9164SOL     OW28390   4.136   0.624   1.135  0.1885 -0.0654 -0.6881
 9164SOL    HW128391   4.093   0.585   1.054 -0.7528 -1.8974  0.6412
 9164SOL    HW228392   4.084   0.704   1.166 -0.8267 -0.7656 -0.5510
 9165SOL     OW28393   0.271   6.007   0.166  0.1049  0.3807  0.0589
 9165SOL    HW128394   0.306   6.065   0.092  2.3032  2.8172  2.7767
 9165SOL    HW228395   0.330   5.927   0.177  2.1379  1.9442  1.4226
 9166SOL     OW28396   4.517   5.647   2.411 -0.0646  0.3223 -0.2622
 9166SOL    HW128397   4.542   5.593   2.331  0.8111  1.0039 -0.4655
 9166SOL    HW228398   4.559   5.738   2.404  0.0885  0.3621  1.0011
 9167SOL     OW28399   3.170   3.221   5.130  0.1129  0.2329 -0.1654
 9167SOL    HW128400   3.138   3.196   5.038 -1.7621  0.8304  0.2764
 9167SOL    HW228401   3.170   3.321   5.139  1.7133  0.2435  0.0431
 9168SOL     OW28402   6.116   6.769   3.919  0.1087  0.2512 -0.5331
 9168SOL    HW128403   6.152   6.859   3.897  1.8962  0.1474  1.5901
 9168SOL    HW228404   6.053   6.776   3.996  0.7809 -0.3545  0.0918
 9169SOL     OW28405   6.669   4.929   0.469  0.7265  0.1164  0.6261
 9169SOL    HW128406   6.739   4.908   0.538  1.4668 -0.7983 -0.3698
 9169SOL    HW228407   6.633   4.844   0.431 -1.7056  0.5077  1.8125
 9170SOL     OW28408   1.011   6.874   3.909 -0.3070 -0.5331  0.2918
 9170SOL    HW128409   0.960   6.884   3.994 -2.4979 -1.1197 -0.8842
 9170SOL    HW228410   0.972   6.800   3.854  1.9640 -1.1573 -0.6176
 9171SOL     OW28411   4.011   5.383   5.610 -0.0388 -0.3519 -0.2561
 9171SOL    HW128412   4.058   5.295   5.605 -0.0199 -0.2858 -2.6124
 9171SOL    HW228413   3.942   5.381   5.682  1.4374 -1.5070  1.1897
 9172SOL     OW28414   6.061   1.070   0.002  0.2796  0.7889  0.7688
 9172SOL    HW128415   5.973   1.100  -0.035 -0.5398 -0.6631  1.4597
 9172SOL    HW228416   6.054   1.061   0.102  1.3446  1.0316  0.8782
 9173SOL     OW28417   5.243   3.726   0.605  0.2210 -0.3047 -1.1527
 9173SOL    HW128418   5.313   3.657   0.624  0.4431  0.0651 -0.6219
 9173SOL    HW228419   5.192   3.746   0.688 -0.4060 -0.4368 -1.4946
 9174SOL     OW28420   0.365   5.426   1.104 -0.1568  0.1480 -0.4741
 9174SOL    HW128421   0.385   5.412   1.201 -2.4994 -1.3376 -0.1270
 9174SOL    HW228422   0.331   5.341   1.064 -1.0465  1.2201 -2.1133
 9175SOL     OW28423   1.682   2.831   1.496 -0.0384  0.1007 -0.4717
 9175SOL    HW128424   1.628   2.765   1.444 -1.7586  0.5691  0.6297
 9175SOL    HW228425   1.730   2.785   1.570 -0.5335 -0.0420 -0.2393
 9176SOL     OW28426   6.748   5.117   2.863  0.0019  0.6066  0.1609
 9176SOL    HW128427   6.658   5.139   2.902 -0.3868 -2.2832  1.0980
 9176SOL    HW228428   6.757   5.160   2.774 -2.2206  1.1325  0.1333
 9177SOL     OW28429   0.981   6.432   3.489  0.5168  0.3295  0.3614
 9177SOL    HW128430   1.016   6.352   3.539  0.0372 -0.5626 -0.6835
 9177SOL    HW228431   1.052   6.502   3.485  0.8038  0.1414  1.6621
 9178SOL     OW28432   1.303   1.991   1.835 -0.0110 -0.1744  0.1440
 9178SOL    HW128433   1.232   2.041   1.885 -0.4889 -0.4506 -0.2472
 9178SOL    HW228434   1.320   1.904   1.882 -0.5915 -0.5157 -0.2666
 9179SOL     OW28435   5.858   0.661   3.505 -0.1391 -0.2395 -0.0391
 9179SOL    HW128436   5.905   0.648   3.592  0.1596 -1.6741 -0.3847
 9179SOL    HW228437   5.839   0.758   3.492  2.2645  0.3609  0.3708
 9180SOL     OW28438   2.234   1.467   3.997  0.1108  0.8170  0.0786
 9180SOL    HW128439   2.297   1.445   4.072 -0.1126  0.5782  0.1944
 9180SOL    HW228440   2.202   1.561   4.008  1.7160  1.5192 -0.8819
 9181SOL     OW28441   2.552   6.830   4.006 -1.0045  0.7890 -0.8500
 9181SOL    HW128442   2.600   6.802   4.090 -3.1780  2.3854  1.0497
 9181SOL    HW228443   2.617   6.834   3.931  1.4413  0.9692  1.1236
 9182SOL     OW28444   0.399   6.075   3.234  0.2051 -0.1088 -0.0974
 9182SOL    HW128445   0.400   6.171   3.262 -2.1051 -0.4229  1.3043
 9182SOL    HW228446   0.308   6.050   3.204  0.9325 -1.7391 -1.0587
 9183SOL     OW28447   2.428   1.723   5.817 -0.4387  0.2016 -0.1003
 9183SOL    HW128448   2.429   1.674   5.731 -1.9985 -1.3033  0.6907
 9183SOL    HW228449   2.350   1.786   5.819  0.0582  0.8372 -0.0746
 9184SOL     OW28450   3.579   5.153   2.256  0.0020 -0.5367 -0.2424
 9184SOL    HW128451   3.561   5.055   2.247  2.5626 -1.0633 -0.2378
 9184SOL    HW228452   3.632   5.184   2.177  1.0173  0.3689  0.7703
 9185SOL     OW28453   0.887   1.872   4.078 -0.4666  0.6667 -0.5621
 9185SOL    HW128454   0.944   1.901   4.155 -0.1582 -0.9499 -0.1353
 9185SOL    HW228455   0.797   1.915   4.085 -0.7879 -0.1657  1.2801
 9186SOL     OW28456   4.420   6.461   5.586  0.2481 -0.2009  0.0358
 9186SOL    HW128457   4.356   6.384   5.597 -0.1919  0.1443 -0.0836
 9186SOL    HW228458   4.469   6.450   5.500 -0.1423 -0.1110 -0.1997
 9187SOL     OW28459   5.467   2.301   1.303  0.6674 -0.1055 -0.3357
 9187SOL    HW128460   5.559   2.338   1.293  0.3981  0.4861 -0.7169
 9187SOL    HW228461   5.406   2.374   1.336  0.2490 -0.3724 -0.5177
 9188SOL     OW28462   2.034   0.794   1.985  0.2908 -0.0915  0.2197
 9188SOL    HW128463   1.983   0.872   2.023 -2.8187 -1.8908  0.0918
 9188SOL    HW228464   1.975   0.744   1.921  1.6243 -3.3625  1.3547
 9189SOL     OW28465   2.466   0.978   7.010 -0.8116  0.3545 -0.8865
 9189SOL    HW128466   2.430   1.051   7.067 -0.7407  0.2608 -0.7225
 9189SOL    HW228467   2.560   0.956   7.037 -0.8599  0.1481 -0.8788
 9190SOL     OW28468   1.795   0.574   6.803 -0.2052  0.2567  0.0871
 9190SOL    HW128469   1.823   0.494   6.856 -0.1651 -0.2426 -0.6766
 9190SOL    HW228470   1.760   0.545   6.714  0.4925  1.1270 -0.4920
 9191SOL     OW28471   4.304   0.096   0.926  0.1340  0.2401  0.3932
 9191SOL    HW128472   4.253   0.024   0.879  0.6150 -2.1313  3.2277
 9191SOL    HW228473   4.259   0.117   1.013  2.0216  0.6874  1.3003
 9192SOL     OW28474   3.517   5.182   3.246  0.0901  0.1933 -0.1047
 9192SOL    HW128475   3.499   5.094   3.202  0.7224 -0.2063  0.4173
 9192SOL    HW228476   3.601   5.176   3.300  0.8560  1.4955 -1.0886
 9193SOL     OW28477   3.959   3.092   2.301 -0.2041 -0.5617 -0.3506
 9193SOL    HW128478   3.919   3.041   2.225  1.4146 -2.9579  0.2760
 9193SOL    HW228479   3.999   3.177   2.267 -1.6024 -0.4265 -1.7364
 9194SOL     OW28480   3.838   6.485   3.696 -0.0539  0.5345  0.1855
 9194SOL    HW128481   3.907   6.558   3.691 -1.0638  1.4739 -0.5213
 9194SOL    HW228482   3.829   6.454   3.790 -0.0406  1.7595  0.6079
 9195SOL     OW28483   0.419   2.601   2.889 -0.2852  0.8799 -0.3862
 9195SOL    HW128484   0.424   2.599   2.790  1.9765 -2.9124 -0.3414
 9195SOL    HW228485   0.377   2.517   2.923  0.9229  1.1054  1.9060
 9196SOL     OW28486   5.494   0.449   2.851 -0.2161 -0.0625 -0.3950
 9196SOL    HW128487   5.586   0.440   2.812 -0.3575 -1.3126 -0.4709
 9196SOL    HW228488   5.497   0.512   2.929  0.4275  0.9898 -1.2473
 9197SOL     OW28489   3.825   2.948   5.735 -0.6743  0.2949  0.2483
 9197SOL    HW128490   3.871   3.010   5.799  0.2146 -0.1852  0.0939
 9197SOL    HW228491   3.831   2.854   5.768 -1.2441  0.1806  0.0455
 9198SOL     OW28492   0.218   6.222   4.265  0.0892 -0.2349 -0.0850
 9198SOL    HW128493   0.159   6.142   4.274 -1.6956  0.8648 -1.4345
 9198SOL    HW228494   0.177   6.299   4.314 -0.1763  0.8106 -1.8524
 9199SOL     OW28495   6.746   3.801   5.121  0.7814 -0.1878  0.2746
 9199SOL    HW128496   6.838   3.791   5.084  1.4968  2.6962  0.9757
 9199SOL    HW228497   6.747   3.781   5.219  0.6728 -0.1770  0.2778
 9200SOL     OW28498   4.908   6.221   1.181 -0.3492 -0.4139  0.2035
 9200SOL    HW128499   4.811   6.198   1.179 -1.1573  2.6142 -1.3515
 9200SOL    HW228500   4.941   6.233   1.087  0.8486  1.0426  0.7616
 9201SOL     OW28501   6.722   1.849   4.847  0.6068  0.5808  0.3965
 9201SOL    HW128502   6.765   1.768   4.886  0.9899  0.0426 -1.1124
 9201SOL    HW228503   6.648   1.822   4.785  0.6490  1.3857 -0.0254
 9202SOL     OW28504   2.289   0.241   5.376  0.3379  0.1715  0.4688
 9202SOL    HW128505   2.363   0.194   5.423  0.2460  0.7679  1.2318
 9202SOL    HW228506   2.290   0.338   5.401 -1.3224  0.0081  1.3112
 9203SOL     OW28507   6.498   3.188   1.045  0.2779  0.1446 -0.8501
 9203SOL    HW128508   6.527   3.179   1.140 -2.0314  1.2228  0.0463
 9203SOL    HW228509   6.566   3.240   0.994  1.3805 -0.1266  0.3079
 9204SOL     OW28510   6.547   3.210   1.833  0.6158  0.0864 -0.3652
 9204SOL    HW128511   6.517   3.186   1.925  0.5495 -1.5373 -0.7678
 9204SOL    HW228512   6.503   3.294   1.804 -0.2423  0.0038  0.6540
 9205SOL     OW28513   5.047   3.450   6.384  0.2348 -0.7792 -0.2594
 9205SOL    HW128514   4.948   3.458   6.393  0.5090  1.7317  1.4746
 9205SOL    HW228515   5.090   3.457   6.474  2.1245  2.0128 -1.2314
 9206SOL     OW28516   0.358   1.963   4.802  0.0165 -0.5845  0.0212
 9206SOL    HW128517   0.417   2.001   4.730  0.9870 -1.6794  0.2138
 9206SOL    HW228518   0.330   1.870   4.777 -0.8120 -0.4515  0.4180
 9207SOL     OW28519   6.076   4.969   6.475 -0.4120  0.1284 -0.4010
 9207SOL    HW128520   6.108   4.978   6.380  0.3506  1.1264 -0.0641
 9207SOL    HW228521   6.111   5.045   6.529  0.2018 -1.1014  0.9829
 9208SOL     OW28522   0.699   2.984   6.315  0.3145  0.0008  0.0614
 9208SOL    HW128523   0.665   2.928   6.390  1.4876 -1.4600 -0.4320
 9208SOL    HW228524   0.769   2.933   6.265 -1.5252  0.2545 -3.0428
 9209SOL     OW28525   5.964   0.826   3.016  0.0647 -0.0654  0.5059
 9209SOL    HW128526   6.057   0.802   3.044 -0.4063 -0.8674  1.4272
 9209SOL    HW228527   5.921   0.881   3.088 -0.0221  0.7255 -0.1282
 9210SOL     OW28528   2.156   0.249   1.681  0.0409  0.6257  0.2614
 9210SOL    HW128529   2.135   0.293   1.593 -0.4888  3.4206  1.6744
 9210SOL    HW228530   2.252   0.221   1.682 -0.0197  0.2439 -1.2946
 9211SOL     OW28531   4.462   0.878   6.871 -0.1642  0.4282 -0.2439
 9211SOL    HW128532   4.422   0.788   6.885  1.0223 -0.1036 -0.1790
 9211SOL    HW228533   4.410   0.946   6.924 -1.1014 -0.1888 -0.3388
 9212SOL     OW28534   4.753   3.098   6.546  0.4049 -0.4263 -0.3034
 9212SOL    HW128535   4.685   3.153   6.499  2.1807  2.1420 -0.0410
 9212SOL    HW228536   4.754   3.005   6.507 -2.3443 -0.2091 -1.0834
 9213SOL     OW28537   2.007   6.652   4.988  0.2115  0.4003 -0.6212
 9213SOL    HW128538   2.058   6.726   5.032 -0.2429 -0.3307  1.2393
 9213SOL    HW228539   1.993   6.674   4.892  1.8889  1.7525 -0.6109
 9214SOL     OW28540   6.911   0.414   3.427  0.5380  0.4325 -0.4090
 9214SOL    HW128541   6.825   0.387   3.384 -0.4991  0.7590  1.3380
 9214SOL    HW228542   6.945   0.339   3.484  1.7280  0.1049 -1.5143
 9215SOL     OW28543   1.527   6.551   3.187  0.2341  0.0676  0.0098
 9215SOL    HW128544   1.430   6.537   3.167 -0.4790  0.2949  2.8736
 9215SOL    HW228545   1.578   6.468   3.165 -0.8338 -0.5381 -0.2570
 9216SOL     OW28546   0.260   1.344   3.362  0.1954  0.0952 -0.2844
 9216SOL    HW128547   0.296   1.429   3.322 -1.7316  0.0889 -2.2630
 9216SOL    HW228548   0.171   1.363   3.405  1.0039 -0.4489  1.7500
 9217SOL     OW28549   4.886   2.275   4.841  0.1760 -0.5236  0.3041
 9217SOL    HW128550   4.848   2.354   4.793  0.1495 -1.3833 -1.1610
 9217SOL    HW228551   4.923   2.304   4.929 -2.6501  0.6042  1.2599
 9218SOL     OW28552   5.488   3.259   4.963 -0.1087  0.4991 -0.2014
 9218SOL    HW128553   5.545   3.340   4.947  1.1537 -0.4343 -0.6011
 9218SOL    HW228554   5.394   3.279   4.936  0.0844  1.9646  0.1161
 9219SOL     OW28555   3.896   2.720   5.435  0.6327  0.5090  0.3945
 9219SOL    HW128556   3.990   2.689   5.446  1.1248  1.9400  0.3782
 9219SOL    HW228557   3.890   2.783   5.358 -0.3891  0.2210  0.2302
 9220SOL     OW28558   6.786   0.360   3.991  0.5728 -0.4894  0.8488
 9220SOL    HW128559   6.703   0.354   3.935  0.9037 -2.8542  0.5019
 9220SOL    HW228560   6.762   0.391   4.083 -0.3334  1.0770  0.1226
 9221SOL     OW28561   2.554   2.031   3.115  0.1855 -0.1069 -0.2850
 9221SOL    HW128562   2.476   1.969   3.119 -1.2274  1.6292  0.4799
 9221SOL    HW228563   2.638   1.978   3.101 -1.0569 -2.0593 -0.7503
 9222SOL     OW28564   1.956   4.460   2.727  0.0189 -0.1160  0.4980
 9222SOL    HW128565   1.982   4.459   2.630  0.3331 -1.4555  0.5787
 9222SOL    HW228566   1.893   4.536   2.744 -0.7543 -0.3914 -0.9545
 9223SOL     OW28567   2.083   2.441   0.170  0.1908  0.2831 -0.5378
 9223SOL    HW128568   1.995   2.477   0.201  0.4658  1.3282 -0.9082
 9223SOL    HW228569   2.120   2.379   0.240 -1.9654 -2.2083 -1.4453
 9224SOL     OW28570   1.156   5.996   1.598 -0.0136  0.5619 -0.2342
 9224SOL    HW128571   1.211   6.028   1.676  0.8119  2.9087 -1.6643
 9224SOL    HW228572   1.110   6.074   1.556  1.1262 -0.2344 -3.2468
 9225SOL     OW28573   0.036   5.521   6.946 -0.1452 -0.4176  0.2721
 9225SOL    HW128574  -0.040   5.457   6.958 -1.2566  0.8248  0.1994
 9225SOL    HW228575   0.019   5.603   7.001  0.3287  0.5675 -0.9902
 9226SOL     OW28576   0.379   4.455   4.478 -0.7163  0.3018 -0.3875
 9226SOL    HW128577   0.330   4.465   4.391 -0.4168 -0.7462 -0.6924
 9226SOL    HW228578   0.362   4.365   4.516 -0.0855  0.4090  0.1690
 9227SOL     OW28579   4.994   1.877   0.693  0.3608  0.1200  0.3968
 9227SOL    HW128580   4.901   1.845   0.672 -0.2220  2.1067 -0.2034
 9227SOL    HW228581   5.060   1.810   0.660 -0.8085 -0.5703 -0.6249
 9228SOL     OW28582   4.046   3.493   2.978  0.0227 -0.0963  0.1994
 9228SOL    HW128583   4.086   3.464   3.065 -0.3847 -0.1113  0.3840
 9228SOL    HW228584   4.040   3.592   2.976 -1.3198 -0.1339  0.8152
 9229SOL     OW28585   6.928   5.557   2.781  0.0081 -0.0345  0.1298
 9229SOL    HW128586   6.899   5.519   2.693 -4.9977 -0.2926  1.5907
 9229SOL    HW228587   6.939   5.483   2.847  3.8764  0.1435 -0.0553
 9230SOL     OW28588   2.966   4.931   5.914 -0.3260 -0.5419  0.1345
 9230SOL    HW128589   3.029   4.997   5.954 -1.2140  0.7877 -0.5660
 9230SOL    HW228590   2.940   4.962   5.822 -1.8668 -1.1171  0.3479
 9231SOL     OW28591   5.577   6.562   1.550 -0.4678 -0.5745  0.4205
 9231SOL    HW128592   5.518   6.533   1.625 -1.3885 -1.5956 -0.6649
 9231SOL    HW228593   5.640   6.488   1.527  0.3862  0.0408  0.7100
 9232SOL     OW28594   3.007   5.348   3.418  0.0049  0.2149 -0.1393
 9232SOL    HW128595   3.105   5.368   3.414 -0.3221  1.6911 -1.9979
 9232SOL    HW228596   2.955   5.433   3.419 -1.2841 -0.5489  0.6975
 9233SOL     OW28597   6.758   6.836   4.639 -0.1368 -0.2444  0.0677
 9233SOL    HW128598   6.824   6.911   4.636 -0.1795 -0.0847  1.8526
 9233SOL    HW228599   6.728   6.822   4.734 -0.8862 -1.8677 -0.3729
 9234SOL     OW28600   2.986   4.233   0.532  0.4280  0.7814 -0.1538
 9234SOL    HW128601   3.002   4.254   0.628  0.1407 -1.1774  0.3571
 9234SOL    HW228602   2.922   4.156   0.524 -0.4685  1.6287 -1.9452
 9235SOL     OW28603   0.417   3.167   2.606  0.2379  0.5564  0.3950
 9235SOL    HW128604   0.472   3.246   2.634  1.2634 -0.0793  0.1896
 9235SOL    HW228605   0.441   3.140   2.513 -1.4680  1.1601 -0.2711
 9236SOL     OW28606   2.138   5.140   6.648 -0.1992 -0.6501 -0.1440
 9236SOL    HW128607   2.067   5.210   6.660 -1.2695 -1.7362  0.1659
 9236SOL    HW228608   2.097   5.059   6.606  0.3919 -2.0399  1.8163
 9237SOL     OW28609   6.413   5.404   4.960 -0.1593  0.1118  0.5054
 9237SOL    HW128610   6.494   5.362   5.000  1.2105  0.4806 -1.6960
 9237SOL    HW228611   6.379   5.348   4.885 -1.8306  0.1045  1.2059
 9238SOL     OW28612   3.535   1.819   6.860  0.4556  0.3466  0.6452
 9238SOL    HW128613   3.523   1.917   6.873  2.9458  1.3852 -3.1637
 9238SOL    HW228614   3.467   1.785   6.794  1.1615  0.1494 -0.0031
 9239SOL     OW28615   1.778   5.626   5.940 -0.2653  0.1676  0.4861
 9239SOL    HW128616   1.770   5.558   6.013  2.2407  1.3479  1.9895
 9239SOL    HW228617   1.842   5.698   5.968 -1.0744  1.9716 -1.9484
 9240SOL     OW28618   3.283   2.313   6.185 -0.1650  0.4311 -0.1713
 9240SOL    HW128619   3.195   2.360   6.194 -0.1541  0.6766 -1.2224
 9240SOL    HW228620   3.350   2.376   6.146  0.0899 -0.1828 -0.7476
 9241SOL     OW28621   5.068   6.153   6.020  0.2200 -0.1266  0.3324
 9241SOL    HW128622   5.145   6.090   6.025 -0.5692 -1.3142 -1.3790
 9241SOL    HW228623   5.067   6.197   5.930 -1.8314 -1.1706 -0.2072
 9242SOL     OW28624   3.070   2.229   0.770 -0.0306 -0.2000  0.2592
 9242SOL    HW128625   2.991   2.197   0.822 -1.1348 -0.3691 -1.4147
 9242SOL    HW228626   3.094   2.160   0.701 -0.1286  0.9871 -1.0075
 9243SOL     OW28627   2.482   2.672   6.401  0.1503 -0.0773 -0.5491
 9243SOL    HW128628   2.570   2.645   6.440 -0.0960 -1.9052 -1.1742
 9243SOL    HW228629   2.490   2.678   6.302 -0.8642 -2.2381 -0.8156
 9244SOL     OW28630   3.887   5.721   4.982 -0.0887  0.1050 -0.5541
 9244SOL    HW128631   3.901   5.712   4.884  0.2676 -0.6827 -0.4369
 9244SOL    HW228632   3.844   5.639   5.018  2.0733 -0.7209  0.3449
 9245SOL     OW28633   6.117   3.815   3.684 -0.0915  0.1830 -0.3885
 9245SOL    HW128634   6.029   3.790   3.642 -0.6293 -0.7330  1.1490
 9245SOL    HW228635   6.100   3.875   3.762  0.5292 -0.8551  0.5744
 9246SOL     OW28636   4.057   0.376   6.351 -0.0802  0.0281  0.6689
 9246SOL    HW128637   4.066   0.306   6.421 -2.0243 -1.4013 -0.4247
 9246SOL    HW228638   4.082   0.338   6.262  0.5480  1.2652  0.2962
 9247SOL     OW28639   2.392   5.581   2.887 -0.1728 -0.1202 -0.2518
 9247SOL    HW128640   2.343   5.640   2.951 -0.3736  0.4943 -0.9445
 9247SOL    HW228641   2.473   5.542   2.931 -0.2988  0.3023  0.3613
 9248SOL     OW28642   2.195   6.084   0.708 -0.2300 -0.2510 -0.5134
 9248SOL    HW128643   2.117   6.049   0.760 -0.4724  1.3359  0.2496
 9248SOL    HW228644   2.213   6.023   0.631 -0.6415 -2.0048  0.7062
 9249SOL     OW28645   1.185   1.392   0.392 -0.2580  0.3385 -0.0140
 9249SOL    HW128646   1.175   1.452   0.471  1.2771  1.9160 -0.9377
 9249SOL    HW228647   1.184   1.447   0.308  1.2675 -0.9188 -0.9051
 9250SOL     OW28648   0.946   3.632   3.066  0.3071 -0.5495  0.2464
 9250SOL    HW128649   1.031   3.579   3.057  0.8271  0.5067 -1.4992
 9250SOL    HW228650   0.965   3.729   3.047 -1.5232 -0.4829 -1.5783
 9251SOL     OW28651   3.761   1.137   1.170  0.0916 -0.2240 -0.1168
 9251SOL    HW128652   3.823   1.173   1.100  1.0834  0.9013  1.2897
 9251SOL    HW228653   3.668   1.136   1.134  0.0361  3.3974 -0.4689
 9252SOL     OW28654   0.084   0.808   4.233  0.5360  0.7356 -0.2953
 9252SOL    HW128655   0.032   0.870   4.292 -1.3105 -2.3322  1.6075
 9252SOL    HW228656   0.041   0.805   4.142  0.4385  1.9418 -0.2992
 9253SOL     OW28657   3.261   5.803   3.220 -0.5077  0.6095 -0.4599
 9253SOL    HW128658   3.321   5.800   3.300  2.4792 -1.0339 -2.5485
 9253SOL    HW228659   3.176   5.754   3.240  0.0699  0.4025  1.7304
 9254SOL     OW28660   6.181   0.130   0.808  0.8440  0.4161 -0.0924
 9254SOL    HW128661   6.267   0.078   0.803  1.8826  2.1042 -0.8148
 9254SOL    HW228662   6.104   0.067   0.805  2.0369 -1.0862 -1.0360
 9255SOL     OW28663   1.389   3.305   0.536 -0.7239  0.5994  0.1019
 9255SOL    HW128664   1.299   3.262   0.547 -0.1853 -0.6452 -0.2686
 9255SOL    HW228665   1.409   3.315   0.438  0.4082 -1.0094  0.1504
 9256SOL     OW28666   1.532   6.480   2.184  0.6050  0.1235  0.0069
 9256SOL    HW128667   1.573   6.489   2.093 -2.4432 -0.3203 -1.5415
 9256SOL    HW228668   1.476   6.397   2.188  0.8939 -0.0383  2.4448
 9257SOL     OW28669   6.639   6.505   4.812  0.2781 -0.1078  0.6726
 9257SOL    HW128670   6.540   6.489   4.811  0.1584  0.5253 -0.7595
 9257SOL    HW228671   6.685   6.426   4.772  0.2607  0.0722  0.2965
 9258SOL     OW28672   5.544   5.450   3.698  0.3330  0.5302 -0.0806
 9258SOL    HW128673   5.636   5.487   3.682 -0.1018  1.5641 -0.2590
 9258SOL    HW228674   5.477   5.523   3.686 -0.3577  0.3923  2.4294
 9259SOL     OW28675   2.373   3.031   6.343  0.0698 -0.3242  0.0237
 9259SOL    HW128676   2.382   3.126   6.316 -0.2473 -0.0625  0.7892
 9259SOL    HW228677   2.425   3.015   6.428  0.9091 -1.0691 -0.6105
 9260SOL     OW28678   5.714   5.053   5.769  0.3451  0.1488  0.1989
 9260SOL    HW128679   5.655   5.027   5.846 -0.8499 -0.4407 -0.8635
 9260SOL    HW228680   5.711   5.152   5.756  0.7635  0.2845  1.0493
 9261SOL     OW28681   1.115   3.446   0.236  0.1538  0.2805 -0.0239
 9261SOL    HW128682   1.060   3.471   0.157  0.4150 -1.2598 -0.7236
 9261SOL    HW228683   1.196   3.504   0.239 -0.4852  1.2170 -0.1208
 9262SOL     OW28684   5.838   5.803   6.618  0.1216 -1.0336 -0.3884
 9262SOL    HW128685   5.853   5.868   6.693 -0.2238  0.1805 -1.3273
 9262SOL    HW228686   5.901   5.726   6.627  0.9687 -0.2700  0.4283
 9263SOL     OW28687   0.767   4.807   3.041  0.2951  0.0374 -0.1200
 9263SOL    HW128688   0.742   4.729   2.983 -0.1304  0.8752 -1.0841
 9263SOL    HW228689   0.685   4.845   3.083  0.5985 -0.5614  1.0733
 9264SOL     OW28690   6.805   5.361   5.266 -0.3693 -0.5331  0.1017
 9264SOL    HW128691   6.875   5.303   5.224 -0.0077  1.1278 -1.7630
 9264SOL    HW228692   6.812   5.355   5.366  2.5456 -0.3478 -0.0080
 9265SOL     OW28693   3.778   0.638   2.056  0.3045 -0.2229  0.0060
 9265SOL    HW128694   3.741   0.652   2.148 -0.0849 -0.7300 -0.0697
 9265SOL    HW228695   3.714   0.584   2.002  0.0142  1.0005 -0.9287
 9266SOL     OW28696   5.150   5.205   3.890 -0.1072  0.3005  0.4788
 9266SOL    HW128697   5.233   5.150   3.876 -1.6114 -1.4402 -2.9929
 9266SOL    HW228698   5.156   5.289   3.836 -0.4918  0.3067  0.4447
 9267SOL     OW28699   6.304   1.182   3.624  0.1875 -0.2219 -0.8048
 9267SOL    HW128700   6.376   1.239   3.584 -1.1368  0.2013 -2.7051
 9267SOL    HW228701   6.214   1.219   3.599 -0.7080 -1.8036 -0.0857
 9268SOL     OW28702   0.986   0.714   5.762 -0.0576 -0.5809 -0.5929
 9268SOL    HW128703   1.034   0.719   5.849 -2.5500 -1.7136  0.9481
 9268SOL    HW228704   1.000   0.799   5.711 -0.2785  1.0415  1.9009
 9269SOL     OW28705   3.732   5.306   2.429 -0.4507 -0.4555 -0.5107
 9269SOL    HW128706   3.685   5.303   2.517  0.7580 -0.0995  0.1804
 9269SOL    HW228707   3.682   5.252   2.362 -0.9486 -1.4545  0.6265
 9270SOL     OW28708   1.372   0.094   5.011 -0.4868  0.0678 -0.0537
 9270SOL    HW128709   1.349   0.019   4.949 -3.8062  1.0969 -0.2740
 9270SOL    HW228710   1.413   0.169   4.959 -0.6907 -0.1306 -0.5053
 9271SOL     OW28711   1.858   4.430   6.086  0.3095  0.1571  0.4911
 9271SOL    HW128712   1.777   4.382   6.117  0.6202  0.6462  2.1659
 9271SOL    HW228713   1.836   4.483   6.004 -0.5182 -1.2702 -0.2443
 9272SOL     OW28714   5.340   0.798   4.975  0.3480  0.2030 -0.0595
 9272SOL    HW128715   5.391   0.818   4.892 -0.6737  0.9157 -0.5324
 9272SOL    HW228716   5.268   0.866   4.988 -1.1245 -1.2968  0.0503
 9273SOL     OW28717   0.289   2.931   2.727  0.7686 -0.0260  0.0424
 9273SOL    HW128718   0.336   3.008   2.684 -0.0542  1.3711  1.5415
 9273SOL    HW228719   0.210   2.965   2.777  0.9112 -1.7520  1.5101
 9274SOL     OW28720   6.164   4.031   2.090 -0.1535  0.3277 -0.0517
 9274SOL    HW128721   6.099   4.012   2.016  0.7364 -0.5591 -0.6258
 9274SOL    HW228722   6.156   3.962   2.161  0.0312  0.3296 -0.0291
 9275SOL     OW28723   5.937   1.373   0.199  0.4432  0.0134 -0.1431
 9275SOL    HW128724   5.901   1.375   0.293  0.1803 -0.8415 -0.2152
 9275SOL    HW228725   5.917   1.284   0.158 -2.2179  1.3921 -2.0985
 9276SOL     OW28726   3.381   2.462   0.206 -0.5172 -0.6428 -0.1103
 9276SOL    HW128727   3.463   2.481   0.261 -0.8327 -1.4114  0.6467
 9276SOL    HW228728   3.308   2.431   0.266 -1.0319 -1.0161 -0.9192
 9277SOL     OW28729   3.882   5.833   3.378 -0.4848 -0.2738 -0.0020
 9277SOL    HW128730   3.960   5.827   3.441  1.1051 -1.5945 -1.9414
 9277SOL    HW228731   3.875   5.748   3.326 -1.6834  0.7695 -1.6397
 9278SOL     OW28732   1.406   5.703   4.832 -0.3534  0.2561  0.2804
 9278SOL    HW128733   1.440   5.794   4.811  2.2148 -0.2476  1.7511
 9278SOL    HW228734   1.426   5.641   4.755  1.8621  0.0892  0.8988
 9279SOL     OW28735   4.699   5.886   2.090 -0.5983  0.7403  0.2966
 9279SOL    HW128736   4.610   5.897   2.133 -1.3252 -0.4719 -0.8148
 9279SOL    HW228737   4.689   5.835   2.004  0.8597  2.5796 -1.0517
 9280SOL     OW28738   0.471   3.683   2.826  0.5824  0.1165  0.5772
 9280SOL    HW128739   0.564   3.647   2.831  0.7689  0.4533 -0.3018
 9280SOL    HW228740   0.406   3.607   2.824  0.9761 -0.2330 -1.3120
 9281SOL     OW28741   0.604   6.258   2.038 -0.1534 -0.3602  0.3082
 9281SOL    HW128742   0.528   6.261   1.974  0.1200  0.5397  0.0109
 9281SOL    HW228743   0.672   6.192   2.006  0.1883  0.4019 -0.5738
 9282SOL     OW28744   1.584   1.264   3.218  0.0252  0.1445  0.3897
 9282SOL    HW128745   1.618   1.290   3.128  1.2644  0.4478  0.9188
 9282SOL    HW228746   1.609   1.335   3.284 -2.7317  1.0064  0.6288
 9283SOL     OW28747   6.941   4.975   6.954  0.0164  0.3807 -0.2700
 9283SOL    HW128748   6.959   5.073   6.940 -2.4278  0.9669  0.1379
 9283SOL    HW228749   6.920   4.959   7.051  1.7626 -0.8428 -0.0520
 9284SOL     OW28750   4.841   6.926   0.475 -0.1036 -0.2318  0.2617
 9284SOL    HW128751   4.776   6.931   0.551 -0.1686  1.1972  0.1296
 9284SOL    HW228752   4.852   7.016   0.434  0.7225 -0.7824 -0.7776
 9285SOL     OW28753   5.819   5.471   3.563 -0.4804  0.2665  0.0431
 9285SOL    HW128754   5.795   5.378   3.536  0.8996 -0.0675 -0.1074
 9285SOL    HW228755   5.862   5.519   3.487 -0.1194  0.6393  0.4700
 9286SOL     OW28756   6.167   6.862   2.515  0.1574 -0.2006 -0.6678
 9286SOL    HW128757   6.144   6.837   2.421 -0.9357 -1.3077 -0.1357
 9286SOL    HW228758   6.150   6.960   2.529 -0.3918 -0.1865 -1.4084
 9287SOL     OW28759   4.764   4.757   0.041  0.4190 -0.1281  0.3294
 9287SOL    HW128760   4.721   4.713   0.119 -0.0350  0.7031  0.5592
 9287SOL    HW228761   4.737   4.853   0.037  0.4248 -0.1546 -0.8610
 9288SOL     OW28762   3.959   0.172   5.766  0.3754  0.0077 -0.1616
 9288SOL    HW128763   3.954   0.178   5.866  1.6293 -0.9074 -0.0203
 9288SOL    HW228764   3.867   0.177   5.728 -0.4207 -2.2511  1.2270
 9289SOL     OW28765   4.688   4.909   1.938 -0.5818 -0.4849  0.3431
 9289SOL    HW128766   4.630   4.900   1.856  0.6187 -0.7513 -0.5079
 9289SOL    HW228767   4.632   4.941   2.015 -1.7866 -0.4362 -0.5166
 9290SOL     OW28768   4.782   6.528   3.260 -0.4250 -0.2938 -0.3236
 9290SOL    HW128769   4.748   6.457   3.321  0.3724  0.3615  0.9318
 9290SOL    HW228770   4.786   6.615   3.309  0.5172  0.1934 -1.2160
 9291SOL     OW28771   6.405   4.971   5.882  0.5563  0.4130 -0.0487
 9291SOL    HW128772   6.437   4.986   5.975  0.1877 -0.8487  0.2915
 9291SOL    HW228773   6.315   4.928   5.884 -0.5312  2.4818 -0.9927
 9292SOL     OW28774   2.609   2.350   1.562 -0.5238  0.4524  0.2560
 9292SOL    HW128775   2.647   2.282   1.625 -1.0288 -1.2515 -1.1925
 9292SOL    HW228776   2.682   2.408   1.528  0.1952 -0.3870  0.3263
 9293SOL     OW28777   3.164   0.731   1.390 -0.1797 -0.2532  0.4854
 9293SOL    HW128778   3.212   0.745   1.303 -0.6273  0.0938  0.2845
 9293SOL    HW228779   3.202   0.791   1.459 -0.5079  0.2430  0.2481
 9294SOL     OW28780   4.101   5.543   6.357 -0.0403  0.5927 -0.3290
 9294SOL    HW128781   4.008   5.520   6.384  0.2443 -0.5804 -0.2861
 9294SOL    HW228782   4.150   5.460   6.332  0.0166  1.4655 -3.5886
 9295SOL     OW28783   6.274   0.790   3.511  0.3422  0.4924 -0.1546
 9295SOL    HW128784   6.322   0.840   3.439  3.7477  0.3572  1.7674
 9295SOL    HW228785   6.238   0.856   3.578  2.9515  0.6366  1.2636
 9296SOL     OW28786   1.364   2.860   6.171 -0.3516  0.5006 -0.3077
 9296SOL    HW128787   1.433   2.791   6.150  0.2883  0.4163  1.8563
 9296SOL    HW228788   1.357   2.925   6.095  0.2080 -0.9768 -1.6690
 9297SOL     OW28789   1.852   4.463   1.465  0.5025  0.0002 -0.0514
 9297SOL    HW128790   1.789   4.524   1.416 -0.3931 -0.0627  0.9938
 9297SOL    HW228791   1.801   4.385   1.501  1.4715 -0.8747 -0.5348
 9298SOL     OW28792   0.217   4.766   0.882 -0.0138 -0.0475  0.6239
 9298SOL    HW128793   0.150   4.743   0.811  1.3543 -1.1964 -0.3524
 9298SOL    HW228794   0.196   4.715   0.966 -0.4805 -0.2315  0.3989
 9299SOL     OW28795   5.146   2.909   3.904 -0.1759 -0.3972  0.1107
 9299SOL    HW128796   5.166   2.876   3.812  0.8224 -1.9295  0.8279
 9299SOL    HW228797   5.222   2.886   3.965  0.0027  2.1432  0.9869
 9300SOL     OW28798   1.669   6.897   5.544  0.3182  0.0517  0.3412
 9300SOL    HW128799   1.594   6.856   5.493 -0.1669 -0.0221  1.0956
 9300SOL    HW228800   1.723   6.825   5.588 -1.3321  0.1839  2.7900
 9301SOL     OW28801   0.516   5.350   3.957 -0.3020  0.1762  0.2604
 9301SOL    HW128802   0.596   5.292   3.939  0.4415  1.7545 -2.0164
 9301SOL    HW228803   0.544   5.429   4.011  0.1000  1.4797 -1.7354
 9302SOL     OW28804   2.257   6.604   3.825 -0.6708  0.5152  0.0141
 9302SOL    HW128805   2.195   6.671   3.783 -1.5556 -0.2827  0.0134
 9302SOL    HW228806   2.273   6.528   3.762 -1.3644 -0.2998  0.7850
 9303SOL     OW28807   3.927   4.699   0.886 -0.5662  0.5487  0.2250
 9303SOL    HW128808   4.026   4.701   0.897 -0.7159  1.4844  1.8166
 9303SOL    HW228809   3.904   4.701   0.789  0.9576 -1.4846 -0.2533
 9304SOL     OW28810   6.340   4.384   5.894  0.5735 -0.3166  0.2831
 9304SOL    HW128811   6.286   4.337   5.964 -0.4708 -0.8541 -0.8469
 9304SOL    HW228812   6.428   4.337   5.884 -0.7921 -2.7883 -1.4851
 9305SOL     OW28813   2.127   2.574   2.286 -0.4414 -0.2221 -0.0214
 9305SOL    HW128814   2.077   2.545   2.205 -0.1551  0.0163 -0.2856
 9305SOL    HW228815   2.206   2.514   2.300 -0.4819 -0.2539  0.0721
 9306SOL     OW28816   1.748   6.866   3.566  0.3093  0.3159 -0.1963
 9306SOL    HW128817   1.697   6.803   3.506 -0.7005 -0.3416  1.2953
 9306SOL    HW228818   1.748   6.831   3.659  0.9853  1.8235  0.4062
 9307SOL     OW28819   1.806   4.242   2.596  0.2672  0.3935 -0.0705
 9307SOL    HW128820   1.875   4.174   2.571  1.2022  0.6789  1.5775
 9307SOL    HW228821   1.790   4.304   2.519  0.4346 -0.8188 -1.1104
 9308SOL     OW28822   2.844   2.747   0.442 -0.8404 -0.8419 -0.0161
 9308SOL    HW128823   2.790   2.691   0.379 -0.8086 -0.2714 -0.5567
 9308SOL    HW228824   2.894   2.816   0.391  1.2154 -1.9802  0.3748
 9309SOL     OW28825   3.028   4.426   6.649  0.5427  0.3472 -0.0738
 9309SOL    HW128826   3.054   4.354   6.585  0.9808 -0.6311  1.1687
 9309SOL    HW228827   3.107   4.484   6.669  0.5906  0.2013  0.1552
 9310SOL     OW28828   6.994   0.498   6.852  0.0739  0.5348 -0.1752
 9310SOL    HW128829   7.023   0.553   6.773  1.3928 -0.2098 -0.2327
 9310SOL    HW228830   6.906   0.531   6.885 -0.0602  1.4514 -1.3922
 9311SOL     OW28831   6.267   5.073   0.166 -0.1652 -0.4150 -0.0569
 9311SOL    HW128832   6.306   5.016   0.239  0.2125  0.6376  0.5896
 9311SOL    HW228833   6.264   5.168   0.196 -0.5130 -0.0355 -1.2288
 9312SOL     OW28834   6.180   2.802   5.233 -0.1891 -0.1586 -0.0743
 9312SOL    HW128835   6.085   2.829   5.252 -0.3203 -0.7335  0.1246
 9312SOL    HW228836   6.228   2.877   5.188 -0.8348  0.0280 -0.4699
 9313SOL     OW28837   6.847   6.370   3.387 -0.7030 -0.1223 -0.5051
 9313SOL    HW128838   6.792   6.375   3.470 -1.9138 -1.6756 -1.1502
 9313SOL    HW228839   6.858   6.461   3.347 -0.0891  0.6468  1.3319
 9314SOL     OW28840   5.383   5.937   2.174  0.5317 -0.1837 -0.2668
 9314SOL    HW128841   5.391   5.929   2.075  2.1150  0.3679 -0.2054
 9314SOL    HW228842   5.291   5.909   2.202 -0.5819  1.3688 -2.0804
 9315SOL     OW28843   4.713   4.571   6.413 -0.2409 -0.3998  0.1433
 9315SOL    HW128844   4.802   4.526   6.409  0.2708  0.6078 -0.1177
 9315SOL    HW228845   4.668   4.562   6.324 -0.0662 -0.2700  0.0385
 9316SOL     OW28846   2.919   6.123   6.981  0.0263  0.1957  0.0756
 9316SOL    HW128847   3.007   6.097   7.020 -0.2455 -0.0954  0.5152
 9316SOL    HW228848   2.932   6.193   6.911  0.3206  2.7851  2.5330
 9317SOL     OW28849   4.424   0.792   3.617  0.6216 -0.1972 -0.5432
 9317SOL    HW128850   4.405   0.791   3.519 -0.7953 -1.1073 -0.2744
 9317SOL    HW228851   4.404   0.883   3.654 -1.0106 -0.4812 -0.6959
 9318SOL     OW28852   4.282   7.001   2.889  0.1329  0.5222 -0.4731
 9318SOL    HW128853   4.326   7.036   2.806  3.3575 -0.8435  0.4930
 9318SOL    HW228854   4.257   6.905   2.875  2.0689 -0.1879  0.4681
 9319SOL     OW28855   4.876   3.731   6.635 -0.1566 -0.4119 -0.5714
 9319SOL    HW128856   4.855   3.660   6.702 -0.7615  0.0110 -0.3029
 9319SOL    HW228857   4.975   3.740   6.627  0.0444  1.6213  2.5996
 9320SOL     OW28858   6.882   2.230   0.780 -0.6997  0.2282  0.4132
 9320SOL    HW128859   6.897   2.290   0.702 -0.0629  0.0632  0.4032
 9320SOL    HW228860   6.963   2.173   0.794 -2.2395 -2.6365 -1.2910
 9321SOL     OW28861   0.362   2.107   4.052 -0.8240  0.5524  0.0563
 9321SOL    HW128862   0.309   2.142   3.975 -0.3185  0.9293 -0.1190
 9321SOL    HW228863   0.399   2.183   4.105  1.2484  0.3293 -0.9830
 9322SOL     OW28864   4.266   4.006   1.116  0.0953 -0.0908 -0.2503
 9322SOL    HW128865   4.259   3.955   1.030  2.0821 -0.4190 -0.2557
 9322SOL    HW228866   4.223   4.096   1.104 -1.6835 -0.9698 -0.8434
 9323SOL     OW28867   2.219   4.081   6.244 -0.0876 -0.6471 -0.5916
 9323SOL    HW128868   2.201   4.179   6.237  0.7370 -0.3148  1.3270
 9323SOL    HW228869   2.132   4.032   6.256 -0.4353 -0.0446 -0.5993
 9324SOL     OW28870   0.589   3.177   2.264  0.0856 -0.3306  0.1317
 9324SOL    HW128871   0.500   3.218   2.287 -0.1848 -1.1002  0.5223
 9324SOL    HW228872   0.584   3.136   2.173 -0.4323 -1.5972  0.6943
 9325SOL     OW28873   6.477   3.704   4.033 -0.1513 -0.2079  0.4682
 9325SOL    HW128874   6.520   3.619   4.064 -0.4525 -0.5234  0.0483
 9325SOL    HW228875   6.492   3.715   3.935 -0.8528 -0.2288  0.3516
 9326SOL     OW28876   3.254   6.720   0.733 -0.0039 -0.3101 -0.2956
 9326SOL    HW128877   3.306   6.650   0.782 -2.5103 -1.7709  0.4612
 9326SOL    HW228878   3.263   6.704   0.634  0.6720 -0.7502 -0.1725
 9327SOL     OW28879   2.403   2.604   2.919 -0.1717  0.2066 -0.0890
 9327SOL    HW128880   2.491   2.599   2.872 -1.3528  1.0068 -2.5414
 9327SOL    HW228881   2.342   2.534   2.882 -0.8798  0.2842  0.9016
 9328SOL     OW28882   3.022   5.924   5.146  0.0411 -0.3479 -0.4265
 9328SOL    HW128883   2.941   5.960   5.101  0.8145  0.9949 -0.8114
 9328SOL    HW228884   3.029   5.963   5.238  0.8172  0.4494 -0.7991
 9329SOL     OW28885   0.771   1.884   6.746  0.1260  0.0217 -0.3737
 9329SOL    HW128886   0.712   1.867   6.667  0.8932  0.5901 -1.0832
 9329SOL    HW228887   0.722   1.859   6.829 -1.0762  0.3723 -0.9525
 9330SOL     OW28888   2.713   6.246   1.110 -0.5895 -0.1256  0.4402
 9330SOL    HW128889   2.627   6.214   1.071 -0.2416  1.8122 -2.2013
 9330SOL    HW228890   2.698   6.275   1.205 -2.4092 -1.3546  0.5846
 9331SOL     OW28891   1.298   5.995   4.586 -0.2263  0.2429  0.8326
 9331SOL    HW128892   1.295   6.068   4.519  0.0312  0.7760  1.3969
 9331SOL    HW228893   1.337   5.913   4.544 -0.7894  0.3282  0.1141
 9332SOL     OW28894   6.438   6.999   0.908  0.0759 -0.3024 -0.5970
 9332SOL    HW128895   6.419   6.901   0.900  0.6702 -0.4050 -0.8078
 9332SOL    HW228896   6.531   7.012   0.943 -0.3514  0.1866  0.4004
 9333SOL     OW28897   0.233   5.748   3.603  0.0673 -0.7895  0.0116
 9333SOL    HW128898   0.221   5.663   3.551 -2.7085 -0.2941 -0.3508
 9333SOL    HW228899   0.268   5.727   3.694  1.0641 -2.1211 -0.6557
 9334SOL     OW28900   1.752   5.858   6.994  0.4786  0.0088 -0.2424
 9334SOL    HW128901   1.688   5.917   6.943 -1.0766 -1.7861 -0.4669
 9334SOL    HW228902   1.829   5.835   6.936 -0.0430 -0.0162 -0.9379
 9335SOL     OW28903   0.306   2.170   2.856 -0.0465  0.2304 -0.0854
 9335SOL    HW128904   0.260   2.244   2.904 -0.0298 -0.7263  1.4763
 9335SOL    HW228905   0.398   2.158   2.892 -1.1334 -2.6635  2.1759
 9336SOL     OW28906   4.437   5.625   5.257 -0.0177 -0.0019 -0.0323
 9336SOL    HW128907   4.354   5.628   5.313  0.6193  0.4857  0.9169
 9336SOL    HW228908   4.486   5.712   5.266  1.1580 -0.6827  0.3040
 9337SOL     OW28909   3.884   3.201   6.236  0.3034 -0.1475  0.1538
 9337SOL    HW128910   3.976   3.216   6.198  0.0577  0.0420 -0.3774
 9337SOL    HW228911   3.871   3.104   6.254  0.5493 -0.1948  0.0793
 9338SOL     OW28912   4.684   0.374   0.603  0.2678  0.1581 -0.4766
 9338SOL    HW128913   4.726   0.446   0.547 -2.9379  0.0572 -3.3307
 9338SOL    HW228914   4.627   0.417   0.673  0.0229  0.3693 -0.8021
 9339SOL     OW28915   0.088   3.805   3.907  0.0197  0.3323  0.4932
 9339SOL    HW128916   0.024   3.755   3.848  1.0372  0.2949 -0.6177
 9339SOL    HW228917   0.056   3.899   3.919 -1.9005 -0.4913  2.5734
 9340SOL     OW28918   2.122   5.793   2.623  0.4934  0.3502 -0.4733
 9340SOL    HW128919   2.102   5.844   2.707 -0.0407  0.0671 -0.4201
 9340SOL    HW228920   2.096   5.848   2.543  0.2777  0.3152 -0.4276
 9341SOL     OW28921   6.151   5.601   2.358 -0.2796  0.2329  0.1766
 9341SOL    HW128922   6.114   5.518   2.399  1.0000 -0.4740 -0.0698
 9341SOL    HW228923   6.169   5.668   2.431  0.1076 -0.2708  0.5508
 9342SOL     OW28924   2.974   2.384   6.507  1.0641 -0.1751  0.6069
 9342SOL    HW128925   2.887   2.359   6.465  0.6360 -0.0949  1.4204
 9342SOL    HW228926   3.045   2.318   6.481  0.8447 -0.0383 -0.3434
 9343SOL     OW28927   5.184   4.901   0.563 -0.6200 -0.6005  0.1065
 9343SOL    HW128928   5.151   4.941   0.478 -0.9342  0.5840  0.7499
 9343SOL    HW228929   5.121   4.831   0.595 -1.1198 -0.2124 -0.0246
 9344SOL     OW28930   5.475   5.796   3.818 -0.0534  0.8157  0.2310
 9344SOL    HW128931   5.438   5.734   3.749  2.4771  0.0563 -0.5578
 9344SOL    HW228932   5.541   5.857   3.774 -0.9191  2.6858  1.3991
 9345SOL     OW28933   0.962   3.779   6.927 -0.3257  0.3176  0.8600
 9345SOL    HW128934   1.000   3.706   6.982  4.1267 -0.1841 -2.3225
 9345SOL    HW228935   0.894   3.742   6.863 -0.2344 -0.4502  1.2100
 9346SOL     OW28936   6.076   0.895   1.776  0.1856  0.5284 -0.4824
 9346SOL    HW128937   6.120   0.809   1.753  0.5734  0.5463  0.1607
 9346SOL    HW228938   5.982   0.895   1.742  0.5962  0.3966 -1.6676
 9347SOL     OW28939   5.090   6.036   3.174  0.1587 -0.0228  0.2743
 9347SOL    HW128940   5.031   6.036   3.093 -0.1616  0.8347  0.4994
 9347SOL    HW228941   5.051   6.096   3.244  0.1755 -1.1281  1.2624
 9348SOL     OW28942   2.404   5.797   3.235  0.3163  0.7008 -0.1636
 9348SOL    HW128943   2.478   5.824   3.174  0.2754  0.5227 -0.2920
 9348SOL    HW228944   2.372   5.706   3.210  1.8526 -0.3851  1.5581
 9349SOL     OW28945   1.938   5.177   2.605  0.2450  0.2711  0.3616
 9349SOL    HW128946   2.005   5.116   2.648 -0.7397 -0.9110  0.2962
 9349SOL    HW228947   1.966   5.272   2.619  0.1116 -0.0151  3.5043
 9350SOL     OW28948   0.302   1.577   6.619  0.1591  0.3653  0.0078
 9350SOL    HW128949   0.381   1.637   6.625  0.1656  0.2447  1.5974
 9350SOL    HW228950   0.226   1.616   6.671 -0.3104 -0.2926 -0.1646
 9351SOL     OW28951   3.497   4.742   0.371  0.2293  0.4380  0.5930
 9351SOL    HW128952   3.405   4.768   0.340 -0.3475 -0.0431  1.8429
 9351SOL    HW228953   3.524   4.657   0.324  0.8214  1.5141 -1.1285
 9352SOL     OW28954   1.327   1.163   0.447 -0.2495 -0.6129 -0.0738
 9352SOL    HW128955   1.359   1.138   0.538 -1.4175 -0.2621  0.4657
 9352SOL    HW228956   1.289   1.256   0.450  1.1442  0.0486 -1.3002
 9353SOL     OW28957   0.243   4.129   1.977 -0.6724  0.0860 -0.7129
 9353SOL    HW128958   0.152   4.168   1.985 -1.4643 -1.7258 -0.2521
 9353SOL    HW228959   0.263   4.111   1.880 -0.0804  2.0277 -0.9785
 9354SOL     OW28960   6.245   2.633   3.998 -0.5579  0.2956 -1.0075
 9354SOL    HW128961   6.320   2.569   3.983 -0.1665  0.1566  1.2259
 9354SOL    HW228962   6.214   2.669   3.910  1.7968  0.0136 -2.0265
 9355SOL     OW28963   1.074   2.456   2.245 -0.0242  0.7694 -0.1388
 9355SOL    HW128964   1.148   2.401   2.282 -0.8931  1.6595  3.3797
 9355SOL    HW228965   1.102   2.552   2.244 -0.9532  1.0885  1.0416
 9356SOL     OW28966   5.136   3.711   2.169  0.0235  0.3165  0.2277
 9356SOL    HW128967   5.137   3.775   2.092 -1.6958  2.0036  1.5454
 9356SOL    HW228968   5.218   3.724   2.224 -0.3038  1.3887  0.4757
 9357SOL     OW28969   6.862   1.784   5.482  0.7161 -0.3107  0.2835
 9357SOL    HW128970   6.923   1.707   5.465  2.3025  0.8387  0.5441
 9357SOL    HW228971   6.914   1.860   5.519 -0.7546  1.0069 -0.2398
 9358SOL     OW28972   5.380   5.651   3.617  0.8579 -0.2356  0.3482
 9358SOL    HW128973   5.282   5.640   3.603  0.5675 -0.1521  2.0761
 9358SOL    HW228974   5.415   5.720   3.554 -0.3808  0.4375  0.3712
 9359SOL     OW28975   4.123   4.840   4.633  0.2066 -0.6411  0.0543
 9359SOL    HW128976   4.174   4.857   4.549 -0.7856 -1.1354 -0.6756
 9359SOL    HW228977   4.181   4.860   4.712  0.9855  0.3622 -0.7360
 9360SOL     OW28978   1.847   0.855   4.538  0.2227  0.0249  0.0820
 9360SOL    HW128979   1.783   0.930   4.554  0.6347  0.2894  0.5360
 9360SOL    HW228980   1.838   0.822   4.445 -0.1223  0.4949 -0.0515
 9361SOL     OW28981   2.896   1.028   3.363  0.1041  0.5385 -0.0299
 9361SOL    HW128982   2.808   1.069   3.385  0.3498  2.5056 -2.3142
 9361SOL    HW228983   2.902   1.012   3.264  1.2223 -2.3531  0.4008
 9362SOL     OW28984   1.773   2.440   3.097 -0.4464 -0.2650  0.1957
 9362SOL    HW128985   1.715   2.451   3.016 -2.3505  0.6379  1.5913
 9362SOL    HW228986   1.739   2.365   3.153  0.8372 -0.8669  0.2103
 9363SOL     OW28987   0.759   4.911   1.754 -0.5131 -0.2839 -0.0217
 9363SOL    HW128988   0.693   4.963   1.700 -1.8910  0.4215  2.2215
 9363SOL    HW228989   0.825   4.974   1.795  1.0718 -0.9001 -1.5083
 9364SOL     OW28990   6.527   5.416   0.287  0.8397 -0.2758 -0.1921
 9364SOL    HW128991   6.539   5.337   0.348  1.2370 -0.0653  0.0086
 9364SOL    HW228992   6.470   5.390   0.209  1.0113 -0.7748 -0.1526
 9365SOL     OW28993   3.204   1.436   3.214  0.0320  0.1192  0.0650
 9365SOL    HW128994   3.140   1.394   3.278 -0.1100 -0.3612 -0.3798
 9365SOL    HW228995   3.297   1.409   3.236 -0.2216 -2.6332 -1.7471
 9366SOL     OW28996   6.585   1.364   1.607  0.2129 -0.3959 -0.3721
 9366SOL    HW128997   6.650   1.432   1.575 -0.8646  0.3427 -1.0499
 9366SOL    HW228998   6.524   1.337   1.532 -1.2826  0.1225  0.6031
 9367SOL     OW28999   3.244   6.592   4.065  0.2431  0.2597  0.6218
 9367SOL    HW129000   3.181   6.570   3.991 -0.5388  2.1805  0.6609
 9367SOL    HW229001   3.333   6.549   4.048 -0.6623 -1.4293 -0.0904
 9368SOL     OW29002   4.934   3.187   1.826  0.3957 -0.0565 -0.2666
 9368SOL    HW129003   5.028   3.160   1.849  0.6078  0.1818 -0.8304
 9368SOL    HW229004   4.872   3.152   1.896  1.0341  0.7970  0.7772
 9369SOL     OW29005   0.129   3.045   5.906 -0.7691 -0.0618 -0.5219
 9369SOL    HW129006   0.074   3.086   5.833 -0.9481 -1.5367 -1.2585
 9369SOL    HW229007   0.166   2.958   5.874 -0.2835 -0.4163  0.9359
 9370SOL     OW29008   6.421   0.292   1.350 -0.4385  0.1345 -0.0642
 9370SOL    HW129009   6.433   0.292   1.251  0.1535 -0.0241  0.0071
 9370SOL    HW229010   6.476   0.365   1.391 -2.6003  1.8762 -0.0617
 9371SOL     OW29011   2.472   4.921   1.809 -0.1363 -0.5018  0.2881
 9371SOL    HW129012   2.517   5.010   1.807 -0.6121 -0.1387  2.9978
 9371SOL    HW229013   2.401   4.919   1.738  0.9293  0.6440 -0.8732
 9372SOL     OW29014   6.044   0.000   0.535 -0.4024  0.4436 -0.2144
 9372SOL    HW129015   6.020   0.094   0.560 -0.3832  0.7291 -1.2100
 9372SOL    HW229016   5.979  -0.063   0.578 -1.2037  1.0057 -0.5616
 9373SOL     OW29017   5.693   2.498   2.704  0.1335  0.2296 -0.1671
 9373SOL    HW129018   5.704   2.556   2.624 -0.8403 -0.2570 -0.6672
 9373SOL    HW229019   5.668   2.554   2.783 -0.2773  0.5596 -0.5273
 9374SOL     OW29020   5.452   5.480   6.779  0.5667  0.3346  0.4838
 9374SOL    HW129021   5.419   5.470   6.873 -0.0369 -1.7217  0.1007
 9374SOL    HW229022   5.459   5.577   6.757 -1.5390  0.8670  1.8693
 9375SOL     OW29023   0.227   5.983   2.539  0.2291 -0.7997  0.3087
 9375SOL    HW129024   0.223   6.082   2.528  0.7890 -0.9134 -1.1632
 9375SOL    HW229025   0.136   5.948   2.564 -0.4122 -0.0916 -0.9324
 9376SOL     OW29026   1.684   3.066   1.620  0.3099  0.2262  0.8622
 9376SOL    HW129027   1.780   3.086   1.635  0.5387  0.2774 -0.5777
 9376SOL    HW229028   1.675   2.980   1.568 -0.4766 -0.5556  2.2238
 9377SOL     OW29029   5.458   4.799   3.847  0.0159  0.5715  0.2258
 9377SOL    HW129030   5.477   4.703   3.826  0.9592  0.8405 -0.2254
 9377SOL    HW229031   5.507   4.825   3.931 -0.0783  0.7101  0.2376
 9378SOL     OW29032   4.158   4.841   1.387 -0.8883 -0.6343  0.5942
 9378SOL    HW129033   4.076   4.894   1.411 -1.0310 -0.4429 -0.2681
 9378SOL    HW229034   4.157   4.822   1.289 -0.1166 -1.0139  0.6549
 9379SOL     OW29035   4.642   4.373   5.032 -0.2062 -0.5011  0.4864
 9379SOL    HW129036   4.708   4.435   4.990 -0.7208 -1.6300 -2.1923
 9379SOL    HW229037   4.552   4.418   5.033 -0.0386 -0.1693  1.1664
 9380SOL     OW29038   6.506   5.922   5.300  0.3287  0.0757 -0.2535
 9380SOL    HW129039   6.523   5.824   5.300  2.3741  0.3963 -0.5944
 9380SOL    HW229040   6.482   5.952   5.208 -2.0374 -0.3294  0.1720
 9381SOL     OW29041   1.109   1.530   6.410  0.2947 -0.1377  0.1155
 9381SOL    HW129042   1.057   1.447   6.393  0.2243 -0.4893  1.9269
 9381SOL    HW229043   1.155   1.524   6.498  2.2285  0.7826 -0.7675
 9382SOL     OW29044   4.809   3.699   0.931 -0.5493 -0.8118  0.8575
 9382SOL    HW129045   4.872   3.693   0.853 -1.5239  0.8483 -0.1238
 9382SOL    HW229046   4.857   3.670   1.014  2.1202  1.8703  0.4565
 9383SOL     OW29047   6.574   6.948   0.566 -0.1871  0.1387 -0.7645
 9383SOL    HW129048   6.475   6.960   0.559 -0.3049 -0.9466 -1.1476
 9383SOL    HW229049   6.609   7.004   0.641 -1.6204 -2.0820  1.7738
 9384SOL     OW29050   4.807   1.739   2.370 -0.0644  0.4778 -0.3011
 9384SOL    HW129051   4.739   1.809   2.392 -0.5986  0.1859 -0.9822
 9384SOL    HW229052   4.873   1.777   2.306  1.2182  1.1795  1.3478
 9385SOL     OW29053   4.721   0.195   1.733 -0.3575  0.0049  0.0948
 9385SOL    HW129054   4.649   0.127   1.722  0.0219 -0.3927  0.0246
 9385SOL    HW229055   4.718   0.233   1.826  0.5334 -1.4069  0.7334
 9386SOL     OW29056   3.294   0.562   4.736 -0.3076  0.6038 -1.1504
 9386SOL    HW129057   3.305   0.619   4.817 -0.1758 -1.3490  0.2699
 9386SOL    HW229058   3.319   0.614   4.655 -2.1476  3.2007 -0.1706
 9387SOL     OW29059   5.381   6.393   0.685  0.0765  0.0437 -0.0572
 9387SOL    HW129060   5.453   6.410   0.752 -0.9975  1.0415  0.9026
 9387SOL    HW229061   5.328   6.477   0.671 -0.5566 -0.5101 -1.1541
 9388SOL     OW29062   0.698   6.008   3.242  0.5415 -0.6004 -0.0806
 9388SOL    HW129063   0.598   5.995   3.242  0.6277 -1.3309 -0.5280
 9388SOL    HW229064   0.719   6.101   3.271 -0.3293 -0.0707 -1.0688
 9389SOL     OW29065   1.805   6.839   1.223 -0.4290 -0.1109 -0.2430
 9389SOL    HW129066   1.763   6.919   1.265 -0.7241 -0.7081  0.6325
 9389SOL    HW229067   1.792   6.843   1.124  0.0061  1.1649 -0.2595
 9390SOL     OW29068   5.191   6.119   1.297 -0.0928  0.1464 -0.5504
 9390SOL    HW129069   5.123   6.183   1.259 -0.5883 -0.5355 -0.8418
 9390SOL    HW229070   5.283   6.153   1.277 -0.3457  0.9097 -0.4562
 9391SOL     OW29071   6.490   0.709   2.364 -0.1505 -0.2867  0.2166
 9391SOL    HW129072   6.560   0.678   2.429 -0.6959  0.5292  1.2266
 9391SOL    HW229073   6.462   0.803   2.387  0.9912  0.7858 -2.3448
 9392SOL     OW29074   6.712   5.499   6.411 -0.6724  0.1750 -0.3712
 9392SOL    HW129075   6.731   5.493   6.509  2.7833  0.2254 -0.9264
 9392SOL    HW229076   6.663   5.584   6.392 -2.0022 -0.1449  1.3386
 9393SOL     OW29077   6.057   0.952   3.924  0.6751 -0.4385  0.2171
 9393SOL    HW129078   6.101   0.993   4.004  0.4536 -0.7084  0.4783
 9393SOL    HW229079   6.063   0.852   3.930 -1.1842 -0.5465  0.9724
 9394SOL     OW29080   0.281   1.696   2.817 -0.3670  0.4128 -0.6984
 9394SOL    HW129081   0.283   1.765   2.890  0.2831  0.3448 -0.6507
 9394SOL    HW229082   0.198   1.641   2.825 -0.0521  0.0701  0.2967
 9395SOL     OW29083   1.494   3.186   1.191  0.6752  0.3412 -0.5223
 9395SOL    HW129084   1.563   3.114   1.182  0.5114  0.1902 -0.5983
 9395SOL    HW229085   1.512   3.240   1.273  1.0440  0.4817 -0.6961
 9396SOL     OW29086   0.902   1.322   6.418 -0.1239  0.2890 -0.5075
 9396SOL    HW129087   0.956   1.297   6.337  0.3100  5.1750 -2.0227
 9396SOL    HW229088   0.808   1.342   6.389  0.2636  2.9857 -0.1024
 9397SOL     OW29089   2.416   1.228   6.390  0.1344 -0.0196  0.0822
 9397SOL    HW129090   2.391   1.287   6.313 -0.0651  1.8246  1.4600
 9397SOL    HW229091   2.516   1.220   6.395  0.1378 -0.3374 -0.5044
 9398SOL     OW29092   0.775   2.233   1.016  0.4833 -0.7702  0.7469
 9398SOL    HW129093   0.832   2.312   1.039 -0.3789  0.6981 -1.7273
 9398SOL    HW229094   0.690   2.237   1.069 -1.3433  2.3598 -2.0011
 9399SOL     OW29095   5.783   6.150   4.059  0.0494 -0.0975  0.7905
 9399SOL    HW129096   5.684   6.142   4.048  0.2919 -0.4584 -2.0352
 9399SOL    HW229097   5.814   6.237   4.021  0.8467 -0.0913  1.4174
 9400SOL     OW29098   3.230   0.878   5.237  0.3389 -0.3428 -0.8315
 9400SOL    HW129099   3.316   0.892   5.285  0.8783 -1.6458 -1.3614
 9400SOL    HW229100   3.199   0.965   5.199  0.7419  0.3911  0.4478
 9401SOL     OW29101   5.313   6.664   3.152  0.1365 -0.1174 -0.9589
 9401SOL    HW129102   5.362   6.604   3.089  0.0738 -1.8810  0.6174
 9401SOL    HW229103   5.362   6.670   3.238 -1.0174  0.3225 -0.3141
 9402SOL     OW29104   1.978   5.598   6.698 -0.1335  0.0738 -0.2126
 9402SOL    HW129105   1.928   5.645   6.771  1.2195  1.4565 -0.1142
 9402SOL    HW229106   2.005   5.665   6.628  0.7266 -0.8043 -0.7448
 9403SOL     OW29107   6.245   1.053   1.925 -0.4498  0.2935 -0.0193
 9403SOL    HW129108   6.302   1.097   1.856  2.0386 -0.8330  1.2071
 9403SOL    HW229109   6.182   0.989   1.880  0.6931  0.0134 -1.2831
 9404SOL     OW29110   2.477   4.651   6.498 -0.0661 -0.4293  0.0550
 9404SOL    HW129111   2.436   4.742   6.502  0.0531 -0.4243  1.8343
 9404SOL    HW229112   2.564   4.651   6.547 -0.1375 -1.5471  0.2129
 9405SOL     OW29113   0.489   0.576   2.659  0.8316 -0.9265 -0.0469
 9405SOL    HW129114   0.536   0.613   2.578  1.7595 -2.2483 -0.1264
 9405SOL    HW229115   0.516   0.628   2.740 -0.3525  0.6265 -0.5783
 9406SOL     OW29116   0.457   1.064   5.262  0.2562 -0.2953  0.6653
 9406SOL    HW129117   0.479   0.974   5.301  1.5555 -1.0665 -1.6956
 9406SOL    HW229118   0.378   1.102   5.310  1.5471 -1.2658  3.7976
 9407SOL     OW29119   2.744   6.275   4.131  0.9841 -0.2283  0.3911
 9407SOL    HW129120   2.785   6.187   4.109 -0.1129 -0.4973 -0.6470
 9407SOL    HW229121   2.712   6.274   4.226 -0.1621 -1.4111  0.0084
 9408SOL     OW29122   6.474   0.278   1.974 -0.3219  0.0732 -0.1004
 9408SOL    HW129123   6.524   0.192   1.958  0.9460  0.3966  1.8528
 9408SOL    HW229124   6.376   0.258   1.982 -0.2048 -0.9832 -1.0301
 9409SOL     OW29125   5.619   5.293   3.108  0.2968 -0.1955  0.5727
 9409SOL    HW129126   5.701   5.237   3.097  0.2554 -1.3183  4.4536
 9409SOL    HW229127   5.539   5.242   3.079  0.6097 -0.6752  0.5453
 9410SOL     OW29128   3.797   0.198   0.673 -0.1762 -0.7769 -0.0062
 9410SOL    HW129129   3.704   0.198   0.709  0.2448  2.4532  1.4714
 9410SOL    HW229130   3.854   0.135   0.726 -1.3008 -2.2046 -0.4383
 9411SOL     OW29131   6.562   6.182   1.213  0.3375 -0.5280 -0.1091
 9411SOL    HW129132   6.629   6.226   1.272 -1.5222  0.2463  1.4999
 9411SOL    HW229133   6.529   6.247   1.145  1.0362 -0.8578 -0.7837
 9412SOL     OW29134   6.750   1.540   2.286 -0.2051  0.1027 -0.0472
 9412SOL    HW129135   6.732   1.463   2.347 -0.3033  0.1534 -0.0109
 9412SOL    HW229136   6.826   1.594   2.322 -0.1036 -0.0070 -0.0999
 9413SOL     OW29137   4.071   6.264   5.004  0.3140 -0.2262  0.4579
 9413SOL    HW129138   4.046   6.211   4.924  0.2032  0.2654  0.1608
 9413SOL    HW229139   4.100   6.203   5.077 -1.4321 -0.8144  0.7140
 9414SOL     OW29140   4.403   6.110   1.227 -0.3556  0.9094 -0.3798
 9414SOL    HW129141   4.333   6.047   1.260 -0.4700  1.5831  0.7043
 9414SOL    HW229142   4.485   6.101   1.285  0.3321  0.3877 -1.4094
 9415SOL     OW29143   6.862   5.826   2.382 -0.4685  0.3902  0.3215
 9415SOL    HW129144   6.895   5.742   2.339  1.0991  2.0032 -1.8294
 9415SOL    HW229145   6.927   5.854   2.453 -0.8287 -0.0321  0.8237
 9416SOL     OW29146   0.267   1.808   2.112  0.0045  0.6798  0.0802
 9416SOL    HW129147   0.322   1.828   2.193 -0.3572  0.6738  0.3294
 9416SOL    HW229148   0.216   1.890   2.084 -0.3422  0.5153  0.2247
 9417SOL     OW29149   1.704   0.069   3.691  0.1034 -0.2908 -0.4971
 9417SOL    HW129150   1.617   0.034   3.726  1.0161 -1.2057  0.9690
 9417SOL    HW229151   1.738   0.008   3.619 -0.5690  0.2075 -1.2508
 9418SOL     OW29152   3.962   3.762   6.802 -0.0751  0.5964 -0.0552
 9418SOL    HW129153   3.896   3.830   6.833 -0.6943  0.0156 -0.0787
 9418SOL    HW229154   3.914   3.686   6.760  0.7041  1.1230 -2.0289
 9419SOL     OW29155   2.680   6.038   2.143  0.1395 -0.0681 -0.3266
 9419SOL    HW129156   2.598   6.092   2.166  0.5635  0.1517  0.7470
 9419SOL    HW229157   2.684   5.958   2.203  1.2201  0.4524  0.3292
 9420SOL     OW29158   6.589   0.100   3.013 -0.0441  0.7625 -0.1418
 9420SOL    HW129159   6.549   0.075   2.925  1.1458  2.1876 -1.1409
 9420SOL    HW229160   6.689   0.096   3.006  0.0691  0.4561  1.2997
 9421SOL     OW29161   0.411   2.576   4.428 -0.1040  0.0560 -0.6679
 9421SOL    HW129162   0.371   2.636   4.360  0.4042  0.9436 -0.1952
 9421SOL    HW229163   0.385   2.481   4.408  1.2813  0.1076 -2.9801
 9422SOL     OW29164   4.547   1.571   1.742 -0.6806 -0.1568 -0.1222
 9422SOL    HW129165   4.527   1.662   1.779 -0.6031 -0.0066 -0.4439
 9422SOL    HW229166   4.518   1.501   1.807 -2.6546  0.0346 -0.7407
 9423SOL     OW29167   3.963   6.873   5.780  0.0859  0.0727 -0.5207
 9423SOL    HW129168   4.047   6.878   5.727 -0.1305  1.0919 -0.7871
 9423SOL    HW229169   3.978   6.910   5.872  0.5912 -2.1368  0.3649
 9424SOL     OW29170   5.137   5.422   3.730 -0.3393  0.4974  0.4983
 9424SOL    HW129171   5.174   5.502   3.777 -1.3648  1.3877 -0.1544
 9424SOL    HW229172   5.204   5.390   3.662 -0.2100  1.2685  0.2487
 9425SOL     OW29173   0.756   6.484   2.160  0.4910  0.2985 -0.4150
 9425SOL    HW129174   0.835   6.513   2.106  1.0090 -0.7473 -0.2425
 9425SOL    HW229175   0.714   6.404   2.117  0.4993 -0.1283  0.3587
 9426SOL     OW29176   3.523   5.617   0.022 -0.6451 -0.1188  0.3677
 9426SOL    HW129177   3.621   5.635   0.016 -0.6424  0.1336  1.0652
 9426SOL    HW229178   3.476   5.700   0.053 -1.1354 -0.1065 -0.3844
 9427SOL     OW29179   3.363   5.025   2.643  1.1468 -0.0728 -0.5163
 9427SOL    HW129180   3.441   4.994   2.589  1.6288  0.1303  0.0499
 9427SOL    HW229181   3.292   4.955   2.643  1.4005 -0.3328 -0.8888
 9428SOL     OW29182   4.730   5.809   1.038  0.0401  0.0716 -0.2239
 9428SOL    HW129183   4.637   5.844   1.027 -0.5989 -1.5671 -0.3827
 9428SOL    HW229184   4.793   5.863   0.982 -0.8483  1.0271 -0.3391
 9429SOL     OW29185   2.185   1.774   4.291  0.2518 -0.3864  0.0967
 9429SOL    HW129186   2.218   1.867   4.310 -0.0662 -0.3468  0.4534
 9429SOL    HW229187   2.111   1.751   4.354  0.9415 -1.2304  0.6291
 9430SOL     OW29188   6.473   6.756   1.392  0.0013 -0.4950 -0.2554
 9430SOL    HW129189   6.446   6.793   1.481 -0.6448  0.4005 -0.8073
 9430SOL    HW229190   6.542   6.815   1.350 -0.9639  0.0595 -1.1024
 9431SOL     OW29191   0.696   3.998   7.007  0.4433  0.3467 -0.2354
 9431SOL    HW129192   0.679   3.907   7.046  0.3435  1.5990  2.9076
 9431SOL    HW229193   0.780   4.035   7.046  0.8707  1.3834 -2.0263
 9432SOL     OW29194   4.922   0.429   1.936  0.2435  0.5823  0.1695
 9432SOL    HW129195   4.991   0.481   1.987 -0.6202  0.2884  1.6925
 9432SOL    HW229196   4.863   0.492   1.886 -0.6337  1.1076  1.7926
 9433SOL     OW29197   3.065   5.685   3.737  0.3091  0.1837 -0.1560
 9433SOL    HW129198   3.144   5.645   3.692 -0.3053 -1.6755  0.2864
 9433SOL    HW229199   2.981   5.650   3.694 -0.2610  0.6650  0.5429
 9434SOL     OW29200   6.204   4.563   3.086  0.1324 -0.1266  0.3918
 9434SOL    HW129201   6.150   4.481   3.107 -2.0310  0.5724 -1.9697
 9434SOL    HW229202   6.295   4.535   3.053  0.6997 -1.3926  2.8056
 9435SOL     OW29203   5.191   2.213   6.719  0.5309  0.6041 -0.4712
 9435SOL    HW129204   5.273   2.157   6.712  0.3146  0.1012  0.7617
 9435SOL    HW229205   5.206   2.286   6.786 -0.0272  0.4988 -0.2283
 9436SOL     OW29206   4.049   3.206   5.333  0.4569  0.0651  0.0949
 9436SOL    HW129207   3.968   3.244   5.288  0.9309 -1.7436 -2.5882
 9436SOL    HW229208   4.022   3.137   5.399 -0.2497 -0.3354 -0.5928
 9437SOL     OW29209   6.025   5.608   5.659 -0.5662  0.1173  0.0990
 9437SOL    HW129210   6.049   5.695   5.615  0.4522 -0.7475 -1.1567
 9437SOL    HW229211   6.041   5.614   5.757  0.1062  1.1438 -0.0624
 9438SOL     OW29212   0.714   6.140   0.227  0.5446  0.0810 -0.2301
 9438SOL    HW129213   0.731   6.059   0.170  0.9034  0.1027 -0.1598
 9438SOL    HW229214   0.676   6.111   0.315  0.4220  0.0107 -0.3056
 9439SOL     OW29215   1.994   3.031   2.087 -0.2125  0.2022  0.3214
 9439SOL    HW129216   2.042   3.114   2.117 -1.2038  1.1894 -0.6982
 9439SOL    HW229217   1.966   2.978   2.167  0.0505  1.0749  1.0137
 9440SOL     OW29218   4.110   5.933   2.002 -0.2909  0.1911  0.0412
 9440SOL    HW129219   4.028   5.974   1.962  0.2248  4.4915  2.7873
 9440SOL    HW229220   4.191   5.969   1.956  0.1908 -1.4953 -0.5008
 9441SOL     OW29221   1.876   0.356   6.955  0.1821 -0.3351 -0.3389
 9441SOL    HW129222   1.864   0.273   6.901  0.1937 -0.0710 -0.7478
 9441SOL    HW229223   1.876   0.332   7.052 -0.7043 -0.7071 -0.4213
 9442SOL     OW29224   0.720   1.776   2.101 -0.4370 -0.1885  0.4255
 9442SOL    HW129225   0.714   1.871   2.073 -2.8912 -0.1982  0.7677
 9442SOL    HW229226   0.684   1.717   2.029  1.5112 -0.9718  0.0067
 9443SOL     OW29227   6.798   1.828   1.150 -0.0986 -0.4286 -0.3499
 9443SOL    HW129228   6.882   1.861   1.107 -0.5873  0.6908 -0.4829
 9443SOL    HW229229   6.719   1.862   1.099 -0.6841  0.4534  1.0603
 9444SOL     OW29230   1.225   2.808   3.571  0.0896 -0.1652  0.4317
 9444SOL    HW129231   1.271   2.796   3.659 -0.7549 -1.1508  0.7664
 9444SOL    HW229232   1.243   2.728   3.514  0.8382  0.5832 -0.3982
 9445SOL     OW29233   5.569   3.995   2.473  0.5094  0.6121  0.5253
 9445SOL    HW129234   5.530   4.081   2.440  2.3609  1.5878  0.6985
 9445SOL    HW229235   5.659   3.981   2.432 -0.5608 -2.3453 -1.1060
 9446SOL     OW29236   6.266   5.260   1.697  0.2597  0.1225 -0.3431
 9446SOL    HW129237   6.319   5.296   1.620  1.9822  1.6553  1.4184
 9446SOL    HW229238   6.169   5.261   1.674  0.4877  2.8620 -1.6681
 9447SOL     OW29239   5.186   1.043   1.457 -0.4138  0.1276 -0.4133
 9447SOL    HW129240   5.232   1.129   1.477  0.4492 -0.5969  0.8409
 9447SOL    HW229241   5.220   1.006   1.371 -1.8749  1.7387 -1.7592
 9448SOL     OW29242   6.702   0.201   0.054 -0.1803 -0.3602  0.3960
 9448SOL    HW129243   6.715   0.148   0.138  0.6127 -1.4321 -0.3625
 9448SOL    HW229244   6.605   0.213   0.036 -0.3693  1.1053  2.1917
 9449SOL     OW29245   5.543   4.956   4.087  0.3774  0.1287 -0.5963
 9449SOL    HW129246   5.468   5.014   4.054 -0.0598 -0.9615 -1.6029
 9449SOL    HW229247   5.539   4.950   4.187 -0.7391  0.2668 -0.6218
 9450SOL     OW29248   1.278   6.624   4.217 -0.2688  0.0999 -0.2616
 9450SOL    HW129249   1.366   6.661   4.188 -0.1778 -2.0830 -3.2858
 9450SOL    HW229250   1.218   6.698   4.244  1.4860  1.9439 -1.1263
 9451SOL     OW29251   4.014   3.770   2.953 -0.0959  0.0583  0.3705
 9451SOL    HW129252   4.078   3.827   3.004 -0.5387  1.0742 -0.1836
 9451SOL    HW229253   3.929   3.821   2.937 -0.8745 -1.0925  0.6832
 9452SOL     OW29254   3.980   4.735   0.389 -0.5366  0.5901  0.2412
 9452SOL    HW129255   4.021   4.670   0.452 -0.6597  0.7851  0.5270
 9452SOL    HW229256   3.897   4.774   0.430 -0.8522  0.4052 -0.2141
 9453SOL     OW29257   3.435   5.930   2.073 -1.1401  0.2455 -0.1362
 9453SOL    HW129258   3.414   5.888   1.985 -0.1505 -0.0957 -0.2299
 9453SOL    HW229259   3.379   5.888   2.145 -2.3676  0.9225 -0.6633
 9454SOL     OW29260   2.656   1.441   4.385  0.6582  0.3001 -0.8425
 9454SOL    HW129261   2.602   1.466   4.465 -1.9405 -1.2310 -2.0002
 9454SOL    HW229262   2.701   1.523   4.349  0.7826  1.2617  1.3387
 9455SOL     OW29263   1.380   2.172   1.079 -0.2383  0.4200 -0.0778
 9455SOL    HW129264   1.477   2.159   1.100 -0.4806 -2.4669 -0.3207
 9455SOL    HW229265   1.370   2.194   0.982  0.1771  0.7393 -0.0495
 9456SOL     OW29266   1.479   2.747   5.955 -0.9389 -0.4592 -0.4441
 9456SOL    HW129267   1.528   2.712   5.875 -0.0876 -2.0471  0.7112
 9456SOL    HW229268   1.411   2.680   5.985  0.2551 -0.9010  1.4194
 9457SOL     OW29269   0.711   4.017   1.242  0.0078 -0.6275  0.0354
 9457SOL    HW129270   0.666   3.927   1.232  1.1810 -1.2576  0.2800
 9457SOL    HW229271   0.641   4.087   1.257 -0.8417 -1.7794  1.8708
 9458SOL     OW29272   2.284   5.262   3.135 -0.1600 -0.1114  0.2754
 9458SOL    HW129273   2.356   5.200   3.105 -1.6084 -1.3722 -0.7696
 9458SOL    HW229274   2.242   5.227   3.219  1.3061  1.3626  1.6990
 9459SOL     OW29275   3.072   5.419   0.851 -0.0547  0.4351  0.5103
 9459SOL    HW129276   2.992   5.440   0.795  0.9339  0.2836 -1.0387
 9459SOL    HW229277   3.043   5.387   0.941 -1.7357 -0.0281 -0.1581
 9460SOL     OW29278   1.740   1.146   0.469 -0.1949  0.2143 -0.1681
 9460SOL    HW129279   1.767   1.120   0.562  0.3119 -0.1963 -0.4277
 9460SOL    HW229280   1.726   1.063   0.414  1.1187  0.4629 -0.9153
 9461SOL     OW29281   0.984   0.060   3.107  0.4706 -0.1121 -0.0286
 9461SOL    HW129282   1.005  -0.034   3.134  0.0079 -0.5855 -1.2544
 9461SOL    HW229283   1.069   0.112   3.098  0.7409 -0.4674  0.4490
 9462SOL     OW29284   0.694   1.445   3.128 -0.3257 -1.0494  0.0485
 9462SOL    HW129285   0.663   1.425   3.220  1.8326  0.1711  1.1159
 9462SOL    HW229286   0.737   1.364   3.088 -0.7922 -1.4262  0.3087
 9463SOL     OW29287   6.673   2.650   5.491 -0.4980 -0.7971  0.1103
 9463SOL    HW129288   6.654   2.606   5.403  0.5340 -1.3471  0.1391
 9463SOL    HW229289   6.602   2.625   5.556 -2.1670  0.8934 -0.9518
 9464SOL     OW29290   4.173   4.589   5.920 -0.6223 -0.2964 -0.3664
 9464SOL    HW129291   4.104   4.578   5.849  0.6017  1.1900 -1.8524
 9464SOL    HW229292   4.264   4.586   5.879  0.1347  0.4900  1.1656
 9465SOL     OW29293   4.184   6.175   3.152  0.2296 -0.4561  0.2979
 9465SOL    HW129294   4.176   6.266   3.112 -0.7306 -0.2047  1.0349
 9465SOL    HW229295   4.110   6.117   3.118  1.1794 -1.1705 -0.6425
 9466SOL     OW29296   4.741   2.244   5.531  0.1597 -0.1471  0.0841
 9466SOL    HW129297   4.700   2.152   5.531 -0.1715 -0.1202  3.2610
 9466SOL    HW229298   4.683   2.307   5.480 -0.0251 -1.5195 -1.4718
 9467SOL     OW29299   2.000   2.549   2.764  0.3038 -0.2934  0.4118
 9467SOL    HW129300   2.016   2.638   2.721 -0.1640 -0.8318 -0.9235
 9467SOL    HW229301   1.964   2.485   2.696  2.0310 -1.9512  0.9660
 9468SOL     OW29302   1.838   3.618   6.178  0.2589  0.2994  0.6801
 9468SOL    HW129303   1.738   3.623   6.180 -0.0432 -0.2189 -3.6659
 9468SOL    HW229304   1.875   3.711   6.180 -0.3676  0.5514  1.0917
 9469SOL     OW29305   6.821   1.514   1.581  0.5662  0.1485 -0.5525
 9469SOL    HW129306   6.868   1.449   1.641  0.1410  0.1509 -0.2149
 9469SOL    HW229307   6.816   1.603   1.626  2.9112  0.9951 -1.7941
 9470SOL     OW29308   6.588   4.689   0.704 -0.7651  0.3600  0.0843
 9470SOL    HW129309   6.587   4.788   0.709  0.1467  0.3169  2.4723
 9470SOL    HW229310   6.496   4.654   0.721 -1.3932  0.7556 -2.1427
 9471SOL     OW29311   0.003   0.234   4.045 -0.5010  0.5309 -0.6606
 9471SOL    HW129312  -0.088   0.271   4.028 -0.4571  1.4879  0.9676
 9471SOL    HW229313   0.063   0.306   4.080 -0.3600 -0.9143  2.4740
 9472SOL     OW29314   4.619   1.820   5.308  0.0331 -0.3940 -0.5543
 9472SOL    HW129315   4.662   1.752   5.367 -0.2726 -2.1804 -2.3013
 9472SOL    HW229316   4.656   1.813   5.215 -1.2111  0.6821 -1.1751
 9473SOL     OW29317   2.039   5.281   6.197  0.0466  0.2355  0.2415
 9473SOL    HW129318   2.057   5.366   6.246  0.9032  0.3150 -0.1912
 9473SOL    HW229319   2.113   5.264   6.132  0.0107 -0.9621  0.4903
 9474SOL     OW29320   4.373   0.644   4.969  0.3754 -0.5955  0.0507
 9474SOL    HW129321   4.448   0.610   4.913  1.6710  0.0367  1.3362
 9474SOL    HW229322   4.362   0.586   5.050 -1.3424 -1.3849 -0.6925
 9475SOL     OW29323   3.541   4.080   2.104  0.3373  0.1456  0.6552
 9475SOL    HW129324   3.633   4.060   2.137  0.6490 -0.2359 -0.4063
 9475SOL    HW229325   3.480   4.005   2.127  0.2886  0.3893  1.3411
 9476SOL     OW29326   3.615   3.226   4.228  0.2189 -0.1025 -0.3787
 9476SOL    HW129327   3.524   3.188   4.245 -0.1077 -0.5795 -2.8536
 9476SOL    HW229328   3.639   3.214   4.132  1.8303  2.3510 -0.3735
 9477SOL     OW29329   6.482   3.725   6.926 -0.0937  0.2429  0.6197
 9477SOL    HW129330   6.579   3.723   6.902 -0.1374 -0.5374  0.4544
 9477SOL    HW229331   6.427   3.695   6.847 -0.3895 -0.2784  1.0103
 9478SOL     OW29332   5.435   2.702   0.716 -0.1534  0.3677 -0.2145
 9478SOL    HW129333   5.363   2.755   0.671 -1.4290  0.6223  1.9877
 9478SOL    HW229334   5.407   2.606   0.723 -0.7876  0.6410  1.5150
 9479SOL     OW29335   5.949   1.947   6.353 -0.2504  0.3770  0.1997
 9479SOL    HW129336   5.949   1.865   6.410  0.0327 -0.7855 -1.4003
 9479SOL    HW229337   5.880   2.012   6.387  2.0401  1.1859  3.7499
 9480SOL     OW29338   5.328   3.115   6.711 -0.0795 -0.2907  0.0672
 9480SOL    HW129339   5.305   3.173   6.633 -0.1348 -0.2084  0.1442
 9480SOL    HW229340   5.287   3.024   6.698  0.8287 -0.6251 -0.5249
 9481SOL     OW29341   2.260   2.021   4.407  0.0584 -0.0568 -0.3076
 9481SOL    HW129342   2.332   2.059   4.348  1.1219 -1.9162 -0.3156
 9481SOL    HW229343   2.198   2.093   4.436  1.6773  1.5484 -0.6797
 9482SOL     OW29344   3.992   1.038   4.293 -0.6439  0.5292  0.0780
 9482SOL    HW129345   3.936   0.978   4.235 -1.0033  1.1397 -0.2177
 9482SOL    HW229346   4.055   1.091   4.236  1.7090 -1.5795  0.5376
 9483SOL     OW29347   2.646   0.626   1.451  0.1702  0.3704  0.2114
 9483SOL    HW129348   2.577   0.563   1.489 -0.0093  0.3729 -0.1094
 9483SOL    HW229349   2.610   0.719   1.453  0.6048  0.5267  1.0885
 9484SOL     OW29350   0.460   1.813   3.398  0.2433 -0.5673  0.1158
 9484SOL    HW129351   0.554   1.835   3.373 -0.0487  1.6642  0.7110
 9484SOL    HW229352   0.407   1.898   3.405 -1.8278 -1.7586 -0.1970
 9485SOL     OW29353   0.584   6.428   2.600 -0.6859  0.0154  0.0721
 9485SOL    HW129354   0.565   6.334   2.572 -1.2157  0.5289 -1.4230
 9485SOL    HW229355   0.657   6.429   2.668 -0.8354 -1.4846  0.2829
 9486SOL     OW29356   2.197   6.908   2.589  0.0400  0.0618 -0.1769
 9486SOL    HW129357   2.166   7.003   2.581  1.0396  0.4075  0.0049
 9486SOL    HW229358   2.296   6.904   2.578  0.0454 -0.9209  0.1707
 9487SOL     OW29359   3.758   4.035   3.615  0.5201  0.8492  0.0766
 9487SOL    HW129360   3.785   4.057   3.521 -1.3752  0.4292 -0.6170
 9487SOL    HW229361   3.838   4.010   3.668  1.3855 -1.6772 -2.2027
 9488SOL     OW29362   2.160   0.580   1.704 -0.7398 -0.3792 -0.6349
 9488SOL    HW129363   2.197   0.542   1.789  3.1497  1.2549 -1.3747
 9488SOL    HW229364   2.137   0.505   1.641 -3.1898 -1.5916  1.5230
 9489SOL     OW29365   2.796   6.880   0.063 -0.4900 -0.1252 -0.2356
 9489SOL    HW129366   2.710   6.833   0.082 -0.2605 -0.1224  0.8824
 9489SOL    HW229367   2.786   6.977   0.084 -0.0159 -0.2442  0.5940
 9490SOL     OW29368   3.250   2.202   5.713  0.3365 -0.5631 -0.6387
 9490SOL    HW129369   3.282   2.297   5.714  0.8616 -0.7284  0.5359
 9490SOL    HW229370   3.206   2.182   5.626 -0.6377  1.0400 -0.5462
 9491SOL     OW29371   4.648   6.246   5.549  0.2917  0.1009  0.2834
 9491SOL    HW129372   4.662   6.312   5.622  1.1676 -1.0690  1.2030
 9491SOL    HW229373   4.729   6.244   5.490  0.4654 -0.4967  0.5424
 9492SOL     OW29374   1.949   4.004   2.395  0.3305 -0.2955 -0.4436
 9492SOL    HW129375   1.895   4.018   2.312 -1.0537  2.1451  0.7714
 9492SOL    HW229376   2.040   3.970   2.370 -0.4120 -0.7136 -2.8404
 9493SOL     OW29377   3.453   5.562   3.383 -0.0845 -0.4652 -0.5335
 9493SOL    HW129378   3.430   5.475   3.338  0.1983 -1.0029  0.3317
 9493SOL    HW229379   3.547   5.558   3.417 -0.1695  0.0766 -0.2234
 9494SOL     OW29380   4.597   3.859   0.977 -0.1538  0.2447  0.5516
 9494SOL    HW129381   4.681   3.805   0.970 -0.2902 -0.3907  2.9172
 9494SOL    HW229382   4.619   3.953   1.001 -0.0095  0.9743 -2.0736
 9495SOL     OW29383   5.034   4.273   5.804  0.4485 -0.5052 -0.0854
 9495SOL    HW129384   4.938   4.248   5.791  0.5558 -0.5647 -0.7734
 9495SOL    HW229385   5.093   4.202   5.765  0.7655 -0.1699 -0.2246
 9496SOL     OW29386   0.249   3.958   5.413  0.1022  0.2348  0.0085
 9496SOL    HW129387   0.335   3.958   5.363 -0.0642  0.7786 -0.2785
 9496SOL    HW229388   0.267   3.964   5.511  0.3801  0.7155 -0.0705
 9497SOL     OW29389   1.617   4.313   6.978  0.0791 -0.7835  0.0306
 9497SOL    HW129390   1.543   4.333   7.042  0.6495 -0.2505  0.5251
 9497SOL    HW229391   1.617   4.381   6.904  1.2275  0.3457  1.0340
 9498SOL     OW29392   3.815   5.685   0.012 -0.2222  0.1317 -0.3580
 9498SOL    HW129393   3.862   5.682   0.100 -1.7324 -1.9647  0.4566
 9498SOL    HW229394   3.881   5.700  -0.061  1.3574 -0.2137  0.9486
 9499SOL     OW29395   6.478   4.084   6.310  0.1572 -0.6137 -0.1863
 9499SOL    HW129396   6.481   4.172   6.358 -0.6639 -1.3200  1.2402
 9499SOL    HW229397   6.566   4.066   6.267  0.8287  0.1953  0.8086
 9500SOL     OW29398   4.037   6.184   0.175  0.5003 -0.3551  0.0026
 9500SOL    HW129399   4.037   6.281   0.152  0.7310 -0.2193  0.5508
 9500SOL    HW229400   4.016   6.130   0.094 -1.3195  0.2363  0.0457
 9501SOL     OW29401   3.736   1.912   6.197 -0.6367 -0.2351  0.2823
 9501SOL    HW129402   3.671   1.937   6.125 -1.6331 -0.4664  1.0788
 9501SOL    HW229403   3.764   1.994   6.247  0.4289 -0.0101 -0.6586
 9502SOL     OW29404   5.072   2.656   0.328  0.3989  0.3882  0.8452
 9502SOL    HW129405   5.129   2.724   0.282 -1.7172  2.3530  0.9632
 9502SOL    HW229406   4.982   2.695   0.346 -0.2793 -1.8321  2.6870
 9503SOL     OW29407   1.079   5.319   0.245  0.2859  0.4546 -0.0529
 9503SOL    HW129408   1.137   5.348   0.169  1.6246  1.1693  1.2013
 9503SOL    HW229409   1.000   5.269   0.209  1.6427 -0.5348 -1.8205
 9504SOL     OW29410   6.783   4.440   6.600  0.2803 -0.3181 -0.3985
 9504SOL    HW129411   6.855   4.508   6.609  0.6784  0.0293 -4.3537
 9504SOL    HW229412   6.695   4.485   6.585 -0.2332 -0.7498  1.1177
 9505SOL     OW29413   5.129   4.287   3.639  0.8510 -0.2921 -0.1932
 9505SOL    HW129414   5.194   4.361   3.625 -0.0588  0.2904 -1.4584
 9505SOL    HW229415   5.073   4.306   3.720  0.3162  0.6463 -0.7731
 9506SOL     OW29416   6.572   1.114   1.196 -0.1550  0.5051  0.1429
 9506SOL    HW129417   6.546   1.096   1.291 -1.2198 -0.2053 -0.2606
 9506SOL    HW229418   6.558   1.031   1.141 -0.4989  1.1891 -0.8278
 9507SOL     OW29419   2.970   3.433   4.451  0.5371  0.3309  0.1801
 9507SOL    HW129420   2.947   3.458   4.357  1.1944  0.2263 -0.0140
 9507SOL    HW229421   2.995   3.336   4.454 -1.2700 -0.1612  0.7943
 9508SOL     OW29422   3.260   1.306   5.694  0.2511  0.3233 -0.2365
 9508SOL    HW129423   3.352   1.345   5.691  0.3541  0.2322  1.0745
 9508SOL    HW229424   3.234   1.274   5.603  1.0363  1.4285 -0.8694
 9509SOL     OW29425   2.016   5.992   5.539 -0.5850 -0.4255 -0.3320
 9509SOL    HW129426   2.075   6.033   5.469 -0.0752 -0.7663 -0.1057
 9509SOL    HW229427   1.924   6.030   5.531 -0.8009 -1.1505 -1.8254
 9510SOL     OW29428   6.792   3.985   3.443  0.5310 -0.2201  0.2736
 9510SOL    HW129429   6.776   4.039   3.526  1.1741 -0.0595  0.3034
 9510SOL    HW229430   6.730   4.015   3.371  0.1122 -0.2142  0.6293
 9511SOL     OW29431   1.669   0.146   1.701  0.4862 -0.0591  0.2445
 9511SOL    HW129432   1.607   0.071   1.723  2.4727 -1.8378  0.0841
 9511SOL    HW229433   1.732   0.160   1.778  0.8031  0.7656 -0.1506
 9512SOL     OW29434   0.785   3.182   6.119  0.2953 -0.1163 -0.0691
 9512SOL    HW129435   0.741   3.133   6.194 -0.0675  1.5041  0.8378
 9512SOL    HW229436   0.866   3.132   6.089 -0.0257 -1.2145  0.8475
 9513SOL     OW29437   4.245   4.948   2.829 -0.2592 -0.1358 -0.2706
 9513SOL    HW129438   4.206   4.987   2.912 -1.9135 -0.3416 -0.9189
 9513SOL    HW229439   4.264   4.851   2.844  0.4767  0.0759  0.2020
 9514SOL     OW29440   3.509   3.633   4.434  0.2087 -0.2086 -0.5331
 9514SOL    HW129441   3.489   3.716   4.382 -0.1534  0.2968  0.3951
 9514SOL    HW229442   3.510   3.654   4.531  0.8254 -1.1547 -0.3226
 9515SOL     OW29443   1.788   4.994   5.289 -0.6270  0.2435  0.2307
 9515SOL    HW129444   1.795   5.025   5.194 -0.0234 -0.7716 -0.0695
 9515SOL    HW229445   1.725   5.054   5.339 -0.5889  1.0691 -0.6846
 9516SOL     OW29446   3.845   4.912   4.678  0.0359  0.1306 -0.3595
 9516SOL    HW129447   3.897   4.841   4.630  1.1568  1.6621 -1.5170
 9516SOL    HW229448   3.889   4.932   4.766 -1.4449 -1.9696  0.9412
 9517SOL     OW29449   0.846   4.247   2.781  0.1924 -0.0135 -0.1696
 9517SOL    HW129450   0.769   4.286   2.830  0.2330 -0.1527  0.0060
 9517SOL    HW229451   0.814   4.176   2.718  0.1205  0.2851 -0.4777
 9518SOL     OW29452   2.082   1.971   4.679 -0.1859  0.3568 -0.4003
 9518SOL    HW129453   2.150   2.042   4.692 -0.7497  0.7125  0.7745
 9518SOL    HW229454   2.015   1.975   4.753  0.7612 -2.5200  0.7697
 9519SOL     OW29455   2.356   3.933   1.711 -0.3320 -0.4694 -0.2524
 9519SOL    HW129456   2.347   4.020   1.663  4.4135  0.8219  0.7566
 9519SOL    HW229457   2.410   3.869   1.656  2.3768 -0.1035  1.7727
 9520SOL     OW29458   3.831   1.696   4.491  0.0461  0.5866  0.0939
 9520SOL    HW129459   3.822   1.784   4.443  0.3954  2.4134  3.1114
 9520SOL    HW229460   3.816   1.710   4.589  0.4651 -2.7111  0.7384
 9521SOL     OW29461   1.985   6.943   0.216  0.3895  0.4475 -0.6075
 9521SOL    HW129462   2.029   7.013   0.160 -0.6037 -0.2796 -2.3967
 9521SOL    HW229463   2.036   6.857   0.207 -0.4976 -0.0104 -1.4937
 9522SOL     OW29464   5.298   6.638   0.957  0.7805  0.2139 -0.6253
 9522SOL    HW129465   5.242   6.575   1.011  0.9475 -0.7255 -1.5214
 9522SOL    HW229466   5.380   6.663   1.009  1.2529 -1.1814 -0.6715
 9523SOL     OW29467   1.651   2.818   3.627  0.3112  0.0812  0.5125
 9523SOL    HW129468   1.748   2.794   3.628 -0.2096 -2.2155  1.6574
 9523SOL    HW229469   1.609   2.786   3.542 -0.1510 -2.3239  1.5719
 9524SOL     OW29470   3.561   2.246   1.143  0.4246 -0.1985 -0.1777
 9524SOL    HW129471   3.472   2.200   1.140  1.2670 -1.9221 -0.2110
 9524SOL    HW229472   3.580   2.276   1.237 -0.9024  1.7707 -0.4728
 9525SOL     OW29473   2.918   1.756   6.434  0.0026 -0.4562 -0.0946
 9525SOL    HW129474   2.964   1.844   6.429 -1.7211  0.4494 -1.0240
 9525SOL    HW229475   2.895   1.725   6.341 -0.9232 -1.0209  0.3060
 9526SOL     OW29476   5.848   4.221   6.129  0.5436  0.0765  0.3198
 9526SOL    HW129477   5.784   4.218   6.052 -0.0630 -1.1570  0.8394
 9526SOL    HW229478   5.859   4.315   6.160 -0.7419  0.3535 -0.0189
 9527SOL     OW29479   3.484   4.749   5.253 -0.6704  0.0754 -0.2137
 9527SOL    HW129480   3.400   4.802   5.260 -0.0376  0.9646  1.0847
 9527SOL    HW229481   3.464   4.652   5.265 -1.5244  0.2559 -0.1362
 9528SOL     OW29482   3.939   1.927   1.558  0.1481 -0.0691 -1.0300
 9528SOL    HW129483   3.989   1.882   1.632 -0.5902 -0.9773 -1.0597
 9528SOL    HW229484   3.859   1.872   1.534 -2.0526  2.3023  0.4082
 9529SOL     OW29485   6.869   6.420   0.475  0.4404  0.0740  0.3435
 9529SOL    HW129486   6.903   6.333   0.440  1.0459  1.0693 -1.7204
 9529SOL    HW229487   6.917   6.496   0.429 -2.2746  1.5190 -0.3205
 9530SOL     OW29488   0.687   0.353   5.889  0.4140 -0.5474  0.4489
 9530SOL    HW129489   0.676   0.318   5.982  0.2086  2.0922  1.5280
 9530SOL    HW229490   0.613   0.417   5.869  0.3889 -1.1506 -1.6154
 9531SOL     OW29491   1.107   5.310   2.152 -0.5212 -0.4068  0.0451
 9531SOL    HW129492   1.019   5.304   2.200 -0.3016  1.7744  0.8249
 9531SOL    HW229493   1.181   5.314   2.219 -0.0658  0.7473 -0.5023
 9532SOL     OW29494   0.390   5.030   3.532 -0.3094 -0.1246  0.4588
 9532SOL    HW129495   0.327   5.043   3.455 -0.7110  1.7234  1.0370
 9532SOL    HW229496   0.477   5.076   3.511 -0.6225  0.8936  1.3045
 9533SOL     OW29497   1.606   3.575   3.937 -0.2093 -0.3898  0.1808
 9533SOL    HW129498   1.543   3.574   3.859  0.3716 -0.8756 -0.2882
 9533SOL    HW229499   1.558   3.543   4.018 -0.6807 -0.3622 -0.0807
 9534SOL     OW29500   3.278   5.397   5.617 -0.5353 -0.1019  0.5383
 9534SOL    HW129501   3.192   5.347   5.616 -1.2998  1.1513 -0.8397
 9534SOL    HW229502   3.321   5.392   5.527  0.4612 -0.0803  0.9994
 9535SOL     OW29503   0.097   1.980   3.455  0.2946 -0.1220 -1.0046
 9535SOL    HW129504   0.017   1.936   3.415  1.3453 -1.7215 -1.4003
 9535SOL    HW229505   0.091   1.975   3.555 -0.3962  0.3670 -1.0076
 9536SOL     OW29506   3.017   3.924   4.203  0.0159  0.0964  0.4485
 9536SOL    HW129507   2.958   3.891   4.278  0.0197 -0.7344  0.1009
 9536SOL    HW229508   3.097   3.864   4.196 -0.5446 -0.5100 -0.9440
 9537SOL     OW29509   5.196   6.192   4.968 -0.1834  0.5299 -0.3257
 9537SOL    HW129510   5.254   6.130   5.021 -1.8240 -0.7660  0.0084
 9537SOL    HW229511   5.251   6.270   4.937  1.9861 -1.1222 -0.8902
 9538SOL     OW29512   4.090   0.715   4.440 -0.1305  0.6558 -0.5812
 9538SOL    HW129513   4.133   0.792   4.488 -0.8358  1.2247 -0.8435
 9538SOL    HW229514   4.093   0.731   4.341 -0.5598  0.5006 -0.6233
 9539SOL     OW29515   3.412   2.872   3.090  0.1633 -0.0849 -0.6168
 9539SOL    HW129516   3.353   2.803   3.048  0.1220 -0.7827  0.5342
 9539SOL    HW229517   3.417   2.952   3.031  0.6860 -1.2891 -2.2916
 9540SOL     OW29518   4.373   5.054   3.571 -0.5886  0.0001 -0.1469
 9540SOL    HW129519   4.423   4.991   3.630 -0.3895  0.6745  0.4117
 9540SOL    HW229520   4.406   5.046   3.477  0.7181  0.5726  0.2435
 9541SOL     OW29521   2.678   4.764   6.131 -0.1026 -0.4327 -0.1933
 9541SOL    HW129522   2.608   4.812   6.184  0.8645  0.7059  0.0927
 9541SOL    HW229523   2.734   4.708   6.192 -0.3256 -0.8161 -0.3316
 9542SOL     OW29524   5.817   4.564   3.346 -0.2158 -0.2376  0.7607
 9542SOL    HW129525   5.731   4.557   3.295  0.5080 -0.7686 -0.4344
 9542SOL    HW229526   5.854   4.656   3.337 -1.2625  0.3666  2.3236
 9543SOL     OW29527   2.159   0.150   0.199 -0.3669  0.1942  0.3460
 9543SOL    HW129528   2.210   0.144   0.285  0.7222  0.8971 -0.2396
 9543SOL    HW229529   2.211   0.202   0.132 -1.8798  1.0017 -0.2549
 9544SOL     OW29530   1.028   3.115   5.545  0.4625 -0.2561 -0.0493
 9544SOL    HW129531   0.950   3.173   5.572  2.0768  0.6313  3.1476
 9544SOL    HW229532   1.001   3.019   5.550 -0.1918 -0.0162  2.1748
 9545SOL     OW29533   6.526   5.052   0.857 -0.2782  0.1690 -0.5160
 9545SOL    HW129534   6.508   4.989   0.932 -0.6939 -0.3990 -1.0818
 9545SOL    HW229535   6.440   5.080   0.815  0.0060 -1.3573 -2.2525
 9546SOL     OW29536   3.361   4.479   1.036 -0.2226 -0.0378 -0.2437
 9546SOL    HW129537   3.431   4.495   1.106 -0.6607  1.7955 -0.1928
 9546SOL    HW229538   3.270   4.481   1.078 -0.3969 -1.3247 -0.4980
 9547SOL     OW29539   4.302   2.294   3.099  0.5528  0.3305  0.5587
 9547SOL    HW129540   4.353   2.251   3.026 -1.3582 -0.9536 -0.1056
 9547SOL    HW229541   4.207   2.306   3.071  0.0975  1.1610  2.2879
 9548SOL     OW29542   6.258   4.484   4.264 -0.4902 -0.0841 -0.2913
 9548SOL    HW129543   6.300   4.433   4.189 -1.1993 -1.3061  0.1005
 9548SOL    HW229544   6.195   4.423   4.313 -1.8660  1.3616 -0.1949
 9549SOL     OW29545   5.503   2.261   2.409  0.2778 -0.2548 -0.1011
 9549SOL    HW129546   5.466   2.216   2.490 -0.3725 -0.0345 -0.2748
 9549SOL    HW229547   5.526   2.356   2.431 -0.6308  0.0362 -0.3733
 9550SOL     OW29548   6.690   1.778   1.659  0.0998 -0.5003 -0.8012
 9550SOL    HW129549   6.623   1.737   1.721 -1.8240  3.0125 -0.2769
 9550SOL    HW229550   6.646   1.797   1.571  0.7388  0.6895 -0.8891
 9551SOL     OW29551   4.194   0.789   0.102  0.8947 -0.3106 -0.6023
 9551SOL    HW129552   4.118   0.733   0.134 -0.2728  1.0497 -0.8713
 9551SOL    HW229553   4.173   0.824   0.010  0.9873  1.5548  0.0475
 9552SOL     OW29554   2.391   6.922   5.674  0.4017 -0.0451 -0.2905
 9552SOL    HW129555   2.441   6.935   5.760 -1.1427 -1.8441  0.9722
 9552SOL    HW229556   2.322   6.993   5.664  1.4835  0.9742 -0.7816
 9553SOL     OW29557   4.218   2.229   6.867 -0.1669 -0.4728 -0.6197
 9553SOL    HW129558   4.127   2.188   6.876 -0.4052 -0.2793 -1.9366
 9553SOL    HW229559   4.215   2.304   6.801  1.0882 -0.9668 -1.2870
 9554SOL     OW29560   3.931   1.158   5.431  0.1484  0.0670 -0.2162
 9554SOL    HW129561   3.897   1.148   5.525 -0.7313 -2.2197 -0.7098
 9554SOL    HW229562   3.856   1.187   5.372 -0.0662 -1.4180 -0.6944
 9555SOL     OW29563   6.538   5.433   3.460  0.5785 -0.0776  0.1098
 9555SOL    HW129564   6.493   5.496   3.523  2.0926  0.8478  0.3188
 9555SOL    HW229565   6.632   5.417   3.491  0.0422 -3.0227  0.4691
 9556SOL     OW29566   3.630   4.021   6.657  0.7705  0.1011 -0.1245
 9556SOL    HW129567   3.617   4.114   6.621  1.7195  0.2172 -0.1801
 9556SOL    HW229568   3.603   3.955   6.587  2.8487  0.3251 -1.2142
 9557SOL     OW29569   4.511   0.244   6.017  0.1949 -0.8714  0.0664
 9557SOL    HW129570   4.435   0.237   5.952  1.3723  1.4078 -1.6949
 9557SOL    HW229571   4.594   0.210   5.975  0.6933 -0.7661  0.9449
 9558SOL     OW29572   3.235   2.976   5.969  0.5127 -0.3037  0.1438
 9558SOL    HW129573   3.236   3.054   6.033  1.3127 -0.8348  0.8007
 9558SOL    HW229574   3.329   2.956   5.940  0.2183 -0.4471 -0.7550
 9559SOL     OW29575   1.738   5.004   5.583 -0.0591 -0.4760  0.3196
 9559SOL    HW129576   1.789   4.926   5.546 -1.2977 -1.0991 -0.1389
 9559SOL    HW229577   1.770   5.023   5.676  1.4507 -0.4095 -0.1794
 9560SOL     OW29578   1.126   6.881   0.669  0.4188 -0.3905 -1.1892
 9560SOL    HW129579   1.086   6.932   0.593  0.2090 -1.3443 -1.7481
 9560SOL    HW229580   1.077   6.902   0.753  0.1237  0.0656 -1.4704
 9561SOL     OW29581   0.589   2.697   6.120  0.2834 -0.2564  0.3391
 9561SOL    HW129582   0.600   2.644   6.204  1.9026  0.8272  0.8592
 9561SOL    HW229583   0.663   2.675   6.056 -1.4151 -1.7422 -1.2436
 9562SOL     OW29584   2.532   6.288   3.932 -0.1889 -0.2752 -0.9340
 9562SOL    HW129585   2.595   6.239   3.992 -0.5787  0.5029  0.1237
 9562SOL    HW229586   2.525   6.383   3.960 -1.5606 -0.2592 -1.2542
 9563SOL     OW29587   1.825   2.561   6.186 -0.8057 -0.4288 -0.8064
 9563SOL    HW129588   1.856   2.545   6.280 -3.6339 -0.8777  0.1750
 9563SOL    HW229589   1.879   2.634   6.144  0.9457 -0.6543  0.9338
 9564SOL     OW29590   0.467   2.073   6.204  0.4512 -0.0755  0.0677
 9564SOL    HW129591   0.562   2.081   6.174  0.8959 -2.0659  0.7859
 9564SOL    HW229592   0.454   1.985   6.249 -1.8665 -0.0251 -0.3995
 9565SOL     OW29593   1.807   2.685   4.357  0.3409 -0.3432  0.9683
 9565SOL    HW129594   1.746   2.764   4.349  0.3907 -0.4808 -1.9380
 9565SOL    HW229595   1.843   2.680   4.450 -1.9004  1.3333  2.0292
 9566SOL     OW29596   4.049   1.640   6.713 -0.2943 -0.2378  0.7993
 9566SOL    HW129597   3.965   1.624   6.764 -0.0979  0.5685  1.3983
 9566SOL    HW229598   4.032   1.626   6.615 -1.4037  0.9000  0.7891
 9567SOL     OW29599   0.340   4.027   2.984  0.1999  0.5476 -0.0598
 9567SOL    HW129600   0.309   4.113   3.026 -1.3451 -1.1381  2.5273
 9567SOL    HW229601   0.426   3.999   3.026  0.4118  0.5522 -0.4913
 9568SOL     OW29602   3.694   3.721   5.273 -0.4718  0.6109 -0.1700
 9568SOL    HW129603   3.771   3.664   5.302 -2.6223 -2.8440 -0.6812
 9568SOL    HW229604   3.616   3.704   5.332 -1.5633  2.2649 -1.0508
 9569SOL     OW29605   3.779   1.656   2.156 -0.6937 -0.3061  0.7265
 9569SOL    HW129606   3.832   1.717   2.097 -1.8554 -1.3739 -1.5347
 9569SOL    HW229607   3.686   1.691   2.167 -1.1608 -1.2552 -0.0112
 9570SOL     OW29608   6.973   4.731   3.974  0.2948  0.4721  1.1758
 9570SOL    HW129609   6.988   4.829   3.958 -1.0531  0.6160  0.6784
 9570SOL    HW229610   6.913   4.720   4.053 -0.0248  0.0648  0.8758
 9571SOL     OW29611   6.622   1.619   5.573  0.9780  0.0009 -0.3978
 9571SOL    HW129612   6.688   1.676   5.523  2.2388 -0.3245  0.8537
 9571SOL    HW229613   6.661   1.529   5.590  0.8270  0.2804  1.6778
 9572SOL     OW29614   2.195   6.048   5.338 -0.1202 -0.0608  0.1058
 9572SOL    HW129615   2.241   5.961   5.319  0.1415 -0.3901  2.0606
 9572SOL    HW229616   2.160   6.086   5.253 -0.7967 -2.3751 -0.7255
 9573SOL     OW29617   5.095   6.736   3.400 -0.6490  0.3534 -0.3710
 9573SOL    HW129618   5.144   6.748   3.314 -0.0010  2.1104  0.2030
 9573SOL    HW229619   5.141   6.787   3.473 -2.1379  0.2967  0.6623
 9574SOL     OW29620   4.335   2.040   0.512  0.3040 -0.5388 -0.3396
 9574SOL    HW129621   4.398   2.090   0.453  0.3593 -1.4418 -1.0670
 9574SOL    HW229622   4.375   2.029   0.603  0.4451  0.3998 -0.2776
 9575SOL     OW29623   6.220   6.492   2.691 -0.5003  0.4316  0.1428
 9575SOL    HW129624   6.164   6.478   2.773 -1.6294 -0.9311 -0.7932
 9575SOL    HW229625   6.237   6.403   2.648  0.8539  1.0338 -0.6072
 9576SOL     OW29626   5.687   6.388   5.165 -0.1423  0.1797  0.1160
 9576SOL    HW129627   5.643   6.464   5.118 -1.9361 -2.3969 -2.7383
 9576SOL    HW229628   5.786   6.392   5.149 -0.2449  1.6598 -0.3051
 9577SOL     OW29629   0.058   5.111   2.927  0.1650 -0.0557  0.4653
 9577SOL    HW129630   0.133   5.069   2.875 -0.3450  0.9050 -1.1377
 9577SOL    HW229631   0.053   5.070   3.018  2.2455 -0.5643  0.4078
 9578SOL     OW29632   1.978   4.309   3.461  0.3432 -0.0250 -0.3598
 9578SOL    HW129633   1.993   4.324   3.364 -0.5591  0.8200 -0.3814
 9578SOL    HW229634   1.989   4.394   3.511  1.7912 -0.6460  0.4338
 9579SOL     OW29635   4.487   4.517   2.811 -0.0161 -0.0959  0.1661
 9579SOL    HW129636   4.585   4.500   2.820 -0.1542 -1.3985 -0.5693
 9579SOL    HW229637   4.452   4.468   2.731 -0.9956  1.5821 -0.4965
 9580SOL     OW29638   5.370   5.391   5.053 -0.3667 -0.1037 -0.0034
 9580SOL    HW129639   5.336   5.314   5.106 -2.1773  1.0980  0.6816
 9580SOL    HW229640   5.469   5.400   5.065 -0.7044  0.2535  3.3940
 9581SOL     OW29641   6.745   2.066   0.489  0.1840 -0.0690  0.4351
 9581SOL    HW129642   6.674   2.019   0.542 -0.1630 -0.3422 -0.2672
 9581SOL    HW229643   6.767   2.153   0.534 -2.1061  1.0478 -0.4337
 9582SOL     OW29644   5.403   6.567   5.198  0.2719  0.7261 -0.1844
 9582SOL    HW129645   5.416   6.628   5.276 -0.3070  0.6042  0.0143
 9582SOL    HW229646   5.311   6.526   5.203  0.5884 -0.0305 -0.3940
 9583SOL     OW29647   2.442   4.465   2.786 -0.7334 -0.2921  0.5092
 9583SOL    HW129648   2.356   4.513   2.800 -0.6194  0.3835 -0.9362
 9583SOL    HW229649   2.430   4.394   2.716 -0.0002  0.1789 -0.1098
 9584SOL     OW29650   1.862   5.065   6.239  0.4163 -0.2242 -0.7125
 9584SOL    HW129651   1.932   5.128   6.204 -1.2781  1.4470 -1.2251
 9584SOL    HW229652   1.772   5.106   6.229 -0.6955 -2.3940 -0.2132
 9585SOL     OW29653   5.847   6.809   1.307 -0.4652 -0.1710  0.1037
 9585SOL    HW129654   5.924   6.856   1.351 -1.3680 -0.4858  2.1158
 9585SOL    HW229655   5.856   6.710   1.319 -0.2634 -0.3412 -1.2649
 9586SOL     OW29656   2.768   5.802   2.344 -0.5722  0.2224  0.2396
 9586SOL    HW129657   2.678   5.761   2.363  0.1984 -0.6203  2.5300
 9586SOL    HW229658   2.836   5.759   2.404  0.9080  2.5738  0.3501
 9587SOL     OW29659   2.017   5.993   0.947  0.4668 -0.4657 -0.2524
 9587SOL    HW129660   2.058   5.903   0.934  0.8170 -0.2787 -0.4986
 9587SOL    HW229661   1.921   5.991   0.919  0.1691 -1.0327  0.7909
 9588SOL     OW29662   0.770   6.118   0.925 -0.6572 -0.0681 -0.1208
 9588SOL    HW129663   0.805   6.158   1.010  0.2866  3.3024 -1.8825
 9588SOL    HW229664   0.797   6.176   0.848 -1.8085 -2.7315 -2.7350
 9589SOL     OW29665   2.412   2.422   6.857 -0.4028  0.5456  0.2472
 9589SOL    HW129666   2.385   2.441   6.952  0.0275  0.6217  0.3531
 9589SOL    HW229667   2.485   2.484   6.829 -0.8226  0.8087 -0.2798
 9590SOL     OW29668   4.917   0.121   1.330  0.0722 -0.7229 -0.0510
 9590SOL    HW129669   4.877   0.117   1.238 -2.0859 -0.0629  0.8086
 9590SOL    HW229670   4.866   0.186   1.386  0.7345 -1.8315  1.9300
 9591SOL     OW29671   4.062   2.061   5.837 -0.1723 -0.0754  0.1886
 9591SOL    HW129672   4.103   1.977   5.873 -0.4951 -0.2150  0.2342
 9591SOL    HW229673   4.133   2.116   5.793 -0.0260 -0.5482 -0.1738
 9592SOL     OW29674   3.072   5.189   5.899  1.2789 -0.2848 -0.2546
 9592SOL    HW129675   3.086   5.220   5.805 -1.4177 -0.2878 -0.7462
 9592SOL    HW229676   3.046   5.267   5.956  2.0965 -0.4183  0.3086
 9593SOL     OW29677   3.026   1.890   5.184 -0.1304  0.5204 -0.2120
 9593SOL    HW129678   3.118   1.891   5.224  0.5893  0.4381 -1.8065
 9593SOL    HW229679   2.980   1.976   5.203  0.5198  0.8125  0.0575
 9594SOL     OW29680   6.315   6.762   4.621  0.0160  0.1479 -0.1856
 9594SOL    HW129681   6.254   6.832   4.585 -0.6336 -0.2969  0.0139
 9594SOL    HW229682   6.297   6.750   4.719  0.4382  0.0309 -0.1235
 9595SOL     OW29683   0.919   3.582   4.327  0.2140 -0.1523  0.1579
 9595SOL    HW129684   0.853   3.601   4.255 -0.4615 -0.3556  0.7172
 9595SOL    HW229685   0.883   3.511   4.388  0.0862  1.0934  1.5931
 9596SOL     OW29686   1.336   6.250   2.130 -0.0434 -0.6205 -0.2341
 9596SOL    HW129687   1.330   6.164   2.182  1.1840 -0.5326  0.0844
 9596SOL    HW229688   1.342   6.229   2.032  0.6777 -0.9200 -0.1302
 9597SOL     OW29689   2.131   2.940   2.695  0.3346  0.0790 -0.2505
 9597SOL    HW129690   2.176   2.909   2.779  0.9377  1.5021 -0.0311
 9597SOL    HW229691   2.195   2.933   2.618 -0.6118 -2.4832 -0.9175
 9598SOL     OW29692   2.351   4.321   3.608  0.1385 -0.0207 -0.4796
 9598SOL    HW129693   2.412   4.384   3.560 -1.3088  2.1602  0.3913
 9598SOL    HW229694   2.326   4.245   3.546  0.9769  0.8836 -1.9917
 9599SOL     OW29695   4.726   1.396   6.774  0.1190 -0.1817  0.4177
 9599SOL    HW129696   4.672   1.467   6.819 -1.0925 -0.0026 -1.2429
 9599SOL    HW229697   4.822   1.423   6.773 -0.3848  1.7726 -0.6863
 9600SOL     OW29698   4.105   2.240   0.171  0.2944 -0.3743 -0.6156
 9600SOL    HW129699   4.026   2.296   0.196  0.7094  0.1334 -0.4438
 9600SOL    HW229700   4.083   2.144   0.188  0.5427 -0.0826  1.7254
 9601SOL     OW29701   1.731   2.877   0.133 -0.2475  0.9139  0.4450
 9601SOL    HW129702   1.809   2.884   0.071 -0.0684 -0.5728  0.4684
 9601SOL    HW229703   1.756   2.915   0.222  0.1750  1.1871  0.2164
 9602SOL     OW29704   3.358   4.492   5.329  0.2871  0.1596 -0.4060
 9602SOL    HW129705   3.272   4.531   5.294  0.8769  0.1355 -1.9823
 9602SOL    HW229706   3.362   4.395   5.304  0.3694 -0.0766  0.4891
 9603SOL     OW29707   5.245   5.316   5.594 -0.2998 -0.0722  0.3022
 9603SOL    HW129708   5.311   5.384   5.562  0.3642 -0.4376  0.8616
 9603SOL    HW229709   5.167   5.362   5.637 -1.1286  0.4193 -1.6203
 9604SOL     OW29710   4.740   0.740   1.124  0.4131 -0.2809 -0.3842
 9604SOL    HW129711   4.688   0.773   1.203 -1.3396  0.2973 -1.7345
 9604SOL    HW229712   4.837   0.764   1.137  0.1588 -0.0652  1.4899
 9605SOL     OW29713   5.414   4.740   2.693 -0.2685  0.2167  0.2196
 9605SOL    HW129714   5.451   4.798   2.620  0.5029 -1.9169 -1.2041
 9605SOL    HW229715   5.332   4.693   2.660 -0.6672  0.2042  1.1975
 9606SOL     OW29716   1.245   1.550   5.323 -0.2166  0.7890 -0.7281
 9606SOL    HW129717   1.315   1.506   5.267 -1.4694 -0.7615 -1.1547
 9606SOL    HW229718   1.156   1.540   5.278 -1.0385  0.7781  0.8532
 9607SOL     OW29719   2.528   3.611   6.852  0.1852  0.3672 -0.0887
 9607SOL    HW129720   2.485   3.627   6.763 -0.5148  0.4795  0.2635
 9607SOL    HW229721   2.525   3.696   6.906  1.3535  0.5395 -0.2638
 9608SOL     OW29722   2.897   1.792   5.632  0.2239 -0.7164  0.3556
 9608SOL    HW129723   2.818   1.853   5.639  0.0849 -1.0041  1.5565
 9608SOL    HW229724   2.881   1.725   5.560  0.4959  0.7948 -1.1920
 9609SOL     OW29725   4.865   2.958   0.861 -0.1065  0.0873 -0.8620
 9609SOL    HW129726   4.779   2.925   0.824 -0.8742  2.1359 -1.0709
 9609SOL    HW229727   4.864   2.951   0.961 -1.1060  1.2915 -0.7576
 9610SOL     OW29728   1.383   4.990   2.243 -0.7443  0.8019  0.2283
 9610SOL    HW129729   1.472   5.035   2.250  0.0760  0.0460 -3.2341
 9610SOL    HW229730   1.324   5.021   2.317  0.9354  4.7311  0.1864
 9611SOL     OW29731   3.509   6.564   6.719  0.3388 -0.3026 -0.4983
 9611SOL    HW129732   3.437   6.563   6.650  0.5600 -0.0536 -0.7383
 9611SOL    HW229733   3.499   6.645   6.777  1.3416  0.6139 -1.5355
 9612SOL     OW29734   1.387   1.213   2.809  0.3925  0.0469  0.0087
 9612SOL    HW129735   1.412   1.125   2.767 -0.0719 -0.2456  0.3299
 9612SOL    HW229736   1.448   1.284   2.775  0.4867 -0.3158 -0.6110
 9613SOL     OW29737   3.903   6.043   4.094 -0.0273 -0.3368  0.4002
 9613SOL    HW129738   3.938   6.088   4.012 -1.5065 -0.0406 -0.0830
 9613SOL    HW229739   3.904   6.109   4.170  0.0373 -0.1943  0.2775
 9614SOL     OW29740   3.379   1.722   4.595 -0.6549  0.0681  0.2500
 9614SOL    HW129741   3.415   1.809   4.560 -1.2691  0.3584  0.3300
 9614SOL    HW229742   3.456   1.663   4.621 -0.2033  0.1015 -0.9445
 9615SOL     OW29743   1.572   4.565   1.541  0.0931  0.1868 -0.3200
 9615SOL    HW129744   1.508   4.593   1.613 -0.0640  0.5606 -0.6021
 9615SOL    HW229745   1.562   4.466   1.524  1.6176 -0.3604  1.6341
 9616SOL     OW29746   3.227   4.710   6.617  0.6503 -0.1207  0.3387
 9616SOL    HW129747   3.182   4.701   6.528 -0.7880  0.9583  0.9031
 9616SOL    HW229748   3.283   4.629   6.635 -1.1016 -1.5789 -0.4166
 9617SOL     OW29749   6.814   2.396   2.137 -0.0621 -1.2673  0.2344
 9617SOL    HW129750   6.806   2.302   2.104 -0.7247 -1.1119 -0.0593
 9617SOL    HW229751   6.723   2.434   2.151  0.1627 -0.1695 -1.0802
 9618SOL     OW29752   2.190   4.506   0.745  0.2224 -0.2164  0.3417
 9618SOL    HW129753   2.150   4.455   0.821 -1.7735  1.5607  0.5849
 9618SOL    HW229754   2.135   4.588   0.727  2.0434  0.7192 -1.4247
 9619SOL     OW29755   3.427   6.506   0.418  0.3981  0.0407 -0.6240
 9619SOL    HW129756   3.453   6.506   0.321 -1.9468 -0.9746 -1.3232
 9619SOL    HW229757   3.506   6.481   0.474  0.6387 -4.9247 -2.6944
 9620SOL     OW29758   5.268   1.486   4.724  0.6088 -0.3215  0.1386
 9620SOL    HW129759   5.265   1.585   4.712  1.0546 -0.2414  0.6541
 9620SOL    HW229760   5.340   1.463   4.789  0.1952 -0.9507  0.3748
 9621SOL     OW29761   1.953   4.769   2.782 -0.0412 -0.0202 -0.5522
 9621SOL    HW129762   1.967   4.867   2.790  2.6419 -0.2645 -1.1800
 9621SOL    HW229763   1.877   4.751   2.720  0.5211  1.6901 -1.8161
 9622SOL     OW29764   4.233   0.011   6.300 -0.0586  0.0291  0.1594
 9622SOL    HW129765   4.270  -0.082   6.300  1.1738  0.5021 -0.7650
 9622SOL    HW229766   4.284   0.067   6.365 -0.2584  0.2746  0.1036
 9623SOL     OW29767   0.877   2.621   6.005 -0.1918  0.5461 -0.4801
 9623SOL    HW129768   0.965   2.621   6.052 -0.4702  1.8000  0.0929
 9623SOL    HW229769   0.871   2.542   5.944  0.1802 -1.1833  1.6163
 9624SOL     OW29770   0.801   2.418   6.554 -0.0086 -0.2747  0.2111
 9624SOL    HW129771   0.843   2.502   6.519  0.4944 -0.5944  0.0303
 9624SOL    HW229772   0.873   2.356   6.585 -0.2485 -1.4112 -1.4013
 9625SOL     OW29773   4.446   0.587   2.410  0.0470  0.0997  0.3886
 9625SOL    HW129774   4.425   0.542   2.498 -0.7016  1.1606  0.7698
 9625SOL    HW229775   4.537   0.629   2.415 -0.8829  2.0982  1.4955
 9626SOL     OW29776   3.965   0.612   5.967 -0.1180 -0.2664 -0.1956
 9626SOL    HW129777   4.016   0.538   6.011  0.2845  0.6931  1.0234
 9626SOL    HW229778   4.028   0.686   5.943 -0.8934  1.0487  1.5680
 9627SOL     OW29779   1.918   6.066   1.387 -0.0959  0.0709  0.3596
 9627SOL    HW129780   1.846   6.067   1.317 -1.1227  0.2538  1.4001
 9627SOL    HW229781   1.975   5.984   1.375 -1.3290 -0.8058  0.3862
 9628SOL     OW29782   4.052   1.544   2.202  0.3350 -0.0292 -0.1503
 9628SOL    HW129783   3.959   1.582   2.194  0.2109 -0.4961 -1.1094
 9628SOL    HW229784   4.118   1.614   2.175  0.5067  1.2898  3.2824
 9629SOL     OW29785   2.395   0.487   0.692  0.5361  0.5064 -0.2550
 9629SOL    HW129786   2.423   0.434   0.612  2.6802 -0.2177  0.8855
 9629SOL    HW229787   2.303   0.523   0.678 -0.7137 -2.7377 -1.4982
 9630SOL     OW29788   0.054   3.764   1.320 -0.4634  0.0944  0.1807
 9630SOL    HW129789   0.101   3.810   1.245  0.6338  0.0362  0.8068
 9630SOL    HW229790   0.121   3.713   1.374 -1.0705  0.9067  1.7574
 9631SOL     OW29791   6.774   5.619   6.126  0.0018  0.2420 -0.3080
 9631SOL    HW129792   6.752   5.590   6.219 -0.2243  0.5948 -0.2532
 9631SOL    HW229793   6.753   5.544   6.062  0.8302 -0.2682 -0.0038
 9632SOL     OW29794   2.142   5.740   3.023  0.6009 -0.2433 -0.2203
 9632SOL    HW129795   2.054   5.731   3.069  0.9607 -0.4939  0.4353
 9632SOL    HW229796   2.213   5.694   3.077  1.2192  0.3692 -0.4897
 9633SOL     OW29797   5.950   5.177   6.820 -0.1444  0.0814 -0.1583
 9633SOL    HW129798   5.887   5.163   6.743  2.1675  0.7456 -2.3114
 9633SOL    HW229799   5.957   5.274   6.841 -0.6837 -0.0894  0.8433
 9634SOL     OW29800   6.996   6.730   0.019  0.0081 -0.0333 -0.0117
 9634SOL    HW129801   6.975   6.803  -0.046 -2.0759 -0.7681 -0.2374
 9634SOL    HW229802   7.067   6.671  -0.019  1.7835  1.8557  0.2062
 9635SOL     OW29803   4.394   4.911   5.224  0.4196 -0.1589  0.5329
 9635SOL    HW129804   4.452   4.843   5.179 -2.3089 -2.9425  0.8714
 9635SOL    HW229805   4.330   4.949   5.157 -0.2630 -0.4791  0.9843
 9636SOL     OW29806   4.570   0.136   0.485 -0.4313 -0.2298  0.0355
 9636SOL    HW129807   4.590   0.056   0.540 -1.0781 -1.6274 -1.6715
 9636SOL    HW229808   4.579   0.219   0.541 -1.7564 -1.5865  2.4026
 9637SOL     OW29809   2.168   0.693   2.522 -0.0637 -0.1493  0.2754
 9637SOL    HW129810   2.112   0.776   2.526  1.4444  0.9925 -0.9449
 9637SOL    HW229811   2.254   0.709   2.572  0.2808 -0.9351 -0.0547
 9638SOL     OW29812   6.275   2.139   6.699 -0.6011 -0.1847  0.3659
 9638SOL    HW129813   6.223   2.056   6.682 -0.4334 -0.2954  0.3862
 9638SOL    HW229814   6.361   2.115   6.745 -0.6811  0.0267  0.6275
 9639SOL     OW29815   4.091   6.871   1.604  0.4805  0.3917  0.0610
 9639SOL    HW129816   4.052   6.917   1.683  0.6734 -1.8664  1.5564
 9639SOL    HW229817   4.177   6.826   1.630  1.0255  0.3284 -1.6707
 9640SOL     OW29818   1.571   1.176   2.527 -0.1870  0.5319 -0.8820
 9640SOL    HW129819   1.545   1.094   2.577 -0.0019  0.7219 -0.4705
 9640SOL    HW229820   1.663   1.204   2.553  0.1829  0.2387 -1.8498
 9641SOL     OW29821   4.086   6.911   6.059  0.4135  0.5675 -0.2120
 9641SOL    HW129822   4.152   6.985   6.049  3.4138 -2.0138 -1.1646
 9641SOL    HW229823   4.036   6.922   6.145  1.0353  3.4121 -0.1354
 9642SOL     OW29824   2.850   5.762   2.915  0.0090  0.0364 -0.4166
 9642SOL    HW129825   2.757   5.758   2.952 -0.9409  1.4065 -2.4861
 9642SOL    HW229826   2.901   5.836   2.959 -0.2600  0.0321 -0.0937
 9643SOL     OW29827   5.303   5.049   1.596  0.4597 -0.2252  0.3855
 9643SOL    HW129828   5.283   5.008   1.506 -1.4738  2.2083 -0.3932
 9643SOL    HW229829   5.224   5.037   1.656  0.1755  1.5690  0.4065
 9644SOL     OW29830   0.798   6.190   1.216  0.5774  0.1260  0.0615
 9644SOL    HW129831   0.723   6.225   1.273  0.9535  0.6245  0.2579
 9644SOL    HW229832   0.851   6.123   1.269  1.8195  1.6764  0.8420
 9645SOL     OW29833   3.458   5.738   5.366  0.2154 -0.3766 -0.0280
 9645SOL    HW129834   3.478   5.673   5.440  0.0658 -0.5590 -0.1462
 9645SOL    HW229835   3.372   5.712   5.321 -0.4939  0.6162  0.7102
 9646SOL     OW29836   4.485   5.069   2.123 -0.5686 -0.4403  0.0375
 9646SOL    HW129837   4.399   5.054   2.075 -1.4074  1.6101  0.8248
 9646SOL    HW229838   4.467   5.109   2.213  1.2281  1.0281 -0.1976
 9647SOL     OW29839   0.052   1.819   6.021  0.4146  0.3462 -0.2177
 9647SOL    HW129840   0.060   1.892   5.953 -1.0446  0.1769 -0.6102
 9647SOL    HW229841  -0.007   1.849   6.096  0.1875 -0.2590 -0.1470
 9648SOL     OW29842   6.005   5.250   1.362 -0.1352  0.7640  0.1359
 9648SOL    HW129843   6.055   5.331   1.392  2.6505  0.2991 -2.6784
 9648SOL    HW229844   5.912   5.276   1.336 -0.8402  2.0963  3.5142
 9649SOL     OW29845   2.981   3.068   0.691  0.3456 -0.2548 -0.2885
 9649SOL    HW129846   2.997   3.005   0.768 -0.5358  1.2856  1.2184
 9649SOL    HW229847   3.068   3.085   0.644  1.0519 -0.6496  0.8187
 9650SOL     OW29848   1.331   0.395   1.829 -0.1466  0.1874 -0.0374
 9650SOL    HW129849   1.320   0.494   1.838  0.8474  0.2181  1.1821
 9650SOL    HW229850   1.246   0.354   1.799 -0.8029  1.3312  0.2127
 9651SOL     OW29851   1.197   2.142   5.497  0.3675 -0.6645 -0.0940
 9651SOL    HW129852   1.114   2.179   5.455  0.4545  0.0204  0.3241
 9651SOL    HW229853   1.254   2.099   5.426  0.6949  0.8203 -0.7725
 9652SOL     OW29854   1.955   4.154   1.276 -0.7846  0.3447 -0.6239
 9652SOL    HW129855   1.969   4.082   1.345 -2.8628  1.4438  1.0649
 9652SOL    HW229856   1.905   4.116   1.199 -3.6300  0.2481  1.1126
 9653SOL     OW29857   4.373   1.098   3.385 -0.0802 -0.1361  0.3217
 9653SOL    HW129858   4.362   0.998   3.382  0.4023 -0.2653  1.8998
 9653SOL    HW229859   4.300   1.141   3.332 -0.0277 -1.3324 -0.7782
 9654SOL     OW29860   2.562   1.131   0.974 -0.3202  0.4170  0.0072
 9654SOL    HW129861   2.466   1.108   0.993 -0.9393  1.8756 -1.1213
 9654SOL    HW229862   2.575   1.134   0.875  0.6843  1.0567  0.1545
 9655SOL     OW29863   0.504   1.622   0.146  0.3401 -0.3104 -0.0419
 9655SOL    HW129864   0.408   1.604   0.126  0.2466  0.5132 -0.4019
 9655SOL    HW229865   0.552   1.641   0.060  0.7929 -0.5890  0.1501
 9656SOL     OW29866   3.930   7.015   2.454  0.1427  0.2305 -0.1460
 9656SOL    HW129867   3.895   6.978   2.540 -0.3199 -0.1827 -0.5049
 9656SOL    HW229868   3.989   7.093   2.473 -0.3526  0.4547  0.5210
 9657SOL     OW29869   0.123   6.899   4.627 -0.1645 -0.4460  0.2512
 9657SOL    HW129870   0.049   6.964   4.608 -1.0886 -1.9554 -1.7412
 9657SOL    HW229871   0.208   6.949   4.644 -1.1397  1.2860  0.2478
 9658SOL     OW29872   6.150   2.410   1.309 -0.1607  0.3176  0.1001
 9658SOL    HW129873   6.109   2.339   1.365 -0.7909 -0.5192 -1.3641
 9658SOL    HW229874   6.151   2.381   1.213 -0.0868  2.1229 -0.4891
 9659SOL     OW29875   4.039   4.834   0.114  0.3007  0.1417 -0.0708
 9659SOL    HW129876   4.118   4.774   0.102  1.7421  2.1444 -1.1572
 9659SOL    HW229877   3.977   4.794   0.182  0.1988 -3.4509 -2.0117
 9660SOL     OW29878   1.397   3.269   5.728  0.0121 -0.0601 -0.0061
 9660SOL    HW129879   1.390   3.367   5.746  0.5830 -0.1585  0.8064
 9660SOL    HW229880   1.490   3.239   5.747 -0.1898 -0.7868 -0.1488
 9661SOL     OW29881   4.559   1.580   6.913 -0.9842 -0.1348  0.1471
 9661SOL    HW129882   4.565   1.607   7.009 -0.5307  3.8424 -0.8167
 9661SOL    HW229883   4.469   1.605   6.877 -0.2086  1.1154 -1.0547
 9662SOL     OW29884   4.522   0.746   2.957 -0.3283 -0.2145  0.4720
 9662SOL    HW129885   4.563   0.694   3.032 -1.1259 -2.6916 -0.6993
 9662SOL    HW229886   4.593   0.799   2.910  0.3946  0.3562  2.1409
 9663SOL     OW29887   2.710   0.219   4.894 -0.2044 -0.2248 -0.1024
 9663SOL    HW129888   2.611   0.213   4.882 -0.1515 -1.0775 -0.1271
 9663SOL    HW229889   2.736   0.316   4.902 -0.9521  0.0420 -0.7782
 9664SOL     OW29890   2.637   5.144   1.882 -0.5389 -0.1445  0.0941
 9664SOL    HW129891   2.732   5.132   1.855 -0.8660 -1.2217 -0.6295
 9664SOL    HW229892   2.626   5.118   1.978  0.1934  1.5893  0.7000
 9665SOL     OW29893   0.871   6.229   5.003  0.0694 -0.3763 -0.9923
 9665SOL    HW129894   0.863   6.261   5.097  1.9203 -1.4367 -0.4098
 9665SOL    HW229895   0.783   6.192   4.972 -0.6396  0.2664  0.1988
 9666SOL     OW29896   5.323   3.790   3.955 -0.8954 -0.1696  0.5167
 9666SOL    HW129897   5.252   3.807   4.022 -0.7717  1.1188  0.3392
 9666SOL    HW229898   5.387   3.867   3.952 -1.8705  0.6612 -2.2715
 9667SOL     OW29899   2.964   3.793   2.278 -0.4354  0.3874  0.0156
 9667SOL    HW129900   2.868   3.822   2.272 -0.9253 -0.9974  0.6916
 9667SOL    HW229901   2.968   3.699   2.311  1.1825  0.4724  0.1271
 9668SOL     OW29902   2.179   1.406   5.952  0.7958  0.4021 -0.2824
 9668SOL    HW129903   2.132   1.326   5.915  1.0133 -0.6560  1.6147
 9668SOL    HW229904   2.274   1.406   5.922  0.6103  0.3772 -0.8909
 9669SOL     OW29905   1.321   6.338   0.853  1.1026  0.6035 -0.5299
 9669SOL    HW129906   1.310   6.412   0.919 -0.7663  1.3396 -1.5786
 9669SOL    HW229907   1.288   6.252   0.892 -0.0837  1.0503 -0.5177
 9670SOL     OW29908   5.461   1.897   0.394 -0.1571  0.9545  0.5812
 9670SOL    HW129909   5.534   1.962   0.373 -1.4976  2.3372  0.0076
 9670SOL    HW229910   5.445   1.837   0.316 -0.5556  1.5986  0.1496
 9671SOL     OW29911   6.840   0.637   5.437 -0.2150 -0.1612 -0.3081
 9671SOL    HW129912   6.880   0.558   5.482  0.5143  0.3996  0.0518
 9671SOL    HW229913   6.867   0.721   5.485  0.8997  0.4966 -1.9671
 9672SOL     OW29914   6.372   5.491   5.449  0.0835  0.1901  0.0056
 9672SOL    HW129915   6.294   5.438   5.481  0.2813 -0.2186 -0.1810
 9672SOL    HW229916   6.371   5.581   5.492 -1.2873  0.7350 -1.0525
 9673SOL     OW29917   4.413   1.947   5.728  0.5108  0.5242  0.0746
 9673SOL    HW129918   4.476   1.946   5.805 -0.9315 -1.7979  1.3274
 9673SOL    HW229919   4.365   2.035   5.725  2.7231  1.8059 -0.0932
 9674SOL     OW29920   2.505   6.601   1.115  1.1612  0.0757 -0.0496
 9674SOL    HW129921   2.427   6.657   1.144  2.0126  2.1932 -1.6025
 9674SOL    HW229922   2.518   6.527   1.180 -0.0985  1.6173  2.1028
 9675SOL     OW29923   0.064   2.813   3.965 -1.0205  0.0735  0.4429
 9675SOL    HW129924   0.132   2.866   4.014 -1.4873  0.5053  0.6319
 9675SOL    HW229925   0.005   2.765   4.031 -1.3412  0.2643  0.2993
 9676SOL     OW29926   6.069   3.006   4.574 -0.7143  0.3444  0.6331
 9676SOL    HW129927   6.151   3.037   4.623 -0.7414 -0.7311  1.3886
 9676SOL    HW229928   6.011   3.084   4.553  1.4175  1.4413 -1.7101
 9677SOL     OW29929   3.626   3.635   6.388  0.1231  0.0078  0.4394
 9677SOL    HW129930   3.619   3.607   6.293  3.2706 -0.6971  0.2926
 9677SOL    HW229931   3.536   3.631   6.431 -1.1799 -0.8126 -2.1677
 9678SOL     OW29932   3.202   3.288   2.701  0.1437 -0.1357  0.0516
 9678SOL    HW129933   3.189   3.232   2.783  0.4811 -0.9243 -0.4275
 9678SOL    HW229934   3.149   3.250   2.625 -2.1149  1.9183  0.4488
 9679SOL     OW29935   1.636   3.556   2.820 -0.4040 -0.1640 -0.2252
 9679SOL    HW129936   1.615   3.614   2.741  0.1470  0.4012  0.0354
 9679SOL    HW229937   1.646   3.613   2.901 -1.9413 -0.8441  0.4662
 9680SOL     OW29938   5.562   5.797   2.344  0.0875  0.9294  0.7194
 9680SOL    HW129939   5.511   5.725   2.392  0.1925  0.0430 -0.4490
 9680SOL    HW229940   5.504   5.837   2.273  0.5150  0.9683  0.3884
 9681SOL     OW29941   3.754   6.901   3.351  0.0701 -0.0738 -0.4013
 9681SOL    HW129942   3.707   6.932   3.269 -0.7267  1.1316  0.4834
 9681SOL    HW229943   3.805   6.977   3.392  1.2922 -0.9050 -0.3135
 9682SOL     OW29944   6.195   3.863   1.436  0.0840  0.3452 -0.2509
 9682SOL    HW129945   6.152   3.774   1.454 -1.0842  0.9251 -0.0732
 9682SOL    HW229946   6.214   3.872   1.338  0.9503 -0.4116 -0.1655
 9683SOL     OW29947   4.404   6.760   5.586  0.4178  0.3911 -0.6670
 9683SOL    HW129948   4.381   6.663   5.582  0.7873  0.3232 -1.1871
 9683SOL    HW229949   4.503   6.771   5.576  0.2295  0.9192 -2.1640
 9684SOL     OW29950   6.340   2.032   4.068  0.2689  0.1745  0.0566
 9684SOL    HW129951   6.422   1.978   4.051  0.7884  1.4517 -1.8153
 9684SOL    HW229952   6.261   1.971   4.078  1.1953 -0.9991  0.4873
 9685SOL     OW29953   1.323   2.266   6.756  0.4707  0.2016  0.4122
 9685SOL    HW129954   1.344   2.363   6.745 -0.8716  0.5691  0.8671
 9685SOL    HW229955   1.406   2.216   6.779  0.7992  1.5973  2.4901
 9686SOL     OW29956   5.216   3.358   3.230 -0.0142 -0.3809 -0.4486
 9686SOL    HW129957   5.198   3.457   3.225 -2.5314 -0.8144 -0.9985
 9686SOL    HW229958   5.289   3.335   3.165  0.8488  1.1378 -0.0691
 9687SOL     OW29959   1.912   6.745   4.745 -0.0846  0.1698  0.8207
 9687SOL    HW129960   1.837   6.794   4.789 -0.0734 -1.0731  2.2924
 9687SOL    HW229961   1.882   6.714   4.655 -1.3468 -0.2657  1.3574
 9688SOL     OW29962   5.993   3.297   4.828 -0.0042 -0.4964 -0.4027
 9688SOL    HW129963   6.007   3.208   4.870 -0.0136 -2.0088 -3.3398
 9688SOL    HW229964   5.965   3.285   4.733 -0.1057  2.6603 -0.8814
 9689SOL     OW29965   1.760   4.815   6.153 -0.5927 -0.2976 -0.3438
 9689SOL    HW129966   1.825   4.889   6.175 -2.2776  1.6025 -1.4088
 9689SOL    HW229967   1.785   4.733   6.205  0.6947  1.3256  1.8138
 9690SOL     OW29968   0.252   4.019   1.694 -0.0002 -0.2882  1.2072
 9690SOL    HW129969   0.206   3.939   1.732 -1.6451  0.0676  0.0328
 9690SOL    HW229970   0.337   3.991   1.650 -0.6630 -1.4311  0.6138
 9691SOL     OW29971   0.791   2.523   2.932  0.3051 -0.2913 -0.2846
 9691SOL    HW129972   0.719   2.585   2.959 -0.1381  0.3586 -2.6794
 9691SOL    HW229973   0.752   2.433   2.912  0.4795 -0.5057  0.3303
 9692SOL     OW29974   3.312   0.754   1.165  0.6507  0.0355 -0.3597
 9692SOL    HW129975   3.392   0.704   1.132 -0.4268 -1.2376 -1.1204
 9692SOL    HW229976   3.255   0.782   1.088  0.3547  0.9491  0.1722
 9693SOL     OW29977   4.290   6.127   0.019  0.2036  0.0539 -0.6863
 9693SOL    HW129978   4.242   6.039   0.026  2.3213 -1.2733 -1.6693
 9693SOL    HW229979   4.278   6.163  -0.074 -3.5913  2.7345  0.6070
 9694SOL     OW29980   0.774   0.940   0.629  0.3553 -0.4295  0.5303
 9694SOL    HW129981   0.857   0.886   0.640 -0.0480 -1.1419  0.1214
 9694SOL    HW229982   0.695   0.889   0.664  0.2281  0.7320  2.0633
 9695SOL     OW29983   0.017   5.942   0.552  0.0082 -0.5292 -0.7665
 9695SOL    HW129984  -0.047   5.875   0.588 -1.9873  1.3832 -0.5229
 9695SOL    HW229985   0.079   5.972   0.625 -0.9102 -0.1316 -0.1295
 9696SOL     OW29986   3.462   5.755   4.833  0.4914  0.4760  0.3215
 9696SOL    HW129987   3.547   5.799   4.860 -0.7217  0.9346  3.9612
 9696SOL    HW229988   3.384   5.804   4.874 -1.4751 -0.6549 -1.8061
 9697SOL     OW29989   4.781   5.508   6.613  0.0409  0.3881 -0.3710
 9697SOL    HW129990   4.844   5.518   6.690  0.7023 -2.2156 -0.4810
 9697SOL    HW229991   4.828   5.534   6.528  0.4322  0.0458 -0.2631
 9698SOL     OW29992   5.280   0.963   5.664 -0.1083 -0.7976 -0.7616
 9698SOL    HW129993   5.291   0.912   5.750  2.7083 -1.7592 -1.5980
 9698SOL    HW229994   5.338   1.044   5.666 -1.9347  0.5844 -0.8403
 9699SOL     OW29995   2.366   1.854   6.266  0.0800 -0.1915  0.2097
 9699SOL    HW129996   2.310   1.773   6.285  0.0104  0.0895  1.2899
 9699SOL    HW229997   2.312   1.921   6.215  0.2856 -1.0016 -1.1266
 9700SOL     OW29998   3.169   4.031   4.029 -0.6482  0.8760 -0.2746
 9700SOL    HW129999   3.108   4.006   4.104 -1.9265  3.0088 -0.4987
 9700SOL    HW230000   3.244   3.966   4.023 -2.3798 -1.3554  0.6268
 9701SOL     OW30001   4.105   5.772   5.126  0.0758 -0.4021 -0.7646
 9701SOL    HW130002   4.017   5.773   5.080 -0.0761  3.3862 -0.6832
 9701SOL    HW230003   4.103   5.704   5.200 -2.4604 -0.9869 -1.2744
 9702SOL     OW30004   5.879   2.153   5.001  0.1797 -0.3023  0.0175
 9702SOL    HW130005   5.943   2.181   4.929 -1.0979 -0.3972 -1.1924
 9702SOL    HW230006   5.793   2.203   4.990 -0.7829 -1.8743  0.1915
 9703SOL     OW30007   4.106   0.182   4.267 -0.2049 -0.0512  1.0247
 9703SOL    HW130008   4.007   0.187   4.257  0.0542  0.4982 -2.2854
 9703SOL    HW230009   4.140   0.267   4.309 -1.0367  0.0678  1.4773
 9704SOL     OW30010   4.632   1.036   4.425 -0.9442 -0.0389 -0.4998
 9704SOL    HW130011   4.611   0.994   4.513 -0.9188  2.1747  0.6435
 9704SOL    HW230012   4.712   0.991   4.384 -0.9150 -1.0545  0.6326
 9705SOL     OW30013   2.157   3.119   2.390 -0.0983 -0.2959  0.3388
 9705SOL    HW130014   2.172   3.020   2.389 -3.1154 -0.8716  1.4195
 9705SOL    HW230015   2.143   3.151   2.296 -0.7336 -1.2272  0.0975
 9706SOL     OW30016   1.949   1.874   4.445 -0.5026  0.6540 -0.2913
 9706SOL    HW130017   1.853   1.863   4.471 -0.6941  1.5584 -0.5749
 9706SOL    HW230018   1.999   1.918   4.520 -0.1003 -0.6099  0.2079
 9707SOL     OW30019   3.369   5.041   1.388 -0.1900  0.0478  0.0207
 9707SOL    HW130020   3.461   5.002   1.389  0.1016  0.7364  0.1010
 9707SOL    HW230021   3.319   5.011   1.470 -0.4242 -1.2163 -0.5579
 9708SOL     OW30022   2.676   0.752   3.017  0.4876  0.2143 -0.1088
 9708SOL    HW130023   2.715   0.670   3.058  0.6820  0.2206 -0.2798
 9708SOL    HW230024   2.646   0.814   3.090 -0.3265 -0.3165  0.0206
 9709SOL     OW30025   1.521   4.754   2.813  0.3868  0.4455  0.4385
 9709SOL    HW130026   1.496   4.658   2.826  0.5896  0.2642 -0.4654
 9709SOL    HW230027   1.450   4.813   2.852  0.6876 -0.0544  1.8062
 9710SOL     OW30028   1.156   2.856   4.887  0.5654 -0.1344 -0.1588
 9710SOL    HW130029   1.164   2.884   4.983  0.4609 -1.2292  0.1779
 9710SOL    HW230030   1.237   2.887   4.837  0.2802  1.0910  0.1046
 9711SOL     OW30031   2.332   2.045   0.605  0.1405  0.3661  0.1831
 9711SOL    HW130032   2.370   2.121   0.656  1.7914 -0.0926 -0.2931
 9711SOL    HW230033   2.237   2.065   0.580  0.3383  1.9649  0.6168
 9712SOL     OW30034   5.344   1.909   4.816  0.2251  0.5087  0.3126
 9712SOL    HW130035   5.326   1.868   4.727  1.9187 -2.8601  1.3872
 9712SOL    HW230036   5.285   1.867   4.885 -0.2585  2.2634  1.0280
 9713SOL     OW30037   0.018   4.427   6.015 -0.2996 -0.1127  0.0573
 9713SOL    HW130038  -0.018   4.398   6.103  1.7780 -2.4319  0.2426
 9713SOL    HW230039   0.031   4.348   5.956 -1.4707  1.3590 -2.3339
 9714SOL     OW30040   1.508   2.754   3.347 -0.2304 -0.3918  0.2533
 9714SOL    HW130041   1.411   2.780   3.349 -0.1662 -0.2187  1.4576
 9714SOL    HW230042   1.520   2.676   3.285 -1.2181 -0.7409  0.4915
 9715SOL     OW30043   5.747   0.845   5.305 -0.4048  0.4997 -0.2781
 9715SOL    HW130044   5.708   0.915   5.364 -1.3193 -0.1043 -0.1393
 9715SOL    HW230045   5.801   0.781   5.359 -0.3938  0.5310 -0.2527
 9716SOL     OW30046   4.191   6.174   6.109 -0.4514 -0.6940  0.6675
 9716SOL    HW130047   4.132   6.187   6.029 -0.6081  0.7446  0.9864
 9716SOL    HW230048   4.234   6.084   6.104  1.5027  0.2544 -2.3275
 9717SOL     OW30049   0.646   4.961   2.172  0.1546 -0.3258  0.4873
 9717SOL    HW130050   0.710   5.034   2.149 -0.7367  0.3093 -0.0540
 9717SOL    HW230051   0.678   4.875   2.133  1.7555 -0.4751  2.0003
 9718SOL     OW30052   6.593   4.087   3.956  0.0108 -0.0255 -0.6599
 9718SOL    HW130053   6.556   4.120   3.869 -1.0321  1.4884  0.2841
 9718SOL    HW230054   6.671   4.144   3.983  0.1189 -0.2665 -0.4585
 9719SOL     OW30055   6.250   1.385   0.874 -0.2733  0.3080 -0.6458
 9719SOL    HW130056   6.204   1.303   0.907 -0.0356 -0.6396 -2.5314
 9719SOL    HW230057   6.343   1.362   0.846  0.0264  1.3696 -0.5590
 9720SOL     OW30058   0.672   0.555   2.158 -0.0123 -0.4199 -0.0721
 9720SOL    HW130059   0.604   0.608   2.209 -0.4920 -1.1744  0.0971
 9720SOL    HW230060   0.764   0.591   2.176 -0.3497  0.5044 -0.1689
 9721SOL     OW30061   0.950   3.439   3.382 -0.0485 -0.2131  0.4320
 9721SOL    HW130062   0.917   3.473   3.293  0.5456  2.1142  1.0296
 9721SOL    HW230063   1.049   3.447   3.386  0.0841 -1.7888  0.7552
 9722SOL     OW30064   0.569   1.500   4.365 -0.1929 -0.1359  0.7491
 9722SOL    HW130065   0.651   1.518   4.311 -0.2444  1.7891  1.2488
 9722SOL    HW230066   0.578   1.411   4.411  1.5143 -0.0534  0.6334
 9723SOL     OW30067   5.924   6.763   4.498 -0.8039 -0.2100  0.2604
 9723SOL    HW130068   5.952   6.667   4.497 -0.5523 -0.1571  1.4545
 9723SOL    HW230069   5.826   6.769   4.477 -0.5229 -0.5881 -1.3189
 9724SOL     OW30070   2.463   2.933   0.667  0.1721  0.1106  0.1770
 9724SOL    HW130071   2.468   3.000   0.740 -0.6190  0.2425  0.1253
 9724SOL    HW230072   2.551   2.887   0.657  0.4928  0.5936  0.7280
 9725SOL     OW30073   5.169   4.068   4.666  0.1085  0.7718  0.1239
 9725SOL    HW130074   5.164   4.077   4.766 -0.2308  0.8049  0.1066
 9725SOL    HW230075   5.076   4.064   4.629  0.2079  1.9839 -0.3002
 9726SOL     OW30076   4.945   5.270   5.375  0.6299 -0.1165 -0.1128
 9726SOL    HW130077   4.904   5.289   5.465  0.0380  0.4704 -0.4963
 9726SOL    HW230078   4.954   5.171   5.363 -1.2062 -0.3097 -0.2137
 9727SOL     OW30079   5.670   0.716   0.228 -0.1058 -0.3948  0.1945
 9727SOL    HW130080   5.632   0.659   0.301 -0.5286 -0.7040 -0.2633
 9727SOL    HW230081   5.596   0.757   0.175  0.1769  1.0844  0.8849
 9728SOL     OW30082   2.154   6.106   6.144  0.4013  0.0243  0.5782
 9728SOL    HW130083   2.204   6.177   6.094  0.9116  0.2990  1.4639
 9728SOL    HW230084   2.085   6.148   6.203 -1.2941 -0.3701 -1.0191
 9729SOL     OW30085   2.177   5.434   2.209  0.0103  0.1948  0.7116
 9729SOL    HW130086   2.201   5.470   2.119  0.7285  0.2505  0.9134
 9729SOL    HW230087   2.244   5.466   2.276  0.4195 -1.1574  0.9814
 9730SOL     OW30088   5.782   4.567   1.411 -0.4023  0.0519 -0.4536
 9730SOL    HW130089   5.687   4.540   1.428 -0.1710 -0.8590 -0.5412
 9730SOL    HW230090   5.841   4.525   1.480  0.2026 -1.3416 -1.7630
 9731SOL     OW30091   4.875   4.139   0.696 -0.7136 -0.2010  0.2171
 9731SOL    HW130092   4.941   4.078   0.653 -1.1247 -0.7074  0.2816
 9731SOL    HW230093   4.789   4.090   0.710 -0.7914  0.1427  1.0331
 9732SOL     OW30094   4.848   6.739   3.518  0.2803 -0.5522 -0.7200
 9732SOL    HW130095   4.785   6.806   3.479 -1.6654 -2.2116 -0.5636
 9732SOL    HW230096   4.938   6.749   3.475 -0.1507  1.6151 -1.2354
 9733SOL     OW30097   3.771   4.903   4.279 -0.1423 -0.3605 -0.1357
 9733SOL    HW130098   3.768   4.840   4.357 -0.9655  0.7203  0.7371
 9733SOL    HW230099   3.829   4.981   4.302 -1.0715  0.3844 -0.2777
 9734SOL     OW30100   4.539   1.308   6.587 -0.2353 -0.6089  0.3047
 9734SOL    HW130101   4.603   1.320   6.663  1.2146 -0.3345 -0.9066
 9734SOL    HW230102   4.503   1.214   6.589 -1.3412 -0.1787  2.1287
 9735SOL     OW30103   2.699   6.157   0.128  0.5008  0.1060 -0.3765
 9735SOL    HW130104   2.707   6.244   0.177 -0.9957  1.2585 -2.0444
 9735SOL    HW230105   2.774   6.147   0.064  0.3218  0.4883 -0.6470
 9736SOL     OW30106   2.564   1.425   2.875 -0.2773  0.0917  0.0719
 9736SOL    HW130107   2.569   1.331   2.909 -0.6334  0.1953  0.4182
 9736SOL    HW230108   2.654   1.468   2.885 -0.1236 -0.1977 -0.0502
 9737SOL     OW30109   5.786   0.341   2.773  0.4243 -0.0972 -0.0657
 9737SOL    HW130110   5.883   0.362   2.787  0.3583  0.0852  0.1367
 9737SOL    HW230111   5.744   0.321   2.861  0.2049  0.1552 -0.1115
 9738SOL     OW30112   3.871   6.435   6.313  0.3280 -0.3065  0.3635
 9738SOL    HW130113   3.927   6.352   6.316 -0.7145 -1.0048  1.2433
 9738SOL    HW230114   3.891   6.485   6.229  2.2307 -0.5387  0.6280
 9739SOL     OW30115   6.097   6.040   2.493 -0.0456 -0.0038 -0.8205
 9739SOL    HW130116   6.021   6.038   2.428  0.0829 -1.0502 -0.9542
 9739SOL    HW230117   6.144   5.952   2.492  0.6291  0.3367 -0.0931
 9740SOL     OW30118   6.561   2.468   3.346  0.6133 -0.0776 -0.2462
 9740SOL    HW130119   6.579   2.390   3.406 -0.8528  0.2204  0.6364
 9740SOL    HW230120   6.472   2.456   3.302  1.1222  0.3058 -1.4146
 9741SOL     OW30121   3.328   1.937   3.384  0.1512  0.2455  0.0947
 9741SOL    HW130122   3.277   1.984   3.456 -0.1202 -2.3655  1.7356
 9741SOL    HW230123   3.407   1.890   3.425 -1.2588 -3.1951 -0.7988
 9742SOL     OW30124   2.432   1.906   2.564  0.2619  0.1551  0.5388
 9742SOL    HW130125   2.368   1.917   2.489  1.7041 -0.9935 -0.9378
 9742SOL    HW230126   2.418   1.817   2.608  2.4292 -1.3090 -1.5029
 9743SOL     OW30127   2.109   0.442   3.640 -0.0302 -0.5355 -0.6622
 9743SOL    HW130128   2.057   0.414   3.720 -0.1243  0.6082 -0.3074
 9743SOL    HW230129   2.118   0.542   3.639  2.4963 -0.7051 -0.4936
 9744SOL     OW30130   0.581   0.202   2.348  0.2803 -0.1440 -0.0452
 9744SOL    HW130131   0.651   0.229   2.282  0.4014 -0.2873  0.0222
 9744SOL    HW230132   0.559   0.105   2.335  1.0656 -0.4484  0.8128
 9745SOL     OW30133   2.637   1.507   6.755  0.3577 -0.3246  0.8267
 9745SOL    HW130134   2.574   1.559   6.698  0.5879  1.7761  2.3703
 9745SOL    HW230135   2.686   1.441   6.698  0.8443  1.8776 -1.4962
 9746SOL     OW30136   5.873   6.421   4.490 -0.3226 -0.5194 -0.2769
 9746SOL    HW130137   5.954   6.428   4.548 -1.0262 -0.0256  0.6772
 9746SOL    HW230138   5.879   6.339   4.433  0.1310 -1.3406  0.9196
 9747SOL     OW30139   6.662   6.049   6.286 -0.3711 -0.0923  0.3154
 9747SOL    HW130140   6.564   6.053   6.267 -0.5701  1.9407  1.4975
 9747SOL    HW230141   6.709   6.005   6.210 -2.0710 -0.0763 -0.7935
 9748SOL     OW30142   2.151   6.115   4.354  0.4174  0.5407  0.1512
 9748SOL    HW130143   2.211   6.129   4.433 -0.4744 -1.7839  1.3410
 9748SOL    HW230144   2.186   6.041   4.297 -0.2750  0.4877 -0.2171
 9749SOL     OW30145   1.391   5.111   6.318 -0.8209  0.3362 -0.5079
 9749SOL    HW130146   1.322   5.135   6.250  0.2156  0.3161 -1.6018
 9749SOL    HW230147   1.419   5.016   6.305 -1.0526  0.1434  0.3549
 9750SOL     OW30148   3.640   5.233   2.702  0.5342 -0.4219 -0.5404
 9750SOL    HW130149   3.685   5.246   2.790  1.5340 -0.3687 -1.0432
 9750SOL    HW230150   3.542   5.222   2.716  0.5104  0.8693  0.4682
 9751SOL     OW30151   1.298   1.215   2.455 -0.2260  0.1248  0.3072
 9751SOL    HW130152   1.297   1.312   2.479  1.0480  0.4537 -0.8403
 9751SOL    HW230153   1.380   1.172   2.492 -0.2291 -0.2637 -0.1234
 9752SOL     OW30154   2.671   5.734   5.872 -0.5330 -0.4080  0.3688
 9752SOL    HW130155   2.664   5.791   5.790 -0.8290  0.6734  1.1124
 9752SOL    HW230156   2.758   5.686   5.872  0.0032  0.5342  0.0028
 9753SOL     OW30157   6.977   6.893   5.693  0.2966  0.0772 -0.2897
 9753SOL    HW130158   7.034   6.827   5.644  2.2414  1.2756  0.2312
 9753SOL    HW230159   7.008   6.899   5.788 -1.1820  0.2763  0.1967
 9754SOL     OW30160   6.276   2.036   5.430 -0.0477  0.6059  0.6097
 9754SOL    HW130161   6.360   2.000   5.470 -0.3327  0.4300  1.0625
 9754SOL    HW230162   6.204   2.037   5.499 -0.3341  1.0542  0.3158
 9755SOL     OW30163   4.372   4.624   4.549 -0.8940  0.2413 -0.2222
 9755SOL    HW130164   4.283   4.579   4.555 -0.8510  0.0222 -1.0673
 9755SOL    HW230165   4.430   4.594   4.625 -0.6548 -1.6137 -1.0815
 9756SOL     OW30166   5.302   3.513   6.290 -0.0125  0.5293 -0.3377
 9756SOL    HW130167   5.204   3.493   6.290  0.2981 -1.2624  0.1599
 9756SOL    HW230168   5.343   3.483   6.204  0.0464  1.6844 -0.7274
 9757SOL     OW30169   5.725   6.999   4.008 -0.3826 -0.4151 -0.7436
 9757SOL    HW130170   5.708   7.070   4.077 -0.4743  0.1610 -1.3484
 9757SOL    HW230171   5.717   6.909   4.050 -2.1346 -0.1104 -0.3792
 9758SOL     OW30172   4.475   5.539   0.285  0.2104 -0.3155  0.0222
 9758SOL    HW130173   4.457   5.633   0.314  2.1260  0.9139 -2.3982
 9758SOL    HW230174   4.391   5.486   0.290 -1.0123  1.6164  1.1314
 9759SOL     OW30175   1.499   4.599   2.020  0.4337  0.0825 -0.1311
 9759SOL    HW130176   1.597   4.618   2.022  0.7913 -1.4772 -1.0736
 9759SOL    HW230177   1.460   4.614   2.110  1.4987  0.9106  0.2080
 9760SOL     OW30178   3.652   4.143   6.201  0.0073 -0.1020 -0.6089
 9760SOL    HW130179   3.645   4.227   6.148  0.1103  1.4751  1.7246
 9760SOL    HW230180   3.739   4.141   6.251 -1.1666 -0.1596  1.5663
 9761SOL     OW30181   6.948   6.799   2.967  0.3727 -0.3833  0.1788
 9761SOL    HW130182   6.935   6.762   2.875 -0.8055  0.1986  0.0934
 9761SOL    HW230183   7.026   6.754   3.010  0.2967 -1.4150 -0.7137
 9762SOL     OW30184   4.677   1.831   3.371  0.2210  0.2027  0.1639
 9762SOL    HW130185   4.724   1.817   3.283  1.8295 -0.4757  1.0912
 9762SOL    HW230186   4.650   1.927   3.378 -0.0097  0.2497 -1.1052
 9763SOL     OW30187   2.316   1.921   1.962  0.0903  0.1027  0.1698
 9763SOL    HW130188   2.403   1.876   1.941 -0.0924  0.5582 -1.6800
 9763SOL    HW230189   2.306   2.003   1.905 -1.7562 -0.1985  0.0195
 9764SOL     OW30190   2.957   2.118   4.919 -0.8125 -0.0828 -0.5129
 9764SOL    HW130191   2.999   2.027   4.924  0.6658  0.4174 -2.4843
 9764SOL    HW230192   3.014   2.183   4.970 -1.3653 -0.0832  0.1153
 9765SOL     OW30193   5.795   0.538   4.934  0.0046  0.6789 -0.9249
 9765SOL    HW130194   5.844   0.575   4.855  1.6981  0.2884 -0.1125
 9765SOL    HW230195   5.761   0.613   4.990  1.8641  1.0615 -0.2247
 9766SOL     OW30196   3.836   0.420   2.882  0.0297 -0.1771 -0.1980
 9766SOL    HW130197   3.868   0.326   2.885  0.6496  0.0411  0.3135
 9766SOL    HW230198   3.905   0.477   2.837  0.2597  0.2551  0.6864
 9767SOL     OW30199   4.688   6.757   4.579 -0.1058  0.0056 -0.4273
 9767SOL    HW130200   4.728   6.715   4.497  1.0064  0.8517 -0.3411
 9767SOL    HW230201   4.713   6.854   4.582 -1.2757  0.3021  0.2200
 9768SOL     OW30202   5.479   2.842   3.047 -1.1064 -0.4628 -1.5288
 9768SOL    HW130203   5.418   2.763   3.053  2.1713 -3.1404  1.6459
 9768SOL    HW230204   5.434   2.922   3.086 -1.8284 -3.0659  3.9205
 9769SOL     OW30205   0.719   3.140   0.790  0.1079  0.4381 -1.0078
 9769SOL    HW130206   0.767   3.122   0.704  2.1189  0.0892  0.1334
 9769SOL    HW230207   0.783   3.174   0.858 -1.0514 -1.0190  0.9148
 9770SOL     OW30208   0.588   2.473   5.296 -0.2223 -0.1556  0.9710
 9770SOL    HW130209   0.621   2.529   5.372  2.4072 -1.4488  0.9135
 9770SOL    HW230210   0.610   2.377   5.314  1.2461 -0.4177 -1.7210
 9771SOL     OW30211   3.008   5.537   5.461  0.6248 -0.0757 -0.1536
 9771SOL    HW130212   3.001   5.634   5.484 -0.4752 -0.1568 -0.0712
 9771SOL    HW230213   3.050   5.488   5.537 -2.4497 -0.2497  1.6124
 9772SOL     OW30214   3.457   5.175   0.174  0.0167  0.0051  0.3839
 9772SOL    HW130215   3.519   5.240   0.131  1.3263 -1.6294 -0.3191
 9772SOL    HW230216   3.508   5.114   0.235 -0.9811 -1.0350  0.2273
 9773SOL     OW30217   4.409   4.682   2.483  0.3834 -0.0628 -0.1563
 9773SOL    HW130218   4.474   4.754   2.504 -0.0022  0.9546 -2.1704
 9773SOL    HW230219   4.448   4.593   2.506  2.2169  0.5708 -0.6941
 9774SOL     OW30220   5.758   6.476   3.051  0.3472  0.2492 -0.3596
 9774SOL    HW130221   5.758   6.549   3.119 -1.6163  1.2522 -1.3467
 9774SOL    HW230222   5.739   6.389   3.096 -1.6373  0.9924  0.3701
 9775SOL     OW30223   2.379   2.791   5.494  0.5659  0.4478  0.3162
 9775SOL    HW130224   2.456   2.771   5.434  0.0712  0.8354 -0.4643
 9775SOL    HW230225   2.398   2.873   5.547  0.1278  1.3753 -0.9166
 9776SOL     OW30226   5.745   4.216   5.885 -0.3202  0.0964 -0.0347
 9776SOL    HW130227   5.702   4.130   5.909 -2.1222  1.0698  0.3844
 9776SOL    HW230228   5.704   4.252   5.801  0.5709  0.4481 -0.3374
 9777SOL     OW30229   5.916   5.206   5.544  0.1001  0.0274 -0.7250
 9777SOL    HW130230   5.838   5.153   5.577  1.0164 -0.8461  0.1183
 9777SOL    HW230231   5.976   5.148   5.490  0.6004  0.4731 -0.6638
 9778SOL     OW30232   2.849   1.686   4.514 -0.0791  0.1156 -0.0594
 9778SOL    HW130233   2.868   1.784   4.519 -0.4550  0.1904 -0.0298
 9778SOL    HW230234   2.934   1.636   4.496 -0.0100  0.5133 -0.8568
 9779SOL     OW30235   3.792   1.629   6.826 -0.3254  0.5684  0.0370
 9779SOL    HW130236   3.711   1.668   6.782 -0.9597  0.5511  1.1593
 9779SOL    HW230237   3.781   1.530   6.833 -0.3201  0.5963  0.4240
 9780SOL     OW30238   1.872   2.439   3.534 -0.2998  0.7950 -0.3965
 9780SOL    HW130239   1.774   2.437   3.516 -0.4841 -2.1863  0.3163
 9780SOL    HW230240   1.918   2.379   3.469  1.0273  1.8363 -0.4566
 9781SOL     OW30241   6.946   6.288   3.766  0.5969 -0.5971 -0.0187
 9781SOL    HW130242   6.971   6.196   3.736 -3.2275 -2.0340  0.6592
 9781SOL    HW230243   6.878   6.327   3.704  1.1323  1.2460  0.4704
 9782SOL     OW30244   0.232   0.012   0.695  0.4440 -0.1891 -0.0930
 9782SOL    HW130245   0.153   0.058   0.655 -0.5361 -0.7129  1.2011
 9782SOL    HW230246   0.271  -0.051   0.628 -2.9100 -3.2462  0.5124
 9783SOL     OW30247   5.207   1.375   3.203  0.2823 -0.2377 -0.1068
 9783SOL    HW130248   5.177   1.285   3.237 -2.1812  0.9685  1.1915
 9783SOL    HW230249   5.230   1.434   3.280 -0.6399  1.0329 -0.7640
 9784SOL     OW30250   4.652   1.446   3.653 -0.0712 -0.3283  0.3530
 9784SOL    HW130251   4.703   1.439   3.739  2.6849  0.0700 -1.1207
 9784SOL    HW230252   4.605   1.359   3.636 -0.2602 -0.5848  1.9957
 9785SOL     OW30253   1.489   2.880   6.482 -0.0251  0.0224  0.0065
 9785SOL    HW130254   1.503   2.809   6.413 -1.3482 -0.3531  0.0965
 9785SOL    HW230255   1.543   2.859   6.563  2.0825  0.8146 -1.1031
 9786SOL     OW30256   0.856   6.280   5.273 -0.2486 -0.7533  0.6271
 9786SOL    HW130257   0.783   6.248   5.333  0.6832 -1.5759  1.3552
 9786SOL    HW230258   0.907   6.353   5.317  1.2485 -2.2149  1.4625
 9787SOL     OW30259   5.374   4.862   1.013 -0.0080 -0.2649 -0.0019
 9787SOL    HW130260   5.405   4.828   0.925 -0.1162 -0.2576 -0.0425
 9787SOL    HW230261   5.277   4.842   1.025  0.1290 -0.7340  0.3412
 9788SOL     OW30262   6.425   5.260   5.863 -0.2710  0.1128  0.6757
 9788SOL    HW130263   6.332   5.298   5.863 -0.9228 -1.3921  0.0073
 9788SOL    HW230264   6.420   5.160   5.862  1.3849 -0.0214  2.1458
 9789SOL     OW30265   1.554   3.698   3.404 -0.2265  0.3704 -0.3329
 9789SOL    HW130266   1.544   3.698   3.504  1.4449  0.7400 -0.1336
 9789SOL    HW230267   1.484   3.756   3.364 -0.4177  0.8883  0.6982
 9790SOL     OW30268   0.885   0.599   2.521 -0.6517 -0.4009 -0.3729
 9790SOL    HW130269   0.970   0.629   2.565  0.2572 -0.3620 -2.0965
 9790SOL    HW230270   0.877   0.499   2.528  1.1714 -0.8051 -2.8888
 9791SOL     OW30271   1.283   1.885   0.772  0.2958 -0.0176 -0.1614
 9791SOL    HW130272   1.263   1.838   0.859  0.8073 -2.5331 -1.3154
 9791SOL    HW230273   1.357   1.950   0.786 -0.3546  0.4336  1.5000
 9792SOL     OW30274   4.090   6.483   1.866  0.2111  0.0486  0.9862
 9792SOL    HW130275   4.096   6.580   1.843 -0.4282 -0.2247 -0.4708
 9792SOL    HW230276   4.007   6.444   1.827 -0.7961 -0.6001  3.5514
 9793SOL     OW30277   4.975   5.266   1.529 -0.2101  0.2592 -0.6301
 9793SOL    HW130278   4.929   5.193   1.478  0.3240 -0.2376 -0.4142
 9793SOL    HW230279   4.944   5.266   1.624 -0.8667  0.8907 -0.8401
 9794SOL     OW30280   3.511   5.125   6.271  0.4782  0.0139 -0.3199
 9794SOL    HW130281   3.558   5.091   6.353 -0.4857 -0.6473 -0.0182
 9794SOL    HW230282   3.438   5.061   6.247  0.6982  0.2483 -1.6545
 9795SOL     OW30283   2.953   6.384   4.401 -0.6957 -0.3552  0.2700
 9795SOL    HW130284   2.894   6.456   4.437  1.5304  1.8756 -0.2667
 9795SOL    HW230285   3.015   6.353   4.473 -0.7344 -0.7518  0.1326
 9796SOL     OW30286   4.777   4.663   4.127 -0.0272  0.3685 -0.1460
 9796SOL    HW130287   4.764   4.565   4.116  0.0212  0.4877 -1.4309
 9796SOL    HW230288   4.785   4.685   4.224 -0.8832 -0.7822  0.2080
 9797SOL     OW30289   5.010   3.369   6.010  0.4318  0.5032 -0.1763
 9797SOL    HW130290   4.956   3.340   5.931  1.5324 -1.5996 -0.2146
 9797SOL    HW230291   4.964   3.445   6.056 -1.7721 -0.2285 -1.0613
 9798SOL     OW30292   4.923   2.689   1.369  0.3735 -0.0266 -0.1289
 9798SOL    HW130293   4.995   2.756   1.388  1.9724 -0.3994 -4.0215
 9798SOL    HW230294   4.959   2.597   1.383  0.2622 -0.1912 -0.9204
 9799SOL     OW30295   4.041   3.984   0.180 -0.6695 -0.2932 -0.3975
 9799SOL    HW130296   4.073   3.893   0.204 -0.7701 -0.2986 -0.2801
 9799SOL    HW230297   3.941   3.983   0.173 -0.5966 -0.4442 -1.4674
 9800SOL     OW30298   4.402   0.808   6.185 -0.3132  0.2529 -0.2981
 9800SOL    HW130299   4.389   0.710   6.169  0.6009  0.2055 -0.8362
 9800SOL    HW230300   4.486   0.822   6.236 -1.4268  0.6505  1.5059
 9801SOL     OW30301   6.777   6.100   1.761  0.1954 -0.2298  0.3621
 9801SOL    HW130302   6.756   6.023   1.821 -0.8996 -0.6895 -0.5786
 9801SOL    HW230303   6.817   6.174   1.815 -1.6841 -0.2273  1.8539
 9802SOL     OW30304   0.892   6.636   4.689  0.0695 -0.4998 -0.0937
 9802SOL    HW130305   0.798   6.666   4.671 -0.3244 -0.4727  1.8004
 9802SOL    HW230306   0.893   6.538   4.710  0.8629 -1.1126 -2.6354
 9803SOL     OW30307   5.676   0.751   5.049 -0.3580  0.3459  0.2625
 9803SOL    HW130308   5.581   0.773   5.026  0.0512  0.8624 -1.0145
 9803SOL    HW230309   5.702   0.798   5.133 -1.2693  0.0790  0.7099
 9804SOL     OW30310   3.878   6.523   6.040  0.6780 -0.4793 -0.1981
 9804SOL    HW130311   3.908   6.458   5.969 -0.7036  0.0457 -1.3138
 9804SOL    HW230312   3.836   6.602   5.997 -0.3417 -0.2093  1.2237
 9805SOL     OW30313   1.878   4.474   6.830 -0.2108  0.0926 -0.1290
 9805SOL    HW130314   1.837   4.562   6.856 -0.6814 -0.0100 -0.5117
 9805SOL    HW230315   1.807   4.414   6.792  0.0362 -0.5793  0.4424
 9806SOL     OW30316   2.505   6.660   3.167  0.7829  0.6616  0.5192
 9806SOL    HW130317   2.493   6.714   3.084  0.7026  1.3563  0.9772
 9806SOL    HW230318   2.559   6.578   3.146 -2.5122 -1.2662 -1.0561
 9807SOL     OW30319   2.222   4.306   0.096  0.1551  0.8028  0.0084
 9807SOL    HW130320   2.132   4.350   0.095  1.2648  3.2754  0.5321
 9807SOL    HW230321   2.241   4.268   0.005 -0.9131  1.3059 -0.4510
 9808SOL     OW30322   2.114   2.506   3.214 -0.4892 -0.3729  0.0520
 9808SOL    HW130323   2.096   2.426   3.271 -0.4561  0.1109  0.7541
 9808SOL    HW230324   2.029   2.540   3.175 -0.5713 -0.4451  0.1698
 9809SOL     OW30325   0.863   0.206   2.857  0.1088  0.3197 -0.0469
 9809SOL    HW130326   0.875   0.155   2.943 -1.8319  2.2310  1.4763
 9809SOL    HW230327   0.833   0.299   2.878 -1.4197  0.5635 -2.8496
 9810SOL     OW30328   3.561   0.752   3.169  0.8228 -0.2800 -0.3093
 9810SOL    HW130329   3.629   0.823   3.189 -1.3625  1.8722 -0.0817
 9810SOL    HW230330   3.531   0.761   3.074 -0.6520  0.2026  0.1829
 9811SOL     OW30331   3.484   5.897   2.404 -0.3478  0.1948  0.1823
 9811SOL    HW130332   3.397   5.886   2.356 -0.5457 -0.7733  0.7332
 9811SOL    HW230333   3.523   5.806   2.422  0.1754  0.5785  1.0201
 9812SOL     OW30334   4.488   1.811   0.393  0.5280  0.3376  0.8473
 9812SOL    HW130335   4.502   1.809   0.294 -1.9415 -1.1940  0.4584
 9812SOL    HW230336   4.462   1.903   0.421 -0.5179  0.3894 -0.2333
 9813SOL     OW30337   0.900   4.157   0.100  0.5248 -0.5108 -0.0737
 9813SOL    HW130338   1.000   4.168   0.098  0.5911 -0.3016  2.1441
 9813SOL    HW230339   0.863   4.208   0.178 -1.4129 -0.0436 -1.2431
 9814SOL     OW30340   6.939   0.062   4.588  0.4011  0.0776  0.1067
 9814SOL    HW130341   6.888   0.105   4.663 -0.2156  0.0127 -0.2643
 9814SOL    HW230342   6.947   0.127   4.512 -2.6350 -1.1179 -1.4354
 9815SOL     OW30343   1.052   4.308   1.080  0.0180 -0.3889  0.9087
 9815SOL    HW130344   1.009   4.287   0.992  1.5341 -1.1597  0.3305
 9815SOL    HW230345   1.045   4.407   1.097  0.1543 -0.1536 -0.3211
 9816SOL     OW30346   0.672   2.066   3.353  0.0962 -0.3569  0.5817
 9816SOL    HW130347   0.700   2.002   3.425 -1.2077 -0.5577  0.9313
 9816SOL    HW230348   0.693   2.159   3.382  0.0035 -0.4701  1.0356
 9817SOL     OW30349   1.479   6.432   0.081  0.2941  0.4444 -0.4250
 9817SOL    HW130350   1.415   6.472   0.147  0.4817 -0.6929  0.4816
 9817SOL    HW230351   1.439   6.435  -0.010  0.0761  2.1617 -0.3202
 9818SOL     OW30352   5.603   6.938   1.766 -0.5916  0.3091  0.3760
 9818SOL    HW130353   5.580   6.970   1.858  0.7950  1.9550  0.1971
 9818SOL    HW230354   5.586   7.012   1.700 -1.0381 -0.6605 -0.6282
 9819SOL     OW30355   5.095   1.545   5.607  0.0120  0.5132 -0.0839
 9819SOL    HW130356   5.072   1.606   5.530 -0.1636  1.0931  0.4178
 9819SOL    HW230357   5.168   1.483   5.579 -0.6007  0.1666 -0.9835
 9820SOL     OW30358   4.596   0.962   6.380  0.1228  0.3514 -0.0214
 9820SOL    HW130359   4.535   1.022   6.328  2.0510  2.0003 -0.5124
 9820SOL    HW230360   4.595   0.988   6.477 -1.4233 -0.9532  0.3486
 9821SOL     OW30361   5.954   2.901   6.911 -0.0276 -0.2290  0.1036
 9821SOL    HW130362   5.904   2.928   6.829  1.9048 -0.1801 -1.0975
 9821SOL    HW230363   5.888   2.876   6.983 -1.7674  0.9750 -0.9947
 9822SOL     OW30364   3.159   0.729   4.199 -0.0914  0.1518  0.4513
 9822SOL    HW130365   3.090   0.756   4.265 -0.6172  1.4820 -0.6016
 9822SOL    HW230366   3.117   0.721   4.108  0.9880  0.2284 -0.0694
 9823SOL     OW30367   3.504   6.125   2.519  0.0392  0.2964  0.1272
 9823SOL    HW130368   3.476   6.175   2.437 -2.4207  1.0627  1.3454
 9823SOL    HW230369   3.510   6.027   2.498 -1.3741  0.3866 -0.8007
 9824SOL     OW30370   0.710   5.144   5.524 -0.0751 -0.6071 -0.4266
 9824SOL    HW130371   0.802   5.144   5.563 -0.1174  1.5852 -0.2377
 9824SOL    HW230372   0.651   5.082   5.577  0.5447  0.2550  1.3237
 9825SOL     OW30373   0.664   5.664   5.518 -0.1587  0.3806 -0.0905
 9825SOL    HW130374   0.582   5.700   5.473 -1.1731  1.2131  2.2436
 9825SOL    HW230375   0.731   5.736   5.529  0.8755 -0.2585 -1.8258
 9826SOL     OW30376   1.359   0.752   4.886  0.1871 -0.3159 -0.0762
 9826SOL    HW130377   1.397   0.829   4.834  0.5592 -1.0532 -0.9165
 9826SOL    HW230378   1.360   0.670   4.829 -1.1463 -0.7235  0.4619
 9827SOL     OW30379   0.292   3.598   2.015  0.1434  0.1721  0.0877
 9827SOL    HW130380   0.319   3.503   1.997  0.8162  0.5602 -0.9846
 9827SOL    HW230381   0.342   3.632   2.094  1.7114  0.3871 -0.9510
 9828SOL     OW30382   4.642   1.969   4.490 -0.1607 -0.6177 -0.1190
 9828SOL    HW130383   4.697   2.026   4.428 -1.0203 -2.0353 -2.2992
 9828SOL    HW230384   4.702   1.904   4.537  0.1926 -1.8199 -2.0998
 9829SOL     OW30385   5.089   2.836   5.101 -0.1047 -0.4303 -0.3740
 9829SOL    HW130386   5.163   2.882   5.150 -0.4775 -0.1196 -0.1004
 9829SOL    HW230387   5.017   2.902   5.080 -0.2951 -0.7263 -0.6603
 9830SOL     OW30388   6.756   0.416   4.266  0.1693 -0.4266  0.4542
 9830SOL    HW130389   6.693   0.352   4.310 -0.0193 -0.0268  0.7785
 9830SOL    HW230390   6.848   0.404   4.303 -0.0162  0.0077  1.0819
 9831SOL     OW30391   6.628   4.725   1.509  0.4030 -0.4531 -0.1781
 9831SOL    HW130392   6.565   4.648   1.521  1.8877 -2.0529 -1.9362
 9831SOL    HW230393   6.717   4.701   1.546  1.1623 -0.0340 -1.6443
 9832SOL     OW30394   4.794   5.598   5.009  0.5122  0.1698 -0.1273
 9832SOL    HW130395   4.839   5.685   5.031 -1.5634  1.0690  0.9129
 9832SOL    HW230396   4.702   5.598   5.049 -0.1058 -1.9102 -1.4178
 9833SOL     OW30397   2.957   3.410   3.817  0.8530 -0.0676 -0.3606
 9833SOL    HW130398   2.955   3.509   3.833  1.2269  0.0620 -1.0725
 9833SOL    HW230399   2.968   3.393   3.719  4.9916 -0.7539  0.0403
 9834SOL     OW30400   3.835   5.218   0.342 -0.0801  0.0773  0.1365
 9834SOL    HW130401   3.830   5.160   0.261  0.9113 -0.3079  0.3336
 9834SOL    HW230402   3.771   5.185   0.411  0.6922 -1.0008  0.3666
 9835SOL     OW30403   2.972   3.132   2.852 -0.4244  0.2599  0.4017
 9835SOL    HW130404   2.966   3.113   2.754  0.4990  2.3191 -0.1059
 9835SOL    HW230405   3.033   3.065   2.895 -1.0477 -0.8332 -0.3557
 9836SOL     OW30406   1.505   3.630   5.613 -0.2478 -0.4000  0.0147
 9836SOL    HW130407   1.547   3.682   5.538 -0.8806 -1.1846 -0.9110
 9836SOL    HW230408   1.534   3.668   5.701 -1.3715  2.0968 -0.6100
 9837SOL     OW30409   4.471   1.469   4.554  0.3934  0.4321  0.1064
 9837SOL    HW130410   4.487   1.552   4.608  1.0954  0.3724 -0.0024
 9837SOL    HW230411   4.553   1.412   4.554  0.5644  0.6324 -1.3816
 9838SOL     OW30412   1.068   4.592   6.575  0.2447 -0.4030  0.7536
 9838SOL    HW130413   0.988   4.595   6.635  0.3520  0.6491  0.8633
 9838SOL    HW230414   1.096   4.686   6.552  0.8663 -0.7764 -0.0571
 9839SOL     OW30415   5.414   6.676   3.402  0.0231  0.2708  0.3484
 9839SOL    HW130416   5.356   6.701   3.480 -0.6365 -1.1089  0.3237
 9839SOL    HW230417   5.482   6.609   3.432 -0.7285 -0.8609 -0.4190
 9840SOL     OW30418   5.600   2.294   5.206 -0.1579  0.0749  0.5526
 9840SOL    HW130419   5.632   2.373   5.154 -1.9477 -0.0364 -0.8291
 9840SOL    HW230420   5.533   2.323   5.274  0.0534 -0.1228  0.8497
 9841SOL     OW30421   5.269   5.933   1.659  0.7701 -0.0251 -0.5674
 9841SOL    HW130422   5.201   5.862   1.643  0.2430  0.0816  1.0039
 9841SOL    HW230423   5.342   5.927   1.591  0.7936 -2.1446 -0.4106
 9842SOL     OW30424   5.973   0.061   6.558 -0.3075 -0.0711  0.3742
 9842SOL    HW130425   5.925   0.048   6.471  0.5963  0.2725 -0.1962
 9842SOL    HW230426   5.974   0.158   6.581 -2.3243 -0.3314  1.8456
 9843SOL     OW30427   0.941   6.493   0.168 -0.5414 -0.5651  0.3146
 9843SOL    HW130428   0.942   6.397   0.138 -1.8324 -0.6591  0.5044
 9843SOL    HW230429   0.888   6.547   0.102  1.7460  0.4206 -0.8329
 9844SOL     OW30430   6.191   0.527   3.625 -0.7179 -0.1487 -1.2507
 9844SOL    HW130431   6.209   0.622   3.601 -2.7641  1.6723  3.1859
 9844SOL    HW230432   6.093   0.513   3.638 -0.2770 -1.9565  0.9987
 9845SOL     OW30433   0.908   3.766   1.966 -0.1149  0.6979  0.0909
 9845SOL    HW130434   0.824   3.712   1.976  0.9421 -1.0198  0.1009
 9845SOL    HW230435   0.893   3.857   2.004 -2.8163  1.3935 -2.2815
 9846SOL     OW30436   6.837   2.867   3.845  0.1918 -0.2540 -0.1659
 9846SOL    HW130437   6.929   2.868   3.884  0.7163  1.8733 -1.3197
 9846SOL    HW230438   6.787   2.949   3.874  0.2299  0.8650 -2.9826
 9847SOL     OW30439   4.910   3.578   1.157  0.9431 -0.7121  0.3012
 9847SOL    HW130440   4.842   3.532   1.215  1.9669 -1.1995  1.1521
 9847SOL    HW230441   4.951   3.511   1.095  2.3821 -1.0025  1.4882
 9848SOL     OW30442   1.814   3.188   4.869 -0.4711  0.1070 -0.0971
 9848SOL    HW130443   1.822   3.272   4.923 -0.3192 -0.7395  1.2461
 9848SOL    HW230444   1.902   3.167   4.827  0.0591 -0.4009  1.1891
 9849SOL     OW30445   3.670   1.132   0.872  0.4191 -0.2386 -0.2694
 9849SOL    HW130446   3.622   1.192   0.808  2.6741  2.0751  0.0655
 9849SOL    HW230447   3.605   1.096   0.939 -0.9520  2.4711 -0.0349
 9850SOL     OW30448   2.282   4.318   4.945 -0.7762 -0.0585 -0.5330
 9850SOL    HW130449   2.301   4.336   5.041 -1.9697 -0.8046 -0.1360
 9850SOL    HW230450   2.319   4.228   4.920  3.4909  1.8219 -2.0130
 9851SOL     OW30451   2.575   5.751   2.072 -0.3989 -0.0887 -0.1498
 9851SOL    HW130452   2.601   5.842   2.040  0.6433 -0.5882 -0.7813
 9851SOL    HW230453   2.543   5.757   2.167  1.3981  0.6905  0.4534
 9852SOL     OW30454   2.785   1.145   6.531 -0.4028  0.0550  0.1983
 9852SOL    HW130455   2.762   1.242   6.536 -1.0448 -0.0489 -0.4400
 9852SOL    HW230456   2.769   1.102   6.620 -1.3093  0.2976  0.1639
 9853SOL     OW30457   5.967   3.095   4.245 -0.6453 -0.3500  0.1664
 9853SOL    HW130458   5.907   3.020   4.220  0.3519 -1.6021  1.3648
 9853SOL    HW230459   5.954   3.117   4.342  0.1180  0.0377  0.1867
 9854SOL     OW30460   0.176   5.230   2.190 -0.2046  0.1638 -0.0882
 9854SOL    HW130461   0.254   5.180   2.226 -1.4583 -1.1902  0.8733
 9854SOL    HW230462   0.172   5.320   2.234  0.6571  0.1457  0.0461
 9855SOL     OW30463   6.327   0.065   1.484  0.6122  0.1139  0.1359
 9855SOL    HW130464   6.319   0.056   1.583  0.2766 -0.3142  0.0722
 9855SOL    HW230465   6.351   0.159   1.461  1.5546  0.0134  0.6694
 9856SOL     OW30466   5.974   3.568   4.849 -0.7081  0.1315  0.0153
 9856SOL    HW130467   6.023   3.603   4.929  0.3128  1.3973 -1.1262
 9856SOL    HW230468   5.989   3.469   4.842  1.8224  0.4659 -0.3328
 9857SOL     OW30469   3.615   0.352   0.390 -0.2742 -0.0647 -0.3882
 9857SOL    HW130470   3.519   0.334   0.412  0.2637 -0.4758  1.9171
 9857SOL    HW230471   3.652   0.277   0.335 -1.5327  0.6577 -2.3009
 9858SOL     OW30472   6.068   6.238   2.843 -0.4015  0.0107 -0.1792
 9858SOL    HW130473   6.122   6.155   2.856  0.9666  0.8041 -0.6132
 9858SOL    HW230474   5.986   6.216   2.790 -0.3013 -1.1304  0.0957
 9859SOL     OW30475   6.917   0.850   2.537 -0.6002  0.7033  0.4935
 9859SOL    HW130476   6.977   0.824   2.613 -1.3780 -1.4860  0.4264
 9859SOL    HW230477   6.916   0.777   2.468 -0.7025  2.2023 -1.1643
 9860SOL     OW30478   0.209   3.006   3.542 -0.1833  0.2787 -0.1933
 9860SOL    HW130479   0.307   3.008   3.562 -0.3127  0.2143  0.4881
 9860SOL    HW230480   0.170   2.923   3.582 -0.5614  0.4417 -0.2267
 9861SOL     OW30481   4.869   1.559   3.202 -0.0489 -0.0599 -0.0403
 9861SOL    HW130482   4.917   1.499   3.137  0.0182  0.4542 -0.4740
 9861SOL    HW230483   4.852   1.647   3.159 -1.5641 -0.2894  0.0436
 9862SOL     OW30484   2.640   1.999   6.808 -0.2327 -0.0170  0.9350
 9862SOL    HW130485   2.618   1.967   6.716  1.3480 -1.1575  0.9151
 9862SOL    HW230486   2.560   2.044   6.847 -0.4427  2.1912 -1.6800
 9863SOL     OW30487   4.147   3.428   2.413 -0.8193  0.7460 -0.2470
 9863SOL    HW130488   4.174   3.367   2.487  0.4502  0.7222 -0.6998
 9863SOL    HW230489   4.066   3.480   2.440 -1.8925 -1.0421  0.1883
 9864SOL     OW30490   2.225   5.500   6.294  0.5879 -0.5446  0.3409
 9864SOL    HW130491   2.285   5.509   6.373  0.6237  0.4994  0.2092
 9864SOL    HW230492   2.266   5.546   6.215  0.9374 -2.2657 -0.5310
 9865SOL     OW30493   2.435   4.511   0.855  0.6463 -0.4908 -0.3745
 9865SOL    HW130494   2.336   4.496   0.844  0.6334 -0.3424 -0.4644
 9865SOL    HW230495   2.484   4.436   0.811  0.5794 -0.3369 -0.7192
 9866SOL     OW30496   0.365   6.267   5.871  0.3730 -0.2227 -0.0185
 9866SOL    HW130497   0.391   6.274   5.967  0.5389  1.8240 -0.1787
 9866SOL    HW230498   0.310   6.347   5.845 -3.8772 -2.9531 -0.4040
 9867SOL     OW30499   6.380   2.504   3.633 -0.0145 -0.2192  0.1930
 9867SOL    HW130500   6.380   2.592   3.680  0.3261 -1.2832  2.3364
 9867SOL    HW230501   6.468   2.491   3.586 -0.3116  0.8159 -0.6930
 9868SOL     OW30502   1.627   3.495   4.617 -0.3501 -0.9331 -0.2962
 9868SOL    HW130503   1.634   3.534   4.526  0.9271 -1.3625 -0.4068
 9868SOL    HW230504   1.694   3.538   4.678  2.5661 -4.0890 -0.9106
 9869SOL     OW30505   5.840   2.492   0.917 -0.1216  0.1298 -0.0000
 9869SOL    HW130506   5.920   2.434   0.930  0.1316  0.7070  1.0984
 9869SOL    HW230507   5.869   2.584   0.890 -0.4528  0.1687 -0.2339
 9870SOL     OW30508   2.015   1.902   3.199 -0.7945 -0.4467  0.2755
 9870SOL    HW130509   2.010   1.865   3.292  1.0431  1.1995  1.0992
 9870SOL    HW230510   2.103   1.877   3.158 -1.0655 -0.0894 -0.5430
 9871SOL     OW30511   6.229   6.720   3.607  0.2975 -0.5428 -0.0140
 9871SOL    HW130512   6.280   6.696   3.690 -1.1462  0.3788  1.2046
 9871SOL    HW230513   6.287   6.773   3.546  1.0031 -0.0689  1.0323
 9872SOL     OW30514   0.389   5.552   6.104 -0.2815  0.6673 -0.1753
 9872SOL    HW130515   0.316   5.602   6.057  0.5939  0.8887 -1.3269
 9872SOL    HW230516   0.390   5.578   6.201 -0.6796  1.9023 -0.4835
 9873SOL     OW30517   0.097   0.578   3.035  0.1163 -0.0216 -0.1308
 9873SOL    HW130518   0.061   0.649   2.975  0.0787  2.0520  2.1988
 9873SOL    HW230519   0.193   0.561   3.013  0.2706  1.1369 -0.4027
 9874SOL     OW30520   0.038   1.739   4.846 -1.2585  0.3144  0.6158
 9874SOL    HW130521   0.033   1.818   4.786  0.7720 -0.5658 -0.8501
 9874SOL    HW230522   0.021   1.767   4.941  2.2462  3.1716  0.6289
 9875SOL     OW30523   5.162   6.111   6.807  0.2679  0.2293 -0.0834
 9875SOL    HW130524   5.197   6.067   6.725 -0.2653 -0.5103  0.0788
 9875SOL    HW230525   5.063   6.095   6.814  0.4272 -0.3407  1.0748
 9876SOL     OW30526   1.066   6.878   3.451  0.1504  0.5227 -0.0516
 9876SOL    HW130527   1.128   6.916   3.383  0.2640  1.9096  0.7909
 9876SOL    HW230528   1.084   6.920   3.540 -0.3406 -0.8721  0.7447
 9877SOL     OW30529   1.129   6.793   5.109  0.1045  0.1051 -0.1919
 9877SOL    HW130530   1.204   6.735   5.077 -0.1180 -0.3830  0.1512
 9877SOL    HW230531   1.094   6.757   5.196  0.1875  0.9619  0.2006
 9878SOL     OW30532   5.790   4.349   1.149 -0.5087 -0.0488 -0.7992
 9878SOL    HW130533   5.801   4.448   1.156 -0.3601 -0.0671 -0.7587
 9878SOL    HW230534   5.823   4.307   1.234 -1.1357 -0.0891 -0.5690
 9879SOL     OW30535   4.670   5.320   2.507  0.0614 -0.0677 -0.4342
 9879SOL    HW130536   4.646   5.415   2.487  3.7420  1.3084  0.8408
 9879SOL    HW230537   4.695   5.274   2.421  1.4192  1.1924 -0.7623
 9880SOL     OW30538   5.497   2.176   0.262 -0.1917  0.6855  0.2550
 9880SOL    HW130539   5.403   2.207   0.280  0.2093  2.0268  0.1457
 9880SOL    HW230540   5.546   2.247   0.211  0.7095 -0.2508 -0.2127
 9881SOL     OW30541   5.857   0.109   2.352  0.2156 -0.2985 -0.3888
 9881SOL    HW130542   5.818   0.195   2.386  3.0581  0.6184  0.8398
 9881SOL    HW230543   5.783   0.046   2.329 -2.0286  2.4717 -1.4884
 9882SOL     OW30544   4.004   3.865   3.624  0.2694  0.5015  0.5268
 9882SOL    HW130545   4.007   3.766   3.636 -1.5299  0.6788  3.3876
 9882SOL    HW230546   3.981   3.886   3.529  2.4474 -1.7052 -0.5906
 9883SOL     OW30547   0.380   4.477   2.977 -0.2762  0.0998  0.3496
 9883SOL    HW130548   0.283   4.501   2.967 -0.5612 -1.3063 -0.4969
 9883SOL    HW230549   0.425   4.482   2.888 -0.1781 -1.6817  0.2650
 9884SOL     OW30550   5.699   2.120   5.872  0.6202 -0.5430  0.2501
 9884SOL    HW130551   5.650   2.129   5.786  0.7958 -1.3684  0.0580
 9884SOL    HW230552   5.686   2.028   5.909  0.3665 -0.1323  1.2175
 9885SOL     OW30553   4.162   3.919   5.606  0.2857 -0.7668 -0.1884
 9885SOL    HW130554   4.102   3.874   5.672 -1.3540  2.4900  0.7476
 9885SOL    HW230555   4.116   3.925   5.517  0.6212 -1.1483 -0.3917
 9886SOL     OW30556   2.664   6.203   2.495 -0.4430  0.4293 -0.0306
 9886SOL    HW130557   2.595   6.135   2.471 -0.1291  0.1654 -0.1837
 9886SOL    HW230558   2.619   6.281   2.540 -0.6753 -0.3547  1.1496
 9887SOL     OW30559   2.481   0.638   5.960 -0.5394  0.2726 -0.0499
 9887SOL    HW130560   2.581   0.643   5.960 -0.4011 -1.2987  1.4778
 9887SOL    HW230561   2.452   0.549   5.925 -1.4405  0.8791 -0.8797
 9888SOL     OW30562   2.163   6.835   4.667  0.0617  0.2806  0.2106
 9888SOL    HW130563   2.162   6.933   4.689 -0.1460  0.5856 -1.0606
 9888SOL    HW230564   2.069   6.799   4.673 -0.1089  0.5252 -0.7766
 9889SOL     OW30565   6.919   4.851   3.400 -0.6283 -0.1613  0.0258
 9889SOL    HW130566   6.936   4.902   3.485 -0.8346  0.1268 -0.1070
 9889SOL    HW230567   6.823   4.858   3.375 -0.3205  0.8061 -0.9119
 9890SOL     OW30568   0.855   2.682   4.175 -0.3549  0.2212  0.0306
 9890SOL    HW130569   0.798   2.746   4.227  1.9474  0.9921  1.7893
 9890SOL    HW230570   0.875   2.721   4.085  0.1610  1.5517  0.6899
 9891SOL     OW30571   4.382   0.687   1.280  0.0028  0.3232  0.7418
 9891SOL    HW130572   4.401   0.785   1.268  1.2016  0.0892  0.6381
 9891SOL    HW230573   4.319   0.656   1.209  0.8042  0.6917 -0.1468
 9892SOL     OW30574   2.981   5.814   5.487 -0.4229  0.3151  0.4373
 9892SOL    HW130575   2.896   5.836   5.535 -0.8395  2.5690 -1.1278
 9892SOL    HW230576   3.026   5.899   5.459  1.0719 -0.8557 -0.9234
 9893SOL     OW30577   4.353   4.558   5.493  0.3610 -0.5910  0.3073
 9893SOL    HW130578   4.261   4.577   5.460  0.1426 -0.7045  0.8404
 9893SOL    HW230579   4.352   4.548   5.593  1.4172  2.5060  0.7401
 9894SOL     OW30580   5.263   2.847   6.648  0.4913 -0.1508  0.5586
 9894SOL    HW130581   5.188   2.865   6.585  1.3200  0.2301 -0.3282
 9894SOL    HW230582   5.269   2.749   6.666  0.2787 -0.2595  0.0315
 9895SOL     OW30583   4.394   2.428   5.703  0.1200  0.7805  0.7946
 9895SOL    HW130584   4.453   2.506   5.724  1.2367  0.0749  0.3578
 9895SOL    HW230585   4.408   2.356   5.771 -0.9456  0.9652  1.2262
 9896SOL     OW30586   3.916   3.552   5.401 -0.1381 -0.3946  0.2225
 9896SOL    HW130587   3.906   3.454   5.385  0.5508 -0.9989  2.9475
 9896SOL    HW230588   3.902   3.572   5.497 -0.1827  2.2112 -0.2432
 9897SOL     OW30589   2.048   1.909   2.695  0.0191  0.4033 -0.1133
 9897SOL    HW130590   2.127   1.849   2.683 -0.1146  0.1341  0.3277
 9897SOL    HW230591   1.972   1.876   2.639  0.0357  0.3269 -0.0904
 9898SOL     OW30592   2.297   3.942   5.421 -0.3171  0.0595 -0.0210
 9898SOL    HW130593   2.296   3.842   5.420  0.6161  0.0375 -0.2248
 9898SOL    HW230594   2.355   3.976   5.346  0.5310  0.7087  0.8943
 9899SOL     OW30595   4.295   5.683   6.900 -0.3367  0.6018 -0.0852
 9899SOL    HW130596   4.250   5.689   6.811 -0.5623 -0.8323 -0.0853
 9899SOL    HW230597   4.394   5.691   6.887 -0.4309  1.5172 -0.3261
 9900SOL     OW30598   2.095   3.345   3.564 -0.2055  0.1529  0.1395
 9900SOL    HW130599   2.002   3.368   3.591 -0.1135  0.7093 -0.0087
 9900SOL    HW230600   2.113   3.381   3.472 -0.0222 -0.4262 -0.0579
 9901SOL     OW30601   2.816   3.393   5.214 -0.4459  0.2132 -0.1291
 9901SOL    HW130602   2.835   3.344   5.299 -1.3435  1.3171  0.7268
 9901SOL    HW230603   2.868   3.351   5.140 -1.2994 -2.1680  0.5146
 9902SOL     OW30604   4.312   4.275   6.908 -0.1309  0.2905 -0.0171
 9902SOL    HW130605   4.408   4.302   6.897  0.0302  0.0157  0.6499
 9902SOL    HW230606   4.253   4.347   6.872  0.3246 -0.1974 -1.8440
 9903SOL     OW30607   2.455   0.571   6.875 -0.4898 -0.1898  0.0439
 9903SOL    HW130608   2.379   0.593   6.814 -0.6752  0.8285  0.6071
 9903SOL    HW230609   2.539   0.614   6.841 -0.0858 -1.5352 -0.7222
 9904SOL     OW30610   6.758   0.126   0.304  0.2302  0.1986  0.0846
 9904SOL    HW130611   6.690   0.095   0.371  0.2101  1.6003  0.7599
 9904SOL    HW230612   6.844   0.077   0.318 -0.1495 -0.4091  0.3110
 9905SOL     OW30613   2.071   0.576   6.965 -0.2038  0.9185 -0.0948
 9905SOL    HW130614   1.992   0.515   6.969 -0.5600  1.3450 -0.5245
 9905SOL    HW230615   2.072   0.634   7.046  1.3526 -1.1108  1.4384
 9906SOL     OW30616   3.747   3.724   0.598 -0.0365 -0.8629 -0.2745
 9906SOL    HW130617   3.743   3.813   0.551 -0.4844 -0.9663 -0.4324
 9906SOL    HW230618   3.773   3.739   0.694 -2.3534 -0.3229  0.3310
 9907SOL     OW30619   1.077   0.838   2.329 -0.1507  0.4659 -0.2152
 9907SOL    HW130620   1.029   0.769   2.275 -2.3396  0.5854  1.4557
 9907SOL    HW230621   1.070   0.927   2.284 -1.9156  0.5623  0.2136
 9908SOL     OW30622   6.927   3.215   5.419  0.2057 -0.0324 -0.3993
 9908SOL    HW130623   6.957   3.186   5.328  1.9422 -1.2666  0.5224
 9908SOL    HW230624   6.988   3.285   5.454  2.1620 -2.4349  1.4133
 9909SOL     OW30625   2.221   4.136   3.450 -0.3930  0.4439 -0.4116
 9909SOL    HW130626   2.136   4.183   3.473 -0.1222  0.4423  0.6454
 9909SOL    HW230627   2.203   4.068   3.379 -0.6134  2.7230 -2.6705
 9910SOL     OW30628   2.404   0.257   0.943  0.2243  0.3582 -0.3402
 9910SOL    HW130629   2.458   0.264   0.860  1.8982  0.0070  0.6664
 9910SOL    HW230630   2.387   0.160   0.964  1.7088  0.3222  0.8522
 9911SOL     OW30631   2.278   4.637   2.146  0.0817 -0.3346 -0.1132
 9911SOL    HW130632   2.285   4.584   2.061 -0.4711 -0.5905 -0.0050
 9911SOL    HW230633   2.370   4.656   2.181  0.3017 -0.6215 -0.5253
 9912SOL     OW30634   0.495   6.863   1.471  0.3418 -0.2687 -0.5008
 9912SOL    HW130635   0.570   6.814   1.516 -0.3998 -0.4880  0.5258
 9912SOL    HW230636   0.530   6.949   1.434  1.3342 -0.8679 -1.0122
 9913SOL     OW30637   5.420   4.026   6.378  0.3346  0.2360  0.1891
 9913SOL    HW130638   5.348   4.083   6.418 -0.7706 -1.8688  1.3638
 9913SOL    HW230639   5.481   3.994   6.450  0.3922 -0.7960 -0.3077
 9914SOL     OW30640   2.211   3.910   2.335  0.0336 -0.0320 -0.0291
 9914SOL    HW130641   2.194   3.879   2.241  0.0081 -0.8340  0.2302
 9914SOL    HW230642   2.225   3.831   2.394  2.0668  0.5147  0.2857
 9915SOL     OW30643   3.969   4.535   5.715 -0.4509  0.2234 -0.0676
 9915SOL    HW130644   3.939   4.611   5.657 -0.0965  0.9422  0.6662
 9915SOL    HW230645   3.959   4.449   5.665 -2.1713  0.5992 -0.4227
 9916SOL     OW30646   1.970   3.764   1.666  0.4496 -0.1514 -0.3357
 9916SOL    HW130647   1.917   3.753   1.750  0.1235 -2.2038 -0.7356
 9916SOL    HW230648   2.044   3.697   1.664  1.2315  0.7037 -1.1297
 9917SOL     OW30649   1.836   3.455   3.631  0.2029 -0.1543  0.2900
 9917SOL    HW130650   1.830   3.555   3.634 -0.4791 -0.1917  0.5361
 9917SOL    HW230651   1.745   3.417   3.647  0.4095 -0.8129 -0.0782
 9918SOL     OW30652   2.026   2.331   4.174 -0.5031 -0.2839  0.2770
 9918SOL    HW130653   1.930   2.333   4.201 -0.1348  1.3506  1.6097
 9918SOL    HW230654   2.036   2.381   4.087 -0.8572 -0.5149  0.0976
 9919SOL     OW30655   2.894   6.109   2.626 -0.2792 -0.2187  0.5510
 9919SOL    HW130656   2.896   6.009   2.625  0.3914 -0.2067  0.1042
 9919SOL    HW230657   2.826   6.141   2.560 -0.5670 -0.3787  0.7666
 9920SOL     OW30658   4.823   1.941   4.244 -0.5124  0.4635 -0.9077
 9920SOL    HW130659   4.795   1.935   4.148  0.2449 -0.9685 -1.0597
 9920SOL    HW230660   4.919   1.915   4.253 -0.7440 -0.0489  0.3167
 9921SOL     OW30661   4.948   0.645   3.121 -0.2917 -0.1448 -0.3526
 9921SOL    HW130662   5.020   0.627   3.189  0.5701  1.2415 -0.8540
 9921SOL    HW230663   4.988   0.694   3.043 -2.1315  2.3726  0.1932
 9922SOL     OW30664   5.405   3.075   1.330 -0.4181  0.6743  0.0168
 9922SOL    HW130665   5.313   3.077   1.368 -0.1039  0.6086  0.7963
 9922SOL    HW230666   5.462   3.143   1.377  0.6943 -1.2291  1.5619
 9923SOL     OW30667   6.327   0.798   4.745 -0.1473  0.2840  0.2023
 9923SOL    HW130668   6.354   0.740   4.821  1.6161  0.7620 -0.0040
 9923SOL    HW230669   6.319   0.743   4.662 -2.4045 -0.2967  0.7417
 9924SOL     OW30670   6.392   0.674   2.075  0.0455  0.2042 -0.4346
 9924SOL    HW130671   6.432   0.659   2.165 -1.2375 -0.0637  0.1193
 9924SOL    HW230672   6.440   0.619   2.007  0.5366 -0.1813  0.2107
 9925SOL     OW30673   5.272   2.703   7.009  0.3081 -0.5020  0.4660
 9925SOL    HW130674   5.262   2.740   7.101  0.9963  0.4392  0.1835
 9925SOL    HW230675   5.254   2.776   6.942 -0.6753 -1.2908 -0.1619
 9926SOL     OW30676   0.492   2.047   6.626 -0.1186  0.1049  0.0733
 9926SOL    HW130677   0.505   1.949   6.611 -2.0471 -0.0910 -0.6592
 9926SOL    HW230678   0.424   2.082   6.561  0.5632  1.9503  0.2923
 9927SOL     OW30679   1.604   2.859   4.393 -0.0578  0.0583 -1.2376
 9927SOL    HW130680   1.535   2.807   4.443  0.1093  0.5147 -0.5136
 9927SOL    HW230681   1.600   2.955   4.421  1.2892 -0.0127 -0.7036
 9928SOL     OW30682   5.481   4.409   4.441  0.2007  0.5964  0.4446
 9928SOL    HW130683   5.447   4.370   4.527 -2.9217  0.0609 -0.8727
 9928SOL    HW230684   5.464   4.507   4.439  0.6557  0.6801  0.5868
 9929SOL     OW30685   2.671   4.535   5.350  0.1121  0.6595  0.7475
 9929SOL    HW130686   2.755   4.542   5.296 -0.4001  2.4195  0.1029
 9929SOL    HW230687   2.694   4.514   5.445  1.1554 -0.5579  0.2463
 9930SOL     OW30688   6.835   0.263   4.786 -0.1806 -0.0183  0.2445
 9930SOL    HW130689   6.895   0.313   4.848  0.7266 -2.1434  1.1763
 9930SOL    HW230690   6.739   0.286   4.805  0.2062  2.4521 -0.4113
 9931SOL     OW30691   1.629   3.192   0.005  0.0570  0.3518 -0.1663
 9931SOL    HW130692   1.695   3.123   0.034 -0.0274  0.0313 -0.7060
 9931SOL    HW230693   1.645   3.278   0.054 -0.2796 -0.2480  1.0303
 9932SOL     OW30694   2.151   1.078   0.628 -0.4318 -0.0090 -0.3024
 9932SOL    HW130695   2.072   1.031   0.667 -1.1521  0.9708 -0.5687
 9932SOL    HW230696   2.121   1.151   0.567  0.6733  0.7531  0.0324
 9933SOL     OW30697   0.408   1.173   2.360  0.0523  0.5219  0.1460
 9933SOL    HW130698   0.422   1.191   2.457 -1.1311 -0.1277  0.4476
 9933SOL    HW230699   0.314   1.192   2.335 -0.0486 -0.7680 -0.5297
 9934SOL     OW30700   4.745   2.061   5.127 -0.6359 -0.2397  0.6937
 9934SOL    HW130701   4.833   2.103   5.147  0.1111 -1.3815 -0.0303
 9934SOL    HW230702   4.750   2.014   5.039 -2.4782  1.0186 -0.1246
 9935SOL     OW30703   3.297   2.220   0.906 -0.0266  0.4301 -0.2464
 9935SOL    HW130704   3.214   2.198   0.856  1.1904 -1.8292 -1.3954
 9935SOL    HW230705   3.279   2.216   1.005 -1.3488  0.3863 -0.4838
 9936SOL     OW30706   4.696   5.312   0.966 -0.0000  0.0207 -0.1111
 9936SOL    HW130707   4.775   5.253   0.949  0.3110 -0.2447  1.9855
 9936SOL    HW230708   4.700   5.348   1.059 -1.3567  1.5880 -0.5987
 9937SOL     OW30709   2.774   6.707   5.972  0.3044 -0.5358  0.2874
 9937SOL    HW130710   2.745   6.611   5.968 -2.6363  0.2955 -1.3694
 9937SOL    HW230711   2.713   6.763   5.916  2.1129  2.3173  0.9276
 9938SOL     OW30712   3.025   6.871   5.242  0.6959  0.0687 -0.0789
 9938SOL    HW130713   2.953   6.932   5.208 -0.1992 -0.2137  1.2444
 9938SOL    HW230714   3.074   6.916   5.317  1.1952 -0.1742 -0.2532
 9939SOL     OW30715   4.593   3.511   1.015 -0.1155 -0.1743 -0.0602
 9939SOL    HW130716   4.633   3.603   1.008  0.2990 -0.4074 -0.8308
 9939SOL    HW230717   4.662   3.443   0.992 -0.0287 -0.7828  1.8114
 9940SOL     OW30718   0.423   2.071   1.746  0.5667  0.3963  0.5377
 9940SOL    HW130719   0.411   2.145   1.680 -0.1032  1.9870  2.3735
 9940SOL    HW230720   0.347   2.071   1.811  0.6878 -1.7718  0.7390
 9941SOL     OW30721   1.252   4.827   3.976  0.2695  0.0736 -0.2931
 9941SOL    HW130722   1.220   4.839   3.882  1.5446 -1.7102 -1.0035
 9941SOL    HW230723   1.177   4.847   4.039 -0.4050  2.0714 -1.6088
 9942SOL     OW30724   6.571   4.717   2.516  0.1460 -0.0391 -0.1976
 9942SOL    HW130725   6.592   4.803   2.563 -0.7542  0.0983 -0.0131
 9942SOL    HW230726   6.655   4.665   2.501  0.4704 -0.1300  1.6544
 9943SOL     OW30727   1.874   3.429   5.022 -0.3862  0.0719 -0.3231
 9943SOL    HW130728   1.968   3.462   5.010 -0.5615  0.3997 -0.8669
 9943SOL    HW230729   1.811   3.499   4.989 -0.7853 -0.6375 -1.0966
 9944SOL     OW30730   3.749   5.833   1.602 -0.0013  0.0315 -0.4979
 9944SOL    HW130731   3.696   5.768   1.546  1.2126  0.0051 -1.6815
 9944SOL    HW230732   3.731   5.816   1.699 -1.6482 -0.3849 -0.8405
 9945SOL     OW30733   6.521   3.311   6.376  0.3404  0.2289 -0.2132
 9945SOL    HW130734   6.617   3.334   6.362  1.0942 -1.8827  0.9943
 9945SOL    HW230735   6.477   3.381   6.432  1.3318  0.9238 -0.2930
 9946SOL     OW30736   5.003   2.094   1.474  0.2113 -0.0242 -0.9252
 9946SOL    HW130737   5.086   2.114   1.422  0.1457  3.7143  0.0959
 9946SOL    HW230738   4.928   2.077   1.410  1.6255 -3.6988 -1.8709
 9947SOL     OW30739   0.823   0.190   1.129  0.3880  0.0508  0.5968
 9947SOL    HW130740   0.917   0.162   1.144  0.2095 -0.7121  0.3470
 9947SOL    HW230741   0.763   0.141   1.192  0.2261  1.0937  1.2790
 9948SOL     OW30742   6.143   1.804   6.064 -0.1313 -0.4075  0.4548
 9948SOL    HW130743   6.163   1.901   6.050 -1.1926 -0.1779  0.4823
 9948SOL    HW230744   6.221   1.761   6.110  2.2218 -0.5700 -3.3232
 9949SOL     OW30745   7.023   2.205   2.380  0.4050 -0.7594  0.2052
 9949SOL    HW130746   7.108   2.163   2.350  0.0951 -1.2800  0.0446
 9949SOL    HW230747   6.976   2.245   2.301  2.3880  3.1163  0.7735
 9950SOL     OW30748   6.501   5.682   5.154 -0.7788  0.1468  0.3487
 9950SOL    HW130749   6.552   5.606   5.195  0.1108  0.9438  0.7507
 9950SOL    HW230750   6.406   5.654   5.139 -0.2875 -1.3373 -0.2869
 9951SOL     OW30751   0.825   3.568   0.758  0.5054  0.4580  0.5267
 9951SOL    HW130752   0.730   3.595   0.772  0.5356  1.3718 -0.8353
 9951SOL    HW230753   0.882   3.606   0.832 -0.1074  0.3247  1.0729
 9952SOL     OW30754   2.260   3.464   1.222 -0.1358  0.2650  0.0367
 9952SOL    HW130755   2.235   3.497   1.313 -1.4543 -0.6157  0.0137
 9952SOL    HW230756   2.258   3.541   1.158  0.3962  0.8117  0.6563
 9953SOL     OW30757   6.344   2.951   6.195 -0.0296  0.3669 -0.0278
 9953SOL    HW130758   6.267   2.994   6.147 -2.1167 -1.7591  1.1906
 9953SOL    HW230759   6.363   3.002   6.279  0.7840  1.6202 -0.9368
 9954SOL     OW30760   6.232   2.353   0.411  0.1909 -0.0024  0.2432
 9954SOL    HW130761   6.206   2.449   0.400  0.3800  0.1854  1.3305
 9954SOL    HW230762   6.314   2.346   0.468 -0.2425 -0.8383  0.7903
 9955SOL     OW30763   1.293   4.513   5.035 -0.4309  0.5464  0.3393
 9955SOL    HW130764   1.290   4.541   5.131  2.8767  0.5878  0.5357
 9955SOL    HW230765   1.349   4.578   4.983  1.1056 -1.5396 -0.7747
 9956SOL     OW30766   1.444   3.486   4.167 -0.1470  0.1296  0.5739
 9956SOL    HW130767   1.447   3.554   4.241 -1.7072  1.3661 -0.4503
 9956SOL    HW230768   1.397   3.404   4.200  4.5922 -2.0436  2.9286
 9957SOL     OW30769   5.559   1.408   1.061  0.1063 -0.3988  0.1530
 9957SOL    HW130770   5.650   1.377   1.032  0.1789  0.3327 -0.4366
 9957SOL    HW230771   5.566   1.501   1.096 -0.6621  0.2716 -1.3963
 9958SOL     OW30772   0.763   6.308   2.823 -0.0810  0.3246 -0.2632
 9958SOL    HW130773   0.756   6.274   2.729 -1.4093 -0.5896  0.1334
 9958SOL    HW230774   0.679   6.285   2.873  1.8864 -2.3548  2.1755
 9959SOL     OW30775   4.259   5.477   5.558 -0.4510  0.2804 -0.6560
 9959SOL    HW130776   4.273   5.572   5.532 -0.3034  0.9268  1.5591
 9959SOL    HW230777   4.163   5.463   5.584 -0.2012  0.1951  0.2765
 9960SOL     OW30778   0.226   1.506   5.011  0.0361 -0.3591  0.2254
 9960SOL    HW130779   0.259   1.578   4.950  0.0745  0.3821  1.1010
 9960SOL    HW230780   0.282   1.424   4.998 -0.4309 -0.4699 -1.2600
 9961SOL     OW30781   1.976   0.579   1.092 -0.0013 -0.3384 -0.0853
 9961SOL    HW130782   2.071   0.580   1.063  0.2789 -0.8625  0.7834
 9961SOL    HW230783   1.970   0.605   1.188 -0.7391 -0.3217 -0.1276
 9962SOL     OW30784   5.636   2.097   2.842 -0.3111  0.0813 -0.4897
 9962SOL    HW130785   5.679   2.121   2.755  0.2725  0.1075 -0.2032
 9962SOL    HW230786   5.594   2.006   2.835  0.5903 -0.3479 -0.5171
 9963SOL     OW30787   0.303   0.756   4.451 -0.0259  0.2413 -0.2093
 9963SOL    HW130788   0.232   0.753   4.380 -0.8490  1.7313  0.4850
 9963SOL    HW230789   0.352   0.669   4.454 -1.4985 -0.6603 -1.0492
 9964SOL     OW30790   4.237   6.251   6.803  0.3180  0.4823  0.7893
 9964SOL    HW130791   4.199   6.201   6.726  2.3001 -0.1916  0.1737
 9964SOL    HW230792   4.200   6.344   6.806 -1.6049 -0.2279  0.5159
 9965SOL     OW30793   1.086   5.519   4.903 -0.0997 -0.6610  0.1195
 9965SOL    HW130794   1.159   5.496   4.968  1.8773  1.5554 -1.1675
 9965SOL    HW230795   1.093   5.460   4.823  0.7642  0.0305 -0.3209
 9966SOL     OW30796   1.963   3.410   1.597  0.1504 -0.1916  0.1054
 9966SOL    HW130797   1.980   3.391   1.694  0.0126 -1.0667 -0.0376
 9966SOL    HW230798   2.028   3.479   1.565 -0.4112  0.8063  1.0562
 9967SOL     OW30799   6.273   2.776   2.291  0.0985 -0.2178 -0.0745
 9967SOL    HW130800   6.188   2.821   2.315  0.2323  0.2095 -0.3775
 9967SOL    HW230801   6.334   2.776   2.370  0.4074  0.8729 -0.2848
 9968SOL     OW30802   4.300   5.729   4.943 -0.4388  0.4502 -0.3947
 9968SOL    HW130803   4.396   5.753   4.953 -0.3746  0.2669 -0.5667
 9968SOL    HW230804   4.254   5.736   5.031  0.3547 -2.2396  0.3195
 9969SOL     OW30805   1.021   0.013   2.111  0.2911 -0.1961  0.0331
 9969SOL    HW130806   1.084   0.072   2.161  0.2776  0.7521 -1.0466
 9969SOL    HW230807   1.033  -0.082   2.143  0.3462  0.3506  1.7352
 9970SOL     OW30808   1.115   2.236   1.143 -0.3666  1.0261  0.8768
 9970SOL    HW130809   1.073   2.303   1.082 -0.8235  0.8093  0.9549
 9970SOL    HW230810   1.199   2.201   1.102  0.1033  1.9581  1.0175
 9971SOL     OW30811   6.856   5.410   5.807  0.1453  0.1556  0.3263
 9971SOL    HW130812   6.874   5.494   5.756  0.7379 -0.5308 -0.6491
 9971SOL    HW230813   6.914   5.408   5.888 -1.0688  1.4283  1.2653
 9972SOL     OW30814   2.719   6.197   6.200  0.5594  0.2963  0.7908
 9972SOL    HW130815   2.701   6.217   6.296 -0.9049  0.3033  0.5423
 9972SOL    HW230816   2.710   6.098   6.184  0.2916  0.3526  0.5758
 9973SOL     OW30817   3.018   1.714   3.324  0.5969  0.0183  0.1604
 9973SOL    HW130818   3.013   1.781   3.397 -0.5509 -0.5730  0.6401
 9973SOL    HW230819   2.926   1.685   3.298  1.0602 -1.5512  0.1555
 9974SOL     OW30820   6.649   4.601   3.180 -0.1507  0.3110 -0.2597
 9974SOL    HW130821   6.738   4.600   3.133  0.5753 -0.3062  1.0672
 9974SOL    HW230822   6.643   4.683   3.237 -0.7610  0.7314 -0.9123
 9975SOL     OW30823   1.158   5.554   0.064  0.4664 -0.6556  0.2314
 9975SOL    HW130824   1.229   5.598   0.009  0.8029 -0.4218  0.8489
 9975SOL    HW230825   1.096   5.624   0.099  0.6814 -0.7270  0.7570
 9976SOL     OW30826   3.592   6.270   4.090  0.2951  0.2448 -1.0819
 9976SOL    HW130827   3.630   6.185   4.128 -0.2263  0.1218 -0.8293
 9976SOL    HW230828   3.497   6.255   4.063 -0.6268  1.3760  1.2260
 9977SOL     OW30829   4.216   1.428   5.093  0.1806  0.0428  0.0028
 9977SOL    HW130830   4.138   1.367   5.078  0.5597 -0.1965 -1.0762
 9977SOL    HW230831   4.230   1.485   5.013  0.2984  1.0439  0.7108
 9978SOL     OW30832   0.016   3.813   5.095  0.0026  0.1141  0.1431
 9978SOL    HW130833   0.064   3.726   5.103 -2.3792 -1.2124  0.7907
 9978SOL    HW230834   0.033   3.868   5.177 -1.4092 -1.3537  1.4821
 9979SOL     OW30835   3.808   2.960   3.869  0.3526 -0.0958  0.1803
 9979SOL    HW130836   3.720   2.989   3.831 -0.7171  0.3133  2.7794
 9979SOL    HW230837   3.831   2.870   3.833 -0.5152  0.3019 -1.4649
 9980SOL     OW30838   0.796   5.953   6.179  0.0909 -0.1372  0.3590
 9980SOL    HW130839   0.838   6.014   6.246  0.8680 -1.7883  1.4243
 9980SOL    HW230840   0.867   5.910   6.123 -0.4908  0.4336 -0.8542
 9981SOL     OW30841   1.074   3.120   6.011  0.4732 -0.3366  0.5200
 9981SOL    HW130842   1.130   3.089   5.935  0.2723  0.2317  0.1321
 9981SOL    HW230843   1.120   3.195   6.059 -0.1112  0.4052 -0.0451
 9982SOL     OW30844   1.892   0.694   6.142  0.0217 -0.2351  0.2742
 9982SOL    HW130845   1.872   0.790   6.123  0.1358 -0.0801  0.9096
 9982SOL    HW230846   1.907   0.682   6.240  1.8962 -0.5490 -0.0043
 9983SOL     OW30847   6.030   4.045   3.495  0.1067 -0.0176 -0.1320
 9983SOL    HW130848   5.992   4.038   3.402  0.7070 -0.3023 -0.3609
 9983SOL    HW230849   5.983   3.980   3.555 -0.7769  0.6731 -0.0608
 9984SOL     OW30850   0.185   3.775   1.808 -0.0788  0.5692 -0.3156
 9984SOL    HW130851   0.232   3.707   1.864 -0.1860 -0.8192 -1.8505
 9984SOL    HW230852   0.089   3.782   1.837 -0.2211 -0.3874 -0.5120
 9985SOL     OW30853   5.491   4.428   6.177 -0.4040 -0.7997 -0.1653
 9985SOL    HW130854   5.571   4.483   6.151  0.2110 -1.8497 -0.5468
 9985SOL    HW230855   5.438   4.406   6.095 -0.3354 -1.2473 -0.0906
 9986SOL     OW30856   5.611   3.657   6.100  0.4252  0.2115 -1.0920
 9986SOL    HW130857   5.605   3.740   6.156  0.0827 -0.3982 -0.1990
 9986SOL    HW230858   5.520   3.628   6.072  0.4280 -0.5573 -0.3391
 9987SOL     OW30859   4.067   6.835   0.676 -0.1248  0.1237  0.0294
 9987SOL    HW130860   4.103   6.877   0.592  1.5927  1.0804  1.1783
 9987SOL    HW230861   4.000   6.765   0.652 -0.2731  0.9103 -2.1045
 9988SOL     OW30862   4.215   0.244   2.028 -0.0478 -0.2318 -0.0485
 9988SOL    HW130863   4.223   0.199   1.939  1.3956  1.2431 -0.7073
 9988SOL    HW230864   4.139   0.308   2.027 -0.6844 -0.9704  0.1447
 9989SOL     OW30865   5.917   3.893   0.367 -0.0079 -0.3317  0.8444
 9989SOL    HW130866   5.954   3.983   0.390 -0.8739  0.8289 -1.8468
 9989SOL    HW230867   5.989   3.838   0.324 -0.1302  0.0992  0.0670
 9990SOL     OW30868   1.166   6.507   2.214 -0.4730 -0.4532 -0.4201
 9990SOL    HW130869   1.199   6.413   2.206  2.1716  0.5267 -2.9761
 9990SOL    HW230870   1.123   6.535   2.129  2.5644  1.8053 -1.4145
 9991SOL     OW30871   6.602   3.314   3.536  0.0668  0.5722  0.0967
 9991SOL    HW130872   6.652   3.358   3.611  0.4771  0.7342 -0.2633
 9991SOL    HW230873   6.505   3.338   3.542  0.3400  1.8620 -0.3128
 9992SOL     OW30874   1.363   3.607   0.280 -0.0016 -0.2668 -0.2444
 9992SOL    HW130875   1.385   3.564   0.192  0.8736 -0.7953  0.2228
 9992SOL    HW230876   1.434   3.586   0.346 -0.1741  0.9178  0.3437
 9993SOL     OW30877   2.686   0.225   2.723 -0.1080  0.3140 -0.1921
 9993SOL    HW130878   2.623   0.235   2.646 -1.4040 -0.1871  0.7654
 9993SOL    HW230879   2.756   0.157   2.700  0.6191  1.4628 -1.5747
 9994SOL     OW30880   5.114   5.851   4.244  0.4930 -0.6561  0.0232
 9994SOL    HW130881   5.165   5.902   4.174  2.3468 -1.3408  0.8081
 9994SOL    HW230882   5.098   5.910   4.323 -2.0550  0.2810 -1.0852
 9995SOL     OW30883   5.319   1.108   4.336 -1.0218 -0.1491 -0.8080
 9995SOL    HW130884   5.388   1.173   4.304  1.7346 -1.5004  1.9082
 9995SOL    HW230885   5.246   1.156   4.383 -0.7622  1.1550 -1.6896
 9996SOL     OW30886   1.734   3.669   1.108  0.0021  0.7226 -0.4963
 9996SOL    HW130887   1.672   3.742   1.138  0.9417  1.6293 -0.6949
 9996SOL    HW230888   1.691   3.580   1.124 -1.4101  1.3226 -0.7651
 9997SOL     OW30889   5.419   6.460   3.620  0.3143 -0.2923 -0.0952
 9997SOL    HW130890   5.422   6.361   3.632 -0.5685 -0.4025 -0.7103
 9997SOL    HW230891   5.324   6.491   3.620  0.5836  0.9866  3.3157
 9998SOL     OW30892   6.828   3.690   3.158  0.8612 -0.6619 -0.4675
 9998SOL    HW130893   6.851   3.741   3.241  0.5772 -0.9718 -0.1949
 9998SOL    HW230894   6.803   3.596   3.182 -1.5143 -0.1381 -0.6152
 9999SOL     OW30895   4.555   5.479   6.472 -0.1006 -0.1318  0.5073
 9999SOL    HW130896   4.566   5.406   6.405  1.8029  1.2908 -0.8263
 9999SOL    HW230897   4.634   5.479   6.534 -1.5634 -1.0819  2.5220
10000SOL     OW30898   3.558   2.451   0.649  0.7617  0.2356  0.2818
10000SOL    HW130899   3.494   2.374   0.655  1.8901 -0.6170  2.5585
10000SOL    HW230900   3.631   2.439   0.716  2.7805  1.6985 -1.5255
10001SOL     OW30901   3.585   4.503   1.198 -0.3335 -0.4656 -0.9889
10001SOL    HW130902   3.665   4.479   1.252  0.7845 -2.2917 -3.2607
10001SOL    HW230903   3.593   4.597   1.166  1.4782 -0.9120 -1.9977
10002SOL     OW30904   1.651   0.776   2.722 -0.3399  0.3174  0.0890
10002SOL    HW130905   1.723   0.762   2.790  1.3395  0.3058 -1.6240
10002SOL    HW230906   1.620   0.688   2.687 -1.3807  0.3119  0.9644
10003SOL     OW30907   1.025   1.928   2.978  0.2659 -0.6907  0.6342
10003SOL    HW130908   0.965   2.001   3.009 -1.4158 -1.9574  0.5279
10003SOL    HW230909   0.981   1.839   2.995  2.1008 -1.6866  0.4980
10004SOL     OW30910   0.852   3.251   3.933 -0.0006 -0.6576  0.2807
10004SOL    HW130911   0.909   3.314   3.985  1.9169 -0.9119 -1.3630
10004SOL    HW230912   0.883   3.250   3.837 -0.4782 -3.4685  0.0678
10005SOL     OW30913   3.365   1.744   4.225  0.1697  0.0950  0.0690
10005SOL    HW130914   3.358   1.804   4.146  1.2025 -1.5139 -1.3269
10005SOL    HW230915   3.378   1.799   4.308  0.6848  1.7948 -1.0804
10006SOL     OW30916   5.686   1.370   6.236  0.2832  0.1291  0.1669
10006SOL    HW130917   5.639   1.363   6.324 -2.2645  0.0966 -1.1266
10006SOL    HW230918   5.715   1.464   6.221  4.0980 -0.4415  2.5614
10007SOL     OW30919   1.939   3.517   2.871 -0.1610  0.4571  0.0454
10007SOL    HW130920   1.998   3.456   2.924  0.5557  1.3658  0.3388
10007SOL    HW230921   1.870   3.557   2.932 -0.7175 -0.1623 -0.1754
10008SOL     OW30922   3.344   6.688   6.269  0.0414 -0.3365  0.1979
10008SOL    HW130923   3.310   6.767   6.218 -0.2523 -0.6642 -0.1188
10008SOL    HW230924   3.434   6.662   6.234  0.7660  0.7030  1.2238
10009SOL     OW30925   0.156   5.952   2.247 -0.3916  0.2376 -0.5089
10009SOL    HW130926   0.218   6.018   2.204  1.6259 -1.6305 -0.6292
10009SOL    HW230927   0.155   5.967   2.346  0.0511  0.4210 -0.5306
10010SOL     OW30928   3.774   4.190   0.447 -0.6587  0.4712  0.1615
10010SOL    HW130929   3.786   4.289   0.451  0.8621  0.3923 -1.2386
10010SOL    HW230930   3.857   4.145   0.480 -0.0228 -0.2581 -2.2132
10011SOL     OW30931   3.715   4.591   5.546 -0.0659 -0.5669  0.5088
10011SOL    HW130932   3.692   4.500   5.510 -1.6325  0.0711 -0.1723
10011SOL    HW230933   3.777   4.637   5.483  1.1048 -1.3190  1.0822
10012SOL     OW30934   4.846   2.656   3.559  0.2496  0.0907 -0.6746
10012SOL    HW130935   4.810   2.693   3.644  1.6083 -2.5825  1.1809
10012SOL    HW230936   4.770   2.628   3.500 -0.8455 -1.9778  1.5436
10013SOL     OW30937   1.145   6.132   5.273  0.8400  0.7447 -0.2086
10013SOL    HW130938   1.084   6.182   5.335 -0.9367  0.5850 -1.7654
10013SOL    HW230939   1.207   6.197   5.229  2.0207  0.8830  1.5404
10014SOL     OW30940   0.433   2.711   2.370 -0.3688 -0.2554  0.2371
10014SOL    HW130941   0.497   2.787   2.369 -0.7531  0.0766 -1.2223
10014SOL    HW230942   0.461   2.643   2.303  0.6976 -2.0840  2.3772
10015SOL     OW30943   4.414   0.190   6.527 -0.0204  0.0167 -0.4246
10015SOL    HW130944   4.481   0.164   6.458  0.6399  1.3375 -0.3290
10015SOL    HW230945   4.459   0.245   6.598 -1.2295  1.1570 -0.4878
10016SOL     OW30946   2.133   0.085   6.887  0.3122 -0.1735  0.0140
10016SOL    HW130947   2.188   0.168   6.879 -0.9896  0.9068  1.5488
10016SOL    HW230948   2.180   0.020   6.948  0.7354 -0.0272 -0.1513
10017SOL     OW30949   4.306   2.347   3.557 -0.0909  0.1305  0.2352
10017SOL    HW130950   4.220   2.328   3.508  0.6163 -4.2652  0.3003
10017SOL    HW230951   4.382   2.342   3.493  0.4714 -1.0973  0.9713
10018SOL     OW30952   4.573   4.383   5.966 -0.5129 -0.1108 -0.4998
10018SOL    HW130953   4.622   4.409   5.882 -0.7496 -0.1524 -0.6515
10018SOL    HW230954   4.605   4.293   5.996  1.3832  0.9332  0.8418
10019SOL     OW30955   0.602   2.459   2.251 -0.3739  0.1746 -0.6184
10019SOL    HW130956   0.630   2.479   2.345 -1.2598 -0.9154 -0.0982
10019SOL    HW230957   0.680   2.421   2.200  0.4355  1.8302 -0.7021
10020SOL     OW30958   6.223   0.026   3.612 -0.1391  0.1706 -0.3207
10020SOL    HW130959   6.212   0.039   3.711  0.5923 -0.7195 -0.1047
10020SOL    HW230960   6.146  -0.028   3.577  0.7923 -1.6373  0.2458
10021SOL     OW30961   1.844   2.382   0.552 -0.0603 -0.7057  0.2097
10021SOL    HW130962   1.748   2.355   0.549 -0.0572 -0.7923  0.7487
10021SOL    HW230963   1.896   2.326   0.487 -0.3342 -0.8308  0.0960
10022SOL     OW30964   6.583   5.994   5.579 -0.1484 -0.0767 -0.4383
10022SOL    HW130965   6.494   6.035   5.598  0.1596  0.4638 -0.1335
10022SOL    HW230966   6.590   5.973   5.481 -0.5932 -0.0843 -0.4681
10023SOL     OW30967   1.657   0.188   4.593  0.3308  0.0561 -0.2355
10023SOL    HW130968   1.715   0.176   4.512 -0.2995  1.0784 -0.8667
10023SOL    HW230969   1.562   0.199   4.564  0.3082  2.2957  0.4679
10024SOL     OW30970   0.782   3.394   3.025  0.0130  0.2170  0.1130
10024SOL    HW130971   0.822   3.303   3.040 -0.5022 -0.0369 -0.0165
10024SOL    HW230972   0.854   3.462   3.023  0.5721 -0.3636 -1.2416
10025SOL     OW30973   0.506   1.229   6.606 -0.5969 -0.0714  0.0132
10025SOL    HW130974   0.601   1.232   6.636 -0.6177  0.7320  0.0324
10025SOL    HW230975   0.448   1.200   6.682 -0.5472  1.0946  0.5231
10026SOL     OW30976   5.222   1.773   3.245 -0.3842 -0.3157  0.4436
10026SOL    HW130977   5.154   1.765   3.172  0.1630  0.9218 -0.2354
10026SOL    HW230978   5.258   1.866   3.246  2.0566 -1.2044  0.1033
10027SOL     OW30979   4.633   2.703   6.414 -0.7156 -0.5054 -0.2468
10027SOL    HW130980   4.631   2.745   6.505  0.4365  2.5598 -1.5024
10027SOL    HW230981   4.540   2.696   6.379 -0.9880  0.9224  0.1075
10028SOL     OW30982   4.378   5.229   1.101  0.8138  0.2136  0.1384
10028SOL    HW130983   4.396   5.310   1.156 -0.1662  1.3017 -1.0734
10028SOL    HW230984   4.398   5.147   1.154 -1.4619  1.1446  2.6207
10029SOL     OW30985   0.006   4.689   0.715 -0.0981  0.3091 -0.3834
10029SOL    HW130986  -0.078   4.716   0.761  0.5979 -0.2358  1.2792
10029SOL    HW230987  -0.014   4.663   0.620 -1.5585  1.5181 -0.4336
10030SOL     OW30988   3.552   0.875   4.814 -0.0384 -0.1937  0.3393
10030SOL    HW130989   3.504   0.962   4.817 -1.9730 -1.1952 -0.0957
10030SOL    HW230990   3.569   0.848   4.720  1.8284  0.3252  0.4788
10031SOL     OW30991   1.357   5.418   5.571  0.0758 -0.1936  0.4757
10031SOL    HW130992   1.429   5.463   5.519 -0.7036  2.1390  1.2815
10031SOL    HW230993   1.398   5.367   5.647  1.0737 -2.0316 -1.2193
10032SOL     OW30994   1.210   5.135   6.116 -0.7446  0.1485 -0.0083
10032SOL    HW130995   1.292   5.141   6.059  0.5618  0.8131  1.8572
10032SOL    HW230996   1.138   5.192   6.077  0.4978  1.5104 -0.3972
10033SOL     OW30997   3.353   2.098   6.892 -0.1966  0.3501  0.1095
10033SOL    HW130998   3.355   2.143   6.981  2.9787 -0.2170  0.4235
10033SOL    HW230999   3.405   2.153   6.826  1.2006 -1.3263 -0.2446
10034SOL     OW31000   1.743   1.264   4.154 -0.7973  0.6040  0.0093
10034SOL    HW131001   1.813   1.276   4.084 -0.1017  0.2653  0.6325
10034SOL    HW231002   1.752   1.174   4.197 -1.7498  0.4673 -0.0394
10035SOL     OW31003   0.233   3.517   1.027 -0.0289 -0.3647  0.2395
10035SOL    HW131004   0.178   3.455   1.084  0.9629 -1.0173  0.5000
10035SOL    HW231005   0.326   3.483   1.021  0.3954  0.8208 -0.0790
10036SOL     OW31006   0.013   1.518   0.950  0.0356  0.1978  0.1338
10036SOL    HW131007   0.107   1.486   0.962 -0.5462 -1.0482  1.7857
10036SOL    HW231008   0.013   1.618   0.943  1.3972  0.3188  1.2880
10037SOL     OW31009   6.018   0.448   5.809  0.3616 -0.6841 -0.1303
10037SOL    HW131010   6.112   0.423   5.832 -0.0694 -3.8733 -1.3686
10037SOL    HW231011   6.000   0.429   5.713 -1.5115  0.0579  0.0224
10038SOL     OW31012   4.002   1.260   5.088 -0.4423 -0.2741  0.5086
10038SOL    HW131013   3.921   1.265   5.029  0.3827  1.7179 -0.5485
10038SOL    HW231014   4.011   1.168   5.124 -1.8412 -1.1641 -1.2627
10039SOL     OW31015   0.782   4.309   0.292 -0.6956  0.1754 -0.0417
10039SOL    HW131016   0.760   4.404   0.271 -3.2303 -0.4563 -0.6192
10039SOL    HW231017   0.708   4.269   0.346  0.9362 -1.1312  1.3411
10040SOL     OW31018   4.270   1.300   1.981  0.1711  0.3675  0.3255
10040SOL    HW131019   4.171   1.288   1.972  0.4021 -1.2432 -0.4118
10040SOL    HW231020   4.293   1.311   2.078 -0.8644  2.5861  0.3850
10041SOL     OW31021   4.737   4.635   5.253  0.5396  0.3557 -0.4892
10041SOL    HW131022   4.692   4.550   5.281  0.2231  0.9809  0.9854
10041SOL    HW231023   4.695   4.669   5.169  0.5478 -0.8351 -0.9918
10042SOL     OW31024   6.229   0.767   3.079  0.0033  0.0638 -0.0577
10042SOL    HW131025   6.229   0.699   3.153  0.3387  0.8902  0.7234
10042SOL    HW231026   6.315   0.818   3.082  0.1474 -0.0863 -1.2215
10043SOL     OW31027   1.409   0.098   2.375  0.0423  0.7120  0.8433
10043SOL    HW131028   1.400   0.129   2.470  1.2725  0.2080  1.1431
10043SOL    HW231029   1.505   0.086   2.353 -0.2885 -2.0426  0.5063
10044SOL     OW31030   2.997   2.030   5.892 -0.5465  0.5817 -0.7472
10044SOL    HW131031   2.966   2.124   5.873 -1.2046  0.7352  0.9321
10044SOL    HW231032   2.933   1.965   5.850  0.9428  0.7731 -3.6113
10045SOL     OW31033   2.576   6.665   4.579 -0.2727  0.3011 -0.5268
10045SOL    HW131034   2.517   6.624   4.648 -0.5907  2.4033  0.5270
10045SOL    HW231035   2.522   6.687   4.497 -0.4081 -0.0906 -0.5409
10046SOL     OW31036   6.684   1.835   0.268  0.1760 -0.1480 -0.0305
10046SOL    HW131037   6.665   1.921   0.317  0.7335  0.4604 -0.8646
10046SOL    HW231038   6.768   1.845   0.216  0.0956 -1.1251 -0.3516
10047SOL     OW31039   1.422   0.922   3.404 -0.4119 -0.1114 -0.4156
10047SOL    HW131040   1.422   0.980   3.323 -1.6219 -0.0722 -0.4049
10047SOL    HW231041   1.343   0.945   3.461 -1.0089 -1.8427 -0.4807
10048SOL     OW31042   2.726   2.206   1.072 -0.1648  0.8769  0.1312
10048SOL    HW131043   2.775   2.147   1.008 -0.4620  0.2018  0.5240
10048SOL    HW231044   2.792   2.267   1.118 -0.0203  1.8114 -1.2588
10049SOL     OW31045   1.389   3.454   4.725  0.4174 -0.0833  0.0789
10049SOL    HW131046   1.331   3.532   4.702 -0.0146 -0.6522 -0.8253
10049SOL    HW231047   1.481   3.469   4.689  0.0519 -0.4446 -1.0755
10050SOL     OW31048   6.771   1.722   6.367 -0.6762 -0.3717  0.2316
10050SOL    HW131049   6.761   1.623   6.357  0.3773 -0.3774 -0.9836
10050SOL    HW231050   6.685   1.768   6.344 -0.4337 -0.8612 -1.7949
10051SOL     OW31051   6.113   1.472   6.842  0.3728  0.1502  0.5906
10051SOL    HW131052   6.073   1.383   6.865  0.5666 -0.0258  0.2555
10051SOL    HW231053   6.050   1.522   6.783 -0.0251  0.5081  1.3103
10052SOL     OW31054   3.060   4.820   0.076  0.1519 -0.3090 -0.2774
10052SOL    HW131055   3.006   4.744   0.040 -0.5779 -0.2781  0.7045
10052SOL    HW231056   3.002   4.901   0.083  0.8301  0.2612 -0.9780
10053SOL     OW31057   4.120   0.874   3.651 -0.2933 -0.5001 -0.5888
10053SOL    HW131058   4.203   0.898   3.701  0.0228 -2.0137 -0.3509
10053SOL    HW231059   4.045   0.933   3.682  0.3687 -0.0188  0.1608
10054SOL     OW31060   6.672   4.891   3.695 -0.0410  0.3325  0.2368
10054SOL    HW131061   6.755   4.938   3.665 -0.6076  1.5182  0.4365
10054SOL    HW231062   6.674   4.796   3.665  0.8276  0.6733 -0.8448
10055SOL     OW31063   4.137   1.658   1.172 -0.5655  0.0880  0.2176
10055SOL    HW131064   4.182   1.742   1.141  1.2153 -0.4469  1.1862
10055SOL    HW231065   4.041   1.677   1.192 -1.5678  0.7497 -4.2228
10056SOL     OW31066   5.117   3.892   1.956 -0.3282  0.6097  0.1520
10056SOL    HW131067   5.024   3.911   1.923 -1.0022 -0.6615  1.2143
10056SOL    HW231068   5.168   3.844   1.884 -1.1951 -0.5404  0.2802
10057SOL     OW31069   1.192   3.216   3.729 -0.4538  0.5478 -0.0838
10057SOL    HW131070   1.096   3.236   3.750 -0.3163  1.4201 -0.2656
10057SOL    HW231071   1.228   3.153   3.799 -0.8621  1.0414  0.5877
10058SOL     OW31072   1.538   5.856   1.911 -0.1901  0.0226 -0.0833
10058SOL    HW131073   1.594   5.937   1.893  2.2815 -1.5717 -0.1305
10058SOL    HW231074   1.577   5.805   1.988 -0.6286 -2.0046 -1.1309
10059SOL     OW31075   5.031   6.249   0.928 -0.4570 -0.4683  0.0522
10059SOL    HW131076   5.031   6.153   0.899  0.7228 -0.1911 -0.9583
10059SOL    HW231077   5.030   6.308   0.847  1.1888  0.3464  0.5836
10060SOL     OW31078   3.196   6.615   3.125  0.2289  0.2002 -0.3607
10060SOL    HW131079   3.250   6.542   3.084 -0.4483 -1.2084  1.1600
10060SOL    HW231080   3.225   6.629   3.220  1.9466  3.5743 -1.2096
10061SOL     OW31081   1.401   1.088   4.225 -0.0133  0.3173 -0.0393
10061SOL    HW131082   1.469   1.017   4.208  1.0930  1.0118  1.2869
10061SOL    HW231083   1.405   1.156   4.152 -1.4368 -1.1742 -1.6068
10062SOL     OW31084   4.786   5.159   2.314  0.0945  0.3123 -0.3080
10062SOL    HW131085   4.747   5.154   2.222  0.9020  1.0298 -0.7053
10062SOL    HW231086   4.806   5.068   2.347  0.4728  0.0813 -1.1435
10063SOL     OW31087   0.613   3.261   1.919  0.1628 -0.5375  0.1121
10063SOL    HW131088   0.638   3.298   1.829 -0.1878 -1.4728 -0.3917
10063SOL    HW231089   0.639   3.164   1.922 -0.1746 -0.6031  0.8881
10064SOL     OW31090   6.023   3.480   6.536 -0.0873  0.0373  0.0304
10064SOL    HW131091   6.038   3.462   6.634  1.2856  0.0468 -0.1544
10064SOL    HW231092   5.942   3.537   6.525 -0.4790 -0.2742  1.1379
10065SOL     OW31093   1.157   0.782   3.802 -0.2031 -0.1238 -0.4079
10065SOL    HW131094   1.067   0.742   3.818  1.0894 -2.6555  1.1609
10065SOL    HW231095   1.195   0.816   3.888 -0.3575  2.7360 -1.3595
10066SOL     OW31096   5.468   0.782   2.642 -0.2549 -0.2730 -0.1727
10066SOL    HW131097   5.513   0.733   2.567 -0.8580 -1.1146  0.0075
10066SOL    HW231098   5.372   0.757   2.645 -0.7689  1.5231 -0.5517
10067SOL     OW31099   4.120   6.904   3.405 -0.0100 -0.0727 -0.3110
10067SOL    HW131100   4.096   6.992   3.365 -3.2003  0.7041  2.7666
10067SOL    HW231101   4.134   6.915   3.503  0.4723 -2.8383  0.0081
10068SOL     OW31102   5.676   0.786   5.761  0.1150  0.1347 -0.5602
10068SOL    HW131103   5.772   0.761   5.761 -0.0226 -0.4708 -1.8831
10068SOL    HW231104   5.666   0.882   5.733  0.2716 -0.1770 -1.7298
10069SOL     OW31105   5.807   0.818   6.076 -0.2348 -0.0389  0.2225
10069SOL    HW131106   5.723   0.792   6.123  0.0777 -0.1431  0.7256
10069SOL    HW231107   5.815   0.767   5.991  0.1568 -1.2910  0.9884
10070SOL     OW31108   1.289   6.403   5.305  0.5319  0.2086 -0.1707
10070SOL    HW131109   1.320   6.370   5.394  1.2399 -0.2970 -0.5900
10070SOL    HW231110   1.364   6.395   5.239 -0.6016 -1.4217 -1.3218
10071SOL     OW31111   6.866   5.170   4.828 -0.1366  0.4689  0.0486
10071SOL    HW131112   6.927   5.208   4.759  0.8491 -0.1504  0.5510
10071SOL    HW231113   6.890   5.074   4.844 -1.4133  0.1275  0.0833
10072SOL     OW31114   0.891   5.841   3.106  0.0466 -0.0722  0.3060
10072SOL    HW131115   0.937   5.913   3.054  0.5123 -0.0978  0.6693
10072SOL    HW231116   0.810   5.879   3.151 -0.2631 -0.0120 -0.2947
10073SOL     OW31117   4.615   0.560   4.863 -0.0757 -0.0178  0.5465
10073SOL    HW131118   4.639   0.483   4.804 -0.3628  0.4921 -0.2543
10073SOL    HW231119   4.697   0.615   4.880 -0.2827  0.7736 -0.7952
10074SOL     OW31120   1.657   5.600   6.662 -0.0297 -0.2665 -0.2459
10074SOL    HW131121   1.571   5.638   6.627  0.0937 -0.5548 -0.8785
10074SOL    HW231122   1.712   5.565   6.585 -0.5905 -2.6610  0.3398
10075SOL     OW31123   0.048   2.571   5.113 -0.4917 -0.4287 -0.0260
10075SOL    HW131124   0.093   2.591   5.026 -1.6435 -1.1465 -0.8237
10075SOL    HW231125   0.105   2.603   5.189  1.7818 -2.0390 -0.9228
10076SOL     OW31126   4.398   5.750   1.280 -0.5180 -0.3553 -0.0232
10076SOL    HW131127   4.457   5.739   1.360  0.0875  1.3882 -0.1954
10076SOL    HW231128   4.433   5.695   1.204  0.6089  0.2508  0.0375
10077SOL     OW31129   2.194   0.101   6.321 -0.4438 -0.6705 -0.8706
10077SOL    HW131130   2.210   0.061   6.231 -0.3017 -2.2404 -0.1834
10077SOL    HW231131   2.269   0.075   6.383  0.0712  1.3432 -0.5696
10078SOL     OW31132   5.391   6.359   4.196 -0.1350  0.2201  0.2063
10078SOL    HW131133   5.463   6.328   4.133 -0.4731  2.3271 -1.3340
10078SOL    HW231134   5.379   6.292   4.269 -1.6493 -3.9189 -3.4081
10079SOL     OW31135   2.121   3.533   5.045  0.0353 -0.5246 -0.3647
10079SOL    HW131136   2.179   3.457   5.073  0.9583  0.1815 -0.3145
10079SOL    HW231137   2.151   3.617   5.091  0.1414  0.2083 -1.7292
10080SOL     OW31138   0.472   2.299   5.613 -0.0903  0.0661 -0.1978
10080SOL    HW131139   0.467   2.386   5.662  1.6137  0.4570 -0.6520
10080SOL    HW231140   0.461   2.224   5.678  1.2079  0.5878  0.6688
10081SOL     OW31141   1.356   1.280   6.419  0.6475 -0.4126 -0.4401
10081SOL    HW131142   1.277   1.269   6.479  0.5844  2.2556  0.1235
10081SOL    HW231143   1.429   1.220   6.449  0.0007 -0.4156  1.2418
10082SOL     OW31144   0.322   3.034   6.878  0.0841  0.0083 -0.0073
10082SOL    HW131145   0.290   2.964   6.942  0.4246 -0.7263 -0.6259
10082SOL    HW231146   0.281   3.122   6.902  1.1610  0.0263  2.0057
10083SOL     OW31147   5.252   2.766   3.667 -0.1461 -0.1224 -0.4053
10083SOL    HW131148   5.239   2.838   3.599  2.2665  0.4795 -0.3075
10083SOL    HW231149   5.196   2.686   3.642 -0.7425  0.7565 -2.0297
10084SOL     OW31150   5.080   5.615   0.546  0.0071 -0.3980 -0.5956
10084SOL    HW131151   5.040   5.564   0.623  1.3094  0.0926  0.4409
10084SOL    HW231152   5.113   5.550   0.477  0.2144 -0.9020 -0.0309
10085SOL     OW31153   6.851   6.676   1.386  0.1481  0.3168 -0.5655
10085SOL    HW131154   6.933   6.702   1.333  0.3790 -0.2889 -0.5060
10085SOL    HW231155   6.770   6.687   1.328  0.2137  1.3739 -0.4781
10086SOL     OW31156   5.646   2.263   3.916 -0.1058 -0.1174 -0.1840
10086SOL    HW131157   5.657   2.357   3.883 -1.1197  0.3303  0.7186
10086SOL    HW231158   5.669   2.258   4.013 -3.5325  0.0242  0.7620
10087SOL     OW31159   0.514   5.571   2.605  0.3757  0.1180  0.0968
10087SOL    HW131160   0.475   5.591   2.515  0.0020 -0.3125  0.1598
10087SOL    HW231161   0.441   5.565   2.673  0.7679  1.9067  0.7255
10088SOL     OW31162   5.418   2.176   3.781 -0.3953  0.0709  0.1189
10088SOL    HW131163   5.506   2.205   3.821 -0.7119  1.5075 -0.1431
10088SOL    HW231164   5.348   2.180   3.852  0.1859 -3.8765  1.1129
10089SOL     OW31165   3.139   1.473   2.297 -0.0865  0.1471  0.2917
10089SOL    HW131166   3.235   1.466   2.324  0.2181  2.2049 -0.0459
10089SOL    HW231167   3.096   1.383   2.300  1.3161 -0.5253  2.3759
10090SOL     OW31168   1.687   5.531   1.795  0.2063 -0.7440  0.4544
10090SOL    HW131169   1.729   5.507   1.707 -2.4915  0.8685 -1.4693
10090SOL    HW231170   1.590   5.504   1.793 -0.8345  2.4468  1.4292
10091SOL     OW31171   1.433   0.459   4.376 -0.3084 -0.2192 -0.3275
10091SOL    HW131172   1.408   0.420   4.465 -1.0972 -0.4967 -0.6641
10091SOL    HW231173   1.512   0.519   4.388  0.2158 -1.0208  0.3902
10092SOL     OW31174   1.889   3.526   0.397 -0.3683  0.4195  0.1430
10092SOL    HW131175   1.905   3.457   0.467  1.3885 -0.4907 -1.1099
10092SOL    HW231176   1.817   3.588   0.428  0.3096  0.0122  2.7024
10093SOL     OW31177   0.445   6.415   4.991 -0.0616 -0.4181 -0.3086
10093SOL    HW131178   0.408   6.457   5.074 -0.3893 -0.2579 -0.5338
10093SOL    HW231179   0.508   6.341   5.017  0.9026  0.5173  0.1000
10094SOL     OW31180   0.781   1.143   0.809  0.2683  0.1712 -0.2650
10094SOL    HW131181   0.758   1.081   0.734 -1.5385 -2.3548  2.1793
10094SOL    HW231182   0.854   1.104   0.864 -0.1893  0.6639  0.7270
10095SOL     OW31183   0.211   2.005   5.531  0.0885  0.5511 -0.1457
10095SOL    HW131184   0.251   1.950   5.604 -2.6245 -1.6590 -0.1686
10095SOL    HW231185   0.253   2.096   5.532  3.2125 -0.7521  1.2974
10096SOL     OW31186   6.987   6.250   6.690  0.3889 -0.0396 -0.1421
10096SOL    HW131187   7.016   6.214   6.601  0.8487 -0.7770  0.2901
10096SOL    HW231188   6.887   6.254   6.693  0.3757  0.1352 -0.7464
10097SOL     OW31189   2.154   1.029   5.974  0.1344 -0.2872 -0.0658
10097SOL    HW131190   2.144   1.044   5.875 -0.5226 -0.0621  0.0294
10097SOL    HW231191   2.208   0.947   5.990 -1.5077 -1.5354 -0.6406
10098SOL     OW31192   3.531   3.612   4.700 -0.1123  0.3809 -0.4257
10098SOL    HW131193   3.555   3.531   4.754 -0.4603 -0.1708 -1.0881
10098SOL    HW231194   3.455   3.660   4.744  1.1087  1.2525  0.8301
10099SOL     OW31195   0.376   3.534   3.632 -0.3143 -0.3289 -0.5250
10099SOL    HW131196   0.304   3.491   3.687 -0.3680 -1.4557 -1.4195
10099SOL    HW231197   0.461   3.538   3.685 -0.4920 -0.9443 -0.1783
10100SOL     OW31198   5.526   0.292   0.280  0.1243 -0.8894  0.4698
10100SOL    HW131199   5.586   0.240   0.341  0.8796 -1.5764 -0.8058
10100SOL    HW231200   5.442   0.241   0.263  0.9474 -1.8764 -0.9385
10101SOL     OW31201   1.550   5.242   3.409  0.3566  0.2988 -0.0109
10101SOL    HW131202   1.582   5.151   3.381 -1.6333  0.3259 -2.8910
10101SOL    HW231203   1.594   5.311   3.352 -0.7278  0.7931 -0.2747
10102SOL     OW31204   4.179   6.442   3.043 -0.2359 -0.1060 -0.9052
10102SOL    HW131205   4.131   6.470   2.960 -1.3097  0.7151 -0.0377
10102SOL    HW231206   4.228   6.520   3.080  0.3148 -0.4946 -0.7998
10103SOL     OW31207   1.129   2.354   6.118  0.1074 -0.3881 -0.1156
10103SOL    HW131208   1.094   2.388   6.206  2.6119 -3.4891  2.3359
10103SOL    HW231209   1.054   2.325   6.060 -1.6760  2.4901  0.5399
10104SOL     OW31210   1.715   6.883   6.678  0.0890  0.2660 -0.1426
10104SOL    HW131211   1.804   6.929   6.686  0.5341 -0.7624  1.1913
10104SOL    HW231212   1.670   6.881   6.767 -0.5082 -0.6973 -0.4498
10105SOL     OW31213   1.883   5.957   6.524  0.5034  0.1629  0.0273
10105SOL    HW131214   1.864   5.943   6.427  0.8840 -0.3289  0.0208
10105SOL    HW231215   1.798   5.948   6.576  0.5468 -1.2398 -0.0886
10106SOL     OW31216   4.327   5.340   0.382  0.3431 -0.1154 -0.1307
10106SOL    HW131217   4.390   5.354   0.459  2.0288 -2.3140 -1.0110
10106SOL    HW231218   4.332   5.245   0.351 -1.0119  0.4525 -2.3329
10107SOL     OW31219   6.788   0.584   6.274 -0.2120 -0.0164 -0.4768
10107SOL    HW131220   6.740   0.531   6.344 -0.2030 -0.7342 -0.9988
10107SOL    HW231221   6.884   0.558   6.272  0.4109  1.9275  1.0509
10108SOL     OW31222   3.653   5.141   6.841 -0.5074 -0.0631  0.3245
10108SOL    HW131223   3.581   5.178   6.900 -0.6160 -0.3257  0.3601
10108SOL    HW231224   3.676   5.048   6.872  0.4175  0.3156  0.8243
10109SOL     OW31225   5.162   6.903   3.979  0.2731  0.6827  0.5670
10109SOL    HW131226   5.186   6.999   3.995  3.7892 -0.1315  0.9598
10109SOL    HW231227   5.245   6.848   3.979 -1.7082 -2.5328  1.1707
10110SOL     OW31228   4.590   1.293   5.819  0.2850  0.2056 -0.2473
10110SOL    HW131229   4.621   1.371   5.874 -0.1762 -0.5847  1.1760
10110SOL    HW231230   4.493   1.304   5.798  0.3158  0.2153 -0.3801
10111SOL     OW31231   5.458   3.587   1.699 -0.6237 -0.5961 -0.1769
10111SOL    HW131232   5.386   3.523   1.723 -0.8054 -0.5553 -0.6016
10111SOL    HW231233   5.421   3.659   1.640  0.1639 -1.6864 -2.1151
10112SOL     OW31234   5.491   3.910   0.470 -0.1824  0.0649  0.3016
10112SOL    HW131235   5.482   3.861   0.383 -2.6156 -0.4044  0.7244
10112SOL    HW231236   5.535   3.850   0.537  1.3236  0.2800 -0.4584
10113SOL     OW31237   2.948   1.396   1.266 -0.0558  1.2598  0.4244
10113SOL    HW131238   2.852   1.382   1.243  0.1208  1.1639 -0.3143
10113SOL    HW231239   2.957   1.464   1.339 -0.8523 -1.0415  2.8104
10114SOL     OW31240   4.020   2.577   1.379 -0.2380 -0.2013  0.0069
10114SOL    HW131241   4.072   2.628   1.311 -0.7593 -1.5399 -1.4650
10114SOL    HW231242   4.074   2.500   1.412  0.4567  1.0676  2.0433
10115SOL     OW31243   2.407   2.700   3.803  0.7566  0.4717  0.0377
10115SOL    HW131244   2.359   2.675   3.887  0.1496  0.8817 -0.1700
10115SOL    HW231245   2.448   2.791   3.813 -0.0340  0.8922 -0.3744
10116SOL     OW31246   0.738   0.102   2.636 -0.0498 -0.1268 -0.2682
10116SOL    HW131247   0.799   0.114   2.714 -1.1183 -0.3583  0.6272
10116SOL    HW231248   0.746   0.008   2.601  1.4166  0.3550 -1.3237
10117SOL     OW31249   4.095   6.829   0.374 -0.6449  0.2061  0.4845
10117SOL    HW131250   4.164   6.788   0.315 -0.9975  0.0845  0.1473
10117SOL    HW231251   4.029   6.760   0.401  0.5593 -0.1825  2.6108
10118SOL     OW31252   4.622   5.655   3.602 -0.1558 -0.2248  0.0280
10118SOL    HW131253   4.585   5.705   3.524  1.0442 -0.7958 -0.9544
10118SOL    HW231254   4.685   5.713   3.653 -2.0463  0.6449  1.5186
10119SOL     OW31255   1.417   7.022   5.639  0.2536  0.1983 -0.5517
10119SOL    HW131256   1.448   7.116   5.647  1.1138 -0.1813  1.0766
10119SOL    HW231257   1.493   6.959   5.655 -0.5561 -0.7729 -0.3374
10120SOL     OW31258   6.285   3.378   4.717 -0.1276 -0.1598 -0.0668
10120SOL    HW131259   6.302   3.280   4.703 -2.1126 -0.6341  0.4748
10120SOL    HW231260   6.224   3.411   4.646 -1.7069 -0.0225  1.2911
10121SOL     OW31261   4.938   4.556   3.120 -0.2628 -1.0400 -0.5759
10121SOL    HW131262   4.879   4.558   3.201  1.1827 -0.3514  0.5085
10121SOL    HW231263   4.943   4.648   3.080  1.0761 -0.7879  0.1245
10122SOL     OW31264   4.329   2.051   1.713  0.2472 -0.0748 -0.0378
10122SOL    HW131265   4.296   2.046   1.807  0.5969  0.4411  0.1207
10122SOL    HW231266   4.251   2.057   1.651  0.0106  1.5774  0.3614
10123SOL     OW31267   1.382   4.052   1.123  0.4557 -0.6923  0.3763
10123SOL    HW131268   1.295   4.066   1.077 -0.3375 -1.3512  1.6245
10123SOL    HW231269   1.368   4.052   1.222  1.6574 -2.1279  0.5835
10124SOL     OW31270   4.639   3.881   7.021  0.0763 -0.1975  0.3273
10124SOL    HW131271   4.593   3.961   7.058  2.3785  0.5903  1.6849
10124SOL    HW231272   4.575   3.804   7.017 -1.4900  0.9909  1.4888
10125SOL     OW31273   1.693   1.295   1.327 -0.3153  0.1603  0.0647
10125SOL    HW131274   1.652   1.327   1.242  0.4071 -1.1898 -0.8365
10125SOL    HW231275   1.792   1.308   1.324 -0.3406  0.6102  0.9364
10126SOL     OW31276   6.236   5.038   6.883 -0.2367  0.3128 -0.6195
10126SOL    HW131277   6.240   5.080   6.973  0.7882  0.5573 -0.7733
10126SOL    HW231278   6.144   5.000   6.868 -0.8026  1.3995 -0.0009
10127SOL     OW31279   2.759   5.621   3.703 -0.1042 -0.2009  0.6827
10127SOL    HW131280   2.675   5.665   3.736 -0.2985 -0.0536 -0.0020
10127SOL    HW231281   2.811   5.587   3.781 -1.0570 -0.7660  1.0889
10128SOL     OW31282   0.670   1.233   1.564  0.5724 -0.1553  0.1868
10128SOL    HW131283   0.743   1.227   1.631  2.5194 -0.4756 -1.8402
10128SOL    HW231284   0.702   1.283   1.484 -0.9278 -1.5457 -1.3805
10129SOL     OW31285   5.946   2.803   0.900  0.6394 -0.0446 -0.0780
10129SOL    HW131286   5.963   2.783   0.804  0.3742  1.8084 -0.5545
10129SOL    HW231287   6.020   2.859   0.936  0.6942 -0.6507  0.7958
10130SOL     OW31288   6.744   5.697   0.425  0.5551  0.6500  0.2541
10130SOL    HW131289   6.802   5.749   0.363  1.4722 -1.6094 -0.8835
10130SOL    HW231290   6.788   5.611   0.448 -2.3587 -1.2882 -0.8092
10131SOL     OW31291   0.877   6.012   1.383  0.2108 -0.1953 -0.5492
10131SOL    HW131292   0.789   5.985   1.424  2.0375 -0.6851  3.5428
10131SOL    HW231293   0.905   5.944   1.316 -1.8513 -0.7881 -0.8776
10132SOL     OW31294   4.487   0.982   1.280  0.6013  0.5777  0.1389
10132SOL    HW131295   4.533   1.065   1.249 -0.7991  1.2565 -0.2472
10132SOL    HW231296   4.448   0.998   1.371  1.1324  0.0054  0.4750
10133SOL     OW31297   6.322   4.674   2.672 -0.0052  0.2052  0.3389
10133SOL    HW131298   6.332   4.731   2.754 -1.1250 -0.6578  1.1070
10133SOL    HW231299   6.393   4.699   2.606 -0.2440  2.2260  0.7753
10134SOL     OW31300   0.660   2.200   6.465 -0.1011  0.0889 -0.6756
10134SOL    HW131301   0.606   2.160   6.539 -1.4238 -0.6607 -1.9874
10134SOL    HW231302   0.711   2.279   6.499 -0.4473 -0.4109  1.0802
10135SOL     OW31303   2.704   4.818   2.568  0.2266  0.4936  0.5367
10135SOL    HW131304   2.713   4.765   2.484  1.3695 -1.7490  1.9592
10135SOL    HW231305   2.635   4.890   2.556  0.4862  0.3801 -2.3133
10136SOL     OW31306   6.401   1.351   1.216  0.1066 -0.0546  0.0936
10136SOL    HW131307   6.407   1.439   1.168 -2.5959 -1.0874 -2.4922
10136SOL    HW231308   6.466   1.287   1.175 -0.4901 -0.2546 -0.5545
10137SOL     OW31309   6.301   3.791   4.989 -0.5748 -0.3338 -0.2646
10137SOL    HW131310   6.296   3.792   4.890  2.3128 -0.7292 -0.4820
10137SOL    HW231311   6.395   3.776   5.018 -1.0629  1.2904  2.5488
10138SOL     OW31312   5.043   4.460   0.075 -0.1186  0.4499 -0.1232
10138SOL    HW131313   4.987   4.394   0.025  1.6003  0.6914 -2.5084
10138SOL    HW231314   5.139   4.435   0.066  0.3393  0.9744  2.4981
10139SOL     OW31315   2.531   3.520   1.357 -0.2820 -0.0442 -0.0692
10139SOL    HW131316   2.473   3.486   1.282  1.1250  0.4134 -1.4292
10139SOL    HW231317   2.574   3.442   1.403 -0.5811 -0.2957 -0.2064
10140SOL     OW31318   0.305   3.789   4.408  0.0018 -0.0584 -0.0477
10140SOL    HW131319   0.279   3.694   4.427  0.6683 -0.5295 -1.3376
10140SOL    HW231320   0.393   3.790   4.361  0.2413  1.2439  0.3885
10141SOL     OW31321   2.180   0.285   3.977  0.1534  0.5641 -0.3768
10141SOL    HW131322   2.149   0.230   4.055 -1.0253 -1.1710 -1.9595
10141SOL    HW231323   2.186   0.381   4.004  1.5816 -0.1769  2.3128
10142SOL     OW31324   4.396   6.471   3.327  0.5689 -0.2494  0.4581
10142SOL    HW131325   4.422   6.392   3.272  0.5093 -1.1775  1.7312
10142SOL    HW231326   4.470   6.495   3.389  0.1291 -0.0490  0.9100
10143SOL     OW31327   4.285   5.084   0.274  0.0048 -0.1213 -0.2943
10143SOL    HW131328   4.264   4.994   0.311  0.8140 -0.0998  0.2626
10143SOL    HW231329   4.255   5.089   0.179 -1.0116 -0.6020 -0.0132
10144SOL     OW31330   1.488   3.031   2.358 -0.1966  0.1928  0.1163
10144SOL    HW131331   1.489   3.116   2.305 -0.6930  0.4529  0.5099
10144SOL    HW231332   1.547   3.042   2.438 -1.7559  0.8868  1.2259
10145SOL     OW31333   1.250   0.034   5.871  0.5117  0.1146 -0.0604
10145SOL    HW131334   1.294   0.042   5.782 -1.5205  2.1526 -0.9926
10145SOL    HW231335   1.193  -0.049   5.873  0.2698  0.2545 -0.8155
10146SOL     OW31336   5.529   7.001   3.164  0.9613 -0.3521  0.3471
10146SOL    HW131337   5.542   7.027   3.068  0.2171 -1.9425 -0.2070
10146SOL    HW231338   5.474   7.071   3.209  0.0318 -0.3035 -0.7902
10147SOL     OW31339   5.218   4.821   3.458  0.6253  0.8787 -0.5266
10147SOL    HW131340   5.306   4.840   3.502  1.1301 -1.5098 -0.3600
10147SOL    HW231341   5.228   4.828   3.359  0.9656  0.8189 -0.4997
10148SOL     OW31342   6.810   5.911   6.115  0.2567 -0.0414 -0.4264
10148SOL    HW131343   6.861   5.951   6.039 -0.2504  0.1069 -0.6933
10148SOL    HW231344   6.783   5.817   6.091  0.1394 -0.0118 -0.4101
10149SOL     OW31345   3.816   2.997   1.341 -0.3964 -0.4760  0.0057
10149SOL    HW131346   3.830   2.988   1.440  1.4301  2.3508  0.1111
10149SOL    HW231347   3.775   3.086   1.321 -1.2082 -1.1949 -1.7934
10150SOL     OW31348   4.416   5.003   1.248 -0.4664 -0.1399 -0.2621
10150SOL    HW131349   4.448   5.050   1.330 -0.0959  0.3435 -0.6782
10150SOL    HW231350   4.387   4.910   1.271  0.4515 -0.2979  0.2649
10151SOL     OW31351   0.960   5.522   6.893 -0.0923 -0.3957  0.5190
10151SOL    HW131352   1.031   5.522   6.963  1.6732 -0.6510 -1.2065
10151SOL    HW231353   0.989   5.578   6.816 -1.5779 -0.8876 -0.4362
10152SOL     OW31354   1.467   4.277   4.155 -0.1471  0.2952 -0.1363
10152SOL    HW131355   1.427   4.350   4.101  0.9623  1.1004  0.1127
10152SOL    HW231356   1.565   4.293   4.167 -0.1968 -0.3375  1.3390
10153SOL     OW31357   6.207   0.237   1.972  0.3512  0.2364 -0.6538
10153SOL    HW131358   6.169   0.311   1.917 -0.0245 -0.5604 -1.4771
10153SOL    HW231359   6.133   0.184   2.014  0.5836 -0.3988 -1.0366
10154SOL     OW31360   6.227   6.630   6.291 -0.0818 -0.0860  0.5551
10154SOL    HW131361   6.196   6.569   6.217  0.8622  0.5988 -0.4408
10154SOL    HW231362   6.176   6.715   6.286  2.1089  1.2400 -1.3932
10155SOL     OW31363   4.618   1.306   4.911 -0.0387 -0.1012  0.5291
10155SOL    HW131364   4.581   1.366   4.983 -1.0814 -1.2071  0.9517
10155SOL    HW231365   4.544   1.249   4.875  0.7429 -0.4511 -0.5425
10156SOL     OW31366   0.544   1.131   1.930  0.1304  0.5034 -0.2159
10156SOL    HW131367   0.467   1.081   1.969  1.5956 -1.2133  0.6473
10156SOL    HW231368   0.547   1.223   1.967 -1.3344  0.5048 -0.0645
10157SOL     OW31369   5.058   0.096   3.350  0.1449 -0.1257 -0.2067
10157SOL    HW131370   5.115   0.177   3.366 -1.0733  0.6276  0.4920
10157SOL    HW231371   4.975   0.123   3.301 -1.5527 -0.4206  2.3359
10158SOL     OW31372   6.104   3.868   5.980  0.3683  0.0927  0.9340
10158SOL    HW131373   6.086   3.964   5.956  1.1658  0.4818  1.8366
10158SOL    HW231374   6.017   3.821   5.994 -0.0680  0.4064 -0.4820
10159SOL     OW31375   1.193   1.345   5.504 -0.2868  0.2300 -0.3164
10159SOL    HW131376   1.157   1.335   5.597 -1.0347 -0.5200 -0.6772
10159SOL    HW231377   1.189   1.441   5.477 -0.3673  0.4041  0.2993
10160SOL     OW31378   6.649   6.196   5.201 -0.2566  0.1964  0.5069
10160SOL    HW131379   6.640   6.209   5.102 -0.5175  1.4121  0.6656
10160SOL    HW231380   6.727   6.137   5.220  1.1801  1.7248 -0.3556
10161SOL     OW31381   4.277   0.129   5.908  0.1502  0.1669  0.7236
10161SOL    HW131382   4.327   0.074   5.840 -1.1813 -1.0789  0.7039
10161SOL    HW231383   4.190   0.158   5.869 -1.4268 -2.0109  2.3807
10162SOL     OW31384   4.335   2.909   6.842  0.5587  0.6995 -0.4766
10162SOL    HW131385   4.360   2.988   6.786 -0.7922  1.2991 -0.2852
10162SOL    HW231386   4.246   2.925   6.885 -0.1852 -1.3117 -1.1443
10163SOL     OW31387   1.282   3.611   5.777 -0.6924  0.2328 -0.6328
10163SOL    HW131388   1.248   3.701   5.804  1.9943  0.7583  1.5362
10163SOL    HW231389   1.339   3.621   5.696 -1.8805  0.1423 -1.4927
10164SOL     OW31390   2.630   3.098   6.181 -0.1774  0.4130 -0.6481
10164SOL    HW131391   2.558   3.077   6.247 -0.3563 -0.3531 -1.0781
10164SOL    HW231392   2.590   3.114   6.092 -0.0660  2.8542 -0.3108
10165SOL     OW31393   0.741   6.573   4.212 -0.2261 -0.6425 -0.2981
10165SOL    HW131394   0.662   6.523   4.176 -0.8947  0.6460 -0.6789
10165SOL    HW231395   0.806   6.508   4.252 -1.5370 -1.7232  0.1603
10166SOL     OW31396   0.698   3.967   0.391 -0.5681  0.5029 -0.0627
10166SOL    HW131397   0.646   3.947   0.309  0.8431  1.5148 -1.2577
10166SOL    HW231398   0.683   4.062   0.418 -0.9659  0.1986  0.8286
10167SOL     OW31399   6.442   0.203   6.155  0.1740 -1.2047  0.9500
10167SOL    HW131400   6.457   0.289   6.204  0.6390 -1.5002  1.3407
10167SOL    HW231401   6.345   0.181   6.156 -0.1594  0.0468 -0.4127
10168SOL     OW31402   0.154   2.417   5.535 -0.3831 -0.0784 -0.2715
10168SOL    HW131403   0.218   2.493   5.533 -0.0926 -0.3119  0.1038
10168SOL    HW231404   0.072   2.444   5.586 -0.2545 -0.0361 -0.0846
10169SOL     OW31405   6.202   4.806   5.261  0.6293 -0.1812 -0.0644
10169SOL    HW131406   6.202   4.809   5.361 -0.1999 -1.3110 -0.0172
10169SOL    HW231407   6.244   4.890   5.226  1.1545  0.1244  1.2210
10170SOL     OW31408   1.743   4.311   4.208 -0.4356 -0.6725  0.1786
10170SOL    HW131409   1.839   4.307   4.180 -0.5932  1.1744 -0.7913
10170SOL    HW231410   1.737   4.311   4.308  0.4416 -2.3277  0.2715
10171SOL     OW31411   0.602   1.079   3.809  0.3944  0.0990  0.1301
10171SOL    HW131412   0.563   1.122   3.890  0.7375  0.4473  0.1145
10171SOL    HW231413   0.531   1.065   3.740  0.1591  0.0624  0.3822
10172SOL     OW31414   5.887   0.086   4.676  0.6456  0.4493 -0.3542
10172SOL    HW131415   5.958   0.124   4.735  0.3908  2.4747 -1.2612
10172SOL    HW231416   5.853   0.158   4.615 -0.0504 -1.2226 -2.0285
10173SOL     OW31417   0.664   2.671   1.737  0.5771 -0.0668  0.1712
10173SOL    HW131418   0.722   2.701   1.812  0.4422  0.3992  0.0877
10173SOL    HW231419   0.598   2.742   1.714  0.9256 -0.0112 -0.6985
10174SOL     OW31420   6.180   6.316   1.787  0.4276 -0.0142 -0.0118
10174SOL    HW131421   6.094   6.321   1.838 -0.3553  0.5338 -1.3359
10174SOL    HW231422   6.170   6.362   1.699  0.1074 -4.8947 -2.9355
10175SOL     OW31423   5.415   0.868   5.465  0.2413  0.4968 -0.4481
10175SOL    HW131424   5.344   0.891   5.532  0.3985  0.5774 -0.3060
10175SOL    HW231425   5.463   0.952   5.437 -2.6887  1.2189 -4.0345
10176SOL     OW31426   4.569   1.032   6.673 -0.2586 -0.0510 -0.0315
10176SOL    HW131427   4.666   1.048   6.695  0.0500  0.3917 -1.6287
10176SOL    HW231428   4.531   0.968   6.739  0.7049  0.9315  1.5621
10177SOL     OW31429   0.239   5.794   6.906  0.4572  0.3766 -0.0592
10177SOL    HW131430   0.253   5.696   6.921 -0.7749  0.1957  0.0672
10177SOL    HW231431   0.152   5.821   6.948 -0.5405  0.9660 -2.3334
10178SOL     OW31432   4.751   2.895   5.675 -0.0702  0.4841  0.4783
10178SOL    HW131433   4.810   2.815   5.668 -2.0669 -0.9026 -2.0108
10178SOL    HW231434   4.789   2.958   5.742  2.5620 -1.6746  1.1938
10179SOL     OW31435   0.944   3.155   1.658 -0.0205  0.2841 -0.1048
10179SOL    HW131436   0.946   3.068   1.707 -0.9960 -0.0236 -0.5945
10179SOL    HW231437   1.019   3.158   1.592 -0.4691 -0.5317 -0.6568
10180SOL     OW31438   2.155   6.283   5.920 -0.4061 -0.8305  0.3030
10180SOL    HW131439   2.089   6.275   5.845  0.4897 -0.3920 -0.5509
10180SOL    HW231440   2.110   6.325   5.999 -1.4020 -1.4218  0.0690
10181SOL     OW31441   6.372   3.706   2.403 -0.4047 -0.4029  0.5192
10181SOL    HW131442   6.411   3.692   2.494 -1.4887 -2.7843  0.6905
10181SOL    HW231443   6.438   3.755   2.346  0.4825  0.7175  2.4132
10182SOL     OW31444   3.647   1.974   0.446  0.6070 -0.5284  0.2124
10182SOL    HW131445   3.708   1.966   0.525 -1.9754 -1.2487  2.2895
10182SOL    HW231446   3.603   2.064   0.447 -0.3697 -0.9895  0.3856
10183SOL     OW31447   1.935   2.061   5.984 -0.7168 -0.7266 -0.3778
10183SOL    HW131448   1.864   1.992   5.997 -0.4273 -0.9636 -0.0257
10183SOL    HW231449   2.011   2.042   6.047 -1.0464  0.4536  0.4091
10184SOL     OW31450   4.334   5.773   5.774  0.5746  0.4792 -0.2251
10184SOL    HW131451   4.341   5.790   5.675  0.3260 -0.2644 -0.3793
10184SOL    HW231452   4.289   5.685   5.789 -1.1323  1.4351  0.5949
10185SOL     OW31453   6.244   0.658   1.443  0.4215 -0.0281 -0.3618
10185SOL    HW131454   6.226   0.756   1.450 -0.1149 -0.1393 -0.1010
10185SOL    HW231455   6.290   0.638   1.357 -1.9923  0.0978 -1.7658
10186SOL     OW31456   5.910   2.534   3.432 -0.0571 -0.4818 -0.6165
10186SOL    HW131457   5.833   2.517   3.493  1.1518  1.4362  1.5967
10186SOL    HW231458   5.995   2.507   3.477  1.0140  2.3308 -0.7364
10187SOL     OW31459   0.194   1.423   1.440 -0.4744  0.2588 -0.0390
10187SOL    HW131460   0.206   1.518   1.469 -1.2074  0.4736 -0.3954
10187SOL    HW231461   0.277   1.371   1.457  0.3111  1.2315 -0.8231
10188SOL     OW31462   2.483   4.980   6.145  0.7104 -0.2738  0.1084
10188SOL    HW131463   2.391   4.962   6.181  0.4701 -0.3278 -0.5237
10188SOL    HW231464   2.490   5.076   6.118  0.5660 -0.4585 -0.6109
10189SOL     OW31465   0.562   6.663   4.957  0.1340 -1.0397  0.4418
10189SOL    HW131466   0.551   6.564   4.960 -0.5753 -0.9732  0.1303
10189SOL    HW231467   0.473   6.707   4.954  0.4121 -0.3464  1.6508
10190SOL     OW31468   6.132   3.065   6.062  0.3269  0.4061 -0.3982
10190SOL    HW131469   6.066   3.092   6.133 -0.4495 -0.3716 -0.8093
10190SOL    HW231470   6.180   3.146   6.028  0.3093  0.8578  0.6179
10191SOL     OW31471   0.570   4.848   0.485 -0.7112  0.2538  0.1150
10191SOL    HW131472   0.542   4.940   0.458 -1.6766  0.0491  0.3736
10191SOL    HW231473   0.522   4.822   0.569  0.0705 -0.2233  0.4254
10192SOL     OW31474   3.558   2.060   1.559 -0.3375 -0.2441 -0.0206
10192SOL    HW131475   3.537   2.137   1.500  0.8093 -1.3415 -1.9552
10192SOL    HW231476   3.613   2.091   1.636 -1.9058  1.2186  0.5799
10193SOL     OW31477   5.257   5.436   3.031 -0.2485 -0.0253  0.0523
10193SOL    HW131478   5.268   5.533   3.052 -0.1896 -0.3812  1.7943
10193SOL    HW231479   5.300   5.416   2.943 -0.2125  1.5062 -0.3072
10194SOL     OW31480   5.455   3.164   5.219 -0.3001 -0.0934 -0.5293
10194SOL    HW131481   5.364   3.123   5.227 -0.5163  0.2664 -1.0816
10194SOL    HW231482   5.466   3.203   5.127 -0.8074  2.7883  0.5475
10195SOL     OW31483   4.472   5.065   2.727  0.6114  0.4526 -0.2693
10195SOL    HW131484   4.382   5.034   2.756 -0.3463  2.0281 -1.3788
10195SOL    HW231485   4.493   5.152   2.771  1.8560 -0.1469  0.3807
10196SOL     OW31486   2.840   1.291   6.297 -0.1759 -0.4125  0.7046
10196SOL    HW131487   2.746   1.278   6.264 -0.8073 -0.4814  2.4019
10196SOL    HW231488   2.850   1.247   6.387  0.9327  1.1662  1.4022
10197SOL     OW31489   6.723   6.266   6.706 -0.1552  0.6479 -0.0025
10197SOL    HW131490   6.695   6.237   6.798 -0.5047  0.4005 -0.1825
10197SOL    HW231491   6.643   6.267   6.646  0.4797 -2.0235 -1.0526
10198SOL     OW31492   5.756   0.989   0.986 -0.0609  0.4036 -0.0258
10198SOL    HW131493   5.660   1.005   0.964  0.3594  1.4831 -1.1654
10198SOL    HW231494   5.814   1.036   0.919  1.2703 -2.0763 -0.7301
10199SOL     OW31495   1.981   3.031   0.441  0.3211 -0.3001 -0.0270
10199SOL    HW131496   1.885   3.035   0.411 -0.0298 -0.0163  1.1062
10199SOL    HW231497   2.035   3.094   0.385  0.1010 -1.3802 -1.5130
10200SOL     OW31498   6.581   4.276   1.470  0.7246 -0.2169 -0.1679
10200SOL    HW131499   6.557   4.179   1.466  1.6572 -0.4298 -0.8698
10200SOL    HW231500   6.500   4.330   1.445 -0.0640 -0.7524  1.1215
10201SOL     OW31501   1.955   3.082   1.651  0.1202  0.0586  0.2834
10201SOL    HW131502   1.997   3.173   1.650  2.2273 -0.8272 -1.0833
10201SOL    HW231503   2.013   3.020   1.703 -0.0194 -0.9914 -0.7722
10202SOL     OW31504   3.883   0.783   0.401  0.3045 -0.0921  0.3396
10202SOL    HW131505   3.857   0.844   0.475  1.1773  1.5103 -0.6306
10202SOL    HW231506   3.803   0.764   0.344  0.2302  0.9490  0.0856
10203SOL     OW31507   6.991   1.972   4.716  0.7621 -0.2172  0.2665
10203SOL    HW131508   6.995   2.070   4.735  0.9779 -0.0094 -0.7906
10203SOL    HW231509   6.899   1.938   4.734  0.5476  0.2918  0.1424
10204SOL     OW31510   5.857   4.027   6.314  0.0250  0.0595 -0.0459
10204SOL    HW131511   5.874   4.084   6.234 -1.0055 -0.4554 -0.6507
10204SOL    HW231512   5.944   4.002   6.356  0.6063  0.0285 -1.2239
10205SOL     OW31513   6.199   1.143   6.696 -0.1309 -0.6626 -0.2757
10205SOL    HW131514   6.171   1.094   6.778 -0.3056 -0.5645 -0.2753
10205SOL    HW231515   6.233   1.234   6.721 -0.3270 -0.5751 -0.3237
10206SOL     OW31516   2.121   3.616   4.746  0.0559  0.0406 -0.1195
10206SOL    HW131517   2.152   3.566   4.827 -1.3719 -1.1199 -0.2615
10206SOL    HW231518   2.126   3.714   4.764  2.0450 -0.1177  0.4866
10207SOL     OW31519   0.441   2.088   5.794 -0.1052 -0.3914 -0.1274
10207SOL    HW131520   0.415   1.994   5.814  1.5952 -0.8470  0.1416
10207SOL    HW231521   0.538   2.102   5.818 -0.1236  1.2252 -0.8205
10208SOL     OW31522   6.370   6.195   5.991 -0.4616  0.0956  0.0373
10208SOL    HW131523   6.319   6.256   5.930  0.2334  1.4833  0.7910
10208SOL    HW231524   6.465   6.224   5.994 -0.5987  0.4607  2.2254
10209SOL     OW31525   0.419   5.263   5.478  0.4809 -0.1291  0.1577
10209SOL    HW131526   0.380   5.187   5.531 -0.2594  2.2548  3.3574
10209SOL    HW231527   0.516   5.247   5.463  0.4218 -1.5195  1.0487
10210SOL     OW31528   2.747   1.708   3.287  0.2461 -0.6393 -0.3758
10210SOL    HW131529   2.760   1.793   3.237 -1.4829  1.1668  2.0400
10210SOL    HW231530   2.656   1.671   3.267 -1.0207  0.8174  2.2179
10211SOL     OW31531   4.204   5.422   0.943 -0.5221 -0.2643 -0.5182
10211SOL    HW131532   4.121   5.428   0.998 -0.4667 -1.3341 -0.3016
10211SOL    HW231533   4.269   5.360   0.988 -0.0424 -0.2872 -1.2320
10212SOL     OW31534   1.025   6.500   0.600 -0.1280  0.1194 -0.2369
10212SOL    HW131535   1.048   6.497   0.697  0.0439 -1.2547 -0.3027
10212SOL    HW231536   1.108   6.507   0.546 -0.1241 -0.5604 -0.3271
10213SOL     OW31537   6.779   2.617   1.617 -0.1212  0.2913 -0.0835
10213SOL    HW131538   6.861   2.565   1.592  0.8007 -0.0114  3.0421
10213SOL    HW231539   6.801   2.680   1.691 -2.4908  1.0132  0.1035
10214SOL     OW31540   1.927   3.191   1.259 -0.1816 -0.1302 -1.0479
10214SOL    HW131541   1.877   3.128   1.199  1.9369 -1.5606 -1.3987
10214SOL    HW231542   1.867   3.218   1.335 -1.1358 -2.7514 -0.7513
10215SOL     OW31543   3.482   3.675   2.776  0.1247 -0.0130 -0.1327
10215SOL    HW131544   3.507   3.740   2.848  0.5894  0.3236 -0.5860
10215SOL    HW231545   3.397   3.628   2.801 -0.5798  1.2360 -0.0828
10216SOL     OW31546   0.804   4.771   1.176  0.5159 -0.4129 -0.4601
10216SOL    HW131547   0.843   4.681   1.197  1.2683  0.3609  1.7400
10216SOL    HW231548   0.877   4.838   1.166  0.0261  1.0937  3.8376
10217SOL     OW31549   3.511   2.483   6.078 -0.5292 -0.4306  0.3179
10217SOL    HW131550   3.594   2.435   6.108  0.5076  0.1179 -1.5181
10217SOL    HW231551   3.509   2.574   6.119  0.9247  0.3507 -1.2378
10218SOL     OW31552   0.458   2.415   4.056  0.5533  0.2226  0.6993
10218SOL    HW131553   0.547   2.436   4.098  0.9146  0.7431 -0.3010
10218SOL    HW231554   0.458   2.446   3.961  0.1588 -1.9137 -0.0491
10219SOL     OW31555   6.385   6.115   4.687  0.6018 -0.5962 -0.0741
10219SOL    HW131556   6.351   6.135   4.595 -0.8300 -1.6845  0.1837
10219SOL    HW231557   6.394   6.200   4.739  0.8938 -0.0274 -1.0372
10220SOL     OW31558   1.433   2.424   6.277 -0.8781  0.7655 -0.4459
10220SOL    HW131559   1.397   2.467   6.195 -1.0911  0.0738 -0.7198
10220SOL    HW231560   1.504   2.483   6.317  0.8848  0.1104 -2.3885
10221SOL     OW31561   6.842   6.344   2.867  0.3347 -0.4067  0.5708
10221SOL    HW131562   6.910   6.417   2.866  0.4715 -0.4354  2.9158
10221SOL    HW231563   6.777   6.359   2.793  0.6689  1.8031  0.6513
10222SOL     OW31564   3.278   4.086   4.282  0.5675 -0.1273  0.0184
10222SOL    HW131565   3.353   4.102   4.218  0.3556 -0.4445 -0.3119
10222SOL    HW231566   3.191   4.114   4.240  0.0468 -2.9198 -0.9571
10223SOL     OW31567   3.507   6.886   0.516  0.1174  0.6488  0.0572
10223SOL    HW131568   3.547   6.864   0.605  0.3731  3.2319  0.6583
10223SOL    HW231569   3.410   6.906   0.526 -0.0324  0.1977 -0.4028
10224SOL     OW31570   0.166   2.199   3.874 -0.0968 -0.0320  0.2099
10224SOL    HW131571   0.161   2.282   3.819 -1.1620  0.7339  1.3999
10224SOL    HW231572   0.119   2.124   3.826  0.6122  0.1136 -0.7349
10225SOL     OW31573   1.559   3.766   5.841 -0.2725  0.3877  0.4694
10225SOL    HW131574   1.658   3.779   5.851 -0.3351  0.5200  0.9362
10225SOL    HW231575   1.511   3.837   5.893 -0.6218  1.6267 -1.4503
10226SOL     OW31576   4.557   6.188   6.196 -0.2266 -0.1143  0.7603
10226SOL    HW131577   4.562   6.142   6.108 -0.2828  1.0090  0.1505
10226SOL    HW231578   4.467   6.175   6.236 -0.7916  0.7874 -0.1650
10227SOL     OW31579   6.128   5.922   6.659 -0.9175 -0.3565 -0.6522
10227SOL    HW131580   6.086   5.951   6.745 -1.9879 -3.2062 -0.1077
10227SOL    HW231581   6.228   5.927   6.667 -0.9918 -1.0313  0.9513
10228SOL     OW31582   6.190   6.469   5.263 -0.6917  0.2159 -0.0277
10228SOL    HW131583   6.276   6.512   5.235 -2.3454  3.0815 -1.1936
10228SOL    HW231584   6.149   6.523   5.336 -2.3732  0.0576 -0.8138
10229SOL     OW31585   1.921   2.567   3.994  0.3191  0.0410  0.7447
10229SOL    HW131586   1.911   2.666   3.983 -1.1648 -0.0764  0.8041
10229SOL    HW231587   1.968   2.530   3.914 -0.6625  0.5945 -0.1299
10230SOL     OW31588   6.733   6.521   6.820  0.8944 -0.0518  0.3232
10230SOL    HW131589   6.751   6.534   6.918  1.0728  1.3728  0.1145
10230SOL    HW231590   6.730   6.423   6.800  1.5790 -0.3607  1.6196
10231SOL     OW31591   0.337   3.570   1.276  0.1152 -0.2269 -0.6769
10231SOL    HW131592   0.278   3.621   1.214 -2.1596  0.5546  1.9178
10231SOL    HW231593   0.310   3.474   1.277  1.3016 -0.6071 -2.0903
10232SOL     OW31594   5.347   4.599   0.415  0.2813  0.0467  0.6624
10232SOL    HW131595   5.286   4.627   0.489  0.3374  1.0640  0.3433
10232SOL    HW231596   5.385   4.509   0.435  2.2822  1.2994  3.1323
10233SOL     OW31597   3.760   3.924   6.881 -0.6377 -0.4973  0.1870
10233SOL    HW131598   3.711   3.975   6.810 -1.6293 -1.7441 -0.0613
10233SOL    HW231599   3.696   3.863   6.928 -0.4005  1.4835  3.3431
10234SOL     OW31600   2.561   1.141   2.971  0.0803  0.5684 -0.2892
10234SOL    HW131601   2.479   1.149   3.027 -0.3335  1.9165 -1.0659
10234SOL    HW231602   2.536   1.118   2.877  0.6756 -0.0647 -0.3087
10235SOL     OW31603   5.827   1.177   2.750  0.5708  0.0412 -0.1530
10235SOL    HW131604   5.910   1.232   2.760  0.4759  0.0808  0.4453
10235SOL    HW231605   5.760   1.205   2.818 -0.0810  0.2589 -0.8657
10236SOL     OW31606   1.408   6.814   3.130  0.0196 -0.4084  0.1087
10236SOL    HW131607   1.366   6.784   3.044 -0.6727 -1.6958  0.8655
10236SOL    HW231608   1.489   6.759   3.148  0.5952  0.3667 -0.0781
10237SOL     OW31609   4.940   4.456   6.372  0.2704 -0.6045 -0.0012
10237SOL    HW131610   4.904   4.373   6.330 -0.6756 -0.1981 -0.0172
10237SOL    HW231611   5.039   4.459   6.360  0.2083 -1.2945 -0.7821
10238SOL     OW31612   2.187   6.464   1.817 -0.5873  0.0577  0.5293
10238SOL    HW131613   2.224   6.379   1.778 -2.5289 -1.6912  2.2614
10238SOL    HW231614   2.263   6.526   1.839  1.0249 -1.8219  0.5519
10239SOL     OW31615   0.606   2.940   4.660  0.4885  0.6068  0.7021
10239SOL    HW131616   0.656   2.872   4.606 -2.0812 -1.1502  0.3674
10239SOL    HW231617   0.633   2.932   4.756  1.6764  0.4991  0.3708
10240SOL     OW31618   1.652   1.113   2.943 -0.5177 -0.6362 -0.2967
10240SOL    HW131619   1.565   1.064   2.951 -1.6861  1.5560  2.0783
10240SOL    HW231620   1.714   1.081   3.014  0.0814 -1.1327 -1.0306
10241SOL     OW31621   3.769   2.899   1.049  0.3804  0.2890  0.1660
10241SOL    HW131622   3.694   2.948   1.005  0.0363  0.2970  0.7527
10241SOL    HW231623   3.788   2.939   1.138  1.0700  0.2680  0.0367
10242SOL     OW31624   2.406   3.326   1.703  0.3080  0.3939 -0.4218
10242SOL    HW131625   2.437   3.231   1.701  0.3422  0.3358 -3.9736
10242SOL    HW231626   2.374   3.349   1.794  2.6079 -2.2321  1.1949
10243SOL     OW31627   3.074   5.291   1.445 -0.4949 -0.8466  0.6912
10243SOL    HW131628   3.004   5.342   1.395  1.0707 -0.3478 -1.0694
10243SOL    HW231629   3.040   5.199   1.465 -2.2176 -0.1348  1.2753
10244SOL     OW31630   3.733   4.510   0.914 -0.4706 -0.3132 -0.0684
10244SOL    HW131631   3.702   4.511   1.009 -1.4470  0.7243 -0.3692
10244SOL    HW231632   3.799   4.583   0.899 -0.4581 -0.3554 -0.2218
10245SOL     OW31633   0.328   4.514   2.272  0.3400  0.6086  0.4528
10245SOL    HW131634   0.372   4.585   2.217  0.2811  0.3624  0.0797
10245SOL    HW231635   0.398   4.460   2.318  0.3919  3.2619  3.8863
10246SOL     OW31636   2.885   3.392   2.864  0.3033  0.0156 -0.5005
10246SOL    HW131637   2.907   3.395   2.962  0.0569 -1.8122 -0.3419
10246SOL    HW231638   2.914   3.304   2.827  1.3258  1.0690 -2.3322
10247SOL     OW31639   0.952   2.949   4.461  0.4296  0.3733 -0.0597
10247SOL    HW131640   1.005   2.887   4.403 -0.8804  0.8413 -1.8108
10247SOL    HW231641   0.964   2.922   4.557  0.3814 -2.2130 -0.6985
10248SOL     OW31642   1.470   2.006   3.934  0.1986 -0.0748  0.2856
10248SOL    HW131643   1.519   2.047   3.857 -0.0818 -0.3813 -0.0574
10248SOL    HW231644   1.536   1.971   4.001  0.4404 -0.0096  0.0823
10249SOL     OW31645   2.701   6.452   6.022  0.2237  0.1145 -0.6214
10249SOL    HW131646   2.696   6.381   6.092  1.8886 -0.2901 -0.8753
10249SOL    HW231647   2.612   6.462   5.978 -0.5350 -0.4572  0.7220
10250SOL     OW31648   2.698   3.637   5.621  0.0089 -0.4139 -0.2631
10250SOL    HW131649   2.604   3.666   5.605  0.1048  0.8060  1.1569
10250SOL    HW231650   2.698   3.548   5.667 -0.3779 -1.1666 -1.6611
10251SOL     OW31651   2.304   1.443   5.048 -0.4020  0.4418  0.0605
10251SOL    HW131652   2.351   1.524   5.085  1.2787 -0.0101 -1.0205
10251SOL    HW231653   2.216   1.432   5.095  0.1977  1.7702  1.5880
10252SOL     OW31654   5.190   3.710   0.055 -0.3195  0.0466  0.2941
10252SOL    HW131655   5.242   3.733   0.138  1.0138  0.3947 -0.6113
10252SOL    HW231656   5.117   3.646   0.079 -0.5885  0.8923  1.9034
10253SOL     OW31657   4.300   5.531   0.706 -0.3223 -0.5849 -0.1958
10253SOL    HW131658   4.237   5.491   0.639 -0.5270  0.2530 -0.5174
10253SOL    HW231659   4.283   5.491   0.796 -0.2261 -1.5314 -0.5887
10254SOL     OW31660   6.149   2.131   6.320  0.1119 -0.6390 -0.0936
10254SOL    HW131661   6.077   2.062   6.326  0.5370 -1.1129 -0.3558
10254SOL    HW231662   6.113   2.220   6.347 -0.8667 -0.6572 -1.2514
10255SOL     OW31663   4.320   4.946   1.570 -0.3148 -0.2033  0.2696
10255SOL    HW131664   4.315   5.041   1.538  2.2206 -0.5093 -1.2451
10255SOL    HW231665   4.258   4.890   1.515 -1.3003  0.4238  0.7049
10256SOL     OW31666   2.448   0.494   4.714 -0.3451 -0.4395 -0.5380
10256SOL    HW131667   2.430   0.405   4.756 -2.5902  0.3116  0.2489
10256SOL    HW231668   2.472   0.481   4.618  1.9292 -1.9984  0.1564
10257SOL     OW31669   2.762   6.941   3.268  0.5772  0.2762 -0.3372
10257SOL    HW131670   2.791   6.967   3.361  2.2472  2.7635 -1.4327
10257SOL    HW231671   2.719   6.851   3.271  1.7611 -0.3362  2.6510
10258SOL     OW31672   1.277   3.866   2.316 -0.1877  0.0380  0.1598
10258SOL    HW131673   1.347   3.829   2.255 -0.5226  2.4661 -1.8608
10258SOL    HW231674   1.259   3.961   2.291  0.1198  1.4473  4.5273
10259SOL     OW31675   1.404   3.056   3.184  0.1815 -0.2275  0.6175
10259SOL    HW131676   1.336   3.026   3.251  0.3384  0.1882  0.9712
10259SOL    HW231677   1.495   3.031   3.216  0.2543 -0.0570  0.5432
10260SOL     OW31678   1.428   0.734   3.012  0.4089  0.5151 -0.1550
10260SOL    HW131679   1.391   0.759   2.923 -0.8949  1.1137  0.5331
10260SOL    HW231680   1.512   0.786   3.029  1.8286 -1.0744 -1.8577
10261SOL     OW31681   5.906   3.454   1.394 -0.2470  0.1608 -0.3897
10261SOL    HW131682   5.879   3.388   1.325 -0.6499 -0.0174 -0.0683
10261SOL    HW231683   5.825   3.489   1.441  0.1019 -1.9593  2.0499
10262SOL     OW31684   4.871   0.218   6.292  0.6191 -0.3947  0.4077
10262SOL    HW131685   4.855   0.316   6.302  1.5408 -0.0606 -1.0668
10262SOL    HW231686   4.791   0.168   6.324 -0.7940  0.9244 -0.8704
10263SOL     OW31687   6.151   2.346   3.045  0.4700 -0.4354  0.4629
10263SOL    HW131688   6.087   2.421   3.063  0.1889  0.2232 -2.6719
10263SOL    HW231689   6.100   2.262   3.027  0.6259 -0.6137  0.8566
10264SOL     OW31690   0.742   0.519   4.790 -0.4174 -0.7293 -0.5882
10264SOL    HW131691   0.733   0.604   4.739 -1.1107 -0.4327  0.0211
10264SOL    HW231692   0.840   0.498   4.802 -0.1756  0.9946  0.8946
10265SOL     OW31693   2.842   2.484   1.497  0.0532 -0.0101 -0.0413
10265SOL    HW131694   2.905   2.452   1.568 -1.1411 -1.6810  0.3266
10265SOL    HW231695   2.838   2.584   1.498 -0.1286  0.0107  2.4028
10266SOL     OW31696   2.252   3.965   1.315  0.1914 -0.5161 -0.1780
10266SOL    HW131697   2.249   4.033   1.242  0.6862 -0.0725  0.1971
10266SOL    HW231698   2.323   3.898   1.295 -0.4623 -1.0638 -0.6666
10267SOL     OW31699   0.504   2.445   1.986 -0.1525  0.8208 -0.0257
10267SOL    HW131700   0.412   2.484   1.980 -0.8482 -0.6248  0.6485
10267SOL    HW231701   0.557   2.495   2.055 -1.1778  0.3412  1.1569
10268SOL     OW31702   3.626   6.002   2.857 -0.1744  0.0264  0.5141
10268SOL    HW131703   3.566   5.927   2.829 -1.5561  1.2365  0.0746
10268SOL    HW231704   3.587   6.089   2.827  1.9000  0.8796  0.0992
10269SOL     OW31705   3.727   0.782   0.080 -0.1999  0.0473  0.6117
10269SOL    HW131706   3.690   0.770   0.172 -2.1548  0.7698 -0.0215
10269SOL    HW231707   3.654   0.811   0.018  1.0421 -0.5038 -1.2068
10270SOL     OW31708   2.140   6.507   4.063  0.5852  0.4921 -0.0527
10270SOL    HW131709   2.193   6.472   3.985  2.0691  0.5698  0.8943
10270SOL    HW231710   2.173   6.597   4.088  0.0408  0.5144  0.6138
10271SOL     OW31711   2.014   0.908   6.945  0.0804  0.6901  0.0292
10271SOL    HW131712   2.097   0.863   6.912 -0.4960  0.6610 -1.4872
10271SOL    HW231713   1.944   0.840   6.963  0.2670  0.7399  1.0084
10272SOL     OW31714   3.458   0.359   5.408  0.0595  1.1978  0.5276
10272SOL    HW131715   3.375   0.316   5.446  0.0530 -0.5457 -1.3524
10272SOL    HW231716   3.505   0.409   5.481 -0.2610 -1.4884  2.7376
10273SOL     OW31717   3.112   3.853   2.027  0.4597 -0.1365 -0.2274
10273SOL    HW131718   3.201   3.894   2.046  0.9349 -0.8779 -0.8050
10273SOL    HW231719   3.060   3.846   2.112  0.9064  0.3885  0.1013
10274SOL     OW31720   2.904   4.806   4.051 -0.3440 -0.1293  0.3814
10274SOL    HW131721   2.834   4.876   4.068 -0.2797 -0.1867  0.8893
10274SOL    HW231722   2.869   4.739   3.985 -0.5059  0.2286  0.0977
10275SOL     OW31723   5.823   6.773   1.709 -0.1671  0.3857  0.3666
10275SOL    HW131724   5.756   6.846   1.720  0.3115  1.6763 -3.5815
10275SOL    HW231725   5.807   6.725   1.623  2.5044 -0.8509  0.4350
10276SOL     OW31726   2.939   5.294   4.580 -0.0488  0.3438  0.2900
10276SOL    HW131727   2.999   5.341   4.643 -0.5286  0.8181  0.4001
10276SOL    HW231728   2.989   5.221   4.533  0.5706  0.6603  0.4621
10277SOL     OW31729   1.211   0.228   3.105  0.1707  0.5966 -0.0109
10277SOL    HW131730   1.255   0.314   3.083  3.3234 -1.0128 -0.5973
10277SOL    HW231731   1.224   0.207   3.202  1.7694 -0.3882 -0.4095
10278SOL     OW31732   6.359   6.161   2.992  0.3487  0.2130  0.4529
10278SOL    HW131733   6.378   6.147   2.895  1.0998 -0.7996  0.7383
10278SOL    HW231734   6.444   6.155   3.044 -0.0625  0.6482  1.1963
10279SOL     OW31735   1.100   4.123   3.850 -0.0653  0.3203  0.4146
10279SOL    HW131736   1.025   4.065   3.884  0.6960 -0.1579  1.3182
10279SOL    HW231737   1.184   4.102   3.900  1.2054 -0.5909 -1.9529
10280SOL     OW31738   0.040   6.796   1.280  0.1541  0.5703  0.5232
10280SOL    HW131739   0.139   6.786   1.289  0.2569 -0.9857 -1.5309
10280SOL    HW231740   0.019   6.866   1.213 -0.0754  0.0255  0.0128
10281SOL     OW31741   5.396   0.540   6.110 -0.9141  0.0799 -0.1899
10281SOL    HW131742   5.329   0.611   6.131 -0.1622  0.9804 -0.7220
10281SOL    HW231743   5.439   0.561   6.022  0.3034 -0.2733  0.3059
10282SOL     OW31744   4.610   4.294   3.502 -0.1835  0.0938  0.3083
10282SOL    HW131745   4.682   4.313   3.436 -0.3505 -0.1390  0.0567
10282SOL    HW231746   4.603   4.195   3.518 -0.9121  0.0510 -0.2071
10283SOL     OW31747   0.092   3.376   2.244 -0.1598 -0.4302 -0.3267
10283SOL    HW131748   0.085   3.325   2.158  1.5836 -0.4849 -0.4919
10283SOL    HW231749   0.065   3.471   2.229  0.6530 -0.3038 -1.0949
10284SOL     OW31750   0.998   5.843   0.003  0.1793  0.2329 -0.2937
10284SOL    HW131751   1.004   5.911  -0.070  0.2107  0.9506  0.3529
10284SOL    HW231752   1.077   5.855   0.064 -0.2706  0.1868  0.3024
10285SOL     OW31753   6.671   5.367   6.002 -0.0321  0.8359  0.8289
10285SOL    HW131754   6.727   5.337   5.924 -0.4737  0.4070  0.6677
10285SOL    HW231755   6.575   5.375   5.973  0.1435  2.9902  0.7198
10286SOL     OW31756   3.422   1.205   0.096  0.0930  0.4426 -0.2547
10286SOL    HW131757   3.359   1.278   0.119 -1.7704 -1.1617 -0.0193
10286SOL    HW231758   3.408   1.176   0.002 -0.9340 -1.2198  0.3730
10287SOL     OW31759   0.780   5.851   2.819  0.0853  0.0411  0.3001
10287SOL    HW131760   0.741   5.790   2.888 -0.8809 -2.2167 -2.0692
10287SOL    HW231761   0.880   5.848   2.824  0.0366  0.4857  2.0078
10288SOL     OW31762   3.109   6.038   5.380 -0.2190  0.0840  0.2848
10288SOL    HW131763   3.087   6.131   5.410 -0.0479  0.5870 -1.0764
10288SOL    HW231764   3.208   6.027   5.377 -0.2365 -0.0335  0.1334
10289SOL     OW31765   3.366   5.821   0.113  0.7108 -0.9739 -0.4740
10289SOL    HW131766   3.309   5.761   0.168  1.3245 -1.1749 -0.0484
10289SOL    HW231767   3.308   5.882   0.059  0.0328  0.6672  1.9399
10290SOL     OW31768   3.770   3.581   1.877  0.1922  0.0005  0.3453
10290SOL    HW131769   3.753   3.574   1.779  2.3943  2.5299 -0.3303
10290SOL    HW231770   3.863   3.552   1.896 -0.1212 -0.1850  1.6698
10291SOL     OW31771   2.833   2.414   1.239  0.3988  0.0635  0.7190
10291SOL    HW131772   2.779   2.491   1.205  1.1210  0.9528  1.5240
10291SOL    HW231773   2.827   2.410   1.339 -1.0377 -2.0105  0.6296
10292SOL     OW31774   6.562   0.521   4.790 -0.3853  0.0266  0.6416
10292SOL    HW131775   6.535   0.436   4.834 -0.7060 -0.1916  0.0435
10292SOL    HW231776   6.564   0.508   4.690 -3.6359  1.5662  0.2511
10293SOL     OW31777   2.870   3.191   5.438 -0.2482  0.2686  0.4329
10293SOL    HW131778   2.956   3.147   5.413  0.3053  2.4067 -1.8977
10293SOL    HW231779   2.795   3.126   5.426  0.9029 -1.3382  1.5547
10294SOL     OW31780   2.262   1.545   1.769 -0.1139  0.1409 -0.3891
10294SOL    HW131781   2.220   1.466   1.724 -0.0992 -0.1036  0.0219
10294SOL    HW231782   2.190   1.604   1.807 -0.1566  0.6865 -1.2799
10295SOL     OW31783   1.059   1.321   6.994  0.6591  0.3024 -0.3927
10295SOL    HW131784   0.998   1.257   6.947 -0.7038 -1.0679  2.8637
10295SOL    HW231785   1.127   1.269   7.045  0.6757  1.5140  0.8834
10296SOL     OW31786   0.849   4.102   5.747 -0.2043 -0.5252 -0.7125
10296SOL    HW131787   0.775   4.144   5.693  0.0251 -0.4126 -0.9402
10296SOL    HW231788   0.863   4.156   5.830  2.3821  1.9534 -2.5608
10297SOL     OW31789   2.473   0.356   6.184 -0.2120  0.2251  0.4601
10297SOL    HW131790   2.486   0.286   6.254 -2.1340 -1.0652 -0.3713
10297SOL    HW231791   2.472   0.446   6.227 -0.8120 -0.4875  2.0372
10298SOL     OW31792   1.490   0.174   1.923 -0.5436  0.0288  0.1305
10298SOL    HW131793   1.436   0.256   1.903  0.5100  0.7040 -0.0308
10298SOL    HW231794   1.464   0.100   1.861 -1.7774  0.1016  0.5258
10299SOL     OW31795   6.725   3.085   2.186  0.1654 -0.1650 -0.2255
10299SOL    HW131796   6.654   3.152   2.163  3.0110  2.9504 -0.7284
10299SOL    HW231797   6.714   3.056   2.281 -0.8523  1.5199  0.2127
10300SOL     OW31798   1.471   2.969   0.139 -0.1081  0.3508 -0.3023
10300SOL    HW131799   1.437   2.960   0.046  1.7829  3.7767 -1.4972
10300SOL    HW231800   1.566   2.941   0.143  0.3483  1.8517  0.1141
10301SOL     OW31801   3.205   1.943   1.076 -0.3227 -0.4319  0.6558
10301SOL    HW131802   3.167   1.933   0.984 -1.5886  0.1012  1.0911
10301SOL    HW231803   3.300   1.914   1.076 -0.0501  0.3281 -1.0012
10302SOL     OW31804   3.051   6.975   6.213 -0.0994  0.0362  0.8488
10302SOL    HW131805   2.969   6.920   6.199  0.2855 -0.7253  1.4825
10302SOL    HW231806   3.115   6.959   6.137  0.4407 -1.2194  1.5369
10303SOL     OW31807   1.438   4.079   5.043 -0.4997  0.6870 -0.1277
10303SOL    HW131808   1.432   4.090   4.944  1.9871 -0.8011 -0.5134
10303SOL    HW231809   1.513   4.136   5.078  1.1391 -1.5816  0.2740
10304SOL     OW31810   4.351   3.591   6.787  0.4036 -0.4936  0.2280
10304SOL    HW131811   4.399   3.663   6.736  3.3475 -0.6629  2.5191
10304SOL    HW231812   4.269   3.630   6.830  0.0756  0.5886 -1.2530
10305SOL     OW31813   3.682   3.959   4.125  0.2632  0.1870  0.0428
10305SOL    HW131814   3.750   3.927   4.059 -0.6900 -2.1877  0.0969
10305SOL    HW231815   3.726   3.974   4.214  0.9310 -0.2207 -0.2135
10306SOL     OW31816   2.950   1.410   1.728  0.1655 -0.3958  0.1046
10306SOL    HW131817   2.975   1.505   1.710  2.5954 -1.1012 -0.6199
10306SOL    HW231818   2.852   1.398   1.712  0.1028  1.6238 -1.4884
10307SOL     OW31819   2.080   0.084   5.208 -0.0815 -0.1917  0.6297
10307SOL    HW131820   1.992   0.066   5.252  0.0999 -1.5707  0.4798
10307SOL    HW231821   2.137   0.139   5.269 -1.2829  1.3261  0.4388
10308SOL     OW31822   1.886   6.219   1.617 -0.4083 -0.0062  0.4854
10308SOL    HW131823   1.881   6.163   1.534 -1.3461  0.1293  0.4480
10308SOL    HW231824   1.843   6.307   1.601 -1.2934 -0.2669  1.3467
10309SOL     OW31825   3.579   1.497   5.262  0.0938 -0.3639  0.0786
10309SOL    HW131826   3.657   1.552   5.291 -1.2638  1.3664  0.6953
10309SOL    HW231827   3.497   1.556   5.259 -1.4801 -2.3951  0.8769
10310SOL     OW31828   2.655   4.147   6.495  0.1433 -0.7966  0.3940
10310SOL    HW131829   2.711   4.210   6.550 -1.1524 -0.0109  0.8497
10310SOL    HW231830   2.625   4.071   6.552 -0.9622 -0.1307  0.7281
10311SOL     OW31831   4.782   5.869   5.630  0.7770 -0.3937  0.2540
10311SOL    HW131832   4.736   5.789   5.669 -1.3574 -0.1830 -1.6158
10311SOL    HW231833   4.768   5.948   5.689 -2.0664 -0.1622 -0.5580
10312SOL     OW31834   1.169   5.807   0.243  0.0926  0.1717 -0.4237
10312SOL    HW131835   1.239   5.877   0.228 -0.8295  0.7923 -2.1097
10312SOL    HW231836   1.204   5.737   0.304  1.4098  1.5785  0.4940
10313SOL     OW31837   4.058   0.649   3.938  0.9024  0.5866 -0.1706
10313SOL    HW131838   3.960   0.650   3.922  1.0825  0.4830 -1.3741
10313SOL    HW231839   4.079   0.700   4.021 -0.2471 -0.2460  0.6482
10314SOL     OW31840   0.340   5.595   6.693 -0.3839  0.3172 -0.1772
10314SOL    HW131841   0.269   5.662   6.673 -1.5790 -1.1618 -1.1852
10314SOL    HW231842   0.313   5.541   6.773 -2.4269 -2.7295 -2.6645
10315SOL     OW31843   5.411   4.941   3.614 -0.1836 -0.3133 -0.2108
10315SOL    HW131844   5.375   5.034   3.621 -0.6037 -0.5586  1.1251
10315SOL    HW231845   5.436   4.907   3.705 -3.1818 -2.7090 -0.1268
10316SOL     OW31846   6.968   2.306   6.163  0.2419 -0.0672 -0.4831
10316SOL    HW131847   6.894   2.260   6.211  1.3433  0.5537  1.9891
10316SOL    HW231848   7.056   2.272   6.197  1.0667  1.9816 -0.4287
10317SOL     OW31849   4.130   6.509   3.388 -0.6606  0.2694 -0.6339
10317SOL    HW131850   4.084   6.420   3.392  0.2291 -0.1713  0.4362
10317SOL    HW231851   4.223   6.497   3.352  0.2184  0.3845  1.4422
10318SOL     OW31852   7.006   5.674   1.050 -0.1813  0.5630 -0.7033
10318SOL    HW131853   6.914   5.699   1.019 -0.8608 -0.9184  0.0168
10318SOL    HW231854   7.000   5.619   1.133  1.4327  1.4676  0.0620
10319SOL     OW31855   6.469   2.481   3.966  0.2814  0.1425  0.3154
10319SOL    HW131856   6.525   2.549   3.918 -0.6614 -0.1305 -1.2307
10319SOL    HW231857   6.526   2.430   4.030  1.5421  0.6915 -0.3370
10320SOL     OW31858   6.797   6.545   0.713  0.1132  0.2863 -0.1474
10320SOL    HW131859   6.697   6.551   0.715 -0.0170 -1.4338  1.3836
10320SOL    HW231860   6.826   6.502   0.628 -0.5420 -0.1930 -0.1385
10321SOL     OW31861   6.809   3.740   4.147  0.2718 -0.2007 -0.1548
10321SOL    HW131862   6.845   3.833   4.149 -0.9836  0.3061  0.3744
10321SOL    HW231863   6.883   3.675   4.161  1.5627  0.5688 -2.8571
10322SOL     OW31864   2.732   5.753   4.550 -0.2639 -0.0329 -0.0770
10322SOL    HW131865   2.786   5.776   4.631  1.2965 -0.3662 -0.9844
10322SOL    HW231866   2.637   5.737   4.577  0.3165 -0.6243  1.7566
10323SOL     OW31867   0.758   3.153   4.352 -0.0009  0.1702  0.3846
10323SOL    HW131868   0.786   3.108   4.267  0.4576  0.8595  0.1611
10323SOL    HW231869   0.806   3.113   4.429  0.6688  0.5026  0.1469
10324SOL     OW31870   2.555   4.353   1.342  0.2990  0.3293  0.1695
10324SOL    HW131871   2.553   4.393   1.251 -2.3757  0.2748  0.1079
10324SOL    HW231872   2.589   4.420   1.408 -0.4933  1.3872 -0.4729
10325SOL     OW31873   6.030   6.144   3.349  0.0854 -0.3197  0.0203
10325SOL    HW131874   6.082   6.227   3.326  0.6139 -1.0211 -1.3913
10325SOL    HW231875   6.085   6.087   3.410 -0.0134  0.0396  0.4574
10326SOL     OW31876   0.155   3.391   0.627  0.0700  0.1078 -0.0499
10326SOL    HW131877   0.241   3.355   0.591  1.4444  0.8308  2.3128
10326SOL    HW231878   0.123   3.464   0.567 -0.1415 -1.6396 -2.1773
10327SOL     OW31879   1.427   5.943   0.382  0.4357  0.6387 -0.4784
10327SOL    HW131880   1.519   5.980   0.383  0.6779  0.0734  1.5978
10327SOL    HW231881   1.411   5.887   0.464 -1.8591  1.0035 -0.5902
10328SOL     OW31882   6.137   4.130   2.976 -0.1630 -0.1995  0.0690
10328SOL    HW131883   6.170   4.146   2.882  0.3568  0.9553  0.4317
10328SOL    HW231884   6.042   4.099   2.973 -0.5605  1.0244 -0.8028
10329SOL     OW31885   3.297   1.711   1.517 -0.4042 -0.2228 -0.1459
10329SOL    HW131886   3.370   1.647   1.493 -0.1561  0.2383 -0.6584
10329SOL    HW231887   3.315   1.799   1.473 -1.0639  0.0145  0.0515
10330SOL     OW31888   4.263   0.094   2.241 -0.0204 -0.0087 -0.1793
10330SOL    HW131889   4.259   0.149   2.158 -0.9352 -0.1843 -0.2647
10330SOL    HW231890   4.246   0.152   2.321  0.6570  0.1228 -0.1235
10331SOL     OW31891   4.163   6.869   5.610 -0.1810 -0.2835 -0.2394
10331SOL    HW131892   4.252   6.824   5.600 -0.4513 -1.0776  0.6937
10331SOL    HW231893   4.120   6.878   5.520  0.8821  0.2076 -0.7091
10332SOL     OW31894   2.404   5.499   6.514 -0.2278 -0.0640  0.2012
10332SOL    HW131895   2.500   5.504   6.488  0.3049 -0.9939  1.8781
10332SOL    HW231896   2.382   5.575   6.576  0.1645 -1.3085  1.9450
10333SOL     OW31897   0.663   2.901   3.741 -0.4698  0.4058 -0.4465
10333SOL    HW131898   0.591   2.904   3.672 -0.8422  2.7655 -0.0469
10333SOL    HW231899   0.672   2.991   3.784  1.7907 -0.1964  0.5066
10334SOL     OW31900   3.304   1.927   5.270 -0.0708 -0.4353  0.4054
10334SOL    HW131901   3.314   1.889   5.179 -2.6062  0.3263 -0.2758
10334SOL    HW231902   3.334   2.022   5.270 -1.2542 -0.0373 -0.0252
10335SOL     OW31903   2.250   2.852   3.389  0.1067 -0.3624 -0.5527
10335SOL    HW131904   2.253   2.794   3.470 -3.2466  0.7722  0.5486
10335SOL    HW231905   2.275   2.798   3.308  0.7638 -2.2665  0.8356
10336SOL     OW31906   5.354   2.032   2.024  0.0316  0.2897  0.3997
10336SOL    HW131907   5.403   1.964   1.969 -0.0847  1.8942 -1.8387
10336SOL    HW231908   5.414   2.065   2.097  1.6548  0.8155 -1.1021
10337SOL     OW31909   5.668   6.110   5.929  0.4743  0.1917 -0.2123
10337SOL    HW131910   5.665   6.174   6.006  0.1085  0.8875 -0.7955
10337SOL    HW231911   5.694   6.019   5.963  2.4134  0.9347  0.4226
10338SOL     OW31912   6.506   6.080   0.385 -0.6718 -0.6785  0.4892
10338SOL    HW131913   6.548   6.001   0.429  0.8390 -1.1609 -1.6507
10338SOL    HW231914   6.578   6.141   0.352 -1.5528 -1.3732 -3.0627
10339SOL     OW31915   3.962   2.627   0.353 -0.3977 -0.5406 -0.3878
10339SOL    HW131916   4.016   2.581   0.423 -0.3860 -0.5131 -0.3785
10339SOL    HW231917   3.957   2.725   0.375 -1.0953 -0.6639  0.0295
10340SOL     OW31918   4.273   3.375   5.400 -0.0272  0.1599 -0.2011
10340SOL    HW131919   4.193   3.350   5.345 -0.0582  0.2167 -0.1816
10340SOL    HW231920   4.323   3.449   5.355  0.7417 -0.7435 -0.8781
10341SOL     OW31921   3.878   6.340   1.788  0.6189  0.1022  0.2532
10341SOL    HW131922   3.786   6.373   1.810  0.4060 -0.4859  0.2530
10341SOL    HW231923   3.877   6.298   1.697  1.1284  1.0430 -0.2045
10342SOL     OW31924   2.140   0.766   4.200  0.6302 -0.2434  0.1870
10342SOL    HW131925   2.134   0.819   4.284  0.8458 -0.0860  0.1049
10342SOL    HW231926   2.229   0.720   4.195  0.6294 -0.2308  0.0324
10343SOL     OW31927   3.927   6.498   0.903  0.0145  0.2151 -0.0247
10343SOL    HW131928   3.919   6.401   0.881  0.7989  0.1069  0.1309
10343SOL    HW231929   3.857   6.549   0.854 -1.0545 -0.5410  0.6574
10344SOL     OW31930   4.208   0.201   5.627 -0.2047 -0.0486 -0.2372
10344SOL    HW131931   4.147   0.174   5.702  0.1419 -2.4101 -0.7334
10344SOL    HW231932   4.159   0.192   5.540  0.3262 -0.2916 -0.5111
10345SOL     OW31933   1.447   5.131   5.963 -1.0976 -0.6218 -0.6826
10345SOL    HW131934   1.415   5.077   5.886 -1.0549 -0.9406 -0.4788
10345SOL    HW231935   1.459   5.072   6.043 -1.7443 -0.1853 -0.2557
10346SOL     OW31936   2.076   2.116   0.607 -0.0662  0.3372  0.3173
10346SOL    HW131937   2.042   2.094   0.698 -1.5535 -1.9218 -0.6923
10346SOL    HW231938   2.001   2.112   0.541  1.2240  0.4861 -1.2329
10347SOL     OW31939   2.001   2.198   5.034  0.0599  0.4599  0.7901
10347SOL    HW131940   2.084   2.182   5.089 -0.4299  1.1542  1.7537
10347SOL    HW231941   2.021   2.265   4.963  0.4820  0.1815  0.6404
10348SOL     OW31942   1.679   4.391   1.813 -0.1966 -0.8194  0.0845
10348SOL    HW131943   1.652   4.368   1.720 -3.1721 -2.1076  1.1589
10348SOL    HW231944   1.652   4.485   1.833 -0.3578 -0.8368 -0.0542
10349SOL     OW31945   0.013   1.576   5.428 -0.1256  0.3459  0.5918
10349SOL    HW131946  -0.007   1.479   5.441 -0.2188  0.4143  0.9671
10349SOL    HW231947   0.094   1.585   5.369 -0.2299  0.0469  0.3957
10350SOL     OW31948   3.955   1.281   6.396  0.3488  0.0386 -0.6104
10350SOL    HW131949   3.926   1.295   6.491  0.9415 -1.3789 -0.1903
10350SOL    HW231950   4.027   1.346   6.372  0.6141  0.0151  0.1166
10351SOL     OW31951   1.544   4.060   5.881 -0.0011  0.2346  0.3522
10351SOL    HW131952   1.572   4.155   5.873 -1.3448  0.6074 -0.1646
10351SOL    HW231953   1.534   4.036   5.978  0.7988  0.4667  0.4971
10352SOL     OW31954   4.702   5.061   5.071  0.4894 -0.0013  0.7928
10352SOL    HW131955   4.659   4.991   5.129  0.0777 -0.3956  0.0333
10352SOL    HW231956   4.698   5.149   5.117  0.0036 -0.2738  1.2888
10353SOL     OW31957   6.638   4.253   4.626 -0.0990  0.2497  0.0868
10353SOL    HW131958   6.588   4.180   4.672 -1.0654 -0.2539 -1.6705
10353SOL    HW231959   6.735   4.230   4.622 -0.4621 -1.3092 -0.9821
10354SOL     OW31960   6.509   1.959   1.856  0.2154 -0.0352 -0.5430
10354SOL    HW131961   6.423   1.937   1.810  0.2438 -0.0173 -0.6038
10354SOL    HW231962   6.576   1.887   1.837  0.9297  1.0473 -2.3211
10355SOL     OW31963   2.395   5.196   1.366  0.1112 -0.5089  0.2704
10355SOL    HW131964   2.351   5.276   1.406 -0.1352  0.7914 -2.3935
10355SOL    HW231965   2.484   5.182   1.408  0.3359  1.4479  0.4959
10356SOL     OW31966   6.696   2.354   4.984 -0.5614 -0.1023  1.3686
10356SOL    HW131967   6.671   2.260   5.009  0.2559 -0.4462  0.9161
10356SOL    HW231968   6.792   2.358   4.957 -0.6344  0.8336  1.1953
10357SOL     OW31969   4.069   2.523   6.884 -0.1112  0.7633  1.0019
10357SOL    HW131970   4.029   2.482   6.802 -0.5380  1.2517  0.9631
10357SOL    HW231971   4.169   2.527   6.873 -0.0018 -0.7231  1.2262
10358SOL     OW31972   0.430   3.086   1.299 -0.1124  0.1769  0.7360
10358SOL    HW131973   0.449   3.107   1.203 -0.6703  1.7614  0.9447
10358SOL    HW231974   0.390   2.994   1.305  1.7739 -0.7741 -0.3032
10359SOL     OW31975   2.259   1.107   2.076  0.2017 -0.5476  0.1978
10359SOL    HW131976   2.219   1.196   2.099  2.0605  0.9500 -1.8795
10359SOL    HW231977   2.237   1.041   2.147 -2.0175  1.3177  1.3792
10360SOL     OW31978   0.301   4.939   4.015  0.9949 -0.3650  0.4212
10360SOL    HW131979   0.307   4.981   3.925 -0.8544 -0.6354  0.1393
10360SOL    HW231980   0.250   4.853   4.009 -0.2198  0.1999  1.9120
10361SOL     OW31981   1.887   4.938   0.496 -0.0476 -0.7912 -0.4205
10361SOL    HW131982   1.981   4.905   0.494  0.5159  0.6405  0.8974
10361SOL    HW231983   1.880   5.018   0.554 -2.2309 -1.2720  0.0967
10362SOL     OW31984   0.587   5.226   5.829  0.1293 -0.3023 -0.1389
10362SOL    HW131985   0.572   5.142   5.777  3.3470  0.2817 -2.2473
10362SOL    HW231986   0.592   5.303   5.767  1.7505  0.7986  1.2768
10363SOL     OW31987   5.858   0.768   3.782 -0.0281 -0.6334  0.2645
10363SOL    HW131988   5.880   0.842   3.719 -1.9399 -0.6784 -0.4923
10363SOL    HW231989   5.897   0.789   3.872  0.4353  0.7181 -0.2300
10364SOL     OW31990   1.179   3.767   1.221 -0.2600 -0.2733 -0.0046
10364SOL    HW131991   1.212   3.762   1.127 -1.5735 -2.0341 -0.4145
10364SOL    HW231992   1.237   3.711   1.280 -0.4053 -0.5001 -0.0757
10365SOL     OW31993   6.657   5.863   0.807  0.0882 -0.2104  0.0634
10365SOL    HW131994   6.675   5.942   0.866 -2.0456 -0.8612  1.7206
10365SOL    HW231995   6.692   5.780   0.851 -0.0014 -0.4979 -0.4008
10366SOL     OW31996   3.922   5.777   2.994  0.2420 -0.1860 -0.0599
10366SOL    HW131997   3.859   5.708   3.028 -1.1125  0.9611 -0.1185
10366SOL    HW231998   3.903   5.795   2.897  0.1043  0.7350  0.1283
10367SOL     OW31999   4.890   3.707   3.750 -0.1176 -0.0751 -0.0670
10367SOL    HW132000   4.838   3.641   3.697 -1.0081 -0.5519  1.3263
10367SOL    HW232001   4.982   3.673   3.767 -1.0490 -1.8302  2.0273
10368SOL     OW32002   1.374   0.761   6.675 -0.3448  0.4746 -0.0107
10368SOL    HW132003   1.291   0.762   6.619 -0.7204  0.1074  0.5306
10368SOL    HW232004   1.426   0.845   6.659 -0.8283  0.7199 -0.3328
10369SOL     OW32005   5.194   1.379   6.429 -0.3009 -0.0243  0.1144
10369SOL    HW132006   5.153   1.381   6.338 -0.2375  0.6832  0.0919
10369SOL    HW232007   5.159   1.301   6.480 -0.2710 -0.4747 -0.5457
10370SOL     OW32008   2.367   1.687   5.147  0.4046  0.3632  0.0303
10370SOL    HW132009   2.294   1.745   5.109  0.2080  0.2326  0.2054
10370SOL    HW232010   2.433   1.744   5.195  1.2187  0.6543 -1.3792
10371SOL     OW32011   5.078   5.433   5.796  0.3025  0.2557  0.4404
10371SOL    HW132012   5.042   5.513   5.844  1.3149 -0.2061  2.0316
10371SOL    HW232013   5.156   5.396   5.846  1.2372 -0.4393 -1.4381
10372SOL     OW32014   6.755   1.536   3.689 -0.1809 -0.3731  0.2852
10372SOL    HW132015   6.660   1.505   3.691 -0.2876 -0.0731  0.0531
10372SOL    HW232016   6.785   1.545   3.594  0.8047 -2.6000  0.3446
10373SOL     OW32017   1.030   5.830   6.080  0.1526 -0.2768 -0.1958
10373SOL    HW132018   1.065   5.795   5.993 -0.7618 -0.5855 -0.4532
10373SOL    HW232019   0.982   5.757   6.129 -0.3081  0.1739  0.0434
10374SOL     OW32020   4.807   0.831   4.371 -0.3398 -0.3102  0.0092
10374SOL    HW132021   4.788   0.822   4.274  0.6047 -1.4772 -0.0993
10374SOL    HW232022   4.893   0.784   4.392  0.1003  0.9744  1.1951
10375SOL     OW32023   5.761   0.154   1.862 -0.0801  0.5678  0.0531
10375SOL    HW132024   5.669   0.175   1.894 -0.0140 -0.6924  1.1661
10375SOL    HW232025   5.768   0.173   1.764 -1.6277  0.3455 -0.1200
10376SOL     OW32026   5.352   1.209   1.992  0.2658 -0.6833 -0.1537
10376SOL    HW132027   5.437   1.240   1.949 -0.0594 -1.3782 -1.3407
10376SOL    HW232028   5.369   1.127   2.046  0.8031  0.5544  1.6416
10377SOL     OW32029   5.316   5.971   4.002 -0.0672 -0.2998  0.3228
10377SOL    HW132030   5.255   5.934   3.932 -1.1650 -0.6985  1.4648
10377SOL    HW232031   5.380   5.900   4.031 -1.2115 -0.9236  1.4453
10378SOL     OW32032   6.675   1.073   5.147 -0.2601 -0.2150  0.4270
10378SOL    HW132033   6.717   0.989   5.180  0.6609 -0.7396 -1.8718
10378SOL    HW232034   6.712   1.151   5.197 -0.3381 -1.0717  1.8702
10379SOL     OW32035   3.806   1.563   5.595  0.5274 -0.2094  0.1500
10379SOL    HW132036   3.771   1.520   5.678  0.4867  1.1813  0.8806
10379SOL    HW232037   3.874   1.502   5.552  1.9426 -0.1956  2.2252
10380SOL     OW32038   3.945   1.751   5.109  0.3946  0.2772 -0.0860
10380SOL    HW132039   3.878   1.767   5.037 -0.4187 -0.7082  0.4196
10380SOL    HW232040   4.037   1.769   5.075 -0.0846  1.0934 -0.9645
10381SOL     OW32041   3.122   4.397   5.568 -0.7819  0.5468  0.0320
10381SOL    HW132042   3.057   4.364   5.499 -0.0333 -3.1438  0.8661
10381SOL    HW232043   3.183   4.464   5.527 -0.5471 -1.2737 -2.9253
10382SOL     OW32044   1.645   3.032   0.779 -0.1315 -0.0631  0.1035
10382SOL    HW132045   1.634   3.132   0.777  1.3701  0.2490  2.5503
10382SOL    HW232046   1.738   3.008   0.753 -0.2364 -0.7561  0.3368
10383SOL     OW32047   5.895   5.652   1.410  0.2173  0.2231 -0.0792
10383SOL    HW132048   5.982   5.650   1.361  0.2201  0.6693 -0.0957
10383SOL    HW232049   5.819   5.651   1.345  0.2062 -0.3411 -0.0603
10384SOL     OW32050   5.771   1.097   0.228 -0.5818 -0.6738 -0.6838
10384SOL    HW132051   5.742   1.032   0.298 -0.8851 -2.1405 -2.1330
10384SOL    HW232052   5.768   1.054   0.138  1.0090  0.7813 -1.4918
10385SOL     OW32053   4.432   3.214   5.747 -0.2072  0.2696 -0.2097
10385SOL    HW132054   4.334   3.220   5.727 -0.5407  0.5590  1.3753
10385SOL    HW232055   4.480   3.290   5.703 -0.3983 -0.8346 -2.4435
10386SOL     OW32056   6.926   0.793   0.240  0.0311  0.1195 -0.0936
10386SOL    HW132057   6.895   0.825   0.151  1.1954  0.9225 -0.2385
10386SOL    HW232058   7.026   0.789   0.241 -0.0003 -2.1151  0.4200
10387SOL     OW32059   0.175   2.400   3.699 -0.5815 -0.2095 -0.6436
10387SOL    HW132060   0.089   2.448   3.680  0.6108  1.4620 -2.0191
10387SOL    HW232061   0.236   2.460   3.752  0.0751 -1.0771 -0.3934
10388SOL     OW32062   0.222   4.701   3.637  0.8107  0.2718 -0.7017
10388SOL    HW132063   0.275   4.624   3.675  1.4958 -0.4864 -3.0034
10388SOL    HW232064   0.278   4.784   3.641  0.2924  0.5851  1.2475
10389SOL     OW32065   0.409   6.421   4.323  0.0802  0.0651  0.3475
10389SOL    HW132066   0.470   6.429   4.244  0.2211 -1.0504  0.3261
10389SOL    HW232067   0.344   6.347   4.307  1.1362 -1.2756  1.9194
10390SOL     OW32068   1.547   2.765   2.987  0.0590  0.6030  0.6359
10390SOL    HW132069   1.532   2.683   3.042 -1.5876 -0.7561 -1.6340
10390SOL    HW232070   1.634   2.807   3.013  0.5241 -1.3259  2.5109
10391SOL     OW32071   2.261   5.663   5.802  0.1110 -0.2192 -0.6543
10391SOL    HW132072   2.261   5.759   5.776  0.5337 -0.7037 -2.6229
10391SOL    HW232073   2.180   5.618   5.764 -0.5865 -0.4823  1.0406
10392SOL     OW32074   0.077   5.161   6.531  0.1237  0.3457  0.2824
10392SOL    HW132075   0.111   5.254   6.520 -0.4530  0.7735  1.8482
10392SOL    HW232076  -0.020   5.158   6.507 -0.2400  0.5138  1.6281
10393SOL     OW32077   1.606   2.313   2.465  0.6426 -0.7141  0.2623
10393SOL    HW132078   1.563   2.394   2.505  0.0723 -0.6380 -0.4731
10393SOL    HW232079   1.585   2.309   2.367 -0.9113 -2.7050  0.6046
10394SOL     OW32080   4.736   6.894   2.763 -0.2422  0.0836  0.6913
10394SOL    HW132081   4.651   6.905   2.711  0.8665 -1.0780 -1.5379
10394SOL    HW232082   4.803   6.961   2.732  0.2902 -0.3000  0.9840
10395SOL     OW32083   2.307   6.127   3.864 -0.0121 -1.1276 -0.5108
10395SOL    HW132084   2.360   6.096   3.785  1.4823 -1.4839  0.5902
10395SOL    HW232085   2.359   6.195   3.915 -0.8301 -1.1129  0.3347
10396SOL     OW32086   1.024   6.384   3.806 -0.2066  0.1043  0.4846
10396SOL    HW132087   1.104   6.443   3.821 -1.6395  2.0092  0.9789
10396SOL    HW232088   1.045   6.318   3.733  0.3657  3.5629 -2.7732
10397SOL     OW32089   6.254   3.845   2.886 -0.2737  0.3584  0.0321
10397SOL    HW132090   6.165   3.845   2.932  0.6897  1.8728  2.0889
10397SOL    HW232091   6.271   3.935   2.846  0.3465  0.1055 -0.2868
10398SOL     OW32092   5.546   3.452   2.786 -0.1595  0.0595 -0.3464
10398SOL    HW132093   5.471   3.519   2.789 -0.2415  0.0567 -1.5972
10398SOL    HW232094   5.509   3.363   2.760  0.1577 -0.1466 -0.0918
10399SOL     OW32095   6.977   2.341   4.916  0.2577 -0.7573 -0.6580
10399SOL    HW132096   6.997   2.249   4.950 -0.6540 -1.1532 -1.1408
10399SOL    HW232097   7.037   2.407   4.960 -0.5746 -1.3008  1.4154
10400SOL     OW32098   1.941   4.962   1.021 -0.7827 -0.2146 -0.1537
10400SOL    HW132099   1.877   5.012   1.080  0.8717 -0.6385  2.1174
10400SOL    HW232100   1.924   4.864   1.029 -2.3522 -0.2467 -2.6477
10401SOL     OW32101   2.802   6.997   2.674  0.1133 -0.3001  0.3332
10401SOL    HW132102   2.783   6.935   2.597 -0.4724  0.1316  0.1270
10401SOL    HW232103   2.887   6.968   2.718  0.7175 -0.2739 -0.7636
10402SOL     OW32104   2.214   2.525   4.628  0.0239 -0.4667 -0.1310
10402SOL    HW132105   2.207   2.613   4.675  0.4506 -0.0087 -0.9165
10402SOL    HW232106   2.298   2.480   4.656  0.3760 -0.1053 -0.6008
10403SOL     OW32107   5.858   1.367   3.068 -0.2915 -0.0391  0.6788
10403SOL    HW132108   5.881   1.447   3.124  0.5931 -0.5603  1.0882
10403SOL    HW232109   5.794   1.393   2.997  1.6948  1.5699 -0.6364
10404SOL     OW32110   5.850   5.884   5.443  0.1960 -0.6722  0.0243
10404SOL    HW132111   5.787   5.941   5.391  0.6101  0.8707  1.1404
10404SOL    HW232112   5.886   5.812   5.384 -1.7161 -0.9112 -0.9457
10405SOL     OW32113   3.525   6.813   5.772  0.1421  0.2942  0.1746
10405SOL    HW132114   3.499   6.908   5.759 -1.9981 -0.4836 -2.0469
10405SOL    HW232115   3.447   6.762   5.809  0.8258 -0.8514  0.0896
10406SOL     OW32116   5.915   5.036   4.481 -0.2235 -0.1470  0.2028
10406SOL    HW132117   5.940   4.946   4.445 -0.7598 -0.1515 -0.1712
10406SOL    HW232118   5.945   5.044   4.576 -1.4086 -1.2543  0.6966
10407SOL     OW32119   4.863   1.106   1.101 -0.2976 -0.1144 -0.0652
10407SOL    HW132120   4.866   1.065   1.192 -1.2338 -1.8233 -0.7604
10407SOL    HW232121   4.897   1.200   1.106  1.3605 -0.7337  1.7157
10408SOL     OW32122   3.776   6.268   2.534  0.6007 -0.8232  0.1663
10408SOL    HW132123   3.830   6.209   2.595  0.1162 -1.3441  0.1050
10408SOL    HW232124   3.689   6.223   2.514  0.7490 -0.6567 -0.9054
10409SOL     OW32125   0.133   4.027   3.560  0.9020 -0.4304 -0.6444
10409SOL    HW132126   0.146   4.085   3.640 -0.4189  0.0836 -0.7807
10409SOL    HW232127   0.103   4.083   3.483  0.7710 -1.1298 -1.1085
10410SOL     OW32128   5.763   4.368   6.686  0.2274 -0.0596 -0.3318
10410SOL    HW132129   5.802   4.445   6.736 -1.5757  0.4205  0.4377
10410SOL    HW232130   5.759   4.389   6.589  0.0939  0.6676 -0.1730
10411SOL     OW32131   1.257   3.159   2.677  0.1876 -0.3596  0.0375
10411SOL    HW132132   1.218   3.070   2.654  1.4957 -0.9365 -0.0349
10411SOL    HW232133   1.314   3.151   2.759 -0.8628  0.7450  0.9187
10412SOL     OW32134   1.887   2.926   6.454  0.3057 -0.4764  0.4895
10412SOL    HW132135   1.828   2.994   6.498 -1.2016 -0.5695 -1.2359
10412SOL    HW232136   1.975   2.924   6.499  0.1996  2.2247  1.0027
10413SOL     OW32137   6.775   0.583   3.621 -0.2889 -0.8370  0.4457
10413SOL    HW132138   6.684   0.583   3.578 -0.4725  0.0845  0.8190
10413SOL    HW232139   6.844   0.558   3.554 -0.6027  0.3466 -0.3406
10414SOL     OW32140   4.634   4.442   4.469 -0.2506  0.2667 -0.6684
10414SOL    HW132141   4.609   4.436   4.565 -1.0867  0.2274 -0.8858
10414SOL    HW232142   4.582   4.515   4.425  0.5960  0.7178 -0.9512
10415SOL     OW32143   0.141   6.447   0.874 -0.1357 -0.0388  0.6813
10415SOL    HW132144   0.213   6.515   0.857 -0.7091  0.0035 -2.2375
10415SOL    HW232145   0.182   6.357   0.884  0.3985  0.0039 -0.8178
10416SOL     OW32146   0.550   2.048   0.813  0.1318 -0.1042  0.0430
10416SOL    HW132147   0.640   2.092   0.818  0.0209  0.3269 -1.2759
10416SOL    HW232148   0.545   1.991   0.731 -0.3958 -1.0949  0.7355
10417SOL     OW32149   4.877   4.849   3.462 -0.3946  0.1406  0.2144
10417SOL    HW132150   4.865   4.892   3.373  0.0943  0.3692  0.2574
10417SOL    HW232151   4.811   4.887   3.527  0.9001  1.8420  0.6141
10418SOL     OW32152   4.813   4.243   6.289 -0.5441 -0.4841 -0.4692
10418SOL    HW132153   4.743   4.213   6.224 -0.7113  0.7621 -0.8947
10418SOL    HW232154   4.874   4.166   6.310 -0.9035 -1.0933 -1.5502
10419SOL     OW32155   6.808   6.477   5.078 -0.2393  0.4385 -0.1958
10419SOL    HW132156   6.747   6.543   5.033 -0.8030 -0.3854 -0.6594
10419SOL    HW232157   6.882   6.452   5.016 -0.1265  0.4894 -0.0834
10420SOL     OW32158   5.416   3.957   3.263  0.0453 -0.0220  0.6151
10420SOL    HW132159   5.433   4.054   3.244 -1.2904  0.0365 -0.4126
10420SOL    HW232160   5.321   3.945   3.291 -0.5271 -1.3032 -1.6275
10421SOL     OW32161   1.237   3.016   2.246 -0.4301 -0.0207 -0.6260
10421SOL    HW132162   1.323   2.988   2.289  0.5213  2.2358 -0.9355
10421SOL    HW232163   1.180   2.935   2.230  1.2439 -1.4704  0.3905
10422SOL     OW32164   4.383   2.457   0.532  0.1620 -0.0419 -0.0505
10422SOL    HW132165   4.432   2.383   0.485  1.2826  1.2522 -0.9826
10422SOL    HW232166   4.340   2.421   0.615 -0.2496 -1.9690 -1.0358
10423SOL     OW32167   2.317   5.430   0.468  0.1844  0.4984 -0.0423
10423SOL    HW132168   2.378   5.356   0.497 -1.3715  0.1183  2.6145
10423SOL    HW232169   2.330   5.448   0.371  2.8147 -1.1313 -0.0903
10424SOL     OW32170   5.025   6.354   2.249  0.3727 -0.5032 -0.4346
10424SOL    HW132171   5.123   6.336   2.265  0.1866 -0.7073  0.5628
10424SOL    HW232172   4.985   6.278   2.198 -0.1493 -2.5278  2.7384
10425SOL     OW32173   1.981   3.690   0.673 -0.1258 -0.0030  0.3628
10425SOL    HW132174   2.062   3.661   0.724 -0.8268  0.8956  2.0660
10425SOL    HW232175   1.898   3.669   0.726 -0.9264  0.5271 -0.6297
10426SOL     OW32176   4.513   2.124   1.020 -0.2883 -0.1498  0.4453
10426SOL    HW132177   4.598   2.176   1.012 -0.2875 -0.3622 -1.6902
10426SOL    HW232178   4.517   2.065   1.101  0.7761  1.2246  1.4422
10427SOL     OW32179   6.606   2.711   3.885 -0.0333  0.1589  0.0586
10427SOL    HW132180   6.571   2.712   3.979  2.5811 -0.0111  1.1160
10427SOL    HW232181   6.683   2.774   3.878 -0.3925  0.4153 -2.0973
10428SOL     OW32182   1.081   5.358   5.610 -0.0827 -0.2104  0.2173
10428SOL    HW132183   1.003   5.419   5.616  0.4381  0.5011 -0.2024
10428SOL    HW232184   1.149   5.395   5.548 -0.4340 -1.9846 -1.3274
10429SOL     OW32185   0.955   4.133   3.574 -0.0352 -0.2851  0.2062
10429SOL    HW132186   0.972   4.038   3.602 -2.4770 -0.9271 -0.2504
10429SOL    HW232187   0.937   4.188   3.655 -1.2985 -0.8512  0.3407
10430SOL     OW32188   5.300   1.734   4.594  0.7361 -0.8416 -0.0434
10430SOL    HW132189   5.328   1.673   4.520  1.6883  0.7604 -1.0429
10430SOL    HW232190   5.205   1.762   4.580  1.0191 -0.2773 -0.8512
10431SOL     OW32191   4.261   0.580   3.729  0.6610 -0.0054  0.2016
10431SOL    HW132192   4.198   0.610   3.801 -0.1494  0.0702 -0.5245
10431SOL    HW232193   4.315   0.659   3.699  0.0940  0.2514 -0.1617
10432SOL     OW32194   1.674   4.245   2.867 -0.0437 -0.1403  0.1353
10432SOL    HW132195   1.686   4.325   2.926 -2.1010 -0.2032  0.7000
10432SOL    HW232196   1.743   4.247   2.794  0.8879  1.3264  1.0012
10433SOL     OW32197   4.686   0.133   3.829  0.0527 -0.3384  1.0283
10433SOL    HW132198   4.723   0.055   3.879 -0.1373 -0.4208  1.0405
10433SOL    HW232199   4.744   0.214   3.844  0.6474 -0.6463  0.4612
10434SOL     OW32200   3.171   6.969   1.794  0.7029  0.4004  0.4017
10434SOL    HW132201   3.216   6.885   1.824  1.3845  0.9140  0.8490
10434SOL    HW232202   3.125   6.954   1.707 -0.1318 -0.7476  1.0251
10435SOL     OW32203   1.613   2.603   0.390  0.2853  1.0159  0.1756
10435SOL    HW132204   1.566   2.684   0.425 -0.8060 -0.0940  1.3364
10435SOL    HW232205   1.591   2.524   0.446  1.2818 -0.1285 -0.9783
10436SOL     OW32206   2.543   3.930   5.884 -0.1914 -0.0504  0.2077
10436SOL    HW132207   2.573   4.015   5.840  2.1265  0.3596  2.3599
10436SOL    HW232208   2.481   3.953   5.960  1.4112 -0.1243  1.5749
10437SOL     OW32209   5.948   1.318   4.044 -0.2705 -0.5509 -0.1533
10437SOL    HW132210   5.927   1.415   4.046  0.7531 -0.2810 -1.4637
10437SOL    HW232211   6.042   1.303   4.074 -0.2084 -1.0632 -0.5822
10438SOL     OW32212   1.124   0.181   1.666 -0.3608 -0.2477  0.1388
10438SOL    HW132213   1.196   0.199   1.599  0.5201 -1.8707  0.6022
10438SOL    HW232214   1.067   0.263   1.676  1.2222  0.9791 -0.4652
10439SOL     OW32215   6.865   3.991   5.600  0.1377  0.0204 -0.2059
10439SOL    HW132216   6.801   3.916   5.616  0.6821 -0.3860  0.0921
10439SOL    HW232217   6.940   3.959   5.543 -0.7638  0.9352 -1.9915
10440SOL     OW32218   5.747   3.487   3.006  0.2023  0.3922 -0.1931
10440SOL    HW132219   5.794   3.404   2.978 -0.0194  0.2600 -0.1726
10440SOL    HW232220   5.701   3.527   2.927  1.7423  1.4520 -0.6113
10441SOL     OW32221   5.479   0.539   6.778  0.3381  0.1063 -0.2629
10441SOL    HW132222   5.456   0.448   6.813 -2.7590  1.5056  1.8831
10441SOL    HW232223   5.547   0.582   6.837 -1.0025  0.5116  1.0404
10442SOL     OW32224   2.531   6.976   4.363  0.9187 -0.6730 -0.0626
10442SOL    HW132225   2.469   6.986   4.440  0.2133 -3.3723 -0.1866
10442SOL    HW232226   2.542   7.064   4.317 -2.4972 -0.0051  0.1898
10443SOL     OW32227   0.221   1.153   4.516  0.0928 -0.2025 -0.2433
10443SOL    HW132228   0.180   1.240   4.543  1.7913  0.7144 -0.5402
10443SOL    HW232229   0.243   1.155   4.418  1.4993 -0.3876  0.0472
10444SOL     OW32230   5.837   4.972   4.107  0.3305 -0.4832  0.3644
10444SOL    HW132231   5.866   4.920   4.188  0.3516  0.1996  0.8055
10444SOL    HW232232   5.742   4.951   4.087 -0.0226  0.1805  1.2541
10445SOL     OW32233   1.927   1.859   3.482 -0.0789  0.2866  0.1474
10445SOL    HW132234   2.000   1.894   3.542 -0.4141  1.8348 -0.3119
10445SOL    HW232235   1.869   1.796   3.534  0.0585  1.0561  1.2644
10446SOL     OW32236   2.442   5.703   4.696 -0.2470 -0.0586  0.0786
10446SOL    HW132237   2.395   5.680   4.611 -2.5690 -2.1249  1.7856
10446SOL    HW232238   2.420   5.797   4.723 -1.4627 -0.2021 -0.3801
10447SOL     OW32239   1.243   1.543   2.220  0.3010  0.0308 -0.2496
10447SOL    HW132240   1.252   1.527   2.318 -1.2039 -1.6463 -0.3320
10447SOL    HW232241   1.278   1.634   2.197  2.4452 -0.2617  1.5216
10448SOL     OW32242   0.164   3.656   4.140 -0.4413 -0.2940 -0.3254
10448SOL    HW132243   0.085   3.645   4.200 -1.7279 -2.0747 -2.1615
10448SOL    HW232244   0.139   3.717   4.064  0.2307 -0.1923 -0.4643
10449SOL     OW32245   3.185   5.678   5.215  0.4772  0.5252 -0.0028
10449SOL    HW132246   3.136   5.759   5.183 -1.8734 -1.5378 -1.9890
10449SOL    HW232247   3.121   5.611   5.251  1.8489 -1.8146 -1.5639
10450SOL     OW32248   1.255   3.217   5.181 -0.0818  0.4538  0.4382
10450SOL    HW132249   1.329   3.210   5.115 -1.9044 -2.7637 -1.5695
10450SOL    HW232250   1.293   3.226   5.274  2.8541 -1.5465 -0.4304
10451SOL     OW32251   3.027   0.727   5.086  0.2234  0.6763 -0.4239
10451SOL    HW132252   3.046   0.707   4.990  3.3179  0.3839  0.1340
10451SOL    HW232253   3.111   0.759   5.131 -1.0377  0.5542  2.2572
10452SOL     OW32254   6.340   2.595   5.241 -0.0740 -0.2652 -0.4640
10452SOL    HW132255   6.278   2.673   5.252  1.0712  0.6228 -0.2354
10452SOL    HW232256   6.312   2.542   5.161 -0.4888  0.7384 -1.0026
10453SOL     OW32257   2.510   5.065   4.543 -0.0727 -0.0670  0.4252
10453SOL    HW132258   2.434   5.007   4.513 -0.1463 -0.6238  1.6327
10453SOL    HW232259   2.592   5.042   4.491  0.2520 -2.2615  1.7895
10454SOL     OW32260   0.203   2.363   6.338  0.2088  0.2765  0.9903
10454SOL    HW132261   0.206   2.294   6.411  1.0318  0.3537  1.0454
10454SOL    HW232262   0.265   2.336   6.265 -1.4158 -0.3469 -0.2111
10455SOL     OW32263   0.776   5.997   3.537 -0.0994 -0.1468  0.2370
10455SOL    HW132264   0.758   5.985   3.440  0.9533  2.2977 -0.3417
10455SOL    HW232265   0.690   6.015   3.585 -0.3914  0.9498 -0.6648
10456SOL     OW32266   6.872   6.026   0.122  0.2756  0.2994 -0.6564
10456SOL    HW132267   6.949   6.068   0.073  0.2122 -0.1208 -1.1219
10456SOL    HW232268   6.790   6.031   0.066  0.1505  0.0074 -0.5012
10457SOL     OW32269   3.853   1.288   3.256  0.3382 -0.5283  0.1313
10457SOL    HW132270   3.818   1.194   3.257 -0.9921 -0.0714 -0.8864
10457SOL    HW232271   3.938   1.291   3.205  0.7066 -1.2727  0.6814
10458SOL     OW32272   1.083   0.037   0.419 -0.3291  0.6263 -0.3734
10458SOL    HW132273   1.178   0.008   0.430 -0.4144  0.7328  0.8485
10458SOL    HW232274   1.080   0.122   0.366  0.3148  0.9148  0.0330
10459SOL     OW32275   4.983   6.925   6.340  0.2429  0.6905 -0.5439
10459SOL    HW132276   5.040   6.844   6.353 -1.2490 -0.4218 -0.5715
10459SOL    HW232277   5.035   7.007   6.364  1.0830 -0.4294  1.7954
10460SOL     OW32278   6.747   0.321   6.419 -0.4351  0.0133 -0.1470
10460SOL    HW132279   6.817   0.323   6.348 -1.1630  1.2656 -0.8707
10460SOL    HW232280   6.775   0.260   6.493  1.5185  0.6774 -0.3006
10461SOL     OW32281   6.787   4.604   5.272  0.2083 -0.4035 -0.1613
10461SOL    HW132282   6.688   4.607   5.260  0.2674 -0.2154 -0.6400
10461SOL    HW232283   6.828   4.551   5.198  0.2894 -2.4341  1.2677
10462SOL     OW32284   4.443   3.667   7.019  1.1267 -0.1956  0.5145
10462SOL    HW132285   4.446   3.614   6.934  2.0304  1.4987 -0.5742
10462SOL    HW232286   4.350   3.699   7.035  1.1871  0.5883 -0.5842
10463SOL     OW32287   5.441   1.835   4.009 -0.3100 -0.1428 -0.8247
10463SOL    HW132288   5.458   1.929   4.040  0.2402 -0.2670 -0.7539
10463SOL    HW232289   5.388   1.838   3.924  1.8041  0.3103 -2.2030
10464SOL     OW32290   4.842   5.976   2.556 -0.2136  0.0302 -0.0458
10464SOL    HW132291   4.842   6.075   2.569  0.1295 -0.1665  1.6888
10464SOL    HW232292   4.927   5.938   2.593 -0.3793 -0.9216 -0.6219
10465SOL     OW32293   6.732   3.767   0.305  0.0121 -0.1923 -0.4965
10465SOL    HW132294   6.653   3.786   0.247 -0.5806  0.6036  0.5326
10465SOL    HW232295   6.802   3.719   0.252 -1.4405 -1.5833 -1.2437
10466SOL     OW32296   4.824   3.351   0.616  0.1872  0.0459 -0.6321
10466SOL    HW132297   4.733   3.331   0.577  0.0491 -2.5644  0.7945
10466SOL    HW232298   4.815   3.366   0.714  1.2549  0.4448 -0.5866
10467SOL     OW32299   1.692   2.014   6.190  0.0989  0.0719  1.0282
10467SOL    HW132300   1.632   2.069   6.131  1.3366  0.0144 -0.3323
10467SOL    HW232301   1.639   1.940   6.231 -0.8711  0.2880  0.2175
10468SOL     OW32302   2.083   4.017   3.694  0.1920 -0.6649 -0.4282
10468SOL    HW132303   2.099   3.921   3.670 -0.8557 -0.8767 -0.3061
10468SOL    HW232304   1.995   4.047   3.656 -0.7528 -0.5303  1.7550
10469SOL     OW32305   2.219   2.010   6.103  0.2906 -0.3335  0.0056
10469SOL    HW132306   2.212   1.917   6.069  1.0320 -0.5509  0.4221
10469SOL    HW232307   2.218   2.074   6.026  2.5913 -0.8505 -0.5260
10470SOL     OW32308   1.198   3.714   3.428  0.0169 -1.0310 -0.7180
10470SOL    HW132309   1.212   3.617   3.409  0.8822 -0.8713 -0.9472
10470SOL    HW232310   1.256   3.769   3.367 -1.8843 -0.2893 -1.9590
10471SOL     OW32311   0.794   5.462   6.539 -0.2245 -0.1881 -0.7602
10471SOL    HW132312   0.716   5.433   6.595 -0.3345  0.0319 -0.7959
10471SOL    HW232313   0.826   5.386   6.484 -1.4714  0.1329 -1.9938
10472SOL     OW32314   1.851   5.743   1.252  0.4284 -0.1654  0.0531
10472SOL    HW132315   1.846   5.652   1.293  1.8209 -0.8993 -1.3205
10472SOL    HW232316   1.930   5.792   1.288  0.4979 -0.0484 -0.2570
10473SOL     OW32317   6.810   5.768   1.404 -0.0452  0.5295 -0.0733
10473SOL    HW132318   6.874   5.837   1.369  0.9945 -0.9545 -1.1997
10473SOL    HW232319   6.726   5.814   1.432  0.2979  2.1915 -1.5140
10474SOL     OW32320   3.335   6.458   4.508 -0.8266  0.0733  0.3811
10474SOL    HW132321   3.314   6.424   4.599  1.4335  0.2802  1.0399
10474SOL    HW232322   3.394   6.538   4.515  0.5056 -0.6935 -1.2563
10475SOL     OW32323   6.511   6.451   1.069  0.5525 -0.4440 -0.1965
10475SOL    HW132324   6.597   6.502   1.066  0.5830 -0.5323 -1.2526
10475SOL    HW232325   6.493   6.412   0.979 -0.5459 -0.5129  0.0428
10476SOL     OW32326   4.938   4.417   6.743  0.1189 -0.2283 -0.3930
10476SOL    HW132327   5.030   4.393   6.773 -1.1804 -2.3384  2.3118
10476SOL    HW232328   4.924   4.515   6.754  1.4186 -0.1646  1.0472
10477SOL     OW32329   6.640   5.873   3.883  1.0213 -0.5347  0.5687
10477SOL    HW132330   6.715   5.807   3.878  0.4693 -1.1407  0.2130
10477SOL    HW232331   6.604   5.875   3.976  1.2952 -0.4500  0.6729
10478SOL     OW32332   6.804   0.931   1.483 -0.2112 -0.4671 -0.0218
10478SOL    HW132333   6.817   0.991   1.562  1.7401 -0.8024 -0.0443
10478SOL    HW232334   6.840   0.840   1.503 -1.5743 -1.1660 -0.6016
10479SOL     OW32335   1.622   5.507   3.241  0.1149  0.0489  0.6700
10479SOL    HW132336   1.717   5.474   3.234  1.0614  2.6883  0.1938
10479SOL    HW232337   1.574   5.489   3.156  0.4538 -0.5013  0.5901
10480SOL     OW32338   3.861   1.550   3.516 -0.1024 -0.4255 -0.2200
10480SOL    HW132339   3.805   1.479   3.559  1.3452 -1.7469 -0.4235
10480SOL    HW232340   3.908   1.603   3.586  1.4967 -1.9460 -0.0829
10481SOL     OW32341   4.154   0.282   0.731 -0.3275 -0.0718 -0.3803
10481SOL    HW132342   4.234   0.274   0.791  0.6119  0.8459 -1.4686
10481SOL    HW232343   4.174   0.347   0.658 -0.8700 -2.2275 -2.5809
10482SOL     OW32344   4.494   5.997   3.696  0.3145  0.1790  0.6332
10482SOL    HW132345   4.401   6.034   3.704  0.2279  0.0276  0.3390
10482SOL    HW232346   4.493   5.918   3.635  0.7396  0.5435  0.1459
10483SOL     OW32347   6.743   6.765   6.692 -0.1774  0.2956 -0.6694
10483SOL    HW132348   6.835   6.783   6.727 -0.5309  0.8557  0.0055
10483SOL    HW232349   6.716   6.672   6.714 -0.4684  0.6990  0.7664
10484SOL     OW32350   6.145   0.806   2.527  0.2433  0.1020  0.3614
10484SOL    HW132351   6.046   0.804   2.513  0.3682  1.7030 -1.0438
10484SOL    HW232352   6.182   0.713   2.519 -0.8529 -0.2312 -1.4587
10485SOL     OW32353   4.877   3.411   5.784  0.2947 -0.1710 -0.3853
10485SOL    HW132354   4.843   3.379   5.695 -0.1806  2.8709 -1.3962
10485SOL    HW232355   4.963   3.461   5.771 -1.2271  2.8448  0.3398
10486SOL     OW32356   5.087   4.226   2.285  0.0198 -0.1437 -0.0154
10486SOL    HW132357   5.000   4.194   2.249  0.5752 -0.2390 -1.3025
10486SOL    HW232358   5.104   4.183   2.374 -3.0141  2.7196  2.2111
10487SOL     OW32359   3.624   5.637   2.200 -0.3091 -0.3520  0.2098
10487SOL    HW132360   3.710   5.633   2.150 -0.4872 -0.8842 -0.0629
10487SOL    HW232361   3.572   5.553   2.185 -0.0845 -0.8178  1.8031
10488SOL     OW32362   5.162   2.448   0.184 -0.1095 -0.1100 -0.0655
10488SOL    HW132363   5.169   2.363   0.236  1.2930  1.1108  1.8402
10488SOL    HW232364   5.114   2.517   0.238  0.8362  1.0133 -0.6134
10489SOL     OW32365   0.249   5.147   4.591  0.1644 -0.0745 -0.0331
10489SOL    HW132366   0.298   5.062   4.614  0.6611  0.3190  0.3798
10489SOL    HW232367   0.150   5.133   4.603  0.2088 -0.7116 -0.3577
10490SOL     OW32368   6.426   0.981   3.352  0.1345 -0.2787 -0.3747
10490SOL    HW132369   6.524   1.000   3.350 -0.2257  1.9302  0.2014
10490SOL    HW232370   6.382   1.021   3.272 -0.2495 -1.7696 -0.9403
10491SOL     OW32371   6.638   3.097   4.185 -0.1250  0.0647  0.0069
10491SOL    HW132372   6.638   3.085   4.086 -1.2804  1.6956 -0.2271
10491SOL    HW232373   6.605   3.014   4.229 -0.8640 -0.2149 -1.0457
10492SOL     OW32374   6.542   4.598   6.556  1.0241 -0.1766 -0.6024
10492SOL    HW132375   6.502   4.683   6.520 -1.5233 -0.3864  1.4616
10492SOL    HW232376   6.548   4.604   6.656  2.2904 -1.8487 -0.5469
10493SOL     OW32377   2.812   1.286   0.013  0.1592  0.0006  0.3679
10493SOL    HW132378   2.784   1.379   0.036  0.2613  0.1617 -0.1488
10493SOL    HW232379   2.796   1.226   0.092 -0.7492  0.2726  0.4028
10494SOL     OW32380   6.647   1.006   2.948 -0.7594 -0.5185 -0.1851
10494SOL    HW132381   6.706   0.995   3.028 -0.7954 -1.3212 -0.2605
10494SOL    HW232382   6.702   1.038   2.871 -0.5173 -0.7697 -0.1186
10495SOL     OW32383   1.313   4.811   5.104 -0.0994 -0.0813  0.0389
10495SOL    HW132384   1.348   4.899   5.136 -0.2395  0.4192 -1.1247
10495SOL    HW232385   1.323   4.806   5.004 -0.6316 -1.1407  0.0297
10496SOL     OW32386   0.696   0.390   5.535  0.0265  0.5784 -0.4697
10496SOL    HW132387   0.760   0.419   5.607  0.3815 -1.8166  0.2629
10496SOL    HW232388   0.717   0.297   5.507 -0.9386  0.9902 -2.8070
10497SOL     OW32389   3.984   0.058   0.828 -0.2230  0.6197 -0.3449
10497SOL    HW132390   4.044   0.136   0.846  0.6046  0.1125 -0.8750
10497SOL    HW232391   4.027  -0.003   0.762 -0.9529 -0.1896 -0.0891
10498SOL     OW32392   3.602   6.562   1.050 -1.0950 -0.3666 -0.4764
10498SOL    HW132393   3.556   6.473   1.054  0.5069 -1.1983  0.3783
10498SOL    HW232394   3.700   6.550   1.068 -0.4067  1.2717 -2.7193
10499SOL     OW32395   2.467   5.241   2.458  0.6131 -0.3976 -0.0369
10499SOL    HW132396   2.453   5.180   2.379 -0.7835  0.3177 -0.3811
10499SOL    HW232397   2.444   5.192   2.542 -0.6686 -0.3312 -0.3253
10500SOL     OW32398   0.744   6.396   5.998 -0.6205  0.3032 -0.3016
10500SOL    HW132399   0.686   6.437   5.928 -1.0641  1.0971  0.5110
10500SOL    HW232400   0.840   6.411   5.974 -0.7755  1.7120 -0.0990
10501SOL     OW32401   1.593   2.490   3.537  0.7208 -0.1912  0.3460
10501SOL    HW132402   1.564   2.445   3.621 -0.0637  3.2585  2.1093
10501SOL    HW232403   1.512   2.511   3.481  1.0284 -0.5182 -0.2378
10502SOL     OW32404   3.843   6.416   3.073  0.0341 -0.1251  0.0638
10502SOL    HW132405   3.878   6.483   3.138  1.4869 -0.5902 -0.2094
10502SOL    HW232406   3.744   6.406   3.086 -0.2320  2.0138  0.1426
10503SOL     OW32407   3.484   3.545   6.150 -0.4629  0.0342  0.1919
10503SOL    HW132408   3.522   3.632   6.119  0.7634 -0.8854 -1.0027
10503SOL    HW232409   3.400   3.562   6.201 -0.1198  1.9259  0.2157
10504SOL     OW32410   1.022   0.547   1.353  0.1971 -0.0403  0.6315
10504SOL    HW132411   1.009   0.599   1.269 -2.0489  0.2871  1.1237
10504SOL    HW232412   0.936   0.503   1.379  1.3324 -1.7399  1.7312
10505SOL     OW32413   1.592   3.887   1.522 -0.0775 -0.3478 -0.1675
10505SOL    HW132414   1.571   3.922   1.431  1.9445  2.1697  0.2094
10505SOL    HW232415   1.508   3.864   1.570 -1.3076  0.4106 -1.8704
10506SOL     OW32416   0.153   6.180   5.258 -0.1169 -0.0676 -0.1919
10506SOL    HW132417   0.194   6.162   5.169  1.8035  3.6123 -0.2414
10506SOL    HW232418   0.224   6.184   5.328 -1.2791 -0.3092  1.0585
10507SOL     OW32419   1.358   0.601   4.138 -0.4137 -0.0237 -0.0431
10507SOL    HW132420   1.383   0.534   4.208  2.5561  0.1253 -0.8425
10507SOL    HW232421   1.366   0.559   4.048  2.6849  1.5488 -0.6527
10508SOL     OW32422   6.538   4.954   5.655  0.1632  0.4518  0.7784
10508SOL    HW132423   6.524   4.861   5.619  1.1777  0.9746 -1.1352
10508SOL    HW232424   6.489   4.964   5.742  0.1355 -1.8937  1.0989
10509SOL     OW32425   1.934   1.363   6.267  0.5967  0.1678  0.4788
10509SOL    HW132426   1.889   1.320   6.189  0.3853  2.0017 -0.4696
10509SOL    HW232427   1.913   1.313   6.350  1.1246 -2.0701 -0.6660
10510SOL     OW32428   5.625   0.367   4.597 -0.1020  0.0330 -0.3950
10510SOL    HW132429   5.573   0.449   4.619 -0.5089 -0.3142 -0.0330
10510SOL    HW232430   5.722   0.388   4.597 -0.2614  0.8489 -1.7756
10511SOL     OW32431   5.856   3.070   1.983  0.4617  0.2369 -0.0148
10511SOL    HW132432   5.945   3.064   1.938  0.8397  2.5634  0.2905
10511SOL    HW232433   5.799   3.136   1.933 -0.4124  0.1446  0.8409
10512SOL     OW32434   1.457   1.092   1.083 -0.2600 -0.4917  0.5715
10512SOL    HW132435   1.380   1.102   1.147 -1.3498  0.2782 -0.7893
10512SOL    HW232436   1.426   1.045   1.001  0.5727  0.3006 -0.2282
10513SOL     OW32437   0.783   1.266   6.682  0.2200  0.0939  0.0453
10513SOL    HW132438   0.817   1.245   6.591 -0.1334 -0.6781  0.0837
10513SOL    HW232439   0.844   1.227   6.751 -0.0412 -0.1726  0.1283
10514SOL     OW32440   2.552   3.224   1.311  0.2227  0.1556  0.8914
10514SOL    HW132441   2.465   3.191   1.347  0.6545 -1.8636  0.1679
10514SOL    HW232442   2.624   3.207   1.378  0.6097 -1.3335  0.1256
10515SOL     OW32443   6.486   3.521   4.778  0.1138 -0.1784  0.1034
10515SOL    HW132444   6.494   3.556   4.872 -0.6829 -0.1182  0.1509
10515SOL    HW232445   6.392   3.493   4.761  0.5310 -1.4463 -0.2375
10516SOL     OW32446   2.331   6.620   0.605  0.3205 -0.0882  0.3159
10516SOL    HW132447   2.305   6.717   0.608  0.3130 -0.0990  0.5658
10516SOL    HW232448   2.250   6.563   0.617  0.1979 -0.1345 -0.6482
10517SOL     OW32449   1.285   2.730   3.133 -0.0063  0.0981 -0.1063
10517SOL    HW132450   1.271   2.640   3.093  0.9733 -0.5663  0.9836
10517SOL    HW232451   1.362   2.776   3.089  0.2972 -0.1283  0.1844
10518SOL     OW32452   0.544   5.788   3.693  0.3153  0.0432 -0.2395
10518SOL    HW132453   0.583   5.840   3.769 -1.0625 -0.9790  1.2148
10518SOL    HW232454   0.511   5.852   3.623 -0.0718  1.0894  0.8625
10519SOL     OW32455   3.838   3.642   4.905 -0.0837  0.0920 -0.0372
10519SOL    HW132456   3.884   3.578   4.844 -0.6492 -0.8607  0.5264
10519SOL    HW232457   3.906   3.687   4.964  0.2628 -0.2904 -0.1427
10520SOL     OW32458   2.871   5.817   0.716  0.3097 -0.6832  0.1144
10520SOL    HW132459   2.801   5.887   0.698  0.3564 -0.7599 -0.3866
10520SOL    HW232460   2.960   5.851   0.684  1.1012  0.6359  3.3422
10521SOL     OW32461   6.150   5.541   0.824  0.1767  0.6489  0.2758
10521SOL    HW132462   6.205   5.624   0.812  1.1077  0.0638  0.3392
10521SOL    HW232463   6.207   5.470   0.866 -0.2800 -0.3520 -0.7428
10522SOL     OW32464   6.401   2.113   3.233  0.2158  0.6161  0.0773
10522SOL    HW132465   6.493   2.076   3.241  0.2006  0.6223  0.2887
10522SOL    HW232466   6.399   2.206   3.271 -0.4835 -0.3661  2.6979
10523SOL     OW32467   4.282   4.861   6.848  0.3636  0.0385  0.6600
10523SOL    HW132468   4.345   4.784   6.852  1.4230  0.8632  0.4197
10523SOL    HW232469   4.326   4.938   6.801 -0.8552  0.6173  0.4253
10524SOL     OW32470   4.856   0.496   4.367  0.2829  0.1668 -0.5344
10524SOL    HW132471   4.768   0.461   4.335 -0.3322  0.7399  0.4651
10524SOL    HW232472   4.907   0.534   4.289 -0.0906 -0.6943 -1.2173
10525SOL     OW32473   2.690   6.682   5.653 -0.2797 -0.2485  0.0563
10525SOL    HW132474   2.725   6.773   5.630 -0.7656  0.1371  0.8068
10525SOL    HW232475   2.686   6.626   5.570  0.5123  0.2411 -0.3240
10526SOL     OW32476   3.169   5.547   4.003 -0.3638 -0.5011  0.7487
10526SOL    HW132477   3.213   5.465   3.967  0.1318 -0.0324  0.2742
10526SOL    HW232478   3.237   5.620   4.011 -1.4316  0.9602 -2.1429
10527SOL     OW32479   1.690   0.600   4.107  0.4630  0.1414  0.4542
10527SOL    HW132480   1.733   0.519   4.068  0.6212 -0.0555  1.0206
10527SOL    HW232481   1.592   0.600   4.084  1.0828  1.6919 -2.6487
10528SOL     OW32482   5.401   2.432   5.802 -0.1867 -0.2935  0.0184
10528SOL    HW132483   5.444   2.504   5.748  1.1092 -1.2515 -0.2820
10528SOL    HW232484   5.387   2.464   5.896  0.1768  0.4082 -0.1667
10529SOL     OW32485   6.981   5.818   4.631  0.2876 -0.0632 -0.6102
10529SOL    HW132486   7.059   5.774   4.676  0.0450  1.2986  1.2572
10529SOL    HW232487   7.015   5.895   4.575  0.4084 -0.4601 -1.0892
10530SOL     OW32488   2.802   1.356   4.656  0.0588  0.0744 -0.3921
10530SOL    HW132489   2.846   1.429   4.709  0.9337 -0.6975 -0.0069
10530SOL    HW232490   2.719   1.391   4.613 -0.2996  0.9223  0.9188
10531SOL     OW32491   4.113   2.130   5.074 -0.0980 -0.5486  0.3620
10531SOL    HW132492   4.059   2.097   5.151  0.2850 -2.6424 -0.2242
10531SOL    HW232493   4.089   2.225   5.055 -2.7524 -1.0683  0.8215
10532SOL     OW32494   3.881   3.929   3.848  0.8182 -0.2472 -0.3964
10532SOL    HW132495   3.919   3.912   3.939 -0.3304 -2.4526 -0.2588
10532SOL    HW232496   3.950   3.907   3.779  1.0507 -0.5085 -0.0860
10533SOL     OW32497   5.021   1.474   6.083  0.9805  0.0824 -0.4651
10533SOL    HW132498   5.003   1.449   5.988  0.5851 -0.4227 -0.2589
10533SOL    HW232499   5.023   1.574   6.091  0.8853  0.1288 -0.9747
10534SOL     OW32500   6.430   4.818   2.899  0.1955  0.4164 -0.0952
10534SOL    HW132501   6.350   4.875   2.919 -1.1890 -1.2189 -0.7626
10534SOL    HW232502   6.444   4.753   2.974 -1.1202 -1.4366 -1.3495
10535SOL     OW32503   6.842   2.416   2.581  0.1526 -0.4300  0.0030
10535SOL    HW132504   6.783   2.347   2.538 -1.1722  0.1566  0.7888
10535SOL    HW232505   6.917   2.439   2.520 -1.7570  0.5296 -2.1270
10536SOL     OW32506   4.875   5.615   3.348  0.4755 -0.2659  0.0964
10536SOL    HW132507   4.797   5.571   3.304 -1.4097  1.8975  1.0273
10536SOL    HW232508   4.862   5.615   3.447  1.6014  0.2300  0.2614
10537SOL     OW32509   6.154   6.732   1.491  0.2344  0.2264  0.5108
10537SOL    HW132510   6.100   6.815   1.477 -1.0284 -0.5997  0.3917
10537SOL    HW232511   6.251   6.757   1.501  0.2408  1.5452 -1.9563
10538SOL     OW32512   4.423   3.951   5.850 -0.4971  0.2657 -0.6150
10538SOL    HW132513   4.382   4.041   5.870 -0.2952  0.0849  0.6719
10538SOL    HW232514   4.383   3.915   5.766 -0.6397  1.5275 -1.1117
10539SOL     OW32515   1.861   2.233   5.816  0.2962 -0.3901 -0.5188
10539SOL    HW132516   1.814   2.311   5.859  2.0058  0.3423  0.1402
10539SOL    HW232517   1.888   2.168   5.887  0.7052 -0.5407 -0.8086
10540SOL     OW32518   1.390   0.875   0.380  0.1194 -0.3222  0.2888
10540SOL    HW132519   1.425   0.846   0.290  1.3531  1.7865  0.0205
10540SOL    HW232520   1.371   0.973   0.378 -1.7060 -0.6088  1.7939
10541SOL     OW32521   4.412   1.464   0.708 -0.2432 -0.2127  0.3668
10541SOL    HW132522   4.397   1.374   0.750 -1.1373 -0.3964 -0.3065
10541SOL    HW232523   4.324   1.505   0.685  0.1827 -0.3744 -1.8207
10542SOL     OW32524   2.486   0.894   0.749 -0.3462  0.3783 -0.0355
10542SOL    HW132525   2.518   0.978   0.706  2.2971 -0.2815  0.4861
10542SOL    HW232526   2.409   0.857   0.696 -0.6664  2.3583 -1.0598
10543SOL     OW32527   0.973   0.384   4.648 -0.1061  0.2956  0.4303
10543SOL    HW132528   0.996   0.467   4.599  2.7333 -0.8882 -0.4776
10543SOL    HW232529   0.952   0.311   4.583  1.6612 -0.7555  0.9508
10544SOL     OW32530   7.007   0.468   2.726 -0.4189 -0.4075 -0.3936
10544SOL    HW132531   7.079   0.474   2.656  1.6518 -0.0289  1.6526
10544SOL    HW232532   6.993   0.372   2.752 -0.0357 -0.4096 -0.1934
10545SOL     OW32533   3.674   5.866   3.793 -0.8102  0.1310  0.2583
10545SOL    HW132534   3.650   5.898   3.884 -2.0317  0.7854 -0.2562
10545SOL    HW232535   3.751   5.804   3.798  1.5241  2.8946  1.3600
10546SOL     OW32536   5.032   1.793   4.544  0.3137  0.4598  0.4810
10546SOL    HW132537   5.015   1.891   4.558 -0.8800  0.0681  2.0160
10546SOL    HW232538   4.954   1.740   4.577  1.5329 -1.0874  1.0215
10547SOL     OW32539   5.189   5.398   2.730 -0.2915  0.4729 -0.5500
10547SOL    HW132540   5.181   5.298   2.732 -2.6355  0.5993 -0.9211
10547SOL    HW232541   5.285   5.423   2.724  0.4525 -1.7154  0.9233
10548SOL     OW32542   3.334   5.017   4.070 -0.1034  0.2352 -0.2445
10548SOL    HW132543   3.422   4.969   4.073 -0.5474 -0.6606 -1.1100
10548SOL    HW232544   3.267   4.966   4.124  0.0057  1.1738  0.8195
10549SOL     OW32545   0.096   3.229   1.682  0.2720 -0.8909  0.2910
10549SOL    HW132546  -0.004   3.216   1.682  0.0632  0.4923  1.4249
10549SOL    HW232547   0.123   3.280   1.601 -0.1984  0.2845  0.8504
10550SOL     OW32548   4.581   0.260   5.460  0.1713  0.4083 -0.2241
10550SOL    HW132549   4.547   0.254   5.367 -0.1248 -0.2068 -0.0818
10550SOL    HW232550   4.638   0.181   5.480 -1.1837 -0.3878  0.6712
10551SOL     OW32551   2.811   1.631   6.962  0.0173  0.7463 -0.1185
10551SOL    HW132552   2.768   1.620   6.872  0.0102  0.4388 -0.0781
10551SOL    HW232553   2.810   1.727   6.987 -1.8246  0.6190  0.4416
10552SOL     OW32554   2.915   0.238   4.656 -0.3067  0.3727 -0.3277
10552SOL    HW132555   2.903   0.197   4.746 -0.6906 -1.6481 -1.2354
10552SOL    HW232556   2.831   0.286   4.629 -1.3626 -1.6448 -0.8280
10553SOL     OW32557   2.898   4.644   6.986 -0.3631  0.1670  0.0799
10553SOL    HW132558   2.803   4.672   6.975 -0.5960  0.0505  1.6272
10553SOL    HW232559   2.906   4.547   6.964 -0.1130  0.6730 -2.3704
10554SOL     OW32560   0.536   3.140   5.424  0.0891  0.0980  0.0581
10554SOL    HW132561   0.517   3.221   5.369 -1.0135 -0.5392 -0.5504
10554SOL    HW232562   0.504   3.059   5.376 -1.3231 -0.4568  1.8079
10555SOL     OW32563   3.881   2.576   0.060  0.5403 -0.0870 -0.6983
10555SOL    HW132564   3.936   2.571  -0.024 -1.1637 -1.0184 -1.8178
10555SOL    HW232565   3.933   2.623   0.131  2.5897 -0.5041 -1.8330
10556SOL     OW32566   3.998   6.045   3.689 -0.3268 -0.4114  0.2921
10556SOL    HW132567   3.900   6.052   3.670  0.3285  2.0451 -3.3976
10556SOL    HW232568   4.026   5.950   3.682 -2.1173 -0.9060 -1.2421
10557SOL     OW32569   5.767   2.634   2.209  0.0312  0.1509  0.1092
10557SOL    HW132570   5.763   2.679   2.120  0.6054  2.8861  1.3887
10557SOL    HW232571   5.858   2.595   2.222  1.0750  2.6287  0.7456
10558SOL     OW32572   4.519   4.328   5.615 -0.6701 -0.0196  0.4148
10558SOL    HW132573   4.599   4.322   5.557 -0.4172  1.1492  0.6209
10558SOL    HW232574   4.449   4.265   5.582  0.1605 -0.7317 -0.0219
10559SOL     OW32575   3.973   0.712   1.874 -0.2006  0.2609  0.2362
10559SOL    HW132576   4.014   0.803   1.879 -1.4303  0.8498 -0.1217
10559SOL    HW232577   3.931   0.689   1.961  3.0472 -1.4581  1.5343
10560SOL     OW32578   0.870   2.288   4.860 -0.2527 -0.1995 -0.0596
10560SOL    HW132579   0.961   2.317   4.890  0.6724 -2.3147 -0.6144
10560SOL    HW232580   0.813   2.269   4.940  0.0434  0.4151  0.3028
10561SOL     OW32581   1.681   4.672   6.757  0.7596 -0.0109 -0.1847
10561SOL    HW132582   1.628   4.592   6.728  0.4608  0.1667 -0.1327
10561SOL    HW232583   1.621   4.737   6.803  1.3825 -0.6777  1.6607
10562SOL     OW32584   3.543   0.476   6.668 -0.3661  0.6332  0.0168
10562SOL    HW132585   3.459   0.526   6.645 -0.3486  0.5324 -0.2746
10562SOL    HW232586   3.524   0.378   6.665 -0.2050  0.6077 -0.1783
10563SOL     OW32587   3.860   2.150   4.559 -0.0014  0.1666  0.2091
10563SOL    HW132588   3.936   2.215   4.568  0.4430 -0.3588  0.3342
10563SOL    HW232589   3.878   2.071   4.617 -1.3241  0.6539  1.3319
10564SOL     OW32590   0.617   1.749   2.427  0.1243  0.2637  0.2854
10564SOL    HW132591   0.519   1.768   2.426  0.6791  4.2212  0.9709
10564SOL    HW232592   0.656   1.765   2.336  0.2172 -1.0024  0.0854
10565SOL     OW32593   5.113   1.045   5.308  0.2975  0.5228  0.0747
10565SOL    HW132594   5.055   1.126   5.299 -1.0735 -0.4875 -0.5943
10565SOL    HW232595   5.067   0.977   5.365  0.0149 -0.9471 -1.7883
10566SOL     OW32596   4.888   6.282   5.838  0.1066 -0.1417 -0.6822
10566SOL    HW132597   4.827   6.336   5.896  0.9614 -0.0255  0.1112
10566SOL    HW232598   4.848   6.191   5.823  0.3556 -0.5343  0.9356
10567SOL     OW32599   1.943   0.877   3.880  0.3095  0.5149  0.2640
10567SOL    HW132600   1.943   0.954   3.816 -1.4751  0.7685  0.5224
10567SOL    HW232601   2.019   0.887   3.944 -0.0363  2.2086  0.4540
10568SOL     OW32602   5.022   1.502   3.810  0.1585  0.5270  0.1610
10568SOL    HW132603   5.072   1.499   3.896  3.2508 -0.5423 -1.5201
10568SOL    HW232604   4.965   1.421   3.801  0.7069  0.0789  0.6939
10569SOL     OW32605   4.807   1.675   3.595  0.2946  0.1281  0.4473
10569SOL    HW132606   4.765   1.584   3.597  2.5484 -0.9735  1.7342
10569SOL    HW232607   4.801   1.712   3.502 -0.6322 -1.3451 -0.1243
10570SOL     OW32608   1.051   1.629   2.444  0.1856  0.6678  0.6243
10570SOL    HW132609   0.967   1.630   2.499 -1.0782 -0.1297 -1.1986
10570SOL    HW232610   1.028   1.641   2.348  2.1031 -0.3595 -0.0147
10571SOL     OW32611   0.089   6.313   4.681  0.0649  0.4563  0.1306
10571SOL    HW132612   0.070   6.341   4.586 -0.7493  0.8256  0.3922
10571SOL    HW232613   0.177   6.265   4.684 -0.6173 -0.9416 -1.0699
10572SOL     OW32614   5.246   2.447   5.294 -0.0028  0.5398  0.3731
10572SOL    HW132615   5.252   2.481   5.200 -2.4920  1.2970  0.4150
10572SOL    HW232616   5.289   2.357   5.300  2.2362  1.4409 -0.9173
10573SOL     OW32617   6.294   4.614   4.500 -0.3390 -0.5816 -0.0598
10573SOL    HW132618   6.295   4.575   4.408  0.0425  0.3653 -0.4703
10573SOL    HW232619   6.245   4.701   4.498  0.8749  0.1283  0.3324
10574SOL     OW32620   5.918   3.735   2.239 -0.6446 -0.2258 -0.3744
10574SOL    HW132621   5.944   3.647   2.199  0.7848  0.3245 -0.7259
10574SOL    HW232622   5.820   3.750   2.226 -0.8290 -1.5531 -0.7050
10575SOL     OW32623   0.169   0.634   3.588  0.3971  0.1297 -0.0797
10575SOL    HW132624   0.245   0.696   3.567 -0.3029  0.5509 -1.4589
10575SOL    HW232625   0.082   0.680   3.570 -0.3357  0.3722  3.3764
10576SOL     OW32626   0.358   6.484   3.073 -0.0741  0.3094  0.1103
10576SOL    HW132627   0.359   6.428   3.155  2.8213 -0.5062 -0.3912
10576SOL    HW232628   0.379   6.428   2.993 -0.7430  1.4770 -0.9392
10577SOL     OW32629   1.777   2.177   5.227  0.1044  0.3562 -0.4450
10577SOL    HW132630   1.856   2.228   5.192  0.8217 -1.1483 -1.1084
10577SOL    HW232631   1.693   2.216   5.189  0.4613  2.2155  0.5604
10578SOL     OW32632   4.664   0.751   5.570  0.4283 -0.1702  0.1261
10578SOL    HW132633   4.607   0.676   5.536 -0.4615  0.6684 -0.2822
10578SOL    HW232634   4.760   0.721   5.574 -0.0425 -1.6329  0.9267
10579SOL     OW32635   3.368   6.055   6.419  0.3562  0.0333 -0.1909
10579SOL    HW132636   3.442   6.095   6.472 -1.0113  0.0786  1.7633
10579SOL    HW232637   3.344   5.965   6.457 -0.7123  0.0899 -0.6827
10580SOL     OW32638   2.144   2.883   6.548  0.1331 -0.5759 -0.2676
10580SOL    HW132639   2.096   2.901   6.634 -0.2515  0.2480 -0.6386
10580SOL    HW232640   2.242   2.889   6.563  0.0725 -0.6005  0.1518
10581SOL     OW32641   5.126   4.060   2.520  0.6360  0.2104  0.4225
10581SOL    HW132642   5.186   4.097   2.591 -1.7341  0.0374  2.6542
10581SOL    HW232643   5.148   3.964   2.503  0.4757 -0.0929  1.8346
10582SOL     OW32644   4.897   2.041   0.463 -0.6497 -0.6791 -0.3070
10582SOL    HW132645   4.949   2.001   0.538  1.9580  0.8521 -1.2023
10582SOL    HW232646   4.884   2.139   0.479  2.3621  0.3071 -2.9728
10583SOL     OW32647   6.125   6.245   1.370 -0.4224 -0.1870 -0.0233
10583SOL    HW132648   6.160   6.151   1.364  1.9687  0.5463  1.2316
10583SOL    HW232649   6.099   6.277   1.279 -0.2162 -1.6801 -0.6365
10584SOL     OW32650   4.014   5.684   0.869 -0.1265  0.6339 -0.6206
10584SOL    HW132651   4.096   5.647   0.913 -1.2264  1.3937  2.2525
10584SOL    HW232652   3.946   5.612   0.859  0.4271  0.2570 -2.0280
10585SOL     OW32653   4.912   3.824   0.108 -0.3925  0.0793  0.2995
10585SOL    HW132654   4.972   3.894   0.071 -1.7233  0.7664 -0.6345
10585SOL    HW232655   4.817   3.843   0.082 -1.1407 -0.5773  2.3121
10586SOL     OW32656   3.220   2.087   3.189  0.4502  0.1652  0.1538
10586SOL    HW132657   3.175   2.164   3.235  1.3457  0.1722  1.0465
10586SOL    HW232658   3.263   2.029   3.258  0.8729 -0.4378 -0.6154
10587SOL     OW32659   0.329   1.158   6.850 -0.3942  0.5970  0.0467
10587SOL    HW132660   0.274   1.074   6.852 -1.6071  1.3871  1.3401
10587SOL    HW232661   0.300   1.219   6.924  0.0549  2.4213 -1.2081
10588SOL     OW32662   3.306   6.075   2.928  0.4067 -0.4143  0.0244
10588SOL    HW132663   3.216   6.069   2.971  0.9470  1.8754  1.6658
10588SOL    HW232664   3.377   6.068   2.999  1.4068  1.0327 -0.7973
10589SOL     OW32665   6.708   0.940   4.898 -0.7271 -0.1276  0.1859
10589SOL    HW132666   6.648   1.007   4.941 -0.2022  0.4425  0.0392
10589SOL    HW232667   6.682   0.928   4.802  0.5975  1.5992 -0.4400
10590SOL     OW32668   0.537   5.859   4.001 -0.6766  0.5411  0.1791
10590SOL    HW132669   0.482   5.901   4.072  0.4434  0.6702  0.9973
10590SOL    HW232670   0.594   5.928   3.957 -0.8104  0.3340 -0.3286
10591SOL     OW32671   1.373   1.188   6.897 -0.0342 -0.2235  0.0135
10591SOL    HW132672   1.298   1.124   6.877  0.1740 -0.4611 -0.0127
10591SOL    HW232673   1.364   1.222   6.990 -1.0299  0.9135 -0.4734
10592SOL     OW32674   0.223   0.312   5.661 -0.2107 -0.3623  0.2512
10592SOL    HW132675   0.195   0.372   5.736 -0.6321  0.8899 -0.8598
10592SOL    HW232676   0.171   0.336   5.579  1.5106 -0.4610 -0.9135
10593SOL     OW32677   1.105   4.339   2.798  0.2855  0.7782  0.1022
10593SOL    HW132678   1.152   4.256   2.770 -1.5379  0.3269 -1.8698
10593SOL    HW232679   1.009   4.318   2.819  0.8409  1.5858  4.3635
10594SOL     OW32680   2.550   1.559   3.186  0.4425  0.1504  0.2810
10594SOL    HW132681   2.482   1.497   3.225 -0.4127  1.4378  0.8939
10594SOL    HW232682   2.507   1.617   3.117  1.3691 -0.3076 -0.7317
10595SOL     OW32683   0.313   6.883   0.008 -0.0919  0.2402  0.0089
10595SOL    HW132684   0.393   6.940   0.026 -1.1643  1.6304  0.5645
10595SOL    HW232685   0.286   6.836   0.092  0.9202 -1.2986 -0.5011
10596SOL     OW32686   2.346   6.553   2.125  0.1684  0.1280 -0.2269
10596SOL    HW132687   2.425   6.561   2.186  1.0563 -2.5230 -0.9028
10596SOL    HW232688   2.277   6.493   2.167 -0.5783  0.7447 -0.5387
10597SOL     OW32689   2.314   6.466   3.573 -0.0607 -0.1695 -0.5247
10597SOL    HW132690   2.395   6.408   3.581 -0.2860 -0.3321  0.6780
10597SOL    HW232691   2.309   6.503   3.480  0.4744 -1.4946 -1.0985
10598SOL     OW32692   3.035   0.736   1.026  0.2706  0.0549 -0.1116
10598SOL    HW132693   3.012   0.708   1.119  0.8669 -2.0788 -0.5627
10598SOL    HW232694   2.975   0.810   0.998  0.9472  1.7069  2.4371
10599SOL     OW32695   4.461   0.361   0.255 -0.3617 -0.7781 -0.5231
10599SOL    HW132696   4.483   0.292   0.325 -0.2890 -0.6548 -0.4227
10599SOL    HW232697   4.363   0.380   0.256 -0.2647 -0.2680  0.0263
10600SOL     OW32698   0.745   4.115   4.519  0.2626 -0.1813  0.1190
10600SOL    HW132699   0.745   4.098   4.421  0.2985 -2.4604  0.4544
10600SOL    HW232700   0.839   4.133   4.550  0.4862 -0.9564 -0.0749
10601SOL     OW32701   4.283   6.231   4.626  0.3123  0.1573 -0.3011
10601SOL    HW132702   4.211   6.212   4.559 -0.0711  0.3717  0.0494
10601SOL    HW232703   4.294   6.153   4.688  2.6464 -1.3073 -2.3466
10602SOL     OW32704   5.136   3.027   3.038 -0.2320  0.2841 -0.3019
10602SOL    HW132705   5.219   3.029   3.093 -0.5457 -4.5836  0.8741
10602SOL    HW232706   5.058   3.056   3.094  0.0627 -0.1966  0.3791
10603SOL     OW32707   0.141   0.298   4.613  0.1701  0.0937  0.0508
10603SOL    HW132708   0.205   0.247   4.556  1.9453  1.1157  1.0358
10603SOL    HW232709   0.154   0.272   4.709 -1.8609 -0.6439  0.1733
10604SOL     OW32710   1.976   3.792   6.717 -0.0390  0.3723 -0.5652
10604SOL    HW132711   2.027   3.788   6.803 -0.6457  1.6609 -0.1290
10604SOL    HW232712   1.878   3.781   6.735 -0.0895 -0.2980 -1.2011
10605SOL     OW32713   0.468   4.259   0.695 -0.3729  0.2677  0.8596
10605SOL    HW132714   0.466   4.359   0.706 -0.5216  0.4218 -0.4141
10605SOL    HW232715   0.379   4.221   0.722 -0.6812  0.6061  0.3473
10606SOL     OW32716   2.204   1.065   1.283 -0.1864 -0.4259 -0.3470
10606SOL    HW132717   2.277   1.096   1.344 -2.6897  1.5461  1.8800
10606SOL    HW232718   2.148   0.997   1.329 -1.7358  0.6043 -0.6294
10607SOL     OW32719   4.896   4.292   0.937 -0.0978  0.1719 -0.0550
10607SOL    HW132720   4.986   4.270   0.975 -1.0859 -0.8245  1.8726
10607SOL    HW232721   4.873   4.226   0.866  0.7872  0.6125 -0.7732
10608SOL     OW32722   6.222   1.733   2.884  0.4832  0.2123  0.6754
10608SOL    HW132723   6.180   1.675   2.814  0.2049 -0.5924  1.4848
10608SOL    HW232724   6.299   1.783   2.844 -0.3645  0.6388 -0.4725
10609SOL     OW32725   4.366   2.296   2.618  0.3761  0.3701  0.0086
10609SOL    HW132726   4.288   2.242   2.649 -0.2514  0.8228 -0.7519
10609SOL    HW232727   4.373   2.380   2.672 -0.1138  0.6819 -0.4063
10610SOL     OW32728   3.468   5.503   4.891 -0.1703  0.4443  0.3491
10610SOL    HW132729   3.460   5.602   4.882  0.2357  0.6563  1.9945
10610SOL    HW232730   3.516   5.466   4.811  0.3298  1.6632  0.0671
10611SOL     OW32731   5.395   1.117   6.442 -0.0699 -0.0394  0.3510
10611SOL    HW132732   5.400   1.082   6.349  0.8176  0.3327  0.2574
10611SOL    HW232733   5.408   1.216   6.442 -0.2276 -0.0139  0.8582
10612SOL     OW32734   0.966   1.060   2.894 -0.5994 -0.0637 -0.0243
10612SOL    HW132735   1.036   0.994   2.919 -1.9462 -0.4043  3.2860
10612SOL    HW232736   1.007   1.135   2.842  2.0773 -0.5670  1.2196
10613SOL     OW32737   0.907   0.124   6.918 -0.3139  0.4572  0.3487
10613SOL    HW132738   0.933   0.061   6.992  1.4323  0.1413 -0.4945
10613SOL    HW232739   0.988   0.149   6.865 -1.1458  2.5181 -0.0698
10614SOL     OW32740   0.894   2.161   3.113 -0.0563 -0.0122 -0.2610
10614SOL    HW132741   0.835   2.151   3.193 -0.9965  3.2807 -0.3993
10614SOL    HW232742   0.845   2.212   3.042  1.6594 -0.6177 -1.9694
10615SOL     OW32743   0.035   4.831   5.936  0.2255  0.4861  0.1317
10615SOL    HW132744   0.067   4.793   5.850  1.1748 -1.4594  1.2780
10615SOL    HW232745   0.012   4.928   5.924  0.2657  0.2412 -2.2779
10616SOL     OW32746   4.736   5.375   1.228 -0.1629  0.2091  0.5604
10616SOL    HW132747   4.787   5.459   1.247 -0.0173  0.4018 -0.6291
10616SOL    HW232748   4.638   5.394   1.230 -0.1418  0.2976  0.7664
10617SOL     OW32749   5.952   0.732   5.795  0.1666 -0.0036  0.2535
10617SOL    HW132750   5.950   0.634   5.816  0.4116  0.1029  0.7934
10617SOL    HW232751   6.040   0.771   5.825  0.4119  0.2176 -0.7200
10618SOL     OW32752   6.211   3.228   1.710  0.0779  0.6982 -0.7044
10618SOL    HW132753   6.188   3.256   1.617 -0.6133  1.6319 -0.2676
10618SOL    HW232754   6.282   3.288   1.747  0.6464  0.0765 -0.7616
10619SOL     OW32755   0.442   3.231   4.038 -0.2689  0.4880 -0.2080
10619SOL    HW132756   0.348   3.263   4.025 -0.1448  0.8556 -0.2040
10619SOL    HW232757   0.486   3.283   4.112 -0.6529 -0.9366  1.0736
10620SOL     OW32758   1.855   5.447   2.854 -0.4412 -0.3114  0.1901
10620SOL    HW132759   1.937   5.445   2.911 -1.3256  2.1069  1.7262
10620SOL    HW232760   1.881   5.460   2.759  0.9925 -1.6199  0.3671
10621SOL     OW32761   5.676   0.124   5.743  0.3756 -0.7967  0.4987
10621SOL    HW132762   5.718   0.141   5.654 -0.3509 -2.1850 -0.1450
10621SOL    HW232763   5.736   0.158   5.815  0.6218  1.0702 -0.5176
10622SOL     OW32764   2.934   1.568   1.458 -0.0620 -0.0806 -0.9803
10622SOL    HW132765   2.836   1.569   1.478  0.1763 -0.7762  0.2933
10622SOL    HW232766   2.983   1.619   1.529  0.5040  0.2740 -1.6162
10623SOL     OW32767   6.022   0.070   5.425 -0.2772  0.2352  0.8942
10623SOL    HW132768   6.060  -0.020   5.405 -0.8104 -0.1683  1.6555
10623SOL    HW232769   6.064   0.106   5.509  0.2669  0.9030  0.3484
10624SOL     OW32770   1.881   1.410   5.626  0.2338 -0.3112 -0.0882
10624SOL    HW132771   1.799   1.360   5.656  0.0882  0.4498  0.8541
10624SOL    HW232772   1.922   1.455   5.705 -0.2393  1.8976 -1.0360
10625SOL     OW32773   1.339   1.562   0.807  0.2258 -0.1392 -0.2394
10625SOL    HW132774   1.264   1.533   0.867 -3.6756  3.5895 -2.6596
10625SOL    HW232775   1.372   1.652   0.837  1.5568 -0.3517 -1.0186
10626SOL     OW32776   6.707   2.816   2.088  0.0180  0.4098  0.2555
10626SOL    HW132777   6.768   2.775   2.156 -1.4468  0.7587  1.8382
10626SOL    HW232778   6.691   2.912   2.111 -1.2157  0.2967 -0.0682
10627SOL     OW32779   2.139   4.687   3.429 -0.2608 -0.1955  0.2516
10627SOL    HW132780   2.162   4.628   3.352  1.3460 -0.7870  1.1222
10627SOL    HW232781   2.220   4.699   3.487 -1.1796  0.9694  1.3586
10628SOL     OW32782   5.514   6.363   5.575 -0.2420 -0.3005 -0.0814
10628SOL    HW132783   5.528   6.454   5.613  2.3352 -0.2764 -0.8848
10628SOL    HW232784   5.424   6.358   5.532 -0.5948  1.7218  0.3435
10629SOL     OW32785   2.643   5.406   6.932 -0.0051 -0.0947  0.2412
10629SOL    HW132786   2.580   5.483   6.921 -1.5491 -1.4828 -1.2296
10629SOL    HW232787   2.636   5.371   7.025  2.2863  2.7497  1.6289
10630SOL     OW32788   4.391   0.602   6.902 -0.2058 -0.5136  0.8947
10630SOL    HW132789   4.318   0.570   6.842  1.6852 -2.5813 -0.4959
10630SOL    HW232790   4.368   0.583   6.997 -1.9677  0.0623  0.6202
10631SOL     OW32791   1.927   4.719   3.257  0.0034 -0.6821 -0.7193
10631SOL    HW132792   1.998   4.701   3.325  0.2194 -1.3538 -1.1151
10631SOL    HW232793   1.856   4.777   3.298  0.9717  0.3542 -0.4412
10632SOL     OW32794   5.731   3.015   0.482 -0.6196  0.4891  0.3861
10632SOL    HW132795   5.691   2.970   0.562  0.0885  1.7607  1.4914
10632SOL    HW232796   5.756   3.108   0.505 -2.4803  1.6929 -1.9812
10633SOL     OW32797   2.249   4.341   5.912  0.8100 -0.3950 -0.3617
10633SOL    HW132798   2.171   4.311   5.857 -1.3380  2.6327  0.7621
10633SOL    HW232799   2.303   4.407   5.859  0.0318  0.8101  0.2954
10634SOL     OW32800   3.577   4.904   4.084 -0.6531 -0.3722  0.1964
10634SOL    HW132801   3.660   4.896   4.139 -1.0233 -0.4391  0.7494
10634SOL    HW232802   3.602   4.915   3.987  0.0595  1.6826  0.5571
10635SOL     OW32803   1.527   6.247   2.901 -0.4422 -0.0582  0.2951
10635SOL    HW132804   1.582   6.323   2.936  0.4086 -0.4406 -0.1967
10635SOL    HW232805   1.469   6.212   2.975 -0.4852  0.7379  0.6570
10636SOL     OW32806   4.110   1.162   0.128  0.6587  0.4624 -0.3170
10636SOL    HW132807   4.046   1.118   0.064  0.5536 -1.0187  0.7478
10636SOL    HW232808   4.191   1.193   0.078  0.9262 -1.3449 -1.0920
10637SOL     OW32809   3.015   2.202   0.318  0.5363 -0.5263  0.0066
10637SOL    HW132810   3.013   2.169   0.224 -0.7006  2.4553 -1.1100
10637SOL    HW232811   3.066   2.288   0.322 -0.3818 -0.0284  1.8737
10638SOL     OW32812   6.183   0.169   4.354 -0.2859 -0.8701  0.5951
10638SOL    HW132813   6.259   0.194   4.293 -1.0421  1.5593  0.5623
10638SOL    HW232814   6.107   0.135   4.299 -0.3295 -0.3693  0.3433
10639SOL     OW32815   2.096   0.399   5.647 -0.0694 -0.4413  0.2988
10639SOL    HW132816   2.026   0.329   5.662  1.5890 -2.2360  0.1288
10639SOL    HW232817   2.095   0.465   5.722 -3.6470  1.2183 -0.9896
10640SOL     OW32818   5.589   6.634   6.836  0.2889  0.0964 -0.2685
10640SOL    HW132819   5.663   6.656   6.772  0.3165 -1.5256 -0.8476
10640SOL    HW232820   5.505   6.617   6.785  0.1919 -0.7490  0.1669
10641SOL     OW32821   2.706   6.318   6.446  0.0679  0.1428  0.6627
10641SOL    HW132822   2.644   6.391   6.418 -1.2023 -1.1097  0.0510
10641SOL    HW232823   2.677   6.282   6.535  0.8041  0.4886  1.0548
10642SOL     OW32824   5.932   5.669   0.679  0.1016 -0.0306  0.0045
10642SOL    HW132825   5.841   5.676   0.720  0.3495  0.6093  0.4574
10642SOL    HW232826   6.001   5.666   0.751  0.4150 -1.0594 -0.3231
10643SOL     OW32827   3.058   4.733   5.534 -0.0056  0.0210 -0.2088
10643SOL    HW132828   3.108   4.771   5.612  0.5820  1.2340 -1.1489
10643SOL    HW232829   3.014   4.648   5.562 -1.1410  1.2093  1.8876
10644SOL     OW32830   5.274   0.298   6.520 -0.0050  0.3262 -0.2526
10644SOL    HW132831   5.330   0.271   6.599  0.7853  1.6924 -0.3165
10644SOL    HW232832   5.219   0.220   6.490  0.6424 -0.5830  0.8385
10645SOL     OW32833   2.968   2.177   5.233  0.1882  0.1821 -0.3952
10645SOL    HW132834   3.011   2.180   5.323  0.4667 -1.8239 -0.4137
10645SOL    HW232835   3.036   2.199   5.163  0.1067  1.1962 -0.1692
10646SOL     OW32836   2.024   6.106   6.983  0.4978 -0.2684 -0.0002
10646SOL    HW132837   2.082   6.059   7.050  2.1922  2.9798  1.0497
10646SOL    HW232838   1.953   6.158   7.031 -0.4604 -0.6107 -1.0128
10647SOL     OW32839   6.803   0.557   1.214 -0.5753  0.4516  0.0067
10647SOL    HW132840   6.778   0.653   1.200  1.7652  1.1984  0.4644
10647SOL    HW232841   6.903   0.550   1.222 -0.7396 -1.9681  0.5137
10648SOL     OW32842   3.770   4.690   6.301 -0.6242 -0.1539  0.0940
10648SOL    HW132843   3.865   4.683   6.331 -0.9072 -2.2674  0.6780
10648SOL    HW232844   3.763   4.757   6.228  1.2066  0.4737  0.4411
10649SOL     OW32845   6.499   0.396   6.341 -0.1424  0.5450  0.1975
10649SOL    HW132846   6.594   0.386   6.369 -0.4433 -1.5716  0.6628
10649SOL    HW232847   6.439   0.352   6.409 -1.3700  0.9014 -0.6103
10650SOL     OW32848   1.179   0.794   4.085 -0.5061  0.1932  0.2951
10650SOL    HW132849   1.129   0.806   4.171 -1.9466 -1.1735 -0.3030
10650SOL    HW232850   1.238   0.714   4.091 -1.6169 -0.7085 -0.3906
10651SOL     OW32851   0.634   0.832   4.154  0.3175 -0.4192 -0.1836
10651SOL    HW132852   0.540   0.864   4.169  1.2196  2.3048  0.1938
10651SOL    HW232853   0.682   0.897   4.096  2.3965 -0.9735  0.8342
10652SOL     OW32854   6.790   6.897   6.450  1.1591  0.1176  0.2742
10652SOL    HW132855   6.886   6.916   6.470  1.2914 -0.5603  0.3244
10652SOL    HW232856   6.747   6.855   6.530  1.1684 -0.7705 -0.1714
10653SOL     OW32857   6.407   5.563   1.632 -0.2403 -0.2436 -0.2170
10653SOL    HW132858   6.463   5.484   1.606  0.7155  0.8364 -1.5834
10653SOL    HW232859   6.443   5.602   1.717 -0.3506 -0.9080  0.1444
10654SOL     OW32860   6.079   2.312   0.874  0.3225 -0.1684  0.0913
10654SOL    HW132861   6.046   2.222   0.846  1.4341 -0.1876 -1.2753
10654SOL    HW232862   6.165   2.302   0.923 -0.6930  0.0158  1.9999
10655SOL     OW32863   4.021   0.388   1.903  0.0833 -0.0053  0.3215
10655SOL    HW132864   3.991   0.362   1.812  1.4343  2.1770 -0.8221
10655SOL    HW232865   3.942   0.397   1.964 -0.8469 -1.2703 -0.6551
10656SOL     OW32866   6.805   3.417   5.144  0.4452 -0.3991  0.2692
10656SOL    HW132867   6.897   3.378   5.150  1.3618  1.7450  1.3567
10656SOL    HW232868   6.797   3.470   5.060  0.2946 -0.3838  0.2937
10657SOL     OW32869   5.384   1.029   5.211  0.2641  0.2097 -0.1123
10657SOL    HW132870   5.312   1.072   5.267  0.5598  0.9280 -0.2662
10657SOL    HW232871   5.343   0.961   5.151 -0.2382  0.3499  0.0643
10658SOL     OW32872   2.183   5.458   5.054  0.5916 -0.4014 -0.3066
10658SOL    HW132873   2.179   5.440   4.956 -0.6321 -2.7408  0.0953
10658SOL    HW232874   2.114   5.527   5.078  1.3111  0.6366 -1.1349
10659SOL     OW32875   3.783   2.162   2.935 -0.4947 -0.0042  0.2314
10659SOL    HW132876   3.803   2.068   2.965  1.1072  0.0279 -0.6730
10659SOL    HW232877   3.772   2.163   2.836  0.1276  0.8713  0.1673
10660SOL     OW32878   5.113   4.401   5.016  0.8328  0.1405  0.7393
10660SOL    HW132879   5.114   4.303   4.997  0.5731  0.3313 -0.3188
10660SOL    HW232880   5.166   4.449   4.946 -1.7322  1.0595 -0.7205
10661SOL     OW32881   4.928   2.572   2.557  0.2095  0.1700 -0.4728
10661SOL    HW132882   4.911   2.627   2.475 -1.2641  0.2438 -0.1338
10661SOL    HW232883   4.994   2.500   2.534 -1.4414 -0.8943 -2.2442
10662SOL     OW32884   0.985   4.251   0.644 -0.4654 -0.1163  0.2024
10662SOL    HW132885   0.975   4.153   0.626  1.4197 -0.2576 -0.2415
10662SOL    HW232886   0.954   4.303   0.564 -0.1840 -0.4151 -0.1037
10663SOL     OW32887   1.709   5.806   4.859  0.0058  0.0083  0.1865
10663SOL    HW132888   1.758   5.767   4.781 -0.6403 -0.8460  0.1936
10663SOL    HW232889   1.634   5.863   4.826  0.3782  0.4922  0.1785
10664SOL     OW32890   2.079   5.498   0.914  0.1567 -0.0761  0.1631
10664SOL    HW132891   2.031   5.476   0.999 -0.1826  0.1151  0.0238
10664SOL    HW232892   2.132   5.419   0.884 -1.8546 -1.1015 -0.8782
10665SOL     OW32893   6.708   4.052   0.546  0.5124 -0.2394 -0.0689
10665SOL    HW132894   6.629   4.107   0.574  0.8470 -0.9987  2.6959
10665SOL    HW232895   6.724   4.063   0.448 -2.3958  0.6892 -0.5211
10666SOL     OW32896   6.341   5.392   0.977  0.0718 -0.4350 -0.7362
10666SOL    HW132897   6.426   5.349   1.007 -1.0366 -1.3418  1.2657
10666SOL    HW232898   6.264   5.333   1.000 -1.1609  0.6650 -1.9268
10667SOL     OW32899   2.456   3.748   5.669 -0.2747 -0.2283  0.4323
10667SOL    HW132900   2.381   3.691   5.702 -0.7431  0.0872 -0.0713
10667SOL    HW232901   2.479   3.816   5.739  1.4852 -2.1062  1.7973
10668SOL     OW32902   1.543   0.978   5.647 -0.4730 -0.0440  0.3108
10668SOL    HW132903   1.482   0.899   5.652  0.5602 -0.8873 -0.1113
10668SOL    HW232904   1.497   1.052   5.598 -1.1099 -0.6961 -0.1000
10669SOL     OW32905   2.308   6.927   3.977 -0.0046  0.2878  0.3577
10669SOL    HW132906   2.405   6.903   3.983 -0.4120 -2.5629 -2.3149
10669SOL    HW232907   2.297   7.007   3.918  0.7155  1.1006  1.2889
10670SOL     OW32908   6.537   3.195   6.109  0.0353 -0.4499 -0.6985
10670SOL    HW132909   6.535   3.254   6.190 -0.2842 -0.1248 -0.9402
10670SOL    HW232910   6.571   3.104   6.135  1.4789  0.1175 -0.5143
10671SOL     OW32911   1.461   2.201   3.472 -0.6794 -0.1227 -0.1084
10671SOL    HW132912   1.555   2.170   3.476  0.0697  2.0007  0.0193
10671SOL    HW232913   1.414   2.176   3.557  0.7814  1.6434  1.3247
10672SOL     OW32914   6.654   3.093   0.401 -0.1200 -0.3031  0.5768
10672SOL    HW132915   6.682   3.148   0.480 -0.1380  1.3458 -0.5139
10672SOL    HW232916   6.571   3.132   0.361 -0.1011 -1.1052 -0.2666
10673SOL     OW32917   4.145   3.651   1.680  0.2911 -0.4686 -0.1067
10673SOL    HW132918   4.164   3.728   1.741 -0.2870  0.2377 -0.7898
10673SOL    HW232919   4.088   3.683   1.604 -0.3678 -1.6765 -0.1463
10674SOL     OW32920   4.815   2.079   1.265 -0.1917 -0.4950 -0.4941
10674SOL    HW132921   4.821   1.994   1.213 -1.3689 -0.4115 -0.8014
10674SOL    HW232922   4.845   2.155   1.208  1.2979 -0.7456 -0.0682
10675SOL     OW32923   0.975   2.101   5.179  0.6219 -0.2699 -0.1053
10675SOL    HW132924   0.920   2.142   5.252  2.7027  1.2049  0.7067
10675SOL    HW232925   0.944   2.007   5.164 -1.0925 -0.0050  1.3584
10676SOL     OW32926   6.730   1.541   6.025 -0.3829  0.8740 -0.2470
10676SOL    HW132927   6.680   1.600   5.962 -0.5353  0.4649 -0.5193
10676SOL    HW232928   6.704   1.446   6.008  0.5889  0.6425 -0.4926
10677SOL     OW32929   0.535   0.511   1.912 -0.5378  0.1078 -0.0743
10677SOL    HW132930   0.500   0.604   1.898  2.6019  1.5589  0.6967
10677SOL    HW232931   0.552   0.496   2.010 -2.0597 -1.7560 -0.0501
10678SOL     OW32932   1.691   6.732   3.821 -0.2987  0.0541  0.0584
10678SOL    HW132933   1.686   6.636   3.792  0.6906  0.1951 -0.6172
10678SOL    HW232934   1.743   6.738   3.907 -0.0076  0.0237 -0.1143
10679SOL     OW32935   0.159   4.302   4.053 -0.2504  0.0672 -0.5321
10679SOL    HW132936   0.118   4.362   4.121 -1.6406  0.6165 -1.7963
10679SOL    HW232937   0.204   4.225   4.099 -0.8032  0.6220  0.9994
10680SOL     OW32938   0.567   3.450   3.799 -0.4320  0.2365 -0.1202
10680SOL    HW132939   0.522   3.406   3.876  0.7982  1.3314  1.2927
10680SOL    HW232940   0.656   3.486   3.828 -1.0382  3.0243 -1.3294
10681SOL     OW32941   1.720   2.223   3.246 -0.2064  0.2222  0.2359
10681SOL    HW132942   1.655   2.164   3.197 -1.3629  0.2292  1.6804
10681SOL    HW232943   1.768   2.169   3.315 -0.5717  0.7483  0.9173
10682SOL     OW32944   0.333   2.618   5.619  0.0917  0.7326 -0.0803
10682SOL    HW132945   0.383   2.577   5.696 -0.9804  0.3745  0.4456
10682SOL    HW232946   0.286   2.700   5.651 -0.9924  0.1583 -0.1274
10683SOL     OW32947   0.554   6.902   4.576 -0.4778 -0.3049  0.3146
10683SOL    HW132948   0.565   6.834   4.649  0.0510 -2.4836 -1.6694
10683SOL    HW232949   0.635   6.960   4.571  0.0648 -1.0318  0.5878
10684SOL     OW32950   6.122   6.332   0.611 -0.4122 -0.0855 -0.0130
10684SOL    HW132951   6.168   6.372   0.532  0.4817 -1.5358 -0.2672
10684SOL    HW232952   6.046   6.275   0.581  0.6724 -1.6337  0.0181
10685SOL     OW32953   0.333   1.005   3.666 -0.0341  0.1650 -0.8682
10685SOL    HW132954   0.288   1.082   3.711  1.2926  0.8613 -0.6828
10685SOL    HW232955   0.300   0.919   3.707 -2.5754  0.4849 -2.0105
10686SOL     OW32956   6.612   4.855   1.274 -0.0162 -0.0704  0.1781
10686SOL    HW132957   6.700   4.842   1.229 -1.2385 -0.9090 -2.1232
10686SOL    HW232958   6.612   4.807   1.362  1.5728 -0.6061 -0.0793
10687SOL     OW32959   1.021   5.356   1.769 -0.0656 -0.8675  0.5768
10687SOL    HW132960   1.017   5.444   1.817  0.1983 -0.4900 -0.0829
10687SOL    HW232961   0.927   5.324   1.752 -0.3335  0.9750 -2.1713
10688SOL     OW32962   1.544   5.373   1.063 -0.5114 -0.2089 -0.8452
10688SOL    HW132963   1.552   5.447   1.130 -0.3392 -0.6632 -0.3569
10688SOL    HW232964   1.521   5.288   1.110 -0.2350 -0.5656 -1.3448
10689SOL     OW32965   0.181   1.244   1.227 -0.0834 -0.3722 -0.2562
10689SOL    HW132966   0.267   1.193   1.235  0.4404  0.1757 -1.9764
10689SOL    HW232967   0.179   1.316   1.296  0.4961 -0.8536  0.2811
10690SOL     OW32968   4.118   0.808   4.165 -0.1545  0.9597  0.2063
10690SOL    HW132969   4.090   0.901   4.143  1.2703  0.8598 -2.3985
10690SOL    HW232970   4.217   0.799   4.152 -0.2516 -0.9040  0.4523
10691SOL     OW32971   4.683   1.876   2.030 -0.4144 -0.3160  0.4727
10691SOL    HW132972   4.608   1.873   1.965  1.0030 -2.6690 -1.1953
10691SOL    HW232973   4.742   1.954   2.009 -0.6407 -0.3403 -0.2836
10692SOL     OW32974   3.538   5.870   4.479  0.0954  0.1547 -0.1828
10692SOL    HW132975   3.599   5.883   4.558  0.8273  2.7125 -1.0750
10692SOL    HW232976   3.450   5.913   4.498 -0.3735 -0.8124 -0.1041
10693SOL     OW32977   4.341   1.690   4.109 -0.3675 -0.0226  0.1273
10693SOL    HW132978   4.364   1.656   4.200  1.5062 -1.1219 -0.6995
10693SOL    HW232979   4.424   1.718   4.062 -1.3221  0.7014 -1.2077
10694SOL     OW32980   3.045   6.822   0.996 -0.4396  0.5184  0.6141
10694SOL    HW132981   3.065   6.798   0.901  1.1303  1.9034  0.5604
10694SOL    HW232982   2.963   6.879   0.999  0.4862  1.9545 -0.1514
10695SOL     OW32983   6.164   4.020   6.559  0.1735  0.6326  0.5294
10695SOL    HW132984   6.186   4.026   6.461  0.3844  3.2998  0.6777
10695SOL    HW232985   6.143   4.111   6.594  0.7596 -0.1692  3.1500
10696SOL     OW32986   6.382   6.247   1.963 -0.0745  0.1601 -0.0495
10696SOL    HW132987   6.301   6.289   1.920 -0.5424 -0.6051  0.0799
10696SOL    HW232988   6.354   6.170   2.019  0.7776 -0.2528 -0.1809
10697SOL     OW32989   4.438   6.201   2.486 -0.2343 -0.0219  0.2859
10697SOL    HW132990   4.459   6.288   2.530  0.0567  0.1502 -0.1881
10697SOL    HW232991   4.433   6.214   2.387  1.3211 -0.8285  0.0664
10698SOL     OW32992   4.370   6.668   3.151  0.0422  0.0030 -0.1501
10698SOL    HW132993   4.462   6.687   3.117  0.2528 -3.7132 -2.2397
10698SOL    HW232994   4.375   6.598   3.222 -1.1068  1.1775  1.1376
10699SOL     OW32995   0.632   2.696   3.138 -0.1513  0.0782 -0.2280
10699SOL    HW132996   0.649   2.739   3.227 -0.6028 -1.7376  0.7805
10699SOL    HW232997   0.537   2.665   3.133 -0.3867  0.9349 -1.7204
10700SOL     OW32998   2.149   3.346   3.991  0.6396  0.0835  0.2858
10700SOL    HW132999   2.145   3.440   4.022  1.2630 -0.3588  1.7733
10700SOL    HW233000   2.192   3.289   4.061 -0.5077 -1.4665 -0.1978
10701SOL     OW33001   1.025   0.520   2.786  0.2185 -0.2655 -0.5389
10701SOL    HW133002   0.930   0.489   2.795  0.2281 -0.3975 -0.8795
10701SOL    HW233003   1.067   0.527   2.877 -0.1140 -0.2186 -0.3886
10702SOL     OW33004   3.684   1.680   0.890  0.5626 -0.4102  0.4406
10702SOL    HW133005   3.751   1.666   0.817  2.1862  1.7956  1.4063
10702SOL    HW233006   3.662   1.777   0.898 -0.8882 -0.8018  1.7636
10703SOL     OW33007   4.000   3.766   4.048  0.4845 -0.1976 -0.3679
10703SOL    HW133008   4.062   3.692   4.023 -0.1374 -0.0343 -2.5656
10703SOL    HW233009   3.905   3.736   4.037  0.2198  0.6525 -0.5038
10704SOL     OW33010   6.389   6.200   1.447  0.5474  0.0772 -0.2747
10704SOL    HW133011   6.405   6.166   1.540  0.4341  2.4617  0.7105
10704SOL    HW233012   6.296   6.236   1.441  0.5963  0.0537 -1.2934
10705SOL     OW33013   1.149   2.350   5.691  1.0455  0.7620  0.2523
10705SOL    HW133014   1.180   2.302   5.609  2.1173  0.1725  0.9827
10705SOL    HW233015   1.186   2.305   5.772 -2.9584 -1.0029  1.3324
10706SOL     OW33016   1.419   2.851   0.928  0.1528  0.3344  0.3018
10706SOL    HW133017   1.507   2.896   0.939  1.2071 -1.6519  0.4488
10706SOL    HW233018   1.379   2.834   1.018 -0.1415  0.7993  0.2573
10707SOL     OW33019   0.147   2.115   0.774 -0.7568  0.0980  0.4424
10707SOL    HW133020   0.173   2.204   0.813  0.6414 -1.3530  3.0785
10707SOL    HW233021   0.187   2.042   0.829 -3.1780 -2.2225 -0.6946
10708SOL     OW33022   4.936   4.016   6.384  0.3103 -0.6629 -0.2469
10708SOL    HW133023   4.962   4.044   6.477 -1.2113 -0.5161  0.1734
10708SOL    HW233024   4.885   3.930   6.389  1.7034 -1.5741 -1.1535
10709SOL     OW33025   7.004   0.873   6.803  0.0973  0.5688 -0.5908
10709SOL    HW133026   6.927   0.873   6.867 -1.4723  0.3591 -2.3497
10709SOL    HW233027   7.007   0.961   6.755  1.0049  0.5989 -0.4800
10710SOL     OW33028   1.611   6.143   3.663  0.0244 -0.1441  0.4882
10710SOL    HW133029   1.705   6.173   3.649  0.3581 -0.2274  2.2276
10710SOL    HW233030   1.589   6.070   3.599  0.5218  1.0924 -1.1392
10711SOL     OW33031   2.494   4.491   3.454  0.0324  0.0545  0.6270
10711SOL    HW133032   2.428   4.512   3.383  0.6239  0.8901  0.3134
10711SOL    HW233033   2.567   4.560   3.455 -0.3269  0.4775  2.5121
10712SOL     OW33034   5.082   3.194   6.214 -0.5110  0.2385 -0.0174
10712SOL    HW133035   5.057   3.251   6.292  0.4170  0.8829 -0.1752
10712SOL    HW233036   5.065   3.244   6.129  3.0081  1.5590 -0.1275
10713SOL     OW33037   2.531   6.406   0.853  0.0297  0.5839  0.4578
10713SOL    HW133038   2.588   6.325   0.867 -0.3665  0.5507  2.1570
10713SOL    HW233039   2.569   6.483   0.904 -1.1291  0.6961  1.2063
10714SOL     OW33040   5.169   5.246   4.460  0.8369  0.3111 -0.3282
10714SOL    HW133041   5.159   5.261   4.558  1.7999  0.4245 -0.2385
10714SOL    HW233042   5.139   5.328   4.411  0.1045  0.1585 -0.1519
10715SOL     OW33043   6.637   5.183   2.372  0.0466  0.4329 -0.0117
10715SOL    HW133044   6.579   5.102   2.364  1.2229 -0.3747 -0.6647
10715SOL    HW233045   6.622   5.226   2.461  1.3145 -2.0709  1.5262
10716SOL     OW33046   0.631   3.353   2.629 -0.1396  0.0542 -0.0966
10716SOL    HW133047   0.629   3.439   2.679 -1.0329  0.5301 -0.9270
10716SOL    HW233048   0.672   3.367   2.539  0.6388 -0.6093  0.1385
10717SOL     OW33049   0.546   0.771   0.692  0.1894 -0.3799  0.4862
10717SOL    HW133050   0.473   0.831   0.724 -0.3890 -0.7002 -0.2084
10717SOL    HW233051   0.564   0.701   0.761 -0.8108 -0.8638  0.2693
10718SOL     OW33052   0.074   2.761   3.675  0.1934 -0.0528 -0.9181
10718SOL    HW133053  -0.017   2.744   3.639 -0.0998  2.9025 -1.8510
10718SOL    HW233054   0.069   2.768   3.775 -0.3958 -0.9295 -0.8783
10719SOL     OW33055   4.094   5.957   2.305 -0.7557  0.3948  0.1872
10719SOL    HW133056   4.126   5.945   2.210  0.9232 -0.2137  0.7868
10719SOL    HW233057   4.035   6.037   2.310 -1.7225 -0.1380 -1.5558
10720SOL     OW33058   1.823   3.757   5.858  0.2077  0.0903 -0.5521
10720SOL    HW133059   1.846   3.661   5.872 -1.4058 -0.5764 -2.0994
10720SOL    HW233060   1.849   3.810   5.939  0.2110 -1.8120  0.7464
10721SOL     OW33061   5.085   0.338   5.541  0.1380  0.6032  0.3448
10721SOL    HW133062   5.115   0.354   5.448 -0.0106 -1.5261 -0.1173
10721SOL    HW233063   5.008   0.399   5.562  2.4078  3.6918  0.4008
10722SOL     OW33064   0.769   5.234   6.062  0.1468  0.0529  0.3433
10722SOL    HW133065   0.694   5.249   5.997  2.3256  2.0093 -1.9182
10722SOL    HW233066   0.786   5.136   6.071 -1.3142 -0.3303 -0.7386
10723SOL     OW33067   0.444   6.757   6.265  0.6432  0.2084 -0.4601
10723SOL    HW133068   0.421   6.663   6.290  3.0690 -0.0816  0.9981
10723SOL    HW233069   0.364   6.816   6.279  0.1440 -1.0028  2.3636
10724SOL     OW33070   1.358   6.675   6.278  0.1310  0.8877 -0.3664
10724SOL    HW133071   1.442   6.665   6.332 -0.8231  0.0304  1.0333
10724SOL    HW233072   1.366   6.754   6.218  1.7431  1.1158  0.1031
10725SOL     OW33073   0.127   4.750   5.702 -0.6647 -0.8201  0.0577
10725SOL    HW133074   0.171   4.663   5.680 -0.6328 -0.4889 -1.2942
10725SOL    HW233075   0.186   4.826   5.673 -0.7116 -0.3414  1.1755
10726SOL     OW33076   6.860   0.081   3.264  0.5618 -0.0096  0.3052
10726SOL    HW133077   6.824   0.170   3.292  0.9037  0.1435  0.2610
10726SOL    HW233078   6.837   0.065   3.168  0.1641 -0.1429  0.4197
10727SOL     OW33079   4.509   5.400   5.614  0.3128  0.4873 -0.3330
10727SOL    HW133080   4.581   5.451   5.566  0.0070 -1.2035 -2.7850
10727SOL    HW233081   4.419   5.435   5.587  0.1420 -0.1726 -0.6252
10728SOL     OW33082   6.649   5.560   5.520  0.2040  0.3444 -0.1495
10728SOL    HW133083   6.632   5.620   5.598  1.7717  2.1462 -1.0843
10728SOL    HW233084   6.568   5.505   5.501 -0.7574  1.0298  1.7385
10729SOL     OW33085   0.717   2.735   5.181 -0.1702  0.6043  0.3647
10729SOL    HW133086   0.739   2.803   5.251  1.4089  0.9112 -0.3844
10729SOL    HW233087   0.794   2.672   5.169 -1.4686 -1.1180  0.7729
10730SOL     OW33088   6.859   5.558   4.581 -0.5361 -0.0606  0.1706
10730SOL    HW133089   6.794   5.555   4.657 -2.4458  2.7798 -1.1778
10730SOL    HW233090   6.921   5.636   4.592 -1.6579  1.1767 -1.7009
10731SOL     OW33091   6.529   4.077   4.815 -0.2207 -0.3320 -0.0783
10731SOL    HW133092   6.568   4.066   4.906 -1.6997 -2.0601  0.4174
10731SOL    HW233093   6.543   3.992   4.763 -0.7186  0.0785 -0.9001
10732SOL     OW33094   6.274   5.664   1.858  0.5856 -0.0877  0.8992
10732SOL    HW133095   6.221   5.595   1.808  0.7497  1.1682 -1.1166
10732SOL    HW233096   6.359   5.624   1.890  0.7065 -0.8430 -0.2965
10733SOL     OW33097   1.033   2.489   4.252  0.0530 -0.0082 -0.0599
10733SOL    HW133098   1.006   2.409   4.199  0.3318  0.4029 -0.8294
10733SOL    HW233099   0.986   2.570   4.217 -0.4253  0.1311  0.8794
10734SOL     OW33100   6.762   1.657   4.175 -0.5246 -0.2984 -0.0533
10734SOL    HW133101   6.770   1.679   4.272  0.6689  3.4971 -0.8553
10734SOL    HW233102   6.850   1.627   4.139 -0.3819  0.5211 -0.4038
10735SOL     OW33103   0.407   1.429   2.770 -0.5938 -0.1828 -0.4011
10735SOL    HW133104   0.350   1.359   2.814 -1.1298 -0.4917 -1.5490
10735SOL    HW233105   0.361   1.517   2.777 -1.5341 -0.5282 -1.8276
10736SOL     OW33106   5.634   5.226   4.468 -0.2979  0.3939  0.5661
10736SOL    HW133107   5.548   5.204   4.514 -0.6257  1.8990  0.7271
10736SOL    HW233108   5.693   5.277   4.530  1.7084 -2.4939  1.2368
10737SOL     OW33109   0.170   1.203   0.942 -0.2906 -0.7035  0.1895
10737SOL    HW133110   0.133   1.235   1.028 -0.0859 -2.6267  1.0570
10737SOL    HW233111   0.267   1.225   0.937 -0.7080  1.1277 -0.4589
10738SOL     OW33112   0.650   0.695   2.451  0.5003 -0.0201  0.4232
10738SOL    HW133113   0.730   0.653   2.494  0.1661 -0.6976  0.3982
10738SOL    HW233114   0.639   0.789   2.484  0.9310 -0.1421  0.9186
10739SOL     OW33115   4.660   2.789   4.325 -0.1106 -0.0919 -0.0672
10739SOL    HW133116   4.674   2.883   4.293 -2.6688  0.0965 -0.8464
10739SOL    HW233117   4.665   2.787   4.425 -0.3222  0.9409 -0.0189
10740SOL     OW33118   1.367   0.753   1.435 -0.0864  0.0924  0.4393
10740SOL    HW133119   1.465   0.766   1.451  0.2999 -0.2901 -1.3525
10740SOL    HW233120   1.318   0.837   1.458  0.7990  0.6323  0.4093
10741SOL     OW33121   2.496   2.972   5.668 -0.6005  0.0843 -0.5000
10741SOL    HW133122   2.434   3.025   5.725  1.2909  1.8262  0.0795
10741SOL    HW233123   2.535   3.032   5.597  0.4945 -0.8851 -0.7512
10742SOL     OW33124   0.187   0.426   1.928 -0.2379  0.5889 -0.1251
10742SOL    HW133125   0.206   0.339   1.882  0.0742  0.6979 -0.2058
10742SOL    HW233126   0.110   0.414   1.991 -0.8785  0.5179 -0.9038
10743SOL     OW33127   5.014   2.227   6.964 -0.5019  0.3899 -0.1848
10743SOL    HW133128   4.988   2.183   6.878  1.4776 -1.1203 -0.0871
10743SOL    HW233129   5.108   2.260   6.958 -0.8169  1.5779  0.9260
10744SOL     OW33130   3.394   0.393   2.321 -0.0974  0.6051 -0.4254
10744SOL    HW133131   3.405   0.474   2.378 -1.1822 -0.1120  0.8600
10744SOL    HW233132   3.415   0.416   2.226  1.3466  1.9281  0.1742
10745SOL     OW33133   4.892   5.669   2.119  0.0608 -0.0821  0.7911
10745SOL    HW133134   4.966   5.645   2.056  0.3135  0.3249  0.9301
10745SOL    HW233135   4.852   5.757   2.093  0.8974  0.6400  1.8244
10746SOL     OW33136   0.786   5.390   5.371  0.1703 -0.5834 -0.0038
10746SOL    HW133137   0.759   5.328   5.444  1.6161 -1.1154  0.1174
10746SOL    HW233138   0.778   5.485   5.403  0.9873 -0.8133  0.9310
10747SOL     OW33139   0.666   6.918   3.613  0.0757 -0.2777  0.7281
10747SOL    HW133140   0.743   6.975   3.642  0.6233 -1.1854  1.1313
10747SOL    HW233141   0.688   6.875   3.525 -0.0653 -0.3577  0.7319
10748SOL     OW33142   2.614   7.000   3.712  0.1133 -0.2422 -0.2493
10748SOL    HW133143   2.671   7.021   3.632  0.4233  0.1777  0.0763
10748SOL    HW233144   2.589   6.903   3.710 -1.3613  0.1343 -1.7860
10749SOL     OW33145   5.593   4.964   4.375 -0.1334  0.1631 -0.2030
10749SOL    HW133146   5.677   4.910   4.387 -0.0832  0.5940  1.7646
10749SOL    HW233147   5.593   5.040   4.441 -2.1180  0.1156 -0.0927
10750SOL     OW33148   3.472   1.512   4.052  0.2658 -0.8296 -0.6120
10750SOL    HW133149   3.568   1.521   4.023  1.2604 -0.5195  2.4115
10750SOL    HW233150   3.439   1.601   4.084 -0.2597 -1.3859  0.4385
10751SOL     OW33151   5.418   6.721   2.397 -0.3964  0.2897 -0.1001
10751SOL    HW133152   5.374   6.749   2.483  0.9094  1.9061  0.0897
10751SOL    HW233153   5.494   6.659   2.417  0.1338  0.9468 -0.0265
10752SOL     OW33154   0.091   5.483   5.182 -0.8122 -0.4835 -0.8660
10752SOL    HW133155   0.045   5.470   5.094 -0.9857 -2.8587 -0.4860
10752SOL    HW233156   0.026   5.518   5.249 -0.4164  2.4841 -1.8773
10753SOL     OW33157   4.429   4.563   3.205  0.8850  0.1388  0.5520
10753SOL    HW133158   4.358   4.618   3.163 -0.9094 -2.0277  0.5472
10753SOL    HW233159   4.437   4.587   3.302  1.3228  1.4970  0.2032
10754SOL     OW33160   0.521   0.014   0.796 -0.0572  0.0844 -0.6276
10754SOL    HW133161   0.554  -0.060   0.854 -3.1047  0.1436  1.3945
10754SOL    HW233162   0.421   0.011   0.790 -0.0851  1.9609 -3.4506
10755SOL     OW33163   0.659   2.410   1.770  0.0666 -0.4609 -0.2494
10755SOL    HW133164   0.674   2.508   1.752  0.8937 -0.7185 -1.0713
10755SOL    HW233165   0.610   2.399   1.856 -0.6862  0.7087 -0.5095
10756SOL     OW33166   0.691   0.672   1.338  0.1659 -0.4948  0.4132
10756SOL    HW133167   0.722   0.584   1.373  1.4732  0.4087  1.6736
10756SOL    HW233168   0.689   0.739   1.412  0.8469  0.9461 -0.8040
10757SOL     OW33169   2.532   0.232   3.821 -0.1367  0.5154  0.0585
10757SOL    HW133170   2.590   0.226   3.903 -0.0495 -0.2049 -0.0518
10757SOL    HW233171   2.528   0.143   3.777 -2.0642  0.3186  0.5500
10758SOL     OW33172   1.039   6.815   2.252 -0.9288 -0.2312  0.1452
10758SOL    HW133173   1.026   6.843   2.347 -0.8549  2.4061 -0.5437
10758SOL    HW233174   1.086   6.727   2.249  0.5251  0.3777  2.5569
10759SOL     OW33175   4.090   0.475   5.157 -0.5289  0.1516  0.0797
10759SOL    HW133176   4.074   0.453   5.061 -0.2949  3.8532 -0.9759
10759SOL    HW233177   4.003   0.472   5.206 -0.6904 -1.5303 -0.2647
10760SOL     OW33178   2.822   6.379   0.898  0.1131  0.4419  0.0730
10760SOL    HW133179   2.871   6.299   0.861 -0.4561  1.0205 -2.0996
10760SOL    HW233180   2.773   6.352   0.980  2.0398 -0.7689  0.9025
10761SOL     OW33181   1.126   1.066   6.459 -0.0696  0.8106 -0.1771
10761SOL    HW133182   1.197   1.028   6.400  0.3593  0.2746  0.6627
10761SOL    HW233183   1.041   1.077   6.407 -0.3355 -1.7023 -0.3643
10762SOL     OW33184   0.350   5.667   2.088  0.2928  0.3713  0.0768
10762SOL    HW133185   0.261   5.712   2.082  0.0605 -0.1449 -0.3889
10762SOL    HW233186   0.415   5.715   2.028  0.2262  0.5064  0.1116
10763SOL     OW33187   4.778   1.575   2.787  0.3176  0.2903 -0.3716
10763SOL    HW133188   4.743   1.556   2.696  1.3428 -0.3482 -0.6453
10763SOL    HW233189   4.821   1.493   2.824 -0.1990  0.5012  0.7477
10764SOL     OW33190   4.698   6.796   3.905 -0.1953  0.4799 -0.4947
10764SOL    HW133191   4.736   6.719   3.852  0.9941  0.5870  0.1608
10764SOL    HW233192   4.767   6.868   3.911  0.2257 -0.0537  2.2793
10765SOL     OW33193   6.872   2.993   2.737 -0.4614 -0.0044  0.1466
10765SOL    HW133194   6.884   2.894   2.727 -0.9054 -0.1933  1.3530
10765SOL    HW233195   6.959   3.035   2.762 -0.3004 -0.0993 -0.2410
10766SOL     OW33196   2.475   5.382   1.160 -0.0373  0.1173  0.8684
10766SOL    HW133197   2.427   5.299   1.189  3.0257 -0.7628  4.2708
10766SOL    HW233198   2.536   5.360   1.084 -0.9576 -0.1345  0.1938
10767SOL     OW33199   0.381   6.172   6.159 -0.1321  0.1808  0.4420
10767SOL    HW133200   0.353   6.118   6.239 -0.4937  0.6350  0.6294
10767SOL    HW233201   0.480   6.180   6.157  0.0020 -1.2004 -0.0577
10768SOL     OW33202   6.679   6.601   6.334  0.0602 -0.1878 -0.1649
10768SOL    HW133203   6.644   6.647   6.252 -0.1640  0.4189  0.2585
10768SOL    HW233204   6.728   6.667   6.391  2.0826 -1.0510 -0.8157
10769SOL     OW33205   3.154   3.627   4.434 -0.3466  0.2094 -0.7059
10769SOL    HW133206   3.248   3.593   4.430  0.3108  1.5734  1.3180
10769SOL    HW233207   3.091   3.550   4.429  1.0324 -1.3137  2.4221
10770SOL     OW33208   3.611   1.067   6.011  0.2536 -0.3871 -0.8412
10770SOL    HW133209   3.512   1.078   6.019  0.3477 -0.2274  0.2696
10770SOL    HW233210   3.650   1.148   5.966  0.0928  0.4957  0.5439
10771SOL     OW33211   5.680   6.031   5.279 -0.5072 -0.5836  0.7905
10771SOL    HW133212   5.762   6.045   5.224  0.5643 -1.4849  2.0733
10771SOL    HW233213   5.620   6.111   5.271 -0.2296 -0.5505 -1.3463
10772SOL     OW33214   5.148   3.786   4.154  0.1210 -0.4518 -0.0005
10772SOL    HW133215   5.083   3.710   4.153 -0.6244  0.1616  1.1368
10772SOL    HW233216   5.173   3.808   4.248  0.0609  0.9511 -0.2898
10773SOL     OW33217   0.973   4.265   6.870  0.1326  0.0857 -0.1919
10773SOL    HW133218   0.901   4.297   6.807  0.1838  0.0039 -0.2916
10773SOL    HW233219   0.932   4.246   6.959  0.1367  0.6363 -0.0688
10774SOL     OW33220   6.345   3.017   2.762 -0.1932  0.7011  0.0935
10774SOL    HW133221   6.313   2.923   2.773  0.9680  0.2028 -0.5464
10774SOL    HW233222   6.337   3.044   2.666 -0.6172  1.2983  0.2910
10775SOL     OW33223   1.542   5.238   0.117 -0.2540 -0.5578 -0.2681
10775SOL    HW133224   1.551   5.257   0.215 -0.0976  0.4002 -0.4605
10775SOL    HW233225   1.564   5.320   0.065 -2.7480 -0.3030 -1.0429
10776SOL     OW33226   0.823   3.193   3.406 -0.3681 -0.4472  0.5606
10776SOL    HW133227   0.887   3.123   3.374  0.6384 -0.7586  2.9842
10776SOL    HW233228   0.865   3.283   3.398 -0.6336 -0.3874 -0.1719
10777SOL     OW33229   1.151   0.567   0.574  0.1632  0.7621 -0.1755
10777SOL    HW133230   1.125   0.496   0.639 -0.5337 -0.3485 -1.6041
10777SOL    HW233231   1.247   0.590   0.588  0.5442 -0.8037  0.0438
10778SOL     OW33232   6.236   0.261   2.614 -0.0070 -0.1846 -0.0612
10778SOL    HW133233   6.260   0.302   2.701 -3.2573  1.3403  0.2603
10778SOL    HW233234   6.156   0.202   2.626 -0.7558  0.3489 -2.0197
10779SOL     OW33235   4.439   3.151   6.014 -0.1761 -0.3155 -0.3577
10779SOL    HW133236   4.434   3.174   5.917 -0.0358  0.3394 -0.2183
10779SOL    HW233237   4.453   3.053   6.025  0.7251 -0.2667 -1.0175
10780SOL     OW33238   2.000   5.648   5.139  0.2145  0.0317 -0.0526
10780SOL    HW133239   1.936   5.724   5.137  0.1555 -0.0148  0.0708
10780SOL    HW233240   2.075   5.669   5.201 -0.5565 -0.6144  1.1348
10781SOL     OW33241   6.162   2.009   3.552 -0.5305  0.4933 -0.0863
10781SOL    HW133242   6.161   2.000   3.453  0.7754 -0.0035 -0.0724
10781SOL    HW233243   6.101   2.083   3.579 -2.4891 -0.6807 -1.0821
10782SOL     OW33244   1.738   3.885   3.390 -0.3779  0.0385 -0.3400
10782SOL    HW133245   1.669   3.813   3.383  0.4482 -0.8044 -0.0442
10782SOL    HW233246   1.804   3.875   3.315 -0.5471  0.8309 -0.6122
10783SOL     OW33247   1.798   1.204   3.457 -0.0993 -1.0886 -0.0336
10783SOL    HW133248   1.889   1.186   3.494  0.9287  1.0821 -1.3353
10783SOL    HW233249   1.731   1.146   3.504  1.5477 -0.8433  2.8265
10784SOL     OW33250   3.571   6.010   1.441 -0.2561  0.5227  0.4442
10784SOL    HW133251   3.641   5.982   1.506  0.5647  2.3080  0.3995
10784SOL    HW233252   3.578   6.109   1.426 -1.3267  0.3689 -1.2910
10785SOL     OW33253   1.177   6.729   1.551  1.0092 -0.3789 -0.3545
10785SOL    HW133254   1.110   6.797   1.581  1.4756 -0.8883  2.0313
10785SOL    HW233255   1.145   6.687   1.466 -1.3923 -0.1561  0.3510
10786SOL     OW33256   5.167   0.838   1.912 -0.0384  0.2378  0.3124
10786SOL    HW133257   5.231   0.774   1.953 -0.1119  0.0499  0.1334
10786SOL    HW233258   5.205   0.873   1.826 -0.8654 -1.0975 -0.6293
10787SOL     OW33259   4.161   6.933   4.279 -0.6259  0.1791  0.4189
10787SOL    HW133260   4.205   6.934   4.368 -0.3653  1.1891  0.2982
10787SOL    HW233261   4.158   7.026   4.242 -0.3698 -0.2711 -0.8019
10788SOL     OW33262   0.616   4.354   5.357 -0.0905 -0.1673  0.6192
10788SOL    HW133263   0.536   4.411   5.373 -0.4486 -0.2729 -0.6706
10788SOL    HW233264   0.697   4.412   5.346 -0.8549  0.4617 -3.3865
10789SOL     OW33265   1.180   1.968   6.905 -0.1667 -0.3717  0.2042
10789SOL    HW133266   1.268   1.945   6.864  0.1082  0.1420  0.4934
10789SOL    HW233267   1.186   2.058   6.947 -1.4979  0.7433 -1.8002
10790SOL     OW33268   5.456   4.656   5.870 -0.2327  0.1857 -0.4129
10790SOL    HW133269   5.519   4.617   5.803  0.9888 -0.0815  0.8469
10790SOL    HW233270   5.384   4.590   5.891 -0.7532  0.3508 -1.5827
10791SOL     OW33271   2.982   2.219   4.024  0.5065 -0.5669 -0.1618
10791SOL    HW133272   2.957   2.133   4.068 -1.6738  0.5866  0.9969
10791SOL    HW233273   2.907   2.251   3.967  1.6709  0.0991 -1.3679
10792SOL     OW33274   3.614   6.109   1.994  0.1727 -0.2256 -0.2139
10792SOL    HW133275   3.558   6.044   2.045 -3.0769  2.2744 -0.2601
10792SOL    HW233276   3.650   6.179   2.057 -0.5181  0.6405 -0.7584
10793SOL     OW33277   4.520   2.487   3.152 -1.0160  0.0519 -0.1051
10793SOL    HW133278   4.441   2.434   3.121 -2.9243  2.6455 -0.0048
10793SOL    HW233279   4.551   2.547   3.079 -0.1822  0.2464  0.3914
10794SOL     OW33280   5.321   5.425   1.882  0.2546 -0.3941 -0.2709
10794SOL    HW133281   5.279   5.499   1.935  2.3905  0.3818  0.4683
10794SOL    HW233282   5.301   5.337   1.924  0.4991  0.0778  0.8571
10795SOL     OW33283   5.318   3.546   4.425 -0.3614 -0.2299  0.5683
10795SOL    HW133284   5.242   3.553   4.490 -1.8523 -0.6566 -1.0613
10795SOL    HW233285   5.385   3.618   4.444 -1.8748  1.0813  1.1721
10796SOL     OW33286   1.060   3.294   0.001  0.2334 -0.4892 -0.8430
10796SOL    HW133287   1.059   3.302   0.101 -0.2800 -1.2127 -0.7750
10796SOL    HW233288   0.972   3.257  -0.029  0.4841 -0.5274 -1.5385
10797SOL     OW33289   5.330   4.402   5.935  0.6460  0.0837 -0.1411
10797SOL    HW133290   5.255   4.376   5.996  0.4077 -0.9011 -0.8385
10797SOL    HW233291   5.324   4.351   5.850  1.7005  0.5233 -0.5014
10798SOL     OW33292   3.531   6.817   0.237  0.4312  0.1298  0.1304
10798SOL    HW133293   3.439   6.846   0.212 -0.2320 -1.8294  0.0727
10798SOL    HW233294   3.549   6.837   0.333 -0.0538  0.5438  0.1320
10799SOL     OW33295   2.739   6.567   3.081 -0.2542  0.1674 -0.3391
10799SOL    HW133296   2.769   6.506   3.008  1.4530 -0.4400  0.8015
10799SOL    HW233297   2.808   6.637   3.097 -0.0442 -0.3638  1.3821
10800SOL     OW33298   2.413   0.261   4.847 -0.4947 -0.6199 -0.3668
10800SOL    HW133299   2.397   0.291   4.941 -2.3363  1.8762 -1.3790
10800SOL    HW233300   2.342   0.196   4.821 -2.3773  1.6221 -1.1588
10801SOL     OW33301   2.808   6.964   0.961 -0.0781 -0.1352  0.1129
10801SOL    HW133302   2.750   6.882   0.954  0.3862 -0.5097  0.5477
10801SOL    HW233303   2.767   7.028   1.026 -1.2729  0.6987 -1.4075
10802SOL     OW33304   1.011   5.931   2.519 -0.2859  0.4947  0.2776
10802SOL    HW133305   1.069   6.011   2.529 -0.1997  0.5607 -0.6865
10802SOL    HW233306   1.002   5.907   2.422 -1.0105 -0.1441  0.4863
10803SOL     OW33307   0.477   5.305   4.899  0.4317  0.3132 -0.1743
10803SOL    HW133308   0.535   5.381   4.927  1.5577  0.2386 -2.1225
10803SOL    HW233309   0.405   5.339   4.838 -2.0037  0.4858  2.5573
10804SOL     OW33310   6.968   3.249   0.792  0.0781  0.0542 -0.1640
10804SOL    HW133311   7.030   3.320   0.759  0.5088  0.5617  1.6202
10804SOL    HW233312   7.005   3.209   0.876  0.2117 -2.8325 -1.4951
10805SOL     OW33313   4.042   4.473   6.563 -0.2928  0.1377 -0.2266
10805SOL    HW133314   4.044   4.444   6.659 -3.0373 -0.5853 -0.3101
10805SOL    HW233315   4.122   4.436   6.516  0.6341 -0.2531  1.5761
10806SOL     OW33316   6.826   2.676   5.133  0.2860 -0.3685 -0.2184
10806SOL    HW133317   6.764   2.599   5.125  0.4201 -0.8542  2.3659
10806SOL    HW233318   6.919   2.643   5.149  0.3439  0.2910  0.9243
10807SOL     OW33319   5.784   3.160   5.780  0.5421  0.5997  0.2222
10807SOL    HW133320   5.804   3.246   5.735 -0.3992  1.3624  1.1920
10807SOL    HW233321   5.741   3.178   5.869  0.3749 -0.8637  0.4696
10808SOL     OW33322   6.925   3.036   1.103 -0.4466 -0.0989 -0.1340
10808SOL    HW133323   6.898   3.046   1.199  0.4421 -0.7918  0.2026
10808SOL    HW233324   6.888   2.950   1.067  1.4630 -1.2262  0.4294
10809SOL     OW33325   1.258   1.067   3.916  0.3740 -0.3206  0.5386
10809SOL    HW133326   1.344   1.095   3.873 -0.5803 -0.0908 -1.3336
10809SOL    HW233327   1.182   1.111   3.868 -0.7289  1.9206  4.0168
10810SOL     OW33328   1.762   0.912   0.297  0.5347 -0.1215 -0.1877
10810SOL    HW133329   1.712   0.936   0.214 -1.5374 -1.6439  0.5361
10810SOL    HW233330   1.854   0.881   0.273  0.0416 -0.3538 -1.8789
10811SOL     OW33331   3.817   3.549   6.023 -0.6952  0.5842  0.3661
10811SOL    HW133332   3.858   3.603   5.949 -0.3511 -0.3447 -0.1351
10811SOL    HW233333   3.855   3.579   6.110  2.8206 -1.6283 -0.1866
10812SOL     OW33334   6.850   3.302   3.997  0.2618  0.7392 -0.3143
10812SOL    HW133335   6.917   3.232   3.969 -0.4748  0.6797 -2.0952
10812SOL    HW233336   6.853   3.378   3.931 -2.4243  0.0459 -1.3422
10813SOL     OW33337   1.877   5.435   3.233  0.3436  0.4311 -0.0078
10813SOL    HW133338   1.929   5.447   3.149  1.7660  0.6372  0.8617
10813SOL    HW233339   1.896   5.344   3.271 -0.8964  0.0385 -0.2947
10814SOL     OW33340   0.942   1.408   4.931  0.5338 -0.2880 -0.5721
10814SOL    HW133341   0.894   1.449   4.854  1.3401 -0.6739 -1.2878
10814SOL    HW233342   0.894   1.432   5.016 -0.5414 -0.1139 -1.2015
10815SOL     OW33343   5.642   2.862   0.998 -0.4253 -0.2922  0.2830
10815SOL    HW133344   5.740   2.868   0.978 -0.0504 -1.3997  1.5941
10815SOL    HW233345   5.590   2.901   0.922  1.0374  0.8728 -0.1685
10816SOL     OW33346   2.318   2.061   2.211 -0.1210 -0.4186  0.0177
10816SOL    HW133347   2.256   2.006   2.268 -0.4280 -0.9352 -0.7970
10816SOL    HW233348   2.313   2.028   2.117  0.8250  0.0428 -0.1942
10817SOL     OW33349   4.376   2.061   0.787 -0.1203 -0.6366 -0.5269
10817SOL    HW133350   4.320   2.140   0.766 -0.0712 -0.8261 -1.3801
10817SOL    HW233351   4.423   2.076   0.875 -0.1003  0.2771 -0.6857
10818SOL     OW33352   3.293   2.865   2.105 -0.0690  0.2669 -0.5212
10818SOL    HW133353   3.200   2.844   2.076  0.0747  0.3129 -1.0202
10818SOL    HW233354   3.303   2.964   2.118 -0.9453  0.0503  2.5112
10819SOL     OW33355   1.827   3.127   2.941  0.4687  0.0088 -0.3220
10819SOL    HW133356   1.814   3.039   2.986  0.5657  1.2650  2.3510
10819SOL    HW233357   1.757   3.191   2.973  1.2960  1.3199 -1.0659
10820SOL     OW33358   0.710   0.283   6.797 -0.3291  0.3254 -0.0139
10820SOL    HW133359   0.766   0.257   6.875 -1.5623  0.2749  0.8898
10820SOL    HW233360   0.748   0.244   6.714  1.1041  0.5138  0.5210
10821SOL     OW33361   5.578   0.570   6.530  0.1379  0.2960 -0.1683
10821SOL    HW133362   5.522   0.583   6.612 -0.6782  2.2916 -0.9737
10821SOL    HW233363   5.537   0.618   6.453  1.4111 -0.7035 -1.5343
10822SOL     OW33364   6.939   6.732   0.496  0.0340  0.2566 -0.2386
10822SOL    HW133365   7.013   6.688   0.548 -0.4215 -0.6152 -0.3056
10822SOL    HW233366   6.953   6.714   0.398  0.9386  1.9625 -0.4663
10823SOL     OW33367   3.761   2.435   0.825 -0.0360 -0.1337 -0.2135
10823SOL    HW133368   3.794   2.361   0.882  1.0470  0.3150 -0.2414
10823SOL    HW233369   3.758   2.520   0.878 -1.2361 -0.1778 -0.1883
10824SOL     OW33370   4.374   2.006   4.148  0.3405 -0.2583  0.2401
10824SOL    HW133371   4.280   2.011   4.184 -0.9645 -0.0571 -2.8622
10824SOL    HW233372   4.403   1.911   4.146 -0.2121 -0.4345  0.2472
10825SOL     OW33373   4.345   2.348   1.004 -0.1674 -0.6440  0.4805
10825SOL    HW133374   4.314   2.380   1.093 -0.2311  3.1429 -0.7599
10825SOL    HW233375   4.413   2.275   1.018 -2.7858 -2.8004  3.4148
10826SOL     OW33376   0.904   1.689   0.088 -0.3971  0.1625  0.2207
10826SOL    HW133377   0.932   1.645   0.003  2.1754 -2.8641  2.3723
10826SOL    HW233378   0.949   1.778   0.095 -0.7267  0.5089 -1.5621
10827SOL     OW33379   6.961   2.031   5.525 -0.5761  0.0869 -0.0039
10827SOL    HW133380   6.928   2.124   5.510  1.2435  0.7290 -0.3349
10827SOL    HW233381   7.061   2.031   5.525 -0.5347 -1.9345 -0.2943
10828SOL     OW33382   1.226   5.464   6.431 -0.7843  0.3734  0.3787
10828SOL    HW133383   1.243   5.368   6.456  3.6960  0.8383 -0.0462
10828SOL    HW233384   1.227   5.472   6.331  0.0144  0.9754  0.4279
10829SOL     OW33385   0.942   5.615   1.795  0.6231 -0.2224 -0.8445
10829SOL    HW133386   1.001   5.651   1.723 -1.1034 -0.1855 -2.2991
10829SOL    HW233387   0.849   5.603   1.760 -0.0501 -1.1696  1.1017
10830SOL     OW33388   5.714   2.520   3.842  0.2987 -0.6068 -0.5229
10830SOL    HW133389   5.694   2.521   3.744  1.1585  1.3405 -0.7084
10830SOL    HW233390   5.800   2.567   3.859  0.5773 -1.6250  1.1131
10831SOL     OW33391   5.221   3.443   1.782  0.0593 -0.5678  0.0038
10831SOL    HW133392   5.211   3.385   1.701  0.2096  1.1324 -1.2921
10831SOL    HW233393   5.202   3.389   1.864 -1.1314 -2.1009 -1.2078
10832SOL     OW33394   1.897   2.909   2.320 -0.1160 -0.7631 -0.5530
10832SOL    HW133395   1.877   2.813   2.338 -0.3380 -0.7602 -0.7770
10832SOL    HW233396   1.865   2.965   2.396  0.6199 -0.9277 -0.1057
10833SOL     OW33397   4.969   7.007   3.592 -0.4336  0.0211 -0.1620
10833SOL    HW133398   4.923   6.918   3.588 -0.0237 -0.1740 -0.6597
10833SOL    HW233399   4.993   7.036   3.500 -1.2156  1.0005 -0.0661
10834SOL     OW33400   6.574   2.436   0.310  0.0269  0.3130 -0.0618
10834SOL    HW133401   6.562   2.352   0.256  0.4979 -0.7936  1.4711
10834SOL    HW233402   6.668   2.467   0.303  0.0231  0.3194 -0.0843
10835SOL     OW33403   1.148   1.641   1.371 -0.3154 -0.2365  0.1363
10835SOL    HW133404   1.098   1.692   1.441  2.0498  0.8273  1.1695
10835SOL    HW233405   1.149   1.693   1.285  0.3951  0.5387  0.6021
10836SOL     OW33406   6.580   0.515   1.429 -0.3740  0.0434  0.0578
10836SOL    HW133407   6.622   0.533   1.340 -1.2246  2.4441  0.0747
10836SOL    HW233408   6.593   0.594   1.489 -2.5952 -0.1839  0.9482
10837SOL     OW33409   2.005   3.703   0.013  0.2525 -0.4474  0.4000
10837SOL    HW133410   2.040   3.642   0.084 -0.6579 -1.3857  0.0680
10837SOL    HW233411   2.060   3.787   0.011 -0.0285 -0.1537  2.5871
10838SOL     OW33412   4.657   6.726   0.779 -0.3919  0.2651  0.2178
10838SOL    HW133413   4.628   6.643   0.731  0.3744  0.7642 -1.1634
10838SOL    HW233414   4.582   6.762   0.834 -1.7284  0.3917 -1.6329
10839SOL     OW33415   0.615   6.496   0.058  0.2504 -0.1456 -0.0912
10839SOL    HW133416   0.568   6.410   0.037  0.7664 -0.4478 -0.0441
10839SOL    HW233417   0.575   6.538   0.139  2.1574 -2.0996  2.0111
10840SOL     OW33418   2.058   6.791   3.781  0.1384 -0.5861  0.3394
10840SOL    HW133419   2.104   6.828   3.862  1.8866 -1.8264 -0.0135
10840SOL    HW233420   2.089   6.841   3.700 -0.3151 -0.4347  0.2600
10841SOL     OW33421   5.447   4.264   4.982  0.0013 -0.0487 -0.7187
10841SOL    HW133422   5.431   4.173   5.018 -4.7670  1.2130  1.0974
10841SOL    HW233423   5.488   4.322   5.053 -0.3355  0.0582 -0.6068
10842SOL     OW33424   3.974   2.012   2.461  0.2290 -0.4084  0.2960
10842SOL    HW133425   3.943   2.065   2.382 -1.3417 -0.8465  0.5789
10842SOL    HW233426   4.031   1.936   2.430  1.0096  0.3884 -0.2559
10843SOL     OW33427   1.888   0.922   3.438  0.1173  0.3216 -0.3461
10843SOL    HW133428   1.923   0.829   3.425  1.8263  0.4754  2.3346
10843SOL    HW233429   1.805   0.918   3.494 -0.8209  0.3584 -1.6826
10844SOL     OW33430   1.438   5.282   3.804 -0.2557  0.1755  0.2659
10844SOL    HW133431   1.433   5.367   3.752 -1.6438  0.0256  0.1249
10844SOL    HW233432   1.520   5.283   3.861  0.9973  0.5926 -1.4655
10845SOL     OW33433   2.243   3.546   1.513 -0.0497  0.3572 -0.4847
10845SOL    HW133434   2.309   3.472   1.524 -0.9452 -0.3990 -0.0241
10845SOL    HW233435   2.231   3.593   1.601  2.9512  3.2696 -1.4023
10846SOL     OW33436   2.299   2.273   1.516 -0.1615 -0.7959 -0.0513
10846SOL    HW133437   2.376   2.328   1.549  0.1753 -0.3495 -1.4812
10846SOL    HW233438   2.318   2.177   1.533  0.2283 -0.6170  0.5707
10847SOL     OW33439   4.785   2.830   4.919  0.5173  0.4426  0.8512
10847SOL    HW133440   4.775   2.822   4.820  0.2461 -2.1143  1.0171
10847SOL    HW233441   4.731   2.759   4.964 -1.1190  2.8525  2.9823
10848SOL     OW33442   3.550   1.633   0.034 -0.4827 -0.5265  0.4958
10848SOL    HW133443   3.551   1.699  -0.040 -0.7080 -0.5881  0.4390
10848SOL    HW233444   3.557   1.680   0.122 -0.8135 -0.4170  0.4641
10849SOL     OW33445   0.049   4.542   4.377 -0.3436 -0.1857  0.4511
10849SOL    HW133446   0.123   4.548   4.309 -0.9665 -0.0489 -0.2344
10849SOL    HW233447   0.085   4.562   4.468  0.1525  1.5723 -0.0983
10850SOL     OW33448   6.531   2.401   4.654  0.4656  0.2342 -0.1486
10850SOL    HW133449   6.495   2.484   4.696  3.1916  0.5597  1.7855
10850SOL    HW233450   6.595   2.426   4.581  0.2475 -0.2324 -0.5060
10851SOL     OW33451   7.020   3.106   6.908  1.0394  0.0745 -0.2614
10851SOL    HW133452   7.040   3.135   7.001  0.0674 -0.3451  0.0840
10851SOL    HW233453   6.963   3.174   6.863  1.0014 -0.0115 -0.3456
10852SOL     OW33454   6.337   1.588   5.182  0.3196 -0.3534 -0.0350
10852SOL    HW133455   6.300   1.557   5.095 -0.0030 -0.8469  0.2652
10852SOL    HW233456   6.323   1.686   5.192  0.8626 -0.1959 -0.7735
10853SOL     OW33457   1.592   1.319   5.669 -0.2196 -0.2148  0.3473
10853SOL    HW133458   1.517   1.299   5.731 -0.1291  1.9425  1.2267
10853SOL    HW233459   1.595   1.250   5.596 -3.4274 -0.0160 -0.0843
10854SOL     OW33460   4.662   0.961   0.303  0.1950  0.7505  0.1929
10854SOL    HW133461   4.570   1.001   0.301  0.4265  1.3039  0.3976
10854SOL    HW233462   4.671   0.895   0.228 -0.3515  0.7266  0.1418
10855SOL     OW33463   0.561   4.792   1.322 -0.2922 -0.1489 -0.3059
10855SOL    HW133464   0.652   4.771   1.285 -0.4133 -0.3069 -0.5146
10855SOL    HW233465   0.557   4.888   1.347  0.6639 -0.5789  1.7542
10856SOL     OW33466   3.701   6.188   0.301 -0.7362  0.5328 -0.0973
10856SOL    HW133467   3.794   6.155   0.319 -0.9574  0.9326  2.0285
10856SOL    HW233468   3.705   6.279   0.261 -0.1958  0.7045  0.3307
10857SOL     OW33469   5.837   0.046   2.786  0.2488 -0.1179  0.4372
10857SOL    HW133470   5.841  -0.005   2.872 -0.3543 -1.0152 -0.0549
10857SOL    HW233471   5.819   0.142   2.805  1.4563 -0.0539  1.3811
10858SOL     OW33472   1.862   1.694   0.721  0.9719  0.3614 -0.0032
10858SOL    HW133473   1.839   1.778   0.770  1.0274 -1.3320  3.2699
10858SOL    HW233474   1.961   1.688   0.710  1.2327 -0.3978  2.2333
10859SOL     OW33475   1.037   4.874   2.124  0.0583  0.3159 -0.0412
10859SOL    HW133476   1.037   4.934   2.204  0.7598  1.1156 -0.6235
10859SOL    HW233477   0.947   4.831   2.115 -0.2695  0.8121  0.7326
10860SOL     OW33478   4.491   1.189   2.857  0.0631 -0.3495  0.2621
10860SOL    HW133479   4.508   1.279   2.898 -0.9560  0.9462 -1.9712
10860SOL    HW233480   4.541   1.182   2.771 -0.8869 -1.3969 -0.2259
10861SOL     OW33481   3.758   5.779   1.199 -0.2358 -0.0054 -0.4423
10861SOL    HW133482   3.765   5.857   1.137 -0.7924  1.3493  1.1137
10861SOL    HW233483   3.667   5.777   1.240 -0.1785 -1.4018 -0.3205
10862SOL     OW33484   4.328   3.893   5.295  0.2177  0.4670  0.2428
10862SOL    HW133485   4.362   3.985   5.278 -1.1559  0.6497 -1.8927
10862SOL    HW233486   4.237   3.899   5.336 -0.3457  0.1148 -0.9098
10863SOL     OW33487   6.572   1.035   4.228 -0.5278  0.4968 -0.0637
10863SOL    HW133488   6.538   0.987   4.147  1.7431 -1.5540  0.1059
10863SOL    HW233489   6.523   1.003   4.309  0.2141 -0.7727 -0.0967
10864SOL     OW33490   2.397   3.831   0.241  0.7160  0.3742  0.2491
10864SOL    HW133491   2.343   3.750   0.265  0.2589  0.7389  0.4732
10864SOL    HW233492   2.341   3.913   0.255  1.0206  0.7011 -0.4240
10865SOL     OW33493   5.609   3.211   3.198 -0.2222  0.2598  0.1344
10865SOL    HW133494   5.624   3.263   3.283 -0.2515  2.1771 -0.9791
10865SOL    HW233495   5.693   3.163   3.173 -0.4287 -0.9666  1.6112
10866SOL     OW33496   0.128   3.151   4.694  0.0353 -0.3288  0.1478
10866SOL    HW133497   0.033   3.130   4.717 -0.3868 -0.1822 -1.3217
10866SOL    HW233498   0.161   3.084   4.627  1.4936 -1.2872  1.7389
10867SOL     OW33499   5.732   4.413   2.023 -0.0390 -0.1189  0.2498
10867SOL    HW133500   5.637   4.405   2.054  0.4157 -0.0975  1.7414
10867SOL    HW233501   5.770   4.499   2.056  1.0211 -0.9270  1.2217
10868SOL     OW33502   0.737   0.176   5.102 -0.1997  0.6086 -0.7955
10868SOL    HW133503   0.653   0.177   5.156  0.9887  0.5410  1.1248
10868SOL    HW233504   0.784   0.263   5.111  1.5635 -0.4479  0.8676
10869NA      NA33505   0.075   1.371   6.135  0.6738  0.0971  0.0487
10870NA      NA33506   5.049   4.770   3.625  0.1052  0.2643 -0.1147
10871NA      NA33507   0.480   3.420   3.451 -0.3679  0.0203 -0.2401
10872NA      NA33508   0.385   2.835   2.912 -0.4256 -0.1526 -0.1350
10873NA      NA33509   4.384   2.425   5.192 -0.0825 -0.0581  0.0706
10874NA      NA33510   2.600   4.617   5.937  0.6226 -0.3273 -0.4069
10875NA      NA33511   2.738   4.957   1.151 -0.6625  0.1769 -0.2378
10876NA      NA33512   5.542   6.281   1.845  0.0658 -0.0734  0.4204
10877NA      NA33513   5.819   4.905   2.503  0.4162  0.0241 -0.2835
10878NA      NA33514   2.914   0.669   1.417  0.0245 -0.4359  0.1517
10879NA      NA33515   5.035   6.045   0.496 -0.0333 -0.1793  0.3914
10880NA      NA33516   3.729   6.449   3.488 -0.0541 -0.1799  0.0254
10881NA      NA33517   4.068   5.744   2.419 -0.0315 -0.1376  0.1963
10882NA      NA33518   5.186   5.262   5.345 -0.4984 -0.2566 -0.1756
   7.02383   7.02383   7.02383
