CNT in water
33518
    1C        C    1   2.839   2.767   4.749 -0.3053 -0.3901  0.1493
    1C        C    2   2.896   2.715   4.867  0.3065 -0.0255  0.0239
    1C        C    3   2.844   2.767   4.986  0.0081  0.2048 -0.2059
    1C        C    4   2.846   2.771   4.262 -0.6609 -0.2427 -0.1041
    1C        C    5   2.902   2.728   4.385 -0.2368 -0.1917 -0.2774
    1C        C    6   2.841   2.767   4.506  0.4173  0.1693 -0.0582
    1C        C    7   3.014   2.644   4.626 -0.2920 -0.3064  0.0636
    1C        C    8   2.898   2.724   4.628 -0.1543 -0.1039  0.1182
    1C        C    9   3.077   2.606   4.747 -0.1385 -0.2682 -0.0028
    1C        C   10   3.008   2.629   4.867 -0.0833 -0.5372  0.0827
    1C        C   11   3.178   2.488   4.978 -0.1187 -0.2029  0.2601
    1C        C   12   3.055   2.553   4.976 -0.1619 -0.2816  0.2955
    1C        C   13   2.847   2.765   3.772 -0.7938 -0.8560  0.0719
    1C        C   14   2.898   2.719   3.895 -0.3717 -0.7625 -0.0639
    1C        C   15   2.843   2.764   4.017 -0.3488 -0.5023 -0.1473
    1C        C   16   3.018   2.647   4.141  0.0689  0.5161  0.1804
    1C        C   17   2.901   2.727   4.140 -0.3501 -0.0917 -0.0195
    1C        C   18   3.079   2.611   4.263 -0.1217 -0.1886  0.0711
    1C        C   19   3.019   2.650   4.385 -0.1263 -0.0289  0.0183
    1C        C   20   3.212   2.559   4.506 -0.0327  0.1812  0.1317
    1C        C   21   3.081   2.612   4.506  0.0518  0.3916  0.0617
    1C        C   22   3.279   2.534   4.628 -0.1172 -0.4285  0.0583
    1C        C   23   3.208   2.551   4.749 -0.2847 -0.6238 -0.0107
    1C        C   24   3.412   2.491   4.869 -0.1778  0.5180  0.4610
    1C        C   25   3.270   2.506   4.869 -0.2581 -0.1654  0.1485
    1C        C   26   3.488   2.483   4.986  0.0240 -0.0120  0.2997
    1C        C   27   2.844   2.762   3.283 -0.1163  0.1213  0.1428
    1C        C   28   2.905   2.726   3.405 -0.0848 -0.0145  0.0876
    1C        C   29   2.851   2.770   3.528  0.0699 -0.0060  0.1528
    1C        C   30   3.020   2.643   3.651 -0.1842 -0.0767  0.4185
    1C        C   31   2.902   2.721   3.650 -0.9054 -1.1498  0.1257
    1C        C   32   3.082   2.613   3.774 -0.0058 -0.1852  0.3024
    1C        C   33   3.016   2.641   3.896 -0.3167 -0.6790  0.2542
    1C        C   34   3.210   2.559   4.018  0.1836  0.4929  0.2535
    1C        C   35   3.078   2.611   4.019  0.0365  0.1199  0.2821
    1C        C   36   3.273   2.528   4.140  0.1367 -0.1267  0.1216
    1C        C   37   3.209   2.556   4.262 -0.0470 -0.0140 -0.0003
    1C        C   38   3.416   2.506   4.382  0.0637  0.6724  0.2020
    1C        C   39   3.277   2.531   4.384  0.0520  0.6230  0.0758
    1C        C   40   3.486   2.492   4.504  0.1807  0.4114  0.1060
    1C        C   41   3.417   2.503   4.626 -0.0145  0.0224  0.0338
    1C        C   42   3.627   2.491   4.745 -0.3810 -0.2106  0.2679
    1C        C   43   3.486   2.482   4.747 -0.4177  0.3606  0.3245
    1C        C   44   3.702   2.490   4.865  0.0293  0.1180  0.0152
    1C        C   45   3.627   2.482   4.983  0.0211  0.1525  0.0126
    1C        C   46   2.841   2.758   2.794  0.2004  0.1859  0.0583
    1C        C   47   2.895   2.712   2.916 -0.1885 -0.4490 -0.0074
    1C        C   48   2.839   2.755   3.039 -0.0231 -0.4048  0.0526
    1C        C   49   3.017   2.641   3.163 -0.2074 -0.3522  0.3784
    1C        C   50   2.895   2.713   3.161  0.1333  0.2307  0.2026
    1C        C   51   3.080   2.607   3.285 -0.4681 -0.7213  0.4096
    1C        C   52   3.020   2.645   3.407 -0.1544 -0.1058  0.3744
    1C        C   53   3.208   2.545   3.528 -0.2554 -0.2007 -0.1414
    1C        C   54   3.083   2.610   3.529  0.0342  0.3555  0.4116
    1C        C   55   3.275   2.524   3.651 -0.0989  0.0588 -0.1831
    1C        C   56   3.211   2.555   3.773  0.1495  0.1708 -0.0813
    1C        C   57   3.414   2.502   3.894 -0.2454 -0.2718 -0.1142
    1C        C   58   3.276   2.532   3.896 -0.0689  0.5455  0.1050
    1C        C   59   3.483   2.497   4.016 -0.3546  0.2947 -0.0253
    1C        C   60   3.412   2.504   4.139  0.2129  0.2962  0.3057
    1C        C   61   3.627   2.502   4.260  0.2147 -0.0872  0.2057
    1C        C   62   3.486   2.502   4.259  0.2142 -0.0204  0.3034
    1C        C   63   3.698   2.513   4.382  0.2545 -0.2174  0.1961
    1C        C   64   3.627   2.502   4.503  0.2200 -0.0919  0.1878
    1C        C   65   3.834   2.550   4.623 -0.4378  0.8985 -0.0392
    1C        C   66   3.698   2.512   4.625 -0.1592 -0.1138  0.4117
    1C        C   67   3.905   2.564   4.744 -0.4811  0.9247 -0.0156
    1C        C   68   3.840   2.523   4.862  0.0247  0.1389 -0.0024
    1C        C   69   4.045   2.585   4.977  0.2639 -0.1490 -0.4137
    1C        C   70   3.918   2.526   4.978  0.1796  0.0360 -0.1016
    1C        C   71   2.825   2.738   2.309 -0.1649  0.3504 -0.2963
    1C        C   72   2.889   2.702   2.430  0.1873  0.3906 -0.4696
    1C        C   73   2.836   2.751   2.551  0.3240 -0.0863 -0.2146
    1C        C   74   3.007   2.625   2.675  0.1657  0.2769  0.0218
    1C        C   75   2.890   2.704   2.673  0.1944  0.3164 -0.0008
    1C        C   76   3.072   2.598   2.797  0.1999  0.1789 -0.0194
    1C        C   77   3.017   2.640   2.920 -0.1477 -0.3762  0.0195
    1C        C   78   3.210   2.553   3.038 -0.2729 -0.0662  0.0027
    1C        C   79   3.078   2.604   3.041 -0.1283  0.2977  0.2146
    1C        C   80   3.278   2.531   3.160 -0.1244  0.1761 -0.0385
    1C        C   81   3.210   2.552   3.282 -0.1308  0.0841 -0.0288
    1C        C   82   3.414   2.501   3.406 -0.1459 -0.3917  0.1320
    1C        C   83   3.275   2.527   3.405 -0.0569  0.0731 -0.0737
    1C        C   84   3.485   2.495   3.528 -0.0816  0.0035  0.1126
    1C        C   85   3.413   2.498   3.650 -0.1500 -0.2141  0.0756
    1C        C   86   3.625   2.501   3.771  0.0848 -0.3605 -0.0164
    1C        C   87   3.484   2.493   3.772  0.0362  0.4264 -0.0061
    1C        C   88   3.693   2.515   3.894 -0.1517  0.3179  0.0431
    1C        C   89   3.624   2.503   4.017 -0.3611  0.4299 -0.0642
    1C        C   90   3.832   2.546   4.137 -0.2729  0.1160 -0.2527
    1C        C   91   3.696   2.508   4.138 -0.3206  0.2871 -0.0830
    1C        C   92   3.903   2.566   4.258 -0.2180 -0.5897 -0.1646
    1C        C   93   3.835   2.547   4.380  0.1962  0.0239  0.1668
    1C        C   94   4.025   2.645   4.502  0.3159 -0.0229 -0.0562
    1C        C   95   3.899   2.581   4.502  0.0457  0.4972  0.1139
    1C        C   96   4.086   2.680   4.624  0.1321  0.1187 -0.0028
    1C        C   97   4.030   2.632   4.745  0.0579 -0.0393 -0.0987
    1C        C   98   4.188   2.769   4.864  0.9161 -0.4366 -0.0981
    1C        C   99   4.100   2.656   4.866  0.3640 -0.0145 -0.2784
    1C        C  100   4.210   2.850   4.977 -0.1374  0.5877 -0.6082
    1C        C  101   2.829   2.736   2.070 -0.2568  0.3190 -0.0381
    1C        C  102   2.992   2.597   2.191 -0.2429  0.0745 -0.3247
    1C        C  103   2.876   2.681   2.190 -0.3347 -0.0497 -0.1773
    1C        C  104   3.066   2.581   2.311 -0.2255  0.6580 -0.2552
    1C        C  105   3.008   2.626   2.432 -0.1793 -0.1834  0.0878
    1C        C  106   3.203   2.541   2.551  0.1103  0.1052  0.2639
    1C        C  107   3.073   2.596   2.553  0.2868  0.5385  0.0256
    1C        C  108   3.271   2.521   2.673  0.0397 -0.4256  0.2166
    1C        C  109   3.203   2.547   2.794  0.1256 -0.0246  0.1781
    1C        C  110   3.413   2.506   2.917  0.0634  0.0690 -0.1306
    1C        C  111   3.273   2.527   2.915 -0.0046 -0.3414  0.1998
    1C        C  112   3.484   2.492   3.038 -0.2143  0.3270  0.0606
    1C        C  113   3.416   2.504   3.162 -0.1838 -0.1064  0.1174
    1C        C  114   3.626   2.500   3.282 -0.1722  0.2662  0.2168
    1C        C  115   3.485   2.493   3.284 -0.1571 -0.0140  0.1065
    1C        C  116   3.696   2.511   3.404  0.1842 -0.0539  0.0384
    1C        C  117   3.626   2.500   3.526 -0.0986  0.3262 -0.0949
    1C        C  118   3.832   2.546   3.648 -0.0591 -0.1010 -0.0537
    1C        C  119   3.695   2.513   3.648 -0.0760 -0.0162 -0.0744
    1C        C  120   3.897   2.571   3.771 -0.0715 -0.3446 -0.0004
    1C        C  121   3.830   2.547   3.893 -0.1570  0.3343  0.0853
    1C        C  122   4.017   2.648   4.013  0.2873 -0.1407 -0.1911
    1C        C  123   3.897   2.574   4.015  0.1626  0.0661 -0.0337
    1C        C  124   4.081   2.679   4.135 -0.5704  0.4439  0.1180
    1C        C  125   4.026   2.636   4.258 -0.6379  0.1603 -0.0120
    1C        C  126   4.196   2.766   4.376 -0.1488  0.1331 -0.1162
    1C        C  127   4.084   2.680   4.378 -0.1286  0.1045 -0.2355
    1C        C  128   4.247   2.816   4.498 -0.2833 -0.1345  0.0497
    1C        C  129   4.193   2.772   4.621  0.5823 -0.3845  0.3494
    1C        C  130   4.325   2.937   4.741  0.1286  0.5512 -0.0324
    1C        C  131   4.244   2.820   4.744  0.8443  0.0472  0.0740
    1C        C  132   4.359   3.003   4.861  0.0728  0.2535  0.1481
    1C        C  133   4.299   2.956   4.978 -0.1152  0.5646  0.1756
    1C        C  134   3.173   2.467   2.082 -0.1220  0.0401 -0.2668
    1C        C  135   3.042   2.516   2.084 -0.2690 -0.3584 -0.0087
    1C        C  136   3.261   2.483   2.190 -0.5779  0.4250  0.0514
    1C        C  137   3.199   2.529   2.308 -0.1608  0.7962  0.1267
    1C        C  138   3.407   2.483   2.432 -0.2323 -0.0340 -0.0305
    1C        C  139   3.271   2.518   2.429 -0.2039  0.0880  0.0925
    1C        C  140   3.481   2.482   2.553  0.0441 -0.1999 -0.2020
    1C        C  141   3.410   2.493   2.674  0.2640  0.6431 -0.1492
    1C        C  142   3.623   2.503   2.792  0.1290 -0.0442  0.2043
    1C        C  143   3.482   2.494   2.795  0.1369 -0.2291 -0.0598
    1C        C  144   3.693   2.512   2.914 -0.0200  0.1245  0.2733
    1C        C  145   3.625   2.502   3.038 -0.1853 -0.1123  0.1595
    1C        C  146   3.832   2.539   3.158 -0.3194  0.9268 -0.0966
    1C        C  147   3.697   2.499   3.159 -0.2149  0.5976  0.1937
    1C        C  148   3.899   2.567   3.279 -0.1189  0.6968 -0.1623
    1C        C  149   3.832   2.549   3.402  0.0503  0.4011 -0.1175
    1C        C  150   4.025   2.630   3.524 -0.3416  0.6514 -0.2971
    1C        C  151   3.899   2.567   3.525 -0.0702  0.1240 -0.0171
    1C        C  152   4.079   2.676   3.646 -0.2619  0.1758 -0.1567
    1C        C  153   4.020   2.641   3.769 -0.2067 -0.1208 -0.2173
    1C        C  154   4.196   2.760   3.891  0.2310 -0.4669  0.0733
    1C        C  155   4.078   2.683   3.891  0.1506 -0.3420 -0.3139
    1C        C  156   4.250   2.809   4.012 -0.1382  0.1309 -0.0010
    1C        C  157   4.195   2.762   4.134 -0.2584  0.0147 -0.1014
    1C        C  158   4.336   2.925   4.254  0.8638 -0.8389 -0.0382
    1C        C  159   4.245   2.817   4.254  0.1980 -0.2876 -0.1535
    1C        C  160   4.375   2.985   4.375  0.1333 -0.3710 -0.0314
    1C        C  161   4.333   2.928   4.498 -0.0315 -0.3268 -0.0682
    1C        C  162   4.435   3.117   4.616  0.0915 -0.0250 -0.3720
    1C        C  163   4.369   2.992   4.618  0.3549 -0.1607 -0.2720
    1C        C  164   4.460   3.186   4.736  0.0820 -0.1911 -0.2760
    1C        C  165   4.435   3.122   4.860 -0.0812  0.3490 -0.0290
    1C        C  166   4.520   3.320   4.971  0.8180 -0.0099 -0.1907
    1C        C  167   4.485   3.186   4.974  0.5055  0.0723 -0.1309
    1C        C  168   3.477   2.440   2.078  0.2510  0.3857  0.7975
    1C        C  169   3.400   2.460   2.193 -0.6494  0.0045  0.2690
    1C        C  170   3.619   2.477   2.308 -0.2965  0.3335 -0.2241
    1C        C  171   3.477   2.464   2.311 -0.2366 -0.3028  0.0101
    1C        C  172   3.693   2.496   2.427 -0.4062  0.7661 -0.2259
    1C        C  173   3.622   2.490   2.549 -0.0226  1.1683  0.0170
    1C        C  174   3.829   2.546   2.667  0.0906 -0.1927  0.0046
    1C        C  175   3.693   2.510   2.670  0.0937 -0.1801  0.1798
    1C        C  176   3.899   2.563   2.789  0.1006  0.0776 -0.0444
    1C        C  177   3.829   2.548   2.911  0.0752 -0.2845 -0.1103
    1C        C  178   4.018   2.634   3.033  0.2589 -0.4412 -0.0111
    1C        C  179   3.895   2.565   3.035  0.0129  0.0005 -0.1238
    1C        C  180   4.085   2.664   3.154  0.2651 -0.2992 -0.0549
    1C        C  181   4.027   2.627   3.278  0.2544 -0.0935 -0.0048
    1C        C  182   4.196   2.751   3.402  0.1116  0.3463  0.4572
    1C        C  183   4.086   2.663   3.401  0.3980 -0.0019 -0.1057
    1C        C  184   4.248   2.803   3.523  0.3518 -0.0922  0.5372
    1C        C  185   4.191   2.763   3.646 -0.3424  0.2779  0.3337
    1C        C  186   4.335   2.917   3.764  0.3943 -0.1365 -0.1162
    1C        C  187   4.245   2.808   3.768 -0.1423  0.3158  0.2255
    1C        C  188   4.372   2.977   3.887 -0.0132  0.1655 -0.1425
    1C        C  189   4.337   2.920   4.011 -0.4109  0.3421 -0.1760
    1C        C  190   4.442   3.107   4.128  0.3377 -0.4053 -0.0786
    1C        C  191   4.375   2.983   4.131  0.1866 -0.3185 -0.0166
    1C        C  192   4.464   3.174   4.250  0.1762 -0.5698  0.0380
    1C        C  193   4.436   3.113   4.374  0.3062 -0.4527  0.1245
    1C        C  194   4.500   3.317   4.493 -0.3253  0.2488  0.1994
    1C        C  195   4.467   3.180   4.494  0.5853  0.0240 -0.2150
    1C        C  196   4.516   3.390   4.613 -0.0135  0.4218  0.0513
    1C        C  197   4.499   3.322   4.735  0.6087 -0.3393 -0.2765
    1C        C  198   4.551   3.537   4.853 -0.3507  0.0638 -0.0076
    1C        C  199   4.531   3.395   4.853 -0.2826  0.0512 -0.2649
    1C        C  200   4.582   3.623   4.963 -0.3457 -0.1184  0.1366
    1C        C  201   3.616   2.422   2.078  0.2315  0.1936 -0.1138
    1C        C  202   3.828   2.519   2.184  0.1521 -0.2129 -0.1533
    1C        C  203   3.694   2.471   2.188  0.3424 -0.7175  0.2141
    1C        C  204   3.899   2.548   2.304 -0.2345 -0.0895  0.0447
    1C        C  205   3.830   2.529   2.425 -0.2551  0.1636  0.0675
    1C        C  206   4.029   2.615   2.547  0.1092 -0.3577  0.0790
    1C        C  207   3.897   2.565   2.545 -0.0679  0.1215 -0.0293
    1C        C  208   4.085   2.660   2.668 -0.0488 -0.3562  0.1452
    1C        C  209   4.025   2.628   2.791  0.1778 -0.0936  0.3198
    1C        C  210   4.199   2.750   2.910  0.2304  0.1945 -0.2269
    1C        C  211   4.083   2.670   2.913  0.3674  0.0151  0.1851
    1C        C  212   4.254   2.794   3.033 -0.5212  0.1654  0.1252
    1C        C  213   4.200   2.746   3.154 -0.3638  0.5969  0.3668
    1C        C  214   4.332   2.908   3.277 -0.2256  0.4362 -0.2602
    1C        C  215   4.245   2.797   3.277 -0.0771  0.3189  0.3770
    1C        C  216   4.373   2.970   3.398  0.5874 -0.2721 -0.1637
    1C        C  217   4.334   2.914   3.522  0.6446 -0.3250 -0.1721
    1C        C  218   4.434   3.104   3.638  0.0839 -0.0680 -0.4069
    1C        C  219   4.376   2.975   3.642  0.3461 -0.1758 -0.1478
    1C        C  220   4.458   3.170   3.760  0.1214 -0.3824 -0.2463
    1C        C  221   4.437   3.102   3.882  0.1840  0.0646  0.0129
    1C        C  222   4.498   3.305   4.002  0.0225 -0.1064  0.1557
    1C        C  223   4.470   3.167   4.003  0.5255 -0.2054  0.0632
    1C        C  224   4.506   3.378   4.123 -0.0560  0.0266  0.0772
    1C        C  225   4.498   3.311   4.247 -0.3499 -0.4456 -0.1962
    1C        C  226   4.501   3.523   4.366 -0.3087 -0.4918 -0.2584
    1C        C  227   4.513   3.382   4.368 -0.2928 -0.4870 -0.1820
    1C        C  228   4.509   3.596   4.486 -0.0056 -0.1626 -0.4811
    1C        C  229   4.528   3.531   4.610  0.0577  0.4115 -0.1867
    1C        C  230   4.501   3.744   4.729 -0.3506  0.0623  0.2724
    1C        C  231   4.533   3.605   4.730  0.0530  0.1506 -0.0230
    1C        C  232   4.491   3.818   4.849  0.3612  0.2653  0.2107
    1C        C  233   4.540   3.757   4.965  0.2091  0.0583  0.1676
    1C        C  234   4.019   2.618   2.064  0.2390 -0.4173  0.2498
    1C        C  235   3.900   2.546   2.066  0.2583 -0.4628 -0.1452
    1C        C  236   4.087   2.651   2.182  0.0719 -0.0230  0.2352
    1C        C  237   4.027   2.611   2.304 -0.4172  0.2721  0.0885
    1C        C  238   4.202   2.737   2.424 -0.1149 -0.0842  0.0965
    1C        C  239   4.089   2.651   2.424 -0.1738 -0.0005  0.0470
    1C        C  240   4.257   2.783   2.545  0.3014 -0.4361  0.0372
    1C        C  241   4.199   2.743   2.668 -0.0109 -0.4167 -0.1093
    1C        C  242   4.349   2.898   2.787  0.2470 -0.1086 -0.1293
    1C        C  243   4.252   2.795   2.788 -0.0280  0.1517 -0.3514
    1C        C  244   4.384   2.960   2.909  0.2633 -0.3485 -0.0152
    1C        C  245   4.341   2.905   3.032  0.2672 -0.4482 -0.0598
    1C        C  246   4.431   3.095   3.152  0.0904  0.1234 -0.1113
    1C        C  247   4.370   2.968   3.155  0.2453  0.0446 -0.3049
    1C        C  248   4.459   3.163   3.273 -0.6115  0.3106 -0.0481
    1C        C  249   4.438   3.095   3.394  0.2318 -0.0845 -0.1157
    1C        C  250   4.489   3.304   3.515  0.4093  0.0270  0.2434
    1C        C  251   4.463   3.165   3.514  0.6614 -0.0175 -0.2459
    1C        C  252   4.508   3.373   3.637 -0.2435  0.3918  0.1407
    1C        C  253   4.498   3.305   3.760  0.0426 -0.3622 -0.2476
    1C        C  254   4.522   3.518   3.879 -0.3486 -0.5339 -0.0089
    1C        C  255   4.514   3.377   3.881 -0.1300 -0.5452 -0.1205
    1C        C  256   4.511   3.590   4.000 -0.4870 -0.2027 -0.2232
    1C        C  257   4.505   3.519   4.122 -0.1285  0.0224 -0.0782
    1C        C  258   4.482   3.732   4.243 -0.0176 -0.0413  0.0713
    1C        C  259   4.500   3.592   4.243 -0.3907 -0.0874 -0.0268
    1C        C  260   4.469   3.803   4.364 -0.2582 -0.2410  0.1608
    1C        C  261   4.486   3.735   4.487 -0.1810 -0.1943  0.1743
    1C        C  262   4.423   3.941   4.606  0.2271  0.0111 -0.4493
    1C        C  263   4.472   3.809   4.607  0.2210  0.0077  0.1016
    1C        C  264   4.398   4.012   4.725 -0.2353 -0.0907 -0.4829
    1C        C  265   4.434   3.947   4.845 -0.6729 -0.1937 -0.4029
    1C        C  266   4.315   4.133   4.962  0.3218 -0.1833  0.1775
    1C        C  267   4.387   4.014   4.959  0.4299 -0.1136  0.0229
    1C        C  268   4.256   2.784   2.066 -0.2269 -0.1461 -0.1907
    1C        C  269   4.202   2.733   2.185  0.0184  0.0553  0.0071
    1C        C  270   4.353   2.890   2.301 -0.6407  0.3192  0.1508
    1C        C  271   4.259   2.784   2.303  0.2765 -0.5036  0.1215
    1C        C  272   4.386   2.954   2.422 -0.5130  0.3849  0.0777
    1C        C  273   4.347   2.892   2.543  0.3234 -0.4615 -0.0761
    1C        C  274   4.443   3.084   2.664 -0.2917  0.0447 -0.2290
    1C        C  275   4.385   2.955   2.663  0.0928 -0.1265 -0.1801
    1C        C  276   4.467   3.153   2.785 -0.4094 -0.3732  0.0351
    1C        C  277   4.444   3.088   2.908 -0.1269 -0.1626  0.2007
    1C        C  278   4.497   3.293   3.027 -0.6764  0.4623 -0.6257
    1C        C  279   4.466   3.155   3.030 -0.1721  0.3532 -0.0747
    1C        C  280   4.509   3.366   3.148 -0.5758  0.1003 -0.4124
    1C        C  281   4.493   3.300   3.272  0.3058  0.0933 -0.2916
    1C        C  282   4.508   3.514   3.393  0.0931 -0.2514  0.0725
    1C        C  283   4.505   3.372   3.393 -0.3725 -0.2432 -0.0141
    1C        C  284   4.510   3.584   3.515 -0.3227 -0.0643 -0.0272
    1C        C  285   4.513   3.514   3.638 -0.9795  0.4182  0.2667
    1C        C  286   4.492   3.729   3.756 -0.9921  0.1134 -0.0483
    1C        C  287   4.514   3.589   3.758 -0.7208  0.1632  0.4219
    1C        C  288   4.473   3.796   3.878 -1.8158 -0.3455  0.0799
    1C        C  289   4.490   3.730   4.001 -1.0724 -0.2935  0.0042
    1C        C  290   4.430   3.937   4.117 -0.3853 -0.1562  0.1684
    1C        C  291   4.465   3.800   4.121 -0.5053 -0.1865  0.0620
    1C        C  292   4.408   4.003   4.240 -0.5242 -0.0977  0.1085
    1C        C  293   4.432   3.940   4.364 -0.3912 -0.2792 -0.0123
    1C        C  294   4.326   4.128   4.481 -0.8664 -0.1185  0.4495
    1C        C  295   4.399   4.007   4.483 -0.3268  0.1837 -0.2527
    1C        C  296   4.287   4.191   4.601 -0.1947  0.1821  0.5175
    1C        C  297   4.324   4.134   4.725 -0.0987  0.0036  0.4063
    1C        C  298   4.191   4.310   4.841  0.1244  0.0150 -0.1823
    1C        C  299   4.284   4.201   4.843  0.4675  0.3135  0.4256
    1C        C  300   4.169   4.401   4.950 -0.0429 -0.3970  0.1242
    1C        C  301   4.348   2.888   2.060 -0.0097 -0.3149  0.1841
    1C        C  302   4.464   3.072   2.180  0.2892 -0.5200  0.4510
    1C        C  303   4.397   2.945   2.177  0.4916 -0.6193  0.1228
    1C        C  304   4.473   3.148   2.299  0.1008  0.4228 -0.1330
    1C        C  305   4.445   3.082   2.421  0.0811  0.1128 -0.3065
    1C        C  306   4.504   3.288   2.540 -0.7982  0.1825 -0.0789
    1C        C  307   4.468   3.151   2.542 -0.0056 -0.0309 -0.2115
    1C        C  308   4.509   3.359   2.662 -0.6076  0.2052 -0.1002
    1C        C  309   4.497   3.291   2.785 -0.0602 -0.4447 -0.3990
    1C        C  310   4.516   3.505   2.904  0.6554  0.1461  0.0220
    1C        C  311   4.508   3.364   2.905 -0.2646  0.1848 -0.7534
    1C        C  312   4.511   3.577   3.025  0.8928  0.0151  0.1157
    1C        C  313   4.510   3.507   3.148 -0.1367  0.1018  0.1711
    1C        C  314   4.484   3.720   3.268  0.1425  0.0660 -0.3253
    1C        C  315   4.501   3.580   3.268 -0.7325 -0.0469  0.2215
    1C        C  316   4.474   3.791   3.390 -0.3107 -0.3320 -0.1270
    1C        C  317   4.489   3.724   3.513 -0.8569 -0.1431  0.0433
    1C        C  318   4.424   3.928   3.627 -0.2020  0.1724 -0.3337
    1C        C  319   4.478   3.798   3.633 -0.1998  0.1866 -0.1002
    1C        C  320   4.398   3.991   3.750 -0.4000 -0.4400 -0.0607
    1C        C  321   4.429   3.931   3.874 -0.9085 -0.0383  0.2662
    1C        C  322   4.320   4.116   3.992 -0.7155 -0.0492 -0.0192
    1C        C  323   4.397   3.998   3.994 -0.7192 -0.0434  0.3159
    1C        C  324   4.278   4.171   4.115 -0.6780 -0.1834  0.0518
    1C        C  325   4.326   4.118   4.237 -0.4564 -0.0527  0.0215
    1C        C  326   4.192   4.287   4.354  0.6194  0.4835  0.0705
    1C        C  327   4.283   4.179   4.357  0.1563  0.0888  0.1702
    1C        C  328   4.139   4.339   4.474  0.3988  0.5513 -0.0565
    1C        C  329   4.195   4.297   4.597  0.4867  0.7615 -0.0262
    1C        C  330   4.025   4.435   4.717 -0.0617  0.2249 -0.0171
    1C        C  331   4.142   4.354   4.715  0.0043  0.3221 -0.0285
    1C        C  332   3.972   4.498   4.831 -0.1628  0.3392 -0.1266
    1C        C  333   4.055   4.483   4.943  0.1857 -0.1262 -0.4459
    1C        C  334   4.554   3.268   2.066  0.1423 -0.1428 -0.5274
    1C        C  335   4.531   3.130   2.067 -0.5379 -0.0298  0.2103
    1C        C  336   4.539   3.353   2.177  0.5208 -0.2809 -0.3687
    1C        C  337   4.515   3.284   2.298 -0.0493  0.4689 -0.0474
    1C        C  338   4.515   3.498   2.415 -0.4685  0.2200 -0.1567
    1C        C  339   4.520   3.357   2.418  0.1431  0.2473  0.0776
    1C        C  340   4.514   3.570   2.536 -0.5456  0.1961 -0.1434
    1C        C  341   4.514   3.500   2.659 -0.9508  0.2206 -0.1276
    1C        C  342   4.492   3.712   2.778  0.4349  0.1428  0.0225
    1C        C  343   4.512   3.573   2.781 -0.1381  0.0568 -0.0054
    1C        C  344   4.481   3.785   2.898  0.1702  0.1614 -0.0090
    1C        C  345   4.492   3.717   3.021 -0.1048 -0.1210 -0.1366
    1C        C  346   4.428   3.919   3.138  0.4982  0.3676 -0.0364
    1C        C  347   4.476   3.786   3.144 -0.0643  0.1426 -0.2760
    1C        C  348   4.399   3.985   3.259 -0.1432  0.1051 -0.0344
    1C        C  349   4.427   3.923   3.384 -0.0545 -0.2428 -0.2226
    1C        C  350   4.333   4.116   3.503 -0.3632 -0.1445  0.0732
    1C        C  351   4.403   3.993   3.504  0.2159  0.1721 -0.4070
    1C        C  352   4.287   4.170   3.625 -0.1287 -0.2940  0.2299
    1C        C  353   4.329   4.114   3.748 -0.1368 -0.2887  0.2350
    1C        C  354   4.187   4.276   3.864  0.2844  0.7320  0.2557
    1C        C  355   4.284   4.174   3.868 -0.2889  0.1636 -0.0429
    1C        C  356   4.131   4.317   3.987  0.4072  0.4270  0.4158
    1C        C  357   4.177   4.269   4.112 -0.3231  0.2034  0.6051
    1C        C  358   4.012   4.402   4.232 -0.3547  0.2043  0.1006
    1C        C  359   4.130   4.325   4.233  0.1089  0.9096  0.4547
    1C        C  360   3.955   4.449   4.352  0.0425  0.4353  0.2005
    1C        C  361   4.020   4.415   4.473  0.0349 -0.0028  0.0840
    1C        C  362   3.827   4.507   4.596 -0.1530  0.0343  0.4782
    1C        C  363   3.959   4.456   4.593 -0.2461 -0.1882  0.0073
    1C        C  364   3.761   4.541   4.716 -0.2531 -0.1678  0.4804
    1C        C  365   3.838   4.542   4.834 -0.2767 -0.0380  0.4964
    1C        C  366   3.630   4.600   4.948 -0.1142  0.6853 -0.0964
    1C        C  367   3.768   4.581   4.948 -0.1231  0.6150  0.3707
    1C        C  368   4.529   3.567   2.051 -0.6879  0.1726  0.1827
    1C        C  369   4.523   3.493   2.170  0.0807 -0.3140 -0.0801
    1C        C  370   4.499   3.706   2.289 -0.1049 -0.0239  0.0829
    1C        C  371   4.519   3.566   2.291  0.0320 -0.0084 -0.2662
    1C        C  372   4.482   3.776   2.411  0.7495  0.3975 -0.0323
    1C        C  373   4.503   3.710   2.534  0.2461  0.2672 -0.0155
    1C        C  374   4.428   3.911   2.650  0.4652  0.3450  0.0397
    1C        C  375   4.481   3.780   2.655 -0.2800  0.0390  0.0240
    1C        C  376   4.403   3.979   2.771  0.5726  0.2007  0.1460
    1C        C  377   4.435   3.919   2.894  0.2345  0.1947  0.2336
    1C        C  378   4.329   4.105   3.015  0.1230  0.5304 -0.0447
    1C        C  379   4.401   3.983   3.015 -0.4833  0.1637  0.0566
    1C        C  380   4.287   4.164   3.137  0.2854  0.3825  0.0893
    1C        C  381   4.328   4.107   3.259  0.4174  0.4440  0.0794
    1C        C  382   4.186   4.266   3.375  0.2220  0.4126 -0.0456
    1C        C  383   4.288   4.168   3.380  0.0399  0.2216  0.0731
    1C        C  384   4.126   4.304   3.497  0.2833 -0.2394  0.1941
    1C        C  385   4.181   4.263   3.621  0.2059  0.0976  0.3441
    1C        C  386   4.009   4.390   3.742  0.4362  0.7823  0.0249
    1C        C  387   4.128   4.315   3.741  0.3037  0.5678  0.1921
    1C        C  388   3.949   4.425   3.865  0.5248  0.9638  0.0218
    1C        C  389   4.012   4.392   3.987  0.8433  1.1337 -0.0925
    1C        C  390   3.818   4.478   4.108  0.1349  0.0005 -0.2134
    1C        C  391   3.951   4.430   4.108  0.3751  0.6427 -0.1681
    1C        C  392   3.750   4.499   4.230  0.4281  0.0444 -0.0504
    1C        C  393   3.821   4.493   4.351 -0.0830  0.0640  0.2585
    1C        C  394   3.618   4.540   4.475  0.1321  0.3085  0.1579
    1C        C  395   3.757   4.519   4.474  0.1262  0.2423  0.3334
    1C        C  396   3.546   4.561   4.595 -0.5066  0.1044 -0.1814
    1C        C  397   3.622   4.565   4.714 -0.2764 -0.3312 -0.3064
    1C        C  398   3.412   4.551   4.839 -0.0118 -0.0300  0.2448
    1C        C  399   3.550   4.578   4.835  0.1472 -0.8631  0.0049
    1C        C  400   3.345   4.515   4.957  0.0432  0.5338  0.4577
    1C        C  401   4.507   3.705   2.054 -0.0173  0.2843  0.2059
    1C        C  402   4.450   3.917   2.169  0.3530  0.2896 -0.0468
    1C        C  403   4.480   3.779   2.170 -0.3983  0.1244  0.2221
    1C        C  404   4.422   3.986   2.289  0.8487  0.4436 -0.0175
    1C        C  405   4.447   3.912   2.407  0.0116  0.2134  0.0239
    1C        C  406   4.329   4.094   2.530  0.3442  0.3876  0.0035
    1C        C  407   4.405   3.975   2.526  0.0897  0.2237  0.0463
    1C        C  408   4.287   4.157   2.649  0.2112  0.1368  0.0905
    1C        C  409   4.327   4.098   2.771  0.0646 -0.1201  0.0164
    1C        C  410   4.180   4.252   2.890 -0.1767 -0.0698 -0.0416
    1C        C  411   4.284   4.157   2.892  0.2441  0.3819 -0.1567
    1C        C  412   4.125   4.301   3.010  0.2746 -0.0025  0.1437
    1C        C  413   4.184   4.260   3.132  0.4850  0.6127  0.2548
    1C        C  414   4.008   4.381   3.253  0.0555  0.4791  0.3056
    1C        C  415   4.128   4.307   3.253  0.3852  1.0000  0.0663
    1C        C  416   3.943   4.409   3.374  0.4381  0.7157  0.4641
    1C        C  417   4.004   4.374   3.497  0.5226  0.1915  0.2793
    1C        C  418   3.814   4.469   3.620  0.4085  0.8447  0.4809
    1C        C  419   3.944   4.413   3.618  0.2747  0.5260  0.0563
    1C        C  420   3.747   4.495   3.742 -0.0626  0.3131  0.3482
    1C        C  421   3.816   4.474   3.863  0.3005  0.3919  0.1614
    1C        C  422   3.612   4.523   3.988 -0.1705 -0.0936  0.1677
    1C        C  423   3.750   4.496   3.986 -0.0347  0.5676 -0.0446
    1C        C  424   3.541   4.536   4.110  0.1028 -0.1333  0.3362
    1C        C  425   3.611   4.526   4.232  0.3309 -0.4568  0.1860
    1C        C  426   3.403   4.554   4.355  0.2038 -0.2336 -0.1015
    1C        C  427   3.544   4.548   4.355  0.2120 -0.1603  0.0731
    1C        C  428   3.333   4.549   4.477 -0.0606  0.0356 -0.2373
    1C        C  429   3.405   4.558   4.598 -0.4966 -0.4189  0.0640
    1C        C  430   3.196   4.516   4.720 -0.2314  0.4355  0.3506
    1C        C  431   3.335   4.546   4.721 -0.1418  0.0464  0.3202
    1C        C  432   3.128   4.491   4.841 -0.0380 -0.3028  0.3158
    1C        C  433   3.209   4.487   4.955  0.1399  0.0601  0.2067
    1C        C  434   4.391   4.125   2.057 -0.2646 -0.0939 -0.0710
    1C        C  435   4.454   4.000   2.056 -0.0880 -0.0039 -0.2763
    1C        C  436   4.307   4.165   2.165  0.0688  0.2831  0.0463
    1C        C  437   4.340   4.102   2.288  0.1463 -0.0435 -0.1436
    1C        C  438   4.178   4.243   2.404 -0.1335 -0.5122 -0.3474
    1C        C  439   4.288   4.154   2.408  0.4484  0.2080 -0.1198
    1C        C  440   4.123   4.287   2.526  0.6724 -0.1270 -0.1146
    1C        C  441   4.177   4.245   2.649 -0.0999 -0.2498  0.1892
    1C        C  442   4.005   4.375   2.766 -0.2211  0.0139 -0.3438
    1C        C  443   4.120   4.293   2.769  0.3056  0.7552 -0.0090
    1C        C  444   3.945   4.412   2.888  0.1352 -0.1946 -0.1038
    1C        C  445   4.010   4.383   3.010 -0.1541 -0.5878 -0.0396
    1C        C  446   3.813   4.467   3.133  0.3267  0.0103 -0.0270
    1C        C  447   3.945   4.416   3.131  0.4780  0.3851  0.0505
    1C        C  448   3.745   4.486   3.255  0.0366 -0.1207 -0.1650
    1C        C  449   3.813   4.464   3.377 -0.0298 -0.3186 -0.1582
    1C        C  450   3.608   4.521   3.498  0.4766 -0.9768 -0.5064
    1C        C  451   3.746   4.491   3.498  0.7619  0.2505  0.1667
    1C        C  452   3.539   4.525   3.621  0.3195 -0.7106 -0.6003
    1C        C  453   3.609   4.524   3.744 -0.1970 -0.2276 -0.2886
    1C        C  454   3.400   4.536   3.865  0.1581 -0.0849  0.0929
    1C        C  455   3.541   4.535   3.866  0.1636 -0.3971 -0.0650
    1C        C  456   3.332   4.531   3.989 -0.0170 -0.3349 -0.0071
    1C        C  457   3.400   4.538   4.112  0.0770 -0.7724 -0.0273
    1C        C  458   3.192   4.509   4.236  0.0053  0.0152 -0.0826
    1C        C  459   3.330   4.538   4.235  0.0682 -0.2527 -0.0228
    1C        C  460   3.124   4.496   4.359  0.1722 -0.7157 -0.0534
    1C        C  461   3.195   4.520   4.479 -0.0846  0.1372 -0.0575
    1C        C  462   2.997   4.436   4.601  0.3032 -0.0274 -0.1567
    1C        C  463   3.126   4.493   4.600  0.1719  0.2960  0.1333
    1C        C  464   2.935   4.404   4.724  0.5493  0.2500  0.0461
    1C        C  465   2.992   4.446   4.847 -0.3482  0.6103  0.3486
    1C        C  466   2.805   4.332   4.958 -0.5610 -0.1733  0.1856
    1C        C  467   2.908   4.427   4.962 -0.9248  0.2404 -0.1252
    1C        C  468   4.123   4.289   2.048  0.2562  0.7061 -0.3805
    1C        C  469   4.190   4.247   2.164 -0.0108  0.1633 -0.4196
    1C        C  470   4.007   4.372   2.279  0.0561 -0.1177  0.0337
    1C        C  471   4.124   4.292   2.282  0.0964 -0.0705 -0.2737
    1C        C  472   3.944   4.406   2.401 -0.1800 -0.4464  0.0043
    1C        C  473   4.006   4.367   2.521  0.4687 -0.4320 -0.3235
    1C        C  474   3.816   4.464   2.645  0.0332 -0.3699  0.0121
    1C        C  475   3.945   4.408   2.642  0.0066 -0.4012 -0.5672
    1C        C  476   3.746   4.492   2.765 -0.0516 -0.1992 -0.0796
    1C        C  477   3.812   4.460   2.885  0.2920  0.2486 -0.1438
    1C        C  478   3.610   4.511   3.009  0.3728 -0.1824 -0.0713
    1C        C  479   3.749   4.485   3.009  0.4531  0.2422 -0.0600
    1C        C  480   3.541   4.529   3.131  0.0436 -0.2503 -0.2492
    1C        C  481   3.609   4.524   3.255  0.1389  0.2612 -0.2774
    1C        C  482   3.396   4.536   3.377  0.1148 -0.2321  0.1342
    1C        C  483   3.538   4.531   3.376  0.1101 -0.3842 -0.2535
    1C        C  484   3.325   4.525   3.499  0.0785  0.1165  0.1459
    1C        C  485   3.398   4.528   3.620  0.3159 -0.3036  0.0214
    1C        C  486   3.189   4.510   3.745  0.3172 -0.6087  0.1161
    1C        C  487   3.329   4.529   3.743  0.3102 -0.5392  0.0243
    1C        C  488   3.126   4.486   3.869 -0.0330 -0.3839 -0.0147
    1C        C  489   3.193   4.502   3.992 -0.0279 -0.3053 -0.0229
    1C        C  490   3.002   4.415   4.117  0.4074 -1.0593 -0.1914
    1C        C  491   3.125   4.484   4.114 -0.0399 -0.2321 -0.0132
    1C        C  492   2.939   4.387   4.240  0.2285 -0.2742 -0.0924
    1C        C  493   3.002   4.427   4.360 -0.0305 -0.3731  0.0823
    1C        C  494   2.827   4.304   4.482 -0.4954  0.1966  0.1110
    1C        C  495   2.936   4.394   4.481  0.0405 -0.4365  0.1098
    1C        C  496   2.775   4.259   4.605 -0.0989  0.3999  0.3592
    1C        C  497   2.824   4.315   4.724  0.6186  0.1585  0.1879
    1C        C  498   2.667   4.164   4.844  0.3807 -0.1574 -0.1291
    1C        C  499   2.757   4.273   4.841 -0.2215  0.3424 -0.2208
    1C        C  500   2.593   4.121   4.955 -0.2952 -0.0856 -0.5466
    1C        C  501   3.999   4.351   2.044 -0.2459 -0.2441  0.1978
    1C        C  502   3.819   4.476   2.160  0.1751  0.6063 -0.2170
    1C        C  503   3.944   4.410   2.159 -0.2423 -0.1881  0.1698
    1C        C  504   3.747   4.489   2.280  0.2159  0.3882 -0.1725
    1C        C  505   3.814   4.461   2.401  0.1216  0.2756 -0.1478
    1C        C  506   3.610   4.516   2.522  0.0790 -0.5360 -0.1883
    1C        C  507   3.749   4.489   2.523  0.1220 -0.2934 -0.0179
    1C        C  508   3.538   4.520   2.643  0.1907 -0.0359 -0.1387
    1C        C  509   3.608   4.520   2.766 -0.1056 -0.4860  0.0264
    1C        C  510   3.399   4.526   2.888  0.2255  0.1241 -0.0214
    1C        C  511   3.540   4.532   2.889  0.2107  0.3719  0.1183
    1C        C  512   3.330   4.512   3.010  0.1123 -0.4951 -0.1542
    1C        C  513   3.400   4.527   3.132  0.0415  0.0137 -0.1788
    1C        C  514   3.192   4.486   3.255  0.2643  0.1441  0.2704
    1C        C  515   3.329   4.521   3.254  0.3681 -0.2639 -0.0020
    1C        C  516   3.123   4.470   3.378 -0.0485  0.1441  0.0963
    1C        C  517   3.188   4.494   3.501  0.1436 -0.1943  0.0661
    1C        C  518   2.996   4.417   3.625  0.3321 -0.2972 -0.6873
    1C        C  519   3.120   4.484   3.625  0.1033  0.1391  0.0740
    1C        C  520   2.943   4.376   3.749  0.2596 -0.3154 -0.7196
    1C        C  521   3.005   4.412   3.870 -0.1462 -0.2180 -0.5321
    1C        C  522   2.835   4.289   3.996 -0.2361  0.2721  0.2088
    1C        C  523   2.948   4.374   3.993  0.5424 -0.7434 -0.3620
    1C        C  524   2.782   4.243   4.118 -0.7273  0.7456  0.1803
    1C        C  525   2.828   4.299   4.239 -0.1839  0.2337  0.2211
    1C        C  526   2.697   4.133   4.365 -0.1965 -0.0926 -0.1901
    1C        C  527   2.779   4.248   4.361 -0.0823 -0.1605  0.1030
    1C        C  528   2.663   4.073   4.488 -0.2454  0.0093 -0.1512
    1C        C  529   2.692   4.144   4.606 -0.2213  0.4687 -0.4290
    1C        C  530   2.580   3.962   4.731  0.2175  0.2497  0.1656
    1C        C  531   2.644   4.089   4.727  0.4819  0.1010 -0.3131
    1C        C  532   2.548   3.900   4.855  0.6683 -0.1336  0.0943
    1C        C  533   2.530   3.996   4.960  0.0111 -0.2191  0.0614
    1C        C  534   3.621   4.548   2.039  0.2294 -0.5388 -0.3194
    1C        C  535   3.757   4.516   2.040  0.5157  0.6236 -0.3873
    1C        C  536   3.538   4.529   2.154  0.1780 -0.2485 -0.3086
    1C        C  537   3.606   4.509   2.277  0.1150 -0.3104 -0.2860
    1C        C  538   3.397   4.518   2.402  0.0596  0.1531 -0.1897
    1C        C  539   3.538   4.522   2.400  0.1013 -0.9801 -0.2219
    1C        C  540   3.326   4.507   2.523  0.4886  0.0065  0.0480
    1C        C  541   3.397   4.512   2.645  0.2271 -0.5297  0.2217
    1C        C  542   3.187   4.487   2.766  0.0443 -0.2543  0.0007
    1C        C  543   3.326   4.514   2.767  0.0711 -0.4149  0.1249
    1C        C  544   3.124   4.460   2.889  0.3870 -0.5098  0.1165
    1C        C  545   3.192   4.484   3.011  0.1106 -0.4776  0.2608
    1C        C  546   2.999   4.401   3.136  0.2343 -0.2603 -0.1245
    1C        C  547   3.124   4.467   3.133  0.2048 -0.1811  0.3540
    1C        C  548   2.938   4.366   3.258 -0.3678 -0.1840 -0.4001
    1C        C  549   2.996   4.408   3.380  0.3012 -0.6192 -0.5636
    1C        C  550   2.829   4.285   3.507 -0.7172  0.4827 -0.0931
    1C        C  551   2.936   4.376   3.503  0.4093 -0.8166 -0.5589
    1C        C  552   2.779   4.237   3.630 -0.4679  0.2892 -0.0611
    1C        C  553   2.832   4.288   3.750 -0.2720  0.3412 -0.1654
    1C        C  554   2.700   4.126   3.878 -0.1612  0.5985  0.0872
    1C        C  555   2.784   4.239   3.874  0.0835  0.4182  0.0103
    1C        C  556   2.664   4.065   4.000 -0.5488  0.3296 -0.1561
    1C        C  557   2.699   4.128   4.121 -0.4980  0.5609 -0.2879
    1C        C  558   2.596   3.945   4.246  0.1078  0.0407 -0.2975
    1C        C  559   2.660   4.071   4.244 -0.0809  0.1393 -0.3482
    1C        C  560   2.572   3.878   4.369  0.6604  0.2253 -0.0852
    1C        C  561   2.605   3.945   4.489  0.0228 -0.1113  0.2792
    1C        C  562   2.541   3.748   4.616 -0.1707  0.0676  0.0222
    1C        C  563   2.572   3.885   4.613 -0.3800  0.1200  0.2866
    1C        C  564   2.518   3.681   4.738 -0.1853  0.0481  0.0074
    1C        C  565   2.523   3.759   4.857  0.3381 -0.0746  0.0662
    1C        C  566   2.535   3.550   4.979  0.4029  0.2084  0.0569
    1C        C  567   2.532   3.689   4.978  0.7141  0.2169  0.2098
    1C        C  568   3.329   4.479   2.040  0.0688 -0.0487  0.2221
    1C        C  569   3.398   4.504   2.159  0.0870  0.3425  0.1271
    1C        C  570   3.187   4.473   2.281 -0.1347 -0.2805 -0.0224
    1C        C  571   3.325   4.506   2.281 -0.1738 -0.1239 -0.0234
    1C        C  572   3.120   4.453   2.404  0.5864 -0.3661  0.3618
    1C        C  573   3.188   4.478   2.525  0.5183 -0.1031  0.3441
    1C        C  574   2.991   4.397   2.647 -0.0644  0.0213  0.0298
    1C        C  575   3.116   4.463   2.646 -0.0564 -0.0012  0.0146
    1C        C  576   2.938   4.355   2.771  0.3040 -0.5269 -0.0022
    1C        C  577   2.999   4.395   2.892  0.2603 -0.2665 -0.0698
    1C        C  578   2.825   4.277   3.018  0.1784 -0.2391 -0.3592
    1C        C  579   2.940   4.359   3.015  0.1026 -0.1236 -0.1065
    1C        C  580   2.771   4.230   3.140 -0.0622  0.2622 -0.2721
    1C        C  581   2.829   4.275   3.261 -0.3568 -0.1892  0.0415
    1C        C  582   2.697   4.117   3.389 -0.3116 -0.1034  0.4824
    1C        C  583   2.783   4.229   3.386 -1.0004  0.4216  0.0384
    1C        C  584   2.658   4.060   3.513 -0.9899  0.1347  0.3877
    1C        C  585   2.696   4.123   3.633 -1.1516  0.7780  0.1098
    1C        C  586   2.599   3.937   3.760 -0.3497  0.4538  0.2426
    1C        C  587   2.661   4.064   3.757 -0.1560  0.3617  0.2036
    1C        C  588   2.572   3.872   3.882 -0.7126  0.2457  0.0541
    1C        C  589   2.604   3.937   4.003 -0.5463  0.3281 -0.0324
    1C        C  590   2.544   3.737   4.128 -0.2261 -0.0394  0.0315
    1C        C  591   2.576   3.874   4.126 -0.6372  0.0560 -0.1900
    1C        C  592   2.532   3.669   4.252 -0.0018  0.0175  0.0862
    1C        C  593   2.535   3.742   4.373  0.7531  0.2007 -0.0385
    1C        C  594   2.518   3.534   4.499 -0.3510  0.1338  0.0690
    1C        C  595   2.524   3.675   4.496  0.5812  0.0969 -0.1102
    1C        C  596   2.525   3.465   4.622 -0.3819  0.0388  0.0185
    1C        C  597   2.522   3.539   4.743  0.0221  0.0556  0.0183
    1C        C  598   2.535   3.328   4.863  0.3142  0.1859  0.1849
    1C        C  599   2.530   3.469   4.865  0.3767  0.1886  0.0723
    1C        C  600   2.533   3.248   4.979 -0.0749  0.1204  0.1347
    1C        C  601   3.196   4.444   2.044 -0.0831  0.5208  0.2163
    1C        C  602   2.982   4.397   2.159 -0.2729 -0.1722  0.5080
    1C        C  603   3.118   4.443   2.161 -0.4003  0.2281  0.0029
    1C        C  604   2.931   4.352   2.284 -0.3310 -0.1657  0.4854
    1C        C  605   2.993   4.392   2.404  0.6273 -0.4497  0.0957
    1C        C  606   2.823   4.268   2.529  0.0653  0.2382  0.2030
    1C        C  607   2.928   4.362   2.526 -0.0738  0.3812 -0.0660
    1C        C  608   2.781   4.211   2.651  0.2539 -0.3602 -0.0135
    1C        C  609   2.828   4.266   2.773  0.0455 -0.2053 -0.0060
    1C        C  610   2.686   4.116   2.897 -0.6929  0.0790 -0.1300
    1C        C  611   2.773   4.227   2.897 -0.2694 -0.2528 -0.1616
    1C        C  612   2.654   4.057   3.021 -0.1416  0.3224  0.1326
    1C        C  613   2.687   4.117   3.145  0.0969  0.1583  0.1507
    1C        C  614   2.593   3.930   3.270 -0.0035  0.2544  0.2046
    1C        C  615   2.657   4.056   3.268  0.1994  0.1549  0.1773
    1C        C  616   2.572   3.865   3.394 -0.2343 -0.0801 -0.0086
    1C        C  617   2.600   3.931   3.515 -0.9176  0.0913  0.0616
    1C        C  618   2.541   3.731   3.640  0.1050  0.2175 -0.0480
    1C        C  619   2.580   3.866   3.639 -0.3533  0.3598  0.2958
    1C        C  620   2.527   3.664   3.764 -0.3117  0.0084 -0.2054
    1C        C  621   2.548   3.733   3.885 -0.1449  0.1370 -0.3079
    1C        C  622   2.517   3.525   4.008  0.7670  0.2442 -0.0023
    1C        C  623   2.529   3.665   4.007 -0.1609  0.3333 -0.1991
    1C        C  624   2.525   3.457   4.132  0.3846  0.2814  0.0462
    1C        C  625   2.525   3.528   4.254  0.1829  0.0092  0.2063
    1C        C  626   2.549   3.321   4.379  0.6868  0.0387 -0.1388
    1C        C  627   2.528   3.461   4.378  0.4817  0.0105  0.2034
    1C        C  628   2.557   3.252   4.501  0.2634  0.1819 -0.0264
    1C        C  629   2.542   3.325   4.621  0.1387  0.0998  0.0092
    1C        C  630   2.606   3.123   4.747  0.3632  0.3444  0.2150
    1C        C  631   2.562   3.258   4.744  0.8909  0.5171  0.1208
    1C        C  632   2.619   3.050   4.868  0.0591  0.4502  0.3146
    1C        C  633   2.558   3.111   4.982 -0.1421  0.1125  0.3899
    1C        C  634   2.780   4.305   2.054 -0.3121  0.3187  0.3694
    1C        C  635   2.890   4.392   2.050 -0.1172  0.0714  0.3647
    1C        C  636   2.752   4.231   2.169 -0.6279  0.0783  0.1380
    1C        C  637   2.815   4.270   2.289 -0.0869 -0.5465  0.0636
    1C        C  638   2.675   4.109   2.409 -0.1203  0.1423  0.1004
    1C        C  639   2.766   4.217   2.411 -0.2215  0.2222  0.3509
    1C        C  640   2.645   4.045   2.532  0.3609 -0.5514 -0.1430
    1C        C  641   2.690   4.103   2.652  0.0381 -0.1777 -0.2050
    1C        C  642   2.588   3.925   2.780 -0.6612  0.1482  0.3011
    1C        C  643   2.647   4.053   2.777 -0.0479 -0.1436 -0.2225
    1C        C  644   2.567   3.861   2.903  0.0413  0.1025  0.4008
    1C        C  645   2.601   3.926   3.024 -0.3529  0.4116  0.3472
    1C        C  646   2.539   3.726   3.150 -0.8098  0.3868 -0.1968
    1C        C  647   2.576   3.862   3.148 -1.3057  0.5313  0.2240
    1C        C  648   2.523   3.659   3.273  0.2646 -0.1297 -0.3229
    1C        C  649   2.537   3.728   3.396 -0.3549 -0.0553 -0.2903
    1C        C  650   2.520   3.519   3.522  0.7608  0.2052  0.1476
    1C        C  651   2.527   3.660   3.519  0.3213  0.2255 -0.0783
    1C        C  652   2.516   3.451   3.646  1.0403  0.1830  0.1456
    1C        C  653   2.513   3.523   3.767 -0.0718 -0.0080  0.2426
    1C        C  654   2.542   3.312   3.891  0.9601  0.0100 -0.1223
    1C        C  655   2.515   3.451   3.888  0.4632 -0.0760  0.1963
    1C        C  656   2.568   3.247   4.014  0.6266  0.1713  0.0356
    1C        C  657   2.550   3.318   4.135  1.0878  0.3985 -0.0249
    1C        C  658   2.604   3.115   4.260  0.5759  0.0177  0.1767
    1C        C  659   2.564   3.250   4.257  0.9156  0.1165 -0.1584
    1C        C  660   2.633   3.051   4.383  0.5445  0.0664  0.2119
    1C        C  661   2.600   3.117   4.503  0.5132  0.2601  0.0992
    1C        C  662   2.711   2.938   4.628 -0.3602 -0.0290  0.3099
    1C        C  663   2.633   3.055   4.626 -0.0506  0.1785  0.2135
    1C        C  664   2.748   2.876   4.749 -0.1217 -0.2331  0.1361
    1C        C  665   2.698   2.930   4.871 -0.3398  0.1743 -0.1307
    1C        C  666   2.743   2.863   4.985  0.4279  0.6551 -0.1408
    1C        C  667   2.675   4.028   2.054 -0.1401 -0.1649 -0.0712
    1C        C  668   2.684   4.107   2.170 -0.2564 -0.1251 -0.0904
    1C        C  669   2.580   3.916   2.290 -0.0603  0.0880 -0.1321
    1C        C  670   2.639   4.046   2.288  0.0211  0.0524  0.1065
    1C        C  671   2.557   3.853   2.414  0.4557 -0.1550 -0.1592
    1C        C  672   2.593   3.914   2.536 -0.0288 -0.3860  0.0988
    1C        C  673   2.527   3.718   2.659 -0.4568  0.1543 -0.0710
    1C        C  674   2.563   3.854   2.660 -0.4245  0.1409  0.2578
    1C        C  675   2.527   3.651   2.784  0.2742  0.1683 -0.0635
    1C        C  676   2.539   3.722   2.905  0.2813  0.0490  0.0055
    1C        C  677   2.514   3.514   3.033  0.7241 -0.0788 -0.0331
    1C        C  678   2.527   3.655   3.028 -0.0332 -0.0019 -0.0511
    1C        C  679   2.517   3.445   3.156  0.6569 -0.2101 -0.1047
    1C        C  680   2.517   3.518   3.277  1.2215 -0.1728 -0.1226
    1C        C  681   2.546   3.310   3.403  0.7971  0.1872  0.1657
    1C        C  682   2.515   3.448   3.399  1.0534  0.2421  0.1142
    1C        C  683   2.564   3.244   3.527  0.7369  0.0908  0.1216
    1C        C  684   2.538   3.312   3.648  0.5991  0.1123  0.0785
    1C        C  685   2.603   3.109   3.771  0.6957 -0.1042  0.0138
    1C        C  686   2.556   3.242   3.769  0.4669 -0.1848 -0.0717
    1C        C  687   2.635   3.047   3.894  0.6207  0.0634  0.1193
    1C        C  688   2.607   3.112   4.017 -0.2386 -0.0895  0.0169
    1C        C  689   2.706   2.927   4.139  0.0376  0.0026 -0.0139
    1C        C  690   2.631   3.046   4.140  0.1899  0.1009  0.0421
    1C        C  691   2.748   2.873   4.262 -0.6300 -0.2114  0.1301
    1C        C  692   2.710   2.933   4.385  0.4993  0.0369  0.3724
    1C        C  693   2.753   2.877   4.507  0.5823  0.2996  0.4657
    1C        C  694   2.637   3.893   2.059 -0.0675 -0.1985 -0.4162
    1C        C  695   2.531   3.704   2.174  0.4351  0.0277 -0.2039
    1C        C  696   2.578   3.837   2.173  0.0176  0.1733 -0.1890
    1C        C  697   2.514   3.641   2.299  0.4710  0.2337 -0.0971
    1C        C  698   2.522   3.716   2.418 -0.3239  0.0495  0.0745
    1C        C  699   2.500   3.504   2.545  0.3718 -0.1065 -0.0679
    1C        C  700   2.513   3.644   2.540 -0.1278 -0.0552  0.0231
    1C        C  701   2.511   3.438   2.669  0.0368  0.0371  0.0384
    1C        C  702   2.522   3.510   2.790  0.5557  0.1590 -0.0788
    1C        C  703   2.530   3.300   2.913  0.1032 -0.0780 -0.1856
    1C        C  704   2.516   3.440   2.913  1.2680  0.0476 -0.1029
    1C        C  705   2.549   3.234   3.036 -0.0674 -0.0442 -0.1404
    1C        C  706   2.536   3.305   3.158  0.5739 -0.2199  0.0337
    1C        C  707   2.601   3.107   3.283  0.5829  0.2319 -0.1964
    1C        C  708   2.550   3.239   3.282  0.0330  0.0257  0.2280
    1C        C  709   2.633   3.043   3.404 -0.1063 -0.1253 -0.1998
    1C        C  710   2.604   3.109   3.525  0.2013 -0.0665 -0.1582
    1C        C  711   2.708   2.927   3.652  0.2928  0.0532 -0.0834
    1C        C  712   2.632   3.046   3.648  0.0284 -0.1145 -0.1436
    1C        C  713   2.750   2.868   3.773 -0.0734 -0.1668 -0.0570
    1C        C  714   2.713   2.929   3.895 -0.3999 -0.6234  0.0735
    1C        C  715   2.748   2.869   4.018 -0.5202 -0.6544  0.0960
    1C        C  716   2.438   3.503   2.071  0.1555 -0.1861  0.4548
    1C        C  717   2.488   3.634   2.061  0.2114 -0.2385  0.0492
    1C        C  718   2.469   3.422   2.185 -0.1225 -0.1992  0.5181
    1C        C  719   2.490   3.501   2.302  0.0638  0.3077  0.1439
    1C        C  720   2.513   3.290   2.426  0.3631 -0.0631 -0.0960
    1C        C  721   2.494   3.430   2.424  0.3079 -0.0723 -0.0827
    1C        C  722   2.536   3.224   2.548  0.1366 -0.3106 -0.1883
    1C        C  723   2.530   3.298   2.669  0.2853  0.0707 -0.4145
    1C        C  724   2.593   3.097   2.795  0.1886  0.1129  0.1226
    1C        C  725   2.544   3.229   2.791  0.7237  0.3016 -0.3371
    1C        C  726   2.625   3.035   2.917  0.1609  0.1525  0.1498
    1C        C  727   2.601   3.103   3.039  0.0462  0.0071  0.2077
    1C        C  728   2.703   2.918   3.160 -0.4155 -0.6554 -0.3777
    1C        C  729   2.633   3.041   3.162 -0.0318 -0.4380  0.0047
    1C        C  730   2.747   2.865   3.283 -0.7232 -0.4476 -0.1744
    1C        C  731   2.708   2.923   3.405  0.0167 -0.0470 -0.1239
    1C        C  732   2.752   2.871   3.529 -0.0680 -0.1350 -0.1302
    1C        C  733   2.493   3.197   2.071 -0.2428 -0.1131 -0.4019
    1C        C  734   2.493   3.281   2.184 -0.2915 -0.2240 -0.3201
    1C        C  735   2.577   3.084   2.309 -0.7774 -0.1868  0.2606
    1C        C  736   2.527   3.217   2.306 -0.2042  0.0247 -0.2157
    1C        C  737   2.609   3.021   2.431 -0.3686 -0.2457  0.1225
    1C        C  738   2.585   3.091   2.551 -0.2054 -0.4292  0.2619
    1C        C  739   2.694   2.910   2.673 -0.1069 -0.3253 -0.0268
    1C        C  740   2.624   3.032   2.673 -0.0406 -0.2880  0.2762
    1C        C  741   2.740   2.856   2.795 -0.4297 -0.4597  0.0332
    1C        C  742   2.698   2.914   2.917 -0.4137 -0.1979 -0.0877
    1C        C  743   2.743   2.859   3.039 -0.3262 -0.6791 -0.3363
    1C        C  744   2.550   3.070   2.071 -0.0080 -0.0119  0.1377
    1C        C  745   2.686   2.901   2.188 -0.7790 -0.3629  0.0504
    1C        C  746   2.605   3.017   2.188  0.0180  0.2011  0.2231
    1C        C  747   2.729   2.844   2.309 -0.7915 -0.2108  0.1263
    1C        C  748   2.689   2.904   2.430 -0.4733 -0.3168  0.2861
    1C        C  749   2.734   2.848   2.552 -0.0003 -0.4286  0.0613
    1C        C  750   2.737   2.840   2.072 -0.1920  0.3771 -0.0850
    1C        C  751   3.650   2.288   2.026 -0.0543  0.2033 -0.3247
    1C        O  752   3.630   2.181   2.089  0.2243  0.0768 -0.4523
    1C        O  753   3.751   2.265   1.932  0.5556 -0.0999  0.3955
    1C        C  754   4.640   3.057   2.000  0.0241  0.7720  0.2439
    1C        O  755   4.638   3.050   1.874  0.2184  0.2090  0.2691
    1C        O  756   4.760   3.009   2.053 -0.2176 -1.0871 -0.7992
    1C        C  757   4.429   4.212   1.943 -0.6106 -0.1345 -0.2204
    1C        O  758   4.500   4.315   1.956 -0.2671 -0.3347 -0.4734
    1C        O  759   4.374   4.204   1.814 -0.2752  0.1046 -0.3786
    1C        C  760   3.605   4.664   1.948  0.1127 -0.4112 -0.1344
    1C        O  761   3.576   4.777   1.994  0.6290  0.0350 -0.8794
    1C        O  762   3.587   4.649   1.810  0.0741  0.5575 -0.2430
    1C        C  763   2.890   4.477   1.928 -0.9243 -0.6871 -0.1745
    1C        O  764   2.957   4.458   1.823  0.1708 -0.4669  0.4774
    1C        O  765   2.793   4.577   1.915  0.1929  0.4894  0.3878
    1C        C  766   2.307   3.503   2.003  0.2842  0.1562  0.2050
    1C        O  767   2.291   3.526   1.880 -0.8098 -0.0213  0.2992
    1C        O  768   2.188   3.500   2.077 -0.1489  0.2371 -0.4769
    1C        C  769   4.669   3.587   5.077 -0.0772  0.3250  0.0750
    1C        O  770   4.631   3.584   5.197  0.3728  0.2889  0.2182
    1C        O  771   4.808   3.577   5.061 -0.0844 -0.2326  0.3271
    1C        C  772   4.280   4.462   5.025 -0.2669  0.1795 -0.0073
    1C        O  773   4.271   4.443   5.150  0.1390 -0.1543 -0.0250
    1C        O  774   4.349   4.581   4.998  0.0844 -0.1756 -0.6883
    1C        C  775   4.114   2.562   5.106 -0.2707  0.1494 -0.0729
    1C        O  776   4.235   2.525   5.114 -0.3511 -0.0795  0.0978
    1C        O  777   4.056   2.590   5.230  0.1075  0.7228 -0.0208
    1C        C  778   2.902   4.521   5.076  0.2877  0.1118  0.0608
    1C        O  779   2.859   4.639   5.061 -0.2665 -0.1039 -0.0921
    1C        O  780   2.919   4.463   5.202  0.1110  0.5245  0.2761
    1C        C  781   2.458   3.037   5.063 -0.2642  0.0593  0.1928
    1C        O  782   2.381   2.952   5.010 -0.3883  0.2540  0.0581
    1C        O  783   2.473   3.015   5.199  0.0150 -0.3934  0.0925
    1C        C  784   2.403   3.997   5.036 -0.1335 -0.2217 -0.1802
    1C        O  785   2.309   4.078   5.009 -0.3807 -0.4276  0.0582
    1C        O  786   2.419   3.968   5.172  0.4782  0.3779 -0.1192
    1C        C  787   2.953   2.431   2.001 -0.0922 -0.1227 -0.4404
    1C        O  788   2.938   2.472   1.883  0.3149 -0.1153 -0.4903
    1C        O  789   2.836   2.372   2.047  0.3105 -0.6821 -0.1232
    1C        C  790   3.187   2.373   5.072 -0.0056 -0.3656  0.0526
    1C        O  791   3.178   2.250   5.046  0.1320 -0.1897 -0.8731
    1C        O  792   3.213   2.397   5.207 -0.3470  0.2392  0.0176
    1C        H  793   4.364   2.959   5.063 -0.2135  0.6807  0.2495
    1C        H  794   4.156   2.828   5.067  0.9167 -0.5104 -0.2134
    1C        H  795   4.490   3.132   5.067 -3.6219  1.6736  1.2310
    1C        H  796   4.514   3.370   5.066  0.2646 -1.1196  0.3807
    1C        H  797   4.571   3.821   5.044 -0.3238  1.4659 -0.7302
    1C        H  798   4.389   3.964   5.053 -1.1904  0.8246  0.5947
    1C        H  799   4.252   4.147   5.047 -0.5030  1.5797 -0.6627
    1C        H  800   4.027   4.531   5.034  0.6528 -0.7185  0.0274
    1C        H  801   3.813   4.594   5.045 -0.8648  0.8216  0.7007
    1C        H  802   3.583   4.608   5.044  0.5136 -2.2269  0.5502
    1C        H  803   3.384   4.533   5.055 -0.6573 -0.0169  0.8443
    1C        H  804   3.167   4.454   5.049  1.6848  0.4855  1.0784
    1C        H  805   3.895   2.452   5.051  0.3660  2.2800  2.3814
    1C        H  806   3.675   2.456   5.075  1.3972 -3.1037 -1.4475
    1C        H  807   2.987   2.518   5.051 -0.5191 -0.0299  0.0951
    1C        H  808   3.445   2.484   5.084  1.2564  0.4156  0.8642
    1C        H  809   2.910   2.773   5.070  0.2844  0.6607 -0.4524
    1C        H  810   2.676   2.860   5.069  1.2253 -1.3425  0.4842
    1C        H  811   2.499   3.292   5.071  3.6268 -0.1483  1.7915
    1C        H  812   2.530   3.503   5.075  0.9965 -0.1340 -0.0742
    1C        H  813   2.493   3.741   5.063 -0.8775 -0.0666 -0.3011
    1C        H  814   2.617   4.160   5.052 -0.2597  0.2137 -0.6766
    1C        H  815   2.794   4.275   5.048 -1.2337  0.0110  0.2265
    1C        H  816   2.717   2.882   1.976 -0.8329 -0.8640 -0.5126
    1C        H  817   2.883   2.718   1.979 -0.0603 -1.1956  0.3558
    1C        H  818   3.202   2.410   1.996  2.0937  0.3668  0.1995
    1C        H  819   3.430   2.474   1.988  0.6669  1.2725  0.9049
    1C        H  820   3.879   2.487   1.980  0.0191  1.1549 -1.2329
    1C        H  821   4.084   2.581   1.987  1.0668  0.5164  0.4835
    1C        H  822   4.231   2.740   1.971  0.1430  0.3383 -0.5150
    1C        H  823   4.424   2.873   1.986  0.4664 -0.9444  0.7986
    1C        H  824   4.552   3.314   1.970  0.8122 -0.0187 -0.4870
    1C        H  825   4.587   3.530   1.970 -1.2603 -0.6144  0.1260
    1C        H  826   4.538   3.760   1.968  1.0399 -0.2833  0.2052
    1C        H  827   3.792   4.489   1.942  0.1336  2.4649 -1.0659
    1C        H  828   3.934   4.335   1.960 -0.6610  0.1295  0.4391
    1C        H  829   4.167   4.273   1.952  0.2123 -1.0857 -0.1362
    1C        H  830   4.518   3.968   1.977  0.7744  0.8138  0.0787
    1C        H  831   2.678   3.828   1.985  0.7937 -1.1032  0.8225
    1C        H  832   2.654   4.078   1.962 -0.6555 -0.6063 -0.1911
    1C        H  833   2.701   4.325   1.985  0.3944 -0.6650 -0.7591
    1C        H  834   3.383   4.458   1.950 -0.3934  0.7943 -0.2590
    1C        H  835   3.152   4.396   1.959 -0.3224  1.3922 -0.1680
    1C        H  836   2.514   2.998   2.001 -0.0607 -0.9652  1.1126
    1C        H  837   2.439   3.229   1.985  0.0346  0.7827 -0.2588
    1C        H  838   2.465   3.697   1.977  1.0713 -0.3499 -0.2783
    2V3OU   H29  839   2.817   3.544   1.024  0.2504 -0.8958 -0.5685
    2V3OU   C27  840   2.783   3.500   1.120 -0.0041  0.7539  0.1395
    2V3OU   H27  841   2.723   3.566   1.188  0.8122  0.3324  1.3141
    2V3OU   H28  842   2.734   3.399   1.116  1.3435  0.0879  0.0715
    2V3OU   O11  843   2.909   3.478   1.184  0.0373 -0.3895 -0.3074
    2V3OU   C15  844   2.922   3.398   1.296  0.1558 -0.2916 -0.2520
    2V3OU   C13  845   3.053   3.378   1.344  0.0189 -0.4207  0.0653
    2V3OU   C14  846   3.078   3.271   1.431 -0.2483  0.0523  0.7287
    2V3OU   C16  847   2.977   3.183   1.470 -0.6094  0.1030 -0.0757
    2V3OU    H6  848   2.996   3.111   1.551 -0.7243 -2.0815 -1.9207
    2V3OU   C12  849   3.216   3.231   1.466 -0.1357  0.1341  0.3693
    2V3OU    O2  850   3.237   3.123   1.525 -0.4584 -0.3137 -0.3229
    2V3OU   C10  851   3.330   3.309   1.415 -0.1694  0.1210  0.2765
    2V3OU    C8  852   3.462   3.272   1.434 -0.2171 -0.4036 -0.3590
    2V3OU   O10  853   3.495   3.152   1.488  0.3712 -0.0709  0.0347
    2V3OU   H26  854   3.411   3.116   1.521  0.7685 -0.5094  0.6009
    2V3OU    C6  855   3.569   3.349   1.379 -0.2916 -0.4227 -0.5297
    2V3OU    C5  856   3.543   3.466   1.308 -0.2737  0.1427  0.3888
    2V3OU    C4  857   3.707   3.292   1.377  0.0238  0.2922  0.1803
    2V3OU    H4  858   3.719   3.222   1.464 -0.2657 -0.6067 -0.4855
    2V3OU    H5  859   3.721   3.227   1.285 -0.5659  0.3250  0.0605
    2V3OU    C2  860   3.819   3.397   1.381  0.1091  0.1983  0.2562
    2V3OU    O6  861   3.816   3.482   1.496  0.1727  0.2549  0.2162
    2V3OU   H21  862   3.768   3.563   1.474  1.1219  0.6512 -0.4570
    2V3OU    C3  863   3.786   3.499   1.272 -0.2210 -0.6247 -0.4248
    2V3OU    H2  864   3.861   3.582   1.266 -1.2585  0.3435 -0.2418
    2V3OU    H3  865   3.786   3.441   1.176  0.6637  1.2555 -1.6030
    2V3OU   C25  866   3.952   3.323   1.365 -0.0931 -0.0853 -0.1429
    2V3OU    O7  867   3.998   3.299   1.254 -0.4202 -0.3444 -0.2213
    2V3OU   C26  868   4.034   3.289   1.488 -0.0929  0.1208 -0.0854
    2V3OU   H22  869   4.072   3.383   1.537  0.4657  0.4078 -1.0480
    2V3OU   H23  870   4.125   3.232   1.458  0.0667  0.3728 -0.0828
    2V3OU    O8  871   3.969   3.212   1.587 -0.3410  0.2213 -0.1686
    2V3OU   H24  872   3.927   3.271   1.652  0.0865  1.1676 -0.7140
    2V3OU    C1  873   3.651   3.567   1.283 -0.0032 -0.2515 -0.0440
    2V3OU    H1  874   3.630   3.621   1.187  0.7363 -0.4293 -0.3125
    2V3OU    O3  875   3.655   3.650   1.400 -0.4426 -0.2372 -0.0383
    2V3OU   C19  876   3.619   3.788   1.389 -0.2102 -0.1341  0.4677
    2V3OU    H9  877   3.522   3.803   1.332 -0.5787 -0.1153  1.0883
    2V3OU    O4  878   3.716   3.844   1.303 -0.0679 -0.8534  0.1545
    2V3OU   C20  879   3.848   3.869   1.352  0.0589 -0.4980 -0.3648
    2V3OU   H10  880   3.910   3.778   1.377  1.0756  0.3536  0.3554
    2V3OU   C24  881   3.608   3.857   1.525  0.5963  0.8577  0.0500
    2V3OU   H16  882   3.541   3.797   1.592 -0.2068  1.1423 -0.4832
    2V3OU   H17  883   3.558   3.956   1.515 -1.2870 -0.1002 -0.6213
    2V3OU   C23  884   3.747   3.877   1.585  0.7698 -0.3981  0.1007
    2V3OU   H15  885   3.789   3.773   1.606  2.3511 -0.0272 -1.0524
    2V3OU    N1  886   3.738   3.956   1.706  0.7135  0.0871 -0.2175
    2V3OU   H19  887   3.806   3.922   1.771  1.5241 -0.2217 -1.2137
    2V3OU   H20  888   3.651   3.931   1.750  1.2356 -1.4933 -0.0387
    2V3OU   C21  889   3.849   3.942   1.487 -0.1948  0.0218 -0.6422
    2V3OU   H11  890   3.953   3.930   1.528  0.3640  0.7459 -1.7835
    2V3OU    O5  891   3.831   4.083   1.482 -0.2123  0.0455 -0.0213
    2V3OU   H18  892   3.789   4.103   1.567 -0.1273 -0.5981  0.1764
    2V3OU   C22  893   3.915   3.948   1.240  0.1443 -0.3678 -0.2234
    2V3OU   H12  894   3.866   4.048   1.233 -0.9707 -0.9074 -0.4429
    2V3OU   H13  895   3.905   3.892   1.144  0.7692 -1.3562  0.2642
    2V3OU   H14  896   4.024   3.956   1.263 -0.4053  0.2284  2.5849
    2V3OU   C11  897   3.162   3.472   1.315 -0.1948 -0.3138 -0.3898
    2V3OU    O1  898   3.132   3.587   1.276  0.0334 -0.2323 -0.3234
    2V3OU    C9  899   3.300   3.423   1.335 -0.1734 -0.1214 -0.0717
    2V3OU    C7  900   3.405   3.500   1.287 -0.2453  0.0137 -0.0114
    2V3OU    O9  901   3.391   3.615   1.212  0.0555  0.1007  0.0633
    2V3OU   H25  902   3.296   3.632   1.203 -0.0736 -1.1031 -1.0527
    2V3OU   C17  903   2.822   3.313   1.348  0.0675  0.1337  0.2893
    2V3OU    H7  904   2.720   3.343   1.324 -0.7275 -2.4481  0.1421
    2V3OU   C18  905   2.845   3.207   1.435 -0.7405  0.0160  0.3588
    2V3OU    H8  906   2.757   3.152   1.473 -0.2680 -1.3220 -0.4147
    3SOL     OW  907   0.953   4.130   6.604  0.3287 -0.0284 -0.5300
    3SOL    HW1  908   0.962   4.064   6.678 -2.1090 -0.6401 -0.6891
    3SOL    HW2  909   1.001   4.097   6.523  1.4259 -0.2564  0.1986
    4SOL     OW  910   6.149   5.922   3.273 -0.2925 -0.4147  0.0796
    4SOL    HW1  911   6.162   5.836   3.322  0.2841 -2.2256 -3.0005
    4SOL    HW2  912   6.079   5.976   3.319 -1.2757 -2.8987  1.7014
    5SOL     OW  913   3.184   2.786   1.196  0.1915  0.3349 -0.1601
    5SOL    HW1  914   3.197   2.828   1.286  0.9593 -1.9847  0.8733
    5SOL    HW2  915   3.173   2.688   1.206 -2.8122  0.3272 -2.3957
    6SOL     OW  916   2.096   2.894   6.516 -0.5444  0.5649  0.2139
    6SOL    HW1  917   2.118   2.892   6.613  4.6911  1.0001 -0.6828
    6SOL    HW2  918   2.103   2.802   6.478  1.0175  0.8724 -0.2967
    7SOL     OW  919   0.163   2.168   0.905  0.0288  0.0696  0.1894
    7SOL    HW1  920   0.086   2.107   0.890 -0.3974  0.7466 -0.4633
    7SOL    HW2  921   0.227   2.160   0.828  2.0684 -2.5238  1.9610
    8SOL     OW  922   1.022   1.504   2.802 -0.0716  0.4538 -0.0261
    8SOL    HW1  923   1.076   1.585   2.823  3.0243 -1.2466 -0.7203
    8SOL    HW2  924   1.026   1.441   2.880 -0.8379  0.1817 -0.2038
    9SOL     OW  925   0.077   3.789   5.891  0.2094 -0.1503  0.6127
    9SOL    HW1  926   0.121   3.869   5.851  0.3658 -0.2199  0.6450
    9SOL    HW2  927   0.147   3.726   5.926  0.3773 -2.3397 -3.1358
   10SOL     OW  928   6.508   3.447   6.582 -0.0289  0.0972 -0.1592
   10SOL    HW1  929   6.580   3.379   6.570 -0.6020 -0.4291 -0.7267
   10SOL    HW2  930   6.506   3.509   6.503 -1.6676 -1.3264 -1.3162
   11SOL     OW  931   5.601   2.279   0.578 -0.2114  0.0374 -0.0679
   11SOL    HW1  932   5.624   2.229   0.661  1.3829 -0.4411 -0.7574
   11SOL    HW2  933   5.502   2.280   0.565 -0.3836 -1.1915  1.0228
   12SOL     OW  934   3.717   6.219   1.632 -0.6382 -0.4781  0.2591
   12SOL    HW1  935   3.631   6.270   1.635 -1.3201 -1.5753  3.4122
   12SOL    HW2  936   3.791   6.279   1.663 -0.8960 -0.4523  0.8579
   13SOL     OW  937   2.642   0.454   4.228  0.1043  0.5496 -0.3755
   13SOL    HW1  938   2.657   0.549   4.203 -0.4016  1.1837  1.5220
   13SOL    HW2  939   2.711   0.426   4.296 -0.0709 -0.2672 -0.5203
   14SOL     OW  940   3.467   1.614   1.882  0.1286 -0.0802 -0.3420
   14SOL    HW1  941   3.429   1.575   1.798  2.2686  1.7160 -2.2832
   14SOL    HW2  942   3.565   1.594   1.885 -0.0489 -0.8816  2.2698
   15SOL     OW  943   4.504   6.080   4.949  0.0110 -0.0574  1.1287
   15SOL    HW1  944   4.458   6.161   4.913  0.4130 -0.0228  0.6828
   15SOL    HW2  945   4.603   6.091   4.940  0.2232  0.5015  3.3963
   16SOL     OW  946   6.211   2.669   1.172  0.3286 -0.6567  0.0525
   16SOL    HW1  947   6.205   2.728   1.091 -0.2671  0.0512  0.5962
   16SOL    HW2  948   6.180   2.720   1.252  1.7554 -1.0552  0.8848
   17SOL     OW  949   5.558   5.655   2.417 -0.5138 -0.1213 -0.6751
   17SOL    HW1  950   5.581   5.749   2.389  0.9883 -0.6201 -1.2164
   17SOL    HW2  951   5.555   5.597   2.336 -2.2548 -0.4006 -0.4309
   18SOL     OW  952   1.210   1.799   2.253  0.0330  0.3445  0.3776
   18SOL    HW1  953   1.222   1.730   2.324  1.1171 -1.7797 -1.7165
   18SOL    HW2  954   1.190   1.754   2.166  3.0904  2.4100 -1.6187
   19SOL     OW  955   0.954   6.585   1.938 -0.2188 -0.3434 -0.4441
   19SOL    HW1  956   0.904   6.554   1.857  0.0525 -2.2504  0.0923
   19SOL    HW2  957   0.939   6.684   1.950 -0.5643 -0.0900 -2.5807
   20SOL     OW  958   3.072   2.072   4.244 -0.1570  0.3427 -0.1257
   20SOL    HW1  959   3.031   2.110   4.161 -0.1016 -1.7207 -1.1552
   20SOL    HW2  960   3.170   2.089   4.243 -0.3288  1.3803  0.1245
   21SOL     OW  961   2.805   1.668   1.189 -0.8822 -0.8574  0.1257
   21SOL    HW1  962   2.794   1.735   1.263 -0.4080  0.4779 -0.9687
   21SOL    HW2  963   2.797   1.715   1.101  0.0275 -2.1535 -0.6734
   22SOL     OW  964   0.745   0.190   4.438 -0.4745  0.1229  0.4384
   22SOL    HW1  965   0.725   0.169   4.534  0.4797 -1.1260  0.3851
   22SOL    HW2  966   0.833   0.237   4.433  0.5634 -1.7600  0.0409
   23SOL     OW  967   4.837   4.254   5.297  0.0487  0.1187  0.1625
   23SOL    HW1  968   4.846   4.210   5.208  0.8422 -0.8503  0.7019
   23SOL    HW2  969   4.858   4.351   5.289  1.6115 -0.2499 -0.4328
   24SOL     OW  970   6.866   1.978   5.041 -0.5511 -0.6482 -0.7276
   24SOL    HW1  971   6.921   1.917   5.097 -1.5450 -0.7200  0.2107
   24SOL    HW2  972   6.921   2.014   4.966  0.7075 -0.8595  0.0647
   25SOL     OW  973   0.172   5.203   1.235  0.5794  0.5067 -0.0111
   25SOL    HW1  974   0.209   5.275   1.176 -0.5832  1.6485  0.5906
   25SOL    HW2  975   0.233   5.190   1.314  2.5397 -1.5624 -1.7560
   26SOL     OW  976   0.040   0.464   4.317 -0.9805  0.6922  0.9659
   26SOL    HW1  977   0.021   0.395   4.387 -0.4116  1.3421  1.7748
   26SOL    HW2  978   0.113   0.524   4.348 -0.5583  0.8607 -0.2878
   27SOL     OW  979   0.383   5.978   0.764  0.0477 -0.0364  0.6628
   27SOL    HW1  980   0.472   6.010   0.797 -0.5310 -0.1248  2.4342
   27SOL    HW2  981   0.354   5.899   0.818 -2.1634  1.4487  1.8148
   28SOL     OW  982   4.006   6.269   0.277  0.1461  0.3564  0.8219
   28SOL    HW1  983   3.957   6.235   0.197  0.2564 -0.7894  1.2318
   28SOL    HW2  984   4.030   6.365   0.263  1.8133 -0.3028 -1.3460
   29SOL     OW  985   3.571   2.385   1.298 -0.4602  0.1005 -0.7858
   29SOL    HW1  986   3.593   2.408   1.393 -1.1242  0.2057 -0.6556
   29SOL    HW2  987   3.475   2.360   1.291 -0.5279  0.5267 -1.5101
   30SOL     OW  988   4.931   0.696   3.331 -0.4390  0.4883 -0.0907
   30SOL    HW1  989   4.924   0.703   3.231 -1.4268  0.1147 -0.0627
   30SOL    HW2  990   4.852   0.740   3.373 -0.0559  0.5929  0.5353
   31SOL     OW  991   0.740   2.390   3.336 -0.2619  0.2186  0.2742
   31SOL    HW1  992   0.718   2.413   3.431 -1.2824  0.1925  0.0561
   31SOL    HW2  993   0.672   2.430   3.275  1.0778  1.3155 -0.5813
   32SOL     OW  994   5.976   3.266   2.439 -0.1466 -0.6842  0.1216
   32SOL    HW1  995   5.885   3.224   2.443 -1.2538  1.5631  0.5490
   32SOL    HW2  996   6.004   3.276   2.344 -1.1536  0.1378 -0.1061
   33SOL     OW  997   1.718   0.151   5.428 -0.6592 -0.1867 -0.2497
   33SOL    HW1  998   1.625   0.119   5.447 -0.5414 -0.3916 -0.0131
   33SOL    HW2  999   1.784   0.078   5.449 -0.3717  0.2764  0.4814
   34SOL     OW 1000   3.499   0.750   4.433  0.0795 -0.0244  0.0989
   34SOL    HW1 1001   3.545   0.837   4.449 -1.0961  0.8108 -0.8960
   34SOL    HW2 1002   3.525   0.685   4.505 -1.0209  1.9335  2.4226
   35SOL     OW 1003   4.084   3.014   5.591  0.0794  0.0332  0.3268
   35SOL    HW1 1004   4.001   3.004   5.535 -1.4532  1.5526  2.2082
   35SOL    HW2 1005   4.062   2.999   5.687  2.0872  0.1918  0.8624
   36SOL     OW 1006   2.068   0.748   5.841  0.4626  0.1361  0.3410
   36SOL    HW1 1007   2.029   0.818   5.781  0.5180  0.7249  0.9773
   36SOL    HW2 1008   1.995   0.701   5.891  0.2791 -1.4520 -1.3202
   37SOL     OW 1009   2.881   6.840   1.114  0.6441  0.1850 -0.0671
   37SOL    HW1 1010   2.815   6.780   1.069  1.6528  0.0177 -1.4343
   37SOL    HW2 1011   2.838   6.927   1.137  0.0110  0.1839 -1.1760
   38SOL     OW 1012   5.186   6.656   0.857 -0.9985 -0.3508  0.1831
   38SOL    HW1 1013   5.270   6.634   0.908  0.8406 -1.2454 -2.9554
   38SOL    HW2 1014   5.130   6.574   0.850 -1.6219 -0.0440  1.2796
   39SOL     OW 1015   5.478   3.217   6.608  0.6436  0.0364  0.0843
   39SOL    HW1 1016   5.388   3.248   6.641  1.2400  0.7569  1.0935
   39SOL    HW2 1017   5.542   3.294   6.609  1.6448 -0.7830  0.7311
   40SOL     OW 1018   0.352   0.339   6.946  0.6670 -0.4928  0.3595
   40SOL    HW1 1019   0.283   0.267   6.941 -0.8992  1.0145 -0.7186
   40SOL    HW2 1020   0.418   0.328   6.871 -0.7117  0.2727 -1.0175
   41SOL     OW 1021   3.708   1.399   5.811  0.1684 -0.0452  0.1685
   41SOL    HW1 1022   3.641   1.473   5.800  0.4069  0.0158 -0.9931
   41SOL    HW2 1023   3.726   1.356   5.722  1.5662 -0.1610  0.4802
   42SOL     OW 1024   4.087   6.985   1.541  0.3643 -0.1041  0.4830
   42SOL    HW1 1025   4.022   7.060   1.524  0.5206 -0.0580  0.0812
   42SOL    HW2 1026   4.043   6.915   1.596 -1.1934 -1.6970 -2.5493
   43SOL     OW 1027   4.678   0.250   4.609 -0.2940  0.4547 -0.0702
   43SOL    HW1 1028   4.624   0.310   4.668  0.3142  1.2473 -0.3105
   43SOL    HW2 1029   4.627   0.233   4.524 -1.2288 -0.7935  0.6967
   44SOL     OW 1030   6.447   3.617   6.789  0.2612  0.0529  0.9948
   44SOL    HW1 1031   6.455   3.538   6.727 -3.7333  0.8238 -0.8312
   44SOL    HW2 1032   6.493   3.696   6.748 -0.3419 -0.0372  0.1025
   45SOL     OW 1033   3.626   1.454   0.690 -0.2766  0.4295  0.1478
   45SOL    HW1 1034   3.700   1.471   0.755  0.0242  1.7553 -0.5061
   45SOL    HW2 1035   3.659   1.391   0.619 -1.0047 -2.0631  1.9104
   46SOL     OW 1036   0.535   5.337   4.798  0.0588 -0.6378  0.8706
   46SOL    HW1 1037   0.577   5.352   4.887  0.1207 -1.8674  1.0534
   46SOL    HW2 1038   0.436   5.352   4.805 -0.0059 -1.2237  1.2673
   47SOL     OW 1039   5.132   4.978   1.777  0.6013  0.2343  0.3638
   47SOL    HW1 1040   5.075   4.938   1.848  1.5787 -0.1799  0.9323
   47SOL    HW2 1041   5.198   5.041   1.818  2.1018 -1.0506  0.0355
   48SOL     OW 1042   0.052   1.654   5.445  0.2626  0.2858 -0.3267
   48SOL    HW1 1043   0.104   1.687   5.524  2.0325 -0.3665 -1.1782
   48SOL    HW2 1044  -0.042   1.634   5.474  0.9585 -0.3075  1.7224
   49SOL     OW 1045   4.589   3.157   0.337 -0.5539 -0.3508 -0.2868
   49SOL    HW1 1046   4.612   3.170   0.433  0.1424 -0.3520 -0.4450
   49SOL    HW2 1047   4.552   3.065   0.324 -1.3846 -0.0827  0.1003
   50SOL     OW 1048   0.401   4.571   3.344  0.6024  0.3520  0.1981
   50SOL    HW1 1049   0.347   4.645   3.302 -1.7977 -0.0247  2.3124
   50SOL    HW2 1050   0.348   4.486   3.341  2.5740 -0.9001 -0.5964
   51SOL     OW 1051   3.775   6.066   2.199 -0.4422  0.6692  0.2912
   51SOL    HW1 1052   3.774   5.967   2.217  3.1023  0.5271  0.3965
   51SOL    HW2 1053   3.822   6.113   2.274 -0.6985  2.2444 -0.4962
   52SOL     OW 1054   1.061   3.782   2.589  0.1674  0.0228 -0.1626
   52SOL    HW1 1055   1.118   3.701   2.602  1.8103  1.0270 -0.8489
   52SOL    HW2 1056   0.978   3.757   2.539  1.3089 -1.0091 -1.6209
   53SOL     OW 1057   5.748   5.603   4.257  0.1947  0.1280  0.7046
   53SOL    HW1 1058   5.686   5.527   4.277  0.8514 -1.1772 -1.7858
   53SOL    HW2 1059   5.743   5.670   4.331 -3.0661 -0.5816  1.2894
   54SOL     OW 1060   3.275   4.610   5.868 -0.5735  0.1459  0.2503
   54SOL    HW1 1061   3.230   4.683   5.919 -0.6144  0.3226 -0.0357
   54SOL    HW2 1062   3.320   4.547   5.932  1.7299  1.8854  0.4430
   55SOL     OW 1063   2.609   1.767   6.309  0.3606  0.2884 -0.0134
   55SOL    HW1 1064   2.617   1.842   6.244 -0.4999 -0.3106 -0.8410
   55SOL    HW2 1065   2.694   1.715   6.311  0.4165  0.3541 -0.6093
   56SOL     OW 1066   1.274   6.946   0.637 -0.0879 -0.0867 -0.0784
   56SOL    HW1 1067   1.212   7.012   0.595  0.0602 -0.6889 -1.3062
   56SOL    HW2 1068   1.258   6.942   0.736 -1.5429  0.2555 -0.2840
   57SOL     OW 1069   6.083   2.336   0.417  0.0276  0.6709 -0.5405
   57SOL    HW1 1070   6.142   2.266   0.457 -1.1995 -0.2391 -0.2453
   57SOL    HW2 1071   6.130   2.424   0.417  2.4498 -0.4756 -2.8264
   58SOL     OW 1072   0.473   1.771   6.371 -0.3429 -0.0262 -0.4939
   58SOL    HW1 1073   0.517   1.702   6.314 -0.5465 -1.6212  1.1908
   58SOL    HW2 1074   0.409   1.727   6.434  0.1260  1.6046  1.2092
   59SOL     OW 1075   1.213   5.321   4.588  0.4018  0.0128 -0.0212
   59SOL    HW1 1076   1.278   5.270   4.644 -0.1782 -1.2862 -0.4896
   59SOL    HW2 1077   1.201   5.275   4.500 -2.6007 -0.9563  0.7610
   60SOL     OW 1078   5.542   5.538   3.892 -0.3948 -0.5185 -0.0929
   60SOL    HW1 1079   5.544   5.612   3.958 -0.4978 -1.1484  0.6363
   60SOL    HW2 1080   5.466   5.476   3.913 -1.3874  0.0638 -1.7053
   61SOL     OW 1081   4.612   5.298   4.433  0.2759  0.0495 -0.3549
   61SOL    HW1 1082   4.576   5.225   4.492  1.5303  0.7519  1.3567
   61SOL    HW2 1083   4.712   5.298   4.437  0.3380  0.9022 -1.5477
   62SOL     OW 1084   3.288   0.887   4.786 -1.1668 -0.5844  0.7111
   62SOL    HW1 1085   3.279   0.983   4.814  0.9879  0.4332 -1.6260
   62SOL    HW2 1086   3.230   0.870   4.706  1.8492  0.3172 -1.9083
   63SOL     OW 1087   0.834   2.922   1.596  0.0018 -0.6159  0.0027
   63SOL    HW1 1088   0.838   3.019   1.622  0.5987 -0.7515  0.4353
   63SOL    HW2 1089   0.826   2.866   1.679  0.4340 -0.9773 -0.1988
   64SOL     OW 1090   6.192   2.006   6.558  0.6864 -0.2578  0.2143
   64SOL    HW1 1091   6.179   1.990   6.656 -1.2486  2.4545  0.5149
   64SOL    HW2 1092   6.286   2.035   6.541  0.9681 -0.5080  1.2733
   65SOL     OW 1093   0.074   2.277   4.998  0.2634 -0.2893 -0.2289
   65SOL    HW1 1094   0.069   2.377   5.000  1.3976 -0.2010 -0.8453
   65SOL    HW2 1095   0.092   2.242   5.089  1.3473  0.1779 -0.2540
   66SOL     OW 1096   1.464   2.370   0.015 -0.0731  0.0788 -0.2344
   66SOL    HW1 1097   1.391   2.417   0.064 -0.4821 -1.0549  0.2900
   66SOL    HW2 1098   1.441   2.273   0.006  1.7452 -0.5114  0.7582
   67SOL     OW 1099   3.788   5.418   3.531 -0.0651 -0.3883 -0.9439
   67SOL    HW1 1100   3.784   5.356   3.609 -0.5354  2.0907  1.1359
   67SOL    HW2 1101   3.725   5.385   3.460  1.4794 -3.5180 -1.0345
   68SOL     OW 1102   3.212   3.244   6.977 -0.0539  0.1052 -0.0858
   68SOL    HW1 1103   3.307   3.225   7.002  0.5273  1.3901 -1.1937
   68SOL    HW2 1104   3.159   3.264   7.060  0.7928  0.0010  0.4919
   69SOL     OW 1105   0.736   2.791   5.274 -0.6586 -1.0894  0.3272
   69SOL    HW1 1106   0.658   2.729   5.272 -1.3129 -0.3466 -3.0078
   69SOL    HW2 1107   0.730   2.856   5.198  2.1029  0.4408  1.2425
   70SOL     OW 1108   6.457   6.285   0.273 -0.3551  0.0076 -0.3957
   70SOL    HW1 1109   6.546   6.267   0.314  0.6644  2.4674 -1.3419
   70SOL    HW2 1110   6.405   6.346   0.332 -0.4519  0.4342 -0.9138
   71SOL     OW 1111   2.087   1.747   2.422 -0.2837  0.2040  0.7129
   71SOL    HW1 1112   2.078   1.794   2.334 -1.6709 -0.4163  0.5029
   71SOL    HW2 1113   2.167   1.686   2.419 -0.9017 -0.5885 -0.5003
   72SOL     OW 1114   2.114   5.553   1.813 -0.2294 -0.1268  0.1926
   72SOL    HW1 1115   2.032   5.500   1.836 -1.3894  0.0718 -3.0055
   72SOL    HW2 1116   2.179   5.547   1.889 -1.8775 -2.8764  1.5717
   73SOL     OW 1117   4.117   0.572   6.529  0.1735 -0.4319  0.6514
   73SOL    HW1 1118   4.063   0.656   6.531  1.1684  0.2214  0.8206
   73SOL    HW2 1119   4.134   0.545   6.435 -1.5058 -1.3607  0.5807
   74SOL     OW 1120   4.062   6.487   5.710  0.2015 -0.3345 -0.5012
   74SOL    HW1 1121   4.146   6.441   5.681  0.1926  1.2001 -3.2925
   74SOL    HW2 1122   3.985   6.451   5.657 -0.5545 -0.1913  0.4832
   75SOL     OW 1123   5.264   5.003   3.493 -0.3336 -0.0123  0.1024
   75SOL    HW1 1124   5.263   4.992   3.592 -2.3986 -0.1861  0.1205
   75SOL    HW2 1125   5.355   4.983   3.458  0.5282  0.3939  1.9873
   76SOL     OW 1126   2.977   2.761   1.436 -0.1230  0.1953 -0.3476
   76SOL    HW1 1127   2.960   2.801   1.526  0.0882 -1.1131  0.2969
   76SOL    HW2 1128   2.891   2.756   1.385 -0.3999  0.1483  0.1179
   77SOL     OW 1129   4.586   4.372   6.523  0.6384 -0.9062 -1.1145
   77SOL    HW1 1130   4.684   4.360   6.511  0.4499 -1.1756 -2.6432
   77SOL    HW2 1131   4.538   4.290   6.490 -0.0421 -1.4249  1.0359
   78SOL     OW 1132   0.335   4.788   6.685  0.0533 -0.0268 -0.0927
   78SOL    HW1 1133   0.240   4.798   6.657  0.0526 -1.4999 -0.7411
   78SOL    HW2 1134   0.369   4.874   6.723 -1.1389  0.8948 -1.0508
   79SOL     OW 1135   2.513   0.197   7.013 -0.0406 -0.2838 -0.1055
   79SOL    HW1 1136   2.588   0.263   7.019  0.0978 -0.3938 -0.6482
   79SOL    HW2 1137   2.550   0.105   7.018 -0.2025 -0.3303  0.2754
   80SOL     OW 1138   1.458   0.288   3.640  0.4339  0.1700 -0.0982
   80SOL    HW1 1139   1.408   0.242   3.713 -0.0982 -0.2741 -0.7241
   80SOL    HW2 1140   1.548   0.316   3.673 -0.0203  0.5083  0.8900
   81SOL     OW 1141   0.602   6.040   3.821  0.4491  0.0712 -0.4514
   81SOL    HW1 1142   0.611   5.966   3.887  1.9710  1.8130  1.4548
   81SOL    HW2 1143   0.537   6.108   3.857  1.9436  1.4535 -0.2609
   82SOL     OW 1144   6.361   4.679   5.644  0.0670 -0.1276 -0.6557
   82SOL    HW1 1145   6.298   4.646   5.574 -0.6864  1.3720 -0.7174
   82SOL    HW2 1146   6.310   4.702   5.727  0.3920  1.8241 -0.9601
   83SOL     OW 1147   0.598   2.021   1.074  0.2483 -0.1512 -0.0995
   83SOL    HW1 1148   0.622   2.001   0.979 -0.1928 -0.4684 -0.1494
   83SOL    HW2 1149   0.549   1.943   1.113  0.9335 -0.2578  0.5687
   84SOL     OW 1150   6.404   4.007   2.494 -0.1949 -0.2454 -0.1628
   84SOL    HW1 1151   6.491   4.007   2.446 -0.3173 -1.1812 -0.4076
   84SOL    HW2 1152   6.349   3.929   2.464 -2.4642  2.0282 -2.4469
   85SOL     OW 1153   1.962   3.369   3.819  0.1126  0.0771  0.3243
   85SOL    HW1 1154   2.054   3.333   3.837 -0.0242 -0.4850 -0.0542
   85SOL    HW2 1155   1.921   3.400   3.905 -0.6370 -2.7704  1.1067
   86SOL     OW 1156   2.114   0.846   4.510  0.1900 -0.2523  0.0375
   86SOL    HW1 1157   2.193   0.843   4.449 -0.2396 -0.2995 -0.5143
   86SOL    HW2 1158   2.141   0.811   4.600  0.7923 -0.2869 -0.1537
   87SOL     OW 1159   4.105   1.023   1.485  0.0510 -0.2405 -0.3797
   87SOL    HW1 1160   4.038   1.049   1.416  0.6811  2.4181 -0.0743
   87SOL    HW2 1161   4.058   0.982   1.564 -0.9058 -0.9072 -1.2746
   88SOL     OW 1162   3.533   1.280   0.000 -0.1848 -0.0408  0.2953
   88SOL    HW1 1163   3.619   1.320  -0.030  0.2660 -0.8721  0.4785
   88SOL    HW2 1164   3.457   1.326  -0.046  0.3661  0.4934 -0.0874
   89SOL     OW 1165   0.328   2.750   6.663  0.6310  0.0322  0.3290
   89SOL    HW1 1166   0.234   2.742   6.694  0.0528 -0.9471 -1.5050
   89SOL    HW2 1167   0.358   2.845   6.670 -0.7943  0.5237  0.1305
   90SOL     OW 1168   6.963   6.125   3.908 -0.0913  0.3941 -0.1941
   90SOL    HW1 1169   7.056   6.159   3.898 -0.0661  0.5483  0.5747
   90SOL    HW2 1170   6.902   6.201   3.931  0.2035 -0.2495  3.0430
   91SOL     OW 1171   5.518   4.906   3.882 -0.1013  0.8600  0.1290
   91SOL    HW1 1172   5.574   4.856   3.949  0.4563  0.3893 -0.6630
   91SOL    HW2 1173   5.575   4.930   3.804 -1.0596  0.2053 -0.7856
   92SOL     OW 1174   3.675   6.849   0.628  0.3154  0.0427  0.8693
   92SOL    HW1 1175   3.643   6.835   0.722  0.4262 -2.0602  0.6378
   92SOL    HW2 1176   3.775   6.855   0.628  0.4858 -2.2670  0.6788
   93SOL     OW 1177   4.969   2.607   6.823 -0.4699 -0.4197 -0.3148
   93SOL    HW1 1178   4.909   2.625   6.901  0.6560 -0.1202  0.5084
   93SOL    HW2 1179   4.915   2.609   6.739 -1.9608 -2.0328  0.5287
   94SOL     OW 1180   0.779   6.776   0.684 -0.4819 -0.4169 -0.0160
   94SOL    HW1 1181   0.705   6.711   0.701 -0.6030 -0.2671  0.0302
   94SOL    HW2 1182   0.863   6.726   0.661 -1.0302 -0.5583 -1.8307
   95SOL     OW 1183   0.769   4.851   3.887  0.1067  0.0835 -0.0756
   95SOL    HW1 1184   0.724   4.780   3.941  1.9809 -0.2315  1.1276
   95SOL    HW2 1185   0.803   4.923   3.947  1.9739 -0.1167 -0.8307
   96SOL     OW 1186   2.239   0.412   4.062  0.4384  0.1026  0.0630
   96SOL    HW1 1187   2.180   0.333   4.076 -1.2917  0.9495 -1.8872
   96SOL    HW2 1188   2.260   0.454   4.150  1.5499 -2.5472  1.1537
   97SOL     OW 1189   5.958   3.575   5.277  1.1052  0.0352 -0.2318
   97SOL    HW1 1190   6.029   3.509   5.303  1.6266 -0.6150 -2.9497
   97SOL    HW2 1191   5.928   3.555   5.184 -1.2567  1.5467  0.1413
   98SOL     OW 1192   4.782   2.796   5.649 -0.1100 -0.5853  0.0762
   98SOL    HW1 1193   4.866   2.743   5.640 -0.1854 -0.4991 -1.1999
   98SOL    HW2 1194   4.795   2.865   5.721  1.1370 -0.1533 -0.5228
   99SOL     OW 1195   4.307   1.054   0.271 -0.1664  0.4428 -0.2757
   99SOL    HW1 1196   4.321   0.956   0.260 -2.0514  0.2153 -0.8937
   99SOL    HW2 1197   4.305   1.076   0.369  3.6529  0.4716 -0.0435
  100SOL     OW 1198   5.818   4.687   5.662  0.8172  0.5171 -0.1252
  100SOL    HW1 1199   5.839   4.671   5.759  0.5221  0.4398 -0.0761
  100SOL    HW2 1200   5.769   4.609   5.624  0.3105  0.8465 -0.1535
  101SOL     OW 1201   2.465   6.225   5.223  0.0735 -0.0052 -0.0103
  101SOL    HW1 1202   2.528   6.297   5.255  0.7087 -1.4280  2.2138
  101SOL    HW2 1203   2.509   6.136   5.233 -1.9999 -0.9955  0.9211
  102SOL     OW 1204   4.391   1.376   3.223  0.5766  0.0011 -0.3523
  102SOL    HW1 1205   4.463   1.420   3.169 -0.2922  2.2196  0.1965
  102SOL    HW2 1206   4.309   1.366   3.167  0.3906  0.2358 -0.1289
  103SOL     OW 1207   4.031   2.120   2.630  0.2987 -0.0038  0.5368
  103SOL    HW1 1208   4.026   2.108   2.729  2.4765  0.6281  0.7624
  103SOL    HW2 1209   4.124   2.142   2.603 -0.3228  0.2303 -1.6363
  104SOL     OW 1210   6.536   6.069   2.314 -0.3741 -0.3987  0.2229
  104SOL    HW1 1211   6.448   6.114   2.300 -1.6525 -2.8183  0.1173
  104SOL    HW2 1212   6.610   6.136   2.301 -2.1441  1.5900 -0.0693
  105SOL     OW 1213   4.628   2.022   6.735  0.2752 -0.2136  0.0124
  105SOL    HW1 1214   4.584   2.026   6.825 -0.0036  2.2853 -0.1536
  105SOL    HW2 1215   4.722   2.054   6.743  1.1466 -2.5557 -0.1797
  106SOL     OW 1216   3.587   5.541   0.936 -0.3689  0.0012  0.8291
  106SOL    HW1 1217   3.584   5.469   0.867  0.3182  0.9404 -0.2167
  106SOL    HW2 1218   3.653   5.517   1.007 -0.0357 -0.3247  0.4107
  107SOL     OW 1219   1.891   3.367   0.342  0.1449 -0.0823  0.5190
  107SOL    HW1 1220   1.882   3.345   0.245  1.1970 -3.1726  1.0236
  107SOL    HW2 1221   1.804   3.403   0.376 -0.5860 -0.0020 -1.3016
  108SOL     OW 1222   3.954   4.056   6.386  0.0160 -0.2584 -0.1673
  108SOL    HW1 1223   4.045   4.018   6.401  0.2110  0.0180 -0.6223
  108SOL    HW2 1224   3.962   4.146   6.345 -0.4256  0.5296  1.3903
  109SOL     OW 1225   5.591   1.195   1.733  0.0588  0.3073  0.3998
  109SOL    HW1 1226   5.584   1.201   1.634 -0.2042  0.1109  0.4045
  109SOL    HW2 1227   5.682   1.223   1.762 -0.4206  2.1637  0.2477
  110SOL     OW 1228   4.401   5.529   3.910 -0.1894 -0.0564 -0.1007
  110SOL    HW1 1229   4.466   5.577   3.852 -0.3893 -1.5036 -1.5994
  110SOL    HW2 1230   4.311   5.529   3.867 -0.2748 -1.4278  0.0193
  111SOL     OW 1231   4.767   0.121   3.558 -0.3035  0.1827  0.5418
  111SOL    HW1 1232   4.733   0.189   3.623 -0.8829  0.5705 -0.1569
  111SOL    HW2 1233   4.818   0.050   3.608 -1.1964  0.1794  1.4775
  112SOL     OW 1234   4.653   2.392   6.994 -0.2074 -0.4459  0.0313
  112SOL    HW1 1235   4.728   2.456   7.012 -0.1723 -0.2354 -0.8637
  112SOL    HW2 1236   4.605   2.418   6.910 -1.4506 -0.4333  0.7167
  113SOL     OW 1237   1.352   0.767   3.291 -0.3649  0.8134  0.3974
  113SOL    HW1 1238   1.408   0.752   3.210  0.3899 -1.8402  1.3000
  113SOL    HW2 1239   1.396   0.724   3.370 -3.1553 -0.4641  1.3631
  114SOL     OW 1240   0.681   6.941   6.178  0.0173 -0.0818  0.2532
  114SOL    HW1 1241   0.766   6.927   6.127  0.4064  0.0398  0.8612
  114SOL    HW2 1242   0.606   6.896   6.130  0.1959  0.8384 -0.9422
  115SOL     OW 1243   3.170   1.122   4.551  0.3807 -0.2244 -0.3095
  115SOL    HW1 1244   3.153   1.042   4.493 -0.3399 -1.2627  1.2622
  115SOL    HW2 1245   3.109   1.196   4.524 -2.2823 -1.7565  1.0773
  116SOL     OW 1246   4.962   5.799   2.580 -0.1712 -0.2690  0.3673
  116SOL    HW1 1247   5.051   5.842   2.565 -0.3948  0.9612  2.2270
  116SOL    HW2 1248   4.968   5.737   2.658 -1.2859  1.1775  1.6877
  117SOL     OW 1249   1.910   6.801   4.263  0.6937 -0.6016  0.4883
  117SOL    HW1 1250   1.945   6.783   4.355 -0.6809 -0.7973  0.9935
  117SOL    HW2 1251   1.833   6.740   4.244 -0.0038  0.4702 -0.2061
  118SOL     OW 1252   0.107   1.718   2.248 -0.1689  0.3318 -0.8315
  118SOL    HW1 1253   0.067   1.684   2.334  2.5017 -0.2800  0.2489
  118SOL    HW2 1254   0.128   1.642   2.188  0.7142  0.5058 -0.7537
  119SOL     OW 1255   5.229   4.007   5.530  0.4320 -0.3329 -0.0247
  119SOL    HW1 1256   5.201   3.995   5.625  0.4104  1.3236  0.2110
  119SOL    HW2 1257   5.300   3.941   5.507  0.7476 -0.4739  1.2787
  120SOL     OW 1258   4.718   0.890   1.084 -0.3956  0.0710  0.3093
  120SOL    HW1 1259   4.714   0.980   1.128  2.4852  0.1735  0.5409
  120SOL    HW2 1260   4.697   0.819   1.152  0.8046  0.4068  1.0673
  121SOL     OW 1261   2.187   2.954   5.268 -0.2669 -0.0257 -0.5232
  121SOL    HW1 1262   2.181   3.048   5.233  0.2362  0.7289  1.2930
  121SOL    HW2 1263   2.271   2.912   5.234  0.1565  0.6430 -0.3316
  122SOL     OW 1264   1.104   3.529   5.192  0.2900  0.1419  0.0937
  122SOL    HW1 1265   1.069   3.600   5.131 -2.4097 -0.2002  1.1219
  122SOL    HW2 1266   1.080   3.439   5.155  0.9328 -0.1487  0.3689
  123SOL     OW 1267   3.187   3.095   1.830  0.5009  0.5637 -0.3171
  123SOL    HW1 1268   3.219   3.068   1.740  1.3317  1.1628 -0.2168
  123SOL    HW2 1269   3.088   3.111   1.827  0.3643 -0.3279 -0.8823
  124SOL     OW 1270   4.399   2.715   1.538  0.4655  0.3354 -0.4735
  124SOL    HW1 1271   4.459   2.757   1.470  2.2813 -0.4873  0.5512
  124SOL    HW2 1272   4.444   2.716   1.628 -1.0952 -0.2637  0.3574
  125SOL     OW 1273   1.918   3.870   1.601 -0.2882  0.2898  0.0500
  125SOL    HW1 1274   1.850   3.903   1.536 -0.1463  2.0869  0.7751
  125SOL    HW2 1275   2.010   3.886   1.565 -0.2123 -0.2146  0.0020
  126SOL     OW 1276   3.279   3.203   0.280  0.0600  0.6050 -0.1395
  126SOL    HW1 1277   3.334   3.157   0.210  1.9385  1.5140  0.6754
  126SOL    HW2 1278   3.276   3.301   0.261  1.1583  0.9643  1.3701
  127SOL     OW 1279   6.449   0.064   5.905 -0.1773  0.0237  0.2944
  127SOL    HW1 1280   6.517   0.123   5.863 -0.5534  0.2871  0.0530
  127SOL    HW2 1281   6.494   0.001   5.969  0.1651  0.8804  0.9049
  128SOL     OW 1282   2.452   2.779   1.172  0.4161  0.1689  0.8100
  128SOL    HW1 1283   2.394   2.704   1.140 -0.3230 -0.2136  2.8932
  128SOL    HW2 1284   2.531   2.742   1.220  0.3257  0.7017  1.3872
  129SOL     OW 1285   3.176   2.670   6.686  0.2935 -0.0386 -0.1982
  129SOL    HW1 1286   3.211   2.726   6.761  0.7868 -0.6808  0.0623
  129SOL    HW2 1287   3.205   2.575   6.699 -2.4031 -0.8365  0.5842
  130SOL     OW 1288   0.650   1.664   3.682 -0.0237 -0.0747 -0.2316
  130SOL    HW1 1289   0.698   1.585   3.643  0.0924 -0.8372  1.3759
  130SOL    HW2 1290   0.714   1.716   3.739 -0.6497 -0.0902  0.4979
  131SOL     OW 1291   4.973   4.993   3.283 -0.4255 -0.1603 -0.6467
  131SOL    HW1 1292   4.986   4.950   3.373  1.6501  0.8718 -0.4030
  131SOL    HW2 1293   4.948   4.923   3.216  0.3663 -1.3507  0.2528
  132SOL     OW 1294   0.863   3.005   2.071  0.2780  0.0798 -0.0895
  132SOL    HW1 1295   0.939   3.071   2.068  0.8265 -0.5033  0.6724
  132SOL    HW2 1296   0.795   3.036   2.138 -0.5155  0.9512 -1.2468
  133SOL     OW 1297   6.458   4.809   2.360 -0.2063 -0.2359  0.2019
  133SOL    HW1 1298   6.471   4.778   2.266  0.1227 -1.8080  0.7309
  133SOL    HW2 1299   6.525   4.763   2.419  0.4396  1.6924  1.0265
  134SOL     OW 1300   1.915   4.290   3.794 -0.2094  0.1832  0.2837
  134SOL    HW1 1301   2.006   4.247   3.795  0.3052  1.2460  1.0315
  134SOL    HW2 1302   1.863   4.259   3.873 -0.9960 -1.4031 -0.8140
  135SOL     OW 1303   6.665   6.706   4.528 -0.0138  0.5046  0.0920
  135SOL    HW1 1304   6.610   6.637   4.479  0.8211 -0.7968  0.9156
  135SOL    HW2 1305   6.607   6.783   4.552 -1.2197 -0.3292 -0.0345
  136SOL     OW 1306   4.666   4.846   6.219 -0.1840  0.1598  0.7011
  136SOL    HW1 1307   4.676   4.763   6.165  1.4413 -0.7703  2.3362
  136SOL    HW2 1308   4.756   4.886   6.238 -0.8681  1.7739  0.7492
  137SOL     OW 1309   3.201   6.051   0.314 -0.2949  0.3574 -0.4758
  137SOL    HW1 1310   3.260   6.082   0.239 -3.5566  1.3838 -2.8905
  137SOL    HW2 1311   3.135   6.123   0.336 -2.6381 -1.7149 -0.2091
  138SOL     OW 1312   1.861   0.501   4.666  0.3284  0.2436  0.0531
  138SOL    HW1 1313   1.786   0.514   4.731  0.9069  0.7094  0.6527
  138SOL    HW2 1314   1.847   0.559   4.586 -0.4750 -0.4556 -0.3172
  139SOL     OW 1315   1.322   6.820   5.530  0.4617 -0.0314  0.9252
  139SOL    HW1 1316   1.302   6.842   5.626  0.8329 -1.6264  1.3898
  139SOL    HW2 1317   1.359   6.728   5.524  1.0782  0.2947 -0.7005
  140SOL     OW 1318   7.022   5.388   4.822 -0.1938  0.1482 -0.2239
  140SOL    HW1 1319   6.957   5.391   4.899 -1.2092 -1.3154 -0.9812
  140SOL    HW2 1320   7.012   5.472   4.768  0.5578  1.2131  1.2159
  141SOL     OW 1321   0.593   2.457   3.143  0.7765 -0.2233 -0.3279
  141SOL    HW1 1322   0.494   2.441   3.145  0.9925 -2.1601  2.7653
  141SOL    HW2 1323   0.632   2.421   3.058 -1.0467 -0.3340 -1.1571
  142SOL     OW 1324   0.340   6.857   1.365  0.0524 -0.1952  0.0242
  142SOL    HW1 1325   0.372   6.884   1.274 -0.4557  0.3209 -0.0045
  142SOL    HW2 1326   0.240   6.850   1.364  0.0611 -0.4014  0.4907
  143SOL     OW 1327   4.898   4.718   3.064 -0.0868 -0.1062  0.2896
  143SOL    HW1 1328   4.887   4.633   3.115 -0.8249 -1.6487 -2.2368
  143SOL    HW2 1329   4.807   4.756   3.044  0.0913 -0.3344 -1.0469
  144SOL     OW 1330   3.647   6.511   6.643  0.0243 -0.0831  0.4180
  144SOL    HW1 1331   3.553   6.541   6.628 -0.1311 -0.8869 -0.2876
  144SOL    HW2 1332   3.687   6.562   6.720 -1.9032 -1.6851  2.6156
  145SOL     OW 1333   6.620   3.850   6.695 -0.3137 -0.4170 -0.4165
  145SOL    HW1 1334   6.613   3.875   6.599 -2.4815 -2.4876 -0.8785
  145SOL    HW2 1335   6.700   3.792   6.709  0.3582  0.3931 -0.8172
  146SOL     OW 1336   5.396   5.766   7.007  0.1574  0.1239 -0.3268
  146SOL    HW1 1337   5.369   5.818   7.089 -0.9757 -0.7386 -0.1212
  146SOL    HW2 1338   5.481   5.716   7.026  0.7492  1.1445 -0.2164
  147SOL     OW 1339   0.523   2.363   1.947 -0.3331 -0.6570  0.1377
  147SOL    HW1 1340   0.492   2.275   1.911 -0.2265 -0.4320 -0.5185
  147SOL    HW2 1341   0.620   2.356   1.972 -0.5224 -0.9437  0.8324
  148SOL     OW 1342   1.754   4.342   6.882  0.3573 -0.0469  0.6264
  148SOL    HW1 1343   1.694   4.408   6.837 -0.1956  0.7664  2.4848
  148SOL    HW2 1344   1.825   4.391   6.933  1.3439 -0.9616  0.1777
  149SOL     OW 1345   1.803   1.101   7.007 -0.4097 -0.2394 -1.0048
  149SOL    HW1 1346   1.782   1.034   6.935  0.9114 -1.5212 -0.2538
  149SOL    HW2 1347   1.728   1.105   7.072 -0.8025 -0.4711 -1.4348
  150SOL     OW 1348   0.102   6.907   5.682  0.4350  0.4989 -0.2582
  150SOL    HW1 1349   0.017   6.868   5.648  0.5704 -1.5933  1.5367
  150SOL    HW2 1350   0.163   6.927   5.605 -0.9199  0.1833 -1.4469
  151SOL     OW 1351   3.169   2.667   1.771 -0.3391 -0.5303  0.1046
  151SOL    HW1 1352   3.118   2.591   1.811  0.5543 -1.9158 -1.2700
  151SOL    HW2 1353   3.221   2.714   1.843  1.7572 -3.3455  0.6283
  152SOL     OW 1354   5.104   0.432   4.069  0.2589 -0.3534 -0.0030
  152SOL    HW1 1355   5.149   0.350   4.033  1.2934 -0.1017  0.6809
  152SOL    HW2 1356   5.051   0.407   4.150 -2.2395 -0.9608 -1.6814
  153SOL     OW 1357   2.038   4.815   3.437  0.2174  0.2178  0.3040
  153SOL    HW1 1358   2.072   4.909   3.443  0.5480  0.1104  0.1541
  153SOL    HW2 1359   2.097   4.755   3.490  0.0313  0.0883  0.3645
  154SOL     OW 1360   6.626   2.523   3.151 -0.3907 -0.1174 -0.1920
  154SOL    HW1 1361   6.665   2.605   3.192  0.6743 -0.1577 -1.0792
  154SOL    HW2 1362   6.667   2.508   3.061  0.0206 -2.0562  0.2688
  155SOL     OW 1363   6.670   1.426   2.786  0.1181  0.0614  0.5376
  155SOL    HW1 1364   6.604   1.407   2.714  0.8536 -1.6916  0.2827
  155SOL    HW2 1365   6.624   1.424   2.875 -0.6022  1.2689  0.2183
  156SOL     OW 1366   2.490   1.668   1.377  0.0503  0.1842 -0.1465
  156SOL    HW1 1367   2.538   1.586   1.344 -0.7370  0.4010 -1.9875
  156SOL    HW2 1368   2.513   1.745   1.318 -1.6337  0.5504 -0.3910
  157SOL     OW 1369   4.693   4.249   2.201  0.0359 -0.2016  0.3951
  157SOL    HW1 1370   4.630   4.257   2.124 -0.5970 -1.4960  0.7555
  157SOL    HW2 1371   4.783   4.283   2.174 -0.4028  0.2154 -0.6144
  158SOL     OW 1372   0.780   3.442   2.554 -0.3396  0.7596 -0.1124
  158SOL    HW1 1373   0.793   3.388   2.638 -0.3262  0.9775  0.0253
  158SOL    HW2 1374   0.819   3.533   2.567 -2.0585  1.4738  0.3518
  159SOL     OW 1375   5.731   3.022   2.711 -0.1649 -0.8040  0.0740
  159SOL    HW1 1376   5.682   2.937   2.691  2.0187 -2.1215 -0.0663
  159SOL    HW2 1377   5.749   3.071   2.626 -0.2683 -0.8693  0.0137
  160SOL     OW 1378   6.134   2.595   5.237  0.4332 -0.6664  0.5624
  160SOL    HW1 1379   6.097   2.619   5.326 -1.1313  0.8898 -0.4426
  160SOL    HW2 1380   6.060   2.586   5.171  1.5794 -1.4280 -0.6834
  161SOL     OW 1381   3.942   5.059   5.359  0.5646 -0.7873 -0.5814
  161SOL    HW1 1382   3.908   5.075   5.452  1.9226 -0.0348 -0.1735
  161SOL    HW2 1383   3.921   4.966   5.331  0.9024 -1.3209  0.8501
  162SOL     OW 1384   3.953   5.025   0.099 -0.2815  0.3763 -0.4735
  162SOL    HW1 1385   3.996   5.114   0.110  1.6369 -0.6288  0.8020
  162SOL    HW2 1386   3.962   4.973   0.185  0.4279 -1.7368 -1.7470
  163SOL     OW 1387   5.808   1.583   1.710  0.2016  0.1106  0.2411
  163SOL    HW1 1388   5.723   1.610   1.755  0.5514 -1.6879  2.0681
  163SOL    HW2 1389   5.855   1.665   1.677 -0.6476  1.4178  2.1168
  164SOL     OW 1390   6.927   4.984   2.310 -0.2409 -0.3836  0.3051
  164SOL    HW1 1391   6.986   5.064   2.299  0.4084 -0.4084  2.7937
  164SOL    HW2 1392   6.833   5.014   2.327  0.2180 -0.0134  2.4851
  165SOL     OW 1393   6.049   4.293   6.756  0.2976 -0.3770  0.5529
  165SOL    HW1 1394   5.999   4.208   6.741  1.3265 -1.0671  0.8840
  165SOL    HW2 1395   6.049   4.315   6.854  0.2294 -0.1241  0.4965
  166SOL     OW 1396   0.658   6.581   2.372  0.2894 -0.3830  0.2258
  166SOL    HW1 1397   0.692   6.555   2.281 -0.0525  1.2632 -0.4125
  166SOL    HW2 1398   0.667   6.680   2.384  0.1960 -0.5576  1.9503
  167SOL     OW 1399   6.809   2.464   6.667 -0.3077  0.5213 -0.2638
  167SOL    HW1 1400   6.762   2.401   6.605  0.3457 -0.4380  0.1906
  167SOL    HW2 1401   6.907   2.444   6.667 -0.4225 -0.2580  1.9279
  168SOL     OW 1402   2.151   6.762   6.709  0.3682  0.4636 -0.3775
  168SOL    HW1 1403   2.081   6.721   6.650  0.4741  0.9330 -0.8460
  168SOL    HW2 1404   2.240   6.720   6.689  0.7910  2.0281 -2.0683
  169SOL     OW 1405   6.777   5.068   0.339  0.2421 -0.0181 -0.5294
  169SOL    HW1 1406   6.804   5.045   0.245  0.9251 -2.2485  0.1621
  169SOL    HW2 1407   6.696   5.016   0.364 -0.8715  1.7366 -0.3681
  170SOL     OW 1408   5.768   2.238   1.475 -0.7065 -0.1401  0.2039
  170SOL    HW1 1409   5.701   2.310   1.493 -1.4911 -0.6743 -0.5100
  170SOL    HW2 1410   5.734   2.152   1.512 -0.0417 -0.2656  0.5334
  171SOL     OW 1411   3.462   4.115   6.883  0.3809  0.3967  0.8643
  171SOL    HW1 1412   3.522   4.183   6.841  1.9038 -1.7434 -0.6614
  171SOL    HW2 1413   3.403   4.075   6.813  2.2936 -2.5747  0.7568
  172SOL     OW 1414   0.745   3.348   1.145  0.8983  0.0192  0.8580
  172SOL    HW1 1415   0.745   3.314   1.051 -0.8552  1.0640  0.4327
  172SOL    HW2 1416   0.654   3.337   1.185  1.4292  0.2698  2.1915
  173SOL     OW 1417   1.094   0.688   6.426 -0.1401  0.1449 -0.3158
  173SOL    HW1 1418   1.067   0.685   6.330 -0.5189 -1.0009 -0.1819
  173SOL    HW2 1419   1.025   0.644   6.483  0.5402 -0.0690  0.3748
  174SOL     OW 1420   2.471   5.944   2.720  0.4998  0.6419 -0.0007
  174SOL    HW1 1421   2.542   5.917   2.655  0.1991  2.3415 -1.1092
  174SOL    HW2 1422   2.381   5.920   2.684  0.4210 -0.0984  0.6719
  175SOL     OW 1423   3.026   5.862   1.913  0.3426  0.1300 -0.6726
  175SOL    HW1 1424   3.009   5.810   1.830  1.9220 -0.1584 -0.8510
  175SOL    HW2 1425   2.947   5.855   1.974  0.2928 -2.1033 -0.9048
  176SOL     OW 1426   3.453   3.912   0.730  0.0792 -0.2512  0.3564
  176SOL    HW1 1427   3.458   3.997   0.678  1.5074 -1.0610 -0.9625
  176SOL    HW2 1428   3.361   3.898   0.765 -0.0575  2.0526  1.0395
  177SOL     OW 1429   4.500   2.431   2.724 -0.3556  0.6360 -0.3249
  177SOL    HW1 1430   4.557   2.502   2.766  1.1693 -1.2973  1.0349
  177SOL    HW2 1431   4.512   2.434   2.625  1.8615  0.5484 -0.1076
  178SOL     OW 1432   5.803   5.477   4.901 -0.4313  0.0553 -0.0167
  178SOL    HW1 1433   5.797   5.565   4.949  0.7518  0.9233 -1.3530
  178SOL    HW2 1434   5.744   5.480   4.820  0.6885  0.2008 -0.8575
  179SOL     OW 1435   1.318   1.288   0.593  0.0734 -0.5140 -0.4194
  179SOL    HW1 1436   1.400   1.256   0.641  0.7298 -0.1345 -1.2535
  179SOL    HW2 1437   1.288   1.375   0.631  0.6236 -0.1860 -0.7274
  180SOL     OW 1438   6.938   2.724   0.045 -0.2012 -0.7149  0.0086
  180SOL    HW1 1439   7.010   2.692  -0.017 -0.1671 -0.2075 -0.2203
  180SOL    HW2 1440   6.862   2.658   0.045  0.2657 -1.2566  0.2593
  181SOL     OW 1441   3.215   3.696   5.162 -0.2876 -0.3547  0.0478
  181SOL    HW1 1442   3.120   3.671   5.144 -0.6878  0.1718  1.2889
  181SOL    HW2 1443   3.272   3.615   5.159 -0.4160 -0.4366 -2.6310
  182SOL     OW 1444   6.319   1.624   3.625  0.6615  0.4987  0.7507
  182SOL    HW1 1445   6.285   1.685   3.697  0.3669  0.5987  0.5290
  182SOL    HW2 1446   6.273   1.646   3.538  0.5805 -0.0096  0.6621
  183SOL     OW 1447   5.965   2.273   2.873 -0.3572 -0.5486 -0.2088
  183SOL    HW1 1448   5.886   2.252   2.815 -0.3666 -1.4045  0.0888
  183SOL    HW2 1449   5.966   2.210   2.951  0.9075 -0.8990 -0.4847
  184SOL     OW 1450   6.614   4.488   4.199 -0.4761  0.3083  0.0973
  184SOL    HW1 1451   6.652   4.470   4.108 -0.0299  1.7476 -0.0381
  184SOL    HW2 1452   6.549   4.416   4.223  0.2439 -0.6962 -0.8734
  185SOL     OW 1453   2.147   3.214   5.083 -0.6164 -0.6010 -0.4908
  185SOL    HW1 1454   2.158   3.150   5.008 -1.5512  0.2747 -1.4098
  185SOL    HW2 1455   2.068   3.273   5.066  0.7067  1.3860 -0.1288
  186SOL     OW 1456   0.272   5.020   4.839 -0.5694  1.0911 -0.5202
  186SOL    HW1 1457   0.328   4.958   4.894 -0.8364  1.0093 -0.3404
  186SOL    HW2 1458   0.246   5.100   4.894 -0.9275  0.9569 -0.4904
  187SOL     OW 1459   0.086   5.766   4.538 -0.1035 -0.3684  0.1553
  187SOL    HW1 1460   0.058   5.683   4.489 -0.3981  0.4507 -1.1147
  187SOL    HW2 1461   0.026   5.842   4.511  0.1552  0.2614  1.3030
  188SOL     OW 1462   0.180   1.370   4.358  0.6353 -0.7528  0.6322
  188SOL    HW1 1463   0.185   1.339   4.264  0.0798  1.2554 -0.1085
  188SOL    HW2 1464   0.253   1.436   4.375 -0.6154  0.6012  0.9108
  189SOL     OW 1465   1.101   6.043   1.964 -0.1010  0.2038 -0.0905
  189SOL    HW1 1466   1.176   5.976   1.968  0.7685  1.1962  1.1946
  189SOL    HW2 1467   1.014   5.995   1.970  0.4960 -0.8474  0.6987
  190SOL     OW 1468   3.906   0.824   6.397  0.2061 -0.0682 -0.2559
  190SOL    HW1 1469   3.977   0.881   6.438  0.3170  0.0201 -0.5672
  190SOL    HW2 1470   3.950   0.750   6.345  0.0694 -0.8984  0.7713
  191SOL     OW 1471   4.923   0.354   4.293 -0.4467 -0.2575  0.4178
  191SOL    HW1 1472   4.999   0.307   4.338 -1.4534 -1.8093  0.5907
  191SOL    HW2 1473   4.884   0.422   4.355 -1.2897 -1.7908  1.6399
  192SOL     OW 1474   0.574   6.583   0.681  0.7664  0.2421  0.2678
  192SOL    HW1 1475   0.601   6.492   0.650 -1.3170  0.4976 -2.7711
  192SOL    HW2 1476   0.483   6.579   0.722  0.2263  1.0512 -0.7957
  193SOL     OW 1477   4.681   3.961   6.897 -0.3792 -0.4953  0.8551
  193SOL    HW1 1478   4.712   3.880   6.847 -0.6227  0.2636 -0.5671
  193SOL    HW2 1479   4.583   3.954   6.915 -0.4443 -0.4311  0.5389
  194SOL     OW 1480   5.575   6.986   4.540 -0.9286 -0.5097  0.0485
  194SOL    HW1 1481   5.551   7.012   4.446 -3.1406 -0.0099  0.6756
  194SOL    HW2 1482   5.624   7.061   4.584 -4.5278  1.6155  0.8522
  195SOL     OW 1483   1.486   6.869   4.338 -0.4531  0.3044 -0.6503
  195SOL    HW1 1484   1.454   6.961   4.361 -2.6437 -0.2813 -1.0994
  195SOL    HW2 1485   1.484   6.857   4.239 -1.1975 -0.5486 -0.5407
  196SOL     OW 1486   1.021   2.510   0.552 -0.0803  0.1053 -0.4655
  196SOL    HW1 1487   0.948   2.512   0.620 -0.8391  1.6074 -1.2881
  196SOL    HW2 1488   1.023   2.420   0.508 -0.6642 -0.3258  0.3688
  197SOL     OW 1489   1.293   1.297   2.874  0.2438  0.8413 -0.3969
  197SOL    HW1 1490   1.343   1.283   2.960  0.5316 -0.3981 -0.7515
  197SOL    HW2 1491   1.200   1.261   2.884 -0.4449  2.6204  0.0696
  198SOL     OW 1492   4.250   1.129   3.028 -0.4776 -0.6604 -0.8281
  198SOL    HW1 1493   4.187   1.053   3.016 -1.0426 -0.5477  1.1769
  198SOL    HW2 1494   4.200   1.215   3.021 -0.3156 -0.5375 -0.5129
  199SOL     OW 1495   1.461   1.988   2.835 -0.4284  0.3258 -0.0567
  199SOL    HW1 1496   1.519   2.021   2.910 -2.0195  1.9844  0.4975
  199SOL    HW2 1497   1.500   2.015   2.747  2.9086 -3.8619 -0.1747
  200SOL     OW 1498   1.097   2.385   1.825 -0.2044  0.2646 -0.0105
  200SOL    HW1 1499   1.049   2.472   1.815 -3.0501 -1.1977 -0.1279
  200SOL    HW2 1500   1.066   2.321   1.754  0.1061 -1.5447  1.3909
  201SOL     OW 1501   0.151   2.272   5.294 -0.5022  0.4741  0.3099
  201SOL    HW1 1502   0.137   2.365   5.329 -0.1307 -0.1394  2.2104
  201SOL    HW2 1503   0.237   2.236   5.329 -1.1133 -0.9436  0.4103
  202SOL     OW 1504   4.133   5.427   0.355 -0.1155 -0.2257  0.0125
  202SOL    HW1 1505   4.049   5.452   0.401  0.7245  1.3295  0.7771
  202SOL    HW2 1506   4.194   5.380   0.419 -0.3090 -1.1904 -0.4892
  203SOL     OW 1507   5.051   2.547   2.358 -0.3786 -0.8089  0.1204
  203SOL    HW1 1508   5.110   2.608   2.411  0.5515 -1.4805 -0.0983
  203SOL    HW2 1509   5.035   2.587   2.267 -3.4474  1.2201  1.3737
  204SOL     OW 1510   5.339   6.978   4.323  0.2494 -0.1254 -0.5397
  204SOL    HW1 1511   5.240   6.965   4.312  0.7589 -3.7795 -2.0947
  204SOL    HW2 1512   5.367   6.943   4.412  0.0745  2.0298  0.4228
  205SOL     OW 1513   0.937   2.308   2.991 -0.3626  0.0980 -0.0195
  205SOL    HW1 1514   1.030   2.284   2.963 -0.4189 -0.9346  0.6001
  205SOL    HW2 1515   0.939   2.385   3.053 -0.0239  0.7780 -0.8593
  206SOL     OW 1516   6.979   4.023   1.504  0.1813  0.2881  0.2548
  206SOL    HW1 1517   6.883   4.010   1.527  0.3704  0.3636  1.1362
  206SOL    HW2 1518   6.987   4.056   1.410 -0.8069  2.5613  0.8810
  207SOL     OW 1519   0.549   1.149   3.249  0.1306 -0.1749  0.1337
  207SOL    HW1 1520   0.554   1.204   3.167 -0.4129 -2.5776 -1.6238
  207SOL    HW2 1521   0.453   1.124   3.267  0.1963  0.5879  1.7230
  208SOL     OW 1522   6.899   2.482   5.676  0.0677 -0.3424  0.1562
  208SOL    HW1 1523   6.860   2.531   5.598  0.0208 -0.8100 -0.1142
  208SOL    HW2 1524   6.902   2.544   5.755 -1.3110 -0.3135  0.2180
  209SOL     OW 1525   0.684   4.547   5.087 -0.0876 -0.1379  0.1304
  209SOL    HW1 1526   0.752   4.500   5.031 -0.0727  0.8063 -0.6545
  209SOL    HW2 1527   0.610   4.581   5.029  0.8020  2.4043  0.4036
  210SOL     OW 1528   5.391   4.416   1.670  0.3178  0.0320 -0.2715
  210SOL    HW1 1529   5.478   4.371   1.689  0.6558  0.3171 -1.0871
  210SOL    HW2 1530   5.350   4.376   1.588  0.1019  0.4714 -0.3825
  211SOL     OW 1531   2.065   1.265   0.752 -0.2143 -0.4788 -0.1542
  211SOL    HW1 1532   2.135   1.226   0.812  0.7579 -0.6938 -1.3694
  211SOL    HW2 1533   2.080   1.364   0.744 -0.8039 -0.3313  0.5386
  212SOL     OW 1534   1.612   4.697   0.387 -0.0622  0.0282 -0.1092
  212SOL    HW1 1535   1.663   4.776   0.422 -1.4526  1.2478 -0.7737
  212SOL    HW2 1536   1.547   4.667   0.456  0.7593 -0.8509  0.3136
  213SOL     OW 1537   0.511   5.315   1.007  0.2890 -0.3962  0.4988
  213SOL    HW1 1538   0.540   5.338   1.100  0.2128  0.4852  0.3087
  213SOL    HW2 1539   0.418   5.350   0.992  0.0762 -1.0389  0.2787
  214SOL     OW 1540   4.481   5.204   1.682  0.6062  0.3262  0.3987
  214SOL    HW1 1541   4.515   5.218   1.776  1.9972 -0.2932  0.0181
  214SOL    HW2 1542   4.556   5.221   1.618 -0.6683  2.0850 -0.7211
  215SOL     OW 1543   4.410   4.572   3.317  0.2066 -0.1581  0.3625
  215SOL    HW1 1544   4.365   4.661   3.317 -1.7654 -1.0468 -1.9385
  215SOL    HW2 1545   4.380   4.519   3.397 -1.0994  0.1049  0.0615
  216SOL     OW 1546   0.728   5.226   3.488  0.2018 -0.1738 -0.3290
  216SOL    HW1 1547   0.738   5.257   3.394  0.7933 -1.2640 -0.6531
  216SOL    HW2 1548   0.635   5.244   3.520 -0.5709 -1.3661 -1.7467
  217SOL     OW 1549   6.826   3.050   5.007 -0.5681  0.0288  0.4714
  217SOL    HW1 1550   6.925   3.049   5.018 -0.4730 -0.9246 -0.3342
  217SOL    HW2 1551   6.802   3.012   4.917 -1.7694 -2.4037  1.7105
  218SOL     OW 1552   1.353   3.415   5.828  0.0366 -0.4333  0.6939
  218SOL    HW1 1553   1.440   3.371   5.807 -0.4526 -0.2686 -1.9343
  218SOL    HW2 1554   1.280   3.348   5.829  0.0479 -0.4797  2.3503
  219SOL     OW 1555   5.017   0.450   1.129  0.5114  0.2928  0.0837
  219SOL    HW1 1556   5.117   0.448   1.128  0.5441  0.7925  1.0332
  219SOL    HW2 1557   4.981   0.358   1.144  0.8656  0.2987  1.0039
  220SOL     OW 1558   1.498   4.701   2.349  0.6178  0.1490  0.2272
  220SOL    HW1 1559   1.418   4.757   2.371 -1.1139 -1.1372 -2.3278
  220SOL    HW2 1560   1.499   4.619   2.407  1.3629  1.1611  1.7284
  221SOL     OW 1561   4.682   5.250   2.677 -0.6966 -0.2612  0.1470
  221SOL    HW1 1562   4.650   5.344   2.660 -0.8136 -0.2256  0.5342
  221SOL    HW2 1563   4.651   5.190   2.604 -2.2322 -0.3501  0.8216
  222SOL     OW 1564   1.343   5.116   6.640 -0.2851 -0.2943  0.4308
  222SOL    HW1 1565   1.432   5.091   6.679  0.1524  2.0923  1.1250
  222SOL    HW2 1566   1.284   5.151   6.713  0.0831  3.0293 -0.6965
  223SOL     OW 1567   6.454   6.939   2.703 -0.2931 -0.4149  0.5168
  223SOL    HW1 1568   6.409   6.980   2.623 -0.4527 -1.9739 -0.2222
  223SOL    HW2 1569   6.390   6.936   2.779 -0.4938  0.0649  0.3736
  224SOL     OW 1570   2.938   1.095   4.934 -0.1101  0.6326 -0.4441
  224SOL    HW1 1571   3.036   1.103   4.914  0.7064  0.6441  2.9868
  224SOL    HW2 1572   2.912   1.167   4.999 -1.8483 -0.7964  0.5128
  225SOL     OW 1573   5.604   6.975   3.338  0.0794 -0.0406 -0.1260
  225SOL    HW1 1574   5.638   6.887   3.370 -0.4144  1.1256  4.3560
  225SOL    HW2 1575   5.649   7.048   3.388 -1.5115  2.1165 -1.6672
  226SOL     OW 1576   0.080   1.901   6.152 -0.7067 -0.4467  0.1028
  226SOL    HW1 1577   0.060   1.804   6.138  1.1294 -0.8807  0.2436
  226SOL    HW2 1578   0.176   1.918   6.133 -1.4476  1.8216 -2.3064
  227SOL     OW 1579   1.896   4.599   1.996 -0.9542 -0.1468 -0.0209
  227SOL    HW1 1580   1.811   4.642   2.027 -0.2996  0.9741  0.2724
  227SOL    HW2 1581   1.924   4.639   1.908 -1.4599 -1.5221 -0.8464
  228SOL     OW 1582   1.281   6.747   2.972 -0.1708 -0.0992 -0.2016
  228SOL    HW1 1583   1.358   6.787   2.922  0.8542 -0.5973  0.9516
  228SOL    HW2 1584   1.288   6.647   2.969 -0.8029 -0.1495 -0.1214
  229SOL     OW 1585   3.632   6.119   6.253  0.2562  0.4597  0.8288
  229SOL    HW1 1586   3.610   6.035   6.302  1.1149 -0.5792 -0.5282
  229SOL    HW2 1587   3.622   6.105   6.155  0.5853  1.8896  0.5638
  230SOL     OW 1588   0.810   5.718   5.473 -0.6336 -0.1119  0.0463
  230SOL    HW1 1589   0.869   5.639   5.485 -0.9422 -0.3526 -0.0060
  230SOL    HW2 1590   0.736   5.695   5.409 -1.5053 -0.2095  1.0638
  231SOL     OW 1591   5.304   3.350   6.188 -0.0732  0.2093  0.1165
  231SOL    HW1 1592   5.367   3.277   6.214  0.4089  0.8342  0.7360
  231SOL    HW2 1593   5.229   3.355   6.254 -1.6171 -1.4814 -1.3906
  232SOL     OW 1594   0.820   1.640   5.545  0.2389  0.4598  0.1715
  232SOL    HW1 1595   0.746   1.701   5.516  0.1467  0.7803  1.0233
  232SOL    HW2 1596   0.827   1.563   5.483 -1.0674  0.2259  0.2906
  233SOL     OW 1597   4.052   1.138   2.744  0.1873  0.0840 -0.6179
  233SOL    HW1 1598   4.079   1.223   2.699  0.7373 -0.5821 -1.5750
  233SOL    HW2 1599   4.013   1.159   2.834  0.0099  1.3647 -0.9720
  234SOL     OW 1600   5.511   0.749   4.865 -0.3226  0.1996 -0.0908
  234SOL    HW1 1601   5.528   0.847   4.881 -0.1728 -0.1832  2.6669
  234SOL    HW2 1602   5.439   0.718   4.927 -0.3595 -1.4608 -0.9121
  235SOL     OW 1603   4.542   4.444   2.776  0.4249 -0.3212  0.0050
  235SOL    HW1 1604   4.570   4.401   2.861 -0.6657 -0.4987  0.2822
  235SOL    HW2 1605   4.543   4.376   2.702 -0.7400 -0.7108  0.3267
  236SOL     OW 1606   3.914   4.560   6.093  0.0114 -0.2914  0.2063
  236SOL    HW1 1607   3.997   4.612   6.110  1.4465 -2.4701  0.1935
  236SOL    HW2 1608   3.875   4.588   6.005  2.1047 -0.8427 -0.9776
  237SOL     OW 1609   6.063   4.689   1.377  0.4161 -0.5772 -0.1590
  237SOL    HW1 1610   6.051   4.756   1.304 -0.5714  0.8043  1.1919
  237SOL    HW2 1611   6.011   4.606   1.356  1.3304 -0.8106 -1.6638
  238SOL     OW 1612   0.563   2.166   6.804 -0.2809 -0.1138 -0.4259
  238SOL    HW1 1613   0.564   2.133   6.898  0.5441  0.5520 -0.1885
  238SOL    HW2 1614   0.600   2.259   6.801 -2.4497  0.7974 -1.0874
  239SOL     OW 1615   6.301   3.676   6.182  0.3138 -0.0969  0.1512
  239SOL    HW1 1616   6.294   3.761   6.131  0.6785 -0.7461 -1.0132
  239SOL    HW2 1617   6.211   3.634   6.190  0.0592  0.6064  1.1227
  240SOL     OW 1618   5.147   3.471   3.512  0.0579 -0.4020  0.1436
  240SOL    HW1 1619   5.201   3.515   3.583  0.9584  0.8542 -1.2521
  240SOL    HW2 1620   5.083   3.538   3.473  0.3174 -0.7728 -0.9359
  241SOL     OW 1621   1.184   2.151   4.213 -0.0877  0.4228  0.0525
  241SOL    HW1 1622   1.152   2.057   4.224 -0.9250  0.7342  0.4276
  241SOL    HW2 1623   1.105   2.212   4.203  0.4730  0.9156 -1.7184
  242SOL     OW 1624   4.123   3.620   2.917 -0.0840 -0.7567  0.0300
  242SOL    HW1 1625   4.046   3.684   2.911  0.7444  0.2424 -0.3701
  242SOL    HW2 1626   4.130   3.569   2.831 -0.4774 -1.0847  0.1859
  243SOL     OW 1627   4.743   2.102   5.767  0.0442  0.4118  0.5834
  243SOL    HW1 1628   4.797   2.053   5.835 -1.1190 -0.9006  0.6135
  243SOL    HW2 1629   4.645   2.091   5.787 -0.3005  0.6866 -0.8074
  244SOL     OW 1630   5.278   2.333   5.891 -0.0531  0.3389  0.6063
  244SOL    HW1 1631   5.296   2.354   5.987  0.5498  1.4818  0.2582
  244SOL    HW2 1632   5.199   2.386   5.860 -0.7454 -0.6262  0.6659
  245SOL     OW 1633   2.928   1.853   2.585 -0.6026 -0.1781 -0.0399
  245SOL    HW1 1634   3.011   1.904   2.606 -0.6210  0.9775 -2.4966
  245SOL    HW2 1635   2.951   1.773   2.530 -1.1164  0.1857 -0.7930
  246SOL     OW 1636   5.351   0.409   0.401  0.3732  0.3170 -0.1444
  246SOL    HW1 1637   5.430   0.380   0.346  1.8536  1.8314  1.0966
  246SOL    HW2 1638   5.307   0.329   0.441  1.0481 -0.5864 -1.1570
  247SOL     OW 1639   1.669   2.485   0.766 -0.5858  0.4143  0.0468
  247SOL    HW1 1640   1.726   2.420   0.715  1.2086  1.7907  0.1884
  247SOL    HW2 1641   1.600   2.524   0.705  0.9520  1.3583 -1.1698
  248SOL     OW 1642   0.793   1.635   2.178  0.4321  0.3495 -0.1436
  248SOL    HW1 1643   0.771   1.710   2.114 -1.5509  0.1802  0.2666
  248SOL    HW2 1644   0.758   1.658   2.269 -0.8712 -1.3359 -0.1647
  249SOL     OW 1645   0.227   6.001   3.844  0.5485 -0.1681 -0.8282
  249SOL    HW1 1646   0.272   6.084   3.810 -0.0693  1.6272  2.3772
  249SOL    HW2 1647   0.128   6.010   3.829  0.4757 -0.3162 -0.4273
  250SOL     OW 1648   4.060   0.282   1.877 -0.2506  0.3176  0.2407
  250SOL    HW1 1649   4.140   0.295   1.819  1.1496  1.4682  2.2786
  250SOL    HW2 1650   4.090   0.260   1.970 -2.3475 -0.0881  0.8820
  251SOL     OW 1651   1.975   4.820   5.575  0.2269 -0.4451  0.1368
  251SOL    HW1 1652   2.011   4.727   5.572  1.1370 -0.0900 -0.4387
  251SOL    HW2 1653   1.934   4.843   5.486  0.9177  0.0390 -0.0695
  252SOL     OW 1654   0.802   1.277   4.333  0.3943 -0.6777 -0.3907
  252SOL    HW1 1655   0.871   1.341   4.366 -0.6842  0.4343 -0.2173
  252SOL    HW2 1656   0.796   1.198   4.394  0.5749 -0.1287  0.3477
  253SOL     OW 1657   4.566   5.159   0.356 -0.6118  0.1913  0.0718
  253SOL    HW1 1658   4.490   5.103   0.389  0.3401 -1.2236 -0.0704
  253SOL    HW2 1659   4.597   5.124   0.268 -1.7161  2.5959 -1.3934
  254SOL     OW 1660   6.936   3.732   6.140  0.4279  0.0705  0.0157
  254SOL    HW1 1661   6.849   3.707   6.098  0.7498 -1.0065 -0.0206
  254SOL    HW2 1662   7.000   3.761   6.070  0.6826 -0.8933 -0.1613
  255SOL     OW 1663   0.741   2.883   6.801  0.3208 -0.2058  0.4580
  255SOL    HW1 1664   0.782   2.861   6.889 -0.5537 -1.5261  0.5481
  255SOL    HW2 1665   0.760   2.809   6.736 -0.3473  0.0390 -0.0231
  256SOL     OW 1666   5.972   1.636   4.702  0.0522 -0.2524 -0.4944
  256SOL    HW1 1667   6.026   1.669   4.625 -1.4218 -0.3372 -1.5896
  256SOL    HW2 1668   5.877   1.667   4.693 -1.4309 -4.4420 -1.4722
  257SOL     OW 1669   3.363   0.084   0.752 -0.6722  0.2124 -0.0258
  257SOL    HW1 1670   3.425   0.139   0.808 -0.9503  0.4235  0.0766
  257SOL    HW2 1671   3.384  -0.013   0.764 -0.9066  0.2441  0.6517
  258SOL     OW 1672   1.910   2.545   6.848  0.3142 -0.0249 -0.4708
  258SOL    HW1 1673   1.929   2.633   6.804 -2.9009  1.7972  1.3733
  258SOL    HW2 1674   1.824   2.508   6.813  1.2805 -2.1605 -0.7165
  259SOL     OW 1675   3.209   6.068   1.862 -0.0281 -0.6032  0.6849
  259SOL    HW1 1676   3.127   6.011   1.865 -1.2171  0.8828 -0.9255
  259SOL    HW2 1677   3.201   6.140   1.930 -0.7621  0.3439 -0.3574
  260SOL     OW 1678   2.431   4.974   2.008 -0.4004  0.1904  0.7262
  260SOL    HW1 1679   2.454   4.951   2.102 -1.5016 -1.1860  0.6941
  260SOL    HW2 1680   2.480   4.914   1.945 -0.6068  0.2821  0.4726
  261SOL     OW 1681   4.404   3.330   0.671 -0.2399 -0.6394  0.1362
  261SOL    HW1 1682   4.394   3.405   0.606 -0.5086 -0.6197  0.1982
  261SOL    HW2 1683   4.323   3.271   0.667  1.3036 -2.8447 -2.2913
  262SOL     OW 1684   5.733   4.214   6.517  0.5874 -0.4268  0.0022
  262SOL    HW1 1685   5.829   4.241   6.511  0.2584  0.8166  0.1227
  262SOL    HW2 1686   5.689   4.224   6.428  1.0380 -2.9720 -0.5789
  263SOL     OW 1687   1.177   0.586   4.703  0.0538 -0.0678 -0.4154
  263SOL    HW1 1688   1.087   0.629   4.695  0.0254 -0.2136 -0.9170
  263SOL    HW2 1689   1.173   0.494   4.663  0.1411 -0.5046  0.5570
  264SOL     OW 1690   5.855   3.744   0.535  0.6553 -0.0388  0.0128
  264SOL    HW1 1691   5.802   3.671   0.491 -0.9342  0.4283  1.0682
  264SOL    HW2 1692   5.910   3.705   0.609 -0.8623 -0.0827  1.1501
  265SOL     OW 1693   0.822   1.815   4.396  0.2567  0.1846  0.1417
  265SOL    HW1 1694   0.803   1.739   4.335  1.1909  0.6188 -0.7221
  265SOL    HW2 1695   0.789   1.794   4.488  0.9787 -1.4875  0.0503
  266SOL     OW 1696   1.197   1.012   0.277  0.4706  0.1868  0.0214
  266SOL    HW1 1697   1.235   0.973   0.360 -0.3424  0.7048  0.6500
  266SOL    HW2 1698   1.103   0.980   0.265  0.0960  1.2245  0.0726
  267SOL     OW 1699   2.799   6.734   5.318 -0.1353 -0.3979 -0.3605
  267SOL    HW1 1700   2.846   6.694   5.396 -1.2786 -2.6342 -0.7282
  267SOL    HW2 1701   2.826   6.686   5.234  0.5056  1.4611 -1.2826
  268SOL     OW 1702   2.645   1.444   6.954  0.3973  0.4102 -0.0743
  268SOL    HW1 1703   2.647   1.472   6.858  0.1519  2.4568  0.4706
  268SOL    HW2 1704   2.737   1.421   6.984  0.8913  2.0266 -0.2281
  269SOL     OW 1705   4.690   2.220   1.573 -0.2219  0.1530 -0.4318
  269SOL    HW1 1706   4.651   2.186   1.487 -0.0903 -1.6159  0.1773
  269SOL    HW2 1707   4.649   2.172   1.650  3.4819 -2.3289  0.2492
  270SOL     OW 1708   4.114   1.321   0.481  0.0589  0.6610 -0.5579
  270SOL    HW1 1709   4.152   1.394   0.538  0.9750 -0.9456  0.9747
  270SOL    HW2 1710   4.134   1.340   0.385  1.8365  1.5318 -0.0523
  271SOL     OW 1711   0.286   3.364   6.391  0.1101 -0.0754 -0.4382
  271SOL    HW1 1712   0.358   3.380   6.322 -0.0990 -0.8761 -0.8565
  271SOL    HW2 1713   0.280   3.266   6.410 -1.0906 -0.0571 -0.6564
  272SOL     OW 1714   3.764   5.721   3.225 -0.3673  0.4707 -0.1465
  272SOL    HW1 1715   3.700   5.678   3.162 -0.3912  1.3175 -0.7242
  272SOL    HW2 1716   3.846   5.750   3.175  0.0909  0.1757  0.4220
  273SOL     OW 1717   2.923   3.844   6.806  0.1894 -0.3138  0.5317
  273SOL    HW1 1718   2.844   3.830   6.746  1.3494 -1.0858 -0.9138
  273SOL    HW2 1719   2.983   3.764   6.800  1.5942  0.6863  0.7724
  274SOL     OW 1720   5.175   4.462   3.508 -0.6456 -0.0308  0.3602
  274SOL    HW1 1721   5.151   4.543   3.454 -1.2546 -0.0803  0.5582
  274SOL    HW2 1722   5.106   4.391   3.494  0.7508 -1.1803 -1.1792
  275SOL     OW 1723   5.647   6.571   6.722  0.6293  0.2596  0.0949
  275SOL    HW1 1724   5.707   6.548   6.798  0.6455  1.5894  0.5124
  275SOL    HW2 1725   5.562   6.612   6.758  0.4001  0.3824 -0.5715
  276SOL     OW 1726   0.261   6.593   4.916 -0.1689 -0.2429 -0.0670
  276SOL    HW1 1727   0.294   6.525   4.980 -0.9886  0.4101  1.0847
  276SOL    HW2 1728   0.205   6.549   4.846  1.2648 -1.0464 -0.7560
  277SOL     OW 1729   2.721   2.884   0.279 -0.5664 -0.1062 -0.0256
  277SOL    HW1 1730   2.713   2.906   0.376  0.3895  1.1237 -0.2104
  277SOL    HW2 1731   2.814   2.902   0.248 -1.0846  0.3483 -1.3677
  278SOL     OW 1732   6.944   4.975   0.982  0.3309 -0.0564 -0.2340
  278SOL    HW1 1733   7.003   4.896   1.003  1.1281  0.0299 -1.9709
  278SOL    HW2 1734   6.851   4.942   0.964  0.1603 -0.3526  1.0574
  279SOL     OW 1735   0.112   1.701   2.710  0.2957  0.0804  0.2238
  279SOL    HW1 1736   0.098   1.798   2.690  0.5908 -0.1399 -1.1703
  279SOL    HW2 1737   0.170   1.692   2.791  1.1815  1.0927 -0.2639
  280SOL     OW 1738   1.047   4.794   0.938 -0.2638  0.3573  0.0745
  280SOL    HW1 1739   0.997   4.713   0.907  1.7420 -0.3509 -1.5564
  280SOL    HW2 1740   0.996   4.876   0.912 -1.0043 -0.3305 -0.7377
  281SOL     OW 1741   1.492   6.453   1.610  0.2703  0.5028 -0.5699
  281SOL    HW1 1742   1.487   6.426   1.514 -1.2761  2.9866 -1.2647
  281SOL    HW2 1743   1.413   6.510   1.633  0.2837 -0.5299  2.3760
  282SOL     OW 1744   3.061   0.498   6.642 -0.1329 -0.1381 -0.0531
  282SOL    HW1 1745   3.099   0.435   6.575 -0.7167 -0.5566 -0.0011
  282SOL    HW2 1746   3.100   0.477   6.732 -0.4225 -0.5187 -0.0117
  283SOL     OW 1747   3.290   1.763   4.781  0.1909  0.2054  0.4339
  283SOL    HW1 1748   3.200   1.756   4.824  0.9804  0.8206  2.2631
  283SOL    HW2 1749   3.284   1.729   4.687 -2.2124  1.3479  0.0930
  284SOL     OW 1750   1.453   2.329   5.148 -0.2570 -0.3395  0.3450
  284SOL    HW1 1751   1.385   2.384   5.197 -1.1334  0.2305 -1.4267
  284SOL    HW2 1752   1.424   2.233   5.146  1.4368 -1.0710  3.7306
  285SOL     OW 1753   5.223   4.747   5.500  0.0757 -0.3916  0.3274
  285SOL    HW1 1754   5.274   4.676   5.548 -0.5940 -1.0576  0.0774
  285SOL    HW2 1755   5.135   4.761   5.545 -0.4128 -0.7766 -0.4808
  286SOL     OW 1756   3.571   2.895   1.104 -0.3386 -0.1248  0.1250
  286SOL    HW1 1757   3.582   2.921   1.200  3.0270 -2.1170  0.4334
  286SOL    HW2 1758   3.620   2.810   1.086 -2.1512 -0.6679 -3.0812
  287SOL     OW 1759   1.828   3.575   2.251  0.0619  0.4249 -0.0483
  287SOL    HW1 1760   1.924   3.580   2.226  0.6166 -0.8732  1.6068
  287SOL    HW2 1761   1.775   3.638   2.195  2.1481  2.7392  0.4214
  288SOL     OW 1762   4.668   3.224   0.623  0.2706  0.1915  0.6989
  288SOL    HW1 1763   4.727   3.292   0.667 -1.2449  0.8481  1.8286
  288SOL    HW2 1764   4.572   3.251   0.636 -0.2965 -0.7502 -1.2048
  289SOL     OW 1765   3.825   5.056   5.597  0.3025 -0.2804 -0.2833
  289SOL    HW1 1766   3.742   5.093   5.638 -0.5285 -1.2966 -0.9855
  289SOL    HW2 1767   3.853   4.974   5.647  1.0365  0.1875  0.0965
  290SOL     OW 1768   1.948   0.631   4.424  0.3031  0.4006  0.0065
  290SOL    HW1 1769   2.012   0.706   4.440 -0.2424  1.0127 -0.6370
  290SOL    HW2 1770   1.992   0.544   4.446  1.6826  0.7284 -1.3656
  291SOL     OW 1771   6.701   3.890   0.697  0.5848 -0.1457 -0.3663
  291SOL    HW1 1772   6.791   3.846   0.700 -0.8848 -3.7208 -2.1683
  291SOL    HW2 1773   6.675   3.907   0.602 -1.6901 -1.8744 -0.1547
  292SOL     OW 1774   3.799   6.476   3.744 -0.3436  0.5044  0.4329
  292SOL    HW1 1775   3.835   6.498   3.654 -1.9734  0.7797 -0.2016
  292SOL    HW2 1776   3.738   6.551   3.774 -0.6949 -0.0940  1.2525
  293SOL     OW 1777   4.939   5.604   3.933  0.3307 -0.3998  0.7598
  293SOL    HW1 1778   4.878   5.528   3.911 -0.9182  0.2061  1.9595
  293SOL    HW2 1779   4.964   5.600   4.030 -0.7141  1.3504  1.1422
  294SOL     OW 1780   4.064   5.385   6.216  0.3751  0.5272 -0.0775
  294SOL    HW1 1781   4.138   5.440   6.177  1.7423 -0.6917  0.6873
  294SOL    HW2 1782   4.022   5.434   6.293 -1.0502  2.1091 -1.7593
  295SOL     OW 1783   1.363   6.321   3.441  0.1259  0.1652 -0.6916
  295SOL    HW1 1784   1.434   6.288   3.503  1.0090 -0.8968 -2.1893
  295SOL    HW2 1785   1.275   6.323   3.489  0.4336 -2.3407  0.1422
  296SOL     OW 1786   6.234   2.336   1.584  0.3637  0.2636 -0.1341
  296SOL    HW1 1787   6.234   2.236   1.597  0.0673  0.1554 -0.8795
  296SOL    HW2 1788   6.284   2.359   1.501 -0.7585  0.6034 -0.7507
  297SOL     OW 1789   1.285   4.850   2.461  0.1833 -0.2840  0.4411
  297SOL    HW1 1790   1.261   4.775   2.522 -1.6328 -0.2464 -0.1797
  297SOL    HW2 1791   1.235   4.841   2.375  0.2057  1.4213  0.2062
  298SOL     OW 1792   0.028   5.201   2.182 -0.1895 -0.2125 -0.2149
  298SOL    HW1 1793   0.103   5.134   2.181 -0.3940 -0.4619  0.9491
  298SOL    HW2 1794  -0.007   5.212   2.089  0.4256 -1.0664 -0.5611
  299SOL     OW 1795   5.183   3.539   3.818  0.2288 -0.4561 -0.1031
  299SOL    HW1 1796   5.257   3.493   3.866  0.2404  0.7969  1.1397
  299SOL    HW2 1797   5.110   3.562   3.883 -0.9903 -1.0983 -1.1813
  300SOL     OW 1798   1.955   6.936   2.959  0.1412 -0.7857  0.4987
  300SOL    HW1 1799   2.030   6.919   2.896  0.7420 -0.7170  1.1801
  300SOL    HW2 1800   1.903   6.851   2.973 -0.3562 -0.6606 -0.5269
  301SOL     OW 1801   3.839   3.011   5.467 -0.1056 -0.0674 -0.2584
  301SOL    HW1 1802   3.767   3.049   5.410 -3.3045 -4.0895  0.6170
  301SOL    HW2 1803   3.888   2.940   5.416  1.9406  1.1844 -0.1497
  302SOL     OW 1804   2.974   5.711   3.310 -0.0537  0.4569  0.1667
  302SOL    HW1 1805   2.949   5.684   3.217 -1.3610  1.0597  0.3068
  302SOL    HW2 1806   2.999   5.808   3.311 -0.1049  0.4694  0.4405
  303SOL     OW 1807   6.987   0.265   2.776 -0.0122 -0.4007 -0.2836
  303SOL    HW1 1808   7.027   0.306   2.694 -1.9247  2.8092  0.2165
  303SOL    HW2 1809   7.060   0.232   2.836  1.6832  1.7331 -1.0583
  304SOL     OW 1810   5.272   0.904   3.245  0.2924 -0.3584  0.9742
  304SOL    HW1 1811   5.209   0.946   3.311 -2.0829 -1.6896 -0.3210
  304SOL    HW2 1812   5.248   0.933   3.153  2.6587  0.3410  0.5214
  305SOL     OW 1813   1.943   4.365   0.696  0.5374  0.0252 -0.6762
  305SOL    HW1 1814   2.002   4.289   0.725 -0.0571 -0.2105 -0.0774
  305SOL    HW2 1815   1.862   4.328   0.651  0.0859  0.2845 -0.0877
  306SOL     OW 1816   2.311   1.530   4.701  0.7088  0.4575 -0.3856
  306SOL    HW1 1817   2.273   1.528   4.609  0.2368  1.3173 -0.2147
  306SOL    HW2 1818   2.242   1.564   4.765  0.9631 -0.3083  0.3253
  307SOL     OW 1819   3.668   6.283   0.440 -0.1035 -0.1079  0.1691
  307SOL    HW1 1820   3.763   6.311   0.456  1.2076 -3.9512  0.2084
  307SOL    HW2 1821   3.633   6.236   0.521 -1.2744 -0.6304 -0.6139
  308SOL     OW 1822   5.985   5.534   5.968 -0.1527  0.1660  0.4112
  308SOL    HW1 1823   6.055   5.592   6.007 -0.2444  0.5732 -0.0191
  308SOL    HW2 1824   6.014   5.503   5.877 -0.9233  1.1071 -0.1720
  309SOL     OW 1825   5.542   4.048   4.326 -0.0258 -0.3882 -0.3525
  309SOL    HW1 1826   5.615   4.011   4.269  0.0381  0.7190 -1.0323
  309SOL    HW2 1827   5.575   4.132   4.370  0.2088 -1.6471  2.0096
  310SOL     OW 1828   1.329   5.796   5.953 -0.2326 -0.1664  0.1583
  310SOL    HW1 1829   1.367   5.860   5.886 -2.7488  0.1117 -1.1300
  310SOL    HW2 1830   1.353   5.703   5.928  2.0202  0.0888  1.0894
  311SOL     OW 1831   0.935   1.074   1.690  0.6511 -0.9190  0.0816
  311SOL    HW1 1832   0.915   1.148   1.753  1.3624  2.1477 -2.9745
  311SOL    HW2 1833   1.030   1.045   1.701  0.9751  0.0858 -0.0017
  312SOL     OW 1834   5.098   3.060   3.338 -0.1688 -0.0348 -0.0155
  312SOL    HW1 1835   5.178   3.072   3.398  0.2442 -0.0645 -0.5507
  312SOL    HW2 1836   5.077   3.146   3.292 -0.8874  0.1578  0.6524
  313SOL     OW 1837   5.788   4.081   1.528  0.5510  0.0925 -0.3989
  313SOL    HW1 1838   5.744   4.066   1.439 -0.4986  0.7892 -0.0204
  313SOL    HW2 1839   5.853   4.008   1.546  0.1060 -0.5512 -1.3338
  314SOL     OW 1840   4.036   0.104   2.718  1.0795 -0.4204  0.1500
  314SOL    HW1 1841   4.044   0.096   2.817  1.6267 -0.4845  0.1079
  314SOL    HW2 1842   4.119   0.068   2.675  1.1244  0.1995 -0.3035
  315SOL     OW 1843   6.575   3.875   2.247 -0.9532 -0.2599  0.4535
  315SOL    HW1 1844   6.590   3.817   2.167  0.2774 -2.1420  1.9791
  315SOL    HW2 1845   6.574   3.971   2.218 -1.2580 -0.9083 -1.8913
  316SOL     OW 1846   1.584   3.309   3.780  0.1518  0.0483  0.3509
  316SOL    HW1 1847   1.627   3.273   3.863  3.7714  0.9407 -0.9369
  316SOL    HW2 1848   1.655   3.348   3.721 -2.4580  0.7864 -2.5167
  317SOL     OW 1849   5.859   1.677   0.077  0.3785 -0.0177 -0.3600
  317SOL    HW1 1850   5.951   1.696   0.114  0.2336  0.1791 -0.0989
  317SOL    HW2 1851   5.798   1.753   0.098 -0.3366 -0.9554  1.1265
  318SOL     OW 1852   2.300   2.930   2.815 -0.1409 -0.3010 -0.6394
  318SOL    HW1 1853   2.296   2.987   2.897  0.2702 -2.8102  1.2671
  318SOL    HW2 1854   2.249   2.974   2.741 -0.9299  1.8581  1.0855
  319SOL     OW 1855   1.664   6.766   5.832  0.4318  0.8276  0.0597
  319SOL    HW1 1856   1.664   6.852   5.781 -0.8664  1.8357  1.6460
  319SOL    HW2 1857   1.664   6.786   5.931  0.4551 -1.0029  0.4597
  320SOL     OW 1858   3.257   1.687   0.756 -0.0169  0.1360  0.7318
  320SOL    HW1 1859   3.252   1.594   0.791 -0.5294  0.0548  0.4603
  320SOL    HW2 1860   3.255   1.685   0.656 -1.4925  0.4916  0.7276
  321SOL     OW 1861   2.942   6.789   6.774 -0.3346 -0.7495  0.1793
  321SOL    HW1 1862   2.859   6.758   6.728 -0.6123  0.4141 -0.1339
  321SOL    HW2 1863   2.966   6.880   6.742 -0.6663  0.2234  2.4765
  322SOL     OW 1864   2.359   3.141   5.402 -0.0826 -0.3827 -0.0412
  322SOL    HW1 1865   2.283   3.091   5.441 -1.4363  1.7465  0.2485
  322SOL    HW2 1866   2.390   3.095   5.319 -2.2911 -0.8687 -0.6696
  323SOL     OW 1867   0.086   2.885   0.231  0.2429  0.1925 -0.0750
  323SOL    HW1 1868   0.019   2.830   0.181 -1.1054  1.3185  0.4281
  323SOL    HW2 1869   0.065   2.982   0.220  1.5581  0.5587  0.4361
  324SOL     OW 1870   5.932   1.169   4.893 -0.1707 -0.2062  0.4103
  324SOL    HW1 1871   5.888   1.258   4.909 -0.1248 -0.1206  0.0656
  324SOL    HW2 1872   6.026   1.172   4.927 -0.3559 -0.3170  0.9446
  325SOL     OW 1873   1.491   2.008   2.115 -0.4629  0.2787  0.2004
  325SOL    HW1 1874   1.395   2.021   2.091 -0.2586  1.5086  0.0149
  325SOL    HW2 1875   1.549   2.048   2.044  0.2397 -2.0546 -0.6246
  326SOL     OW 1876   1.497   3.532   6.152 -0.1734  0.0992  0.4770
  326SOL    HW1 1877   1.404   3.563   6.135 -0.3640 -0.6407  0.1520
  326SOL    HW2 1878   1.559   3.579   6.089 -0.6660 -1.3323 -1.1426
  327SOL     OW 1879   4.645   6.183   5.310 -0.3626 -0.1429  0.5929
  327SOL    HW1 1880   4.553   6.221   5.304 -1.0709 -1.6812  1.2705
  327SOL    HW2 1881   4.643   6.086   5.284  1.5347  0.4050 -1.9749
  328SOL     OW 1882   4.196   5.007   6.953 -0.0834  0.0501  0.0090
  328SOL    HW1 1883   4.296   5.013   6.947  0.1486 -1.1499  1.8979
  328SOL    HW2 1884   4.160   5.094   6.986  0.3687  0.3460 -0.2592
  329SOL     OW 1885   3.833   3.680   3.280 -0.3551  0.0596  0.3471
  329SOL    HW1 1886   3.769   3.756   3.278  1.2034  1.4636  1.1511
  329SOL    HW2 1887   3.922   3.710   3.244 -0.2408 -1.9794 -1.3305
  330SOL     OW 1888   2.204   6.887   1.770  0.3990 -0.7301 -0.3689
  330SOL    HW1 1889   2.182   6.897   1.673  0.6549 -0.1183 -0.3677
  330SOL    HW2 1890   2.160   6.961   1.822  0.7946 -0.6773 -0.1055
  331SOL     OW 1891   4.749   2.545   6.398  0.1713 -0.2014 -0.2705
  331SOL    HW1 1892   4.694   2.466   6.369  0.2247 -0.2031 -0.3680
  331SOL    HW2 1893   4.784   2.593   6.317  0.3688 -0.2404 -0.2102
  332SOL     OW 1894   5.281   2.033   3.927 -0.1584  0.0578  0.2429
  332SOL    HW1 1895   5.338   2.101   3.975  2.1624 -1.1708 -0.5991
  332SOL    HW2 1896   5.324   1.943   3.935 -2.0088 -0.9372 -0.5410
  333SOL     OW 1897   5.601   6.925   1.651 -0.4103  0.6382 -0.2333
  333SOL    HW1 1898   5.560   6.836   1.630 -0.2826  0.1897  1.2798
  333SOL    HW2 1899   5.652   6.958   1.572  0.7252 -1.3182 -0.3883
  334SOL     OW 1900   4.981   0.433   3.212 -0.4027 -0.1652  0.2031
  334SOL    HW1 1901   4.998   0.497   3.287 -0.3963 -0.9733  0.9032
  334SOL    HW2 1902   4.992   0.340   3.245 -2.2607 -0.6052 -0.3326
  335SOL     OW 1903   3.082   6.246   2.780 -0.3644 -0.0183 -0.1633
  335SOL    HW1 1904   3.143   6.255   2.858  0.3161 -0.9951 -0.5615
  335SOL    HW2 1905   3.118   6.177   2.717 -0.2439  1.6058 -1.9515
  336SOL     OW 1906   2.783   0.679   4.476 -0.2535 -0.4212 -0.6135
  336SOL    HW1 1907   2.733   0.633   4.549  0.2813 -2.5506 -1.5137
  336SOL    HW2 1908   2.844   0.614   4.431  1.6342  1.5240 -1.0573
  337SOL     OW 1909   1.290   5.410   3.705 -0.1056  0.1906  0.6900
  337SOL    HW1 1910   1.217   5.410   3.636 -0.9139 -1.2786  1.5048
  337SOL    HW2 1911   1.377   5.433   3.661 -0.5762 -0.8316 -0.8710
  338SOL     OW 1912   3.797   0.317   1.343 -0.0720 -0.5459  0.5300
  338SOL    HW1 1913   3.745   0.377   1.405 -1.6380  0.9827 -2.0763
  338SOL    HW2 1914   3.875   0.367   1.305  0.5917 -1.3094  0.8500
  339SOL     OW 1915   4.532   1.512   1.906 -0.6330 -0.0305  0.3288
  339SOL    HW1 1916   4.457   1.507   1.971 -2.6243  0.1390 -1.8161
  339SOL    HW2 1917   4.559   1.419   1.879 -2.1821 -0.1105 -1.0995
  340SOL     OW 1918   4.728   4.957   5.378 -0.0690  0.1678 -0.3865
  340SOL    HW1 1919   4.721   4.873   5.325  2.1806 -0.2648 -0.1102
  340SOL    HW2 1920   4.807   5.009   5.348  0.8450  0.2822  1.9794
  341SOL     OW 1921   5.740   5.639   6.088 -0.6871  0.1617 -0.4915
  341SOL    HW1 1922   5.808   5.586   6.038  1.2742  0.8598  1.2815
  341SOL    HW2 1923   5.695   5.703   6.026 -0.8911 -1.3676 -2.0160
  342SOL     OW 1924   5.352   5.806   1.267  0.3300  0.0606  0.4706
  342SOL    HW1 1925   5.342   5.742   1.343 -1.3010  1.3326  1.4189
  342SOL    HW2 1926   5.447   5.834   1.258  0.6597 -0.6689  1.5665
  343SOL     OW 1927   2.018   0.297   2.467 -0.2746 -0.1905  0.2587
  343SOL    HW1 1928   2.082   0.347   2.408  2.2148 -0.8888  2.1662
  343SOL    HW2 1929   2.070   0.247   2.536 -2.8531 -2.4363  0.7307
  344SOL     OW 1930   3.976   5.802   1.586  0.2674  0.4483 -0.0726
  344SOL    HW1 1931   3.907   5.736   1.557  0.1311  0.1219  0.9460
  344SOL    HW2 1932   3.972   5.882   1.527 -0.2024 -0.0510 -0.7408
  345SOL     OW 1933   2.582   1.606   5.455  0.0158 -0.3112  0.9784
  345SOL    HW1 1934   2.557   1.624   5.360  1.6535 -0.5216  0.4609
  345SOL    HW2 1935   2.571   1.689   5.509 -2.0858 -0.5047  0.8985
  346SOL     OW 1936   2.072   1.341   4.330 -0.0082  0.1707  0.4822
  346SOL    HW1 1937   2.076   1.266   4.396  2.3847  0.2953  0.5864
  346SOL    HW2 1938   2.143   1.329   4.261 -0.7790  1.4029 -0.5830
  347SOL     OW 1939   4.846   1.745   5.548 -0.0094  0.3744 -0.2601
  347SOL    HW1 1940   4.756   1.728   5.589  0.3156 -0.8149  0.0004
  347SOL    HW2 1941   4.838   1.741   5.449 -0.1152 -0.4834 -0.2230
  348SOL     OW 1942   4.139   5.827   0.831  0.2779  0.2030  0.1601
  348SOL    HW1 1943   4.180   5.751   0.781 -0.1777 -0.5794  0.9305
  348SOL    HW2 1944   4.160   5.913   0.785 -0.8306 -0.5394 -1.8415
  349SOL     OW 1945   2.322   5.370   3.749 -0.2820 -0.6073 -0.0250
  349SOL    HW1 1946   2.361   5.290   3.704  3.1121  0.8122  0.0917
  349SOL    HW2 1947   2.335   5.363   3.848 -0.5704 -0.1971  0.0450
  350SOL     OW 1948   3.703   2.537   6.954 -0.0181  0.0556 -0.0397
  350SOL    HW1 1949   3.651   2.512   6.872 -0.7460 -2.9196  1.1855
  350SOL    HW2 1950   3.641   2.551   7.030  0.7345  1.4821  0.3408
  351SOL     OW 1951   1.342   0.508   2.134  0.1989 -0.4151 -0.5692
  351SOL    HW1 1952   1.260   0.455   2.111  1.5537 -2.8760 -0.0311
  351SOL    HW2 1953   1.413   0.491   2.066  0.4421  1.3423 -0.7868
  352SOL     OW 1954   1.632   1.090   6.586  0.0497  0.0983  0.3040
  352SOL    HW1 1955   1.641   1.046   6.676  0.7084 -0.2523  0.0737
  352SOL    HW2 1956   1.598   1.023   6.520 -1.0331  0.5201  0.4180
  353SOL     OW 1957   0.590   0.064   1.568 -0.3637  0.1421 -0.3150
  353SOL    HW1 1958   0.576   0.038   1.664 -1.1450 -5.4860 -1.5778
  353SOL    HW2 1959   0.506   0.104   1.531 -0.2441  1.8184  1.1033
  354SOL     OW 1960   6.408   0.352   2.127  0.1987  0.4795 -0.1352
  354SOL    HW1 1961   6.476   0.416   2.092 -0.5806  1.4808  0.1360
  354SOL    HW2 1962   6.367   0.389   2.210 -0.0447 -0.5251  0.2038
  355SOL     OW 1963   1.179   6.930   3.871  0.1194 -0.0085  0.3242
  355SOL    HW1 1964   1.210   7.024   3.887 -1.1221  0.1840  1.7948
  355SOL    HW2 1965   1.157   6.887   3.958 -0.8318 -1.1334 -0.4463
  356SOL     OW 1966   2.784   1.498   1.717  0.4085  0.5893 -0.0140
  356SOL    HW1 1967   2.709   1.438   1.689  1.5717 -0.0856 -1.8967
  356SOL    HW2 1968   2.772   1.523   1.813 -2.5364  1.0173 -0.3837
  357SOL     OW 1969   1.558   5.698   5.559 -0.1666 -0.5636  0.2119
  357SOL    HW1 1970   1.617   5.777   5.576 -0.4088 -0.0014 -1.3895
  357SOL    HW2 1971   1.568   5.632   5.634 -0.8504  1.4950  2.2395
  358SOL     OW 1972   4.935   1.072   3.251  0.0443 -0.1684 -0.2245
  358SOL    HW1 1973   4.983   1.027   3.176  0.5527  0.7753 -0.4768
  358SOL    HW2 1974   4.990   1.066   3.334  1.1737  1.8362 -0.7510
  359SOL     OW 1975   0.055   1.717   3.048  0.1613 -0.1059  0.3171
  359SOL    HW1 1976  -0.034   1.678   3.022 -0.1070  0.6433  0.1101
  359SOL    HW2 1977   0.085   1.782   2.979 -0.0161  1.0362  1.2945
  360SOL     OW 1978   3.977   1.743   5.955  0.6035  0.1895  0.0840
  360SOL    HW1 1979   4.035   1.663   5.940  0.2729 -0.5390  2.3248
  360SOL    HW2 1980   3.922   1.730   6.038 -1.2869  1.7094 -0.8422
  361SOL     OW 1981   2.638   1.578   2.768  0.1766  0.2213 -0.2179
  361SOL    HW1 1982   2.594   1.645   2.828  0.8547  0.7498 -0.3123
  361SOL    HW2 1983   2.648   1.616   2.676  0.1843 -0.1705 -0.3845
  362SOL     OW 1984   1.066   3.733   1.270  0.2803 -0.6410 -0.0344
  362SOL    HW1 1985   1.011   3.752   1.351 -1.1472  0.7834 -1.2509
  362SOL    HW2 1986   1.033   3.650   1.226 -0.6333 -0.0578 -0.4894
  363SOL     OW 1987   5.045   5.195   3.968 -0.5041 -0.2506  0.2735
  363SOL    HW1 1988   5.047   5.105   3.926  2.6876  0.8869 -2.4582
  363SOL    HW2 1989   5.008   5.261   3.902  0.2918  0.9315  0.9822
  364SOL     OW 1990   2.619   0.583   4.982  0.3301 -0.1458  0.4598
  364SOL    HW1 1991   2.582   0.663   5.028  1.7263  1.0065 -0.3439
  364SOL    HW2 1992   2.707   0.559   5.023  0.1382 -1.0172  0.3918
  365SOL     OW 1993   0.049   6.956   2.803  0.2178  0.2590 -0.7786
  365SOL    HW1 1994  -0.042   6.977   2.837 -0.3145 -1.2478 -1.2014
  365SOL    HW2 1995   0.066   7.008   2.719  1.1886  3.2919  1.1192
  366SOL     OW 1996   4.132   6.893   0.228  0.3358  0.1418  0.2028
  366SOL    HW1 1997   4.184   6.966   0.183 -1.6420  0.7001 -1.3289
  366SOL    HW2 1998   4.054   6.868   0.171 -0.3076 -1.6321  1.7590
  367SOL     OW 1999   3.763   1.815   3.389  0.4707  0.1745 -0.0633
  367SOL    HW1 2000   3.684   1.798   3.448  0.2202  1.4130 -0.0189
  367SOL    HW2 2001   3.846   1.821   3.444  0.1974  1.6317  0.2320
  368SOL     OW 2002   2.206   4.698   6.852 -0.1958 -0.4314 -0.4602
  368SOL    HW1 2003   2.143   4.771   6.880 -0.6415 -0.2342 -1.8640
  368SOL    HW2 2004   2.286   4.698   6.912 -1.1831 -0.2016  0.9044
  369SOL     OW 2005   0.054   3.757   1.390  0.5961  0.3900  0.0986
  369SOL    HW1 2006   0.151   3.777   1.376  0.7339 -0.7125 -0.6405
  369SOL    HW2 2007   0.007   3.840   1.417  1.4540  1.3146 -1.1094
  370SOL     OW 2008   2.794   0.788   6.392 -0.8035 -0.6620  0.2607
  370SOL    HW1 2009   2.794   0.860   6.323  0.1759  1.0092  1.8966
  370SOL    HW2 2010   2.828   0.703   6.351  4.3976  1.3430 -0.4332
  371SOL     OW 2011   2.044   4.010   0.177  0.2651  0.5056 -0.9290
  371SOL    HW1 2012   1.978   3.948   0.135 -0.1852  0.0215  0.4433
  371SOL    HW2 2013   2.002   4.100   0.189 -1.1759 -0.4917  2.3882
  372SOL     OW 2014   2.839   4.521   6.703  0.1349  0.8397 -0.5130
  372SOL    HW1 2015   2.767   4.566   6.756  0.2588  0.6270 -0.1553
  372SOL    HW2 2016   2.921   4.514   6.760  0.6131  1.5542 -1.0899
  373SOL     OW 2017   5.931   0.796   6.180 -0.1326  0.5305 -0.3946
  373SOL    HW1 2018   5.919   0.698   6.198 -2.2855  0.5206 -1.5785
  373SOL    HW2 2019   6.000   0.808   6.108 -0.2120 -0.1473 -0.5947
  374SOL     OW 2020   6.221   0.085   0.095  0.2754 -0.4996  0.2735
  374SOL    HW1 2021   6.273   0.159   0.053 -1.9455  1.0740  0.1480
  374SOL    HW2 2022   6.198   0.016   0.026  1.0117 -0.5269  0.0512
  375SOL     OW 2023   5.661   3.769   4.925 -0.4846 -0.1713  0.2496
  375SOL    HW1 2024   5.693   3.788   5.017  0.0776  0.3079 -0.0394
  375SOL    HW2 2025   5.725   3.807   4.858 -1.1919  0.0219 -0.3405
  376SOL     OW 2026   1.873   3.168   5.251  0.2478 -0.6472 -0.8494
  376SOL    HW1 2027   1.929   3.102   5.202  1.4867 -0.0757 -0.2516
  376SOL    HW2 2028   1.930   3.219   5.315 -1.1103 -0.5845  0.3677
  377SOL     OW 2029   3.205   1.148   4.835 -0.1301  0.3454 -0.4528
  377SOL    HW1 2030   3.158   1.139   4.747  0.0110 -0.1755 -0.4799
  377SOL    HW2 2031   3.282   1.210   4.825  0.1066  0.0052 -0.7972
  378SOL     OW 2032   3.678   1.140   4.680 -0.4286  0.0188 -0.1316
  378SOL    HW1 2033   3.613   1.210   4.710  1.3089  1.4643  0.3655
  378SOL    HW2 2034   3.629   1.072   4.624 -1.8749  2.6049 -2.2353
  379SOL     OW 2035   0.990   3.068   3.851  0.1037 -0.3199 -0.1168
  379SOL    HW1 2036   0.992   2.968   3.843 -0.6164 -0.3621  0.2008
  379SOL    HW2 2037   0.906   3.097   3.896 -0.0329  0.4809 -0.8466
  380SOL     OW 2038   5.762   3.003   0.569  0.2169 -0.2325  0.1650
  380SOL    HW1 2039   5.835   2.997   0.637 -0.3734 -0.2893  0.7935
  380SOL    HW2 2040   5.768   2.925   0.507  0.7235 -0.2054  0.1736
  381SOL     OW 2041   3.899   6.842   0.783  0.1522 -0.6106 -0.4038
  381SOL    HW1 2042   3.974   6.902   0.753  1.4534 -2.8267 -1.7968
  381SOL    HW2 2043   3.932   6.782   0.855 -0.3100 -1.5263 -0.9427
  382SOL     OW 2044   1.715   5.356   2.187 -0.3408  0.0148 -0.4639
  382SOL    HW1 2045   1.642   5.371   2.121  0.3779 -1.2935 -1.6260
  382SOL    HW2 2046   1.764   5.441   2.204 -0.4049  0.3321 -1.8037
  383SOL     OW 2047   5.226   2.817   1.583  0.6604 -0.1467 -0.2200
  383SOL    HW1 2048   5.172   2.748   1.631 -1.5042  0.5534 -1.4896
  383SOL    HW2 2049   5.205   2.814   1.485  0.5030  2.2743 -0.3208
  384SOL     OW 2050   1.300   5.040   6.378  0.1798  0.2477 -0.0363
  384SOL    HW1 2051   1.312   5.048   6.477 -0.5273 -0.2142  0.0906
  384SOL    HW2 2052   1.296   4.944   6.353  1.4453  0.3317 -0.6631
  385SOL     OW 2053   5.501   6.347   0.284 -0.3220  0.1980 -0.5783
  385SOL    HW1 2054   5.521   6.250   0.296 -1.0475  0.0814 -0.3076
  385SOL    HW2 2055   5.405   6.365   0.304 -0.1843  0.9826 -0.5760
  386SOL     OW 2056   1.939   6.119   4.737  0.4976  0.0624  0.6155
  386SOL    HW1 2057   1.900   6.179   4.806 -1.6285 -2.5372  1.8759
  386SOL    HW2 2058   2.039   6.120   4.744  0.3931  1.0999  2.6330
  387SOL     OW 2059   5.962   2.012   5.068 -0.1433 -0.0674  0.6448
  387SOL    HW1 2060   5.938   1.918   5.092 -0.0555 -0.0747  0.7033
  387SOL    HW2 2061   5.948   2.026   4.970 -1.9428  0.3858  0.9159
  388SOL     OW 2062   6.261   3.594   3.264 -0.3649  0.0274 -0.4486
  388SOL    HW1 2063   6.203   3.665   3.224  1.3508  1.9484  0.3025
  388SOL    HW2 2064   6.318   3.554   3.192 -1.3312 -0.6234 -0.8747
  389SOL     OW 2065   5.628   4.046   2.162 -0.4151  0.1336  0.5795
  389SOL    HW1 2066   5.697   3.974   2.174  1.7971  1.6549 -2.0036
  389SOL    HW2 2067   5.577   4.029   2.078 -1.5436  0.3495  1.2045
  390SOL     OW 2068   4.106   1.978   5.936  0.2421  0.0359  0.0257
  390SOL    HW1 2069   4.032   1.910   5.940  0.5254 -0.2799 -0.0225
  390SOL    HW2 2070   4.116   2.012   5.843  0.9542 -0.8223 -0.2240
  391SOL     OW 2071   4.172   4.716   6.613  0.3967 -0.3897 -0.8014
  391SOL    HW1 2072   4.269   4.692   6.606  0.3304 -1.2389  0.6557
  391SOL    HW2 2073   4.117   4.641   6.579  0.2435 -0.8668  0.4292
  392SOL     OW 2074   2.070   6.589   2.954 -0.0687  0.1175 -0.8106
  392SOL    HW1 2075   1.994   6.553   2.898  0.0408 -1.8539  0.1976
  392SOL    HW2 2076   2.069   6.543   3.043  2.9010 -0.7246 -1.1153
  393SOL     OW 2077   1.684   5.860   2.094  0.2365  0.2216  0.1433
  393SOL    HW1 2078   1.597   5.861   2.142  1.1363  0.5934  1.8781
  393SOL    HW2 2079   1.707   5.952   2.064  0.3274  0.2379  0.2616
  394SOL     OW 2080   5.760   2.097   0.745  0.8091 -0.0218 -1.4743
  394SOL    HW1 2081   5.799   2.005   0.744  2.0531  0.2372  2.6535
  394SOL    HW2 2082   5.828   2.162   0.708  1.2555 -0.4042 -1.3381
  395SOL     OW 2083   5.240   3.277   0.073  0.1129  0.0976 -0.1354
  395SOL    HW1 2084   5.184   3.354   0.044  0.5376  0.3575 -0.2747
  395SOL    HW2 2085   5.330   3.310   0.103  0.4947 -0.3892 -0.7113
  396SOL     OW 2086   0.011   6.821   1.660  0.2323 -0.3908 -0.0514
  396SOL    HW1 2087   0.027   6.840   1.563 -0.2207 -2.4988 -0.5947
  396SOL    HW2 2088   0.064   6.884   1.716  2.6952 -0.8967 -1.6781
  397SOL     OW 2089   2.769   2.102   3.819 -0.3705 -0.6163  0.1395
  397SOL    HW1 2090   2.675   2.134   3.809  0.1440  0.2590 -2.6070
  397SOL    HW2 2091   2.829   2.155   3.759  1.3483 -3.4195 -0.7824
  398SOL     OW 2092   6.582   1.232   1.621  0.2133  0.4739 -0.7684
  398SOL    HW1 2093   6.638   1.302   1.665  1.1582 -0.5042 -0.3881
  398SOL    HW2 2094   6.487   1.264   1.617  0.0219  0.5664  2.1277
  399SOL     OW 2095   6.214   5.332   4.502  0.0931  0.4157 -0.6608
  399SOL    HW1 2096   6.233   5.297   4.594 -0.1334  0.8040 -0.4635
  399SOL    HW2 2097   6.116   5.326   4.484  0.2108 -0.2667 -1.1320
  400SOL     OW 2098   0.599   0.424   4.331  0.0506 -0.0400 -0.5514
  400SOL    HW1 2099   0.627   0.493   4.398 -1.1467  0.6196 -0.6934
  400SOL    HW2 2100   0.673   0.360   4.316  0.2437 -0.4161  1.6638
  401SOL     OW 2101   1.173   5.020   5.503 -0.1442 -0.0355 -0.2459
  401SOL    HW1 2102   1.115   5.098   5.479  0.4612  0.6178  0.3693
  401SOL    HW2 2103   1.247   5.012   5.436 -0.8602 -0.8056 -0.9717
  402SOL     OW 2104   5.134   2.766   3.294  0.3358  0.1020  0.1665
  402SOL    HW1 2105   5.098   2.723   3.377 -1.4601  1.0556 -0.0727
  402SOL    HW2 2106   5.111   2.863   3.294  1.3887  0.3744 -0.8943
  403SOL     OW 2107   2.963   0.804   4.884 -0.7132  0.2604  0.0738
  403SOL    HW1 2108   3.008   0.794   4.795  0.0248  0.8659  0.3684
  403SOL    HW2 2109   2.955   0.900   4.908 -2.7416  0.2174 -0.2283
  404SOL     OW 2110   2.479   5.271   2.808  0.4924 -0.1070  0.2997
  404SOL    HW1 2111   2.451   5.210   2.882 -0.2977  1.1459  1.0766
  404SOL    HW2 2112   2.578   5.270   2.799  0.5449 -0.8240  0.8816
  405SOL     OW 2113   4.291   6.103   3.926 -0.2013  1.0381 -0.5465
  405SOL    HW1 2114   4.227   6.117   4.001 -0.5727  1.0446 -0.8635
  405SOL    HW2 2115   4.383   6.132   3.955 -0.1286  0.0872  0.2505
  406SOL     OW 2116   5.472   1.452   7.009  0.0044  0.3919 -0.6338
  406SOL    HW1 2117   5.516   1.518   6.947  0.4132  1.4083  0.6898
  406SOL    HW2 2118   5.466   1.492   7.101 -1.0878 -0.8687 -0.1356
  407SOL     OW 2119   1.249   4.555   4.614  0.1524  0.4597  0.1238
  407SOL    HW1 2120   1.235   4.570   4.516 -2.4412  1.9157  0.6116
  407SOL    HW2 2121   1.312   4.625   4.649 -0.0934  0.8745 -0.2445
  408SOL     OW 2122   2.796   1.199   1.924  0.4484 -0.2638 -0.2613
  408SOL    HW1 2123   2.730   1.272   1.907 -0.0901 -0.1769  1.9172
  408SOL    HW2 2124   2.889   1.238   1.921  0.1564  0.5894  1.1117
  409SOL     OW 2125   7.006   2.906   2.401  0.1702 -0.2380 -0.0630
  409SOL    HW1 2126   7.081   2.971   2.393  0.4319 -0.5644 -0.2730
  409SOL    HW2 2127   7.031   2.820   2.356 -0.9878  0.2317 -1.6645
  410SOL     OW 2128   1.034   3.144   2.347 -0.1217 -0.1410  0.2937
  410SOL    HW1 2129   1.107   3.205   2.378 -0.1973  0.5045 -0.7686
  410SOL    HW2 2130   1.042   3.130   2.249 -0.9893 -0.6653  0.2910
  411SOL     OW 2131   6.360   2.502   0.997 -0.1417  0.1406  0.1602
  411SOL    HW1 2132   6.304   2.557   1.059 -1.4849 -1.5094  0.4744
  411SOL    HW2 2133   6.454   2.535   0.999 -0.7851  2.0657  0.7221
  412SOL     OW 2134   0.768   3.357   2.170  0.3677 -0.0638 -0.1380
  412SOL    HW1 2135   0.841   3.421   2.148 -1.2328  1.5468 -1.0273
  412SOL    HW2 2136   0.752   3.357   2.269  2.3817 -1.4205  0.2332
  413SOL     OW 2137   5.659   4.915   3.660 -0.3051  0.1786  0.6759
  413SOL    HW1 2138   5.608   4.939   3.578 -1.1883 -0.5275  1.0055
  413SOL    HW2 2139   5.757   4.923   3.642 -0.4961  0.3405 -0.3415
  414SOL     OW 2140   2.443   4.423   2.436 -0.1446  0.2685  0.5989
  414SOL    HW1 2141   2.425   4.446   2.532  0.2748  0.0858  0.7262
  414SOL    HW2 2142   2.377   4.354   2.405  1.1208 -1.4332  1.4811
  415SOL     OW 2143   0.178   7.001   1.916 -0.3596 -0.4456 -0.1937
  415SOL    HW1 2144   0.242   7.059   1.967 -0.3805  1.1810 -1.9123
  415SOL    HW2 2145   0.084   7.032   1.932 -0.4394 -0.5601 -0.4362
  416SOL     OW 2146   4.055   2.375   0.235 -0.0895 -0.7114  0.1668
  416SOL    HW1 2147   4.102   2.384   0.322 -2.3297  0.2009  1.3844
  416SOL    HW2 2148   3.959   2.349   0.251 -0.5720 -0.5522 -2.0219
  417SOL     OW 2149   1.245   1.369   6.684  0.2701  0.2601 -0.1811
  417SOL    HW1 2150   1.272   1.371   6.781  0.9099  1.6690 -0.3575
  417SOL    HW2 2151   1.291   1.294   6.638 -0.7838 -1.0253  0.7994
  418SOL     OW 2152   4.166   5.598   5.454  0.1657 -0.2044  0.1073
  418SOL    HW1 2153   4.230   5.638   5.389 -0.2630  0.4415  0.0691
  418SOL    HW2 2154   4.073   5.609   5.419 -0.2107  1.4414  1.4576
  419SOL     OW 2155   4.538   6.326   0.219  0.0804  0.0414 -0.0739
  419SOL    HW1 2156   4.448   6.290   0.194  0.1990  0.1963 -0.7417
  419SOL    HW2 2157   4.544   6.337   0.319 -0.1388 -1.3007  0.1057
  420SOL     OW 2158   4.585   5.357   2.401 -0.1665  0.3898  0.1680
  420SOL    HW1 2159   4.566   5.260   2.388  0.1056  0.1375  1.4671
  420SOL    HW2 2160   4.526   5.393   2.473  0.2632  1.0044  0.2196
  421SOL     OW 2161   4.778   6.083   2.985 -0.3068 -0.1631 -0.0905
  421SOL    HW1 2162   4.802   5.986   2.993  0.3815  0.1511  3.1694
  421SOL    HW2 2163   4.861   6.136   2.970 -0.2598  0.0966  0.9671
  422SOL     OW 2164   4.440   1.688   1.713 -0.1358  0.0647  0.6108
  422SOL    HW1 2165   4.341   1.695   1.726 -0.5068 -2.1036 -0.5518
  422SOL    HW2 2166   4.478   1.625   1.780  0.1256 -0.5949 -0.1405
  423SOL     OW 2167   3.853   3.273   5.556  0.1476 -0.2504  0.6592
  423SOL    HW1 2168   3.784   3.295   5.625  0.0744  0.5414  0.3362
  423SOL    HW2 2169   3.852   3.174   5.538  0.5286 -0.5528  2.1688
  424SOL     OW 2170   6.848   3.520   3.619 -0.1756 -0.6100  0.0394
  424SOL    HW1 2171   6.910   3.465   3.674  0.2220 -1.6807 -1.4192
  424SOL    HW2 2172   6.866   3.504   3.522 -1.0924  0.9461 -0.4242
  425SOL     OW 2173   3.769   0.774   2.217  0.2244  0.0684  0.3060
  425SOL    HW1 2174   3.740   0.682   2.191  0.4052  0.2111 -0.4073
  425SOL    HW2 2175   3.691   0.824   2.254 -0.0113 -0.1639  0.1231
  426SOL     OW 2176   2.001   2.294   4.119  0.0714 -0.2724 -0.2481
  426SOL    HW1 2177   2.037   2.384   4.144  1.2658 -0.6243 -0.6420
  426SOL    HW2 2178   1.972   2.246   4.201 -0.3292  0.3550 -0.0096
  427SOL     OW 2179   3.826   0.125   3.418 -0.1034 -0.1353 -0.8410
  427SOL    HW1 2180   3.840   0.138   3.319  1.0104  0.1170 -0.6678
  427SOL    HW2 2181   3.832   0.214   3.464 -0.2671 -0.2969 -0.5074
  428SOL     OW 2182   1.685   2.029   6.681  0.2928  0.2511 -0.4888
  428SOL    HW1 2183   1.741   2.022   6.599  0.0913 -1.7669 -0.4974
  428SOL    HW2 2184   1.588   2.024   6.655  0.1920  0.6769 -0.2069
  429SOL     OW 2185   2.004   6.699   3.951  0.0337  0.0180 -0.8148
  429SOL    HW1 2186   2.037   6.617   3.904  0.4357 -0.2191 -0.1347
  429SOL    HW2 2187   2.079   6.765   3.958  0.2395 -0.2996  0.2504
  430SOL     OW 2188   2.073   2.641   5.234 -0.6776  0.0274 -0.1715
  430SOL    HW1 2189   2.091   2.713   5.301  1.2955 -0.0332 -0.5915
  430SOL    HW2 2190   1.974   2.631   5.223 -1.0262  1.3041  1.3443
  431SOL     OW 2191   2.248   1.292   0.350  0.8176  0.3160 -0.0982
  431SOL    HW1 2192   2.216   1.385   0.365 -0.3310  0.2266 -1.7256
  431SOL    HW2 2193   2.184   1.227   0.392  1.3188  0.2344  0.5538
  432SOL     OW 2194   4.723   3.333   1.161 -0.5739  0.6587 -0.1059
  432SOL    HW1 2195   4.746   3.338   1.064 -0.9289  0.5761 -0.1944
  432SOL    HW2 2196   4.633   3.292   1.173  0.2300 -1.0902  0.3513
  433SOL     OW 2197   1.796   5.521   6.389 -0.2795  0.1411  0.3398
  433SOL    HW1 2198   1.787   5.498   6.292 -0.7956 -0.6736  0.5640
  433SOL    HW2 2199   1.741   5.457   6.443  0.9752 -0.1973  1.2649
  434SOL     OW 2200   4.625   5.717   4.388 -0.1107  0.2520 -0.7785
  434SOL    HW1 2201   4.636   5.814   4.369 -0.3732  0.1531 -1.4670
  434SOL    HW2 2202   4.695   5.687   4.453 -1.5582  1.4406  1.4746
  435SOL     OW 2203   2.412   0.343   5.211 -0.1631  0.0141 -0.0235
  435SOL    HW1 2204   2.387   0.338   5.114  2.2841  3.1971 -0.9884
  435SOL    HW2 2205   2.337   0.384   5.263 -1.2777 -1.2069 -0.6114
  436SOL     OW 2206   5.276   0.120   1.071 -0.2035  0.1591 -0.5060
  436SOL    HW1 2207   5.239   0.031   1.042  0.7768 -1.0266  1.6603
  436SOL    HW2 2208   5.205   0.190   1.059 -1.4843 -1.1492 -0.9564
  437SOL     OW 2209   5.023   1.964   3.826  0.4548  0.5754  0.3219
  437SOL    HW1 2210   5.111   1.973   3.871  0.1296 -1.2990  1.4061
  437SOL    HW2 2211   4.951   2.004   3.884  0.4661  1.3846 -0.2010
  438SOL     OW 2212   0.694   3.753   4.417 -0.0021  0.2836  0.1657
  438SOL    HW1 2213   0.654   3.764   4.326  0.9236 -0.2672 -0.3287
  438SOL    HW2 2214   0.721   3.658   4.430 -0.6183  0.2419  1.2411
  439SOL     OW 2215   1.068   0.219   0.134 -0.0597  0.0691 -0.0413
  439SOL    HW1 2216   1.043   0.228   0.230  0.1581  0.5823 -0.0263
  439SOL    HW2 2217   1.157   0.175   0.126 -0.7004 -1.2545 -0.0718
  440SOL     OW 2218   4.377   2.379   2.063 -0.0556 -0.2685  0.2447
  440SOL    HW1 2219   4.399   2.415   1.972 -1.5032  2.3076  0.8188
  440SOL    HW2 2220   4.283   2.346   2.064 -0.0229 -0.3601  0.8016
  441SOL     OW 2221   0.389   5.015   1.919  0.2325  0.2276  0.7618
  441SOL    HW1 2222   0.319   4.949   1.892 -1.0437  1.3988  1.0745
  441SOL    HW2 2223   0.413   5.072   1.840 -1.2865  1.6765  1.2925
  442SOL     OW 2224   3.286   3.587   3.147  0.0634  0.1429  0.2915
  442SOL    HW1 2225   3.290   3.585   3.247  0.4583  1.0126  0.3021
  442SOL    HW2 2226   3.203   3.542   3.116 -0.6674  0.9351  1.0667
  443SOL     OW 2227   6.796   2.909   3.529  0.2495 -0.4942  0.1287
  443SOL    HW1 2228   6.829   2.825   3.570  0.5576 -0.0390  0.8283
  443SOL    HW2 2229   6.698   2.917   3.543  0.1362 -0.9534 -0.3488
  444SOL     OW 2230   6.277   3.933   2.015  0.5584 -0.2709 -0.2857
  444SOL    HW1 2231   6.265   4.006   2.083  1.1634 -0.1794 -0.2739
  444SOL    HW2 2232   6.191   3.918   1.966 -0.5186 -1.8203  1.9485
  445SOL     OW 2233   1.222   5.671   3.085  0.4955 -0.2101 -0.2715
  445SOL    HW1 2234   1.298   5.734   3.101  0.8974 -0.9623  0.9119
  445SOL    HW2 2235   1.220   5.603   3.158 -1.8633  0.3260  0.2455
  446SOL     OW 2236   0.180   1.796   0.799 -0.4776  0.3946  0.3994
  446SOL    HW1 2237   0.220   1.714   0.840  1.0803 -0.1268 -1.9865
  446SOL    HW2 2238   0.248   1.870   0.800 -0.4506  0.4075 -1.0616
  447SOL     OW 2239   6.149   5.442   6.455 -0.0139 -0.1843  0.0775
  447SOL    HW1 2240   6.068   5.436   6.396 -0.5775 -0.7474  0.8854
  447SOL    HW2 2241   6.128   5.401   6.544  0.9121  0.3886  0.5715
  448SOL     OW 2242   5.008   6.323   3.294  0.1118  0.1535  0.8742
  448SOL    HW1 2243   4.923   6.270   3.289  0.0248  0.1043  2.3603
  448SOL    HW2 2244   5.008   6.393   3.224 -1.0646  0.0092  0.7094
  449SOL     OW 2245   1.663   3.632   4.124  1.0382  0.3242  0.0669
  449SOL    HW1 2246   1.599   3.603   4.052  0.0594 -0.6053  1.2651
  449SOL    HW2 2247   1.612   3.649   4.209  2.0465  2.2511  0.3520
  450SOL     OW 2248   0.648   3.025   2.556 -0.2881  0.4137  0.5838
  450SOL    HW1 2249   0.709   3.079   2.498 -0.5540 -0.3127 -0.3907
  450SOL    HW2 2250   0.699   2.992   2.635 -0.1660  2.2504  1.3363
  451SOL     OW 2251   1.646   1.485   1.402  0.1290  0.0289 -0.7945
  451SOL    HW1 2252   1.583   1.543   1.452  2.1489  1.3295  0.4020
  451SOL    HW2 2253   1.722   1.541   1.368  0.2179 -1.2998 -2.9768
  452SOL     OW 2254   4.513   5.768   0.409 -0.4179  0.2032 -0.7716
  452SOL    HW1 2255   4.605   5.759   0.446 -0.2460 -0.1835 -1.2880
  452SOL    HW2 2256   4.463   5.682   0.422 -1.7066  1.2313  2.1258
  453SOL     OW 2257   4.445   0.984   5.991  0.5198 -0.4786  0.3640
  453SOL    HW1 2258   4.450   0.922   5.913  0.2380 -1.6736  1.2709
  453SOL    HW2 2259   4.449   0.932   6.076  0.4941  0.7691  1.1655
  454SOL     OW 2260   6.754   2.825   2.381  0.1445  0.6465  0.1163
  454SOL    HW1 2261   6.835   2.883   2.379  1.0544 -0.5871 -0.4090
  454SOL    HW2 2262   6.739   2.789   2.473  2.7032 -2.4013 -0.4763
  455SOL     OW 2263   0.499   0.274   6.708 -0.7949  0.0418 -0.7464
  455SOL    HW1 2264   0.423   0.209   6.709  0.6010 -1.7385 -2.2808
  455SOL    HW2 2265   0.488   0.336   6.629 -0.1031 -0.9896 -1.6842
  456SOL     OW 2266   3.176   0.113   2.496 -0.4005 -0.0320 -0.4262
  456SOL    HW1 2267   3.177   0.014   2.481  1.2572 -0.0376 -0.4431
  456SOL    HW2 2268   3.215   0.159   2.416  0.3933  0.5051  0.2548
  457SOL     OW 2269   4.006   5.058   6.728 -0.6110  0.0802 -0.4697
  457SOL    HW1 2270   3.908   5.040   6.742 -0.4486  0.0095  0.6263
  457SOL    HW2 2271   4.058   5.023   6.806  0.2968  0.1345 -1.0340
  458SOL     OW 2272   3.050   1.562   3.827 -0.6705  0.3258 -0.3351
  458SOL    HW1 2273   3.112   1.506   3.772 -0.4405  0.0799  0.1715
  458SOL    HW2 2274   2.958   1.524   3.822 -0.4415 -0.3393  0.3210
  459SOL     OW 2275   2.485   0.050   1.952 -0.5575 -0.5327 -0.1090
  459SOL    HW1 2276   2.547  -0.019   1.988  1.7864  1.2557 -0.5160
  459SOL    HW2 2277   2.459   0.026   1.858 -1.0998 -1.6382  0.3046
  460SOL     OW 2278   0.635   1.544   0.527 -0.1754  0.4812  0.0411
  460SOL    HW1 2279   0.569   1.557   0.601  0.1123  1.6129  0.1191
  460SOL    HW2 2280   0.608   1.599   0.448  0.6865  1.0015  0.0912
  461SOL     OW 2281   6.096   0.374   5.885 -0.0075 -0.0980  0.1862
  461SOL    HW1 2282   6.092   0.347   5.981 -1.4620 -0.5329  0.0323
  461SOL    HW2 2283   6.160   0.315   5.836  1.9721  1.1386  1.1612
  462SOL     OW 2284   4.564   3.140   6.923 -0.1219  0.3161 -0.4180
  462SOL    HW1 2285   4.511   3.057   6.904  3.0921 -2.2651  0.8550
  462SOL    HW2 2286   4.642   3.143   6.860  0.4647  1.7463  0.3503
  463SOL     OW 2287   5.138   5.111   4.760 -0.8616  0.4171  0.3890
  463SOL    HW1 2288   5.138   5.034   4.825 -0.9803  1.2653  1.4250
  463SOL    HW2 2289   5.230   5.147   4.750 -0.5468 -0.7242 -1.1927
  464SOL     OW 2290   4.093   4.753   6.185  0.1663 -0.0475  0.3602
  464SOL    HW1 2291   4.076   4.817   6.260 -3.1266  0.5881 -0.7611
  464SOL    HW2 2292   4.106   4.804   6.100  1.1101 -0.8198  0.0304
  465SOL     OW 2293   0.462   5.024   6.799  0.4903  0.3433  0.1918
  465SOL    HW1 2294   0.397   5.085   6.755 -0.4025 -0.4315  0.4040
  465SOL    HW2 2295   0.555   5.057   6.784  0.0069  2.0355  0.7454
  466SOL     OW 2296   2.413   4.692   4.051  0.1414 -0.5940  0.2419
  466SOL    HW1 2297   2.393   4.740   3.965 -1.1197 -1.1148  0.2352
  466SOL    HW2 2298   2.383   4.749   4.128 -0.2699 -0.8599  0.2772
  467SOL     OW 2299   1.389   6.321   4.498  0.5197 -0.2400  0.0681
  467SOL    HW1 2300   1.325   6.395   4.520  1.0135  0.2893 -0.2732
  467SOL    HW2 2301   1.407   6.267   4.581  1.6996  1.2152  0.7862
  468SOL     OW 2302   1.485   5.643   6.865 -0.1760 -0.0151  0.0549
  468SOL    HW1 2303   1.461   5.546   6.866 -0.1179 -0.0364  1.2504
  468SOL    HW2 2304   1.527   5.668   6.952  1.4460  0.7001 -0.8913
  469SOL     OW 2305   3.880   3.279   6.846 -0.4055  0.2958  0.8450
  469SOL    HW1 2306   3.909   3.261   6.939 -0.9347  1.9068  1.3630
  469SOL    HW2 2307   3.934   3.225   6.782 -0.6475 -1.5222  2.1224
  470SOL     OW 2308   1.614   3.329   2.658 -0.7102  0.0693  0.2800
  470SOL    HW1 2309   1.698   3.275   2.655 -0.9463 -0.2374 -2.1054
  470SOL    HW2 2310   1.626   3.412   2.604 -2.5465 -0.9524 -1.8191
  471SOL     OW 2311   1.511   2.604   5.902  0.3770 -0.1216  0.3196
  471SOL    HW1 2312   1.422   2.617   5.858  2.4245  1.5820 -3.7449
  471SOL    HW2 2313   1.515   2.512   5.942 -2.7128 -0.7100 -0.4720
  472SOL     OW 2314   6.516   2.412   6.430 -0.0133 -0.3255 -0.0186
  472SOL    HW1 2315   6.454   2.394   6.353 -0.1714  1.2235 -0.2762
  472SOL    HW2 2316   6.610   2.393   6.402 -0.1084 -0.1264 -0.4785
  473SOL     OW 2317   4.312   5.068   2.826 -0.0960 -0.5024 -0.3807
  473SOL    HW1 2318   4.347   5.161   2.837 -2.3081  0.2672  0.5845
  473SOL    HW2 2319   4.233   5.069   2.765 -0.6484 -1.6312  0.2840
  474SOL     OW 2320   5.098   0.667   1.786 -0.1972 -0.0386 -0.1260
  474SOL    HW1 2321   5.027   0.715   1.836 -0.3124 -0.9964  0.6569
  474SOL    HW2 2322   5.059   0.627   1.703 -0.2260  0.7014 -0.4768
  475SOL     OW 2323   4.380   0.707   0.588  0.0250  0.2008  0.0580
  475SOL    HW1 2324   4.336   0.620   0.611  0.9640 -0.6953 -1.3740
  475SOL    HW2 2325   4.469   0.712   0.633  0.8487 -0.5148 -1.4297
  476SOL     OW 2326   0.326   4.184   6.054 -0.0505 -0.3831  0.0119
  476SOL    HW1 2327   0.282   4.114   6.110 -1.7111  1.6608  1.4009
  476SOL    HW2 2328   0.394   4.234   6.108  1.0836 -0.8172 -0.9471
  477SOL     OW 2329   4.968   4.710   2.658  0.1984 -0.6308 -0.5183
  477SOL    HW1 2330   5.016   4.750   2.579  1.0040 -2.1968 -0.8723
  477SOL    HW2 2331   4.924   4.625   2.630  0.7222 -1.3574  0.7726
  478SOL     OW 2332   1.761   6.129   2.026  0.4085  0.3656  0.2986
  478SOL    HW1 2333   1.685   6.128   1.961  1.4406  2.5904 -1.0616
  478SOL    HW2 2334   1.843   6.091   1.982  0.2931 -1.5698  1.5948
  479SOL     OW 2335   3.534   4.015   3.016 -0.3123  0.3257 -0.2440
  479SOL    HW1 2336   3.594   3.936   3.029  0.0051  0.5339 -0.4069
  479SOL    HW2 2337   3.567   4.091   3.073 -0.3420  0.4807 -0.4307
  480SOL     OW 2338   0.552   0.505   2.110  0.1665  0.5780  0.3679
  480SOL    HW1 2339   0.591   0.516   2.201 -2.5511  2.7349  1.4091
  480SOL    HW2 2340   0.534   0.595   2.070 -1.6829 -0.2861 -0.8976
  481SOL     OW 2341   5.595   6.953   6.896  0.1078 -0.2447  0.1690
  481SOL    HW1 2342   5.572   6.947   6.993  1.1279 -0.0110  0.4458
  481SOL    HW2 2343   5.675   7.013   6.885  0.4310 -0.8274 -0.7480
  482SOL     OW 2344   5.448   5.469   3.161  0.5503 -0.0218 -0.0201
  482SOL    HW1 2345   5.431   5.486   3.258  0.3568  1.0827 -0.2429
  482SOL    HW2 2346   5.542   5.496   3.139  0.1810  0.9585 -0.4162
  483SOL     OW 2347   5.289   6.427   3.056 -0.4429 -0.0407  0.0456
  483SOL    HW1 2348   5.249   6.375   2.981 -0.7889 -0.0552  0.2378
  483SOL    HW2 2349   5.306   6.521   3.026 -0.0470 -0.1989 -0.2254
  484SOL     OW 2350   1.655   4.340   3.475  0.0053 -0.0840  0.1798
  484SOL    HW1 2351   1.741   4.389   3.486  0.2567  0.0260 -1.8387
  484SOL    HW2 2352   1.673   4.243   3.461 -0.1941 -0.0605 -0.2530
  485SOL     OW 2353   3.878   2.937   1.338  0.2626  0.1666 -0.5872
  485SOL    HW1 2354   3.915   2.922   1.429 -1.9125  1.0029  0.5143
  485SOL    HW2 2355   3.779   2.919   1.338  0.2626 -0.1757 -2.8808
  486SOL     OW 2356   0.477   6.629   5.289  0.3851  0.1699  0.3185
  486SOL    HW1 2357   0.527   6.584   5.364 -1.1553 -1.0872  0.6506
  486SOL    HW2 2358   0.388   6.585   5.278 -0.2209  1.6425 -0.9682
  487SOL     OW 2359   1.001   1.356   5.964 -0.5024 -0.0543 -0.2450
  487SOL    HW1 2360   0.913   1.345   5.919 -0.2485 -0.8647 -0.5655
  487SOL    HW2 2361   0.994   1.326   6.059 -0.6108  0.0378 -0.2234
  488SOL     OW 2362   0.226   4.313   4.268  0.7781  0.2313 -0.2440
  488SOL    HW1 2363   0.310   4.357   4.299  0.6579 -0.4028  1.0238
  488SOL    HW2 2364   0.147   4.360   4.307  0.6513 -1.2246  1.3792
  489SOL     OW 2365   2.121   5.440   6.307  0.0595 -0.5025  0.4380
  489SOL    HW1 2366   2.136   5.538   6.319  0.7670 -0.6279  0.6034
  489SOL    HW2 2367   2.110   5.420   6.209 -0.5546 -0.2010  0.4391
  490SOL     OW 2368   1.583   2.313   6.513  0.7015 -0.1840 -0.0009
  490SOL    HW1 2369   1.566   2.229   6.461 -2.2421 -0.3712  1.0903
  490SOL    HW2 2370   1.614   2.385   6.451 -0.8579 -0.9161 -1.7277
  491SOL     OW 2371   5.827   5.497   0.285 -0.2479 -0.1396 -0.9466
  491SOL    HW1 2372   5.728   5.503   0.296  0.0213  0.4002  1.9829
  491SOL    HW2 2373   5.865   5.588   0.271 -0.0489 -0.1258 -0.3723
  492SOL     OW 2374   0.133   2.397   3.806  0.2217  0.1734  0.0468
  492SOL    HW1 2375   0.114   2.452   3.725  2.0598 -0.5521 -0.9245
  492SOL    HW2 2376   0.117   2.301   3.786  1.5380 -0.1038  0.2458
  493SOL     OW 2377   2.077   5.399   3.590  0.4359  0.1893  0.2116
  493SOL    HW1 2378   2.038   5.319   3.636  0.5989 -0.5708 -0.9382
  493SOL    HW2 2379   2.160   5.428   3.637 -0.2232  0.3793  1.2947
  494SOL     OW 2380   2.821   1.696   5.187  0.5590  0.3931 -0.0264
  494SOL    HW1 2381   2.813   1.664   5.093 -0.4138  2.1279 -0.5722
  494SOL    HW2 2382   2.747   1.761   5.207  1.9476  1.6626  1.2622
  495SOL     OW 2383   4.275   3.047   0.112 -0.2014  0.2017 -0.0657
  495SOL    HW1 2384   4.341   3.048   0.037 -0.9736  1.2542 -0.7599
  495SOL    HW2 2385   4.216   2.967   0.103  1.2774 -1.0410  0.8646
  496SOL     OW 2386   5.029   1.950   2.444  0.0338 -0.1196 -0.9436
  496SOL    HW1 2387   5.050   1.901   2.528  0.7661  1.8100  0.0543
  496SOL    HW2 2388   5.006   2.045   2.465  1.5115  0.7884 -3.0067
  497SOL     OW 2389   4.464   2.523   0.315  0.1640 -0.7268 -0.8433
  497SOL    HW1 2390   4.423   2.548   0.403  0.4339 -0.6231 -0.7456
  497SOL    HW2 2391   4.437   2.429   0.291 -1.2613 -0.1878 -1.4548
  498SOL     OW 2392   0.616   0.354   0.084  0.2202  0.4123  0.3077
  498SOL    HW1 2393   0.663   0.268   0.101 -0.3913  0.1040  0.4648
  498SOL    HW2 2394   0.519   0.336   0.065  0.0201  1.0867  0.6577
  499SOL     OW 2395   2.296   6.970   6.198 -0.5284 -0.1144  0.1011
  499SOL    HW1 2396   2.365   7.020   6.250  1.4132 -1.0127 -1.4879
  499SOL    HW2 2397   2.266   7.025   6.120  0.9047 -0.9655 -1.1009
  500SOL     OW 2398   5.485   2.885   6.308  0.1261  0.1663  0.0243
  500SOL    HW1 2399   5.549   2.809   6.296  2.3145  1.4845  2.1439
  500SOL    HW2 2400   5.435   2.873   6.394 -0.0380  0.7563  0.0152
  501SOL     OW 2401   2.038   0.245   3.461  0.4028  0.0216  0.0441
  501SOL    HW1 2402   1.975   0.175   3.428 -0.4909  1.0704 -0.5496
  501SOL    HW2 2403   2.054   0.232   3.559 -0.3866 -0.5472  0.1089
  502SOL     OW 2404   1.871   3.370   5.698 -0.1253  0.0601  0.1142
  502SOL    HW1 2405   1.890   3.369   5.600 -0.4310  0.2804  0.0512
  502SOL    HW2 2406   1.923   3.445   5.741 -1.5080  1.2351 -0.2006
  503SOL     OW 2407   3.254   4.634   1.434  0.2593  0.3473 -0.1328
  503SOL    HW1 2408   3.297   4.677   1.513  0.7135  1.1299 -0.7805
  503SOL    HW2 2409   3.250   4.535   1.447  0.3061  0.4694  0.8695
  504SOL     OW 2410   5.658   6.857   0.785 -0.7799  0.0804 -0.2641
  504SOL    HW1 2411   5.578   6.906   0.750 -1.4139 -0.3077  0.6013
  504SOL    HW2 2412   5.657   6.763   0.752 -1.5825 -0.3972  1.0241
  505SOL     OW 2413   5.414   3.971   6.691 -0.1209 -0.0394  0.1702
  505SOL    HW1 2414   5.496   3.930   6.653  0.4698 -0.3594  1.7327
  505SOL    HW2 2415   5.419   4.070   6.682 -0.7343 -0.1588 -1.9900
  506SOL     OW 2416   3.654   5.729   1.829  0.4513 -0.2322  0.4913
  506SOL    HW1 2417   3.568   5.679   1.837  0.1810  0.1043 -0.3132
  506SOL    HW2 2418   3.656   5.781   1.744  1.1989  0.2498  0.7887
  507SOL     OW 2419   3.153   6.883   2.472 -0.1709  0.2418 -0.2343
  507SOL    HW1 2420   3.086   6.872   2.399 -1.0615 -1.8676  0.8331
  507SOL    HW2 2421   3.116   6.848   2.558  1.4364  1.2184  0.9198
  508SOL     OW 2422   0.193   6.053   3.555  0.0061 -0.7478 -0.1685
  508SOL    HW1 2423   0.288   6.023   3.563 -0.4938 -1.8674  2.4597
  508SOL    HW2 2424   0.132   5.974   3.550 -1.0105 -0.2222  2.2001
  509SOL     OW 2425   5.239   6.424   0.330  0.2386  0.4457 -0.4595
  509SOL    HW1 2426   5.210   6.518   0.318  0.8088  0.6203 -0.4880
  509SOL    HW2 2427   5.165   6.362   0.302  0.5799  0.8591 -2.3807
  510SOL     OW 2428   5.599   6.135   6.471  0.0874  0.0966 -0.2249
  510SOL    HW1 2429   5.504   6.162   6.456 -0.1135 -0.2270  0.3850
  510SOL    HW2 2430   5.616   6.046   6.428  0.1865  0.2780 -0.5580
  511SOL     OW 2431   0.792   0.153   0.110  0.3990  0.2353  0.3086
  511SOL    HW1 2432   0.888   0.176   0.130  0.6752 -0.3968 -0.2457
  511SOL    HW2 2433   0.775   0.058   0.136  0.0137  0.2445  0.0957
  512SOL     OW 2434   1.767   2.776   3.009  0.2866  0.2841 -0.2805
  512SOL    HW1 2435   1.829   2.701   3.032  0.9819  0.8368 -0.3220
  512SOL    HW2 2436   1.724   2.811   3.092  1.2123  0.9139 -0.0604
  513SOL     OW 2437   5.633   0.814   3.034  0.5975  0.2201  0.2670
  513SOL    HW1 2438   5.588   0.732   3.067 -3.6912  2.3959  0.5176
  513SOL    HW2 2439   5.684   0.857   3.109 -0.2262 -0.3175  1.1497
  514SOL     OW 2440   5.602   2.242   3.383 -0.9126 -0.4270 -0.0293
  514SOL    HW1 2441   5.639   2.153   3.410 -0.4962 -0.5245 -0.8940
  514SOL    HW2 2442   5.655   2.314   3.428 -0.5913 -0.5976 -0.1309
  515SOL     OW 2443   2.075   0.147   7.000  0.6648 -0.2006  0.3520
  515SOL    HW1 2444   2.112   0.075   7.060  0.5027  1.1924  2.2310
  515SOL    HW2 2445   1.976   0.138   6.996  0.7884 -1.2278 -1.0253
  516SOL     OW 2446   7.020   5.679   1.802 -0.1455  0.0538 -0.2085
  516SOL    HW1 2447   7.064   5.639   1.721  0.3078  0.1703 -0.0216
  516SOL    HW2 2448   7.090   5.707   1.868 -0.5226 -0.3079  0.3559
  517SOL     OW 2449   4.044   4.707   0.325 -0.2338 -0.1264 -0.1596
  517SOL    HW1 2450   3.946   4.695   0.343  0.0544  0.2321  1.8931
  517SOL    HW2 2451   4.096   4.650   0.388  0.8925  1.3045  0.2522
  518SOL     OW 2452   2.286   6.080   3.591  0.1723 -0.2085 -0.4093
  518SOL    HW1 2453   2.216   6.066   3.522 -1.2555 -2.3065  1.3150
  518SOL    HW2 2454   2.358   6.011   3.580  0.6025  0.2494 -0.5319
  519SOL     OW 2455   5.289   0.098   2.194  0.6429  0.9844 -0.5467
  519SOL    HW1 2456   5.225   0.025   2.173  0.4229  2.0388 -4.1568
  519SOL    HW2 2457   5.239   0.181   2.218  0.7011  1.2140 -1.1968
  520SOL     OW 2458   3.099   5.782   0.733 -0.1677 -0.5470 -0.0641
  520SOL    HW1 2459   3.066   5.870   0.765  0.1346  0.6924 -2.9033
  520SOL    HW2 2460   3.021   5.725   0.705 -0.2847 -0.7333  0.6142
  521SOL     OW 2461   6.655   6.691   5.016 -0.6350  0.6880 -0.3409
  521SOL    HW1 2462   6.590   6.638   5.071  0.8745 -0.6489  0.2368
  521SOL    HW2 2463   6.606   6.764   4.967 -2.1804  1.4085  2.0897
  522SOL     OW 2464   2.988   3.765   1.566 -0.3601 -0.1001  0.0477
  522SOL    HW1 2465   2.941   3.817   1.495  1.1921  0.2093 -0.7946
  522SOL    HW2 2466   3.018   3.677   1.528  1.3576  0.4820 -0.0082
  523SOL     OW 2467   2.564   5.800   4.546  0.2094 -0.1333  0.3592
  523SOL    HW1 2468   2.500   5.876   4.546 -1.1343 -1.2072  1.1705
  523SOL    HW2 2469   2.553   5.747   4.461 -2.5342 -2.2637  1.8620
  524SOL     OW 2470   6.621   0.883   1.365 -0.7119 -0.5566 -0.1149
  524SOL    HW1 2471   6.715   0.877   1.331 -0.9323  1.7744 -1.3506
  524SOL    HW2 2472   6.565   0.813   1.321  0.1342 -1.0291 -0.4644
  525SOL     OW 2473   1.172   4.252   4.295  0.4154  0.5225  0.1014
  525SOL    HW1 2474   1.210   4.218   4.209 -0.1059 -0.2026  0.1465
  525SOL    HW2 2475   1.161   4.351   4.290 -1.2432  0.3004 -1.3335
  526SOL     OW 2476   4.215   6.222   2.464 -0.3368 -0.4594 -0.0224
  526SOL    HW1 2477   4.303   6.175   2.468 -0.2332 -0.2445  0.3444
  526SOL    HW2 2478   4.222   6.301   2.403  0.0506  0.1924  0.8276
  527SOL     OW 2479   0.239   0.787   1.756  0.5194  0.1676  0.3133
  527SOL    HW1 2480   0.328   0.826   1.779  0.1055  0.3467  1.7154
  527SOL    HW2 2481   0.167   0.846   1.792 -0.2181  0.6929 -1.8889
  528SOL     OW 2482   6.247   2.315   5.361  0.6806  0.3148  0.5276
  528SOL    HW1 2483   6.228   2.410   5.335 -1.4138 -0.2223 -0.0746
  528SOL    HW2 2484   6.345   2.298   5.354  0.9977  2.1827 -0.2287
  529SOL     OW 2485   0.519   1.328   4.256  0.3622 -0.7719  0.3502
  529SOL    HW1 2486   0.595   1.291   4.309  1.6010 -1.3986 -1.7580
  529SOL    HW2 2487   0.467   1.252   4.215  0.2685 -0.2818 -0.4515
  530SOL     OW 2488   4.119   3.352   2.127 -0.5880 -0.3814 -0.0368
  530SOL    HW1 2489   4.096   3.405   2.209  1.4818 -0.4058  0.6273
  530SOL    HW2 2490   4.218   3.336   2.125 -0.5998 -0.5403 -2.4557
  531SOL     OW 2491   0.326   0.792   0.125 -0.9193  0.3503 -0.0006
  531SOL    HW1 2492   0.331   0.716   0.061  0.4252  1.3436 -1.1464
  531SOL    HW2 2493   0.418   0.816   0.156 -1.0038  2.9690 -1.4983
  532SOL     OW 2494   4.012   1.196   5.854  0.2282  0.1713  0.3325
  532SOL    HW1 2495   4.031   1.124   5.920  0.2808 -1.0412 -0.9626
  532SOL    HW2 2496   3.938   1.255   5.889 -0.3051 -0.9282  1.1045
  533SOL     OW 2497   4.173   4.441   5.550 -0.7709  0.0343 -0.4462
  533SOL    HW1 2498   4.221   4.528   5.537  1.5994 -1.3181 -1.4388
  533SOL    HW2 2499   4.240   4.369   5.569 -2.6113 -1.6774 -0.1563
  534SOL     OW 2500   6.359   5.217   0.665 -0.0856  0.1197 -0.2783
  534SOL    HW1 2501   6.453   5.187   0.649  0.1476  0.1870  0.9169
  534SOL    HW2 2502   6.359   5.301   0.719 -0.7836  1.5887 -2.4366
  535SOL     OW 2503   5.194   4.899   4.913 -0.4738  0.2024  0.2628
  535SOL    HW1 2504   5.269   4.841   4.944  1.6345  3.1152  1.0670
  535SOL    HW2 2505   5.117   4.890   4.976 -0.1870 -1.5553  0.4252
  536SOL     OW 2506   6.305   6.882   6.797 -0.6817 -0.3897  0.0299
  536SOL    HW1 2507   6.338   6.840   6.713 -1.2349  0.5147 -0.6574
  536SOL    HW2 2508   6.334   6.978   6.800 -0.0709 -0.5913  1.2111
  537SOL     OW 2509   2.887   2.239   0.981  0.4011  0.0558 -0.1756
  537SOL    HW1 2510   2.937   2.153   0.980  0.5589  0.1506 -0.6962
  537SOL    HW2 2511   2.927   2.302   0.915  0.1674  0.4618  0.0640
  538SOL     OW 2512   4.213   5.060   5.359  0.3206  0.7282  0.5019
  538SOL    HW1 2513   4.115   5.081   5.353  0.7858  3.0060  0.1555
  538SOL    HW2 2514   4.225   4.968   5.396 -1.9283  0.7089  1.3115
  539SOL     OW 2515   0.952   1.308   6.755 -0.7722 -0.0639 -0.3184
  539SOL    HW1 2516   0.940   1.224   6.809 -1.5618  0.7400  0.8129
  539SOL    HW2 2517   1.045   1.312   6.720  0.2954  0.1239  2.3433
  540SOL     OW 2518   2.102   0.165   4.086 -0.4117 -0.1546  0.0207
  540SOL    HW1 2519   2.097   0.192   4.182 -0.6367 -1.4686  0.3907
  540SOL    HW2 2520   2.010   0.159   4.048 -0.4797 -1.8165  0.3724
  541SOL     OW 2521   4.300   6.454   2.331  0.5237  0.3724  0.3700
  541SOL    HW1 2522   4.332   6.527   2.391  1.0729  0.3677  0.0862
  541SOL    HW2 2523   4.375   6.423   2.273  0.0073  0.3641 -0.3077
  542SOL     OW 2524   4.393   5.221   5.606  0.0325 -0.8126 -0.3729
  542SOL    HW1 2525   4.469   5.281   5.583  0.1431 -0.9958 -0.4861
  542SOL    HW2 2526   4.408   5.131   5.566 -1.5880 -0.1033 -2.8432
  543SOL     OW 2527   6.451   2.557   5.011  0.3553  0.2769  1.0857
  543SOL    HW1 2528   6.417   2.561   5.105 -0.5180 -0.6992  0.8345
  543SOL    HW2 2529   6.459   2.649   4.974  2.3791  0.8083  2.6747
  544SOL     OW 2530   6.767   1.903   6.927  0.1842 -0.0045  0.6861
  544SOL    HW1 2531   6.854   1.905   6.879  0.3648  0.9690  1.0409
  544SOL    HW2 2532   6.737   1.808   6.937  1.1624 -0.3462  0.4968
  545SOL     OW 2533   7.001   5.356   0.437  0.0766 -0.0841 -0.2141
  545SOL    HW1 2534   6.936   5.353   0.361 -0.3369 -1.4651  0.1640
  545SOL    HW2 2535   7.072   5.425   0.418 -0.9021  0.7056 -1.1042
  546SOL     OW 2536   6.263   4.488   2.554 -0.8236 -0.4253  0.6350
  546SOL    HW1 2537   6.238   4.545   2.475  2.1374  1.7273  1.0701
  546SOL    HW2 2538   6.182   4.473   2.611 -1.9583  2.7475  0.0621
  547SOL     OW 2539   2.117   0.443   0.700  0.1810  0.5955  0.0944
  547SOL    HW1 2540   2.165   0.512   0.754 -0.9798  1.8055 -0.3690
  547SOL    HW2 2541   2.018   0.451   0.715 -0.0606 -0.0977 -0.9915
  548SOL     OW 2542   6.213   1.065   1.205  0.0823  0.2383 -0.0232
  548SOL    HW1 2543   6.297   1.090   1.254 -0.8489  1.0262  1.2461
  548SOL    HW2 2544   6.137   1.119   1.240 -0.4981  1.6389 -3.1285
  549SOL     OW 2545   0.424   1.649   3.845 -0.1584  0.7745 -0.5487
  549SOL    HW1 2546   0.496   1.653   3.776 -0.6124 -2.0547 -1.2871
  549SOL    HW2 2547   0.452   1.587   3.919 -1.7361 -0.2717 -0.7874
  550SOL     OW 2548   0.642   6.859   4.698  0.0670  0.1048 -0.0172
  550SOL    HW1 2549   0.633   6.938   4.638 -0.7332  0.6663  0.8064
  550SOL    HW2 2550   0.565   6.796   4.684  0.4773 -0.3208 -0.3733
  551SOL     OW 2551   5.915   1.410   0.093 -0.1317 -0.0419  0.2711
  551SOL    HW1 2552   5.891   1.507   0.086 -0.0133 -0.0640 -0.6608
  551SOL    HW2 2553   5.963   1.382   0.010  3.6100  0.1294  2.1747
  552SOL     OW 2554   1.160   0.782   4.077 -0.3145 -0.0782 -0.2724
  552SOL    HW1 2555   1.203   0.719   4.012  0.1739 -0.0742  0.0400
  552SOL    HW2 2556   1.230   0.842   4.117  0.0163 -2.2008  2.6927
  553SOL     OW 2557   3.502   4.274   5.850 -0.4492 -0.4378  0.4835
  553SOL    HW1 2558   3.439   4.204   5.816  1.2474 -1.6059 -0.3787
  553SOL    HW2 2559   3.502   4.351   5.786 -1.5744 -0.0553  0.9149
  554SOL     OW 2560   5.973   4.106   0.687 -0.1861  0.0395  0.6672
  554SOL    HW1 2561   5.922   4.176   0.738  1.3467  1.7039 -0.0072
  554SOL    HW2 2562   5.911   4.061   0.623 -1.9627 -1.5096  3.2743
  555SOL     OW 2563   3.806   4.388   5.245 -0.3742  0.2638 -0.0833
  555SOL    HW1 2564   3.898   4.361   5.275 -1.1480 -2.4790  0.0111
  555SOL    HW2 2565   3.802   4.387   5.145 -0.2673  0.6443 -0.0966
  556SOL     OW 2566   6.879   0.677   1.693 -0.8917  0.1628 -0.2150
  556SOL    HW1 2567   6.824   0.740   1.638 -1.2932 -1.4956 -1.8135
  556SOL    HW2 2568   6.906   0.599   1.637 -0.8288 -1.3471  1.8034
  557SOL     OW 2569   6.435   5.156   5.416 -0.3372 -0.0316  0.1868
  557SOL    HW1 2570   6.433   5.086   5.488  0.5296  0.5966  0.8398
  557SOL    HW2 2571   6.502   5.130   5.347 -1.1251 -0.6032 -0.3867
  558SOL     OW 2572   3.523   3.643   2.190  0.4343  0.1020 -0.1991
  558SOL    HW1 2573   3.550   3.607   2.101  0.1228 -0.2444 -0.1574
  558SOL    HW2 2574   3.512   3.567   2.255  0.0885  0.2994 -0.0246
  559SOL     OW 2575   5.012   0.572   6.273  0.3587 -1.5061  0.1692
  559SOL    HW1 2576   4.953   0.571   6.353  1.1393 -1.0836  0.7649
  559SOL    HW2 2577   5.008   0.483   6.227 -1.2914 -1.2530 -0.2310
  560SOL     OW 2578   1.104   4.260   5.466  0.3723 -0.5613 -0.1063
  560SOL    HW1 2579   1.162   4.187   5.502 -1.3463 -1.1476  1.6782
  560SOL    HW2 2580   1.119   4.344   5.518 -0.3836 -0.7423  0.4311
  561SOL     OW 2581   0.188   4.442   6.253  0.2730 -0.4520 -0.4935
  561SOL    HW1 2582   0.229   4.363   6.298 -0.3372 -0.4774  0.0283
  561SOL    HW2 2583   0.089   4.441   6.266  0.2766  0.5124 -0.2778
  562SOL     OW 2584   4.784   4.947   4.566  0.0145  0.5396  0.3931
  562SOL    HW1 2585   4.878   4.978   4.549  0.1350  0.6104  1.1683
  562SOL    HW2 2586   4.744   4.914   4.481  0.6573  0.7455  0.0062
  563SOL     OW 2587   6.666   2.051   2.715 -0.0044  0.1928 -0.5615
  563SOL    HW1 2588   6.570   2.027   2.727 -0.2787  0.4074 -2.1261
  563SOL    HW2 2589   6.713   1.978   2.665  0.9518 -0.4498  1.1725
  564SOL     OW 2590   3.624   2.506   0.518 -0.3358 -0.9684  0.4397
  564SOL    HW1 2591   3.536   2.546   0.492 -0.1865 -1.9435 -1.7572
  564SOL    HW2 2592   3.679   2.575   0.564 -1.3605  0.3523 -0.2435
  565SOL     OW 2593   3.505   3.482   4.702 -0.1401  0.5940 -0.2626
  565SOL    HW1 2594   3.408   3.465   4.689 -0.5027  0.6461  2.0231
  565SOL    HW2 2595   3.519   3.539   4.783  1.7494  1.4031 -1.0916
  566SOL     OW 2596   2.678   1.910   2.032 -0.2063 -0.9728  0.0305
  566SOL    HW1 2597   2.725   1.989   1.993  0.6448 -1.2134  0.5255
  566SOL    HW2 2598   2.674   1.920   2.132 -2.1721 -0.4553 -0.0667
  567SOL     OW 2599   1.306   0.813   6.581  0.1799 -0.1783 -0.2022
  567SOL    HW1 2600   1.381   0.841   6.521  1.0602 -2.9178 -0.5407
  567SOL    HW2 2601   1.234   0.771   6.526 -0.3895  0.0397  0.3764
  568SOL     OW 2602   1.316   0.390   1.512  0.6684  0.6378  0.1996
  568SOL    HW1 2603   1.403   0.417   1.473  1.5590 -1.2177  0.7875
  568SOL    HW2 2604   1.263   0.338   1.445 -0.4549  2.5229 -0.4734
  569SOL     OW 2605   4.274   2.300   5.671 -0.7381  0.2427  0.1389
  569SOL    HW1 2606   4.305   2.291   5.577 -0.9910 -3.5420  0.2414
  569SOL    HW2 2607   4.199   2.366   5.676 -1.1916  0.0256 -2.4643
  570SOL     OW 2608   3.497   0.955   4.612  0.2307  0.7347 -0.0001
  570SOL    HW1 2609   3.426   0.905   4.663  0.6724  1.4990  1.3880
  570SOL    HW2 2610   3.460   0.980   4.522 -0.4378 -0.9426 -0.2452
  571SOL     OW 2611   2.522   4.806   1.531  0.0895 -0.4493  0.0079
  571SOL    HW1 2612   2.530   4.744   1.453 -0.9097 -3.3659  2.0508
  571SOL    HW2 2613   2.492   4.896   1.499 -2.3554 -2.0779 -2.8078
  572SOL     OW 2614   4.183   0.933   2.511 -0.0696  0.0221 -0.8833
  572SOL    HW1 2615   4.143   1.022   2.490 -1.2454 -0.7020 -1.8129
  572SOL    HW2 2616   4.273   0.947   2.553  0.0166  1.6402 -1.5063
  573SOL     OW 2617   0.939   1.811   0.932 -0.3076 -0.1294 -0.7192
  573SOL    HW1 2618   0.882   1.842   0.857 -0.5158 -0.3866 -0.6675
  573SOL    HW2 2619   0.906   1.723   0.965 -0.0609 -0.1397 -0.4962
  574SOL     OW 2620   3.935   5.816   0.343  0.2615 -0.5985  0.2122
  574SOL    HW1 2621   3.963   5.855   0.431  0.5788 -0.6349  0.1259
  574SOL    HW2 2622   3.853   5.863   0.311  1.0794  0.5372 -0.2771
  575SOL     OW 2623   2.205   3.090   1.030  0.1855  0.3292  0.0875
  575SOL    HW1 2624   2.170   2.997   1.042 -0.6003  0.6134  0.0333
  575SOL    HW2 2625   2.173   3.148   1.105  1.7415  0.2668  0.8373
  576SOL     OW 2626   1.591   0.107   3.939 -0.1407 -0.5954 -0.2381
  576SOL    HW1 2627   1.518   0.175   3.931  0.3378 -0.0892 -0.3530
  576SOL    HW2 2628   1.553   0.022   3.976 -0.7961 -0.3544 -0.3386
  577SOL     OW 2629   1.026   2.079   0.949 -0.4773 -0.2680  0.2836
  577SOL    HW1 2630   0.948   2.114   1.001 -0.9231 -0.6362 -0.1347
  577SOL    HW2 2631   1.017   1.980   0.936  0.2787 -0.3915  0.6000
  578SOL     OW 2632   4.081   6.641   6.388 -0.1674  0.4245  1.2361
  578SOL    HW1 2633   4.002   6.605   6.439 -0.0354 -0.1555  1.0369
  578SOL    HW2 2634   4.136   6.565   6.353 -0.6814  0.7860 -0.4618
  579SOL     OW 2635   0.647   3.692   2.071  0.1154  0.6362  0.0145
  579SOL    HW1 2636   0.651   3.605   2.021 -1.4623  0.2082  0.5700
  579SOL    HW2 2637   0.554   3.729   2.067  0.1227  0.9876  1.9254
  580SOL     OW 2638   4.838   5.365   4.678 -0.3831  0.0216 -0.1861
  580SOL    HW1 2639   4.749   5.388   4.719  0.8298  2.8109  1.1624
  580SOL    HW2 2640   4.874   5.283   4.722 -0.7275  0.9257  1.9336
  581SOL     OW 2641   6.871   2.952   4.348  0.0142  0.0407  0.4079
  581SOL    HW1 2642   6.887   3.042   4.308  0.2090 -0.2797 -0.2531
  581SOL    HW2 2643   6.931   2.885   4.303 -0.0279 -0.3950  0.9869
  582SOL     OW 2644   4.973   3.904   5.283  0.5406  0.8114 -0.0440
  582SOL    HW1 2645   4.912   3.847   5.337  0.1706  0.2652 -1.0143
  582SOL    HW2 2646   4.924   3.939   5.203  1.8728 -0.9134 -1.6989
  583SOL     OW 2647   4.757   6.177   3.246 -0.2801 -0.2551  0.2279
  583SOL    HW1 2648   4.681   6.128   3.289 -0.4778  0.0848  0.2751
  583SOL    HW2 2649   4.765   6.150   3.150  1.5525 -2.6782  0.9687
  584SOL     OW 2650   4.364   1.163   5.297  0.1871 -0.2921  0.2734
  584SOL    HW1 2651   4.311   1.088   5.256  1.2346 -1.9428  1.7800
  584SOL    HW2 2652   4.325   1.251   5.268 -4.0676 -1.3194  2.1181
  585SOL     OW 2653   3.848   0.199   3.094  0.4539  0.0972 -0.1453
  585SOL    HW1 2654   3.817   0.261   3.022 -1.5967 -0.4114  0.2161
  585SOL    HW2 2655   3.929   0.149   3.063  0.3758  0.8134 -1.5847
  586SOL     OW 2656   4.095   6.158   1.689  0.0122  0.1514 -0.1255
  586SOL    HW1 2657   4.193   6.138   1.696  0.0496 -0.3713 -1.8537
  586SOL    HW2 2658   4.042   6.078   1.717  0.0609  0.4112  0.7426
  587SOL     OW 2659   5.755   1.991   3.917 -0.1211 -0.4333  0.1436
  587SOL    HW1 2660   5.708   2.068   3.873 -0.1048 -0.9228 -0.7665
  587SOL    HW2 2661   5.808   2.024   3.995  0.2502  0.5457 -0.5061
  588SOL     OW 2662   2.595   5.807   3.756 -0.3110 -0.6360  0.0528
  588SOL    HW1 2663   2.627   5.885   3.810 -0.0474  0.4528 -1.6263
  588SOL    HW2 2664   2.648   5.726   3.781  0.4365  0.0492  0.7545
  589SOL     OW 2665   2.974   6.202   0.631  0.3836 -0.1030 -0.3655
  589SOL    HW1 2666   2.897   6.175   0.573 -0.7511  1.3243  0.3928
  589SOL    HW2 2667   2.971   6.151   0.717  0.3919 -0.2031 -0.4257
  590SOL     OW 2668   1.724   3.785   6.262 -0.1387  0.1974  0.5924
  590SOL    HW1 2669   1.674   3.862   6.302 -1.6042  0.3844 -1.4202
  590SOL    HW2 2670   1.701   3.701   6.311 -0.6289  0.6379  1.1330
  591SOL     OW 2671   3.515   6.885   4.002 -0.4745 -0.3570  0.1870
  591SOL    HW1 2672   3.558   6.910   4.089 -1.1814 -1.5345  0.9064
  591SOL    HW2 2673   3.428   6.933   3.992  0.6191  1.4747 -0.9333
  592SOL     OW 2674   5.422   3.193   4.592  0.0626  0.1101 -0.2048
  592SOL    HW1 2675   5.393   3.217   4.499  0.6533 -0.2329 -0.4814
  592SOL    HW2 2676   5.443   3.277   4.642  1.8613  0.2428 -1.0873
  593SOL     OW 2677   1.430   6.482   6.402  0.4473  0.0542  0.1670
  593SOL    HW1 2678   1.447   6.575   6.435  1.7192  0.6346 -1.9817
  593SOL    HW2 2679   1.344   6.480   6.352  0.4682  0.0854  0.1295
  594SOL     OW 2680   4.024   2.193   4.236  0.2609  0.1867  0.3854
  594SOL    HW1 2681   4.109   2.246   4.238  0.0216  0.5467  1.1220
  594SOL    HW2 2682   4.043   2.103   4.196  0.7687  0.6366 -0.4089
  595SOL     OW 2683   5.363   4.278   2.488 -0.0648  0.3289  0.2631
  595SOL    HW1 2684   5.280   4.287   2.543 -0.5972 -1.9401 -0.0735
  595SOL    HW2 2685   5.364   4.350   2.418 -2.1976 -0.1050 -0.2821
  596SOL     OW 2686   6.147   5.142   5.422 -0.1270 -0.8455 -0.6428
  596SOL    HW1 2687   6.149   5.152   5.522 -2.0563 -0.0438 -0.6392
  596SOL    HW2 2688   6.239   5.155   5.385  0.4810 -0.3328  0.9549
  597SOL     OW 2689   2.990   6.131   6.542 -0.1197  0.0198 -0.3161
  597SOL    HW1 2690   2.970   6.227   6.525  0.5116  0.6110  1.8863
  597SOL    HW2 2691   3.084   6.110   6.514 -0.3216 -0.0099 -0.9731
  598SOL     OW 2692   2.889   3.569   2.798  0.4192  0.0300 -0.1362
  598SOL    HW1 2693   2.868   3.473   2.781 -0.5995  0.3353 -0.7151
  598SOL    HW2 2694   2.895   3.617   2.711 -0.3821  0.7393  0.1861
  599SOL     OW 2695   2.001   5.183   0.683 -0.1983 -0.1705 -0.5263
  599SOL    HW1 2696   2.093   5.147   0.663  1.3961  3.3034 -0.1412
  599SOL    HW2 2697   1.967   5.233   0.603  0.3916  2.4946  0.7771
  600SOL     OW 2698   0.148   2.773   3.843 -0.4327  0.3121 -0.0359
  600SOL    HW1 2699   0.093   2.715   3.903  1.8099 -0.4780  1.3786
  600SOL    HW2 2700   0.201   2.716   3.780  0.3368  0.9101  0.0509
  601SOL     OW 2701   0.511   6.394   6.313  0.5142  0.0775  0.0662
  601SOL    HW1 2702   0.476   6.486   6.291  1.4446  0.4424  0.0733
  601SOL    HW2 2703   0.449   6.325   6.276 -0.7102  0.6979  0.8717
  602SOL     OW 2704   2.662   0.652   3.564  0.4062 -0.0627  0.3334
  602SOL    HW1 2705   2.713   0.567   3.575  0.7018  0.1620  0.8111
  602SOL    HW2 2706   2.708   0.710   3.496 -1.2912 -1.3616 -2.0517
  603SOL     OW 2707   0.838   1.649   3.976 -0.3081  0.2960  0.5657
  603SOL    HW1 2708   0.779   1.693   4.043 -1.7433 -1.2246  0.3552
  603SOL    HW2 2709   0.850   1.553   4.000 -1.2332 -0.4057 -1.5729
  604SOL     OW 2710   6.204   3.745   2.908 -0.6511 -0.4787  0.2055
  604SOL    HW1 2711   6.234   3.794   2.990  0.9264 -1.1249  0.0499
  604SOL    HW2 2712   6.150   3.806   2.851  1.9462  1.4299 -0.4116
  605SOL     OW 2713   0.288   6.819   2.871  0.5869 -0.4273  0.2146
  605SOL    HW1 2714   0.288   6.793   2.968 -1.2874  1.6928  0.8716
  605SOL    HW2 2715   0.197   6.853   2.846  1.5323  0.7655 -1.8110
  606SOL     OW 2716   2.561   6.032   4.998  0.2310 -0.5054 -0.0054
  606SOL    HW1 2717   2.566   5.970   4.919 -0.5138 -0.2314 -0.2732
  606SOL    HW2 2718   2.581   6.125   4.968 -0.2087 -0.3766  0.0971
  607SOL     OW 2719   1.369   1.807   4.995  0.1625  0.6934 -0.1094
  607SOL    HW1 2720   1.373   1.814   4.895 -1.4090  2.2693 -0.1039
  607SOL    HW2 2721   1.304   1.736   5.021 -1.3687  2.0087 -0.2430
  608SOL     OW 2722   3.283   5.686   6.381  0.1913  0.0401  0.4513
  608SOL    HW1 2723   3.267   5.666   6.284  0.1396  1.9133  0.0259
  608SOL    HW2 2724   3.287   5.601   6.433  0.5519 -1.0192 -1.2456
  609SOL     OW 2725   4.145   3.373   3.044  0.3356  0.7491 -0.7364
  609SOL    HW1 2726   4.102   3.396   3.131 -3.2300 -1.3372 -1.7786
  609SOL    HW2 2727   4.154   3.456   2.988  1.1145  1.8111  0.8730
  610SOL     OW 2728   5.037   4.921   2.485 -0.0152  0.2638  0.0446
  610SOL    HW1 2729   5.003   5.007   2.524 -1.9476 -0.5165  0.1752
  610SOL    HW2 2730   5.071   4.938   2.392 -1.9362  0.9383 -0.5960
  611SOL     OW 2731   3.473   0.112   2.893  0.3619  0.1287 -0.7262
  611SOL    HW1 2732   3.466   0.015   2.868  1.8538  0.0374 -0.8516
  611SOL    HW2 2733   3.381   0.152   2.894 -0.5108 -1.7153  1.1740
  612SOL     OW 2734   5.879   3.869   3.451  0.3800  0.6672  0.1639
  612SOL    HW1 2735   5.952   3.925   3.412  1.3742 -1.1093 -0.6136
  612SOL    HW2 2736   5.876   3.883   3.550  0.8615  1.7833  0.0374
  613SOL     OW 2737   5.940   5.673   5.673 -0.4370  0.2231 -0.2673
  613SOL    HW1 2738   5.963   5.581   5.703  0.8362  0.6542  0.1237
  613SOL    HW2 2739   5.859   5.670   5.614 -0.5458 -1.1055 -0.0600
  614SOL     OW 2740   3.637   6.107   5.720  0.2205  0.5522 -0.2235
  614SOL    HW1 2741   3.598   6.081   5.808  1.0638  0.3945  0.1166
  614SOL    HW2 2742   3.585   6.183   5.681 -0.7910 -0.0563 -0.0908
  615SOL     OW 2743   4.797   4.027   2.996  0.1510 -0.0884  0.1920
  615SOL    HW1 2744   4.820   3.966   2.920 -2.6228 -0.9929 -0.0066
  615SOL    HW2 2745   4.776   4.118   2.961  0.4285 -0.0688  0.0717
  616SOL     OW 2746   6.285   5.667   6.364 -0.7521  0.1834  0.6279
  616SOL    HW1 2747   6.219   5.735   6.332 -1.0130 -0.4208 -0.1832
  616SOL    HW2 2748   6.240   5.603   6.427 -0.5474  0.6630  1.2657
  617SOL     OW 2749   3.238   6.716   4.694 -0.1840 -0.0173  0.4117
  617SOL    HW1 2750   3.257   6.794   4.753 -1.5975  1.1188 -0.5597
  617SOL    HW2 2751   3.153   6.733   4.643 -0.0459 -1.8089 -0.4823
  618SOL     OW 2752   2.937   0.452   4.772 -0.0719 -0.1753  0.1263
  618SOL    HW1 2753   2.891   0.538   4.748 -0.2221 -0.5237 -0.8998
  618SOL    HW2 2754   3.036   0.468   4.779 -0.2731  0.4953  1.9589
  619SOL     OW 2755   1.974   3.348   5.439  0.2279  0.5494  0.1018
  619SOL    HW1 2756   1.985   3.442   5.406 -0.4130  1.2835  1.8319
  619SOL    HW2 2757   2.052   3.324   5.498  1.3303 -0.7132 -1.7616
  620SOL     OW 2758   3.601   3.009   0.724  0.1417  0.4363  0.3366
  620SOL    HW1 2759   3.588   3.077   0.797  0.1068  0.7237  0.0652
  620SOL    HW2 2760   3.517   2.956   0.712 -0.6107  1.8478 -0.9651
  621SOL     OW 2761   6.811   5.461   1.524  0.9889  0.6446 -0.0963
  621SOL    HW1 2762   6.824   5.500   1.433 -0.5806 -0.1255 -0.6878
  621SOL    HW2 2763   6.746   5.517   1.576  0.2990 -0.0133 -0.2166
  622SOL     OW 2764   6.502   1.620   6.996 -0.0643 -0.4518  0.5847
  622SOL    HW1 2765   6.594   1.618   6.957 -0.2070 -2.2344  0.2294
  622SOL    HW2 2766   6.468   1.714   6.998  1.9383  0.3101  1.1914
  623SOL     OW 2767   5.493   5.622   4.533  0.1157 -0.2668  0.4235
  623SOL    HW1 2768   5.513   5.689   4.462  0.6844  0.2083  1.0217
  623SOL    HW2 2769   5.395   5.603   4.535  0.0683 -0.1345 -0.3479
  624SOL     OW 2770   0.944   1.942   0.309  0.1998 -0.0272 -0.1400
  624SOL    HW1 2771   0.950   1.948   0.209  0.7823  1.1327 -0.0573
  624SOL    HW2 2772   1.016   1.882   0.343  1.0271  0.8399 -0.3228
  625SOL     OW 2773   0.925   6.288   2.609 -0.5168 -0.0653 -0.3425
  625SOL    HW1 2774   0.957   6.337   2.528  0.6949  1.0070  0.7341
  625SOL    HW2 2775   0.872   6.350   2.667  1.3557  0.1607  1.2301
  626SOL     OW 2776   3.167   6.921   2.770 -0.1929  0.1669  0.0845
  626SOL    HW1 2777   3.238   6.859   2.802 -1.1532 -0.2390  1.5774
  626SOL    HW2 2778   3.188   7.014   2.799 -0.1036  0.0890  0.2756
  627SOL     OW 2779   0.643   6.937   0.487 -0.3557  0.8100  0.2745
  627SOL    HW1 2780   0.571   6.874   0.459  1.0305 -0.2002 -1.2785
  627SOL    HW2 2781   0.703   6.891   0.554  1.0898  0.0936 -1.4136
  628SOL     OW 2782   6.152   5.030   1.426 -0.2980 -0.2965 -0.0088
  628SOL    HW1 2783   6.167   4.950   1.484 -0.0948 -0.1724  0.1114
  628SOL    HW2 2784   6.090   5.093   1.472  0.0622 -0.0815  0.1859
  629SOL     OW 2785   1.904   6.330   1.575  0.5127  0.1598 -0.0204
  629SOL    HW1 2786   1.982   6.274   1.546 -0.4439 -1.2425  0.0168
  629SOL    HW2 2787   1.904   6.340   1.674  0.6811  0.1901 -0.0246
  630SOL     OW 2788   2.985   1.323   1.653 -0.8221 -0.5373  0.2791
  630SOL    HW1 2789   3.027   1.295   1.740  0.2920 -1.1901 -0.4439
  630SOL    HW2 2790   2.908   1.384   1.671  0.8554  1.3094  1.6744
  631SOL     OW 2791   5.343   1.918   3.364  0.5854 -0.5149  0.4628
  631SOL    HW1 2792   5.312   2.009   3.338  0.4376 -1.1786 -2.0443
  631SOL    HW2 2793   5.263   1.857   3.372  0.8186 -1.0477 -0.8637
  632SOL     OW 2794   3.092   6.623   1.909 -0.2101  0.5354  0.0408
  632SOL    HW1 2795   3.015   6.587   1.856  0.0483  0.4077 -0.2508
  632SOL    HW2 2796   3.116   6.558   1.981 -0.7972  0.8766  0.5529
  633SOL     OW 2797   3.075   0.148   4.911 -0.1716  0.7241 -0.1812
  633SOL    HW1 2798   2.979   0.174   4.916 -0.4320  0.3997 -2.5449
  633SOL    HW2 2799   3.086   0.055   4.946 -1.0930  0.0059 -1.6976
  634SOL     OW 2800   1.384   6.642   0.267  0.0236  0.1513  0.1094
  634SOL    HW1 2801   1.287   6.643   0.292  0.4807 -1.5688  2.2390
  634SOL    HW2 2802   1.398   6.583   0.188 -0.7434  1.0004 -0.6751
  635SOL     OW 2803   3.411   1.304   2.560 -0.3420  0.2104 -0.3378
  635SOL    HW1 2804   3.392   1.265   2.470 -1.2827 -0.9885  0.3518
  635SOL    HW2 2805   3.383   1.240   2.631  1.6497  0.5455  0.8272
  636SOL     OW 2806   4.283   6.365   6.365  0.0844  0.4892  0.1051
  636SOL    HW1 2807   4.204   6.366   6.303  1.4354  1.0180 -1.7010
  636SOL    HW2 2808   4.366   6.382   6.313  1.2238  1.8343  2.2306
  637SOL     OW 2809   4.245   3.801   6.374  0.7296  0.3786 -0.2624
  637SOL    HW1 2810   4.256   3.706   6.405 -0.1118  0.9790  2.0845
  637SOL    HW2 2811   4.314   3.858   6.417  0.8520  0.9493 -1.1930
  638SOL     OW 2812   3.709   1.831   2.394  0.3747 -0.7793  0.3536
  638SOL    HW1 2813   3.716   1.863   2.299 -1.3715  0.1927  0.5088
  638SOL    HW2 2814   3.740   1.904   2.455 -0.4880 -0.6098  0.5959
  639SOL     OW 2815   4.815   3.535   1.354 -0.0516  0.3788 -0.0022
  639SOL    HW1 2816   4.755   3.615   1.355 -0.8743 -0.2017  2.2919
  639SOL    HW2 2817   4.769   3.459   1.308 -0.5374  0.3172  0.5878
  640SOL     OW 2818   3.126   3.042   6.776  0.4075 -0.3490 -0.1276
  640SOL    HW1 2819   3.193   3.026   6.704 -0.2584  1.7878 -1.3207
  640SOL    HW2 2820   3.165   3.106   6.843 -0.2631  0.6331 -0.6454
  641SOL     OW 2821   1.210   6.474   4.602 -0.0141  0.3902 -0.0924
  641SOL    HW1 2822   1.218   6.462   4.701 -0.6357 -2.5512 -0.3062
  641SOL    HW2 2823   1.123   6.437   4.571  1.1037 -0.8456 -1.9699
  642SOL     OW 2824   0.705   5.144   6.760 -0.4907  0.0969  0.6799
  642SOL    HW1 2825   0.790   5.125   6.711 -0.4436 -0.4888  0.9753
  642SOL    HW2 2826   0.705   5.239   6.792 -0.1463  0.2290  0.2969
  643SOL     OW 2827   5.033   5.630   2.791  0.5459 -0.1697  0.7202
  643SOL    HW1 2828   5.122   5.645   2.835  2.2173 -1.9493 -1.7274
  643SOL    HW2 2829   5.024   5.533   2.769 -1.3842  0.2135 -0.3789
  644SOL     OW 2830   2.374   6.703   1.650  0.1645 -0.0511  0.0149
  644SOL    HW1 2831   2.392   6.718   1.553 -0.7380  1.9459  0.1187
  644SOL    HW2 2832   2.336   6.786   1.691 -1.8963 -1.5992  1.4976
  645SOL     OW 2833   6.207   4.168   1.761  0.1080  0.1990 -0.6745
  645SOL    HW1 2834   6.166   4.217   1.684 -0.8412 -0.7187 -0.7682
  645SOL    HW2 2835   6.235   4.077   1.731 -0.1457 -0.1163  0.0275
  646SOL     OW 2836   2.095   4.140   4.847  0.3809 -0.2824  0.1510
  646SOL    HW1 2837   2.047   4.216   4.892  0.6496 -1.2106  2.1072
  646SOL    HW2 2838   2.174   4.114   4.902 -0.4930 -2.8829  0.2786
  647SOL     OW 2839   4.985   4.195   1.287 -1.1398  0.4176 -0.4426
  647SOL    HW1 2840   4.953   4.108   1.324  1.2765 -0.3399  0.0478
  647SOL    HW2 2841   5.024   4.180   1.196 -0.8582  1.0181 -0.4242
  648SOL     OW 2842   5.611   2.662   3.481  0.1400 -0.0324  0.1768
  648SOL    HW1 2843   5.621   2.737   3.547 -0.6995 -1.5955  2.1894
  648SOL    HW2 2844   5.519   2.624   3.487  0.1147 -0.3526 -1.7921
  649SOL     OW 2845   3.979   5.220   2.477  0.0487 -0.1926  0.4860
  649SOL    HW1 2846   3.899   5.266   2.515  0.5245  1.2600 -0.1570
  649SOL    HW2 2847   4.000   5.260   2.387  1.3767 -0.6800  0.5588
  650SOL     OW 2848   5.695   4.991   1.881  0.1343 -0.3945 -0.2688
  650SOL    HW1 2849   5.692   5.003   1.781  0.7524  0.6811 -0.1772
  650SOL    HW2 2850   5.627   4.923   1.908 -1.1284  0.4038 -1.2764
  651SOL     OW 2851   1.024   5.388   6.555  0.1893 -0.0752 -0.4440
  651SOL    HW1 2852   0.968   5.309   6.580 -0.9054  0.7519 -0.2593
  651SOL    HW2 2853   0.986   5.471   6.595  1.5805  0.5097 -0.2646
  652SOL     OW 2854   6.840   1.677   1.148  0.3302 -0.0394 -0.0130
  652SOL    HW1 2855   6.895   1.677   1.065 -0.7472 -0.1990 -0.7453
  652SOL    HW2 2856   6.746   1.703   1.126 -0.2991 -1.3809  0.9244
  653SOL     OW 2857   3.910   6.244   2.364  0.2409 -1.1279  0.3312
  653SOL    HW1 2858   3.993   6.190   2.370  1.1548  0.1516 -0.4408
  653SOL    HW2 2859   3.933   6.339   2.345 -1.4390 -0.8860 -0.6871
  654SOL     OW 2860   1.721   0.548   0.007 -0.3605 -0.2823 -0.5210
  654SOL    HW1 2861   1.706   0.596  -0.080 -0.6441 -0.2107 -0.4322
  654SOL    HW2 2862   1.772   0.608   0.069 -1.6788  0.3420 -0.0066
  655SOL     OW 2863   2.394   1.734   6.107  0.1819 -0.4515 -0.1473
  655SOL    HW1 2864   2.315   1.684   6.142  1.4153 -2.6062 -0.2598
  655SOL    HW2 2865   2.446   1.772   6.183  0.1539 -0.8168  0.0569
  656SOL     OW 2866   1.712   0.221   0.774 -0.2122  0.0872  0.2829
  656SOL    HW1 2867   1.639   0.203   0.708 -0.0479  0.5462 -0.0274
  656SOL    HW2 2868   1.798   0.182   0.740 -0.7797 -2.7889  1.8409
  657SOL     OW 2869   4.701   6.962   0.381  0.4407  0.1858  0.5995
  657SOL    HW1 2870   4.670   7.054   0.402 -0.7641  0.9040 -3.4016
  657SOL    HW2 2871   4.622   6.904   0.358  1.3159 -1.3069  1.1709
  658SOL     OW 2872   3.384   4.322   6.519  0.0828  0.8045  0.1419
  658SOL    HW1 2873   3.427   4.233   6.508  1.6972  1.8123 -3.2890
  658SOL    HW2 2874   3.453   4.390   6.544 -1.1131  1.2140  2.7049
  659SOL     OW 2875   4.444   0.879   5.487  0.2329 -0.2787 -0.0957
  659SOL    HW1 2876   4.376   0.812   5.458 -1.6846  1.0876  1.0481
  659SOL    HW2 2877   4.486   0.921   5.407 -2.0766  0.5949 -0.9201
  660SOL     OW 2878   3.967   4.834   2.863  0.1285 -0.1806  0.1687
  660SOL    HW1 2879   3.970   4.821   2.764 -2.3382 -1.3085  0.1720
  660SOL    HW2 2880   4.046   4.789   2.905  0.6970 -0.5146 -1.1889
  661SOL     OW 2881   5.595   4.149   4.839 -0.2350  0.6378  0.0109
  661SOL    HW1 2882   5.507   4.112   4.867 -1.4750  3.7308  0.5902
  661SOL    HW2 2883   5.664   4.126   4.907 -0.6304 -1.4786 -0.2478
  662SOL     OW 2884   4.906   1.006   2.843 -0.5831  0.5188  0.7960
  662SOL    HW1 2885   4.823   0.950   2.844 -0.3456  0.0555 -1.4241
  662SOL    HW2 2886   4.890   1.090   2.790  1.0956 -0.9197 -2.2408
  663SOL     OW 2887   0.378   4.439   4.678  0.5968 -0.7959  0.3583
  663SOL    HW1 2888   0.405   4.534   4.695  0.4104 -0.7866  0.6095
  663SOL    HW2 2889   0.368   4.425   4.579  0.0083 -0.3783  0.3472
  664SOL     OW 2890   6.328   2.331   6.201 -0.4390  0.4217  0.2760
  664SOL    HW1 2891   6.276   2.413   6.179  1.1394  1.4443  0.1954
  664SOL    HW2 2892   6.373   2.297   6.118 -1.7739 -1.0900  0.1048
  665SOL     OW 2893   1.746   2.784   1.960 -0.2005  0.2747 -0.2725
  665SOL    HW1 2894   1.697   2.699   1.978 -1.1898  0.7940 -0.4279
  665SOL    HW2 2895   1.680   2.858   1.945  0.6385  1.0227 -0.3713
  666SOL     OW 2896   3.954   1.285   2.234  0.6910 -0.3789  0.0271
  666SOL    HW1 2897   3.901   1.265   2.151  0.7272 -1.5682  0.2656
  666SOL    HW2 2898   3.960   1.384   2.247 -1.1669 -0.1994 -0.2100
  667SOL     OW 2899   1.226   6.475   1.842  0.1403  0.3412 -0.0337
  667SOL    HW1 2900   1.292   6.428   1.901 -0.3311 -0.6611 -0.2851
  667SOL    HW2 2901   1.134   6.467   1.880 -0.1864 -0.4277 -0.9488
  668SOL     OW 2902   3.922   2.795   0.843  0.2369  0.8428  0.1563
  668SOL    HW1 2903   3.986   2.825   0.772 -0.3751 -0.7081 -1.1004
  668SOL    HW2 2904   3.927   2.858   0.921  2.6764  1.2280 -0.2354
  669SOL     OW 2905   5.701   1.835   4.143 -0.7599 -0.3022  0.3763
  669SOL    HW1 2906   5.694   1.899   4.066 -1.0450 -0.3185  0.3902
  669SOL    HW2 2907   5.754   1.755   4.115 -1.7079 -0.7790 -0.1125
  670SOL     OW 2908   2.493   1.837   3.347 -0.2927  0.5058  0.0606
  670SOL    HW1 2909   2.429   1.790   3.286  1.0149 -0.6025 -0.5014
  670SOL    HW2 2910   2.558   1.891   3.294  0.2758  0.2805  0.5094
  671SOL     OW 2911   2.623   5.180   1.821 -1.2312  0.3020 -0.1403
  671SOL    HW1 2912   2.590   5.213   1.732 -1.9943 -1.0532 -0.4068
  671SOL    HW2 2913   2.573   5.096   1.844  1.8539 -1.7744 -0.4416
  672SOL     OW 2914   5.598   0.431   0.925  0.0109  0.7981  0.3052
  672SOL    HW1 2915   5.600   0.489   0.843 -1.5008 -0.0497 -0.3795
  672SOL    HW2 2916   5.626   0.485   1.004  0.6973  1.8686 -0.6237
  673SOL     OW 2917   6.170   0.200   1.826  0.2601 -0.1041  0.4344
  673SOL    HW1 2918   6.249   0.139   1.832 -0.1857 -0.8430 -0.8013
  673SOL    HW2 2919   6.188   0.283   1.878  1.5943 -0.5329  0.6934
  674SOL     OW 2920   5.643   0.260   3.254  0.6357 -0.0375 -0.4092
  674SOL    HW1 2921   5.575   0.321   3.214  1.1345  0.3736 -0.6474
  674SOL    HW2 2922   5.614   0.232   3.345 -0.3671 -0.7303 -0.9325
  675SOL     OW 2923   0.698   5.706   1.363 -0.4729  0.1627 -0.0124
  675SOL    HW1 2924   0.622   5.758   1.400 -1.8018 -1.3888 -0.4658
  675SOL    HW2 2925   0.738   5.756   1.286 -0.7715  1.1754  0.4822
  676SOL     OW 2926   1.441   6.538   5.584 -0.5727  0.7096 -0.1744
  676SOL    HW1 2927   1.362   6.489   5.547  0.3467 -0.2519 -0.9222
  676SOL    HW2 2928   1.456   6.509   5.679  1.0003 -1.8985 -1.1135
  677SOL     OW 2929   6.612   0.173   1.886  0.1312  0.5437 -0.1082
  677SOL    HW1 2930   6.671   0.248   1.914  0.0583  0.8987 -0.8717
  677SOL    HW2 2931   6.602   0.108   1.961  0.1310  1.3339  0.5896
  678SOL     OW 2932   3.320   5.540   5.988  0.6136  0.8548  0.1974
  678SOL    HW1 2933   3.390   5.489   5.938  0.6253  0.8270  0.2415
  678SOL    HW2 2934   3.279   5.608   5.927  1.2340  1.4176  0.3916
  679SOL     OW 2935   5.977   0.947   4.128  0.1910 -0.4988 -0.0303
  679SOL    HW1 2936   5.959   1.002   4.046  0.7219 -0.3195 -0.0300
  679SOL    HW2 2937   5.994   0.852   4.100  0.4387 -0.4243 -0.1345
  680SOL     OW 2938   1.809   6.280   2.703  0.6818  0.1919  0.5289
  680SOL    HW1 2939   1.716   6.315   2.696  0.8995  0.4826 -1.5206
  680SOL    HW2 2940   1.848   6.269   2.612  1.9256 -1.9614  1.2303
  681SOL     OW 2941   4.089   4.799   4.462 -0.1897 -0.3909  0.2400
  681SOL    HW1 2942   4.060   4.876   4.519  0.8004 -0.2049  0.5092
  681SOL    HW2 2943   4.024   4.723   4.474 -0.9007  0.2232  0.3430
  682SOL     OW 2944   5.594   1.866   1.994  0.3863 -0.1155 -0.4993
  682SOL    HW1 2945   5.650   1.880   1.912 -0.3890 -1.5622 -1.3068
  682SOL    HW2 2946   5.652   1.873   2.075  1.9327 -2.2803 -1.3151
  683SOL     OW 2947   0.922   5.029   0.893  0.2459  0.0140 -0.1503
  683SOL    HW1 2948   0.865   5.107   0.868  1.1901  0.3149 -1.5147
  683SOL    HW2 2949   1.010   5.062   0.927  0.5580 -0.4377 -0.4937
  684SOL     OW 2950   6.806   1.240   4.650  0.0994 -0.5388  0.1406
  684SOL    HW1 2951   6.865   1.159   4.650  0.3880 -0.3329 -0.5563
  684SOL    HW2 2952   6.826   1.296   4.570  0.7540  0.8572  1.2323
  685SOL     OW 2953   3.427   5.630   2.827 -0.8252 -0.1161 -0.5313
  685SOL    HW1 2954   3.329   5.623   2.848 -0.8188 -1.5039 -0.8307
  685SOL    HW2 2955   3.450   5.564   2.755  0.2977  0.3219 -0.5868
  686SOL     OW 2956   4.961   0.870   5.099 -0.2912 -0.2197 -0.4015
  686SOL    HW1 2957   5.001   0.806   5.033 -0.2753  0.9939 -1.6361
  686SOL    HW2 2958   5.016   0.954   5.101 -1.4143  0.5368 -0.3267
  687SOL     OW 2959   0.596   2.487   2.437  0.0576 -0.6237 -0.4283
  687SOL    HW1 2960   0.670   2.423   2.455 -0.2046 -0.9982 -0.6674
  687SOL    HW2 2961   0.624   2.551   2.365  0.4211 -0.2912  0.0034
  688SOL     OW 2962   5.593   2.905   1.172 -0.1838  0.1110  0.2316
  688SOL    HW1 2963   5.585   2.999   1.206 -0.7322  0.3148 -0.4459
  688SOL    HW2 2964   5.669   2.900   1.107 -1.7140  0.7009 -1.6943
  689SOL     OW 2965   0.931   5.117   7.006  0.1493  1.0299  0.1955
  689SOL    HW1 2966   0.920   5.201   7.060 -2.1939  0.6402  0.4274
  689SOL    HW2 2967   0.899   5.133   6.913 -0.4665  0.3755  0.2863
  690SOL     OW 2968   5.580   3.514   2.744  0.1249  0.3405 -0.5108
  690SOL    HW1 2969   5.654   3.466   2.790  1.3293  2.4958 -0.0625
  690SOL    HW2 2970   5.493   3.492   2.788  0.6414 -1.2359 -0.2226
  691SOL     OW 2971   4.876   1.370   2.409 -0.2428  0.4787 -0.4656
  691SOL    HW1 2972   4.781   1.359   2.379 -0.6376 -0.2570  0.9625
  691SOL    HW2 2973   4.887   1.457   2.456 -0.8478 -0.4537  1.5059
  692SOL     OW 2974   1.210   1.468   5.372 -0.2759 -0.1063  0.0640
  692SOL    HW1 2975   1.308   1.484   5.376 -0.6040  1.9725  1.5291
  692SOL    HW2 2976   1.171   1.476   5.464 -1.9273  0.1471 -0.6209
  693SOL     OW 2977   6.467   5.923   3.901  0.6012  0.3757  0.2405
  693SOL    HW1 2978   6.420   5.834   3.899 -1.6400  1.4938  0.0060
  693SOL    HW2 2979   6.533   5.927   3.826  2.1644 -1.7563  1.3856
  694SOL     OW 2980   4.506   5.494   5.088 -0.2729  0.0581  0.0570
  694SOL    HW1 2981   4.493   5.536   5.178  0.6064  0.1289  0.1596
  694SOL    HW2 2982   4.542   5.402   5.099  1.5720  0.6974 -0.2291
  695SOL     OW 2983   5.118   1.054   3.443  0.4083  0.3325  0.2628
  695SOL    HW1 2984   5.131   0.997   3.524  1.8465 -2.6443 -1.8878
  695SOL    HW2 2985   5.058   1.131   3.466  0.4870 -0.5249  4.0025
  696SOL     OW 2986   6.531   3.703   3.808 -0.3172 -0.1796  0.0113
  696SOL    HW1 2987   6.580   3.619   3.833  0.4471  0.0216 -0.7439
  696SOL    HW2 2988   6.435   3.695   3.835  0.1928 -0.4247  1.9059
  697SOL     OW 2989   1.161   5.697   5.067 -0.2842  0.6785 -0.3411
  697SOL    HW1 2990   1.085   5.742   5.115  0.4160  1.1931  0.3013
  697SOL    HW2 2991   1.175   5.606   5.106  0.4149  1.1731  0.5989
  698SOL     OW 2992   5.885   6.259   5.538 -0.2699  0.1230  0.1735
  698SOL    HW1 2993   5.842   6.245   5.627 -0.8605 -0.0621 -0.1362
  698SOL    HW2 2994   5.819   6.300   5.475 -0.5573 -1.7316 -0.8120
  699SOL     OW 2995   3.620   4.709   6.677 -0.0532 -0.9700 -0.5875
  699SOL    HW1 2996   3.526   4.702   6.644 -1.1745  0.2332  2.0315
  699SOL    HW2 2997   3.658   4.618   6.691 -1.4562 -1.5062 -0.1267
  700SOL     OW 2998   3.242   1.437   4.025 -0.1913 -0.3890 -0.5251
  700SOL    HW1 2999   3.201   1.515   3.978 -1.3820 -1.3264 -1.1074
  700SOL    HW2 3000   3.230   1.447   4.124 -0.4726  0.0849 -0.6060
  701SOL     OW 3001   4.043   6.546   0.194 -0.3113  0.2848  0.2068
  701SOL    HW1 3002   3.951   6.584   0.201 -0.1986  0.5034  0.5388
  701SOL    HW2 3003   4.100   6.583   0.267 -0.0851 -0.2152  0.2863
  702SOL     OW 3004   3.762   5.787   1.401  0.1744 -0.5302  0.2094
  702SOL    HW1 3005   3.699   5.858   1.371  1.7427  0.4848 -0.7708
  702SOL    HW2 3006   3.711   5.702   1.416 -1.4534  0.3255 -0.2632
  703SOL     OW 3007   3.254   3.672   5.807  0.3742 -0.0169  0.1116
  703SOL    HW1 3008   3.306   3.755   5.828 -0.4040  0.8454 -1.2324
  703SOL    HW2 3009   3.297   3.623   5.731  0.4106 -0.4510  0.4073
  704SOL     OW 3010   4.193   6.676   5.497  0.4312  0.3737 -0.0933
  704SOL    HW1 3011   4.117   6.719   5.548 -0.2327  0.4755 -1.1384
  704SOL    HW2 3012   4.156   6.612   5.430  1.4185 -3.0268  2.3595
  705SOL     OW 3013   0.158   0.105   6.168  0.2738 -0.5193 -0.2067
  705SOL    HW1 3014   0.108   0.035   6.118 -2.3119  2.6371 -2.4406
  705SOL    HW2 3015   0.101   0.142   6.241  1.0820  0.1648  0.1026
  706SOL     OW 3016   5.655   1.152   5.988 -0.0125  0.2496  0.0536
  706SOL    HW1 3017   5.581   1.089   6.012  0.1615 -0.3217 -0.8432
  706SOL    HW2 3018   5.724   1.152   6.060 -0.0422 -0.5475  0.0959
  707SOL     OW 3019   2.438   6.324   3.668  0.6650  0.0770  0.1494
  707SOL    HW1 3020   2.535   6.334   3.646  0.8372  2.2104  1.5661
  707SOL    HW2 3021   2.395   6.262   3.603  2.4026  1.1832 -2.1756
  708SOL     OW 3022   3.432   5.512   2.579 -0.5986 -0.9566 -0.7714
  708SOL    HW1 3023   3.382   5.454   2.515 -0.4113 -0.5499 -1.3021
  708SOL    HW2 3024   3.514   5.548   2.533 -0.4545 -0.6728 -0.2939
  709SOL     OW 3025   1.816   0.955   2.362  0.2296 -0.1990 -0.1721
  709SOL    HW1 3026   1.872   1.003   2.293 -0.6796  0.6058 -0.3691
  709SOL    HW2 3027   1.873   0.933   2.441  0.4494  2.3330  0.4634
  710SOL     OW 3028   0.287   5.027   2.681 -0.6223 -0.1001  0.2826
  710SOL    HW1 3029   0.287   4.943   2.627 -0.0532  0.4792 -0.6528
  710SOL    HW2 3030   0.265   5.105   2.622  2.3970  0.8913  0.2759
  711SOL     OW 3031   1.868   0.584   2.272  0.3519  0.1198  0.1804
  711SOL    HW1 3032   1.840   0.562   2.365 -0.9277 -2.0626 -0.6455
  711SOL    HW2 3033   1.918   0.506   2.233  1.8305  1.4079 -0.6278
  712SOL     OW 3034   5.390   3.408   5.912 -0.0037  0.0780 -0.4916
  712SOL    HW1 3035   5.353   3.390   6.004 -0.2608  0.6554 -0.4729
  712SOL    HW2 3036   5.486   3.380   5.908 -0.1804 -0.5900 -0.2577
  713SOL     OW 3037   4.688   2.420   5.672  0.4609  0.0515  0.3670
  713SOL    HW1 3038   4.660   2.324   5.685 -0.9979  0.4638  0.5064
  713SOL    HW2 3039   4.771   2.438   5.725  0.2327 -0.9072  1.0894
  714SOL     OW 3040   4.808   1.205   3.717 -0.1105 -0.1902 -0.2536
  714SOL    HW1 3041   4.781   1.301   3.711  1.1632  0.2325  0.3427
  714SOL    HW2 3042   4.803   1.175   3.813  0.1702 -0.5096 -0.3356
  715SOL     OW 3043   5.879   5.229   5.001 -0.0267 -0.8139  0.6836
  715SOL    HW1 3044   5.976   5.238   5.023  0.1422 -1.4147  0.2069
  715SOL    HW2 3045   5.848   5.311   4.952  0.6587 -1.3345 -0.6529
  716SOL     OW 3046   4.257   2.283   2.827  0.2352 -0.9468 -0.7763
  716SOL    HW1 3047   4.303   2.363   2.788  0.5601 -1.0916 -0.6950
  716SOL    HW2 3048   4.292   2.200   2.784 -0.6942 -1.0020 -1.4573
  717SOL     OW 3049   5.823   5.292   3.113  0.0104 -0.0981 -0.0435
  717SOL    HW1 3050   5.814   5.391   3.104  0.0742 -0.0826  0.0636
  717SOL    HW2 3051   5.810   5.249   3.024 -0.9676 -0.0686  0.0782
  718SOL     OW 3052   6.061   2.129   5.448  0.7198 -0.0052 -0.3680
  718SOL    HW1 3053   6.061   2.146   5.546  1.9726 -0.3368 -0.3013
  718SOL    HW2 3054   6.097   2.210   5.401  0.3822  0.0469 -0.5414
  719SOL     OW 3055   3.804   5.837   3.672  0.2345  0.0986 -0.0315
  719SOL    HW1 3056   3.761   5.758   3.716 -0.8109  1.1254  0.8570
  719SOL    HW2 3057   3.744   5.874   3.602  0.3595  0.5775  0.1054
  720SOL     OW 3058   3.219   0.513   6.887  0.0640  0.0515 -0.2460
  720SOL    HW1 3059   3.237   0.434   6.946  0.1921  0.9108  0.8911
  720SOL    HW2 3060   3.300   0.571   6.884 -0.0144  0.1334 -1.1183
  721SOL     OW 3061   0.207   4.427   1.638 -0.0107  0.5150  0.8056
  721SOL    HW1 3062   0.272   4.351   1.637 -0.9866 -0.3255 -0.8456
  721SOL    HW2 3063   0.172   4.439   1.731  1.8053  0.4285  1.5562
  722SOL     OW 3064   5.275   6.388   1.822  0.1068 -1.0139  0.5755
  722SOL    HW1 3065   5.362   6.371   1.868  0.8189 -1.9411 -1.0106
  722SOL    HW2 3066   5.245   6.304   1.775  0.1523  0.1855 -1.7657
  723SOL     OW 3067   2.610   6.685   2.267 -0.3868  0.0382  0.1997
  723SOL    HW1 3068   2.529   6.732   2.230 -0.5806 -0.1703  0.3598
  723SOL    HW2 3069   2.583   6.627   2.344  0.0728  0.7889  0.9517
  724SOL     OW 3070   5.975   2.408   3.728  0.0879 -0.0483 -0.3385
  724SOL    HW1 3071   5.971   2.309   3.721 -1.0231 -0.3449  2.7718
  724SOL    HW2 3072   6.071   2.438   3.721  0.5016 -1.3916 -0.6764
  725SOL     OW 3073   6.502   3.500   2.056  0.1733 -0.0863 -0.5828
  725SOL    HW1 3074   6.445   3.582   2.056 -1.1012 -0.9536 -0.9097
  725SOL    HW2 3075   6.598   3.526   2.043 -0.0521  1.4455  0.5561
  726SOL     OW 3076   2.452   5.913   6.328  0.5692  0.2228 -0.0515
  726SOL    HW1 3077   2.548   5.887   6.340  0.6167  0.7530  0.8272
  726SOL    HW2 3078   2.447   5.993   6.269  1.0834  2.8728  3.1841
  727SOL     OW 3079   2.082   5.661   4.085  0.7305  0.4975 -0.0178
  727SOL    HW1 3080   2.031   5.719   4.148 -1.2443  0.7652 -1.7614
  727SOL    HW2 3081   2.180   5.676   4.098  0.3995  0.8109  2.6680
  728SOL     OW 3082   6.822   3.041   5.467 -0.5819 -0.6885 -0.4802
  728SOL    HW1 3083   6.867   3.002   5.387  3.0105 -0.1475  1.0830
  728SOL    HW2 3084   6.775   3.125   5.440  1.2473 -0.0474 -1.9511
  729SOL     OW 3085   6.977   5.535   1.255  0.1252 -0.3742 -0.4551
  729SOL    HW1 3086   7.039   5.465   1.219  1.6210  1.2675 -1.2491
  729SOL    HW2 3087   6.886   5.521   1.218  0.0024 -2.7278  0.5593
  730SOL     OW 3088   5.701   1.827   2.484 -0.3932 -0.6086 -0.0441
  730SOL    HW1 3089   5.775   1.892   2.502 -1.2354  1.1108 -2.3244
  730SOL    HW2 3090   5.620   1.852   2.537  0.3064 -1.9498  1.7492
  731SOL     OW 3091   5.169   4.421   5.208 -0.1235 -0.0874  0.4029
  731SOL    HW1 3092   5.118   4.406   5.293 -2.2140  0.6864 -0.6370
  731SOL    HW2 3093   5.178   4.519   5.192  1.2406 -0.2191  0.2659
  732SOL     OW 3094   5.042   0.716   4.328 -0.3503  0.4561 -0.2550
  732SOL    HW1 3095   5.117   0.743   4.389 -1.1567  1.8525  0.1862
  732SOL    HW2 3096   5.075   0.708   4.235  0.0958  2.6362 -0.3458
  733SOL     OW 3097   6.766   4.957   2.626  0.1471 -0.4811 -0.0890
  733SOL    HW1 3098   6.865   4.966   2.611  0.3967 -1.4246  0.8626
  733SOL    HW2 3099   6.747   4.973   2.723 -0.7008  0.1117 -0.3472
  734SOL     OW 3100   5.202   1.140   2.521 -0.0227  0.9589 -0.2532
  734SOL    HW1 3101   5.218   1.208   2.449 -0.8403 -0.0734 -1.4531
  734SOL    HW2 3102   5.284   1.131   2.577 -0.0783  3.3454  0.3245
  735SOL     OW 3103   4.348   0.394   2.851 -0.6571 -0.0639  0.0595
  735SOL    HW1 3104   4.357   0.315   2.790  0.0181 -0.4307  0.6155
  735SOL    HW2 3105   4.315   0.473   2.800  0.2242 -0.2776 -0.8547
  736SOL     OW 3106   2.907   1.862   1.375 -0.0561 -0.3037  0.5651
  736SOL    HW1 3107   2.865   1.953   1.379  0.8642  0.0768  2.5395
  736SOL    HW2 3108   2.887   1.812   1.459  0.6050 -1.4032  0.0885
  737SOL     OW 3109   3.229   2.891   6.017  0.1058  0.0445 -0.0037
  737SOL    HW1 3110   3.140   2.859   5.987 -0.3958  0.0271  1.4397
  737SOL    HW2 3111   3.279   2.815   6.060 -0.0530  0.5543  1.1089
  738SOL     OW 3112   2.199   5.148   6.618 -0.1410  0.4003  0.7838
  738SOL    HW1 3113   2.258   5.092   6.559  0.8739  0.0846  2.0754
  738SOL    HW2 3114   2.250   5.227   6.651 -1.5171  2.1155 -0.9166
  739SOL     OW 3115   3.452   6.058   4.638 -0.1105 -0.1363  0.2489
  739SOL    HW1 3116   3.489   6.104   4.557  0.0431 -1.2184 -0.3165
  739SOL    HW2 3117   3.353   6.067   4.638 -0.0125  1.2129  0.7989
  740SOL     OW 3118   6.596   3.351   2.415  0.0497  0.1725  0.3417
  740SOL    HW1 3119   6.672   3.402   2.456  0.4379 -0.8968  0.9937
  740SOL    HW2 3120   6.623   3.315   2.327  0.6363 -0.9774  0.9733
  741SOL     OW 3121   3.092   1.779   1.164  0.3105 -0.2599  0.3202
  741SOL    HW1 3122   3.042   1.808   1.246  0.1691 -1.6222  0.7389
  741SOL    HW2 3123   3.027   1.760   1.091  0.4800  1.6853 -0.3804
  742SOL     OW 3124   2.133   5.974   1.306 -0.3998  0.1353 -0.4263
  742SOL    HW1 3125   2.190   5.896   1.281 -1.5859 -0.8684 -0.0598
  742SOL    HW2 3126   2.046   5.942   1.342  0.3608  1.4760  3.0222
  743SOL     OW 3127   4.851   5.467   2.043  0.1322  0.2626  0.4178
  743SOL    HW1 3128   4.878   5.460   1.946 -2.8098 -0.9839 -0.4361
  743SOL    HW2 3129   4.805   5.382   2.070 -1.0753  1.4500  2.2563
  744SOL     OW 3130   3.201   0.372   2.994 -0.0030  0.5271  0.1339
  744SOL    HW1 3131   3.177   0.288   3.042 -0.5000  0.2862 -0.5198
  744SOL    HW2 3132   3.145   0.447   3.029 -1.5218  0.0366 -1.1445
  745SOL     OW 3133   3.739   0.177   3.864  0.0451  0.3184 -0.4131
  745SOL    HW1 3134   3.640   0.176   3.846 -0.1093  0.4200  0.3890
  745SOL    HW2 3135   3.788   0.139   3.785 -0.6862 -0.5063 -0.4830
  746SOL     OW 3136   1.049   4.270   3.765 -0.2273 -0.0910  0.2606
  746SOL    HW1 3137   0.969   4.315   3.725 -0.3614 -0.6642 -0.1228
  746SOL    HW2 3138   1.079   4.195   3.706  0.4261 -0.0587  0.5404
  747SOL     OW 3139   4.929   5.363   1.745  0.3842 -0.7167 -0.1826
  747SOL    HW1 3140   4.857   5.296   1.761 -1.5757  1.3787  0.3559
  747SOL    HW2 3141   4.914   5.408   1.657  1.4760 -0.7276 -0.3927
  748SOL     OW 3142   0.828   4.976   1.143  0.3765  0.3598  0.0521
  748SOL    HW1 3143   0.873   5.048   1.196 -0.1189  1.5710 -1.0963
  748SOL    HW2 3144   0.844   4.992   1.045 -1.7154  0.3044 -0.3514
  749SOL     OW 3145   3.745   5.172   6.962  0.1671  0.0171 -0.2150
  749SOL    HW1 3146   3.768   5.152   7.057  0.4754 -1.4366 -0.5826
  749SOL    HW2 3147   3.737   5.087   6.911  1.1668  0.8166 -1.7672
  750SOL     OW 3148   1.731   2.278   4.002  0.0865  0.1357  0.1900
  750SOL    HW1 3149   1.722   2.375   4.021  0.2995  0.4770 -1.3449
  750SOL    HW2 3150   1.810   2.242   4.052 -0.1290  0.6813  0.9480
  751SOL     OW 3151   2.098   0.272   0.259  0.3837  0.8076  0.1058
  751SOL    HW1 3152   2.103   0.255   0.161 -0.0390  0.8613  0.0723
  751SOL    HW2 3153   2.072   0.367   0.275 -2.2121  0.1480  0.2213
  752SOL     OW 3154   3.379   2.644   5.270 -0.0415 -0.4445 -0.2295
  752SOL    HW1 3155   3.468   2.601   5.285 -0.0944 -0.5226 -0.1320
  752SOL    HW2 3156   3.309   2.573   5.261 -0.2104 -0.3785  0.4379
  753SOL     OW 3157   3.079   3.884   2.782 -0.0661 -0.0743 -0.1841
  753SOL    HW1 3158   3.056   3.805   2.725 -1.0291  0.5071 -0.6242
  753SOL    HW2 3159   3.134   3.948   2.728  0.8917 -0.5189  0.2361
  754SOL     OW 3160   3.689   1.546   5.047  0.0221  0.1579 -0.3510
  754SOL    HW1 3161   3.727   1.510   4.962  0.0106  0.2552 -0.3958
  754SOL    HW2 3162   3.725   1.492   5.124 -1.0408 -0.8285 -0.5157
  755SOL     OW 3163   5.268   5.199   5.389  0.4631 -0.2025 -0.3253
  755SOL    HW1 3164   5.300   5.169   5.299  0.0411  1.2595 -0.9852
  755SOL    HW2 3165   5.338   5.178   5.457  1.7380  0.6142 -1.3367
  756SOL     OW 3166   4.041   6.764   4.839  0.1202  0.1566 -0.2591
  756SOL    HW1 3167   4.099   6.843   4.820 -0.6195  0.7712 -0.0155
  756SOL    HW2 3168   4.033   6.753   4.939  0.6174 -0.5277 -0.2893
  757SOL     OW 3169   0.312   6.321   6.897 -0.0923  0.0028  0.2302
  757SOL    HW1 3170   0.347   6.371   6.818  0.4057 -0.1452  0.3580
  757SOL    HW2 3171   0.213   6.310   6.888 -0.0530  0.0876 -0.3155
  758SOL     OW 3172   6.032   1.533   3.814  0.1154  0.4770  0.3074
  758SOL    HW1 3173   6.009   1.625   3.845  1.0331  0.4436  1.1481
  758SOL    HW2 3174   6.127   1.530   3.783  0.3841 -0.3652  1.1351
  759SOL     OW 3175   1.253   3.983   3.179 -0.4346 -0.2625 -0.1703
  759SOL    HW1 3176   1.262   4.068   3.128 -1.1892  1.5232  2.4552
  759SOL    HW2 3177   1.157   3.957   3.185 -0.1690 -1.6883 -1.4363
  760SOL     OW 3178   5.498   5.851   4.688  0.5916  0.0558  0.2508
  760SOL    HW1 3179   5.539   5.767   4.652 -0.8891 -1.0758  1.1056
  760SOL    HW2 3180   5.563   5.895   4.751  0.0664 -2.4978  2.7550
  761SOL     OW 3181   4.061   6.582   4.656 -0.2289  0.4744  0.2030
  761SOL    HW1 3182   4.048   6.630   4.743  1.2670 -0.9184  1.2436
  761SOL    HW2 3183   4.155   6.595   4.624 -0.6449  0.6262 -1.0151
  762SOL     OW 3184   2.561   4.952   3.935  0.0783 -0.4245 -0.1752
  762SOL    HW1 3185   2.612   5.009   3.872  0.2092 -2.8134 -2.4045
  762SOL    HW2 3186   2.466   4.985   3.941  0.3279  0.4417 -0.8291
  763SOL     OW 3187   5.823   0.372   6.638  0.1139  0.9719 -0.0642
  763SOL    HW1 3188   5.860   0.465   6.638 -0.1762  1.1102 -1.1984
  763SOL    HW2 3189   5.838   0.331   6.548  0.9799 -0.3923  0.6751
  764SOL     OW 3190   4.716   5.006   5.009  0.6562  0.0809  0.4701
  764SOL    HW1 3191   4.765   5.020   4.923 -1.3752  1.2164 -0.5882
  764SOL    HW2 3192   4.658   4.925   5.002  1.7154 -0.7970  1.4245
  765SOL     OW 3193   5.439   6.992   0.727 -0.1394 -0.0578 -0.4282
  765SOL    HW1 3194   5.485   7.079   0.747  0.0327 -0.3409  0.4163
  765SOL    HW2 3195   5.376   6.970   0.801 -0.9381 -0.1667 -1.1119
  766SOL     OW 3196   2.161   3.126   3.320  0.1506  0.0259 -0.0678
  766SOL    HW1 3197   2.222   3.050   3.345 -0.0649  0.3638  1.6352
  766SOL    HW2 3198   2.084   3.128   3.384 -1.9108 -0.6378 -2.3950
  767SOL     OW 3199   1.814   0.320   4.453 -0.3234  0.6889  0.8851
  767SOL    HW1 3200   1.902   0.306   4.409 -0.7656 -1.1192  0.4907
  767SOL    HW2 3201   1.828   0.364   4.542  0.8565  1.3832  0.3793
  768SOL     OW 3202   3.159   5.370   2.221 -0.4233 -0.2256 -0.0450
  768SOL    HW1 3203   3.254   5.341   2.208 -0.6148 -0.7695 -0.2912
  768SOL    HW2 3204   3.156   5.468   2.241  0.0915  0.1145 -1.5100
  769SOL     OW 3205   1.707   0.647   6.729  1.1418 -0.0636  0.1845
  769SOL    HW1 3206   1.667   0.595   6.653  3.2287 -1.3064 -0.1486
  769SOL    HW2 3207   1.807   0.637   6.727  1.4304  1.9404  1.6424
  770SOL     OW 3208   2.566   3.982   6.324  0.6630 -0.2562  0.0049
  770SOL    HW1 3209   2.537   3.890   6.300  2.6701 -0.3764 -2.3052
  770SOL    HW2 3210   2.513   4.049   6.271  1.1966 -0.2287 -0.4939
  771SOL     OW 3211   2.068   4.791   4.647 -0.0261 -0.5943  0.1606
  771SOL    HW1 3212   1.979   4.747   4.661  0.0809 -0.3938  1.5588
  771SOL    HW2 3213   2.111   4.754   4.565 -1.3140 -0.8254 -0.4359
  772SOL     OW 3214   6.340   5.983   0.545 -0.6184  0.1213 -0.2209
  772SOL    HW1 3215   6.295   6.071   0.531 -0.8894 -0.2069 -1.4906
  772SOL    HW2 3216   6.271   5.912   0.560 -0.4118  0.0701  0.5103
  773SOL     OW 3217   2.890   4.783   3.863 -0.1592 -0.2260  0.3542
  773SOL    HW1 3218   2.963   4.836   3.819 -0.9790 -0.0084 -0.7839
  773SOL    HW2 3219   2.911   4.773   3.961  0.1476  1.9892  0.5726
  774SOL     OW 3220   2.408   2.639   3.763 -0.2959 -0.0591  0.4620
  774SOL    HW1 3221   2.385   2.550   3.802 -0.5865  0.5428  1.7035
  774SOL    HW2 3222   2.361   2.711   3.813  0.5209  0.8597 -0.0448
  775SOL     OW 3223   0.676   3.601   3.028  0.1618  0.0148  0.2213
  775SOL    HW1 3224   0.653   3.548   3.110 -2.0858 -2.0431 -1.5874
  775SOL    HW2 3225   0.692   3.696   3.053 -0.3576 -0.5602  3.0466
  776SOL     OW 3226   2.736   4.730   5.696  0.2029  0.8803 -0.3100
  776SOL    HW1 3227   2.828   4.705   5.667  0.5830  1.5286  0.3090
  776SOL    HW2 3228   2.740   4.781   5.781 -0.6976  1.3622 -0.5362
  777SOL     OW 3229   2.796   3.717   5.727  0.3786 -0.0511  0.4663
  777SOL    HW1 3230   2.740   3.635   5.715  0.8658 -0.6182  1.9349
  777SOL    HW2 3231   2.782   3.778   5.649 -2.6627  0.0636  1.0083
  778SOL     OW 3232   3.271   4.137   0.103 -0.2521  0.1918 -0.4658
  778SOL    HW1 3233   3.364   4.161   0.077 -0.2890  0.8999  0.0248
  778SOL    HW2 3234   3.259   4.038   0.099  1.6022 -0.3132  2.9530
  779SOL     OW 3235   6.364   1.160   2.872 -0.7836 -0.3882 -0.4813
  779SOL    HW1 3236   6.292   1.124   2.813  0.0168 -3.5761  0.3010
  779SOL    HW2 3237   6.453   1.131   2.836 -0.2089 -1.1563  1.4467
  780SOL     OW 3238   6.776   0.861   4.513 -1.0845  0.7095  0.4422
  780SOL    HW1 3239   6.815   0.935   4.458 -1.6405  1.3917  0.9487
  780SOL    HW2 3240   6.724   0.900   4.589  0.9046 -0.1803  2.3797
  781SOL     OW 3241   1.647   5.267   6.215  0.5022  0.0119 -0.3652
  781SOL    HW1 3242   1.637   5.352   6.164 -0.2495 -0.2049 -0.5967
  781SOL    HW2 3243   1.588   5.197   6.175 -0.1797 -0.1380  0.8478
  782SOL     OW 3244   3.102   4.114   4.958  0.0765  0.8395  0.1902
  782SOL    HW1 3245   3.175   4.130   4.892 -0.0886  0.1334 -0.1789
  782SOL    HW2 3246   3.019   4.160   4.927 -0.8285 -1.8100 -1.6698
  783SOL     OW 3247   6.929   6.209   5.671 -0.4150  0.1731  0.2715
  783SOL    HW1 3248   6.953   6.124   5.717  0.4875 -0.0648 -0.5872
  783SOL    HW2 3249   6.859   6.191   5.602  0.0733  0.0277 -0.1979
  784SOL     OW 3250   2.499   5.200   7.010  0.2866 -0.1314 -0.4875
  784SOL    HW1 3251   2.549   5.205   7.096  1.5721 -0.5109 -1.1779
  784SOL    HW2 3252   2.508   5.108   6.971  0.5982  0.3087 -1.5106
  785SOL     OW 3253   1.941   1.706   3.967 -0.1266 -0.0063  0.6639
  785SOL    HW1 3254   1.896   1.725   3.880 -0.5555 -1.4264  0.5554
  785SOL    HW2 3255   1.876   1.667   4.031  0.0550  1.4936  1.8353
  786SOL     OW 3256   5.068   0.696   4.053 -0.7448 -0.4728 -0.4501
  786SOL    HW1 3257   5.069   0.602   4.088 -1.0053  0.3467  1.9311
  786SOL    HW2 3258   5.032   0.696   3.960  1.9017 -3.0377 -1.6383
  787SOL     OW 3259   2.111   4.633   0.304  0.9838 -0.6080 -0.0322
  787SOL    HW1 3260   2.042   4.648   0.233 -0.8943 -1.9651  1.4125
  787SOL    HW2 3261   2.151   4.542   0.293  1.5760 -0.3439 -0.0702
  788SOL     OW 3262   2.162   3.828   0.726  0.2865  0.9805 -0.3947
  788SOL    HW1 3263   2.253   3.839   0.686  0.8372  0.0986  0.5590
  788SOL    HW2 3264   2.169   3.824   0.826 -0.7726  0.7287 -0.3101
  789SOL     OW 3265   4.174   5.084   1.149  0.2000 -0.2107 -1.0659
  789SOL    HW1 3266   4.257   5.041   1.112  1.1767  0.1431  0.6180
  789SOL    HW2 3267   4.200   5.163   1.204 -1.3490  0.4995 -1.3098
  790SOL     OW 3268   1.183   3.550   3.424 -0.1863  0.4222 -0.0631
  790SOL    HW1 3269   1.251   3.606   3.471 -0.2299 -1.1012  1.9301
  790SOL    HW2 3270   1.163   3.590   3.334  1.1843  2.4862  0.4858
  791SOL     OW 3271   1.024   3.565   2.327 -0.4576  0.3626  0.1865
  791SOL    HW1 3272   1.070   3.490   2.376  0.6094  1.1635  0.4441
  791SOL    HW2 3273   0.963   3.614   2.390  1.2466  1.6704  0.8947
  792SOL     OW 3274   4.419   1.058   1.606  0.0642 -0.0665  0.3489
  792SOL    HW1 3275   4.363   0.996   1.660 -2.3521  0.8964 -0.8864
  792SOL    HW2 3276   4.475   1.005   1.542 -1.1060 -1.0645  0.1036
  793SOL     OW 3277   1.395   5.631   6.368  0.4767  0.5233 -0.3001
  793SOL    HW1 3278   1.309   5.681   6.365  0.0394 -0.2045 -0.1392
  793SOL    HW2 3279   1.395   5.570   6.448  0.1263 -1.2547 -1.6102
  794SOL     OW 3280   3.404   3.048   2.829  0.3295 -0.0756  0.7797
  794SOL    HW1 3281   3.307   3.068   2.839  0.6555  2.2888 -0.1237
  794SOL    HW2 3282   3.457   3.105   2.891  1.3157  2.1142 -1.8452
  795SOL     OW 3283   6.024   1.176   6.054 -0.5008  0.2986  0.1339
  795SOL    HW1 3284   5.944   1.138   6.100  0.1632 -1.9043 -0.3978
  795SOL    HW2 3285   6.022   1.150   5.957  1.6759 -1.3740  0.4534
  796SOL     OW 3286   1.003   2.122   1.684 -0.3134  0.0237  0.2174
  796SOL    HW1 3287   1.044   2.032   1.697  0.1285  0.0525 -0.8673
  796SOL    HW2 3288   1.049   2.169   1.608 -3.1877 -0.4867 -2.0145
  797SOL     OW 3289   1.590   5.884   2.744 -0.2089  0.1566 -0.1184
  797SOL    HW1 3290   1.542   5.813   2.796  0.4961  0.6012  1.1953
  797SOL    HW2 3291   1.643   5.941   2.807  0.7873  0.6496 -1.3582
  798SOL     OW 3292   3.845   2.174   1.255 -0.1683 -0.0533  0.6082
  798SOL    HW1 3293   3.850   2.216   1.347 -0.3513  0.6493  0.3067
  798SOL    HW2 3294   3.784   2.228   1.198  0.7553  0.1129 -0.2410
  799SOL     OW 3295   2.894   1.647   6.509  0.1291  0.4892 -0.2211
  799SOL    HW1 3296   2.860   1.605   6.425 -2.0490  1.3905  0.1404
  799SOL    HW2 3297   2.937   1.734   6.487 -1.6711  1.4025 -0.3524
  800SOL     OW 3298   5.127   2.922   4.032  0.1912 -0.4533 -0.3440
  800SOL    HW1 3299   5.054   2.854   4.024  0.0281 -0.1217 -1.8119
  800SOL    HW2 3300   5.090   3.013   4.013  0.5383  0.0089  1.0304
  801SOL     OW 3301   3.972   6.620   0.610  0.6835 -0.3055 -0.2655
  801SOL    HW1 3302   3.888   6.644   0.660  1.2420 -0.1643  0.6381
  801SOL    HW2 3303   3.954   6.621   0.512 -0.3930 -0.3573 -0.0834
  802SOL     OW 3304   3.413   1.909   6.118 -0.0794  0.0632 -0.3230
  802SOL    HW1 3305   3.484   1.978   6.131 -0.6807  0.4525  1.1500
  802SOL    HW2 3306   3.443   1.843   6.049  1.3811  0.6347 -0.2767
  803SOL     OW 3307   1.962   2.350   4.785 -0.1389  0.7395  0.0636
  803SOL    HW1 3308   1.983   2.253   4.771  0.1802  0.9088 -0.6906
  803SOL    HW2 3309   1.932   2.364   4.879  1.6642  0.2198  0.7533
  804SOL     OW 3310   5.495   5.966   2.541  0.5713  0.5054 -0.1550
  804SOL    HW1 3311   5.498   6.066   2.531  1.6728  0.3248 -1.8215
  804SOL    HW2 3312   5.561   5.924   2.480  0.8366 -1.2277  1.2638
  805SOL     OW 3313   3.351   1.588   4.245 -0.1159  0.3125  0.6901
  805SOL    HW1 3314   3.449   1.598   4.226 -0.2263 -1.1262 -0.8667
  805SOL    HW2 3315   3.305   1.676   4.233  0.9169  0.9253  1.0877
  806SOL     OW 3316   4.079   0.206   5.050  0.1863  0.8302  0.1379
  806SOL    HW1 3317   4.105   0.251   5.136 -0.1161 -0.4847  0.9513
  806SOL    HW2 3318   4.032   0.120   5.071 -2.9289  2.0511 -1.2927
  807SOL     OW 3319   0.277   1.017   5.177 -0.0828  0.3341  0.4553
  807SOL    HW1 3320   0.298   0.955   5.253 -1.5407 -1.4328 -0.5148
  807SOL    HW2 3321   0.272   0.966   5.092  1.8981  2.3362 -0.9988
  808SOL     OW 3322   4.024   1.324   6.980 -0.0929 -0.3960  0.1036
  808SOL    HW1 3323   3.982   1.282   7.060 -0.9507 -0.2785 -0.2788
  808SOL    HW2 3324   4.104   1.270   6.952 -0.9477 -1.5716 -0.1499
  809SOL     OW 3325   3.285   5.754   4.956 -0.1953 -0.1238  0.0605
  809SOL    HW1 3326   3.301   5.852   4.944 -1.4226  0.2594  1.3755
  809SOL    HW2 3327   3.295   5.730   5.052 -0.2931 -1.2277 -0.1944
  810SOL     OW 3328   1.948   3.520   0.746  0.0480 -0.2937 -0.4731
  810SOL    HW1 3329   1.904   3.609   0.758 -1.3076 -0.8936 -0.8715
  810SOL    HW2 3330   2.030   3.516   0.803 -0.4029  0.8499  0.2954
  811SOL     OW 3331   6.938   4.176   4.076 -0.0836 -0.0746 -0.0521
  811SOL    HW1 3332   6.862   4.240   4.065  0.0053 -0.1181 -1.0897
  811SOL    HW2 3333   7.002   4.188   4.000  0.0470 -1.2391 -0.1420
  812SOL     OW 3334   1.338   4.360   1.313 -0.3697 -0.5682  0.5300
  812SOL    HW1 3335   1.343   4.443   1.369 -2.0434  0.0587 -0.1716
  812SOL    HW2 3336   1.325   4.281   1.372  0.7834 -0.3049  1.1816
  813SOL     OW 3337   2.419   1.775   4.875  0.1480  0.0932 -0.3953
  813SOL    HW1 3338   2.444   1.760   4.779 -0.6319 -1.2390 -0.4207
  813SOL    HW2 3339   2.476   1.847   4.914  0.1362  1.0138 -2.0009
  814SOL     OW 3340   1.043   5.159   1.174  0.0076 -0.1254  0.0575
  814SOL    HW1 3341   1.104   5.189   1.101 -0.2107 -0.6176 -0.3304
  814SOL    HW2 3342   0.980   5.233   1.198 -0.9838 -0.4640 -1.3624
  815SOL     OW 3343   4.256   2.339   4.356  0.2900  0.3297 -0.1455
  815SOL    HW1 3344   4.247   2.345   4.455  0.4692 -1.1832 -0.0111
  815SOL    HW2 3345   4.313   2.414   4.322  1.5819 -0.0675  1.0840
  816SOL     OW 3346   5.048   3.190   0.304  0.3132 -0.0693  0.0403
  816SOL    HW1 3347   5.015   3.188   0.398  2.3962 -0.9712  0.8247
  816SOL    HW2 3348   5.148   3.182   0.304  0.3597 -0.1094 -2.2578
  817SOL     OW 3349   0.232   4.473   5.582 -0.2190  0.3329 -0.9458
  817SOL    HW1 3350   0.248   4.395   5.522  0.8739 -0.2897  0.1244
  817SOL    HW2 3351   0.233   4.443   5.677  0.6207  1.7107 -0.4963
  818SOL     OW 3352   0.010   1.178   6.171 -0.5923  0.5307  0.4525
  818SOL    HW1 3353  -0.021   1.187   6.076 -0.8090 -0.5139  0.4138
  818SOL    HW2 3354  -0.039   1.243   6.228  1.1675  2.8279 -0.4848
  819SOL     OW 3355   5.726   1.581   2.579  0.0321  0.4594 -0.1140
  819SOL    HW1 3356   5.657   1.517   2.545 -0.4555  0.3891  0.9651
  819SOL    HW2 3357   5.711   1.671   2.537  0.7319 -0.1088 -1.6479
  820SOL     OW 3358   1.085   3.086   5.665  1.1898 -0.2540 -0.1818
  820SOL    HW1 3359   1.155   3.015   5.669  1.6983  0.0625 -2.3408
  820SOL    HW2 3360   1.114   3.158   5.602  0.3083  1.4888  1.3043
  821SOL     OW 3361   4.053   4.032   6.109 -0.1378  0.5549 -0.3601
  821SOL    HW1 3362   4.035   3.938   6.078 -1.4561  0.5568  0.3179
  821SOL    HW2 3363   3.979   4.092   6.079 -0.4915  0.9105  1.1311
  822SOL     OW 3364   5.252   5.813   5.666 -0.2479  0.3705 -0.0774
  822SOL    HW1 3365   5.181   5.768   5.720  0.1099  1.0884  1.0327
  822SOL    HW2 3366   5.241   5.790   5.569 -1.3971 -0.2944  0.2013
  823SOL     OW 3367   1.553   4.852   5.196  0.1040  0.6290  0.1330
  823SOL    HW1 3368   1.527   4.785   5.266  1.1771  0.1315  0.0753
  823SOL    HW2 3369   1.649   4.878   5.210 -0.2666  2.0626  0.0695
  824SOL     OW 3370   4.456   6.924   6.646 -0.3318 -0.0423  0.0973
  824SOL    HW1 3371   4.546   6.884   6.663 -0.1663  0.2561 -0.0715
  824SOL    HW2 3372   4.431   6.984   6.722 -0.8067 -0.8544  0.6028
  825SOL     OW 3373   4.792   5.748   7.013 -0.8124  0.4656  0.4032
  825SOL    HW1 3374   4.853   5.768   6.936 -2.5163  1.5250 -0.7268
  825SOL    HW2 3375   4.809   5.655   7.045 -0.6427 -0.3479 -1.8418
  826SOL     OW 3376   4.035   1.392   6.138 -0.5961 -0.1723 -0.3904
  826SOL    HW1 3377   4.033   1.468   6.202  0.2309 -1.5747  1.3935
  826SOL    HW2 3378   3.942   1.367   6.111 -1.0469 -0.2698  1.1824
  827SOL     OW 3379   2.085   4.123   5.161  0.0350  0.0870  0.2628
  827SOL    HW1 3380   2.166   4.100   5.108 -0.0236  0.6189 -0.0644
  827SOL    HW2 3381   2.112   4.149   5.254  0.3593  1.3575 -0.1658
  828SOL     OW 3382   0.111   4.879   6.553 -0.3492 -0.0269  0.7589
  828SOL    HW1 3383   0.098   4.974   6.583 -1.0947 -0.6774  2.6450
  828SOL    HW2 3384   0.137   4.878   6.456 -0.2356  2.0911  0.7174
  829SOL     OW 3385   3.612   2.886   2.689 -0.4937  0.3205 -0.2481
  829SOL    HW1 3386   3.640   2.836   2.772 -0.1222 -0.6334 -0.9239
  829SOL    HW2 3387   3.531   2.940   2.709  0.1263  0.8351  0.9842
  830SOL     OW 3388   6.187   3.873   5.453 -0.0552 -0.2183  0.3080
  830SOL    HW1 3389   6.093   3.880   5.418 -0.3411  0.0015  1.1028
  830SOL    HW2 3390   6.214   3.959   5.496  1.2764  0.4459 -1.7165
  831SOL     OW 3391   0.046   0.379   2.525  0.2459 -0.5782  0.2531
  831SOL    HW1 3392   0.091   0.361   2.438  2.6210 -0.2255  1.3327
  831SOL    HW2 3393  -0.029   0.442   2.511  0.2616 -0.9072 -1.5944
  832SOL     OW 3394   3.699   2.084   4.073 -0.5189 -0.3363  0.3597
  832SOL    HW1 3395   3.782   2.137   4.084  0.7511 -2.5261  2.1999
  832SOL    HW2 3396   3.636   2.105   4.148  0.0330 -1.4131  1.1558
  833SOL     OW 3397   4.358   2.802   0.543  0.2161  0.1007  0.2120
  833SOL    HW1 3398   4.416   2.837   0.470 -0.4882  1.6989  0.3694
  833SOL    HW2 3399   4.390   2.839   0.631  0.1956 -0.6580  0.5452
  834SOL     OW 3400   4.051   1.895   0.035  1.0197 -0.0005  0.2632
  834SOL    HW1 3401   4.008   1.884  -0.055  0.5447 -1.8797  0.6794
  834SOL    HW2 3402   4.110   1.976   0.035 -0.0129  0.7895 -1.3187
  835SOL     OW 3403   6.585   0.433   5.576  0.0704 -0.0708  0.1212
  835SOL    HW1 3404   6.609   0.503   5.644 -0.4540  0.3047 -0.0732
  835SOL    HW2 3405   6.657   0.364   5.573  0.1589 -0.0349  0.9846
  836SOL     OW 3406   4.710   6.672   4.949  0.6191  0.0476 -0.6676
  836SOL    HW1 3407   4.655   6.753   4.969  1.5631  1.1258 -2.2739
  836SOL    HW2 3408   4.665   6.591   4.987 -2.4901  0.7696 -2.5001
  837SOL     OW 3409   2.581   6.889   5.884 -0.2061 -0.1112  0.3623
  837SOL    HW1 3410   2.513   6.816   5.889  1.7320 -2.1606 -1.0316
  837SOL    HW2 3411   2.596   6.927   5.976 -1.6676 -1.0441  1.0269
  838SOL     OW 3412   2.970   4.948   3.111 -1.1027 -0.4148  0.0147
  838SOL    HW1 3413   2.947   4.872   3.172  1.2538 -0.2976  1.1780
  838SOL    HW2 3414   2.988   5.030   3.165  3.4538 -0.8921 -0.3684
  839SOL     OW 3415   1.384   1.347   5.853  0.0194 -0.0741 -0.1467
  839SOL    HW1 3416   1.345   1.283   5.920  1.1496 -0.2802  0.3354
  839SOL    HW2 3417   1.455   1.300   5.800 -0.3567  0.2987 -0.9998
  840SOL     OW 3418   5.495   5.820   2.158  0.4199  0.6309 -0.6815
  840SOL    HW1 3419   5.546   5.761   2.095  0.2208  0.6182 -0.8328
  840SOL    HW2 3420   5.472   5.906   2.112  0.5866  0.7719 -0.5074
  841SOL     OW 3421   3.950   5.347   5.754 -0.3995  0.7273  0.2880
  841SOL    HW1 3422   3.970   5.252   5.779 -0.3244  0.8315  0.6251
  841SOL    HW2 3423   4.021   5.382   5.693 -0.9779  0.2270 -0.7022
  842SOL     OW 3424   4.250   6.919   6.864  0.3721  0.1838  0.5553
  842SOL    HW1 3425   4.209   6.833   6.834 -0.4145  0.7643 -0.0995
  842SOL    HW2 3426   4.337   6.901   6.910  1.3001 -0.8446 -1.4552
  843SOL     OW 3427   0.725   5.422   2.745 -0.4248 -0.7196  0.5275
  843SOL    HW1 3428   0.773   5.464   2.669 -0.3895  0.1881  1.0422
  843SOL    HW2 3429   0.678   5.340   2.713 -1.5244  0.3758 -0.7784
  844SOL     OW 3430   0.934   5.662   2.000 -0.0321 -0.5164  0.4557
  844SOL    HW1 3431   1.015   5.636   1.948  0.1299 -0.1590  0.5211
  844SOL    HW2 3432   0.875   5.583   2.014  0.1268 -0.6981  0.0860
  845SOL     OW 3433   2.513   0.454   0.911 -0.1036  0.4085  0.0210
  845SOL    HW1 3434   2.484   0.360   0.931  0.0039  0.4619  0.4368
  845SOL    HW2 3435   2.601   0.471   0.954 -0.3964  0.8884  0.4472
  846SOL     OW 3436   0.534   0.058   0.773 -0.1258 -0.3304  0.5861
  846SOL    HW1 3437   0.550   0.130   0.841 -0.4724 -1.0206  1.4072
  846SOL    HW2 3438   0.490   0.098   0.692  0.1823  0.4733  0.8077
  847SOL     OW 3439   3.678   2.298   1.010  0.4503 -0.0122  0.0760
  847SOL    HW1 3440   3.591   2.250   0.998  0.9570 -0.9484  0.1171
  847SOL    HW2 3441   3.660   2.391   1.041 -0.5789  0.1284 -0.8821
  848SOL     OW 3442   0.231   6.896   0.983  0.6121 -0.1428 -0.1391
  848SOL    HW1 3443   0.321   6.884   1.026  0.2573  0.5330  0.8269
  848SOL    HW2 3444   0.220   6.992   0.957 -0.7455  0.3165  1.9303
  849SOL     OW 3445   5.222   3.023   5.349 -0.1820 -0.3223  0.1025
  849SOL    HW1 3446   5.187   2.975   5.268 -1.5958  1.4399 -0.4078
  849SOL    HW2 3447   5.149   3.032   5.416 -0.3132  2.0273 -0.2868
  850SOL     OW 3448   2.194   1.117   3.663  0.3388  0.2215  0.0742
  850SOL    HW1 3449   2.264   1.181   3.693 -0.7580  2.1287 -1.2685
  850SOL    HW2 3450   2.173   1.132   3.567 -0.2900 -1.8899 -0.1841
  851SOL     OW 3451   3.119   0.801   6.843  0.9133  0.0806 -0.0054
  851SOL    HW1 3452   3.096   0.729   6.779 -0.4287  0.2029  0.3252
  851SOL    HW2 3453   3.104   0.890   6.801 -1.3390  0.1799  0.8929
  852SOL     OW 3454   0.886   4.336   1.042 -0.4420 -0.1312 -0.2729
  852SOL    HW1 3455   0.940   4.351   1.124  0.3916 -1.2103 -0.5955
  852SOL    HW2 3456   0.790   4.361   1.059  0.0738  1.4552  0.4189
  853SOL     OW 3457   1.602   3.475   6.842 -0.0092 -0.3141  0.5140
  853SOL    HW1 3458   1.613   3.376   6.830 -1.8934 -0.4881 -0.0823
  853SOL    HW2 3459   1.611   3.498   6.939  0.8298 -1.0059  0.6114
  854SOL     OW 3460   6.213   2.239   5.872  0.5891  0.2703 -0.0298
  854SOL    HW1 3461   6.278   2.315   5.882  2.0755 -0.6079 -2.1805
  854SOL    HW2 3462   6.262   2.153   5.880 -0.9621 -0.5234  1.6590
  855SOL     OW 3463   4.462   1.895   1.503  0.0134  0.0169 -0.2031
  855SOL    HW1 3464   4.484   1.837   1.582  0.4712  2.3873  1.5236
  855SOL    HW2 3465   4.406   1.972   1.533 -0.1172  0.8087 -2.3055
  856SOL     OW 3466   2.083   4.300   1.852  0.2467  0.7641 -0.6827
  856SOL    HW1 3467   2.006   4.348   1.893  0.8407  2.2435 -1.2349
  856SOL    HW2 3468   2.155   4.287   1.920 -0.2593 -0.1668 -0.3024
  857SOL     OW 3469   6.113   5.853   5.541 -0.1682 -0.4867  0.1859
  857SOL    HW1 3470   6.058   5.807   5.611 -1.1263 -0.4421 -0.5155
  857SOL    HW2 3471   6.052   5.893   5.472  0.5150  2.5965  1.1816
  858SOL     OW 3472   3.235   3.462   0.243  0.2922 -0.1173 -0.1117
  858SOL    HW1 3473   3.209   3.528   0.172 -0.3489 -0.5781 -0.3141
  858SOL    HW2 3474   3.254   3.511   0.329 -0.2806  0.3227 -0.2319
  859SOL     OW 3475   6.946   4.580   6.250  0.4668 -0.6225 -0.0297
  859SOL    HW1 3476   6.945   4.678   6.266  3.2374 -0.7002  1.2671
  859SOL    HW2 3477   6.930   4.561   6.153 -0.7286  1.0335 -0.1828
  860SOL     OW 3478   4.517   2.695   6.235 -0.3157  0.2945 -0.4208
  860SOL    HW1 3479   4.486   2.746   6.155  0.3228  1.8662  0.2834
  860SOL    HW2 3480   4.453   2.622   6.255  0.0964 -0.9290 -3.0534
  861SOL     OW 3481   0.693   4.126   3.870  0.2522 -0.0594 -0.0108
  861SOL    HW1 3482   0.745   4.089   3.947  1.0467 -0.2505 -0.6208
  861SOL    HW2 3483   0.607   4.165   3.903 -0.1444 -1.5329  0.7921
  862SOL     OW 3484   6.257   3.659   5.270  0.0993  0.5749  0.0934
  862SOL    HW1 3485   6.248   3.746   5.319 -1.1170  0.0398  0.8800
  862SOL    HW2 3486   6.231   3.584   5.331  0.6380 -0.2997 -0.7301
  863SOL     OW 3487   5.419   1.379   1.797 -0.2539 -0.6924 -0.0129
  863SOL    HW1 3488   5.344   1.353   1.857 -0.4150 -1.3856 -0.5089
  863SOL    HW2 3489   5.481   1.302   1.786  0.6450 -0.0712  0.5472
  864SOL     OW 3490   6.927   6.158   2.853 -0.1808  0.3393 -0.3916
  864SOL    HW1 3491   6.936   6.189   2.947 -2.1350  0.2433 -0.1362
  864SOL    HW2 3492   6.855   6.209   2.807 -0.8938 -1.2127 -1.0993
  865SOL     OW 3493   6.900   4.007   4.746  0.3085 -0.0353  0.1074
  865SOL    HW1 3494   6.864   4.005   4.652 -2.0026  0.9699  0.8995
  865SOL    HW2 3495   6.977   4.070   4.750 -0.0588  0.5105 -0.9568
  866SOL     OW 3496   3.856   0.058   2.034 -0.4286 -0.0172  0.1319
  866SOL    HW1 3497   3.824   0.123   1.966 -0.6982 -1.9653 -1.7071
  866SOL    HW2 3498   3.910  -0.014   1.989  0.9221 -0.4112  2.2398
  867SOL     OW 3499   0.857   3.864   5.726  0.3394 -0.5963  0.5754
  867SOL    HW1 3500   0.880   3.903   5.816  0.4697 -1.4958  0.9432
  867SOL    HW2 3501   0.940   3.851   5.673  0.2096  0.4713  0.0859
  868SOL     OW 3502   6.797   3.608   1.043 -0.4500 -0.1001  0.3925
  868SOL    HW1 3503   6.721   3.599   1.107 -0.8563  0.2012 -0.0362
  868SOL    HW2 3504   6.777   3.555   0.960 -0.0534 -0.2690  0.4023
  869SOL     OW 3505   6.410   4.429   3.980 -0.2158  0.1854  0.1256
  869SOL    HW1 3506   6.367   4.427   3.890 -0.4128 -1.1474  0.2305
  869SOL    HW2 3507   6.507   4.453   3.970  0.2843 -1.8892 -0.7092
  870SOL     OW 3508   2.395   6.807   2.165 -0.0576  0.5829 -0.1092
  870SOL    HW1 3509   2.303   6.818   2.204  0.1362  0.3012  0.4453
  870SOL    HW2 3510   2.388   6.771   2.073 -0.5132  0.7387 -0.1395
  871SOL     OW 3511   5.579   2.278   5.593  0.1018 -0.5511  0.2038
  871SOL    HW1 3512   5.622   2.361   5.556  2.5158 -1.1624  1.4517
  871SOL    HW2 3513   5.558   2.292   5.689  1.1521 -1.5749  0.6041
  872SOL     OW 3514   3.466   2.167   5.641  0.0571 -0.4951  0.2243
  872SOL    HW1 3515   3.464   2.085   5.583 -1.3153  0.6339 -1.4234
  872SOL    HW2 3516   3.466   2.248   5.583  0.3317  0.6869  1.8311
  873SOL     OW 3517   3.672   6.641   5.707 -0.4588 -0.6674  0.7625
  873SOL    HW1 3518   3.750   6.704   5.715 -1.4597  0.5222  1.6059
  873SOL    HW2 3519   3.597   6.687   5.658 -1.3306 -1.0565  1.6934
  874SOL     OW 3520   4.836   3.067   0.178 -0.0523 -0.2493  0.0518
  874SOL    HW1 3521   4.764   3.064   0.247 -0.1149 -2.0091 -0.0441
  874SOL    HW2 3522   4.910   3.126   0.210 -1.6343  1.8470 -0.0012
  875SOL     OW 3523   2.837   6.030   3.082  0.0188  0.2104 -0.5055
  875SOL    HW1 3524   2.925   5.982   3.085  0.1022  0.3899  0.0004
  875SOL    HW2 3525   2.804   6.046   3.175 -0.5403  0.1698 -0.6884
  876SOL     OW 3526   4.117   0.760   5.648  0.0924 -0.1374 -0.0223
  876SOL    HW1 3527   4.115   0.758   5.748 -1.1973 -1.9954 -0.0417
  876SOL    HW2 3528   4.211   0.745   5.617  0.5088  0.4585  0.8808
  877SOL     OW 3529   1.519   3.111   5.630  0.3422  0.0679 -0.3867
  877SOL    HW1 3530   1.562   3.083   5.716  2.0746  2.2969 -0.4353
  877SOL    HW2 3531   1.577   3.084   5.553  1.2544  2.1812 -0.5138
  878SOL     OW 3532   3.094   6.321   3.311  0.1200  0.1224  0.2584
  878SOL    HW1 3533   3.079   6.365   3.399 -0.2867 -0.2690  0.3865
  878SOL    HW2 3534   3.170   6.255   3.319  0.0767  0.0797  0.3198
  879SOL     OW 3535   6.423   0.272   0.038  0.3311 -0.1560 -0.2695
  879SOL    HW1 3536   6.407   0.346   0.104  0.3102 -0.9592  0.6445
  879SOL    HW2 3537   6.470   0.309  -0.042  4.3092  0.1684  1.9434
  880SOL     OW 3538   3.142   3.079   2.809 -0.2048  0.0831 -0.3763
  880SOL    HW1 3539   3.133   3.027   2.724  0.8286  0.4893 -0.7511
  880SOL    HW2 3540   3.142   3.177   2.788  0.9044  0.1733 -0.0119
  881SOL     OW 3541   5.199   0.918   6.625 -0.3689 -0.0643  0.0088
  881SOL    HW1 3542   5.208   0.885   6.531  0.9671 -0.4787  0.2645
  881SOL    HW2 3543   5.177   1.016   6.624 -0.3655 -0.0699 -0.7426
  882SOL     OW 3544   2.413   2.664   2.831  0.0597  0.1059  0.7798
  882SOL    HW1 3545   2.416   2.667   2.930  0.0684 -0.4656  0.8023
  882SOL    HW2 3546   2.374   2.749   2.796  0.5598  0.5343  1.2425
  883SOL     OW 3547   6.314   0.017   2.495 -0.0019  1.0879  0.8058
  883SOL    HW1 3548   6.246  -0.048   2.460 -2.1547  2.9672  1.2436
  883SOL    HW2 3549   6.366   0.055   2.419  0.4854 -0.2438  0.4386
  884SOL     OW 3550   2.483   3.378   5.314 -0.6880  0.5136  0.5093
  884SOL    HW1 3551   2.407   3.403   5.254 -2.3140  0.6717  2.5503
  884SOL    HW2 3552   2.456   3.302   5.372  0.6571  0.7103  1.4319
  885SOL     OW 3553   3.671   0.964   0.250 -0.4738 -0.3984  0.0134
  885SOL    HW1 3554   3.610   0.887   0.272  0.5880 -0.6465  2.4914
  885SOL    HW2 3555   3.766   0.936   0.264 -0.0624  1.3238  0.9511
  886SOL     OW 3556   3.074   1.184   6.565  0.0771 -0.3445  0.1871
  886SOL    HW1 3557   3.045   1.114   6.630 -0.1142 -0.6779 -0.2518
  886SOL    HW2 3558   3.009   1.189   6.490 -0.3008  0.8119  0.5717
  887SOL     OW 3559   4.750   2.020   6.027  0.1323  0.5052  0.2193
  887SOL    HW1 3560   4.726   2.087   6.097 -2.5803 -0.1666  0.0463
  887SOL    HW2 3561   4.688   1.941   6.033  0.2498  0.0964 -2.4483
  888SOL     OW 3562   1.575   4.743   1.226  0.3876  0.0746 -0.1214
  888SOL    HW1 3563   1.527   4.753   1.313 -4.0717 -0.7173 -2.2406
  888SOL    HW2 3564   1.608   4.832   1.196  0.3401  0.6633  1.4761
  889SOL     OW 3565   5.942   3.002   0.153 -0.1869  0.5635  1.2143
  889SOL    HW1 3566   5.902   2.974   0.066 -1.4311  0.7480  1.7037
  889SOL    HW2 3567   5.982   2.922   0.199  0.9004  0.5505  0.2783
  890SOL     OW 3568   2.234   6.566   5.078  0.1072 -0.5201  0.8998
  890SOL    HW1 3569   2.331   6.586   5.069  0.1968 -0.6557  1.5047
  890SOL    HW2 3570   2.192   6.634   5.139 -0.4425  0.3026 -0.3590
  891SOL     OW 3571   6.145   5.494   2.582 -0.0741  0.3388  0.4763
  891SOL    HW1 3572   6.081   5.419   2.598  0.1717 -0.1148 -0.5925
  891SOL    HW2 3573   6.119   5.542   2.498  0.4680  0.7137  0.5160
  892SOL     OW 3574   2.305   4.718   0.469 -0.4956 -0.0710  0.5188
  892SOL    HW1 3575   2.360   4.794   0.435 -1.0552  0.5243  0.9409
  892SOL    HW2 3576   2.235   4.694   0.402 -0.7747  0.2559  0.6932
  893SOL     OW 3577   0.256   4.537   2.091 -0.3771  0.3749  0.3476
  893SOL    HW1 3578   0.183   4.479   2.054  0.0584 -0.9592  1.4749
  893SOL    HW2 3579   0.317   4.565   2.017 -0.6493 -0.5610 -0.2525
  894SOL     OW 3580   1.036   4.076   1.315 -0.1238  0.2297 -0.0275
  894SOL    HW1 3581   1.111   4.083   1.380 -0.1264  0.1571 -0.0169
  894SOL    HW2 3582   1.051   3.998   1.254  1.6419  2.2113 -2.3550
  895SOL     OW 3583   0.900   6.006   4.878 -0.2495  0.4277  0.1500
  895SOL    HW1 3584   0.812   5.970   4.911 -0.0054  0.8347  1.3106
  895SOL    HW2 3585   0.946   5.936   4.824 -1.4518  0.3397 -0.8002
  896SOL     OW 3586   0.884   1.980   0.577  0.1756 -0.3539  0.1246
  896SOL    HW1 3587   0.898   1.952   0.482  0.6854  0.3512 -0.0181
  896SOL    HW2 3588   0.843   2.071   0.579  1.3887  0.2027  0.5715
  897SOL     OW 3589   5.323   2.193   1.748  0.3317  0.3963 -0.2767
  897SOL    HW1 3590   5.270   2.210   1.665  1.9184 -1.7559 -1.8255
  897SOL    HW2 3591   5.269   2.139   1.812 -0.2065  0.3639 -0.7523
  898SOL     OW 3592   4.148   1.490   3.963 -0.2205  0.2693 -0.6512
  898SOL    HW1 3593   4.186   1.510   3.873 -2.5953  1.6027 -1.4210
  898SOL    HW2 3594   4.146   1.391   3.977  1.4881  0.0824 -1.4181
  899SOL     OW 3595   0.324   1.162   6.644 -0.3282  0.5294 -0.6576
  899SOL    HW1 3596   0.248   1.176   6.580  0.5582 -0.8051 -2.0731
  899SOL    HW2 3597   0.299   1.093   6.712 -0.3005 -0.1040 -1.2840
  900SOL     OW 3598   6.555   6.000   1.739  0.2096 -0.1748  0.5482
  900SOL    HW1 3599   6.539   5.901   1.734 -0.4711 -0.0579  0.2585
  900SOL    HW2 3600   6.646   6.021   1.702 -0.1722 -0.5596 -0.6700
  901SOL     OW 3601   0.534   0.257   3.677  0.2322 -0.3462  0.2225
  901SOL    HW1 3602   0.589   0.195   3.734  2.0762  0.2599 -0.7900
  901SOL    HW2 3603   0.460   0.295   3.731  0.2697 -1.8826  1.4236
  902SOL     OW 3604   6.015   2.847   6.712 -0.0287  0.5211  1.0784
  902SOL    HW1 3605   6.084   2.800   6.767 -1.8169 -0.4548  2.5909
  902SOL    HW2 3606   6.019   2.813   6.618  1.7007  0.6810  1.0676
  903SOL     OW 3607   6.686   1.460   1.753  0.4985  0.0797  0.2832
  903SOL    HW1 3608   6.611   1.512   1.712 -1.9183 -3.7886 -0.6405
  903SOL    HW2 3609   6.769   1.474   1.697 -0.7404  0.8421 -1.4784
  904SOL     OW 3610   2.447   1.482   3.201  0.1693  0.0083  0.1321
  904SOL    HW1 3611   2.454   1.448   3.295  0.4732  1.9554  0.8582
  904SOL    HW2 3612   2.384   1.560   3.199  1.6489  1.2169 -0.8970
  905SOL     OW 3613   6.855   3.270   0.209 -0.4534 -0.0312 -0.0131
  905SOL    HW1 3614   6.898   3.231   0.290 -1.9380 -0.1633  0.7442
  905SOL    HW2 3615   6.860   3.370   0.213  1.4022 -0.0466 -0.8729
  906SOL     OW 3616   4.557   3.388   0.208 -0.0984  0.2866  0.3608
  906SOL    HW1 3617   4.568   3.294   0.240 -2.1743  0.1065  0.7229
  906SOL    HW2 3618   4.508   3.388   0.121  0.7318  1.0179 -0.1265
  907SOL     OW 3619   3.682   5.232   1.017 -0.0422  0.0620  0.4313
  907SOL    HW1 3620   3.711   5.300   1.084  0.6144 -0.8246  1.0684
  907SOL    HW2 3621   3.649   5.279   0.934  1.2822  1.1443  0.4788
  908SOL     OW 3622   0.819   4.172   1.464 -0.3144 -0.0260  0.6330
  908SOL    HW1 3623   0.873   4.159   1.381  2.2300  2.5207  1.7060
  908SOL    HW2 3624   0.869   4.134   1.543 -0.9033  0.8220  1.4342
  909SOL     OW 3625   4.864   4.968   5.956 -0.2617  0.2595  0.1708
  909SOL    HW1 3626   4.931   4.988   6.029  0.1439  0.4400 -0.2482
  909SOL    HW2 3627   4.844   5.052   5.906 -0.2918  0.0668 -0.1380
  910SOL     OW 3628   2.818   3.123   5.862  0.3180  0.4751 -0.1243
  910SOL    HW1 3629   2.746   3.117   5.793 -0.2038  0.9356  0.3680
  910SOL    HW2 3630   2.903   3.153   5.819 -0.2166  1.6045 -0.4274
  911SOL     OW 3631   0.154   5.026   5.152 -0.0215  0.2639  0.2495
  911SOL    HW1 3632   0.119   5.002   5.243  1.0079 -1.0969  0.3058
  911SOL    HW2 3633   0.245   4.988   5.140  0.6709  2.0902 -0.6442
  912SOL     OW 3634   6.119   1.493   5.780  0.2805  0.3498  0.4825
  912SOL    HW1 3635   6.104   1.397   5.759 -0.4699  0.6345 -0.3738
  912SOL    HW2 3636   6.151   1.541   5.699 -0.6942  1.0821  0.5004
  913SOL     OW 3637   6.577   6.400   2.230 -0.0740  0.5279  0.0599
  913SOL    HW1 3638   6.657   6.412   2.171  1.6170 -3.8213  1.0723
  913SOL    HW2 3639   6.605   6.411   2.325 -0.0843 -2.7303  0.5416
  914SOL     OW 3640   2.209   6.172   6.407 -0.3950  0.3320 -0.5931
  914SOL    HW1 3641   2.172   6.107   6.474  0.1565 -0.6995 -1.2689
  914SOL    HW2 3642   2.305   6.192   6.429  0.0115 -0.5782 -1.4694
  915SOL     OW 3643   4.639   0.266   0.897 -0.2129  0.0312 -0.3394
  915SOL    HW1 3644   4.715   0.282   0.835 -0.4864  0.8020 -0.4783
  915SOL    HW2 3645   4.602   0.353   0.929 -0.1413 -0.3457  0.8307
  916SOL     OW 3646   1.423   1.920   2.407  0.6335  0.3474  0.4540
  916SOL    HW1 3647   1.347   1.908   2.343 -0.8297  0.0838  2.1413
  916SOL    HW2 3648   1.478   1.999   2.380 -0.0018  0.3146 -1.0277
  917SOL     OW 3649   6.695   6.876   0.173  0.3261 -0.5615  0.7257
  917SOL    HW1 3650   6.602   6.912   0.181  0.1244 -1.2019  1.3560
  917SOL    HW2 3651   6.746   6.931   0.107 -0.6898 -0.5891 -0.1161
  918SOL     OW 3652   1.625   6.040   0.570  0.0357  0.1014  0.0961
  918SOL    HW1 3653   1.625   6.115   0.637  0.3200  0.9661 -0.8491
  918SOL    HW2 3654   1.543   5.984   0.583 -1.4318  1.9595 -0.6595
  919SOL     OW 3655   4.908   0.937   5.659 -0.5025 -0.2069 -0.1887
  919SOL    HW1 3656   4.850   0.901   5.586 -2.2835  2.1023 -0.0102
  919SOL    HW2 3657   4.868   0.914   5.748  0.2922 -0.8339  0.0161
  920SOL     OW 3658   0.818   5.324   1.221  0.0816 -0.5775 -0.2587
  920SOL    HW1 3659   0.851   5.418   1.218  0.2948 -0.5891  1.0776
  920SOL    HW2 3660   0.718   5.324   1.230  0.1873 -0.4066  1.3535
  921SOL     OW 3661   4.866   5.108   4.807  0.2291  0.0658 -0.3621
  921SOL    HW1 3662   4.828   5.087   4.717  0.9621 -1.5944 -0.3192
  921SOL    HW2 3663   4.962   5.134   4.797  0.5392 -0.8854 -0.0197
  922SOL     OW 3664   3.686   3.485   5.126  0.1852  0.1743 -0.0062
  922SOL    HW1 3665   3.785   3.497   5.119  0.0868  1.8366  0.9707
  922SOL    HW2 3666   3.664   3.387   5.123  2.1633 -0.5179  3.2404
  923SOL     OW 3667   2.190   3.221   3.868 -0.2603  0.5661  0.0303
  923SOL    HW1 3668   2.224   3.193   3.778  0.3754 -0.8763  0.6860
  923SOL    HW2 3669   2.249   3.184   3.939 -1.8610 -0.0172  1.1284
  924SOL     OW 3670   1.010   4.387   2.648  0.0847  0.2140  0.4162
  924SOL    HW1 3671   0.948   4.407   2.725 -0.6374 -0.0641 -0.0853
  924SOL    HW2 3672   1.103   4.376   2.683 -0.4114 -1.0759  1.4110
  925SOL     OW 3673   6.607   1.531   6.635  0.0649  0.4751  0.2507
  925SOL    HW1 3674   6.665   1.598   6.589 -0.0574 -1.4330 -3.0387
  925SOL    HW2 3675   6.511   1.558   6.628  0.1167  0.6330  0.1582
  926SOL     OW 3676   3.841   2.287   1.533  0.2916 -0.0147 -0.1103
  926SOL    HW1 3677   3.881   2.379   1.537  0.6323 -0.1301 -0.6925
  926SOL    HW2 3678   3.758   2.285   1.588  0.1361  0.7149 -0.3002
  927SOL     OW 3679   6.364   5.098   4.287 -0.3351  0.3931  0.0374
  927SOL    HW1 3680   6.272   5.137   4.281 -0.0827  0.9512 -0.3234
  927SOL    HW2 3681   6.365   5.024   4.354 -0.7995  1.1039  0.8452
  928SOL     OW 3682   3.632   4.423   6.067  0.1692  0.2739 -0.0230
  928SOL    HW1 3683   3.590   4.346   6.019  0.5772 -0.5855  0.9353
  928SOL    HW2 3684   3.726   4.434   6.037  0.4243 -0.2632  0.5535
  929SOL     OW 3685   0.552   1.373   3.426 -0.1300  0.0999  0.2189
  929SOL    HW1 3686   0.502   1.303   3.375 -2.7225  0.9325  1.4407
  929SOL    HW2 3687   0.504   1.460   3.419  1.9970  1.3555  0.3007
  930SOL     OW 3688   5.695   5.164   5.210 -0.2097  0.2498  0.1340
  930SOL    HW1 3689   5.625   5.235   5.198  0.3523  0.5337 -1.9989
  930SOL    HW2 3690   5.773   5.184   5.150  1.1318 -0.7733  1.4707
  931SOL     OW 3691   0.089   7.012   2.540 -0.4371 -0.3898  0.2164
  931SOL    HW1 3692   0.175   7.062   2.526 -1.3246  0.7470 -1.6493
  931SOL    HW2 3693   0.105   6.915   2.525  0.6170 -0.2398  0.2830
  932SOL     OW 3694   5.418   6.913   3.112  0.7127  0.5728 -0.0041
  932SOL    HW1 3695   5.492   6.923   3.179 -0.8502 -1.0999  2.1221
  932SOL    HW2 3696   5.348   6.852   3.149 -1.5215  1.6876 -2.1226
  933SOL     OW 3697   2.128   5.269   2.211  0.1993  0.0714 -0.2420
  933SOL    HW1 3698   2.031   5.284   2.188 -0.0021  0.1494  0.6176
  933SOL    HW2 3699   2.186   5.309   2.140 -0.3925  0.6237 -0.4219
  934SOL     OW 3700   1.002   3.246   0.840  0.4062  0.1543  0.3438
  934SOL    HW1 3701   0.986   3.184   0.762 -0.2353 -1.5820  1.7787
  934SOL    HW2 3702   1.096   3.236   0.872  0.5955  0.6848 -0.0263
  935SOL     OW 3703   6.585   1.920   4.054  0.7557 -0.4190 -0.4870
  935SOL    HW1 3704   6.507   1.954   4.108 -0.1350 -0.2272 -1.8552
  935SOL    HW2 3705   6.670   1.946   4.100  0.0415  0.0821  0.6210
  936SOL     OW 3706   3.766   1.279   5.581 -0.4088 -0.1059 -0.0429
  936SOL    HW1 3707   3.743   1.189   5.618 -0.6400  0.1070  0.3469
  936SOL    HW2 3708   3.821   1.269   5.498 -3.4513 -0.7172 -2.1572
  937SOL     OW 3709   5.059   1.612   5.368 -0.1446 -0.3388  0.0555
  937SOL    HW1 3710   5.152   1.647   5.365 -0.0978 -0.5177 -0.8793
  937SOL    HW2 3711   5.035   1.588   5.462  0.0851  1.4713  0.6090
  938SOL     OW 3712   5.586   6.067   3.799 -0.1804  0.0734  0.1829
  938SOL    HW1 3713   5.572   6.154   3.846 -0.8257 -0.8423  1.7494
  938SOL    HW2 3714   5.503   6.042   3.749 -0.8783 -0.7506  1.6806
  939SOL     OW 3715   0.313   2.188   0.145  0.1545  0.2094 -0.6083
  939SOL    HW1 3716   0.303   2.259   0.076 -2.0890 -0.4908 -1.0845
  939SOL    HW2 3717   0.227   2.178   0.195  1.9939  1.4337  3.1065
  940SOL     OW 3718   2.110   6.450   0.898 -0.2602 -0.1786 -0.2311
  940SOL    HW1 3719   2.207   6.472   0.902  0.1234 -1.8480  2.0993
  940SOL    HW2 3720   2.087   6.417   0.806  1.8239 -1.4795 -0.3471
  941SOL     OW 3721   2.488   5.691   0.986 -0.9483  0.0241  0.0146
  941SOL    HW1 3722   2.516   5.604   0.944  0.0769 -0.1791  1.0645
  941SOL    HW2 3723   2.460   5.675   1.080  2.6670  1.2095  1.4849
  942SOL     OW 3724   4.801   3.348   6.482  0.1439  0.1590  0.6546
  942SOL    HW1 3725   4.802   3.403   6.399  0.2200 -0.9970 -0.1294
  942SOL    HW2 3726   4.749   3.264   6.467 -0.5976  0.3240  2.0516
  943SOL     OW 3727   3.839   4.262   6.973  0.0280 -0.5933  0.0205
  943SOL    HW1 3728   3.885   4.264   7.062 -0.3413 -0.5054  0.2125
  943SOL    HW2 3729   3.843   4.170   6.935  0.2455 -0.6158  0.0946
  944SOL     OW 3730   5.230   5.428   3.849 -0.5491 -0.1045 -0.2974
  944SOL    HW1 3731   5.310   5.393   3.800 -0.3746 -0.2156  0.0653
  944SOL    HW2 3732   5.148   5.387   3.810 -0.4711  0.3974 -1.0099
  945SOL     OW 3733   5.692   5.902   5.376  0.2971 -0.1165  0.1781
  945SOL    HW1 3734   5.707   5.809   5.409  0.0355  0.4161  1.9247
  945SOL    HW2 3735   5.659   5.900   5.282 -0.4308 -1.8215  0.4462
  946SOL     OW 3736   2.732   1.647   3.209 -0.5836  0.2165  0.0691
  946SOL    HW1 3737   2.632   1.646   3.205 -0.5625  0.0076 -0.5081
  946SOL    HW2 3738   2.765   1.741   3.199 -0.6483  0.0391 -2.0816
  947SOL     OW 3739   3.463   3.170   3.523 -0.2768 -0.1273 -0.2764
  947SOL    HW1 3740   3.511   3.084   3.503 -3.4805 -2.2514  0.4282
  947SOL    HW2 3741   3.520   3.227   3.582  1.6164 -2.1415 -0.0173
  948SOL     OW 3742   3.542   1.555   4.475  0.3875 -0.3664 -0.1013
  948SOL    HW1 3743   3.639   1.578   4.463  0.8205 -0.9122  1.9435
  948SOL    HW2 3744   3.532   1.456   4.482 -0.5548 -0.4301 -1.7503
  949SOL     OW 3745   4.997   2.576   0.395  0.1206 -0.4652  0.0550
  949SOL    HW1 3746   4.912   2.562   0.344  0.2328  2.9681 -1.3398
  949SOL    HW2 3747   5.031   2.669   0.379  3.3800 -1.1992  1.7725
  950SOL     OW 3748   0.490   0.505   1.477  0.4419 -0.2166 -0.1757
  950SOL    HW1 3749   0.571   0.465   1.432  0.6919  0.0849  0.0007
  950SOL    HW2 3750   0.517   0.589   1.524  0.2068 -0.5829  0.6267
  951SOL     OW 3751   2.063   1.145   3.949 -0.1899 -0.1421  0.5088
  951SOL    HW1 3752   2.098   1.161   3.857  1.4753 -0.4888  1.0628
  951SOL    HW2 3753   1.971   1.184   3.956  0.9371  2.9322 -0.2847
  952SOL     OW 3754   2.919   1.494   2.742 -0.7285 -0.0491 -0.0109
  952SOL    HW1 3755   2.937   1.578   2.794  0.0967 -0.4433  0.3454
  952SOL    HW2 3756   2.821   1.471   2.749 -0.6529 -0.0470  1.2930
  953SOL     OW 3757   0.646   4.925   6.538 -0.0409  0.1025 -0.0065
  953SOL    HW1 3758   0.620   4.938   6.633 -2.3698  0.6692 -0.6509
  953SOL    HW2 3759   0.728   4.868   6.533 -0.5400 -0.9353  2.2787
  954SOL     OW 3760   4.539   6.898   2.404 -0.4221  0.2096 -0.3688
  954SOL    HW1 3761   4.545   6.936   2.497  1.9044 -2.7770  0.8994
  954SOL    HW2 3762   4.595   6.954   2.343 -0.0811  0.9101  0.5428
  955SOL     OW 3763   0.271   0.661   1.286  0.2040  0.3827 -0.6300
  955SOL    HW1 3764   0.221   0.700   1.362 -0.4705  0.8709 -1.3081
  955SOL    HW2 3765   0.363   0.633   1.316 -0.7006 -1.2111  0.8074
  956SOL     OW 3766   4.626   1.658   1.388 -0.5188 -0.5136 -0.4463
  956SOL    HW1 3767   4.613   1.590   1.459 -1.0420 -0.8930 -0.9047
  956SOL    HW2 3768   4.544   1.665   1.332 -0.7622  1.0417  0.0583
  957SOL     OW 3769   6.024   5.548   4.200 -0.6661  0.1896 -0.0621
  957SOL    HW1 3770   5.933   5.590   4.203 -0.7693  0.0291 -0.7766
  957SOL    HW2 3771   6.019   5.463   4.148 -0.7273 -1.4213  2.3885
  958SOL     OW 3772   4.665   5.992   1.123  0.2634  0.2151 -0.3603
  958SOL    HW1 3773   4.627   5.907   1.086  0.5884 -0.7870  1.4344
  958SOL    HW2 3774   4.606   6.069   1.099 -0.5545 -0.6604 -1.2349
  959SOL     OW 3775   5.078   0.910   2.454 -0.6392 -0.4483 -0.3017
  959SOL    HW1 3776   5.113   1.001   2.475 -1.1968  0.1183 -1.7315
  959SOL    HW2 3777   5.116   0.844   2.519  0.7196  0.6008  0.0133
  960SOL     OW 3778   0.827   0.582   5.547  0.9556 -0.0107  0.1988
  960SOL    HW1 3779   0.835   0.575   5.448  1.7250  0.0926  0.2535
  960SOL    HW2 3780   0.909   0.546   5.591 -0.6520 -3.1114  0.9342
  961SOL     OW 3781   4.970   1.603   2.493  0.7190 -0.2253 -0.0964
  961SOL    HW1 3782   5.060   1.560   2.501  1.9238  1.9671 -0.8132
  961SOL    HW2 3783   4.967   1.682   2.554  0.2917  1.2615 -1.9579
  962SOL     OW 3784   1.500   0.572   4.454  0.1555 -0.0985  0.5165
  962SOL    HW1 3785   1.580   0.624   4.426 -0.3591  0.9469  0.9314
  962SOL    HW2 3786   1.460   0.614   4.536 -0.9997 -0.4072  0.1275
  963SOL     OW 3787   6.067   4.437   1.046 -0.3364 -0.0069 -0.5503
  963SOL    HW1 3788   6.159   4.442   1.086 -0.1442  0.3730 -1.0287
  963SOL    HW2 3789   6.046   4.523   1.000 -1.0190 -0.0166 -0.2622
  964SOL     OW 3790   5.574   6.605   3.814 -1.0646 -0.4928 -0.0791
  964SOL    HW1 3791   5.623   6.664   3.750 -1.0388 -0.1898  0.2133
  964SOL    HW2 3792   5.480   6.595   3.784 -1.5502  1.1186  0.7734
  965SOL     OW 3793   6.325   3.695   5.015 -0.3464  0.5669  0.5319
  965SOL    HW1 3794   6.389   3.769   5.037 -0.7748  1.3544 -0.7838
  965SOL    HW2 3795   6.272   3.672   5.097 -0.3611  1.8683  0.9069
  966SOL     OW 3796   6.333   6.656   2.467 -0.5055  0.1912 -0.1727
  966SOL    HW1 3797   6.283   6.585   2.517 -3.2157  0.8774 -1.7320
  966SOL    HW2 3798   6.413   6.684   2.521  0.2340 -3.3889  0.8515
  967SOL     OW 3799   3.936   6.865   0.017  0.4334 -0.3965 -0.1288
  967SOL    HW1 3800   3.948   6.893  -0.078  0.9307  0.0728  0.0698
  967SOL    HW2 3801   3.912   6.768   0.020  3.0858 -1.1429 -0.6108
  968SOL     OW 3802   4.285   6.323   0.086  0.2275 -0.1491 -0.2124
  968SOL    HW1 3803   4.314   6.362  -0.002 -1.0241  1.0368 -0.1457
  968SOL    HW2 3804   4.221   6.386   0.130  0.3945 -0.9911  1.3004
  969SOL     OW 3805   3.108   4.795   5.983 -0.8386  0.4145 -0.0801
  969SOL    HW1 3806   3.038   4.769   6.050 -0.0418 -0.2288  0.5317
  969SOL    HW2 3807   3.161   4.872   6.018 -0.4924  0.1468 -0.0015
  970SOL     OW 3808   5.655   0.233   6.167 -0.9373  0.5633  0.1138
  970SOL    HW1 3809   5.592   0.162   6.198 -2.7611  2.1585  0.2573
  970SOL    HW2 3810   5.724   0.192   6.107  0.7985 -2.0643  3.5625
  971SOL     OW 3811   5.310   2.383   3.459  0.1157 -0.4631 -0.0677
  971SOL    HW1 3812   5.308   2.451   3.386 -0.0891 -1.8120 -1.3547
  971SOL    HW2 3813   5.390   2.324   3.449  1.3574  0.7149  2.1555
  972SOL     OW 3814   0.375   0.462   0.554  0.5513  0.0471  0.1541
  972SOL    HW1 3815   0.427   0.402   0.494 -0.1879  0.3617 -0.8232
  972SOL    HW2 3816   0.391   0.558   0.529  2.1534  0.3320  2.0528
  973SOL     OW 3817   6.617   1.137   2.794  0.1039 -0.1623 -0.4555
  973SOL    HW1 3818   6.641   1.063   2.858 -1.8485  0.8240  1.5337
  973SOL    HW2 3819   6.688   1.207   2.796 -0.4089  0.3726  1.5540
  974SOL     OW 3820   1.344   2.864   2.129  0.3583  0.4080  0.1864
  974SOL    HW1 3821   1.398   2.844   2.211 -0.3652 -2.3336  0.0854
  974SOL    HW2 3822   1.247   2.857   2.151  0.1550 -1.8276 -1.1268
  975SOL     OW 3823   2.547   1.041   3.771  0.7257  0.2570  0.4409
  975SOL    HW1 3824   2.644   1.029   3.752  0.6497 -0.6611  0.5476
  975SOL    HW2 3825   2.516   1.130   3.738  1.3851  0.1441 -0.5023
  976SOL     OW 3826   6.369   2.716   4.150 -0.6044 -0.1439  0.2420
  976SOL    HW1 3827   6.423   2.634   4.169 -1.4164 -0.8238 -0.2994
  976SOL    HW2 3828   6.421   2.797   4.176  1.8342 -0.5688 -2.7893
  977SOL     OW 3829   0.288   1.597   2.931 -0.5957 -0.6835 -0.1399
  977SOL    HW1 3830   0.353   1.654   2.982  0.3464 -2.0483  0.2463
  977SOL    HW2 3831   0.214   1.568   2.992  0.1673 -1.7469  0.3332
  978SOL     OW 3832   4.599   4.376   1.213  0.1242  0.2199 -0.0855
  978SOL    HW1 3833   4.548   4.311   1.270 -1.4893  1.2280 -0.2995
  978SOL    HW2 3834   4.691   4.387   1.249  0.2366 -1.7125  0.3071
  979SOL     OW 3835   0.448   3.943   5.927  1.0379  0.1642  0.5658
  979SOL    HW1 3836   0.358   3.972   5.895  1.8484  1.2931 -0.8433
  979SOL    HW2 3837   0.438   3.882   6.005 -0.9725 -0.4219 -0.0886
  980SOL     OW 3838   4.112   0.075   3.004 -0.4637 -0.0319  0.3799
  980SOL    HW1 3839   4.127  -0.008   3.058 -0.4760 -0.6409 -0.5191
  980SOL    HW2 3840   4.167   0.150   3.041  1.1126 -0.9606  0.0429
  981SOL     OW 3841   0.729   0.616   6.713  0.4674  0.1101 -0.4207
  981SOL    HW1 3842   0.676   0.613   6.797  0.9685  0.3450 -0.0920
  981SOL    HW2 3843   0.739   0.712   6.684 -0.4076 -0.0179 -1.2059
  982SOL     OW 3844   6.119   1.712   0.194  0.1445  0.0249 -0.1820
  982SOL    HW1 3845   6.182   1.788   0.212  0.8891 -0.3134 -1.2622
  982SOL    HW2 3846   6.115   1.653   0.275  2.0247 -0.4910 -0.4100
  983SOL     OW 3847   0.375   3.872   4.250 -0.0100  0.0529 -0.1037
  983SOL    HW1 3848   0.346   3.966   4.234  0.9747  0.3808 -0.0070
  983SOL    HW2 3849   0.295   3.815   4.268 -0.5533  1.0353  0.6873
  984SOL     OW 3850   2.089   2.817   3.305 -0.0711 -0.3070  0.3067
  984SOL    HW1 3851   2.076   2.824   3.206  0.2932  0.3335  0.2977
  984SOL    HW2 3852   2.001   2.830   3.351 -0.0805  0.4262  0.1016
  985SOL     OW 3853   4.572   6.139   3.981 -0.4468 -0.0814 -0.5924
  985SOL    HW1 3854   4.646   6.198   4.012  1.3660 -1.9964 -1.1110
  985SOL    HW2 3855   4.575   6.053   4.032 -1.1150 -0.9527 -1.9873
  986SOL     OW 3856   4.190   4.675   0.827 -0.3220  0.1023 -0.1579
  986SOL    HW1 3857   4.114   4.708   0.771  1.3111  0.7422 -2.1036
  986SOL    HW2 3858   4.181   4.577   0.841 -2.0287  0.3215  0.5489
  987SOL     OW 3859   5.318   5.027   6.551  1.2966  0.4153 -0.0158
  987SOL    HW1 3860   5.223   5.035   6.520  0.7274 -1.3407  1.1056
  987SOL    HW2 3861   5.352   5.117   6.577 -1.3953  0.7476  3.1196
  988SOL     OW 3862   2.936   5.230   1.233  0.0407  0.3805  0.3198
  988SOL    HW1 3863   2.883   5.186   1.305  0.3086  1.0740  0.9573
  988SOL    HW2 3864   3.032   5.203   1.239  0.3755  1.6678  1.2562
  989SOL     OW 3865   6.615   3.608   1.266  0.3233  0.0565  0.0074
  989SOL    HW1 3866   6.666   3.693   1.275  0.4272  0.0498 -0.5014
  989SOL    HW2 3867   6.648   3.542   1.334  0.9282  0.0853 -0.2552
  990SOL     OW 3868   5.667   0.843   4.064  0.2659  0.0935 -0.1179
  990SOL    HW1 3869   5.740   0.844   3.996 -0.5935 -0.4368 -1.0725
  990SOL    HW2 3870   5.608   0.764   4.048  1.1648 -1.2077  2.4697
  991SOL     OW 3871   1.326   5.029   5.276 -0.0235 -0.0738  0.1855
  991SOL    HW1 3872   1.330   5.129   5.272  1.2339 -0.0986  0.5415
  991SOL    HW2 3873   1.416   4.991   5.257  0.2215 -1.0436  2.9161
  992SOL     OW 3874   0.470   1.684   5.754  0.5043  0.0600  0.3394
  992SOL    HW1 3875   0.545   1.618   5.744 -0.4645 -1.5938  2.9267
  992SOL    HW2 3876   0.441   1.687   5.849 -1.3871  2.1998 -0.2196
  993SOL     OW 3877   1.228   4.141   6.985 -0.1316  0.1692  0.2929
  993SOL    HW1 3878   1.129   4.130   7.000 -0.7150 -1.2499 -3.3316
  993SOL    HW2 3879   1.273   4.053   6.995  0.6612  0.6661  1.1863
  994SOL     OW 3880   2.114   6.731   1.964  0.1128  0.3080 -0.1686
  994SOL    HW1 3881   2.163   6.752   1.879  0.7525 -3.7068 -0.9828
  994SOL    HW2 3882   2.016   6.744   1.949  0.2271 -0.1455 -1.4813
  995SOL     OW 3883   4.930   4.469   6.071 -0.2190 -0.1733  0.1424
  995SOL    HW1 3884   4.917   4.373   6.046  0.3762 -0.1316 -0.3429
  995SOL    HW2 3885   4.847   4.503   6.114 -0.1685 -1.1338  1.0549
  996SOL     OW 3886   6.093   6.586   5.133  0.3706  0.1041 -0.0632
  996SOL    HW1 3887   6.004   6.598   5.177  1.5833  0.4954  2.4326
  996SOL    HW2 3888   6.093   6.501   5.080 -1.7457  0.5714 -0.9050
  997SOL     OW 3889   1.419   5.818   4.618 -0.6462 -0.4253 -0.6742
  997SOL    HW1 3890   1.388   5.724   4.604 -0.7258 -0.6801  1.0647
  997SOL    HW2 3891   1.506   5.832   4.570  0.5833 -2.1120  0.9410
  998SOL     OW 3892   3.960   6.448   2.023  0.2781  1.0540 -0.1756
  998SOL    HW1 3893   3.971   6.456   2.123  1.2768  0.1367 -0.1942
  998SOL    HW2 3894   3.909   6.365   2.002  0.9164  0.7294 -0.4625
  999SOL     OW 3895   6.696   4.303   3.296 -0.1977 -0.2185 -0.2996
  999SOL    HW1 3896   6.651   4.230   3.245 -0.3038 -0.6836  0.4457
  999SOL    HW2 3897   6.752   4.357   3.233  0.6281 -1.5056 -0.7278
 1000SOL     OW 3898   6.517   1.102   0.874  0.2051 -0.0168 -0.1004
 1000SOL    HW1 3899   6.431   1.115   0.923  0.0459  0.0328 -0.3868
 1000SOL    HW2 3900   6.589   1.154   0.919 -0.2631  1.2956 -0.7983
 1001SOL     OW 3901   3.326   6.385   2.617 -0.2570  0.5368  0.1682
 1001SOL    HW1 3902   3.409   6.380   2.562 -0.0617 -1.6653  0.5726
 1001SOL    HW2 3903   3.338   6.452   2.690  1.8851 -0.9509  1.2701
 1002SOL     OW 3904   3.603   2.963   1.351 -1.1137 -0.0660  0.0788
 1002SOL    HW1 3905   3.545   2.888   1.383  0.2334 -0.2638  2.3191
 1002SOL    HW2 3906   3.565   3.050   1.381 -0.9895 -0.0894  0.3032
 1003SOL     OW 3907   1.003   0.506   3.990 -0.2326  0.0195 -0.0608
 1003SOL    HW1 3908   1.074   0.486   3.922  2.0295  1.7948  1.6349
 1003SOL    HW2 3909   1.044   0.510   4.081 -2.8323 -0.3868  1.2350
 1004SOL     OW 3910   4.689   0.847   5.097 -0.9091 -0.2072  0.1823
 1004SOL    HW1 3911   4.640   0.760   5.087  0.4793 -0.9354 -0.4311
 1004SOL    HW2 3912   4.786   0.830   5.112 -0.4646  1.2557 -0.8189
 1005SOL     OW 3913   3.655   4.924   1.671  0.2587  0.6670 -0.1213
 1005SOL    HW1 3914   3.607   4.882   1.748  0.0186  0.9892 -0.0933
 1005SOL    HW2 3915   3.691   5.014   1.698 -0.5955  1.1779 -0.6386
 1006SOL     OW 3916   0.996   4.178   2.454 -0.3854  0.8447 -0.3980
 1006SOL    HW1 3917   0.999   4.257   2.515  1.9116 -0.8627  1.9746
 1006SOL    HW2 3918   0.930   4.111   2.489  0.4349  0.1497 -0.1410
 1007SOL     OW 3919   3.728   1.250   0.226  0.1171  0.4714  0.1907
 1007SOL    HW1 3920   3.726   1.153   0.254  0.2591  1.0366  2.3572
 1007SOL    HW2 3921   3.656   1.266   0.159 -0.4010 -1.0009  0.3451
 1008SOL     OW 3922   6.620   5.700   6.724  0.1433 -0.4401 -0.1178
 1008SOL    HW1 3923   6.522   5.685   6.712  0.2375 -1.0054 -0.2072
 1008SOL    HW2 3924   6.668   5.613   6.717  0.6433 -0.1793  0.0252
 1009SOL     OW 3925   1.257   1.150   6.005  0.5819  0.4306 -0.1283
 1009SOL    HW1 3926   1.285   1.155   6.101  0.3683  0.5315 -0.0694
 1009SOL    HW2 3927   1.159   1.130   6.000  0.6569  0.0983 -0.3302
 1010SOL     OW 3928   4.157   3.300   6.056 -0.0184 -0.2555 -0.5139
 1010SOL    HW1 3929   4.132   3.239   5.981 -0.8795 -1.8934  1.0209
 1010SOL    HW2 3930   4.075   3.325   6.107  0.6036  0.3789  0.1967
 1011SOL     OW 3931   6.721   5.452   2.710 -0.3077 -0.4486  0.1042
 1011SOL    HW1 3932   6.815   5.466   2.742 -0.1311 -0.9957 -0.1637
 1011SOL    HW2 3933   6.659   5.510   2.764  0.4460  1.9909 -1.4805
 1012SOL     OW 3934   6.470   6.141   4.038 -0.4549  0.2947  0.3817
 1012SOL    HW1 3935   6.473   6.049   4.000 -2.1570  0.4113 -0.1134
 1012SOL    HW2 3936   6.461   6.135   4.138 -2.3577 -0.1508  0.2256
 1013SOL     OW 3937   5.800   6.766   6.167 -0.7515  0.2418  0.3319
 1013SOL    HW1 3938   5.739   6.753   6.245  0.6916 -0.8185  1.3705
 1013SOL    HW2 3939   5.747   6.780   6.084 -2.4039 -1.0651  1.1052
 1014SOL     OW 3940   6.178   4.903   6.357  0.4370  0.1950 -0.1918
 1014SOL    HW1 3941   6.134   4.949   6.280 -1.4343 -1.2256 -0.0515
 1014SOL    HW2 3942   6.240   4.833   6.324  2.4582  1.9766 -0.3880
 1015SOL     OW 3943   0.947   0.483   6.574  0.1209 -0.5654  0.1177
 1015SOL    HW1 3944   1.025   0.449   6.626 -0.8383  0.6352  2.4497
 1015SOL    HW2 3945   0.881   0.527   6.635 -2.5142 -1.6595 -1.7229
 1016SOL     OW 3946   2.890   5.788   5.725  0.5394 -0.6208  0.0233
 1016SOL    HW1 3947   2.864   5.830   5.638  1.1800  0.0709  0.1553
 1016SOL    HW2 3948   2.899   5.690   5.713  1.1297 -0.4747 -0.8234
 1017SOL     OW 3949   1.920   1.113   2.077 -0.1439 -0.6561 -0.4898
 1017SOL    HW1 3950   1.893   1.208   2.064  2.0980 -0.2081 -2.5381
 1017SOL    HW2 3951   1.993   1.108   2.145 -1.5885 -1.2455  1.1235
 1018SOL     OW 3952   6.380   5.124   5.001 -0.4520 -0.7036  0.0061
 1018SOL    HW1 3953   6.460   5.171   5.039  0.8576 -0.7248 -2.4964
 1018SOL    HW2 3954   6.302   5.186   5.001  0.8875  1.1443 -1.9813
 1019SOL     OW 3955   5.853   4.132   0.320 -0.1511  0.0010 -0.1867
 1019SOL    HW1 3956   5.841   4.205   0.253  1.2818  0.1886 -0.2657
 1019SOL    HW2 3957   5.947   4.098   0.316 -0.0974 -0.1260  1.5898
 1020SOL     OW 3958   4.965   6.342   0.237  0.0578 -0.2105 -0.4591
 1020SOL    HW1 3959   4.903   6.414   0.268 -0.2128 -0.4625 -0.4119
 1020SOL    HW2 3960   4.985   6.354   0.140  0.6565  0.3993 -0.2663
 1021SOL     OW 3961   0.718   6.824   1.614 -0.1032  0.6278 -0.2124
 1021SOL    HW1 3962   0.816   6.836   1.632 -0.1227  0.7189 -0.1702
 1021SOL    HW2 3963   0.669   6.908   1.635 -0.3586  0.2215  0.9053
 1022SOL     OW 3964   2.328   5.509   0.684 -0.5041 -0.1225 -0.5822
 1022SOL    HW1 3965   2.230   5.527   0.675 -0.7067 -1.3695 -1.1289
 1022SOL    HW2 3966   2.367   5.490   0.593  0.5294  1.6310 -0.5426
 1023SOL     OW 3967   0.362   0.604   2.393 -0.2505  0.4813  0.6869
 1023SOL    HW1 3968   0.351   0.509   2.365 -0.2471  0.5196  0.5517
 1023SOL    HW2 3969   0.272   0.648   2.393  0.1503  2.1245 -5.1880
 1024SOL     OW 3970   2.565   0.251   5.569 -0.0647  0.0435 -0.2177
 1024SOL    HW1 3971   2.604   0.248   5.661  0.8701 -0.3810 -0.6134
 1024SOL    HW2 3972   2.582   0.341   5.529  2.6481 -0.8124 -1.2468
 1025SOL     OW 3973   2.859   3.475   6.638 -0.3609  0.2628 -0.3593
 1025SOL    HW1 3974   2.872   3.407   6.710 -0.4915  1.2191  0.5923
 1025SOL    HW2 3975   2.871   3.431   6.549  2.6517 -0.4004  0.2467
 1026SOL     OW 3976   1.108   3.338   0.329  0.8586 -0.3157 -0.5454
 1026SOL    HW1 3977   1.105   3.438   0.332  1.6935 -0.3097  0.6933
 1026SOL    HW2 3978   1.028   3.301   0.377  1.1495 -0.2207  0.0310
 1027SOL     OW 3979   0.254   5.910   6.192  0.1687  0.1922 -0.7163
 1027SOL    HW1 3980   0.254   5.854   6.109  0.5228  0.6084 -0.9958
 1027SOL    HW2 3981   0.161   5.945   6.207  0.1934  0.4703 -1.1774
 1028SOL     OW 3982   1.392   4.561   1.491  0.0205 -0.3159  0.3581
 1028SOL    HW1 3983   1.346   4.639   1.535  0.9595 -0.2936  1.3584
 1028SOL    HW2 3984   1.491   4.578   1.490  0.0851 -0.6904 -1.0669
 1029SOL     OW 3985   1.724   1.738   5.880  0.0134  0.0971  0.2845
 1029SOL    HW1 3986   1.781   1.737   5.962  1.3689  0.8844 -0.5926
 1029SOL    HW2 3987   1.636   1.695   5.899  0.4057  0.0041  2.0534
 1030SOL     OW 3988   2.709   3.108   0.951 -0.2740  0.0520  0.4699
 1030SOL    HW1 3989   2.788   3.165   0.928  0.3915 -1.1046 -0.2044
 1030SOL    HW2 3990   2.736   3.011   0.949 -1.9636 -0.4382 -0.8785
 1031SOL     OW 3991   3.568   1.755   1.024  0.0354  1.1741  0.5256
 1031SOL    HW1 3992   3.491   1.803   0.982  0.2916  2.6034  1.6124
 1031SOL    HW2 3993   3.654   1.790   0.986  0.2046  0.6602  0.4169
 1032SOL     OW 3994   1.907   6.901   1.374  0.0788 -0.3319 -0.1135
 1032SOL    HW1 3995   1.868   6.890   1.465 -0.0365  1.4104  0.0804
 1032SOL    HW2 3996   2.007   6.906   1.381  0.1868 -1.6615 -0.2794
 1033SOL     OW 3997   0.580   0.829   0.224  0.3672 -0.5646 -0.3945
 1033SOL    HW1 3998   0.625   0.777   0.152  0.3962 -0.0846 -0.7269
 1033SOL    HW2 3999   0.611   0.925   0.221  0.2683 -0.5097  0.1666
 1034SOL     OW 4000   3.451   1.702   3.870 -0.4716  0.0230 -0.2279
 1034SOL    HW1 4001   3.531   1.759   3.888 -1.7984  2.1030 -0.5891
 1034SOL    HW2 4002   3.368   1.751   3.897 -1.7893 -1.1190 -1.9863
 1035SOL     OW 4003   1.395   1.615   1.409  0.1893 -0.0318  0.0662
 1035SOL    HW1 4004   1.328   1.598   1.481  1.0707 -1.2251  0.6544
 1035SOL    HW2 4005   1.354   1.597   1.320 -0.5528  0.2292  0.3519
 1036SOL     OW 4006   2.844   2.471   1.464 -0.3322 -0.7352  0.4064
 1036SOL    HW1 4007   2.758   2.511   1.433  0.1654  0.0275 -0.0220
 1036SOL    HW2 4008   2.895   2.538   1.518  1.8108  0.3246 -2.6667
 1037SOL     OW 4009   1.511   2.963   1.956  0.1188  0.8271  0.2601
 1037SOL    HW1 4010   1.449   2.953   2.034 -0.5086  0.1470 -0.3224
 1037SOL    HW2 4011   1.458   2.974   1.872  0.7089 -1.6697 -0.5268
 1038SOL     OW 4012   0.737   6.307   6.756  0.3207 -0.6912 -0.0180
 1038SOL    HW1 4013   0.669   6.242   6.720  0.5747 -1.4323  0.7987
 1038SOL    HW2 4014   0.732   6.392   6.704  0.6093 -1.6700 -1.7258
 1039SOL     OW 4015   3.070   3.148   3.066 -0.0983  0.5271 -0.1871
 1039SOL    HW1 4016   3.080   3.109   2.974 -0.3997 -1.9502  0.7359
 1039SOL    HW2 4017   3.147   3.121   3.123 -1.2441 -0.3797  1.0185
 1040SOL     OW 4018   2.274   1.971   4.503 -0.7424  0.2847 -0.3699
 1040SOL    HW1 4019   2.299   1.908   4.429 -1.5908  0.4492 -0.8065
 1040SOL    HW2 4020   2.185   1.945   4.540 -1.2130  1.3549 -0.7192
 1041SOL     OW 4021   6.843   6.339   6.227  0.0901  0.1398  0.1927
 1041SOL    HW1 4022   6.800   6.287   6.154 -4.0761 -0.4863  2.7545
 1041SOL    HW2 4023   6.900   6.279   6.282 -1.5985 -0.9207  0.8617
 1042SOL     OW 4024   3.932   4.802   3.197  0.1338 -0.2390  0.0451
 1042SOL    HW1 4025   3.863   4.741   3.158  0.0427 -0.5757  0.6992
 1042SOL    HW2 4026   4.022   4.777   3.163 -0.1230  0.5876 -1.2794
 1043SOL     OW 4027   2.233   1.934   2.233  0.2630  0.2982  0.0479
 1043SOL    HW1 4028   2.197   1.877   2.159 -1.9084 -0.2440  1.4285
 1043SOL    HW2 4029   2.236   2.029   2.203  0.2672 -0.0205 -1.0203
 1044SOL     OW 4030   5.497   5.522   0.624  0.4297 -0.0462  0.1793
 1044SOL    HW1 4031   5.589   5.558   0.606 -0.3762  3.8215  2.5231
 1044SOL    HW2 4032   5.496   5.476   0.713 -0.1764  1.6233  1.0837
 1045SOL     OW 4033   2.003   2.637   2.809  0.0534 -0.4870  0.3155
 1045SOL    HW1 4034   1.983   2.704   2.738 -2.0357 -1.8211 -0.4895
 1045SOL    HW2 4035   1.949   2.554   2.791 -0.6496 -0.8400  3.5164
 1046SOL     OW 4036   2.568   0.526   6.710 -0.6501 -0.2838 -0.2993
 1046SOL    HW1 4037   2.629   0.601   6.735 -0.0991 -0.6224 -0.6281
 1046SOL    HW2 4038   2.519   0.495   6.791 -1.5130  0.9801 -0.2973
 1047SOL     OW 4039   5.196   2.897   2.935 -0.3752 -0.5441  0.4522
 1047SOL    HW1 4040   5.216   2.803   2.906 -0.8081 -0.3125 -0.6131
 1047SOL    HW2 4041   5.101   2.918   2.914  0.4323  1.0703 -1.8748
 1048SOL     OW 4042   1.745   6.945   2.642 -0.3003 -0.1301  0.7464
 1048SOL    HW1 4043   1.727   6.989   2.731  1.0148  1.7997  0.1195
 1048SOL    HW2 4044   1.831   6.894   2.647 -0.2050  0.0135  0.5697
 1049SOL     OW 4045   3.508   6.561   1.089  0.1002  0.2271  0.2206
 1049SOL    HW1 4046   3.525   6.468   1.056 -1.2047 -0.2696  0.8614
 1049SOL    HW2 4047   3.565   6.578   1.169  1.3096  0.4733 -0.6705
 1050SOL     OW 4048   3.827   1.253   1.988 -0.5865 -0.1572 -0.0056
 1050SOL    HW1 4049   3.902   1.296   1.938  1.5359 -1.6803  1.7050
 1050SOL    HW2 4050   3.804   1.166   1.944 -0.6094 -0.1908  0.0723
 1051SOL     OW 4051   1.247   2.462   6.832 -0.1082  0.2649  0.2970
 1051SOL    HW1 4052   1.249   2.427   6.738 -0.6575  2.1537 -0.4611
 1051SOL    HW2 4053   1.236   2.385   6.896  0.8395 -1.1034 -1.1217
 1052SOL     OW 4054   3.009   1.903   6.963 -0.1773 -0.2797 -0.0634
 1052SOL    HW1 4055   3.003   1.933   7.058 -1.5793 -0.0571 -0.1948
 1052SOL    HW2 4056   3.096   1.933   6.924 -0.4565  1.4717  0.5487
 1053SOL     OW 4057   5.235   1.234   5.476 -0.3071 -0.1109 -0.3106
 1053SOL    HW1 4058   5.154   1.291   5.483 -0.8462 -0.4581 -2.8083
 1053SOL    HW2 4059   5.214   1.142   5.509 -0.9105 -0.1761 -0.8618
 1054SOL     OW 4060   4.070   4.920   6.451 -0.3117  0.1994 -0.7667
 1054SOL    HW1 4061   4.120   4.853   6.506  0.0472  0.5254 -0.6882
 1054SOL    HW2 4062   3.978   4.932   6.488 -0.2477  0.0309 -0.5517
 1055SOL     OW 4063   4.404   4.875   6.154  0.2023  0.2774 -0.2262
 1055SOL    HW1 4064   4.498   4.886   6.186  0.0153  0.1438  0.3924
 1055SOL    HW2 4065   4.352   4.958   6.173  0.0877  0.1952 -0.1787
 1056SOL     OW 4066   4.498   3.884   1.199 -0.7123  0.3241 -0.4866
 1056SOL    HW1 4067   4.408   3.926   1.209 -0.5831  0.4393  0.2019
 1056SOL    HW2 4068   4.529   3.896   1.104 -1.5350  0.0389 -0.8040
 1057SOL     OW 4069   3.930   2.808   5.297 -0.2552 -0.1329 -0.1258
 1057SOL    HW1 4070   3.983   2.725   5.277 -0.3438 -0.2124 -0.0348
 1057SOL    HW2 4071   3.858   2.819   5.228 -1.9981 -1.6365  1.3623
 1058SOL     OW 4072   2.163   0.536   1.333  0.4717  0.3358 -0.1822
 1058SOL    HW1 4073   2.141   0.611   1.395 -0.3488 -1.2298  1.4857
 1058SOL    HW2 4074   2.191   0.456   1.385  0.3932 -0.8471 -1.8710
 1059SOL     OW 4075   3.449   5.541   1.840  0.9068  0.4922  0.3775
 1059SOL    HW1 4076   3.369   5.517   1.785  2.2305 -2.0969 -0.6153
 1059SOL    HW2 4077   3.531   5.505   1.796  2.3459  0.7630  2.6809
 1060SOL     OW 4078   5.666   6.770   5.929  0.1450  0.4272 -0.0786
 1060SOL    HW1 4079   5.745   6.768   5.868 -0.6112 -0.5299 -1.0623
 1060SOL    HW2 4080   5.604   6.843   5.901 -0.0588  0.1782 -0.2879
 1061SOL     OW 4081   6.304   3.150   6.237  0.4128  0.1231 -0.2904
 1061SOL    HW1 4082   6.354   3.217   6.292 -0.5717  0.1057  0.6626
 1061SOL    HW2 4083   6.299   3.064   6.287  1.7536 -0.7238 -1.5459
 1062SOL     OW 4084   2.997   5.148   4.686 -0.1381  0.5962 -0.6907
 1062SOL    HW1 4085   2.947   5.121   4.604 -0.9042 -0.9414  0.2143
 1062SOL    HW2 4086   2.943   5.214   4.738 -0.3755  0.3622 -0.6400
 1063SOL     OW 4087   3.159   5.429   4.650 -0.2381  0.0439  0.3723
 1063SOL    HW1 4088   3.155   5.354   4.716  0.2442  0.8237  1.3151
 1063SOL    HW2 4089   3.210   5.400   4.569 -1.3728 -1.1304  0.0438
 1064SOL     OW 4090   0.575   3.251   6.133 -0.0495 -0.3841 -0.4604
 1064SOL    HW1 4091   0.659   3.219   6.089  1.5540  2.7342  0.0555
 1064SOL    HW2 4092   0.597   3.321   6.200 -3.1036  0.5333 -0.2699
 1065SOL     OW 4093   6.462   1.065   5.313  0.0359  0.1475  0.0424
 1065SOL    HW1 4094   6.562   1.066   5.312  0.0900  0.3776  2.3809
 1065SOL    HW2 4095   6.430   0.989   5.256  1.6373 -1.5913  1.3205
 1066SOL     OW 4096   4.459   5.956   6.977 -0.0353  0.3141 -0.2411
 1066SOL    HW1 4097   4.366   5.982   7.005 -0.5979 -1.5572 -0.2435
 1066SOL    HW2 4098   4.483   5.869   7.020  0.3511 -1.0107 -2.9265
 1067SOL     OW 4099   2.204   1.413   1.960 -0.2121  0.3996  0.5117
 1067SOL    HW1 4100   2.133   1.456   2.016  0.7040  1.9114  0.5502
 1067SOL    HW2 4101   2.168   1.395   1.869 -0.6811  1.0786  0.5519
 1068SOL     OW 4102   5.479   5.421   0.877  0.0885  0.6188  0.4100
 1068SOL    HW1 4103   5.549   5.478   0.919  0.0057  0.1392  1.2117
 1068SOL    HW2 4104   5.463   5.340   0.933 -0.4339  0.2496 -0.2530
 1069SOL     OW 4105   5.978   3.797   1.023 -0.1466  0.7094  0.4784
 1069SOL    HW1 4106   5.989   3.811   0.925  1.2776 -0.2632  0.4711
 1069SOL    HW2 4107   5.995   3.884   1.070 -0.1227  1.0207 -0.0948
 1070SOL     OW 4108   1.746   6.771   3.946  0.1332  0.0348 -0.0229
 1070SOL    HW1 4109   1.844   6.761   3.960  0.1950  1.1120  0.4256
 1070SOL    HW2 4110   1.711   6.693   3.893  1.4090  0.1946 -1.1463
 1071SOL     OW 4111   6.543   5.605   5.110  0.5488  0.7021  0.6815
 1071SOL    HW1 4112   6.546   5.681   5.175 -1.2463  0.5225  1.0300
 1071SOL    HW2 4113   6.543   5.640   5.017  0.3880  1.0953  0.8286
 1072SOL     OW 4114   3.623   0.775   1.127 -0.1350  0.5288  0.3020
 1072SOL    HW1 4115   3.581   0.787   1.216  0.9833  2.4904  0.6290
 1072SOL    HW2 4116   3.721   0.793   1.134  0.0801  0.1018 -1.2101
 1073SOL     OW 4117   0.088   4.361   1.923 -0.1913  0.1466  0.3313
 1073SOL    HW1 4118   0.055   4.359   2.017  1.4792  1.1581  0.9868
 1073SOL    HW2 4119   0.065   4.275   1.877 -2.7571  0.3957  1.0054
 1074SOL     OW 4120   4.280   5.679   2.248  0.3247  0.3309  0.0284
 1074SOL    HW1 4121   4.245   5.588   2.225 -0.6012  0.0970  2.1323
 1074SOL    HW2 4122   4.257   5.743   2.176  2.5973 -1.3897 -2.4306
 1075SOL     OW 4123   6.507   4.717   5.309  0.1651  0.6809  0.4551
 1075SOL    HW1 4124   6.554   4.749   5.391 -2.2811 -1.1717  2.7683
 1075SOL    HW2 4125   6.420   4.766   5.300 -0.8938 -1.0888  0.6766
 1076SOL     OW 4126   1.261   4.028   4.587 -0.0642 -0.7269 -0.0033
 1076SOL    HW1 4127   1.228   4.014   4.680 -1.0227 -2.2361 -0.5387
 1076SOL    HW2 4128   1.300   3.943   4.551  0.2116 -0.1944 -1.0152
 1077SOL     OW 4129   1.183   0.316   1.255 -0.3414  0.9158  0.1156
 1077SOL    HW1 4130   1.099   0.269   1.227  0.6251 -0.8376  0.0206
 1077SOL    HW2 4131   1.216   0.373   1.180  0.1238 -0.7128 -0.9836
 1078SOL     OW 4132   6.996   6.583   3.561  1.1594  0.1632 -0.2265
 1078SOL    HW1 4133   6.982   6.657   3.627  1.1198  0.7842 -0.9192
 1078SOL    HW2 4134   6.926   6.588   3.490  0.9864 -0.7147 -0.1386
 1079SOL     OW 4135   1.282   6.157   1.681  0.2876 -0.0601 -0.2541
 1079SOL    HW1 4136   1.251   6.246   1.715 -0.0350 -0.0990 -0.4484
 1079SOL    HW2 4137   1.223   6.085   1.716  0.2178 -0.1436 -0.5436
 1080SOL     OW 4138   3.235   0.342   6.477 -0.2906  0.0018 -0.9572
 1080SOL    HW1 4139   3.189   0.254   6.466  0.2442 -0.6576  1.4218
 1080SOL    HW2 4140   3.319   0.342   6.423 -0.8119 -0.5208 -1.8002
 1081SOL     OW 4141   1.344   5.724   3.441 -0.0637 -1.5220  0.8477
 1081SOL    HW1 4142   1.263   5.748   3.494  0.2397 -1.2600  1.1954
 1081SOL    HW2 4143   1.342   5.772   3.353 -0.0957 -1.2139  1.0155
 1082SOL     OW 4144   3.781   0.563   6.896 -0.3738  0.8867 -0.1689
 1082SOL    HW1 4145   3.736   0.597   6.814 -1.6218 -0.5440 -0.1428
 1082SOL    HW2 4146   3.732   0.597   6.977  0.8356  2.2719  0.0110
 1083SOL     OW 4147   3.810   4.846   2.399 -0.6018 -0.1062 -0.3073
 1083SOL    HW1 4148   3.717   4.844   2.436 -1.3040 -0.0460 -1.9778
 1083SOL    HW2 4149   3.815   4.786   2.319  0.9657 -0.5451  0.0781
 1084SOL     OW 4150   4.014   0.535   5.540 -0.2093 -0.2405 -0.1215
 1084SOL    HW1 4151   3.920   0.564   5.521 -1.0486 -1.5262  1.7608
 1084SOL    HW2 4152   4.064   0.609   5.585  0.2292  1.0037 -2.5039
 1085SOL     OW 4153   0.915   4.443   5.679  0.3406 -0.1243  0.5407
 1085SOL    HW1 4154   1.015   4.452   5.673  0.4682 -1.1908  0.7349
 1085SOL    HW2 4155   0.891   4.346   5.672 -0.7607  0.1948 -0.4806
 1086SOL     OW 4156   6.258   3.406   2.451  0.1990 -0.7475  0.9853
 1086SOL    HW1 4157   6.299   3.486   2.494 -2.1713  1.6204 -0.7870
 1086SOL    HW2 4158   6.318   3.373   2.378  0.7574  0.1557  1.0187
 1087SOL     OW 4159   4.147   0.955   6.443 -0.1360 -0.4447 -0.3344
 1087SOL    HW1 4160   4.211   0.967   6.519  1.0168 -1.6455 -1.0708
 1087SOL    HW2 4161   4.153   1.034   6.382  0.2174 -0.2701 -0.0775
 1088SOL     OW 4162   4.863   3.197   3.188 -0.1044 -0.1528 -0.5124
 1088SOL    HW1 4163   4.857   3.245   3.275 -0.5459  1.6383 -1.4818
 1088SOL    HW2 4164   4.934   3.239   3.131  0.8185 -1.8774 -0.7005
 1089SOL     OW 4165   6.287   6.951   2.913  0.2382 -0.1855 -0.3689
 1089SOL    HW1 4166   6.232   6.868   2.905  0.8258 -0.7178  0.8387
 1089SOL    HW2 4167   6.226   7.030   2.918 -0.5475 -0.8408  2.0098
 1090SOL     OW 4168   5.009   1.492   5.050 -0.5088 -0.1166  0.1528
 1090SOL    HW1 4169   5.003   1.592   5.061  1.7577  0.1285 -0.4554
 1090SOL    HW2 4170   5.017   1.449   5.140  2.6295  0.6521  0.3630
 1091SOL     OW 4171   2.116   3.328   2.773 -0.3098 -0.1222  0.0757
 1091SOL    HW1 4172   2.100   3.376   2.859  2.2051  1.3585 -0.1888
 1091SOL    HW2 4173   2.142   3.394   2.702 -0.2567 -1.5253 -1.2633
 1092SOL     OW 4174   1.240   5.931   6.479  0.6639 -0.5388  0.1593
 1092SOL    HW1 4175   1.159   5.879   6.450 -1.2479  2.0128  0.5918
 1092SOL    HW2 4176   1.300   5.946   6.401  0.1427 -1.4458 -0.4399
 1093SOL     OW 4177   1.542   2.470   3.338 -0.0258  0.4898 -0.8309
 1093SOL    HW1 4178   1.526   2.562   3.375 -0.7885  0.3551 -0.8131
 1093SOL    HW2 4179   1.623   2.430   3.382  0.1514  1.0434 -0.6423
 1094SOL     OW 4180   2.239   5.517   4.295  0.8910 -0.3314 -0.8464
 1094SOL    HW1 4181   2.204   5.440   4.242  1.2589 -0.8076 -0.4160
 1094SOL    HW2 4182   2.170   5.547   4.360  0.8290 -0.4504 -0.8572
 1095SOL     OW 4183   5.734   3.164   2.413 -0.4470  0.1079  0.4734
 1095SOL    HW1 4184   5.677   3.223   2.355  0.2704 -0.6828 -1.1050
 1095SOL    HW2 4185   5.750   3.077   2.366  1.6595  0.1228  1.0578
 1096SOL     OW 4186   3.236   5.855   2.089  0.0808 -0.1576 -0.2204
 1096SOL    HW1 4187   3.319   5.896   2.050 -0.6315  0.3533 -1.2097
 1096SOL    HW2 4188   3.169   5.839   2.017  0.0475 -2.4328  0.2397
 1097SOL     OW 4189   2.912   5.124   3.679  0.0122  0.2949 -0.1466
 1097SOL    HW1 4190   2.960   5.203   3.641 -0.1756  0.6405  0.3292
 1097SOL    HW2 4191   2.972   5.076   3.744  0.3535 -0.3280 -0.9114
 1098SOL     OW 4192   0.194   3.067   6.667  1.0776  0.0451 -0.2038
 1098SOL    HW1 4193   0.113   3.083   6.611 -0.1098 -1.2756  1.0454
 1098SOL    HW2 4194   0.234   3.154   6.694  1.3133  0.7114 -2.5237
 1099SOL     OW 4195   3.562   0.592   6.223  0.3026  0.1714  0.2544
 1099SOL    HW1 4196   3.470   0.603   6.261  0.7266  2.4378  0.7702
 1099SOL    HW2 4197   3.630   0.610   6.293  1.1344 -0.0521 -0.4755
 1100SOL     OW 4198   5.335   1.665   5.321  0.2712 -0.3558 -0.2647
 1100SOL    HW1 4199   5.368   1.576   5.288  1.0740 -0.0990 -0.1947
 1100SOL    HW2 4200   5.312   1.723   5.243 -1.5209 -1.0580 -0.3019
 1101SOL     OW 4201   5.484   3.172   6.318 -0.1538  0.6064 -0.6616
 1101SOL    HW1 4202   5.513   3.209   6.407  1.3151  1.1592 -1.3299
 1101SOL    HW2 4203   5.449   3.079   6.330  1.7972 -0.0610  0.2838
 1102SOL     OW 4204   2.064   6.906   2.507  0.1553  0.6497 -0.7137
 1102SOL    HW1 4205   2.085   6.836   2.439 -1.3444  0.0509 -0.6127
 1102SOL    HW2 4206   2.045   6.863   2.595  2.3442  1.4274  0.2290
 1103SOL     OW 4207   4.744   6.131   6.413  0.3816  0.2215 -0.4771
 1103SOL    HW1 4208   4.820   6.096   6.467  2.1713  1.3570 -2.1122
 1103SOL    HW2 4209   4.778   6.200   6.350 -2.4820  2.7614  0.5529
 1104SOL     OW 4210   6.647   2.432   3.839 -0.1836  0.1487 -0.1699
 1104SOL    HW1 4211   6.571   2.368   3.853 -1.8219  1.7308 -1.3921
 1104SOL    HW2 4212   6.669   2.437   3.742 -0.4866  1.8381 -0.1750
 1105SOL     OW 4213   2.973   0.743   5.266  0.5612  0.0049  0.1717
 1105SOL    HW1 4214   2.986   0.840   5.284 -2.0068  0.3351  0.5951
 1105SOL    HW2 4215   3.062   0.698   5.258  1.8055  2.4057 -0.2999
 1106SOL     OW 4216   1.229   1.710   1.620  0.2424  0.1647 -0.1961
 1106SOL    HW1 4217   1.202   1.792   1.570 -2.8983  1.1434  2.7485
 1106SOL    HW2 4218   1.322   1.721   1.654  0.0820  2.2885 -0.3340
 1107SOL     OW 4219   1.334   0.614   6.058  0.2688 -0.1292  0.0286
 1107SOL    HW1 4220   1.373   0.595   5.969 -0.1503 -1.2866  0.0766
 1107SOL    HW2 4221   1.295   0.706   6.059  0.0862 -0.1916 -1.0445
 1108SOL     OW 4222   3.407   1.572   4.959  0.6119  0.2061 -0.3751
 1108SOL    HW1 4223   3.500   1.580   4.994  1.5271 -1.4740 -2.2507
 1108SOL    HW2 4224   3.382   1.655   4.910  1.1790  0.6024 -0.0010
 1109SOL     OW 4225   5.065   2.127   5.874 -0.1971  0.0918  0.1328
 1109SOL    HW1 4226   5.139   2.195   5.877  0.7829 -0.9658  1.6813
 1109SOL    HW2 4227   5.074   2.072   5.790 -0.1148  0.8998 -0.4017
 1110SOL     OW 4228   2.025   0.930   2.539 -0.2025  0.0639  0.3661
 1110SOL    HW1 4229   2.054   1.023   2.561 -2.1285  0.3582  1.9672
 1110SOL    HW2 4230   2.073   0.865   2.599  0.9260  0.0075 -0.5558
 1111SOL     OW 4231   5.889   2.035   6.011 -0.3481  0.0101  0.1658
 1111SOL    HW1 4232   5.962   2.021   6.077 -0.9493 -1.4544  0.5571
 1111SOL    HW2 4233   5.884   1.955   5.950 -0.5642  0.8205 -0.9152
 1112SOL     OW 4234   6.491   6.472   1.654  0.6662 -0.4338 -0.0344
 1112SOL    HW1 4235   6.477   6.501   1.559  2.1304 -0.4055 -0.2675
 1112SOL    HW2 4236   6.407   6.433   1.690  0.1253 -0.5627 -1.3892
 1113SOL     OW 4237   5.129   3.055   1.333  0.0741 -0.3758  0.6945
 1113SOL    HW1 4238   5.093   2.964   1.312  0.2199 -0.2885  0.0494
 1113SOL    HW2 4239   5.064   3.125   1.304 -0.4016 -0.2846  1.9260
 1114SOL     OW 4240   4.485   3.468   5.810  0.2676  0.5795  0.3763
 1114SOL    HW1 4241   4.482   3.393   5.744  0.0351  1.0881 -0.2024
 1114SOL    HW2 4242   4.561   3.453   5.873  0.1146 -0.2301  0.3813
 1115SOL     OW 4243   3.191   4.635   6.324  0.1998 -0.2782  0.1864
 1115SOL    HW1 4244   3.113   4.661   6.267 -0.4708 -1.0900  0.7084
 1115SOL    HW2 4245   3.185   4.681   6.413 -1.0965 -2.2341  1.1862
 1116SOL     OW 4246   3.929   0.336   6.954 -0.6927  0.1294  0.3053
 1116SOL    HW1 4247   3.857   0.267   6.963 -0.3738  0.0345  2.5722
 1116SOL    HW2 4248   3.888   0.422   6.924 -1.6704 -0.0817  0.9885
 1117SOL     OW 4249   0.931   2.850   6.437 -0.1552 -0.0105  0.2775
 1117SOL    HW1 4250   0.885   2.937   6.455 -0.0028  0.2461 -0.5204
 1117SOL    HW2 4251   1.000   2.864   6.366 -0.1874 -0.8091  0.0870
 1118SOL     OW 4252   6.160   6.188   6.007  0.0082 -0.0351  0.0044
 1118SOL    HW1 4253   6.249   6.225   6.033 -0.0587  0.3869 -0.3343
 1118SOL    HW2 4254   6.130   6.121   6.074  1.1872 -1.1673 -0.5703
 1119SOL     OW 4255   4.157   5.566   3.795 -0.0845  0.3636  0.6332
 1119SOL    HW1 4256   4.113   5.648   3.759  0.4939  0.8854  1.0828
 1119SOL    HW2 4257   4.107   5.534   3.876 -0.3885  0.1903  0.3779
 1120SOL     OW 4258   0.161   4.168   0.869  0.0681  0.2024  0.1642
 1120SOL    HW1 4259   0.219   4.250   0.869  0.1406  0.2316  2.6200
 1120SOL    HW2 4260   0.218   4.087   0.877 -0.1143  0.0984  0.4448
 1121SOL     OW 4261   0.004   2.744   4.253  0.6616 -0.0862  0.8025
 1121SOL    HW1 4262  -0.033   2.690   4.178 -1.3949  2.1416  0.0878
 1121SOL    HW2 4263   0.104   2.740   4.251  0.6161 -1.3210 -1.0768
 1122SOL     OW 4264   6.999   0.574   3.322  0.5816 -0.2409 -0.5249
 1122SOL    HW1 4265   7.065   0.649   3.325  2.2119 -1.6162 -0.4563
 1122SOL    HW2 4266   7.045   0.488   3.345 -1.7980 -0.9302  2.2550
 1123SOL     OW 4267   5.088   0.218   3.738 -0.6732  0.4522 -0.0413
 1123SOL    HW1 4268   5.087   0.216   3.838  0.0934  1.4929 -0.0006
 1123SOL    HW2 4269   5.110   0.126   3.704 -0.3227  0.2286  0.7625
 1124SOL     OW 4270   2.256   2.389   3.791  0.1055  0.1306 -0.2251
 1124SOL    HW1 4271   2.189   2.379   3.718  0.8544 -0.9985 -0.7772
 1124SOL    HW2 4272   2.223   2.341   3.873  0.2511 -0.4571 -0.5071
 1125SOL     OW 4273   2.617   2.474   1.949 -0.8633  0.6277  0.3828
 1125SOL    HW1 4274   2.657   2.554   1.905 -1.4568  1.4231  1.2614
 1125SOL    HW2 4275   2.690   2.410   1.974 -0.4395  0.5595 -0.9266
 1126SOL     OW 4276   4.388   5.330   2.852  0.1132 -0.3780  0.0996
 1126SOL    HW1 4277   4.465   5.393   2.853 -0.7181  0.6466  1.3774
 1126SOL    HW2 4278   4.320   5.359   2.918 -1.4004 -1.2501 -1.0157
 1127SOL     OW 4279   0.528   6.580   2.036  0.8587 -0.4639 -0.4755
 1127SOL    HW1 4280   0.534   6.680   2.028  2.4802 -0.3025  1.7177
 1127SOL    HW2 4281   0.617   6.544   2.063 -0.5372 -2.0394  2.4629
 1128SOL     OW 4282   4.787   2.430   5.244  0.0484  0.3442  0.4645
 1128SOL    HW1 4283   4.733   2.484   5.179  0.4432  1.1158  0.7645
 1128SOL    HW2 4284   4.741   2.428   5.333 -0.5270 -0.7723  0.1638
 1129SOL     OW 4285   2.806   6.938   6.338 -0.6171  0.1935  0.6622
 1129SOL    HW1 4286   2.742   6.964   6.266  0.4449  0.7650 -0.0986
 1129SOL    HW2 4287   2.755   6.917   6.422 -1.6936  2.4567  0.6461
 1130SOL     OW 4288   1.447   4.654   1.949  0.7750  0.8514  0.5943
 1130SOL    HW1 4289   1.529   4.682   1.899  0.7226 -0.0316 -0.0089
 1130SOL    HW2 4290   1.461   4.563   1.988 -0.6075 -0.2099 -1.2278
 1131SOL     OW 4291   2.168   5.471   5.366  0.3006  0.2219 -0.4000
 1131SOL    HW1 4292   2.212   5.382   5.382 -0.6857 -0.2407 -0.1770
 1131SOL    HW2 4293   2.077   5.470   5.407 -0.2410  0.8799 -1.5728
 1132SOL     OW 4294   1.917   0.309   2.927  0.1681 -0.3534  0.1705
 1132SOL    HW1 4295   1.891   0.322   3.023 -0.3897 -0.7589  0.0773
 1132SOL    HW2 4296   2.017   0.305   2.920  0.2289  0.1383  0.6745
 1133SOL     OW 4297   4.151   6.405   5.052  0.5564  0.3066 -0.1798
 1133SOL    HW1 4298   4.223   6.474   5.057  0.2392  0.5971  0.6317
 1133SOL    HW2 4299   4.121   6.395   4.958  1.4258  0.4213 -0.4826
 1134SOL     OW 4300   3.248   5.917   1.401  0.1028 -0.5783  0.3123
 1134SOL    HW1 4301   3.271   5.944   1.494 -0.3956 -0.7893  0.4992
 1134SOL    HW2 4302   3.325   5.869   1.360  1.0118  1.0696 -0.0130
 1135SOL     OW 4303   2.230   6.764   3.106  0.1639  0.0232 -0.5608
 1135SOL    HW1 4304   2.318   6.717   3.108 -0.3833 -1.0552 -1.1233
 1135SOL    HW2 4305   2.171   6.721   3.038 -0.2335  1.7670 -1.3775
 1136SOL     OW 4306   1.726   6.320   2.233 -0.0411  0.3507  0.2701
 1136SOL    HW1 4307   1.750   6.261   2.156  0.2170  3.2326 -2.0283
 1136SOL    HW2 4308   1.627   6.326   2.241 -0.0714  0.3927 -0.1181
 1137SOL     OW 4309   1.168   5.143   5.780  0.3192  0.5552 -0.5882
 1137SOL    HW1 4310   1.195   5.183   5.693 -0.0909  1.9853 -0.0933
 1137SOL    HW2 4311   1.150   5.216   5.846  0.1655 -0.4841  0.5604
 1138SOL     OW 4312   0.273   2.219   6.314 -0.1697  0.4983 -0.0796
 1138SOL    HW1 4313   0.364   2.238   6.350 -0.5002 -0.3349  1.3004
 1138SOL    HW2 4314   0.266   2.252   6.220  1.2577  1.3571  0.0921
 1139SOL     OW 4315   2.430   5.257   5.177  0.1516  0.2455 -0.4439
 1139SOL    HW1 4316   2.379   5.206   5.246 -0.3012  2.2707  0.7693
 1139SOL    HW2 4317   2.516   5.209   5.158  0.2646 -0.4068  1.4713
 1140SOL     OW 4318   2.830   0.853   0.246  0.1871  0.1692  0.0077
 1140SOL    HW1 4319   2.761   0.925   0.258 -1.7626 -1.5020 -0.4628
 1140SOL    HW2 4320   2.864   0.856   0.152  1.5621  1.6179  0.5086
 1141SOL     OW 4321   6.217   5.713   0.203 -0.1379  0.4321  0.5448
 1141SOL    HW1 4322   6.196   5.615   0.200 -0.9786  0.6232 -0.4256
 1141SOL    HW2 4323   6.267   5.738   0.120 -0.3241  0.9064  0.5757
 1142SOL     OW 4324   6.404   5.393   2.389  0.0464  0.1116  0.1440
 1142SOL    HW1 4325   6.374   5.308   2.433  1.5839  0.8190  2.7346
 1142SOL    HW2 4326   6.497   5.381   2.353 -0.3460  0.2454 -0.9638
 1143SOL     OW 4327   6.698   5.539   6.067 -0.4919  0.5673  0.1354
 1143SOL    HW1 4328   6.632   5.585   6.127 -1.9541 -1.7726  0.4241
 1143SOL    HW2 4329   6.682   5.567   5.972 -2.7300 -0.7610  0.0423
 1144SOL     OW 4330   4.096   3.611   1.097  0.8302  0.3031 -0.5384
 1144SOL    HW1 4331   4.003   3.644   1.076 -0.0906 -1.9896 -0.3513
 1144SOL    HW2 4332   4.120   3.639   1.190  0.0153  0.2969 -0.3112
 1145SOL     OW 4333   0.477   0.087   0.070 -0.7083 -0.2362  0.2557
 1145SOL    HW1 4334   0.402   0.093   0.135 -1.2242  2.0437 -0.4490
 1145SOL    HW2 4335   0.441   0.084  -0.023 -0.1395  4.2706 -0.3510
 1146SOL     OW 4336   1.561   1.304   1.226  0.5839  0.4862  0.1578
 1146SOL    HW1 4337   1.635   1.307   1.159 -0.4381 -0.1450 -1.0503
 1146SOL    HW2 4338   1.585   1.360   1.306  2.1852  0.5755 -0.3625
 1147SOL     OW 4339   2.604   5.597   0.124 -0.4446 -0.3972 -0.4091
 1147SOL    HW1 4340   2.601   5.630   0.218 -2.5184 -0.1289 -0.5362
 1147SOL    HW2 4341   2.529   5.532   0.109  1.3087 -2.3656 -1.2193
 1148SOL     OW 4342   3.464   5.712   4.091 -0.2012 -0.0941  0.0789
 1148SOL    HW1 4343   3.491   5.751   4.003 -0.7995 -0.7936 -0.4347
 1148SOL    HW2 4344   3.490   5.615   4.093 -2.5852 -0.8326 -0.4649
 1149SOL     OW 4345   3.968   2.064   1.640  0.2264 -0.0403  0.1277
 1149SOL    HW1 4346   3.919   2.145   1.607 -0.6259 -0.2073  0.9415
 1149SOL    HW2 4347   4.058   2.060   1.598 -0.1885  0.6670 -0.8572
 1150SOL     OW 4348   0.955   2.898   0.157 -0.5086  0.2602  0.5175
 1150SOL    HW1 4349   0.980   2.995   0.152  0.2201  0.0755  0.4096
 1150SOL    HW2 4350   0.856   2.889   0.161 -0.5582  1.1098  2.3149
 1151SOL     OW 4351   5.836   5.719   3.329  0.0674 -0.4538 -0.0142
 1151SOL    HW1 4352   5.911   5.669   3.372  1.2296  0.1305 -1.2588
 1151SOL    HW2 4353   5.848   5.817   3.345  0.8550 -0.1602 -2.0308
 1152SOL     OW 4354   4.093   5.372   5.077 -0.1297  0.2313 -0.2873
 1152SOL    HW1 4355   4.154   5.368   5.156  2.3156 -4.2178 -2.0252
 1152SOL    HW2 4356   4.135   5.427   5.005 -0.0792  0.4162 -0.1183
 1153SOL     OW 4357   5.632   1.977   1.443  0.2680 -0.4426 -0.1202
 1153SOL    HW1 4358   5.553   1.945   1.391 -1.7415  0.5348  2.1526
 1153SOL    HW2 4359   5.693   1.900   1.462 -0.5899 -1.4042 -1.1287
 1154SOL     OW 4360   0.655   3.185   0.350  0.2789  0.2154 -0.7465
 1154SOL    HW1 4361   0.597   3.217   0.425 -0.2449 -1.6970 -0.2654
 1154SOL    HW2 4362   0.751   3.201   0.373  0.4402 -3.2487  2.0436
 1155SOL     OW 4363   5.567   6.230   4.242  0.3957 -0.1356 -0.2791
 1155SOL    HW1 4364   5.469   6.240   4.263  0.1110  0.0634 -1.6112
 1155SOL    HW2 4365   5.614   6.316   4.261  0.2060 -0.0487 -0.1959
 1156SOL     OW 4366   3.788   1.225   3.852  0.2997 -0.6815  0.0153
 1156SOL    HW1 4367   3.791   1.226   3.752  0.2467  0.0564  0.0127
 1156SOL    HW2 4368   3.707   1.274   3.884  1.2366  0.6847  0.4231
 1157SOL     OW 4369   2.107   6.889   0.497  0.2756 -0.1229  0.5604
 1157SOL    HW1 4370   2.116   6.945   0.580  1.4251  0.6219 -0.0350
 1157SOL    HW2 4371   2.156   6.933   0.422 -0.4146 -0.9922 -0.4201
 1158SOL     OW 4372   6.029   4.401   2.364 -0.1430  0.1971  0.6949
 1158SOL    HW1 4373   6.086   4.319   2.366 -1.1385 -0.5106  1.0906
 1158SOL    HW2 4374   6.086   4.481   2.347  1.2231 -0.2453  2.8126
 1159SOL     OW 4375   6.160   0.166   6.384 -0.4650 -0.3510 -0.3235
 1159SOL    HW1 4376   6.218   0.085   6.392 -0.2165 -0.3495 -1.8252
 1159SOL    HW2 4377   6.167   0.221   6.467  1.8358 -0.2613 -0.5250
 1160SOL     OW 4378   4.056   2.019   6.801  0.2666 -0.7455  0.4465
 1160SOL    HW1 4379   4.152   2.029   6.829 -0.1251 -1.0782  1.9849
 1160SOL    HW2 4380   4.016   2.110   6.789 -0.3266 -0.3793  3.9393
 1161SOL     OW 4381   6.120   4.073   2.542  0.1437  0.5139  0.0223
 1161SOL    HW1 4382   6.212   4.055   2.509  0.9076  2.5138  0.8757
 1161SOL    HW2 4383   6.057   4.083   2.465  1.1315  1.4244 -0.6872
 1162SOL     OW 4384   1.215   2.663   3.901 -0.3034 -0.7073 -0.0382
 1162SOL    HW1 4385   1.292   2.686   3.959 -0.5030 -0.5826  0.1804
 1162SOL    HW2 4386   1.178   2.574   3.929 -1.0921 -0.1473  0.7645
 1163SOL     OW 4387   1.199   3.069   1.130  0.0905 -0.1130 -0.2768
 1163SOL    HW1 4388   1.254   3.016   1.195 -0.1942 -1.2883 -0.9673
 1163SOL    HW2 4389   1.244   3.157   1.112  1.4522 -0.8016 -0.3788
 1164SOL     OW 4390   4.361   2.919   6.372 -0.1169  0.2236 -0.1650
 1164SOL    HW1 4391   4.353   3.005   6.323 -0.6545  0.0457 -0.4003
 1164SOL    HW2 4392   4.446   2.873   6.345 -0.4104  0.1232 -0.9386
 1165SOL     OW 4393   4.929   6.131   3.962  0.0895 -0.1469 -0.4551
 1165SOL    HW1 4394   4.864   6.203   3.985  0.9703  0.3569  0.5168
 1165SOL    HW2 4395   4.882   6.042   3.961 -0.9674  0.3948 -1.5078
 1166SOL     OW 4396   3.499   4.480   5.638 -0.5170 -0.5887  0.0640
 1166SOL    HW1 4397   3.411   4.527   5.633 -0.4864 -0.6103 -1.0565
 1166SOL    HW2 4398   3.508   4.419   5.559  0.6701 -0.2958 -0.0421
 1167SOL     OW 4399   6.202   5.526   2.922  0.7135 -0.0882  0.1561
 1167SOL    HW1 4400   6.147   5.608   2.906  0.8409 -0.0782 -0.2491
 1167SOL    HW2 4401   6.207   5.508   3.020 -1.4325 -1.0560  0.1597
 1168SOL     OW 4402   2.383   7.021   3.956 -0.5782  0.3895  0.1602
 1168SOL    HW1 4403   2.293   7.033   3.999 -0.2737  1.0990  0.6364
 1168SOL    HW2 4404   2.376   6.958   3.880 -1.4662  0.3669  0.2500
 1169SOL     OW 4405   4.590   1.564   4.246 -0.2917  0.8255 -0.2699
 1169SOL    HW1 4406   4.639   1.577   4.160  0.2933  0.8527  0.0647
 1169SOL    HW2 4407   4.650   1.584   4.322 -1.1761  2.0675  0.1465
 1170SOL     OW 4408   6.958   6.178   2.476  0.3857 -0.4032 -0.6208
 1170SOL    HW1 4409   6.881   6.212   2.531  0.0104 -1.7714 -0.2757
 1170SOL    HW2 4410   6.937   6.189   2.379  0.5600  0.9495 -0.5262
 1171SOL     OW 4411   6.916   6.469   1.394  0.2021 -0.0772  0.1282
 1171SOL    HW1 4412   6.876   6.406   1.328 -0.5314  1.7171 -1.2528
 1171SOL    HW2 4413   7.013   6.481   1.375  0.0849  0.1045 -0.3763
 1172SOL     OW 4414   4.070   3.220   6.408 -0.3502  0.2392  0.8316
 1172SOL    HW1 4415   4.043   3.287   6.339  0.6944 -1.7831 -1.6993
 1172SOL    HW2 4416   3.989   3.170   6.440 -0.6612  0.0113 -0.2726
 1173SOL     OW 4417   5.084   2.264   6.295  0.0330  0.2864 -0.1442
 1173SOL    HW1 4418   5.081   2.257   6.394 -0.0261  0.9156 -0.0954
 1173SOL    HW2 4419   5.165   2.316   6.267  1.0013 -1.3457 -0.5243
 1174SOL     OW 4420   3.034   4.470   1.053 -0.1566 -0.6303 -0.6266
 1174SOL    HW1 4421   3.080   4.515   1.130  0.1331 -1.0886 -0.5319
 1174SOL    HW2 4422   3.074   4.380   1.037 -0.6399 -0.8028 -0.9084
 1175SOL     OW 4423   3.748   3.261   4.189  0.6692  0.4879  0.1849
 1175SOL    HW1 4424   3.804   3.271   4.271  0.5240  1.5304  0.1747
 1175SOL    HW2 4425   3.791   3.195   4.127  0.0786 -1.3585  1.6654
 1176SOL     OW 4426   6.000   1.977   0.938  0.2092  0.1156  0.6503
 1176SOL    HW1 4427   6.090   1.940   0.916  0.0588  0.6158 -0.9562
 1176SOL    HW2 4428   5.997   2.075   0.918 -0.8949 -0.0382 -0.0916
 1177SOL     OW 4429   0.191   3.535   3.576 -0.2277 -0.0988  0.1937
 1177SOL    HW1 4430   0.270   3.474   3.582  0.1194  0.3809  0.5893
 1177SOL    HW2 4431   0.111   3.484   3.545  0.1465 -0.6716  0.1688
 1178SOL     OW 4432   5.612   5.308   6.156  0.8105 -0.7944 -0.0464
 1178SOL    HW1 4433   5.547   5.383   6.168  1.0153 -0.7679  0.9499
 1178SOL    HW2 4434   5.611   5.249   6.238  0.4752 -2.0178 -0.8949
 1179SOL     OW 4435   5.778   0.080   0.116 -0.2995  0.5460  0.2876
 1179SOL    HW1 4436   5.746   0.161   0.067  0.7686  0.1876 -1.0634
 1179SOL    HW2 4437   5.837   0.026   0.056 -0.9693 -1.2400  1.1690
 1180SOL     OW 4438   2.149   6.949   0.118  0.3391  0.1824  0.0029
 1180SOL    HW1 4439   2.206   6.962   0.199 -0.1142 -1.5723  0.6476
 1180SOL    HW2 4440   2.201   6.900   0.048 -0.4759 -2.1163  0.8747
 1181SOL     OW 4441   0.765   0.650   0.938 -0.2751 -0.2318 -0.1344
 1181SOL    HW1 4442   0.789   0.586   0.865 -3.0438 -1.4456 -0.1117
 1181SOL    HW2 4443   0.681   0.699   0.913  0.1489  1.2200  1.1559
 1182SOL     OW 4444   5.172   6.021   2.804 -0.3023 -0.2560  0.5862
 1182SOL    HW1 4445   5.220   6.064   2.881 -0.9176 -0.8574  1.3213
 1182SOL    HW2 4446   5.085   6.067   2.789 -0.1236 -0.0508  0.1452
 1183SOL     OW 4447   1.939   3.823   6.083 -0.1460 -0.0629  1.6507
 1183SOL    HW1 4448   1.967   3.919   6.076  1.8336 -0.6191  1.2768
 1183SOL    HW2 4449   1.852   3.817   6.132 -1.3405  2.0381 -0.0471
 1184SOL     OW 4450   6.343   1.201   5.519 -0.2255 -0.4987 -0.8117
 1184SOL    HW1 4451   6.387   1.145   5.450 -3.1013 -2.0489 -1.5515
 1184SOL    HW2 4452   6.359   1.298   5.498  1.9836 -0.9613 -1.4899
 1185SOL     OW 4453   6.935   0.079   1.879 -0.2306 -0.2422  0.0429
 1185SOL    HW1 4454   6.963   0.114   1.789  2.0508 -0.9279  0.4311
 1185SOL    HW2 4455   6.844   0.039   1.872 -0.2844  0.1052 -1.8642
 1186SOL     OW 4456   4.935   6.200   5.294  0.5042 -0.1022 -0.6057
 1186SOL    HW1 4457   4.973   6.243   5.376 -0.4208 -0.8141  0.2243
 1186SOL    HW2 4458   4.840   6.173   5.312  0.5491 -1.0033 -1.6503
 1187SOL     OW 4459   5.012   0.003   0.775  0.2100  0.1475 -0.1420
 1187SOL    HW1 4460   5.036  -0.013   0.680  1.5822  1.4634 -0.0528
 1187SOL    HW2 4461   4.972   0.094   0.784  0.9213  0.3974  0.6497
 1188SOL     OW 4462   2.124   1.755   6.874 -0.1228 -0.2068  0.1988
 1188SOL    HW1 4463   2.138   1.656   6.872  0.7286 -0.0960  0.2353
 1188SOL    HW2 4464   2.202   1.799   6.919 -0.8581  0.4255  0.9034
 1189SOL     OW 4465   5.882   3.587   3.921 -0.7669 -0.8228  0.1398
 1189SOL    HW1 4466   5.898   3.514   3.855  2.4945 -0.1041 -0.0344
 1189SOL    HW2 4467   5.893   3.551   4.014 -0.9675 -0.9419  0.1166
 1190SOL     OW 4468   2.899   5.778   4.241  0.3679 -0.1413  0.2313
 1190SOL    HW1 4469   2.902   5.680   4.225  1.3436  0.0619 -0.9636
 1190SOL    HW2 4470   2.964   5.802   4.313 -0.4012 -0.4291  1.0569
 1191SOL     OW 4471   5.118   1.019   3.019  0.4884  0.3915  0.7085
 1191SOL    HW1 4472   5.147   1.115   3.016  1.4697  0.0883 -0.3948
 1191SOL    HW2 4473   5.055   1.001   2.944  0.8040  0.0388  0.5211
 1192SOL     OW 4474   0.658   6.033   2.690 -0.0151  0.2771 -0.6752
 1192SOL    HW1 4475   0.731   6.005   2.627  1.9929  1.2518  1.0907
 1192SOL    HW2 4476   0.659   6.133   2.699  0.7651  0.1048  1.9523
 1193SOL     OW 4477   2.290   4.944   6.388  0.5692  0.0081 -0.3041
 1193SOL    HW1 4478   2.228   4.986   6.322  1.0651  0.8472 -0.2432
 1193SOL    HW2 4479   2.273   4.845   6.391  0.6089 -0.0589 -1.7540
 1194SOL     OW 4480   3.425   5.679   1.279  0.3030  0.2047 -0.3837
 1194SOL    HW1 4481   3.504   5.653   1.334 -0.9894 -0.3503  1.3149
 1194SOL    HW2 4482   3.371   5.597   1.258 -0.5221  0.7200 -0.3398
 1195SOL     OW 4483   6.775   2.724   3.294  0.4978  0.2957 -0.1934
 1195SOL    HW1 4484   6.772   2.800   3.359 -0.3395 -2.3807  3.1494
 1195SOL    HW2 4485   6.840   2.655   3.326 -0.5592 -1.5353 -1.7826
 1196SOL     OW 4486   1.383   6.350   4.896  0.1804  0.5227 -1.2053
 1196SOL    HW1 4487   1.413   6.277   4.835  3.0481  0.7667 -0.2198
 1196SOL    HW2 4488   1.451   6.423   4.898  0.4678  0.3714  2.4858
 1197SOL     OW 4489   2.083   5.446   7.007  0.2229 -0.3207 -0.0709
 1197SOL    HW1 4490   2.038   5.533   7.025  0.9970 -0.1194  1.0294
 1197SOL    HW2 4491   2.035   5.373   7.055  1.1988 -0.0638  1.3388
 1198SOL     OW 4492   0.536   3.430   6.609  0.0766 -0.1849 -1.1876
 1198SOL    HW1 4493   0.608   3.375   6.651 -1.4123 -1.1308  0.2919
 1198SOL    HW2 4494   0.502   3.383   6.527  0.2756 -0.4006 -1.1484
 1199SOL     OW 4495   6.326   4.010   3.387 -0.2268 -0.4802 -0.3415
 1199SOL    HW1 4496   6.242   4.064   3.380  1.1574  1.8329 -0.4974
 1199SOL    HW2 4497   6.347   3.994   3.484 -0.3725 -0.2609 -0.2719
 1200SOL     OW 4498   3.131   4.633   1.739  0.6621  0.0222  0.3527
 1200SOL    HW1 4499   3.087   4.696   1.675  1.2056 -0.6893 -0.7654
 1200SOL    HW2 4500   3.063   4.572   1.779  0.3643  0.2307  0.1609
 1201SOL     OW 4501   1.711   3.046   6.097 -0.2323 -0.0834  0.3209
 1201SOL    HW1 4502   1.658   2.965   6.073  0.8136 -0.8892  0.6281
 1201SOL    HW2 4503   1.655   3.128   6.085 -0.0306 -0.3744 -4.3117
 1202SOL     OW 4504   0.321   5.013   0.413  0.1806 -0.0091 -0.2638
 1202SOL    HW1 4505   0.361   5.069   0.340 -0.0309 -1.9768 -1.9963
 1202SOL    HW2 4506   0.222   5.022   0.410  0.1229 -0.7645 -0.8212
 1203SOL     OW 4507   3.876   5.589   5.380  0.7397  0.5842 -0.1080
 1203SOL    HW1 4508   3.872   5.526   5.302  0.4323  0.9826 -0.4182
 1203SOL    HW2 4509   3.848   5.540   5.463  1.7579 -0.0357 -0.1154
 1204SOL     OW 4510   2.623   6.087   3.776  0.0456 -0.0790 -0.3861
 1204SOL    HW1 4511   2.718   6.057   3.769 -0.0733 -0.3994 -0.6163
 1204SOL    HW2 4512   2.621   6.184   3.798  0.4253  0.0107 -0.7349
 1205SOL     OW 4513   6.004   4.479   2.660 -0.0109 -0.0687  0.0577
 1205SOL    HW1 4514   5.937   4.465   2.587 -0.2452  0.7893  0.0940
 1205SOL    HW2 4515   5.975   4.430   2.742 -0.4373  0.0397 -0.0258
 1206SOL     OW 4516   4.084   4.337   5.309  0.2110  0.1531 -0.0590
 1206SOL    HW1 4517   4.139   4.398   5.252 -1.6929  1.5965 -0.4506
 1206SOL    HW2 4518   4.097   4.361   5.405 -1.2125  1.8649 -0.2509
 1207SOL     OW 4519   2.675   0.075   3.862 -0.1419 -0.3334 -0.8629
 1207SOL    HW1 4520   2.660   0.113   3.953 -1.6550 -1.8289 -0.4392
 1207SOL    HW2 4521   2.590   0.035   3.828  0.4215  0.1121 -2.9045
 1208SOL     OW 4522   3.432   2.396   6.304  0.2603  0.4495  0.6033
 1208SOL    HW1 4523   3.411   2.491   6.327 -0.3459  0.6302 -0.5736
 1208SOL    HW2 4524   3.433   2.341   6.387 -0.8700  1.2140  1.1646
 1209SOL     OW 4525   3.722   6.137   5.202  0.2844  0.0028  0.3218
 1209SOL    HW1 4526   3.806   6.111   5.249  1.9251  3.2116 -0.5972
 1209SOL    HW2 4527   3.705   6.073   5.127  3.9417  1.1294 -1.7139
 1210SOL     OW 4528   4.047   6.914   2.340 -0.0379  0.0312 -0.1401
 1210SOL    HW1 4529   4.018   7.010   2.347  0.8243  0.3310 -0.5202
 1210SOL    HW2 4530   4.137   6.910   2.298  0.2301 -0.9093  0.4989
 1211SOL     OW 4531   2.070   4.339   1.034 -0.2111  0.1236  0.3368
 1211SOL    HW1 4532   2.059   4.240   1.040  0.6589  0.0468  0.9060
 1211SOL    HW2 4533   2.052   4.370   0.941 -0.3393 -0.5928  0.1226
 1212SOL     OW 4534   1.047   6.602   6.316 -0.3469 -0.1716 -0.9847
 1212SOL    HW1 4535   1.103   6.681   6.341  1.6154 -2.1730  1.4747
 1212SOL    HW2 4536   0.952   6.631   6.303 -0.2800  2.2336  2.6300
 1213SOL     OW 4537   5.651   3.164   1.206 -0.2748  0.1665 -0.0138
 1213SOL    HW1 4538   5.597   3.248   1.220 -1.9675 -1.3064  3.3865
 1213SOL    HW2 4539   5.743   3.177   1.244 -0.8181  0.2810  1.3366
 1214SOL     OW 4540   6.454   2.766   2.346  0.1522  0.4383  0.0707
 1214SOL    HW1 4541   6.422   2.843   2.291  0.1769 -0.9158 -1.9416
 1214SOL    HW2 4542   6.554   2.770   2.353  0.2199  0.2119 -0.6586
 1215SOL     OW 4543   1.251   6.091   2.791 -0.2760  0.6763  0.3164
 1215SOL    HW1 4544   1.260   6.030   2.712 -1.2117 -1.0930  1.5044
 1215SOL    HW2 4545   1.334   6.088   2.846  0.2061  1.5738 -0.3276
 1216SOL     OW 4546   3.183   1.199   1.025 -0.2544 -0.6307  0.1525
 1216SOL    HW1 4547   3.179   1.122   0.962 -0.3000 -1.5106  1.1892
 1216SOL    HW2 4548   3.182   1.164   1.119 -1.4813  0.6858  0.6559
 1217SOL     OW 4549   3.710   1.968   6.320 -0.3700 -0.2559  0.1434
 1217SOL    HW1 4550   3.662   1.902   6.377 -0.9389  0.1841  0.1846
 1217SOL    HW2 4551   3.800   1.988   6.360 -1.1573  0.8174  1.4694
 1218SOL     OW 4552   3.000   4.885   3.474 -0.5656  0.3110  0.1648
 1218SOL    HW1 4553   2.918   4.941   3.476 -0.5560  0.5256 -2.3897
 1218SOL    HW2 4554   3.075   4.937   3.433 -0.1847 -1.0769 -0.9809
 1219SOL     OW 4555   2.744   0.199   1.987 -0.0675 -0.4524  0.2578
 1219SOL    HW1 4556   2.809   0.268   2.020  0.0162 -0.5889  0.3810
 1219SOL    HW2 4557   2.663   0.200   2.046 -0.0323 -0.5135  0.3069
 1220SOL     OW 4558   0.885   4.343   2.200 -0.2954 -0.2143  0.1373
 1220SOL    HW1 4559   0.966   4.369   2.148  0.7760  0.5425  2.0517
 1220SOL    HW2 4560   0.902   4.255   2.245 -1.0921 -0.7236 -0.5238
 1221SOL     OW 4561   5.110   5.859   0.935 -0.3978 -0.4861  0.2717
 1221SOL    HW1 4562   5.071   5.811   0.856  1.3323 -1.0502 -0.2739
 1221SOL    HW2 4563   5.110   5.798   1.014  2.6494 -1.8839 -0.6443
 1222SOL     OW 4564   0.319   0.055   6.585 -0.5308 -0.0360  0.5331
 1222SOL    HW1 4565   0.221   0.070   6.596 -0.5230 -0.2422  0.8977
 1222SOL    HW2 4566   0.343   0.058   6.488 -0.6361  1.6587  0.5254
 1223SOL     OW 4567   3.477   6.894   0.030 -0.3854 -0.1993 -0.1014
 1223SOL    HW1 4568   3.384   6.892  -0.004 -0.9865 -1.5866  1.4838
 1223SOL    HW2 4569   3.479   6.944   0.117  0.6943  1.3155 -0.9443
 1224SOL     OW 4570   2.549   0.792   1.174 -0.6354 -0.0819  0.3105
 1224SOL    HW1 4571   2.591   0.850   1.243  0.6466 -0.4687 -0.1194
 1224SOL    HW2 4572   2.503   0.714   1.218  0.6314 -0.6153  0.7127
 1225SOL     OW 4573   1.722   2.021   5.482 -0.3070 -0.4938 -0.3859
 1225SOL    HW1 4574   1.707   1.980   5.392  1.5343  0.8856 -1.3655
 1225SOL    HW2 4575   1.724   2.120   5.474  0.9546 -0.3752  0.9719
 1226SOL     OW 4576   2.534   5.186   0.669  0.1457  0.2612 -0.0223
 1226SOL    HW1 4577   2.627   5.154   0.653  0.3693  0.1989  1.2998
 1226SOL    HW2 4578   2.471   5.137   0.608  0.6906 -1.4619  0.7170
 1227SOL     OW 4579   1.413   0.746   5.360  0.1883 -0.2656  1.1283
 1227SOL    HW1 4580   1.335   0.748   5.421 -0.5606  2.9731  0.2268
 1227SOL    HW2 4581   1.462   0.833   5.364  1.3748 -0.7204 -1.2864
 1228SOL     OW 4582   1.233   0.795   0.756 -0.0152 -0.3891  0.0013
 1228SOL    HW1 4583   1.299   0.822   0.826 -1.5033 -1.1535  1.7670
 1228SOL    HW2 4584   1.259   0.707   0.717  0.9382  0.1420 -0.5948
 1229SOL     OW 4585   4.321   2.523   6.335  0.0565  0.2510 -0.1799
 1229SOL    HW1 4586   4.253   2.451   6.316 -1.8493  1.9688 -0.2357
 1229SOL    HW2 4587   4.317   2.546   6.432  0.3265  0.6217 -0.2572
 1230SOL     OW 4588   4.742   1.906   3.555 -0.4156  0.2715 -0.0802
 1230SOL    HW1 4589   4.801   1.904   3.474 -0.5251  0.6323 -0.1704
 1230SOL    HW2 4590   4.721   1.812   3.583  1.3261  0.1020  0.7713
 1231SOL     OW 4591   0.842   3.340   4.107 -0.0724  0.2043  0.4906
 1231SOL    HW1 4592   0.857   3.241   4.103 -0.4495  0.1342  0.8170
 1231SOL    HW2 4593   0.931   3.387   4.104  0.0492 -0.0779 -1.2718
 1232SOL     OW 4594   2.253   1.716   1.840 -0.4654 -0.0884  0.7901
 1232SOL    HW1 4595   2.220   1.635   1.889 -0.6843 -0.1096  0.6099
 1232SOL    HW2 4596   2.353   1.720   1.847 -0.4214 -0.5670  0.5098
 1233SOL     OW 4597   0.327   1.443   5.926 -0.4852  0.4835 -0.1982
 1233SOL    HW1 4598   0.320   1.500   6.009  1.2222 -1.4394  1.3672
 1233SOL    HW2 4599   0.245   1.456   5.871 -2.2234  1.0617  2.3125
 1234SOL     OW 4600   5.894   4.635   4.554 -0.5544  0.5378 -0.4549
 1234SOL    HW1 4601   5.802   4.615   4.520  0.1789 -1.4142 -1.4531
 1234SOL    HW2 4602   5.959   4.569   4.516  1.3067  1.9519  0.1034
 1235SOL     OW 4603   5.046   4.741   4.492 -0.0293  0.0890  0.7706
 1235SOL    HW1 4604   5.027   4.648   4.523 -1.3681  0.1869  0.3010
 1235SOL    HW2 4605   5.128   4.775   4.539  0.5206 -1.3266  0.9071
 1236SOL     OW 4606   5.026   6.794   4.164 -0.0703 -0.2535 -0.1039
 1236SOL    HW1 4607   4.933   6.763   4.144 -0.4849  0.5057  0.5830
 1236SOL    HW2 4608   5.039   6.799   4.263  0.5019  0.2322 -0.1971
 1237SOL     OW 4609   3.347   4.612   6.687 -0.1104  0.0624  0.0827
 1237SOL    HW1 4610   3.319   4.702   6.653  0.6292  0.2127 -0.1457
 1237SOL    HW2 4611   3.266   4.561   6.717 -0.4651  1.1012  0.9521
 1238SOL     OW 4612   0.753   3.234   1.687  0.6327  0.6089 -0.0491
 1238SOL    HW1 4613   0.842   3.280   1.680 -0.1915  2.2331 -0.2579
 1238SOL    HW2 4614   0.710   3.259   1.773  0.1696  0.1997 -0.1590
 1239SOL     OW 4615   6.522   1.112   4.451  0.6332 -0.1212 -0.0956
 1239SOL    HW1 4616   6.615   1.116   4.416 -0.0136  2.7595 -1.8771
 1239SOL    HW2 4617   6.459   1.089   4.375 -0.3693  1.3147  0.2609
 1240SOL     OW 4618   4.882   5.942   1.942 -0.5957  0.3899 -0.1486
 1240SOL    HW1 4619   4.787   5.959   1.917 -1.0383 -0.2917  1.0299
 1240SOL    HW2 4620   4.910   6.006   2.014 -0.8906 -0.8625  1.1224
 1241SOL     OW 4621   4.984   2.202   5.230  0.2453  0.2459 -0.0583
 1241SOL    HW1 4622   4.917   2.130   5.209 -1.0308  1.5669 -0.6943
 1241SOL    HW2 4623   4.937   2.291   5.232  1.9761  1.1949 -0.3274
 1242SOL     OW 4624   2.027   1.231   0.035 -1.0645  0.1310  0.0920
 1242SOL    HW1 4625   1.942   1.183   0.011 -0.8567  0.3955 -1.2386
 1242SOL    HW2 4626   2.099   1.164   0.051 -1.6696 -0.1326  1.9509
 1243SOL     OW 4627   5.095   5.050   6.186  0.3630 -0.3263  0.2150
 1243SOL    HW1 4628   5.063   5.029   6.279 -0.9643 -0.3148 -0.2144
 1243SOL    HW2 4629   5.095   4.966   6.131  1.1365 -0.3303  0.2063
 1244SOL     OW 4630   0.105   2.916   2.952  0.5390 -0.1291 -0.2515
 1244SOL    HW1 4631   0.076   2.858   3.029 -2.1300 -0.3166 -1.3027
 1244SOL    HW2 4632   0.090   2.868   2.866  1.7753  0.7794 -1.0152
 1245SOL     OW 4633   2.927   2.212   4.679 -0.3712 -0.2380 -0.0741
 1245SOL    HW1 4634   2.870   2.224   4.760  0.8666 -0.2911  0.8340
 1245SOL    HW2 4635   3.017   2.178   4.706 -0.0546 -0.6215 -1.5154
 1246SOL     OW 4636   0.226   2.417   0.662 -0.0723  0.2029  0.4646
 1246SOL    HW1 4637   0.299   2.458   0.717  0.5071 -0.9993  0.6175
 1246SOL    HW2 4638   0.263   2.389   0.573 -1.0438  2.3178 -0.6935
 1247SOL     OW 4639   2.151   7.018   6.652  0.3655  0.0898  0.0996
 1247SOL    HW1 4640   2.137   6.922   6.676  1.9720 -0.0403  0.6368
 1247SOL    HW2 4641   2.193   7.066   6.729 -0.8562  1.3547  0.0177
 1248SOL     OW 4642   2.946   6.393   4.195 -0.2112  0.7619  0.4740
 1248SOL    HW1 4643   3.013   6.347   4.136 -1.5406 -0.0494 -0.4368
 1248SOL    HW2 4644   2.859   6.345   4.192 -0.3347  0.6580  3.1944
 1249SOL     OW 4645   5.431   3.698   3.626  0.0446  0.6467 -0.2231
 1249SOL    HW1 4646   5.400   3.735   3.713  2.8568  1.4262  0.5675
 1249SOL    HW2 4647   5.507   3.634   3.643  0.6026  0.7585 -2.0975
 1250SOL     OW 4648   0.789   3.230   5.146  0.4371 -0.1586  0.0475
 1250SOL    HW1 4649   0.797   3.287   5.065 -4.2088 -1.2991 -1.5437
 1250SOL    HW2 4650   0.738   3.279   5.217  1.4753 -0.3722  0.9698
 1251SOL     OW 4651   2.578   0.933   5.327  0.7614 -0.5899 -0.2620
 1251SOL    HW1 4652   2.609   1.008   5.386 -1.0966  1.4872 -1.7632
 1251SOL    HW2 4653   2.657   0.893   5.279  1.9707 -0.6667  1.6565
 1252SOL     OW 4654   4.126   3.251   0.681  0.4591  0.9569 -0.1921
 1252SOL    HW1 4655   4.043   3.255   0.625 -0.9079 -0.9491  1.5182
 1252SOL    HW2 4656   4.119   3.318   0.755  1.0068  1.6022 -0.7175
 1253SOL     OW 4657   3.415   1.855   3.229  0.0361 -0.2878 -0.2749
 1253SOL    HW1 4658   3.317   1.835   3.219 -0.1569  0.8335 -0.7075
 1253SOL    HW2 4659   3.427   1.931   3.292  0.7172 -1.2397  0.7650
 1254SOL     OW 4660   5.273   3.313   3.273  0.6261 -0.0761  0.2484
 1254SOL    HW1 4661   5.305   3.221   3.296 -0.1771 -0.4073  0.0532
 1254SOL    HW2 4662   5.249   3.362   3.357 -1.5253 -1.0023  0.2393
 1255SOL     OW 4663   5.871   1.569   6.581 -0.3928 -0.3745  0.6362
 1255SOL    HW1 4664   5.949   1.579   6.643  0.0067  0.4435  0.0252
 1255SOL    HW2 4665   5.811   1.649   6.590 -0.3840 -0.2964  0.0490
 1256SOL     OW 4666   4.643   2.476   0.582 -0.2046  0.2881  0.0073
 1256SOL    HW1 4667   4.647   2.545   0.654 -1.0255 -0.5622  0.8967
 1256SOL    HW2 4668   4.559   2.486   0.530  0.2593  0.7269 -0.6788
 1257SOL     OW 4669   0.533   3.905   3.201  0.5291 -0.2732 -0.2253
 1257SOL    HW1 4670   0.462   3.862   3.256  0.0136  1.7781  0.8326
 1257SOL    HW2 4671   0.495   3.930   3.111  0.4685 -0.8371 -0.3608
 1258SOL     OW 4672   0.468   4.360   4.399 -0.5915  0.3683 -0.0452
 1258SOL    HW1 4673   0.478   4.266   4.430 -1.4110  0.6831  1.2581
 1258SOL    HW2 4674   0.556   4.394   4.365  0.0508 -0.4051  0.8044
 1259SOL     OW 4675   4.895   3.148   5.018 -0.2797  0.1441  0.6379
 1259SOL    HW1 4676   4.813   3.092   5.026 -0.9715  1.2803  2.0229
 1259SOL    HW2 4677   4.961   3.103   4.958 -1.5570 -1.2073  0.1977
 1260SOL     OW 4678   1.529   1.509   4.286 -0.0403 -0.4656  0.3081
 1260SOL    HW1 4679   1.563   1.439   4.348 -0.7688  0.2817  1.5970
 1260SOL    HW2 4680   1.476   1.576   4.338 -0.2246  0.4756 -1.0535
 1261SOL     OW 4681   0.052   3.724   6.900  0.1989 -0.1540  0.2185
 1261SOL    HW1 4682   0.009   3.645   6.945 -1.5294  0.0158 -1.0122
 1261SOL    HW2 4683  -0.017   3.794   6.883  0.8051 -0.0785 -2.3598
 1262SOL     OW 4684   5.399   0.238   3.822 -0.0878 -0.4131 -0.1002
 1262SOL    HW1 4685   5.300   0.224   3.831 -0.9265  3.8737 -0.7575
 1262SOL    HW2 4686   5.437   0.264   3.910 -0.4988  2.1256 -0.5886
 1263SOL     OW 4687   6.690   2.833   4.138  0.2062  0.5468  0.2971
 1263SOL    HW1 4688   6.601   2.878   4.145 -1.5773 -2.3405 -1.5639
 1263SOL    HW2 4689   6.744   2.851   4.221 -1.8147  2.9068  1.2064
 1264SOL     OW 4690   6.849   1.941   6.596 -0.4966  0.6413 -0.4273
 1264SOL    HW1 4691   6.939   1.935   6.554  0.2563  0.9696  1.0764
 1264SOL    HW2 4692   6.798   1.857   6.577  1.4598 -1.1376  1.5722
 1265SOL     OW 4693   6.959   0.182   3.773 -0.2072 -0.1125  0.8960
 1265SOL    HW1 4694   7.023   0.223   3.708  0.3118 -0.1568  1.3742
 1265SOL    HW2 4695   6.928   0.252   3.837 -0.4739 -0.1384  0.7952
 1266SOL     OW 4696   2.750   0.206   6.394 -0.3636  0.2674  0.2367
 1266SOL    HW1 4697   2.704   0.295   6.397  2.2306  1.8382 -1.6632
 1266SOL    HW2 4698   2.691   0.139   6.350 -0.8458  2.2576 -2.3999
 1267SOL     OW 4699   2.461   1.700   5.829 -0.3793 -0.2021 -0.0976
 1267SOL    HW1 4700   2.514   1.749   5.759  1.7589 -0.0643  1.5078
 1267SOL    HW2 4701   2.409   1.766   5.883 -0.4321 -0.1015 -0.2687
 1268SOL     OW 4702   4.775   2.030   5.235  0.6800  0.2175  0.6064
 1268SOL    HW1 4703   4.762   2.067   5.327  1.5738 -0.8525  1.1925
 1268SOL    HW2 4704   4.789   1.931   5.241 -0.8901 -0.1366 -0.8471
 1269SOL     OW 4705   6.125   1.284   2.001 -0.2187 -0.4151 -0.0724
 1269SOL    HW1 4706   6.124   1.211   1.933  0.2961  0.6146 -1.2048
 1269SOL    HW2 4707   6.178   1.361   1.967 -1.5199  0.8714  0.7104
 1270SOL     OW 4708   5.739   4.593   4.822 -0.1148 -0.6043  0.2962
 1270SOL    HW1 4709   5.710   4.523   4.887  0.2434 -0.0264  1.0917
 1270SOL    HW2 4710   5.809   4.554   4.761 -1.7963 -1.7157 -1.0198
 1271SOL     OW 4711   2.659   6.810   0.259 -0.7091 -0.2589 -0.1199
 1271SOL    HW1 4712   2.741   6.824   0.314 -0.3787  0.1789 -0.7127
 1271SOL    HW2 4713   2.680   6.829   0.163 -2.0816  2.2425  0.0059
 1272SOL     OW 4714   6.938   3.279   1.129  0.0374  0.2551  0.6164
 1272SOL    HW1 4715   6.991   3.238   1.203 -0.6017 -2.1218 -0.1331
 1272SOL    HW2 4716   6.841   3.276   1.152  0.0242  2.6862  1.1025
 1273SOL     OW 4717   1.743   3.920   0.084 -0.6155 -0.1758  0.0518
 1273SOL    HW1 4718   1.693   3.952   0.004  0.6338  0.1445 -0.6314
 1273SOL    HW2 4719   1.794   3.838   0.061  0.0711  0.1415  0.3885
 1274SOL     OW 4720   0.347   3.307   3.794  0.0251 -0.1878 -0.0891
 1274SOL    HW1 4721   0.427   3.323   3.737  0.6144 -3.2196 -0.2726
 1274SOL    HW2 4722   0.281   3.251   3.743 -1.7716  1.3196  0.4550
 1275SOL     OW 4723   3.585   1.037   3.703  0.0449 -0.2237  0.3439
 1275SOL    HW1 4724   3.582   0.978   3.622 -0.2009  0.8126 -0.4240
 1275SOL    HW2 4725   3.494   1.076   3.719  0.6330  1.5803 -0.4353
 1276SOL     OW 4726   5.763   0.095   4.801 -0.5890 -0.4021  0.4311
 1276SOL    HW1 4727   5.732   0.143   4.718  1.1704 -0.3212 -0.2211
 1276SOL    HW2 4728   5.690   0.096   4.869 -0.8128  2.9443  0.3361
 1277SOL     OW 4729   2.149   6.135   6.137 -0.5513 -0.5054  0.1120
 1277SOL    HW1 4730   2.176   6.149   6.232 -1.9289  0.1132  0.4325
 1277SOL    HW2 4731   2.224   6.163   6.077 -0.2143  0.5014  0.9768
 1278SOL     OW 4732   0.532   0.832   3.291  0.1598  0.1877  0.8297
 1278SOL    HW1 4733   0.529   0.932   3.285  0.0018  0.1088 -1.3412
 1278SOL    HW2 4734   0.440   0.795   3.273  0.7965 -0.3854 -1.6607
 1279SOL     OW 4735   5.469   3.661   0.470  0.4826 -0.0310  0.0029
 1279SOL    HW1 4736   5.545   3.617   0.422 -0.8130 -2.3390 -0.0580
 1279SOL    HW2 4737   5.384   3.616   0.445 -0.6618  1.0348  1.7938
 1280SOL     OW 4738   1.696   1.902   4.133 -0.7112  0.1970  0.1810
 1280SOL    HW1 4739   1.692   1.954   4.048  0.1586 -1.3627 -0.8598
 1280SOL    HW2 4740   1.686   1.804   4.113  0.4207 -0.2793  1.7544
 1281SOL     OW 4741   6.453   5.751   4.550  0.5341 -0.1143 -1.2067
 1281SOL    HW1 4742   6.496   5.776   4.464 -0.1717 -1.3885 -1.9520
 1281SOL    HW2 4743   6.380   5.816   4.572  0.8527  0.3300 -1.4487
 1282SOL     OW 4744   0.331   3.954   0.968  0.5113  0.2439 -0.2841
 1282SOL    HW1 4745   0.285   3.970   1.055 -1.8076 -0.4335 -1.3188
 1282SOL    HW2 4746   0.295   3.871   0.925  1.7077  0.4589 -1.8233
 1283SOL     OW 4747   0.953   2.191   5.610 -0.5294 -0.1731  0.6373
 1283SOL    HW1 4748   1.047   2.193   5.646 -0.1856 -1.7082 -0.1218
 1283SOL    HW2 4749   0.955   2.171   5.513 -1.6080  1.1865  0.3059
 1284SOL     OW 4750   3.629   2.548   1.543  0.2661  0.1286  0.0048
 1284SOL    HW1 4751   3.659   2.605   1.619  0.5423  1.6200 -1.1811
 1284SOL    HW2 4752   3.583   2.605   1.475  1.3987 -0.8844 -1.6691
 1285SOL     OW 4753   3.540   1.756   5.180  0.6625  0.1469 -0.2425
 1285SOL    HW1 4754   3.599   1.704   5.118 -1.9604 -1.8614 -1.2405
 1285SOL    HW2 4755   3.541   1.712   5.270 -0.1191 -0.5622 -0.5690
 1286SOL     OW 4756   5.755   1.921   1.782  0.5867 -0.8907  0.2090
 1286SOL    HW1 4757   5.715   1.997   1.730  0.6137  0.4404  2.0286
 1286SOL    HW2 4758   5.822   1.874   1.724 -0.3327 -0.3374 -1.3863
 1287SOL     OW 4759   4.776   5.437   5.332 -0.4501  0.2707 -0.1220
 1287SOL    HW1 4760   4.783   5.535   5.314  0.2765  0.2549  0.0381
 1287SOL    HW2 4761   4.814   5.385   5.256  0.6146  0.1570  0.4674
 1288SOL     OW 4762   3.476   2.664   0.807  0.5170  0.5261  0.0619
 1288SOL    HW1 4763   3.562   2.639   0.762  1.6039  2.4147  0.9637
 1288SOL    HW2 4764   3.422   2.723   0.747  0.9839  1.2895  0.3681
 1289SOL     OW 4765   0.353   6.726   6.831 -0.0356  0.1763  0.2749
 1289SOL    HW1 4766   0.264   6.764   6.808 -0.6396 -0.9888  0.6296
 1289SOL    HW2 4767   0.353   6.694   6.925  0.0340 -1.7925 -0.3519
 1290SOL     OW 4768   2.438   6.038   4.593  0.5875  0.1129  0.4983
 1290SOL    HW1 4769   2.368   6.023   4.663 -0.1735  0.3559 -0.2012
 1290SOL    HW2 4770   2.512   6.094   4.632  1.0032 -1.1406  1.6053
 1291SOL     OW 4771   6.770   5.666   4.472 -0.3580  0.7130 -0.5232
 1291SOL    HW1 4772   6.713   5.722   4.411  0.2287  0.0835 -1.6911
 1291SOL    HW2 4773   6.753   5.693   4.567 -0.8388  2.1572 -0.9843
 1292SOL     OW 4774   0.316   0.354   2.606  0.0553  0.8095  0.0245
 1292SOL    HW1 4775   0.224   0.373   2.571  1.5168  1.6846 -3.8806
 1292SOL    HW2 4776   0.345   0.429   2.665 -1.0726  1.3950 -0.1312
 1293SOL     OW 4777   4.484   1.210   1.000  0.3130 -0.3244 -0.0231
 1293SOL    HW1 4778   4.480   1.207   1.100  1.4286 -0.5246  0.0343
 1293SOL    HW2 4779   4.524   1.297   0.971 -0.7465  0.0715 -0.3403
 1294SOL     OW 4780   2.188   4.632   5.608 -0.0963  0.5505 -0.2611
 1294SOL    HW1 4781   2.266   4.602   5.662  0.4814  2.2282 -0.1031
 1294SOL    HW2 4782   2.220   4.673   5.522 -0.7439  1.6210 -0.0231
 1295SOL     OW 4783   0.110   5.673   6.284 -0.1884 -0.2521  0.2847
 1295SOL    HW1 4784   0.131   5.591   6.230 -0.3679 -1.1054  1.4475
 1295SOL    HW2 4785   0.169   5.748   6.256 -0.6741 -0.4733 -1.4756
 1296SOL     OW 4786   5.902   6.690   4.384  0.0843 -0.0045  0.2544
 1296SOL    HW1 4787   5.967   6.766   4.384  0.0686  0.1645  3.5277
 1296SOL    HW2 4788   5.946   6.608   4.418 -0.7706 -0.5842 -0.0036
 1297SOL     OW 4789   4.615   6.677   6.674 -0.1447 -0.6221  0.3898
 1297SOL    HW1 4790   4.662   6.605   6.624 -1.0120 -0.1223 -1.2160
 1297SOL    HW2 4791   4.517   6.671   6.655 -0.5778 -0.6628  2.3943
 1298SOL     OW 4792   6.219   1.992   3.644 -0.1159  0.0168  0.3945
 1298SOL    HW1 4793   6.208   2.091   3.647  0.4248  0.1330 -1.0752
 1298SOL    HW2 4794   6.247   1.963   3.553  0.3910 -1.4334  0.9710
 1299SOL     OW 4795   0.889   3.980   4.064 -0.5167  0.2828 -0.3612
 1299SOL    HW1 4796   0.956   3.968   3.991  0.0943  1.9741 -0.1223
 1299SOL    HW2 4797   0.895   3.903   4.128  0.6036 -0.0205 -0.8041
 1300SOL     OW 4798   0.853   2.106   6.056  0.1835  0.6231 -0.1715
 1300SOL    HW1 4799   0.818   2.196   6.083  0.0921  0.0034  1.9513
 1300SOL    HW2 4800   0.822   2.037   6.121 -0.7285 -1.2052 -2.3910
 1301SOL     OW 4801   4.904   0.585   6.552  0.2949 -0.0015 -0.4781
 1301SOL    HW1 4802   4.872   0.503   6.599  0.3723  0.5502  0.5660
 1301SOL    HW2 4803   4.862   0.666   6.593  0.7451  0.5285 -1.0418
 1302SOL     OW 4804   0.635   0.312   6.274  0.0894  0.0059  0.2545
 1302SOL    HW1 4805   0.678   0.232   6.314  0.1341 -0.0342  0.1252
 1302SOL    HW2 4806   0.584   0.286   6.193  2.4797  0.5174 -1.5337
 1303SOL     OW 4807   3.983   5.103   3.639 -0.0940 -0.1598 -0.0885
 1303SOL    HW1 4808   3.899   5.082   3.689 -0.5277  2.8056  0.6011
 1303SOL    HW2 4809   3.961   5.124   3.544 -0.1512  0.5924  0.0864
 1304SOL     OW 4810   6.288   1.265   6.061 -0.1745  0.9606 -0.3890
 1304SOL    HW1 4811   6.190   1.283   6.067 -0.4594 -0.7634  0.9391
 1304SOL    HW2 4812   6.336   1.350   6.041 -1.9381  1.8013 -1.2952
 1305SOL     OW 4813   5.765   4.627   6.927  0.2209  0.0559  0.4734
 1305SOL    HW1 4814   5.759   4.710   6.983 -0.6276  1.1465 -1.1353
 1305SOL    HW2 4815   5.859   4.615   6.896  0.3821  0.3320  0.8408
 1306SOL     OW 4816   3.088   6.416   3.613 -0.2007  0.1059  0.3125
 1306SOL    HW1 4817   3.184   6.392   3.602 -0.1858 -0.1678  1.0317
 1306SOL    HW2 4818   3.080   6.501   3.664 -0.2536  1.6953 -2.1602
 1307SOL     OW 4819   1.525   3.065   5.166  0.0677 -0.1734 -0.0242
 1307SOL    HW1 4820   1.448   3.085   5.105 -0.2913 -0.3729  0.3597
 1307SOL    HW2 4821   1.572   3.150   5.188 -0.0024 -0.0566 -0.3104
 1308SOL     OW 4822   6.472   3.452   0.048  0.0880  0.4296  0.1357
 1308SOL    HW1 4823   6.400   3.518   0.029 -0.0058  0.3094  0.0789
 1308SOL    HW2 4824   6.557   3.501   0.068 -0.4113  0.6345  1.9312
 1309SOL     OW 4825   5.020   3.543   1.188 -0.0165 -0.0872  0.1747
 1309SOL    HW1 4826   4.999   3.617   1.123 -1.4381 -0.9974 -0.4409
 1309SOL    HW2 4827   4.964   3.554   1.270  1.1951  0.5966  0.9500
 1310SOL     OW 4828   2.043   3.475   3.009 -0.0405 -0.4894  0.6885
 1310SOL    HW1 4829   2.069   3.471   3.106  0.8917  0.0882  0.4755
 1310SOL    HW2 4830   1.947   3.501   3.002 -0.7796 -2.7406  1.5007
 1311SOL     OW 4831   5.327   4.498   6.613  0.1661 -0.2525 -0.2843
 1311SOL    HW1 4832   5.385   4.565   6.566  1.8630 -0.8539  0.8440
 1311SOL    HW2 4833   5.275   4.544   6.685  1.4585 -0.0997  0.6041
 1312SOL     OW 4834   1.815   0.747   0.143  0.0264 -0.8295 -0.7573
 1312SOL    HW1 4835   1.853   0.717   0.231 -0.3310 -2.5003 -1.1537
 1312SOL    HW2 4836   1.882   0.806   0.097  0.0233  0.4953  0.8249
 1313SOL     OW 4837   5.804   4.287   3.932  0.0439  0.2614  0.1962
 1313SOL    HW1 4838   5.793   4.386   3.929 -0.3756  0.2422  0.9228
 1313SOL    HW2 4839   5.900   4.264   3.947  0.6059  0.4971 -2.5915
 1314SOL     OW 4840   3.206   0.250   3.484 -0.5522  0.1021  0.3126
 1314SOL    HW1 4841   3.197   0.307   3.566 -1.9720 -0.2141  0.3992
 1314SOL    HW2 4842   3.253   0.302   3.413 -1.8610  1.4205  0.3639
 1315SOL     OW 4843   6.397   1.090   2.317  0.1031 -0.2384 -0.1260
 1315SOL    HW1 4844   6.457   1.044   2.383 -1.5436 -0.8414  1.0131
 1315SOL    HW2 4845   6.431   1.183   2.302  0.3276  0.0817  1.9418
 1316SOL     OW 4846   4.980   5.773   6.152 -0.4354 -0.3245  0.4989
 1316SOL    HW1 4847   4.998   5.859   6.199 -1.5729 -0.2877  0.9052
 1316SOL    HW2 4848   5.066   5.725   6.135  0.4065  1.7082 -1.3573
 1317SOL     OW 4849   3.105   3.132   5.132 -0.0532 -0.0335  0.4367
 1317SOL    HW1 4850   3.183   3.070   5.118 -0.2954 -0.2036 -0.2306
 1317SOL    HW2 4851   3.130   3.204   5.197  0.5503 -0.2805  0.4824
 1318SOL     OW 4852   2.809   1.559   6.273 -0.2695  0.1970 -0.0975
 1318SOL    HW1 4853   2.738   1.544   6.205  0.6678 -0.8108 -0.8748
 1318SOL    HW2 4854   2.898   1.571   6.228  0.2539  0.2152  0.9000
 1319SOL     OW 4855   0.675   0.137   6.861  0.2702  0.1109  1.3070
 1319SOL    HW1 4856   0.685   0.160   6.957 -3.1915  1.2902  1.5040
 1319SOL    HW2 4857   0.661   0.220   6.807  1.7385 -0.5549 -0.2208
 1320SOL     OW 4858   2.382   2.460   6.569  0.1482 -0.0339  0.5905
 1320SOL    HW1 4859   2.404   2.441   6.474  0.8835 -0.1758  0.7750
 1320SOL    HW2 4860   2.463   2.444   6.625 -0.2657  0.0827  1.2348
 1321SOL     OW 4861   0.148   3.426   0.168 -0.1360  0.6350  0.3630
 1321SOL    HW1 4862   0.154   3.401   0.071  1.8519 -0.8333  0.7851
 1321SOL    HW2 4863   0.240   3.427   0.208 -0.7729  2.5509  1.9574
 1322SOL     OW 4864   2.288   1.036   6.473  0.3800  0.1709 -0.0466
 1322SOL    HW1 4865   2.266   0.995   6.385 -0.5632  2.1760 -0.7991
 1322SOL    HW2 4866   2.387   1.037   6.485  0.5180 -0.2057 -1.0353
 1323SOL     OW 4867   1.976   2.801   0.514  0.0188  0.1321 -0.1710
 1323SOL    HW1 4868   2.074   2.794   0.533  0.0449 -0.8468 -0.5916
 1323SOL    HW2 4869   1.925   2.750   0.583 -0.1685  0.3108 -0.1770
 1324SOL     OW 4870   2.402   3.645   5.725 -0.6311  0.0332  0.3595
 1324SOL    HW1 4871   2.327   3.660   5.789  1.1914  0.6894  2.4672
 1324SOL    HW2 4872   2.406   3.721   5.660 -1.5171  0.2193  0.5158
 1325SOL     OW 4873   5.134   5.499   5.027  0.2152  0.1520  0.4758
 1325SOL    HW1 4874   5.120   5.473   4.931 -1.0620 -2.3316  1.2542
 1325SOL    HW2 4875   5.093   5.589   5.042 -1.8829 -0.4999 -0.7872
 1326SOL     OW 4876   6.932   0.387   4.586  0.4325 -1.0725  0.2870
 1326SOL    HW1 4877   6.849   0.435   4.558  1.8838  0.2169 -2.2019
 1326SOL    HW2 4878   6.924   0.290   4.563 -0.4863 -1.0410  0.4258
 1327SOL     OW 4879   4.730   5.363   3.424  0.1509 -0.3970 -0.5383
 1327SOL    HW1 4880   4.717   5.304   3.345  1.3653 -1.7995  0.2613
 1327SOL    HW2 4881   4.689   5.320   3.505 -0.5948  0.7586 -0.2759
 1328SOL     OW 4882   2.632   0.492   6.444  0.1736 -0.0049 -0.3312
 1328SOL    HW1 4883   2.670   0.569   6.393  1.3059 -0.4686 -0.2321
 1328SOL    HW2 4884   2.572   0.526   6.516  0.0743  0.7423 -0.7538
 1329SOL     OW 4885   0.515   3.327   3.228 -0.1966  0.3886 -0.0111
 1329SOL    HW1 4886   0.456   3.260   3.274  0.0984  0.6212  0.7193
 1329SOL    HW2 4887   0.580   3.365   3.294 -0.2591  1.2872 -0.4616
 1330SOL     OW 4888   5.026   2.954   2.662 -0.0631  0.6491 -0.2192
 1330SOL    HW1 4889   5.006   2.986   2.755  1.2723  0.2238  0.2347
 1330SOL    HW2 4890   4.974   2.871   2.643  0.1097  0.4002  0.3794
 1331SOL     OW 4891   5.525   1.450   3.879  0.7030 -0.2500  0.2512
 1331SOL    HW1 4892   5.621   1.426   3.896  0.3570 -1.2135  0.9972
 1331SOL    HW2 4893   5.468   1.410   3.952 -0.5629 -1.9970 -1.5894
 1332SOL     OW 4894   3.413   4.183   0.838 -0.2248  0.2107 -0.1623
 1332SOL    HW1 4895   3.489   4.155   0.897 -1.2018  0.2511  1.1562
 1332SOL    HW2 4896   3.440   4.172   0.742  1.4006  0.1428  0.2736
 1333SOL     OW 4897   3.501   3.710   2.998  0.1834 -0.6308 -0.1215
 1333SOL    HW1 4898   3.454   3.778   2.943 -0.8434 -1.3554 -0.1660
 1333SOL    HW2 4899   3.435   3.661   3.055  0.6393 -2.6198 -1.2031
 1334SOL     OW 4900   1.383   3.618   6.652  0.7310 -0.0559  0.2361
 1334SOL    HW1 4901   1.461   3.579   6.701  0.2376 -1.8842 -0.3363
 1334SOL    HW2 4902   1.303   3.560   6.667 -0.1252  0.8949 -0.5041
 1335SOL     OW 4903   6.633   3.014   2.885 -0.0997 -0.2335 -0.3254
 1335SOL    HW1 4904   6.620   3.037   2.982 -1.6994 -1.0781 -0.3058
 1335SOL    HW2 4905   6.633   3.098   2.831 -1.3614  0.1348  0.2026
 1336SOL     OW 4906   1.764   5.367   5.377  0.4635  0.2013  0.0128
 1336SOL    HW1 4907   1.836   5.379   5.446 -1.6812 -1.2386  2.6734
 1336SOL    HW2 4908   1.714   5.453   5.366  0.5725  0.3423  0.5723
 1337SOL     OW 4909   1.047   1.380   3.562  0.2939 -0.7091  0.7951
 1337SOL    HW1 4910   1.104   1.298   3.559 -0.1839 -1.0209  0.1334
 1337SOL    HW2 4911   1.101   1.458   3.529  0.4521 -0.9386  0.4991
 1338SOL     OW 4912   5.675   2.812   3.225 -0.3893  0.1148 -0.5837
 1338SOL    HW1 4913   5.709   2.906   3.224  0.0312 -0.0132  0.6261
 1338SOL    HW2 4914   5.676   2.776   3.318  0.1921 -1.3628 -1.1229
 1339SOL     OW 4915   0.837   1.505   0.776  0.2273 -0.2118  0.2381
 1339SOL    HW1 4916   0.810   1.415   0.741 -0.4449 -0.7707  2.0994
 1339SOL    HW2 4917   0.830   1.506   0.875  2.2458  1.2624  0.4240
 1340SOL     OW 4918   2.286   2.336   1.478 -0.1243 -0.1284 -0.0500
 1340SOL    HW1 4919   2.265   2.247   1.519 -0.8082 -0.4627 -1.0631
 1340SOL    HW2 4920   2.203   2.373   1.436 -0.1407  1.5495  1.3376
 1341SOL     OW 4921   4.486   5.445   5.856 -0.1685 -0.0478  0.0709
 1341SOL    HW1 4922   4.410   5.506   5.835 -2.0051 -2.5095 -0.8033
 1341SOL    HW2 4923   4.453   5.352   5.869  2.5515 -0.9889  1.1081
 1342SOL     OW 4924   1.509   0.290   1.301 -0.2162  0.1593  0.0650
 1342SOL    HW1 4925   1.426   0.235   1.313  1.5392 -2.2551  2.2014
 1342SOL    HW2 4926   1.564   0.252   1.227 -1.2625  2.2570 -1.9210
 1343SOL     OW 4927   5.678   5.199   2.077 -0.3360  0.1265 -0.3433
 1343SOL    HW1 4928   5.682   5.111   2.028 -0.8703  0.5185 -1.1195
 1343SOL    HW2 4929   5.656   5.182   2.173  0.0486 -0.6177 -0.3721
 1344SOL     OW 4930   0.381   2.252   3.372 -0.1410 -0.4134  0.4087
 1344SOL    HW1 4931   0.282   2.256   3.385 -0.4744 -2.2383 -1.1390
 1344SOL    HW2 4932   0.401   2.237   3.275  1.5842 -1.7805  0.9210
 1345SOL     OW 4933   0.525   6.777   6.028 -0.1553  0.2148 -0.3455
 1345SOL    HW1 4934   0.467   6.832   5.968  0.3796  1.3227  0.1182
 1345SOL    HW2 4935   0.595   6.731   5.975 -0.5293  0.0914 -0.7311
 1346SOL     OW 4936   4.902   3.485   4.631 -0.3889  0.3820  0.4481
 1346SOL    HW1 4937   4.907   3.403   4.573  1.2703  2.2007 -2.1720
 1346SOL    HW2 4938   4.943   3.465   4.720  1.8332 -1.1347 -0.8208
 1347SOL     OW 4939   0.612   1.417   0.213 -0.1173 -0.1053  0.0498
 1347SOL    HW1 4940   0.694   1.474   0.216 -1.7119  2.4922 -1.4790
 1347SOL    HW2 4941   0.585   1.402   0.118 -2.0035  0.0604  0.5120
 1348SOL     OW 4942   2.848   4.867   0.990  0.1708 -0.8680  0.2035
 1348SOL    HW1 4943   2.764   4.888   0.939 -0.1542  1.6591  1.5884
 1348SOL    HW2 4944   2.907   4.948   0.990  2.3203 -2.3479 -0.0946
 1349SOL     OW 4945   4.600   4.423   3.665 -0.2021 -0.3974  0.2358
 1349SOL    HW1 4946   4.508   4.443   3.632  0.1673  0.8862 -0.0481
 1349SOL    HW2 4947   4.598   4.337   3.717 -1.3855 -0.8189 -0.4632
 1350SOL     OW 4948   4.072   5.108   5.869  0.3031 -0.4208  0.9305
 1350SOL    HW1 4949   3.978   5.075   5.885  0.6208 -2.2329 -0.6455
 1350SOL    HW2 4950   4.132   5.030   5.850  1.1348  0.9436 -2.9067
 1351SOL     OW 4951   0.296   4.332   4.917 -0.3227  0.4938 -0.5653
 1351SOL    HW1 4952   0.338   4.343   4.827 -0.8635 -0.0577 -0.8921
 1351SOL    HW2 4953   0.244   4.414   4.941  0.9712  1.2186 -0.1243
 1352SOL     OW 4954   6.693   1.280   1.003 -0.2175 -0.2823  0.5151
 1352SOL    HW1 4955   6.610   1.336   1.004  0.0323  0.1448 -0.6415
 1352SOL    HW2 4956   6.698   1.226   1.087 -1.6161 -0.2486  0.6451
 1353SOL     OW 4957   1.092   1.551   6.555  0.3646  0.9333  0.6362
 1353SOL    HW1 4958   1.152   1.480   6.591  0.3259  1.6382  2.1836
 1353SOL    HW2 4959   1.043   1.595   6.630 -0.5948  1.7229 -0.4070
 1354SOL     OW 4960   5.649   0.338   1.395  0.2908  0.0989 -0.4864
 1354SOL    HW1 4961   5.687   0.403   1.461  0.0977 -0.6981  0.4327
 1354SOL    HW2 4962   5.587   0.386   1.333  0.3068  0.8289  0.0515
 1355SOL     OW 4963   4.757   2.604   6.127  0.0809  1.0537 -0.5141
 1355SOL    HW1 4964   4.678   2.655   6.161 -1.0935 -1.3624  0.5605
 1355SOL    HW2 4965   4.735   2.564   6.038 -0.3137 -0.4826  0.2593
 1356SOL     OW 4966   3.573   2.585   5.978 -0.3923 -0.0143  0.0727
 1356SOL    HW1 4967   3.618   2.524   6.044 -0.6013  0.2206  0.4383
 1356SOL    HW2 4968   3.502   2.535   5.929  0.7685 -0.6073 -1.0732
 1357SOL     OW 4969   0.925   3.424   6.118  0.1359 -0.4377 -0.0970
 1357SOL    HW1 4970   0.876   3.421   6.205 -1.2273  1.5962 -0.7058
 1357SOL    HW2 4971   1.023   3.423   6.134 -0.0869 -1.1371  1.3732
 1358SOL     OW 4972   2.182   6.150   0.248 -0.5081 -0.0037 -0.0445
 1358SOL    HW1 4973   2.256   6.217   0.246  0.2608 -0.8176  0.0495
 1358SOL    HW2 4974   2.148   6.135   0.155 -0.1622 -0.0316 -0.1699
 1359SOL     OW 4975   5.337   3.706   5.838  0.0902 -0.0993 -0.1422
 1359SOL    HW1 4976   5.237   3.709   5.839  0.0930  0.1086  1.0396
 1359SOL    HW2 4977   5.369   3.614   5.860  0.1772 -0.6888 -2.4844
 1360SOL     OW 4978   1.235   1.072   6.662 -0.8147  0.0092 -0.7968
 1360SOL    HW1 4979   1.268   0.987   6.620 -1.2401 -0.3153 -0.4940
 1360SOL    HW2 4980   1.290   1.092   6.743 -0.9005 -0.1417 -0.7002
 1361SOL     OW 4981   6.133   4.525   4.440 -0.1676 -0.2091  0.3037
 1361SOL    HW1 4982   6.184   4.562   4.362 -1.6179  0.5090 -0.3327
 1361SOL    HW2 4983   6.159   4.574   4.523  1.2911 -0.8936  0.2903
 1362SOL     OW 4984   3.767   2.990   4.392 -0.1840  0.2078  0.2812
 1362SOL    HW1 4985   3.843   3.052   4.414 -0.1385 -0.0140  0.7601
 1362SOL    HW2 4986   3.776   2.958   4.298  0.4702 -0.0323  0.4206
 1363SOL     OW 4987   1.567   5.275   4.375  0.6382  0.4812 -0.7947
 1363SOL    HW1 4988   1.591   5.366   4.340  0.6618  0.4332 -0.9020
 1363SOL    HW2 4989   1.481   5.245   4.333 -0.2205  1.1424  0.4317
 1364SOL     OW 4990   4.571   3.842   1.672 -0.3665 -0.1239  0.1407
 1364SOL    HW1 4991   4.669   3.859   1.681 -0.3005  0.0529 -0.8194
 1364SOL    HW2 4992   4.557   3.756   1.623 -0.7009 -0.9797  1.6795
 1365SOL     OW 4993   4.690   1.487   6.244 -0.4807  0.3066  0.4645
 1365SOL    HW1 4994   4.610   1.438   6.208  1.0025 -1.3107 -0.7839
 1365SOL    HW2 4995   4.738   1.531   6.169 -0.9383  2.5311  1.3894
 1366SOL     OW 4996   3.292   6.521   4.890  0.1266  0.0434 -0.7224
 1366SOL    HW1 4997   3.376   6.467   4.879 -1.0663 -1.5523 -2.7698
 1366SOL    HW2 4998   3.285   6.587   4.815  0.2302  1.1876  0.2553
 1367SOL     OW 4999   3.215   1.251   1.505 -0.2227 -0.1140 -0.0218
 1367SOL    HW1 5000   3.138   1.277   1.564  0.7040  0.0735  1.1486
 1367SOL    HW2 5001   3.244   1.331   1.453 -1.5463 -0.4660 -1.3815
 1368SOL     OW 5002   0.519   1.332   3.054 -0.0402  0.4832  0.0542
 1368SOL    HW1 5003   0.559   1.282   2.977  2.7606  1.5571  0.6593
 1368SOL    HW2 5004   0.562   1.422   3.059 -0.5682  0.6468  2.5108
 1369SOL     OW 5005   0.501   0.197   2.855  0.2476  0.6854 -0.0347
 1369SOL    HW1 5006   0.555   0.227   2.933  0.8180 -0.8822  0.1983
 1369SOL    HW2 5007   0.404   0.217   2.871  0.2391 -0.4221  1.4985
 1370SOL     OW 5008   4.683   0.879   2.858  0.4191 -0.3263 -0.0164
 1370SOL    HW1 5009   4.648   0.792   2.824  1.2711 -0.6400 -0.1042
 1370SOL    HW2 5010   4.621   0.915   2.927 -0.4180 -0.5446 -0.6370
 1371SOL     OW 5011   4.250   0.701   5.375  0.1331  0.1210  0.6185
 1371SOL    HW1 5012   4.206   0.761   5.308  0.7131  0.1570  0.2706
 1371SOL    HW2 5013   4.185   0.631   5.404 -1.0256  1.6654  2.0298
 1372SOL     OW 5014   3.930   1.828   1.514  0.9611 -0.4951  1.1890
 1372SOL    HW1 5015   3.979   1.824   1.427  0.1742 -0.3728  0.7277
 1372SOL    HW2 5016   3.944   1.917   1.556  1.5558 -0.6468  1.3136
 1373SOL     OW 5017   1.214   4.487   5.582  0.3574 -0.0731 -0.3400
 1373SOL    HW1 5018   1.313   4.483   5.598  0.2968  0.5192  0.2902
 1373SOL    HW2 5019   1.194   4.563   5.520  0.2775 -0.0021 -0.2280
 1374SOL     OW 5020   3.301   5.210   0.185  0.0834  0.2265 -0.2281
 1374SOL    HW1 5021   3.362   5.215   0.264  1.2007 -3.6706 -0.6505
 1374SOL    HW2 5022   3.354   5.187   0.104 -1.3306  2.1725 -1.8011
 1375SOL     OW 5023   1.957   3.938   3.091  0.2709  0.1078  0.2718
 1375SOL    HW1 5024   2.049   3.966   3.117  0.0741 -1.2033  2.6514
 1375SOL    HW2 5025   1.949   3.839   3.094 -1.3058  0.2080  0.4648
 1376SOL     OW 5026   6.387   6.325   3.874 -1.0127  0.6426 -0.1248
 1376SOL    HW1 5027   6.424   6.256   3.935 -1.8830  2.3407  2.4873
 1376SOL    HW2 5028   6.330   6.281   3.804  0.0232 -1.3676  0.2411
 1377SOL     OW 5029   2.300   6.981   5.186 -0.3225 -0.4928 -0.4470
 1377SOL    HW1 5030   2.248   7.039   5.123 -0.3340 -0.2936 -0.2545
 1377SOL    HW2 5031   2.397   6.985   5.162 -0.3468 -0.5451 -0.5537
 1378SOL     OW 5032   1.876   2.825   6.787 -0.8492  0.4916 -0.2900
 1378SOL    HW1 5033   1.837   2.812   6.696  0.7705 -2.2926 -0.7265
 1378SOL    HW2 5034   1.976   2.832   6.780 -0.4758 -1.8903  1.3125
 1379SOL     OW 5035   3.945   6.784   1.315  0.3763  0.6440 -0.1657
 1379SOL    HW1 5036   3.940   6.694   1.359 -1.3718 -0.0822 -1.6999
 1379SOL    HW2 5037   3.993   6.776   1.228  1.2379  1.4768  0.2056
 1380SOL     OW 5038   6.749   4.801   4.702  0.0438  0.1966 -0.0916
 1380SOL    HW1 5039   6.729   4.872   4.770 -0.6174  1.2113 -1.2944
 1380SOL    HW2 5040   6.833   4.824   4.653 -0.4497  0.4651 -0.8459
 1381SOL     OW 5041   4.314   6.180   2.898  0.2493  0.2547  0.7051
 1381SOL    HW1 5042   4.268   6.092   2.910  1.3301 -0.1807  1.9393
 1381SOL    HW2 5043   4.413   6.164   2.886  0.3295  1.2545 -0.0233
 1382SOL     OW 5044   6.373   3.833   0.965  0.0636  0.2433  0.2565
 1382SOL    HW1 5045   6.472   3.838   0.950  0.2957 -1.7030  0.8283
 1382SOL    HW2 5046   6.345   3.906   1.026  1.2219  0.6027  0.3813
 1383SOL     OW 5047   2.025   6.428   1.928  0.1070  0.8106 -0.6781
 1383SOL    HW1 5048   2.055   6.487   2.003 -1.6903  3.1275 -1.6402
 1383SOL    HW2 5049   2.093   6.429   1.855 -0.1686  2.2629 -0.9419
 1384SOL     OW 5050   1.782   1.122   0.769  0.7939  0.2800 -0.8626
 1384SOL    HW1 5051   1.876   1.150   0.788  1.1096 -1.2256 -0.0482
 1384SOL    HW2 5052   1.776   1.022   0.772 -0.2784  0.1675 -3.5230
 1385SOL     OW 5053   4.941   3.197   2.500 -0.0468 -0.1521 -0.0249
 1385SOL    HW1 5054   4.953   3.120   2.563 -0.1608 -1.1259 -1.1602
 1385SOL    HW2 5055   5.005   3.187   2.424  0.9933  1.6887  0.5443
 1386SOL     OW 5056   0.938   0.398   4.434 -0.1312  0.3746  0.0310
 1386SOL    HW1 5057   1.012   0.408   4.500 -0.2617  0.7740  0.1147
 1386SOL    HW2 5058   0.963   0.442   4.348  0.4098 -0.9013 -0.4936
 1387SOL     OW 5059   3.826   0.536   3.084  0.3546  0.1045 -0.4297
 1387SOL    HW1 5060   3.908   0.508   3.134 -0.1130  1.9166  1.5271
 1387SOL    HW2 5061   3.828   0.636   3.071 -0.0952 -0.1613 -3.1377
 1388SOL     OW 5062   6.349   6.840   4.464 -0.0793  0.1389 -0.0705
 1388SOL    HW1 5063   6.253   6.852   4.440  0.4027  0.1046 -2.2968
 1388SOL    HW2 5064   6.397   6.797   4.387  1.4746 -1.0506  1.4690
 1389SOL     OW 5065   6.923   6.176   4.422 -0.1314  0.6144 -0.2010
 1389SOL    HW1 5066   6.883   6.108   4.483  0.0977  0.7325  0.0854
 1389SOL    HW2 5067   6.868   6.184   4.339  0.9951 -1.4789 -1.2156
 1390SOL     OW 5068   4.641   2.579   1.852 -0.3887  0.1422  0.0215
 1390SOL    HW1 5069   4.718   2.515   1.856  1.0745  1.7565 -0.6989
 1390SOL    HW2 5070   4.669   2.667   1.892 -0.9398  1.5894 -2.5616
 1391SOL     OW 5071   6.512   2.221   5.362  0.5389  0.2006 -0.2675
 1391SOL    HW1 5072   6.557   2.171   5.288  0.7382  1.6119 -1.1284
 1391SOL    HW2 5073   6.549   2.314   5.367 -2.2038  1.4208 -0.9844
 1392SOL     OW 5074   6.170   0.937   5.329 -0.3243  0.0687  0.5203
 1392SOL    HW1 5075   6.170   0.962   5.232 -0.6545  1.5670  0.8876
 1392SOL    HW2 5076   6.249   0.979   5.374 -1.4278  1.3115  1.3565
 1393SOL     OW 5077   4.244   6.896   0.755 -0.5745 -0.3197 -0.0532
 1393SOL    HW1 5078   4.307   6.944   0.694 -0.0635 -0.8779  0.0280
 1393SOL    HW2 5079   4.183   6.962   0.799  1.1967  0.4921  1.3435
 1394SOL     OW 5080   5.506   2.083   4.791 -0.3612 -0.6693 -0.3470
 1394SOL    HW1 5081   5.529   2.100   4.695 -1.8232  0.1101 -0.5870
 1394SOL    HW2 5082   5.553   2.001   4.822 -1.5939 -2.2533 -2.3905
 1395SOL     OW 5083   6.832   4.695   2.014  0.2261 -0.0944 -0.0776
 1395SOL    HW1 5084   6.809   4.786   2.048  0.7904  0.2926 -0.6995
 1395SOL    HW2 5085   6.836   4.630   2.090  0.9148  0.6326  0.5190
 1396SOL     OW 5086   2.132   3.393   3.239  0.3989  0.1482  0.1736
 1396SOL    HW1 5087   2.187   3.313   3.261  1.1202  0.2433 -1.1856
 1396SOL    HW2 5088   2.035   3.371   3.248  0.5824 -0.9993 -0.5445
 1397SOL     OW 5089   2.574   5.075   2.540  0.0001  0.0653  0.1703
 1397SOL    HW1 5090   2.672   5.077   2.560 -0.2933 -0.6782  1.8370
 1397SOL    HW2 5091   2.527   5.018   2.608 -1.8657  1.9974  0.5853
 1398SOL     OW 5092   1.526   6.300   6.603 -0.2443  0.3929 -0.1466
 1398SOL    HW1 5093   1.474   6.360   6.542  2.1131  2.1715 -0.5554
 1398SOL    HW2 5094   1.624   6.311   6.585  0.4616 -0.4018  2.7251
 1399SOL     OW 5095   2.622   5.537   1.864 -0.2238  0.0920  0.3699
 1399SOL    HW1 5096   2.639   5.567   1.957  1.4194 -2.3194  0.9271
 1399SOL    HW2 5097   2.524   5.520   1.852 -0.2807 -1.2911  2.2729
 1400SOL     OW 5098   0.342   0.606   6.938  0.3812  0.3384 -0.6169
 1400SOL    HW1 5099   0.306   0.513   6.945  1.3053 -0.0596 -1.0180
 1400SOL    HW2 5100   0.342   0.634   6.842  1.0182  0.3826 -0.6035
 1401SOL     OW 5101   4.889   0.213   1.185  0.6294 -0.3988  0.4617
 1401SOL    HW1 5102   4.808   0.168   1.147 -0.5760 -0.6614  3.1137
 1401SOL    HW2 5103   4.939   0.147   1.243  1.7157  0.2760  0.3172
 1402SOL     OW 5104   5.103   5.405   2.214  0.1721 -0.7333  0.1025
 1402SOL    HW1 5105   5.036   5.444   2.152  1.5601 -1.2453 -1.8375
 1402SOL    HW2 5106   5.177   5.471   2.229  0.6865 -1.2326 -0.1898
 1403SOL     OW 5107   1.396   1.198   6.874  0.6392  0.1151  0.6015
 1403SOL    HW1 5108   1.494   1.180   6.870  0.5391 -0.4055  0.3750
 1403SOL    HW2 5109   1.374   1.248   6.958  1.0839  0.1396  0.7017
 1404SOL     OW 5110   3.818   6.246   0.092  0.1806  0.2059  0.0400
 1404SOL    HW1 5111   3.784   6.166   0.044  1.0503 -0.0107 -0.2329
 1404SOL    HW2 5112   3.744   6.288   0.145 -0.2520 -0.8265  0.2650
 1405SOL     OW 5113   0.278   4.050   4.977  0.3097  0.4484 -0.1176
 1405SOL    HW1 5114   0.309   4.142   5.000  0.9002  0.1935  0.0988
 1405SOL    HW2 5115   0.326   3.982   5.033  1.5592 -0.1656 -1.8377
 1406SOL     OW 5116   1.256   6.774   2.043 -0.0152  0.7654 -0.5542
 1406SOL    HW1 5117   1.218   6.691   2.084 -0.3489 -0.1196 -2.5380
 1406SOL    HW2 5118   1.192   6.850   2.056 -0.1100  0.5111  0.5213
 1407SOL     OW 5119   0.257   5.063   2.215 -0.1755 -0.5369  0.3637
 1407SOL    HW1 5120   0.303   5.121   2.282 -0.4592 -0.0209  0.1207
 1407SOL    HW2 5121   0.309   5.064   2.129  0.6424 -1.8731  0.8336
 1408SOL     OW 5122   4.922   0.488   2.054 -0.1661  0.5309 -0.1197
 1408SOL    HW1 5123   4.997   0.545   2.019  0.3608  0.1971  0.4352
 1408SOL    HW2 5124   4.909   0.410   1.993 -0.7751  1.1479 -0.7893
 1409SOL     OW 5125   4.542   3.267   6.336  0.1521 -0.2395  0.5350
 1409SOL    HW1 5126   4.562   3.356   6.294  0.9054 -1.2582 -1.4368
 1409SOL    HW2 5127   4.452   3.236   6.306 -0.0063 -0.2368  1.0164
 1410SOL     OW 5128   1.636   0.072   0.376  0.0541 -0.5517  0.0768
 1410SOL    HW1 5129   1.581   0.026   0.306 -1.6647 -0.7794  1.5110
 1410SOL    HW2 5130   1.659   0.164   0.344 -0.6959 -0.6493 -0.8027
 1411SOL     OW 5131   4.447   4.048   0.849 -0.4520 -0.5752  0.7222
 1411SOL    HW1 5132   4.464   4.132   0.900 -0.6600 -0.5842  0.8070
 1411SOL    HW2 5133   4.534   4.003   0.829 -0.1792  0.6785 -1.0932
 1412SOL     OW 5134   1.112   2.739   2.208  0.6280 -0.8045 -0.1512
 1412SOL    HW1 5135   1.012   2.742   2.208  0.5428 -2.3425 -1.3412
 1412SOL    HW2 5136   1.144   2.661   2.262  1.1710 -0.5532 -0.1019
 1413SOL     OW 5137   2.436   1.461   6.380  0.2969  0.6383 -0.1973
 1413SOL    HW1 5138   2.447   1.364   6.359 -2.0825  0.4597 -0.8908
 1413SOL    HW2 5139   2.502   1.514   6.326  2.8334 -0.6300  1.4835
 1414SOL     OW 5140   2.709   4.736   2.301  0.3876 -0.0583 -0.2822
 1414SOL    HW1 5141   2.715   4.683   2.216 -1.0006 -1.4814  0.4392
 1414SOL    HW2 5142   2.626   4.793   2.299  2.3902  3.0832 -1.5014
 1415SOL     OW 5143   3.963   2.171   5.088 -0.4061 -0.1966  0.5432
 1415SOL    HW1 5144   3.982   2.261   5.127  1.8088  0.7166 -2.3224
 1415SOL    HW2 5145   3.866   2.165   5.062 -0.3389  1.8413 -0.3167
 1416SOL     OW 5146   5.193   5.319   4.332 -0.4249 -0.1925  0.1844
 1416SOL    HW1 5147   5.259   5.281   4.397  1.1470 -1.1047 -1.8222
 1416SOL    HW2 5148   5.133   5.246   4.298 -1.5496  0.3652  0.9222
 1417SOL     OW 5149   3.127   3.355   2.786  0.4571  0.2130 -0.2552
 1417SOL    HW1 5150   3.188   3.426   2.750  1.5062 -0.1707  0.7026
 1417SOL    HW2 5151   3.095   3.381   2.877 -0.1356  0.0060 -0.3964
 1418SOL     OW 5152   2.331   2.770   4.809  0.0172  0.2571 -0.4449
 1418SOL    HW1 5153   2.251   2.790   4.752 -1.2847 -1.2022  0.7771
 1418SOL    HW2 5154   2.346   2.845   4.873 -0.6130  0.4012 -0.4557
 1419SOL     OW 5155   1.263   5.077   2.640 -0.2655  0.4527  0.0945
 1419SOL    HW1 5156   1.350   5.126   2.630 -0.8909  1.6212  0.1522
 1419SOL    HW2 5157   1.258   5.003   2.573  1.3736 -0.5689  1.0467
 1420SOL     OW 5158   2.580   4.839   0.548 -0.2390 -0.0916  0.2051
 1420SOL    HW1 5159   2.559   4.902   0.473  3.0402 -0.1417 -0.9338
 1420SOL    HW2 5160   2.570   4.887   0.636  3.5967  2.7574 -0.6495
 1421SOL     OW 5161   2.086   6.769   0.858 -0.2511  0.6007  0.2550
 1421SOL    HW1 5162   2.043   6.860   0.855 -1.6617 -0.0675 -0.7923
 1421SOL    HW2 5163   2.141   6.756   0.775  1.0249  0.9829  1.0230
 1422SOL     OW 5164   6.584   3.162   0.312  0.1717  0.1541  0.5360
 1422SOL    HW1 5165   6.636   3.235   0.267 -3.8436  2.5246 -0.8561
 1422SOL    HW2 5166   6.569   3.186   0.408  0.4122  0.2327  0.5536
 1423SOL     OW 5167   4.746   0.367   5.471  0.0431  0.2114  0.2110
 1423SOL    HW1 5168   4.683   0.300   5.432  0.1484  0.1078  0.2219
 1423SOL    HW2 5169   4.835   0.326   5.485 -0.2484 -0.0283  1.4437
 1424SOL     OW 5170   6.627   3.917   0.990 -0.0272 -0.1201  0.6293
 1424SOL    HW1 5171   6.604   4.007   1.027 -0.2096  0.4026 -0.7000
 1424SOL    HW2 5172   6.677   3.927   0.905 -2.6010 -1.2025 -1.1600
 1425SOL     OW 5173   5.731   6.323   0.930  0.1415  0.7040  0.1737
 1425SOL    HW1 5174   5.632   6.323   0.918  0.4670  0.7509 -4.1091
 1425SOL    HW2 5175   5.761   6.412   0.964 -1.1585  1.5237 -0.7462
 1426SOL     OW 5176   2.782   2.149   1.910 -0.2196  0.5902 -0.2669
 1426SOL    HW1 5177   2.808   2.185   1.820 -0.7387  0.5979 -0.4184
 1426SOL    HW2 5178   2.797   2.219   1.980 -0.5787  0.8685 -0.4643
 1427SOL     OW 5179   2.248   0.054   5.975  0.3196 -0.8428  0.2664
 1427SOL    HW1 5180   2.208  -0.034   5.949 -0.0363  0.1126 -2.8985
 1427SOL    HW2 5181   2.179   0.125   5.967  1.1665  0.0367  0.5902
 1428SOL     OW 5182   1.318   2.387   3.500 -0.3218  0.2083  0.6448
 1428SOL    HW1 5183   1.379   2.439   3.441 -1.3598 -0.1184 -0.7971
 1428SOL    HW2 5184   1.369   2.351   3.578  1.3060  0.0172 -0.4451
 1429SOL     OW 5185   0.888   0.055   3.132  0.2572 -0.3839 -0.0965
 1429SOL    HW1 5186   0.916   0.036   3.226  0.6014  1.0737  0.1085
 1429SOL    HW2 5187   0.951   0.119   3.090 -0.3855 -0.3507 -1.0443
 1430SOL     OW 5188   2.049   4.359   5.579 -0.1646 -0.0970  0.1937
 1430SOL    HW1 5189   2.120   4.428   5.564  0.3544 -0.3762  1.2089
 1430SOL    HW2 5190   2.085   4.269   5.558 -0.0210 -0.2951  1.2031
 1431SOL     OW 5191   4.525   0.678   2.143  0.0156  0.4927  0.1657
 1431SOL    HW1 5192   4.502   0.768   2.179  1.6386  1.2326 -0.5308
 1431SOL    HW2 5193   4.624   0.664   2.148 -0.1672 -1.1038 -0.0816
 1432SOL     OW 5194   4.752   5.229   2.172  0.1719  0.3906 -0.1070
 1432SOL    HW1 5195   4.845   5.190   2.169  1.1407  2.5939 -0.6832
 1432SOL    HW2 5196   4.722   5.236   2.267  0.2849 -0.9306  0.0545
 1433SOL     OW 5197   2.383   5.266   4.007  0.5169  0.0245 -0.2849
 1433SOL    HW1 5198   2.311   5.197   3.996 -0.1522  0.5393  0.7328
 1433SOL    HW2 5199   2.436   5.246   4.090  2.2628 -0.9503 -1.5544
 1434SOL     OW 5200   5.409   2.619   0.806  0.2172  0.5067 -0.1438
 1434SOL    HW1 5201   5.330   2.677   0.825  0.3269  0.4118  0.6423
 1434SOL    HW2 5202   5.492   2.676   0.804  0.1250  0.6225 -1.0724
 1435SOL     OW 5203   0.725   4.649   3.404 -0.0043 -0.5132 -0.0373
 1435SOL    HW1 5204   0.748   4.555   3.429 -2.6032 -0.9235  1.0814
 1435SOL    HW2 5205   0.755   4.711   3.477  0.8626 -0.5395 -0.3494
 1436SOL     OW 5206   5.895   0.959   5.309 -0.3368 -0.0007 -0.1649
 1436SOL    HW1 5207   5.853   0.932   5.396  0.4313  1.8242  0.8225
 1436SOL    HW2 5208   5.992   0.937   5.310 -0.1581  0.7416 -0.2137
 1437SOL     OW 5209   4.892   3.844   1.937 -0.2211  0.0038 -0.5958
 1437SOL    HW1 5210   4.929   3.753   1.918 -0.8485 -0.2584 -0.5531
 1437SOL    HW2 5211   4.869   3.851   2.034  0.1222  0.3171 -0.5353
 1438SOL     OW 5212   2.549   0.242   3.547 -0.1532 -0.5679 -0.6541
 1438SOL    HW1 5213   2.475   0.295   3.587 -0.7570 -0.3637 -1.9923
 1438SOL    HW2 5214   2.637   0.278   3.579 -0.6100 -0.6127  0.6884
 1439SOL     OW 5215   6.484   5.348   5.766  0.1696  0.1175 -0.0716
 1439SOL    HW1 5216   6.412   5.295   5.810 -0.5400  0.5363 -0.7133
 1439SOL    HW2 5217   6.568   5.342   5.821 -0.7476  0.8106  1.4744
 1440SOL     OW 5218   3.289   3.283   2.490 -0.1876  0.5046  0.4680
 1440SOL    HW1 5219   3.224   3.291   2.565  0.9261  0.4912  1.4659
 1440SOL    HW2 5220   3.306   3.186   2.471 -1.0875  0.4956 -0.3803
 1441SOL     OW 5221   5.981   3.152   4.787  0.6295 -0.8284 -0.1084
 1441SOL    HW1 5222   6.070   3.148   4.742  0.3525 -2.8899 -0.6169
 1441SOL    HW2 5223   5.962   3.063   4.829 -1.0853 -0.3579  0.1637
 1442SOL     OW 5224   4.637   6.715   6.942  0.4853  0.3197  0.2107
 1442SOL    HW1 5225   4.635   6.678   6.849 -2.9573  1.6907 -0.4313
 1442SOL    HW2 5226   4.587   6.653   7.003  1.3763  0.2017  0.8387
 1443SOL     OW 5227   6.425   1.965   3.422 -0.3341  0.2412 -0.1300
 1443SOL    HW1 5228   6.476   1.909   3.488  0.9744  1.9243  0.3612
 1443SOL    HW2 5229   6.452   1.939   3.329  0.2866  0.0501  0.0949
 1444SOL     OW 5230   5.757   6.211   4.501 -0.0694  0.0445  0.2363
 1444SOL    HW1 5231   5.759   6.128   4.445  0.9851 -0.5239  1.0832
 1444SOL    HW2 5232   5.813   6.282   4.457 -2.3545  0.9706 -1.3947
 1445SOL     OW 5233   0.872   2.583   1.790  0.2156  0.3130  0.2866
 1445SOL    HW1 5234   0.873   2.662   1.850  0.8333 -1.6341  3.0465
 1445SOL    HW2 5235   0.778   2.563   1.762 -0.4381 -0.0255  2.5463
 1446SOL     OW 5236   3.542   6.740   1.988 -0.0814 -0.4783  0.1957
 1446SOL    HW1 5237   3.543   6.840   1.977 -0.9520 -0.6020 -1.2151
 1446SOL    HW2 5238   3.550   6.718   2.085 -2.6032  1.0817  0.8581
 1447SOL     OW 5239   1.035   2.012   4.870  0.2845  0.0882  0.0493
 1447SOL    HW1 5240   1.008   1.936   4.929 -1.2956  1.8553  1.7193
 1447SOL    HW2 5241   1.130   1.999   4.840  0.3135 -2.1059  0.9156
 1448SOL     OW 5242   4.457   0.411   2.036 -0.2020  0.1697  0.6011
 1448SOL    HW1 5243   4.515   0.373   2.108 -1.8156 -0.4848  1.6078
 1448SOL    HW2 5244   4.458   0.511   2.042  0.9324  0.1753  0.4838
 1449SOL     OW 5245   4.601   5.937   5.990  0.7398  0.8972  0.2178
 1449SOL    HW1 5246   4.590   6.032   5.962 -1.3452 -0.0345 -2.5928
 1449SOL    HW2 5247   4.618   5.933   6.089  2.1373  4.1762  0.2519
 1450SOL     OW 5248   4.531   0.875   4.751  0.5431  0.2645 -0.2463
 1450SOL    HW1 5249   4.485   0.912   4.832 -1.2893  0.1638 -1.1911
 1450SOL    HW2 5250   4.557   0.950   4.690  0.8946  0.2603 -0.1068
 1451SOL     OW 5251   0.074   6.802   0.785  0.0233  0.1919 -0.6512
 1451SOL    HW1 5252   0.145   6.812   0.855 -1.1319  0.9303  0.4453
 1451SOL    HW2 5253   0.083   6.875   0.718  0.9231 -0.3198 -1.1100
 1452SOL     OW 5254   2.508   0.769   6.441  0.4435 -0.0150 -0.2068
 1452SOL    HW1 5255   2.604   0.789   6.425  1.0888 -0.8909  2.1786
 1452SOL    HW2 5256   2.484   0.792   6.535 -1.0964 -1.7826 -0.0956
 1453SOL     OW 5257   3.514   5.461   5.282  0.5291  0.4163  0.1954
 1453SOL    HW1 5258   3.539   5.364   5.284  1.8369  0.7379  0.4922
 1453SOL    HW2 5259   3.577   5.511   5.222  0.0031  1.1162  0.2082
 1454SOL     OW 5260   4.142   3.377   0.924 -0.4411  0.0930 -1.0039
 1454SOL    HW1 5261   4.147   3.447   0.996  2.0273 -1.7811  0.8064
 1454SOL    HW2 5262   4.065   3.316   0.943 -0.6635  0.4476 -0.7484
 1455SOL     OW 5263   2.725   0.021   1.235 -0.6076 -0.1357 -0.7672
 1455SOL    HW1 5264   2.633  -0.013   1.254 -0.9585  1.4699  0.6653
 1455SOL    HW2 5265   2.719   0.116   1.204  0.6527  1.1472  2.5130
 1456SOL     OW 5266   0.061   5.987   5.730 -0.1106  0.7745 -0.6467
 1456SOL    HW1 5267   0.117   6.002   5.648  2.1954 -1.3824  0.3725
 1456SOL    HW2 5268   0.034   5.891   5.734 -0.0764  0.8075  1.1579
 1457SOL     OW 5269   2.402   1.390   5.494  0.0676  0.0216 -0.1582
 1457SOL    HW1 5270   2.418   1.420   5.588  0.9698 -1.9789  0.3851
 1457SOL    HW2 5271   2.451   1.449   5.431 -1.7430  2.3114  0.4584
 1458SOL     OW 5272   0.367   6.642   0.073  0.0940 -0.0287 -0.5264
 1458SOL    HW1 5273   0.388   6.568   0.136 -4.0330 -2.1558 -1.3077
 1458SOL    HW2 5274   0.375   6.730   0.120  1.2281 -1.2209  1.6313
 1459SOL     OW 5275   3.633   5.559   1.428 -0.1882 -0.0889  0.4077
 1459SOL    HW1 5276   3.707   5.506   1.386  0.0041 -1.7959  2.7399
 1459SOL    HW2 5277   3.574   5.499   1.481 -3.1674  1.2590 -1.1033
 1460SOL     OW 5278   1.370   5.845   0.045 -0.0041 -0.4251 -0.0733
 1460SOL    HW1 5279   1.455   5.802   0.076  0.9211 -2.0724 -4.2678
 1460SOL    HW2 5280   1.299   5.775   0.035 -0.1460 -0.0749 -1.7716
 1461SOL     OW 5281   4.971   4.166   0.696 -0.7214 -0.6733 -0.2547
 1461SOL    HW1 5282   4.894   4.118   0.654 -1.7768  1.7915 -1.3752
 1461SOL    HW2 5283   5.005   4.236   0.634 -0.8209  1.5983  2.0668
 1462SOL     OW 5284   0.024   0.191   6.392 -0.3728 -0.1442  0.8490
 1462SOL    HW1 5285   0.059   0.284   6.394  0.2974 -0.3482 -0.2439
 1462SOL    HW2 5286   0.042   0.146   6.480 -0.2829  0.6011  1.2138
 1463SOL     OW 5287   0.407   0.953   5.634  0.1808 -0.5112 -0.0786
 1463SOL    HW1 5288   0.487   0.930   5.577  0.0124 -0.3949 -0.3629
 1463SOL    HW2 5289   0.370   1.041   5.605  1.8971  1.0990  2.1325
 1464SOL     OW 5290   6.676   2.801   0.688 -0.5581  0.2230  0.4490
 1464SOL    HW1 5291   6.677   2.888   0.736 -0.7118  0.0768  0.7246
 1464SOL    HW2 5292   6.724   2.809   0.601 -2.4253  1.1619 -0.5538
 1465SOL     OW 5293   0.125   6.561   4.654 -0.0227  0.2719  0.4899
 1465SOL    HW1 5294   0.188   6.500   4.606 -0.0314 -0.6628  1.6246
 1465SOL    HW2 5295   0.032   6.527   4.645  0.0149 -0.1203  1.4387
 1466SOL     OW 5296   5.171   4.037   4.594 -0.4189 -0.0845  0.5192
 1466SOL    HW1 5297   5.135   4.077   4.679 -0.4652  0.7768  0.1007
 1466SOL    HW2 5298   5.269   4.054   4.588 -0.4790  0.1736  0.2325
 1467SOL     OW 5299   1.115   3.430   4.081  0.2268 -0.2527  0.0082
 1467SOL    HW1 5300   1.128   3.519   4.125  2.6934 -0.4513 -0.1487
 1467SOL    HW2 5301   1.137   3.437   3.984  0.3572 -0.9942 -0.0249
 1468SOL     OW 5302   5.012   0.622   3.003  0.6974  0.6700  0.2427
 1468SOL    HW1 5303   5.001   0.533   3.046  1.8238  0.3487 -0.1005
 1468SOL    HW2 5304   4.924   0.670   3.002 -0.3664 -1.1752 -1.1870
 1469SOL     OW 5305   6.879   0.858   3.187 -0.2790  0.0121  0.0479
 1469SOL    HW1 5306   6.846   0.952   3.182  0.6399  0.2939 -1.0587
 1469SOL    HW2 5307   6.874   0.815   3.097  0.6493 -0.5271  0.2384
 1470SOL     OW 5308   1.406   5.990   3.672  0.5645 -0.1222  0.1772
 1470SOL    HW1 5309   1.456   6.073   3.647 -0.4208 -0.4655 -3.4576
 1470SOL    HW2 5310   1.309   6.003   3.655  0.2037 -1.5734  0.9498
 1471SOL     OW 5311   1.058   0.496   1.801  0.1639 -0.5281  0.4257
 1471SOL    HW1 5312   1.079   0.586   1.840 -0.1617 -0.4826  0.5050
 1471SOL    HW2 5313   1.142   0.450   1.775  0.3575 -0.3593  0.7488
 1472SOL     OW 5314   4.694   4.849   4.327  0.1538 -0.2029 -0.1897
 1472SOL    HW1 5315   4.631   4.773   4.314  1.8366 -2.0309  1.5556
 1472SOL    HW2 5316   4.773   4.838   4.266 -0.8343  1.7152 -1.9099
 1473SOL     OW 5317   6.309   2.328   4.055  0.8662  0.6070  0.5235
 1473SOL    HW1 5318   6.325   2.413   4.106 -0.6270  2.1946 -1.4676
 1473SOL    HW2 5319   6.383   2.315   3.988  1.3074  0.1047  1.1042
 1474SOL     OW 5320   5.861   6.000   3.414 -0.0025  0.6621 -0.2051
 1474SOL    HW1 5321   5.846   6.025   3.510 -2.4113 -3.0540  0.5750
 1474SOL    HW2 5322   5.789   6.040   3.358 -0.4789  0.2084  0.0785
 1475SOL     OW 5323   4.974   0.417   2.808 -0.5218 -0.3126  0.5038
 1475SOL    HW1 5324   4.978   0.517   2.813 -0.5013 -0.2964  0.1651
 1475SOL    HW2 5325   4.996   0.379   2.898  0.0156 -0.0246  0.4997
 1476SOL     OW 5326   0.760   2.875   0.715  0.2919  0.3717 -0.3651
 1476SOL    HW1 5327   0.731   2.894   0.621 -1.1211  0.7136  0.1212
 1476SOL    HW2 5328   0.682   2.884   0.777  0.7384 -1.8490  0.6145
 1477SOL     OW 5329   2.129   5.760   5.369 -0.2698  0.4401  0.3681
 1477SOL    HW1 5330   2.159   5.666   5.384 -3.6757 -0.8952 -0.2914
 1477SOL    HW2 5331   2.185   5.801   5.297 -1.3513 -2.7105 -2.5634
 1478SOL     OW 5332   6.836   4.281   0.324 -0.2218 -0.2754 -0.2590
 1478SOL    HW1 5333   6.789   4.304   0.239  0.0850 -0.8874 -0.5964
 1478SOL    HW2 5334   6.928   4.247   0.304 -0.4244 -1.1518  0.2745
 1479SOL     OW 5335   0.091   5.850   1.084  0.4520  0.2438 -0.4364
 1479SOL    HW1 5336   0.030   5.798   1.143  0.5566  0.9261  0.2940
 1479SOL    HW2 5337   0.179   5.862   1.128  1.2479 -1.0103 -1.6277
 1480SOL     OW 5338   2.929   0.111   0.107 -0.4631 -0.7469  0.2290
 1480SOL    HW1 5339   3.023   0.096   0.138 -0.0616  1.1045  0.0510
 1480SOL    HW2 5340   2.867   0.107   0.186  0.0085 -0.2233  0.6353
 1481SOL     OW 5341   5.829   2.774   0.278  0.3206 -0.1391  0.5066
 1481SOL    HW1 5342   5.778   2.743   0.198 -1.7365 -0.5124  1.8831
 1481SOL    HW2 5343   5.830   2.702   0.347  0.1298  0.9289  1.6572
 1482SOL     OW 5344   0.334   0.695   6.686  0.9193 -0.1763 -0.3106
 1482SOL    HW1 5345   0.239   0.677   6.661 -0.2713  3.1833  1.1194
 1482SOL    HW2 5346   0.382   0.735   6.608  0.5962 -0.1437 -0.4957
 1483SOL     OW 5347   5.298   4.351   5.804  0.2417 -0.6296  0.1277
 1483SOL    HW1 5348   5.250   4.274   5.846 -3.9333  0.2471 -2.4138
 1483SOL    HW2 5349   5.333   4.323   5.715 -2.3574  0.4790 -1.3613
 1484SOL     OW 5350   6.108   1.902   3.982  0.1588 -0.3264 -0.9527
 1484SOL    HW1 5351   6.114   1.843   4.063  2.0725 -1.4250 -1.8308
 1484SOL    HW2 5352   6.091   1.996   4.011 -1.2536 -0.9879  0.5835
 1485SOL     OW 5353   5.693   3.355   4.424 -0.1627 -0.3955 -0.0949
 1485SOL    HW1 5354   5.642   3.370   4.509  2.2953  1.9943  1.1218
 1485SOL    HW2 5355   5.713   3.257   4.414 -1.5012 -0.8679  1.4582
 1486SOL     OW 5356   6.249   4.910   2.513  0.1547  0.0733  0.0065
 1486SOL    HW1 5357   6.254   5.009   2.515 -0.2947  0.1131 -0.4938
 1486SOL    HW2 5358   6.326   4.874   2.461  0.7244  0.1101  0.8016
 1487SOL     OW 5359   6.820   0.548   6.043  0.5972  0.6158 -0.3128
 1487SOL    HW1 5360   6.746   0.557   6.110 -1.1895 -0.8024 -1.9522
 1487SOL    HW2 5361   6.784   0.569   5.952  2.5466  1.0031 -1.0332
 1488SOL     OW 5362   6.231   4.073   3.922  0.3508  0.2719 -0.5309
 1488SOL    HW1 5363   6.328   4.088   3.905  0.3541 -0.4837 -1.1926
 1488SOL    HW2 5364   6.218   3.985   3.968 -0.0419  0.2448 -0.6891
 1489SOL     OW 5365   2.674   5.289   4.628  0.2304  0.2713  0.4109
 1489SOL    HW1 5366   2.604   5.219   4.617  0.2334 -0.0903  2.3607
 1489SOL    HW2 5367   2.753   5.267   4.571 -1.4101  1.0376 -2.3737
 1490SOL     OW 5368   2.073   3.373   6.478  0.6346  0.2054  0.2312
 1490SOL    HW1 5369   2.037   3.280   6.477  0.7681  0.1519  0.4437
 1490SOL    HW2 5370   2.007   3.434   6.522  0.5301  0.2182  0.0563
 1491SOL     OW 5371   6.840   2.682   3.646 -0.3401  0.3025 -0.1612
 1491SOL    HW1 5372   6.811   2.662   3.740 -0.9995  0.3754 -0.3458
 1491SOL    HW2 5373   6.928   2.637   3.629  0.5625  1.5465  0.9797
 1492SOL     OW 5374   6.929   3.652   1.773 -0.2247 -0.4778  0.1945
 1492SOL    HW1 5375   6.885   3.597   1.843 -0.6516  0.5515  0.7544
 1492SOL    HW2 5376   6.869   3.659   1.693  0.6520 -2.4266 -0.6861
 1493SOL     OW 5377   5.990   2.224   5.701 -0.0723  0.3592 -0.0730
 1493SOL    HW1 5378   6.072   2.252   5.750 -0.2478 -0.6080  0.8281
 1493SOL    HW2 5379   5.950   2.144   5.747  0.0730 -0.9745 -2.1533
 1494SOL     OW 5380   4.592   1.074   4.582 -0.9095  0.1234  0.7065
 1494SOL    HW1 5381   4.628   1.145   4.643 -0.7666  0.3310  0.3874
 1494SOL    HW2 5382   4.514   1.111   4.532 -1.8277 -0.4479  1.6823
 1495SOL     OW 5383   2.002   4.841   2.311  0.2580 -0.1789 -0.1420
 1495SOL    HW1 5384   1.915   4.887   2.331 -0.8141 -0.8172 -2.9302
 1495SOL    HW2 5385   2.065   4.907   2.270  1.4040  0.4203  2.3640
 1496SOL     OW 5386   1.496   6.590   3.858  0.2584  0.5187  0.1375
 1496SOL    HW1 5387   1.447   6.542   3.931 -0.4501  0.8146 -0.1351
 1496SOL    HW2 5388   1.579   6.540   3.836 -0.1860 -0.2825  0.2437
 1497SOL     OW 5389   0.058   4.422   4.785  0.3867  0.2752  0.2029
 1497SOL    HW1 5390   0.013   4.510   4.795 -1.5262 -0.2147 -2.7985
 1497SOL    HW2 5391   0.033   4.362   4.861  0.6177  1.8346  1.5516
 1498SOL     OW 5392   2.333   5.077   1.337 -0.3953 -0.3563 -0.3796
 1498SOL    HW1 5393   2.421   5.109   1.303 -0.7657  0.5135 -0.5404
 1498SOL    HW2 5394   2.315   5.118   1.427 -1.1006  0.3028 -0.8111
 1499SOL     OW 5395   0.426   3.462   4.981 -0.1997  0.1569  0.3612
 1499SOL    HW1 5396   0.385   3.549   4.955 -4.2944 -1.1621  1.6768
 1499SOL    HW2 5397   0.438   3.405   4.900 -0.7575  0.7166 -0.1250
 1500SOL     OW 5398   2.759   6.674   5.776 -0.3836  0.0855 -0.3464
 1500SOL    HW1 5399   2.807   6.756   5.744 -0.9873 -0.0862 -1.7435
 1500SOL    HW2 5400   2.674   6.702   5.821 -0.2919  0.2551 -0.2758
 1501SOL     OW 5401   1.729   1.807   3.162 -0.3986  0.0444 -0.1053
 1501SOL    HW1 5402   1.712   1.709   3.172  0.9209 -0.3185 -1.1431
 1501SOL    HW2 5403   1.817   1.821   3.116 -1.0317  1.6976 -0.8829
 1502SOL     OW 5404   0.237   0.333   4.803 -0.0453 -0.3174 -0.3364
 1502SOL    HW1 5405   0.330   0.297   4.790  0.2180 -1.2205  2.9831
 1502SOL    HW2 5406   0.172   0.275   4.754  1.0505 -0.0349 -2.2166
 1503SOL     OW 5407   2.940   2.951   5.307 -0.4482  0.1655 -0.1414
 1503SOL    HW1 5408   2.862   3.013   5.318  1.1588  2.0505  1.5116
 1503SOL    HW2 5409   3.003   2.989   5.239  1.8401  1.9287  2.7484
 1504SOL     OW 5410   2.226   5.574   5.107 -0.0314  0.0078 -0.4313
 1504SOL    HW1 5411   2.253   5.668   5.128 -1.9595  0.8155 -1.2727
 1504SOL    HW2 5412   2.229   5.519   5.191 -0.2052  1.1909  0.3827
 1505SOL     OW 5413   5.978   6.261   3.719 -0.1039  0.2361  0.5455
 1505SOL    HW1 5414   5.941   6.171   3.742  0.7302  0.2165  1.9597
 1505SOL    HW2 5415   5.971   6.320   3.799  0.0415  1.1988 -0.1458
 1506SOL     OW 5416   2.581   6.748   4.150 -0.5297 -0.1557 -0.0897
 1506SOL    HW1 5417   2.559   6.658   4.189  0.1159 -0.0801  0.4753
 1506SOL    HW2 5418   2.502   6.808   4.157 -0.8323 -0.5521 -0.0855
 1507SOL     OW 5419   1.516   2.724   6.710  0.1923 -0.1990 -0.3127
 1507SOL    HW1 5420   1.517   2.625   6.698 -0.8779 -0.1869 -0.5689
 1507SOL    HW2 5421   1.600   2.763   6.671 -0.9977 -0.6535 -3.6998
 1508SOL     OW 5422   5.708   6.767   5.283  0.0506 -0.2207 -0.3048
 1508SOL    HW1 5423   5.711   6.730   5.376 -0.2280  0.6555  0.0643
 1508SOL    HW2 5424   5.795   6.750   5.238  0.7456  0.6598  0.6535
 1509SOL     OW 5425   6.462   1.394   0.143 -0.9704 -0.7506 -0.1165
 1509SOL    HW1 5426   6.380   1.344   0.115 -1.1634 -0.3211 -0.3236
 1509SOL    HW2 5427   6.476   1.472   0.082 -0.5253 -0.7012  0.0474
 1510SOL     OW 5428   1.508   0.639   3.498  0.3490 -0.1030  0.4820
 1510SOL    HW1 5429   1.600   0.677   3.501  0.7802 -1.0388 -0.2888
 1510SOL    HW2 5430   1.477   0.617   3.591  1.1392 -0.3100  0.7008
 1511SOL     OW 5431   6.960   4.908   1.818 -0.8403 -0.2284 -0.4244
 1511SOL    HW1 5432   7.015   4.852   1.879 -0.2965  1.6699  0.9158
 1511SOL    HW2 5433   6.869   4.921   1.856 -1.4786 -1.4221 -1.4832
 1512SOL     OW 5434   0.843   0.808   0.484  0.4829 -0.1145 -0.0417
 1512SOL    HW1 5435   0.744   0.819   0.485  0.4497 -0.4045 -0.0731
 1512SOL    HW2 5436   0.881   0.835   0.572  0.1854 -1.7827  0.6205
 1513SOL     OW 5437   2.890   0.474   3.515  0.9394 -0.4821 -0.0992
 1513SOL    HW1 5438   2.923   0.423   3.594  1.1481 -1.2272 -0.6525
 1513SOL    HW2 5439   2.872   0.410   3.439 -0.9645 -0.0189 -0.0891
 1514SOL     OW 5440   5.054   6.665   6.923 -0.2342 -0.5420  0.8946
 1514SOL    HW1 5441   5.106   6.730   6.977  2.8920 -0.2945 -2.0399
 1514SOL    HW2 5442   4.979   6.712   6.876  1.6753  0.9582 -0.8004
 1515SOL     OW 5443   5.070   4.087   6.125 -0.0142  0.0119  0.1301
 1515SOL    HW1 5444   5.135   4.031   6.073 -1.2170 -1.2778 -0.0669
 1515SOL    HW2 5445   5.041   4.036   6.206 -1.9827 -0.1648 -0.6360
 1516SOL     OW 5446   6.333   3.907   0.691 -0.4106 -0.9885  0.2640
 1516SOL    HW1 5447   6.386   3.981   0.651 -0.4387 -1.1179 -0.0159
 1516SOL    HW2 5448   6.356   3.898   0.788 -1.4774  0.3469  0.6796
 1517SOL     OW 5449   1.877   4.236   0.250  0.0083  0.0979 -0.1098
 1517SOL    HW1 5450   1.916   4.307   0.190  0.9048 -1.1433 -1.0507
 1517SOL    HW2 5451   1.795   4.199   0.207  1.7301 -2.1946 -1.6962
 1518SOL     OW 5452   6.602   5.151   0.899  0.0432  0.0472 -0.0886
 1518SOL    HW1 5453   6.595   5.154   0.799  0.3398 -0.3107 -0.1214
 1518SOL    HW2 5454   6.639   5.062   0.927 -0.8176 -0.1710  0.3813
 1519SOL     OW 5455   1.219   3.602   1.444  0.2300 -0.1919  0.3749
 1519SOL    HW1 5456   1.224   3.526   1.379  0.9244 -1.6086  1.9999
 1519SOL    HW2 5457   1.170   3.678   1.402 -1.1478 -1.7829 -1.0844
 1520SOL     OW 5458   1.038   4.212   1.859  0.0150  1.1743 -0.0503
 1520SOL    HW1 5459   1.031   4.194   1.957 -0.6024  0.7851 -0.1613
 1520SOL    HW2 5460   0.986   4.143   1.808  0.7155  1.0909 -0.6754
 1521SOL     OW 5461   2.193   5.829   6.123  0.0932 -0.3271  0.2811
 1521SOL    HW1 5462   2.235   5.777   6.197  1.3623 -0.3396 -0.4176
 1521SOL    HW2 5463   2.221   5.925   6.129  0.9684 -0.5065 -0.7022
 1522SOL     OW 5464   1.960   0.909   5.653  0.4077 -0.4268 -0.3962
 1522SOL    HW1 5465   1.876   0.956   5.679  0.6511  0.3773 -1.0003
 1522SOL    HW2 5466   1.940   0.841   5.582 -0.3379 -2.9732  2.0911
 1523SOL     OW 5467   5.145   1.601   1.879  0.8014 -0.0999 -0.3670
 1523SOL    HW1 5468   5.224   1.611   1.940 -0.9543 -1.3966  2.3084
 1523SOL    HW2 5469   5.116   1.505   1.878 -0.7405  0.3405 -1.3355
 1524SOL     OW 5470   0.273   0.165   1.662  0.0663 -0.6680  0.1453
 1524SOL    HW1 5471   0.214   0.243   1.683  2.3332  0.9493  1.0356
 1524SOL    HW2 5472   0.272   0.101   1.739 -0.7115 -0.7839  0.0414
 1525SOL     OW 5473   4.860   1.464   0.709 -0.8407 -0.1866  0.4389
 1525SOL    HW1 5474   4.837   1.547   0.761  2.5403  2.4095 -1.7566
 1525SOL    HW2 5475   4.922   1.408   0.764  0.4555  1.0936  0.3366
 1526SOL     OW 5476   6.347   1.441   2.902  0.3310 -0.0037  0.5360
 1526SOL    HW1 5477   6.361   1.342   2.916 -0.9790 -0.3320 -0.3095
 1526SOL    HW2 5478   6.254   1.465   2.928 -0.6991  0.2288 -2.8282
 1527SOL     OW 5479   3.590   6.634   6.204  0.2958  0.0479  0.1195
 1527SOL    HW1 5480   3.619   6.670   6.293 -1.3607 -1.5106  1.3673
 1527SOL    HW2 5481   3.624   6.540   6.194  0.9919  0.4170 -1.2049
 1528SOL     OW 5482   4.035   6.378   3.887 -0.1085 -0.6634 -0.7090
 1528SOL    HW1 5483   4.072   6.319   3.815 -1.4816 -0.6475 -1.4821
 1528SOL    HW2 5484   3.957   6.429   3.850  0.3489  0.8020  0.2614
 1529SOL     OW 5485   2.506   0.906   4.829  0.0388 -0.3903  0.2242
 1529SOL    HW1 5486   2.578   0.976   4.824  1.9140 -2.0835  1.9052
 1529SOL    HW2 5487   2.514   0.846   4.749 -2.6312  2.0613 -2.1509
 1530SOL     OW 5488   0.599   0.628   6.998 -0.1357  0.0452 -0.0779
 1530SOL    HW1 5489   0.503   0.643   6.974 -0.1766 -1.4910 -1.0022
 1530SOL    HW2 5490   0.606   0.545   7.055  0.7425 -0.5270 -0.9921
 1531SOL     OW 5491   5.623   0.394   0.630 -0.1427 -0.5491 -0.2011
 1531SOL    HW1 5492   5.638   0.456   0.553  2.0327  2.2663  2.2131
 1531SOL    HW2 5493   5.532   0.409   0.669 -0.2340 -0.0241 -0.6101
 1532SOL     OW 5494   3.135   1.571   6.615 -0.2229 -0.1040 -0.3737
 1532SOL    HW1 5495   3.050   1.601   6.572 -0.0047  1.4492  0.1985
 1532SOL    HW2 5496   3.203   1.550   6.545 -0.8822 -0.7922 -0.8175
 1533SOL     OW 5497   2.745   1.881   0.977 -0.1531  0.5710 -0.5519
 1533SOL    HW1 5498   2.712   1.974   0.989  1.4031  0.9370  1.5818
 1533SOL    HW2 5499   2.840   1.883   0.945 -0.6785 -0.3680 -2.3457
 1534SOL     OW 5500   5.073   0.056   1.335  0.9209  0.1190 -0.0883
 1534SOL    HW1 5501   5.022  -0.028   1.316  0.4245  0.0256  1.4585
 1534SOL    HW2 5502   5.158   0.057   1.283  0.0026 -0.3828 -1.6660
 1535SOL     OW 5503   4.344   5.385   2.543 -0.0913 -0.4159 -0.1312
 1535SOL    HW1 5504   4.358   5.327   2.623  0.2926  0.9602  0.8272
 1535SOL    HW2 5505   4.294   5.467   2.569 -1.4506 -0.7195 -1.6514
 1536SOL     OW 5506   4.301   6.663   2.045 -0.5162 -0.0479  0.1541
 1536SOL    HW1 5507   4.235   6.723   2.000 -0.8497 -1.0784 -0.7802
 1536SOL    HW2 5508   4.302   6.574   1.999 -0.3660 -0.9232  1.7899
 1537SOL     OW 5509   3.243   5.208   4.945  0.8957 -0.6885  0.1856
 1537SOL    HW1 5510   3.207   5.173   5.031 -1.9620  2.8122  0.6803
 1537SOL    HW2 5511   3.191   5.169   4.868  0.3858 -0.5069  0.4322
 1538SOL     OW 5512   3.459   5.212   0.565  0.4605  0.4191 -0.1668
 1538SOL    HW1 5513   3.495   5.225   0.472 -0.3708  1.7335 -0.3337
 1538SOL    HW2 5514   3.395   5.286   0.587 -2.8351 -2.1784 -0.1865
 1539SOL     OW 5515   2.870   6.298   2.261 -0.2612  0.1371 -0.1839
 1539SOL    HW1 5516   2.855   6.212   2.211  2.2929  0.4676 -1.6689
 1539SOL    HW2 5517   2.851   6.375   2.200 -3.6161  0.8127  1.4490
 1540SOL     OW 5518   6.588   5.778   4.305  0.1189 -0.0138  0.2404
 1540SOL    HW1 5519   6.644   5.817   4.232  0.4617 -0.1933  0.4008
 1540SOL    HW2 5520   6.568   5.682   4.285 -2.0402  0.6264 -0.9189
 1541SOL     OW 5521   4.126   1.473   3.427  0.3220  0.0462 -0.0836
 1541SOL    HW1 5522   4.084   1.555   3.389 -0.1316  0.1074  0.5502
 1541SOL    HW2 5523   4.193   1.438   3.362  0.6403  1.0090 -0.2961
 1542SOL     OW 5524   6.809   6.034   1.613  0.2063 -0.4049 -0.2508
 1542SOL    HW1 5525   6.795   6.082   1.526 -0.1411 -0.2761 -0.1239
 1542SOL    HW2 5526   6.882   6.080   1.664 -0.2219  0.0805 -0.0656
 1543SOL     OW 5527   3.872   3.921   2.537  0.5920 -0.5386  0.3494
 1543SOL    HW1 5528   3.837   3.906   2.444  0.5762 -0.2530  0.3072
 1543SOL    HW2 5529   3.821   3.995   2.580  0.0304 -1.2305  0.9019
 1544SOL     OW 5530   4.129   3.755   2.139  0.1075  0.0021  0.3312
 1544SOL    HW1 5531   4.226   3.730   2.138  0.2103  0.3186  1.3880
 1544SOL    HW2 5532   4.087   3.724   2.224 -0.9300 -0.8483 -0.4703
 1545SOL     OW 5533   0.486   6.850   6.443  0.0775  0.2698 -0.1554
 1545SOL    HW1 5534   0.489   6.938   6.396 -0.0824  0.1790 -0.3344
 1545SOL    HW2 5535   0.545   6.854   6.524  0.0695  0.5417 -0.1617
 1546SOL     OW 5536   0.907   0.562   0.405  0.1894  0.2822  0.0508
 1546SOL    HW1 5537   0.826   0.505   0.394  1.0744 -0.6904 -1.8690
 1546SOL    HW2 5538   0.879   0.656   0.426 -1.5170  0.2897 -1.9250
 1547SOL     OW 5539   3.098   3.690   0.042 -0.8500 -0.5943 -0.5803
 1547SOL    HW1 5540   3.133   3.670  -0.050 -0.2593  0.3314 -0.5637
 1547SOL    HW2 5541   3.154   3.760   0.085 -0.3299 -1.9279  1.0127
 1548SOL     OW 5542   6.530   3.281   4.133  0.1623 -0.3575 -0.0806
 1548SOL    HW1 5543   6.610   3.221   4.121 -0.1907 -0.7693 -0.3859
 1548SOL    HW2 5544   6.449   3.235   4.097  0.0061  0.6061 -0.9816
 1549SOL     OW 5545   5.982   3.169   1.565  0.4475  0.2462  0.0540
 1549SOL    HW1 5546   6.066   3.222   1.582  1.0269 -0.1543 -1.4721
 1549SOL    HW2 5547   5.903   3.229   1.576  0.8381  0.4182  2.4195
 1550SOL     OW 5548   2.189   4.891   1.076  0.2972 -0.6247 -0.3922
 1550SOL    HW1 5549   2.125   4.853   1.009 -1.0273  1.6074 -0.5003
 1550SOL    HW2 5550   2.256   4.948   1.030 -1.7103  2.4263  0.1466
 1551SOL     OW 5551   0.833   3.537   0.200 -0.3204 -0.1156 -0.6112
 1551SOL    HW1 5552   0.757   3.582   0.248 -0.2104  1.6107 -1.9709
 1551SOL    HW2 5553   0.917   3.547   0.255 -0.2509  1.5977 -0.9635
 1552SOL     OW 5554   1.066   6.964   2.840  0.5366 -0.1977 -0.6517
 1552SOL    HW1 5555   0.974   6.953   2.802  0.3584  0.9955 -0.5928
 1552SOL    HW2 5556   1.126   6.894   2.802  0.1708  0.4615 -2.5314
 1553SOL     OW 5557   5.262   1.658   4.846 -0.2169  0.0503  0.3122
 1553SOL    HW1 5558   5.220   1.660   4.755 -1.4026 -0.8711  0.8091
 1553SOL    HW2 5559   5.291   1.565   4.867  0.5109  0.3588  0.6801
 1554SOL     OW 5560   1.518   3.570   5.435 -0.9607 -0.1969  0.2211
 1554SOL    HW1 5561   1.474   3.637   5.494  0.6430  0.8540  0.2657
 1554SOL    HW2 5562   1.604   3.606   5.400 -1.1134 -1.3766 -1.5553
 1555SOL     OW 5563   4.341   6.307   5.876 -0.0152  0.2867 -0.2203
 1555SOL    HW1 5564   4.279   6.241   5.919  0.0765 -0.1936 -0.8258
 1555SOL    HW2 5565   4.435   6.278   5.887  0.0373  0.4111 -0.3270
 1556SOL     OW 5566   2.479   2.343   5.884  0.3518  0.1533  0.4365
 1556SOL    HW1 5567   2.431   2.255   5.888  0.2975  0.2050  0.8774
 1556SOL    HW2 5568   2.424   2.408   5.831  1.4562 -0.7464 -1.9443
 1557SOL     OW 5569   1.492   2.222   1.352  0.4749  0.5721 -0.0606
 1557SOL    HW1 5570   1.419   2.161   1.323 -1.6638  1.9730  1.9900
 1557SOL    HW2 5571   1.501   2.298   1.287 -2.5410  2.3535  1.3906
 1558SOL     OW 5572   3.634   0.918   0.845  0.3183 -0.7025  0.7931
 1558SOL    HW1 5573   3.591   0.962   0.924 -0.7500 -0.7870  0.2673
 1558SOL    HW2 5574   3.721   0.963   0.825 -1.7723  2.8005 -1.1944
 1559SOL     OW 5575   4.854   6.766   2.450  0.5756 -0.2270 -0.0987
 1559SOL    HW1 5576   4.937   6.820   2.464  1.2551 -0.9607 -1.2039
 1559SOL    HW2 5577   4.785   6.793   2.518  1.2593  1.2820  0.0363
 1560SOL     OW 5578   5.234   3.349   0.754 -0.6226 -0.5765 -0.0243
 1560SOL    HW1 5579   5.324   3.329   0.717 -1.5387 -1.9583 -1.7043
 1560SOL    HW2 5580   5.230   3.443   0.786  1.3968 -0.5122  0.1186
 1561SOL     OW 5581   5.220   5.423   6.080 -0.2658  0.6471 -0.1858
 1561SOL    HW1 5582   5.252   5.378   5.997  1.5830  0.4047  0.6202
 1561SOL    HW2 5583   5.227   5.523   6.070  1.4626  0.5961  0.2008
 1562SOL     OW 5584   3.973   0.134   2.298  0.0165  0.1141  0.6961
 1562SOL    HW1 5585   3.908   0.168   2.366  0.1379 -1.0139  1.3919
 1562SOL    HW2 5586   3.924   0.114   2.213 -0.0379  2.1262  0.1852
 1563SOL     OW 5587   2.166   3.965   4.362 -0.7196  0.2878  0.0407
 1563SOL    HW1 5588   2.123   4.054   4.349 -0.4609  0.2030 -1.6598
 1563SOL    HW2 5589   2.244   3.956   4.300 -0.5933 -1.0313  0.3505
 1564SOL     OW 5590   0.914   0.865   2.653  0.0918  0.0304 -0.1994
 1564SOL    HW1 5591   0.898   0.792   2.587 -1.7133  0.4576 -0.3013
 1564SOL    HW2 5592   0.913   0.827   2.745  2.4157 -0.5358 -0.3544
 1565SOL     OW 5593   6.730   0.315   6.317  0.2278  0.1220 -0.1379
 1565SOL    HW1 5594   6.828   0.332   6.320  0.6502 -1.9048 -0.8714
 1565SOL    HW2 5595   6.686   0.381   6.256  1.4046 -0.0449 -1.1829
 1566SOL     OW 5596   3.137   2.014   2.627  0.4242  0.0686 -0.0428
 1566SOL    HW1 5597   3.084   2.096   2.608  0.5076  0.8849  2.7535
 1566SOL    HW2 5598   3.210   2.004   2.560  0.5264  2.3937 -0.3421
 1567SOL     OW 5599   3.782   1.462   4.791  0.2095 -0.6894  0.4450
 1567SOL    HW1 5600   3.878   1.488   4.802  0.5244 -0.1340 -2.6440
 1567SOL    HW2 5601   3.737   1.527   4.730 -1.0390 -3.1036 -1.3779
 1568SOL     OW 5602   2.220   4.769   1.978  0.5518  0.1754 -0.3294
 1568SOL    HW1 5603   2.181   4.708   2.047  0.5401 -1.0450 -1.3869
 1568SOL    HW2 5604   2.312   4.796   2.006 -0.1539  1.2583  1.0797
 1569SOL     OW 5605   2.177   0.470   1.877  0.1532 -0.2026 -0.1920
 1569SOL    HW1 5606   2.162   0.569   1.879  0.4338 -0.1448  1.9987
 1569SOL    HW2 5607   2.265   0.449   1.922  0.8541 -1.3557 -2.0082
 1570SOL     OW 5608   3.835   6.971   6.331 -0.4396 -0.4185 -0.5220
 1570SOL    HW1 5609   3.810   6.932   6.420  1.9569 -0.8659  0.0206
 1570SOL    HW2 5610   3.934   6.973   6.322 -0.6033  0.5184 -2.8266
 1571SOL     OW 5611   0.780   2.525   4.594 -0.2141 -0.1116  0.1599
 1571SOL    HW1 5612   0.752   2.544   4.500 -1.0070 -0.7634  0.2565
 1571SOL    HW2 5613   0.855   2.458   4.593  0.7846  0.9695 -0.0551
 1572SOL     OW 5614   1.742   5.142   4.202  0.1477 -0.6865  0.1414
 1572SOL    HW1 5615   1.771   5.214   4.140 -0.9039  0.3105  0.7704
 1572SOL    HW2 5616   1.684   5.181   4.274 -1.9370 -2.3958 -0.5064
 1573SOL     OW 5617   6.423   0.288   0.706 -0.4923 -0.0913 -0.0582
 1573SOL    HW1 5618   6.422   0.188   0.709 -0.1176 -0.2152 -2.2715
 1573SOL    HW2 5619   6.485   0.323   0.777  1.9004 -1.6210 -1.2478
 1574SOL     OW 5620   6.192   4.610   3.989  0.0728 -0.1630  0.1574
 1574SOL    HW1 5621   6.113   4.627   3.930 -0.9079 -2.4138  0.7278
 1574SOL    HW2 5622   6.248   4.537   3.950  0.1754 -0.7073  1.2811
 1575SOL     OW 5623   2.349   2.583   0.579 -0.4296  0.2616  0.2030
 1575SOL    HW1 5624   2.348   2.543   0.670 -1.7911 -0.6479 -0.1667
 1575SOL    HW2 5625   2.285   2.533   0.520 -2.3882  3.0465 -0.2539
 1576SOL     OW 5626   1.500   4.216   2.375 -0.0269  0.3844 -0.2464
 1576SOL    HW1 5627   1.539   4.124   2.383 -1.3847 -0.2429 -0.6791
 1576SOL    HW2 5628   1.402   4.210   2.359 -0.3310  1.9342  0.7556
 1577SOL     OW 5629   5.421   4.070   3.489 -0.1950  0.5280 -0.0974
 1577SOL    HW1 5630   5.513   4.070   3.450  0.6125 -0.8731  1.6782
 1577SOL    HW2 5631   5.397   4.163   3.518  0.5003  0.9691 -0.8908
 1578SOL     OW 5632   0.134   0.858   2.144 -0.1856  0.0303  0.1948
 1578SOL    HW1 5633   0.089   0.822   2.062  0.8742  0.5999 -0.6605
 1578SOL    HW2 5634   0.233   0.850   2.134 -0.0333  0.3170  1.3343
 1579SOL     OW 5635   6.716   4.199   2.893 -0.1130 -0.3264 -0.2888
 1579SOL    HW1 5636   6.779   4.191   2.816  1.1428  0.2024  0.6524
 1579SOL    HW2 5637   6.703   4.110   2.935  2.3151 -0.0237  1.2577
 1580SOL     OW 5638   3.230   3.562   2.667 -0.1035 -0.2892 -0.9777
 1580SOL    HW1 5639   3.306   3.604   2.717  0.2659 -2.4845  0.4159
 1580SOL    HW2 5640   3.211   3.617   2.585  1.0178  1.9500  0.1485
 1581SOL     OW 5641   5.239   3.935   5.222  0.6893 -0.2919 -0.6505
 1581SOL    HW1 5642   5.152   3.926   5.270  0.2493  0.0173 -1.3795
 1581SOL    HW2 5643   5.288   4.015   5.257  0.8901 -0.7216  0.0726
 1582SOL     OW 5644   5.296   0.564   4.321  0.8314  0.2424  0.4804
 1582SOL    HW1 5645   5.384   0.552   4.275  0.2330 -0.0987 -0.6298
 1582SOL    HW2 5646   5.295   0.650   4.370  2.1537 -0.2343  1.3806
 1583SOL     OW 5647   6.398   5.107   4.729  0.1423 -0.3256 -0.0328
 1583SOL    HW1 5648   6.472   5.168   4.703 -0.5372  0.2016 -0.7690
 1583SOL    HW2 5649   6.387   5.109   4.828  1.2086 -0.5424  0.1080
 1584SOL     OW 5650   6.779   2.333   6.383 -0.6532 -0.4424  0.7363
 1584SOL    HW1 5651   6.837   2.414   6.395 -1.2793  0.0433  0.5338
 1584SOL    HW2 5652   6.809   2.284   6.301 -1.9666  1.0975 -0.7588
 1585SOL     OW 5653   0.241   5.501   3.701  0.1320  0.3685 -0.2080
 1585SOL    HW1 5654   0.167   5.477   3.638  2.6473  0.4623 -3.4573
 1585SOL    HW2 5655   0.233   5.598   3.726 -1.1080  0.2471 -0.0497
 1586SOL     OW 5656   3.636   5.030   3.786  0.1451  0.0505  0.0692
 1586SOL    HW1 5657   3.668   4.978   3.707  0.9337 -2.2391  1.7803
 1586SOL    HW2 5658   3.698   5.016   3.863  0.1388  3.2582  0.7989
 1587SOL     OW 5659   4.054   6.386   6.225  0.3226 -0.1501  0.5202
 1587SOL    HW1 5660   3.989   6.315   6.252 -1.5626  1.8944  1.6697
 1587SOL    HW2 5661   4.008   6.454   6.169  2.0805  0.2256 -0.5459
 1588SOL     OW 5662   1.397   2.015   3.336  0.2756 -0.4325  0.2118
 1588SOL    HW1 5663   1.316   2.052   3.382  0.0861 -0.8050  0.1871
 1588SOL    HW2 5664   1.439   2.086   3.279 -0.4967 -0.4441 -0.4017
 1589SOL     OW 5665   6.688   3.714   4.170 -0.0881  0.0902  0.9266
 1589SOL    HW1 5666   6.665   3.651   4.096  1.0837  0.3891  0.2887
 1589SOL    HW2 5667   6.766   3.771   4.143  1.2788 -0.7316  2.9091
 1590SOL     OW 5668   5.960   0.582   4.495  0.2665 -0.3080 -0.2927
 1590SOL    HW1 5669   6.015   0.628   4.564  0.2991 -0.6344 -0.1019
 1590SOL    HW2 5670   5.863   0.599   4.512  0.2914  3.0129 -2.4559
 1591SOL     OW 5671   0.290   5.766   5.962  0.7324 -0.1724  0.0148
 1591SOL    HW1 5672   0.272   5.777   5.864  1.6376 -1.1262 -0.2755
 1591SOL    HW2 5673   0.331   5.676   5.978  0.1360 -0.2273  1.3380
 1592SOL     OW 5674   6.619   4.568   5.623  0.1450 -0.3357 -0.2554
 1592SOL    HW1 5675   6.531   4.614   5.624  0.4081  0.1764 -0.6906
 1592SOL    HW2 5676   6.613   4.484   5.569 -0.1386 -0.4336 -0.0722
 1593SOL     OW 5677   5.206   7.000   1.824  0.3209  0.2884 -0.2526
 1593SOL    HW1 5678   5.295   7.045   1.833  0.5233 -0.0611 -0.5132
 1593SOL    HW2 5679   5.206   6.941   1.744  0.0926 -0.2729  0.1548
 1594SOL     OW 5680   5.043   1.090   1.844  0.8851 -0.0608  0.2239
 1594SOL    HW1 5681   4.988   1.022   1.891 -1.0699  1.8018  0.7925
 1594SOL    HW2 5682   5.021   1.088   1.746 -1.6388  1.7610  0.6390
 1595SOL     OW 5683   5.847   2.587   6.761 -0.1774 -0.1914 -0.3522
 1595SOL    HW1 5684   5.841   2.678   6.719 -0.4361 -0.7173 -1.4928
 1595SOL    HW2 5685   5.869   2.520   6.691  0.5136 -0.9505  0.5719
 1596SOL     OW 5686   5.105   5.229   5.059  0.2620  0.3619  0.0122
 1596SOL    HW1 5687   5.006   5.235   5.065  0.3351  0.1620  1.8424
 1596SOL    HW2 5688   5.142   5.316   5.027 -0.5086  0.3327 -0.9925
 1597SOL     OW 5689   4.588   5.961   6.258  0.7120  0.6266 -0.1074
 1597SOL    HW1 5690   4.529   5.900   6.312  0.9415 -1.5845 -2.2118
 1597SOL    HW2 5691   4.648   6.011   6.320 -1.1478  0.5867  1.8819
 1598SOL     OW 5692   0.654   4.540   6.324 -0.0357 -0.4191  0.4751
 1598SOL    HW1 5693   0.727   4.514   6.388 -1.3724 -0.5799  1.9906
 1598SOL    HW2 5694   0.576   4.576   6.374  0.1541  2.8152 -1.2970
 1599SOL     OW 5695   5.935   4.333   4.912 -0.2564 -0.1768 -0.1103
 1599SOL    HW1 5696   5.854   4.375   4.953  0.2693 -0.2144  0.9961
 1599SOL    HW2 5697   5.926   4.234   4.913  0.4346 -0.2489  1.4086
 1600SOL     OW 5698   5.101   6.549   1.681  0.1960  0.2474 -0.0998
 1600SOL    HW1 5699   5.075   6.639   1.716 -1.5141 -0.3966  0.3626
 1600SOL    HW2 5700   5.157   6.502   1.750  0.6007  0.7122 -0.1024
 1601SOL     OW 5701   6.578   1.556   5.681 -1.0782  0.9052  0.3194
 1601SOL    HW1 5702   6.551   1.652   5.690 -1.5003  0.7082  1.3480
 1601SOL    HW2 5703   6.569   1.511   5.770  1.8429  0.5998  0.5542
 1602SOL     OW 5704   5.113   4.507   3.809 -0.2919 -0.5515 -0.5816
 1602SOL    HW1 5705   5.179   4.512   3.734  0.4797 -0.0494  0.1158
 1602SOL    HW2 5706   5.069   4.417   3.808  2.0562 -1.7940  0.2982
 1603SOL     OW 5707   2.817   5.181   2.354  0.4353  0.2721  0.1615
 1603SOL    HW1 5708   2.851   5.125   2.429  2.0776  1.0939  0.0886
 1603SOL    HW2 5709   2.728   5.219   2.378 -0.2896 -1.6094  0.5674
 1604SOL     OW 5710   4.786   6.591   0.823 -0.0270  0.2683 -0.3712
 1604SOL    HW1 5711   4.691   6.563   0.810  0.1068 -0.2898 -0.1778
 1604SOL    HW2 5712   4.790   6.690   0.839 -0.5464  0.3375 -0.6579
 1605SOL     OW 5713   4.328   5.142   6.124  0.6180  0.5214  0.3266
 1605SOL    HW1 5714   4.393   5.205   6.165  1.6398 -0.9446  1.0547
 1605SOL    HW2 5715   4.339   5.143   6.024  2.5009 -0.4198  0.4798
 1606SOL     OW 5716   3.441   5.158   6.627 -0.0607  0.0958 -0.2441
 1606SOL    HW1 5717   3.536   5.183   6.610  0.0614 -0.3741 -0.2752
 1606SOL    HW2 5718   3.437   5.063   6.657 -0.6909 -0.5305 -2.1660
 1607SOL     OW 5719   5.348   5.102   5.136  0.3144 -0.3826 -0.5362
 1607SOL    HW1 5720   5.276   5.090   5.067  1.4578 -0.8977 -1.6803
 1607SOL    HW2 5721   5.392   5.190   5.122 -0.6330  0.3273  0.7228
 1608SOL     OW 5722   5.549   3.220   3.059  0.6313 -0.2107 -0.2262
 1608SOL    HW1 5723   5.511   3.221   2.967  1.7738 -1.7538 -0.7435
 1608SOL    HW2 5724   5.494   3.160   3.117  0.1258  0.4795  0.0304
 1609SOL     OW 5725   1.767   6.455   1.839 -0.2929 -0.0782  0.0397
 1609SOL    HW1 5726   1.845   6.471   1.900 -0.1629 -1.7674  0.3555
 1609SOL    HW2 5727   1.697   6.524   1.857  0.9081  1.1725  0.0912
 1610SOL     OW 5728   4.354   0.593   5.668  0.0671 -0.3504 -0.0314
 1610SOL    HW1 5729   4.307   0.551   5.746  1.4686 -1.5691  0.1955
 1610SOL    HW2 5730   4.382   0.521   5.604 -1.1275  0.6234 -1.7471
 1611SOL     OW 5731   5.548   5.624   0.293 -0.0828  0.1142  0.5600
 1611SOL    HW1 5732   5.592   5.701   0.339 -1.3603  2.1423 -1.4005
 1611SOL    HW2 5733   5.464   5.600   0.343 -0.8754  1.5536 -0.0127
 1612SOL     OW 5734   5.748   0.772   1.270 -0.4286 -0.3589 -0.3239
 1612SOL    HW1 5735   5.742   0.838   1.344 -0.0734 -0.2675 -0.3756
 1612SOL    HW2 5736   5.753   0.820   1.182 -0.0113 -0.4465 -0.3517
 1613SOL     OW 5737   0.679   6.631   4.049 -0.0159  0.6417 -0.1354
 1613SOL    HW1 5738   0.639   6.635   3.957 -1.1084  0.2395  0.3036
 1613SOL    HW2 5739   0.772   6.596   4.043  0.5980  2.3347 -1.2757
 1614SOL     OW 5740   4.608   2.681   5.885 -0.2880  0.2325 -0.6348
 1614SOL    HW1 5741   4.677   2.685   5.813  2.3550  0.5661  1.7215
 1614SOL    HW2 5742   4.619   2.759   5.947 -1.9575 -0.4174  0.5773
 1615SOL     OW 5743   6.642   3.772   4.645 -0.0228  0.5127  0.6016
 1615SOL    HW1 5744   6.698   3.852   4.626  1.1427  0.1685  2.3134
 1615SOL    HW2 5745   6.660   3.701   4.577 -0.0123  1.1973 -0.1104
 1616SOL     OW 5746   0.727   0.059   3.743 -0.0242  0.1002  0.0437
 1616SOL    HW1 5747   0.703   0.079   3.838  1.4955  0.5994  0.3511
 1616SOL    HW2 5748   0.826   0.045   3.736 -0.3014 -1.3899 -1.2272
 1617SOL     OW 5749   5.822   3.094   4.436  0.6680  0.3935  0.4604
 1617SOL    HW1 5750   5.918   3.102   4.464  1.5162  1.8471 -2.3970
 1617SOL    HW2 5751   5.816   3.032   4.357 -0.7392  0.4699  0.4878
 1618SOL     OW 5752   3.292   5.155   3.168 -0.0607 -0.5091 -0.4601
 1618SOL    HW1 5753   3.231   5.144   3.089  0.2455 -1.5903 -0.5610
 1618SOL    HW2 5754   3.384   5.125   3.144  0.0303 -0.8811  0.3194
 1619SOL     OW 5755   0.096   1.475   5.778  0.2679  0.5851 -0.6008
 1619SOL    HW1 5756   0.117   1.377   5.772  2.8783  1.1340 -2.1103
 1619SOL    HW2 5757   0.004   1.487   5.814 -0.3468 -2.4386 -0.8720
 1620SOL     OW 5758   2.385   5.165   5.622  0.1733 -0.0484  0.2016
 1620SOL    HW1 5759   2.386   5.139   5.526 -0.0381 -1.5319  0.5751
 1620SOL    HW2 5760   2.363   5.085   5.678 -1.1982  1.0931  1.3890
 1621SOL     OW 5761   5.890   6.054   0.766  0.8252  0.3531  0.2549
 1621SOL    HW1 5762   5.899   5.959   0.797  1.3278 -0.4921 -2.1953
 1621SOL    HW2 5763   5.855   6.054   0.672  2.8082  2.4858 -0.5753
 1622SOL     OW 5764   5.673   2.725   2.578  0.3035  0.0280  0.4628
 1622SOL    HW1 5765   5.670   2.627   2.559  1.0325 -0.2038  1.4785
 1622SOL    HW2 5766   5.621   2.745   2.661  1.9063  0.1539  1.4980
 1623SOL     OW 5767   1.318   2.083   4.760 -0.1856 -0.0771  0.0327
 1623SOL    HW1 5768   1.347   2.148   4.830  1.6209  0.5794 -1.2425
 1623SOL    HW2 5769   1.291   2.134   4.678  1.2043 -0.9063 -0.9653
 1624SOL     OW 5770   4.792   3.045   1.442  0.0266  0.0081  0.5446
 1624SOL    HW1 5771   4.841   3.115   1.493 -0.0751 -0.3549  1.1515
 1624SOL    HW2 5772   4.694   3.064   1.444  0.0255  0.0132  0.4540
 1625SOL     OW 5773   0.655   0.771   2.022 -0.5038  0.0534 -0.7564
 1625SOL    HW1 5774   0.749   0.741   2.041 -0.5543 -1.2134 -2.2526
 1625SOL    HW2 5775   0.621   0.826   2.098  1.9556  1.7917 -0.7800
 1626SOL     OW 5776   1.450   2.454   1.190  0.0611  0.1559  0.3025
 1626SOL    HW1 5777   1.494   2.475   1.102  1.0964  0.4308  0.8695
 1626SOL    HW2 5778   1.376   2.518   1.207 -0.1373  0.1134 -0.3538
 1627SOL     OW 5779   3.590   5.837   6.350  0.0452  0.2702 -0.6584
 1627SOL    HW1 5780   3.504   5.794   6.325  1.0538 -0.9962 -2.1888
 1627SOL    HW2 5781   3.623   5.799   6.437 -0.9602  0.8392 -0.0143
 1628SOL     OW 5782   5.686   5.267   0.540  0.3941  0.5407 -0.4906
 1628SOL    HW1 5783   5.619   5.224   0.599 -0.3628  0.4374 -1.4065
 1628SOL    HW2 5784   5.766   5.208   0.531 -0.5827 -0.6578 -1.6470
 1629SOL     OW 5785   2.413   0.127   4.583 -0.2176  0.6030 -0.5394
 1629SOL    HW1 5786   2.442   0.206   4.530  2.3668  0.2106  0.1270
 1629SOL    HW2 5787   2.406   0.047   4.523  0.4380  0.6497 -0.6869
 1630SOL     OW 5788   1.319   4.932   5.723 -0.0357  0.0414  0.2705
 1630SOL    HW1 5789   1.252   4.998   5.756 -0.3818 -0.1326 -0.0860
 1630SOL    HW2 5790   1.294   4.900   5.632  0.1155 -0.5947  0.4454
 1631SOL     OW 5791   3.184   1.524   1.368 -0.4642  0.7901 -0.1422
 1631SOL    HW1 5792   3.144   1.494   1.281  0.5368 -2.3169  0.3759
 1631SOL    HW2 5793   3.113   1.570   1.422 -2.5009 -1.5301 -0.6455
 1632SOL     OW 5794   5.354   0.092   3.407 -0.0366  0.0793  0.6455
 1632SOL    HW1 5795   5.434   0.050   3.364 -0.4356  1.1594 -1.2826
 1632SOL    HW2 5796   5.357   0.191   3.391 -1.0927  0.2895  1.6788
 1633SOL     OW 5797   6.347   4.924   6.033 -0.0608  0.0370 -0.5315
 1633SOL    HW1 5798   6.303   4.863   5.966  2.4178 -1.3332 -1.0147
 1633SOL    HW2 5799   6.355   4.877   6.121 -0.2729  0.5975 -0.2025
 1634SOL     OW 5800   1.956   4.007   5.795  0.4066  0.7019 -0.5383
 1634SOL    HW1 5801   1.904   3.999   5.710  0.5980  1.3723 -0.7269
 1634SOL    HW2 5802   2.053   3.992   5.777  0.2855 -0.6192 -0.1733
 1635SOL     OW 5803   1.586   2.575   2.905  0.2224 -0.0425  0.9566
 1635SOL    HW1 5804   1.618   2.658   2.949  0.5224 -0.2481  1.1299
 1635SOL    HW2 5805   1.582   2.589   2.806 -1.2850  0.6970  1.1063
 1636SOL     OW 5806   0.419   6.269   2.269 -0.3758 -0.0728 -0.1436
 1636SOL    HW1 5807   0.496   6.239   2.326 -0.7901 -0.1769  0.3710
 1636SOL    HW2 5808   0.383   6.355   2.305 -0.8706 -0.3256 -0.0267
 1637SOL     OW 5809   2.280   1.475   1.419  0.5329 -0.8525 -0.0235
 1637SOL    HW1 5810   2.192   1.486   1.373  1.1860 -1.0698 -1.3525
 1637SOL    HW2 5811   2.325   1.564   1.429  0.8982 -0.9354 -0.8554
 1638SOL     OW 5812   4.578   2.628   3.761 -0.5614 -0.2609  0.6505
 1638SOL    HW1 5813   4.527   2.556   3.714 -1.8067  1.0022  0.0021
 1638SOL    HW2 5814   4.637   2.676   3.696 -0.7870  0.2120  0.7926
 1639SOL     OW 5815   5.006   3.776   3.363 -0.3769 -0.0225 -0.0489
 1639SOL    HW1 5816   5.058   3.781   3.278  0.0908  0.2087  0.2482
 1639SOL    HW2 5817   5.064   3.801   3.440 -1.5040  2.6569  0.0488
 1640SOL     OW 5818   0.196   0.131   0.900 -0.7793 -0.4881 -0.2231
 1640SOL    HW1 5819   0.218   0.148   0.804 -0.3924 -1.7711 -0.3910
 1640SOL    HW2 5820   0.272   0.162   0.957 -0.3408 -1.0714 -0.4687
 1641SOL     OW 5821   4.397   0.408   3.755 -0.2438 -0.1786 -0.0704
 1641SOL    HW1 5822   4.396   0.474   3.830 -0.4478 -0.6976  0.3973
 1641SOL    HW2 5823   4.490   0.373   3.743  0.0067  0.7038 -0.7884
 1642SOL     OW 5824   4.747   3.757   6.034 -0.5791  0.6089  0.5335
 1642SOL    HW1 5825   4.677   3.785   5.968 -0.7339 -0.5339  0.1923
 1642SOL    HW2 5826   4.706   3.753   6.126 -1.0955 -0.4519  0.2740
 1643SOL     OW 5827   4.279   5.198   4.570 -0.4140  0.5544 -0.2860
 1643SOL    HW1 5828   4.250   5.245   4.486  0.2974 -0.4742 -1.1359
 1643SOL    HW2 5829   4.373   5.164   4.559 -0.6612 -0.4635  0.5442
 1644SOL     OW 5830   5.741   2.948   1.601 -0.6015 -0.1076  0.4655
 1644SOL    HW1 5831   5.793   2.946   1.686 -0.9807 -0.1064  0.7028
 1644SOL    HW2 5832   5.730   3.043   1.571  2.8229 -0.2453 -1.6638
 1645SOL     OW 5833   4.967   6.485   3.070 -0.0577 -0.0614  0.2599
 1645SOL    HW1 5834   4.892   6.498   3.004 -0.7207  0.2659  1.0577
 1645SOL    HW2 5835   5.025   6.566   3.070  0.9031 -0.7036 -1.0735
 1646SOL     OW 5836   5.432   5.028   1.507  0.0874 -0.2665 -0.4172
 1646SOL    HW1 5837   5.428   4.989   1.415 -0.4565  0.0103 -0.5182
 1646SOL    HW2 5838   5.364   5.101   1.515  0.9629  0.5446 -0.1714
 1647SOL     OW 5839   6.630   3.332   3.635  0.0798  0.3639 -0.6224
 1647SOL    HW1 5840   6.684   3.414   3.653  1.6572 -0.3197 -2.0436
 1647SOL    HW2 5841   6.539   3.359   3.602  0.6027  1.5376 -1.1622
 1648SOL     OW 5842   5.961   6.884   2.060 -0.2573 -0.0477 -0.0457
 1648SOL    HW1 5843   6.054   6.888   2.095 -0.7687 -0.9525  1.5171
 1648SOL    HW2 5844   5.908   6.817   2.113 -1.9647  0.9138 -0.4538
 1649SOL     OW 5845   3.425   0.754   2.911  0.4292  0.5874  0.1551
 1649SOL    HW1 5846   3.449   0.663   2.879 -0.5436  0.7409 -1.0701
 1649SOL    HW2 5847   3.475   0.822   2.857 -1.0021  0.8436 -0.8825
 1650SOL     OW 5848   2.338   2.497   5.654  0.2791  0.1171  0.2071
 1650SOL    HW1 5849   2.378   2.589   5.651 -1.4779  0.8835 -0.9536
 1650SOL    HW2 5850   2.238   2.504   5.650  0.1365 -1.8831 -0.7461
 1651SOL     OW 5851   0.311   3.974   3.801  0.1141 -0.4036 -0.4848
 1651SOL    HW1 5852   0.313   3.989   3.702 -1.7908  3.8012 -0.1037
 1651SOL    HW2 5853   0.234   3.915   3.823  1.2557 -2.3677 -1.5057
 1652SOL     OW 5854   6.842   4.371   1.722 -0.3406 -0.1180 -0.1147
 1652SOL    HW1 5855   6.940   4.379   1.739 -0.1570  0.2181 -1.2411
 1652SOL    HW2 5856   6.799   4.319   1.796  0.9085 -1.4259 -0.2723
 1653SOL     OW 5857   0.989   4.765   1.764 -0.4068  0.4222 -0.2732
 1653SOL    HW1 5858   0.963   4.765   1.861  1.3980 -0.4219  0.2597
 1653SOL    HW2 5859   1.018   4.673   1.737  1.8592  1.2047 -0.7817
 1654SOL     OW 5860   0.346   5.162   1.439 -0.3863 -0.1928 -0.3310
 1654SOL    HW1 5861   0.374   5.068   1.455 -0.4032 -0.2913 -0.8591
 1654SOL    HW2 5862   0.315   5.203   1.525  1.6921  0.0401  0.3789
 1655SOL     OW 5863   6.675   1.793   6.234  0.6318 -0.9723  0.2009
 1655SOL    HW1 5864   6.670   1.889   6.263 -0.5447 -0.4311 -1.6432
 1655SOL    HW2 5865   6.719   1.787   6.144 -0.6666 -1.9581 -0.4152
 1656SOL     OW 5866   0.301   3.042   4.440 -0.4615 -0.3405 -0.4300
 1656SOL    HW1 5867   0.231   3.110   4.459  1.5749  1.9196 -0.6161
 1656SOL    HW2 5868   0.278   2.993   4.356 -2.4972 -0.6880  0.2836
 1657SOL     OW 5869   0.541   2.044   0.042  0.3218 -0.3291  0.0048
 1657SOL    HW1 5870   0.598   2.073   0.118  0.0938  1.2561 -0.3858
 1657SOL    HW2 5871   0.444   2.052   0.067  0.2565 -0.7992 -0.0949
 1658SOL     OW 5872   6.907   0.699   6.721 -0.2871 -0.3454  0.1358
 1658SOL    HW1 5873   6.884   0.644   6.801 -1.3194  0.3916  0.3618
 1658SOL    HW2 5874   6.870   0.791   6.731  0.5293  0.1030 -0.6964
 1659SOL     OW 5875   2.542   1.693   4.244 -0.4130  0.2720  0.3416
 1659SOL    HW1 5876   2.598   1.629   4.296  0.2971 -0.1421 -0.9039
 1659SOL    HW2 5877   2.601   1.765   4.206 -0.6601 -0.2986 -1.1786
 1660SOL     OW 5878   3.977   0.754   2.450  0.0165 -0.0929 -0.0565
 1660SOL    HW1 5879   4.034   0.829   2.484 -1.4698  0.1707  1.9610
 1660SOL    HW2 5880   3.918   0.787   2.377  0.3392  0.3487 -0.1181
 1661SOL     OW 5881   4.267   5.888   1.137  0.2146 -0.1747  0.6254
 1661SOL    HW1 5882   4.271   5.788   1.127  0.6608 -0.0695 -0.3275
 1661SOL    HW2 5883   4.291   5.912   1.231 -0.1836 -0.9786  0.9475
 1662SOL     OW 5884   1.136   2.898   2.443  0.4074  0.2409  0.2091
 1662SOL    HW1 5885   1.150   2.861   2.351  1.7017  0.7711  0.1688
 1662SOL    HW2 5886   1.072   2.975   2.438 -0.9980 -0.9015  0.0566
 1663SOL     OW 5887   4.891   4.854   1.887 -0.2006  0.3019  0.0866
 1663SOL    HW1 5888   4.803   4.807   1.878  1.0248 -1.7784 -2.2573
 1663SOL    HW2 5889   4.926   4.842   1.979 -1.8701  0.2821  0.7623
 1664SOL     OW 5890   0.676   2.545   0.596 -0.2895  0.2372 -0.0811
 1664SOL    HW1 5891   0.680   2.616   0.525 -1.2961  1.0430  0.6382
 1664SOL    HW2 5892   0.596   2.560   0.654 -2.0456 -2.9358 -1.4001
 1665SOL     OW 5893   2.216   3.368   6.258 -0.4318 -0.7345  0.2254
 1665SOL    HW1 5894   2.313   3.377   6.280 -0.6668 -0.4473  1.1855
 1665SOL    HW2 5895   2.162   3.379   6.341 -1.5811  3.7409 -0.8548
 1666SOL     OW 5896   5.579   3.807   0.697 -0.4545  0.0948 -0.0513
 1666SOL    HW1 5897   5.659   3.859   0.669 -0.9083  0.7383 -0.1813
 1666SOL    HW2 5898   5.526   3.781   0.616 -0.4670 -0.1807  0.0436
 1667SOL     OW 5899   6.426   5.289   1.531  1.0039  0.4393 -0.2439
 1667SOL    HW1 5900   6.413   5.387   1.542 -1.9803  0.1826 -0.7439
 1667SOL    HW2 5901   6.454   5.269   1.437  0.7107  0.7611 -0.4002
 1668SOL     OW 5902   5.681   5.204   3.757 -0.0221  0.1031  0.1221
 1668SOL    HW1 5903   5.674   5.254   3.671 -0.7610 -0.3366 -0.0827
 1668SOL    HW2 5904   5.764   5.150   3.758 -0.3663 -0.4490 -0.6244
 1669SOL     OW 5905   0.217   1.741   4.523 -0.4436 -0.1036 -0.4810
 1669SOL    HW1 5906   0.293   1.711   4.465  0.7599  0.5547  0.7015
 1669SOL    HW2 5907   0.131   1.709   4.483  0.4873 -1.6150 -1.4178
 1670SOL     OW 5908   3.854   3.314   4.939 -0.9839  0.0019  0.3572
 1670SOL    HW1 5909   3.947   3.302   4.974 -1.3440 -1.4841  0.8518
 1670SOL    HW2 5910   3.848   3.404   4.894  0.4901  0.4143  0.8925
 1671SOL     OW 5911   5.580   2.136   1.677  0.1326  0.6094  0.5315
 1671SOL    HW1 5912   5.484   2.141   1.703  0.3699  0.2774  1.5241
 1671SOL    HW2 5913   5.588   2.097   1.585 -0.7037  1.2315  0.1839
 1672SOL     OW 5914   6.943   3.501   0.690  0.8172 -0.2435 -0.5044
 1672SOL    HW1 5915   6.931   3.597   0.667 -2.8223  0.1184  2.1240
 1672SOL    HW2 5916   6.867   3.470   0.747  3.6109 -3.7540  1.7953
 1673SOL     OW 5917   2.860   0.400   4.384  0.3225  0.1314 -0.4490
 1673SOL    HW1 5918   2.915   0.331   4.336 -0.3894 -1.1898  0.5373
 1673SOL    HW2 5919   2.849   0.372   4.479 -1.9946  0.3548 -0.5997
 1674SOL     OW 5920   5.799   2.171   2.144 -0.0883  0.0736  0.0980
 1674SOL    HW1 5921   5.710   2.199   2.108  0.0523  0.3426 -0.0421
 1674SOL    HW2 5922   5.806   2.071   2.141  0.6465  0.1225 -2.3893
 1675SOL     OW 5923   6.352   0.339   1.082  0.2371  0.0608  0.0761
 1675SOL    HW1 5924   6.270   0.394   1.095  1.1492  1.4405  0.1478
 1675SOL    HW2 5925   6.343   0.254   1.134 -1.3194 -0.0151 -0.2824
 1676SOL     OW 5926   1.097   1.693   4.062  0.1673  0.0310 -0.1188
 1676SOL    HW1 5927   1.143   1.604   4.067 -0.6587 -0.3130  2.8237
 1676SOL    HW2 5928   1.010   1.682   4.014  1.2816 -0.0973 -2.2559
 1677SOL     OW 5929   3.090   4.029   1.504  0.3266  0.0490  0.1049
 1677SOL    HW1 5930   3.154   4.088   1.552  0.3426  0.0001  0.1435
 1677SOL    HW2 5931   3.044   3.969   1.569  2.3311 -1.9381 -0.1630
 1678SOL     OW 5932   0.341   1.388   6.776  0.1587 -0.2203  0.2182
 1678SOL    HW1 5933   0.253   1.429   6.754  0.3046  0.0601  0.1561
 1678SOL    HW2 5934   0.346   1.296   6.737 -0.0436 -0.1768  0.0904
 1679SOL     OW 5935   6.802   3.131   1.637 -0.7901  0.4394 -0.5663
 1679SOL    HW1 5936   6.734   3.137   1.563 -0.4512 -2.8635 -1.2908
 1679SOL    HW2 5937   6.757   3.146   1.725 -2.0698  0.3200 -1.1785
 1680SOL     OW 5938   0.763   4.067   2.561  0.7069  0.4130 -0.5261
 1680SOL    HW1 5939   0.711   4.149   2.584  0.3273  0.1250 -0.3452
 1680SOL    HW2 5940   0.805   4.031   2.644  1.3136  0.7238 -0.6962
 1681SOL     OW 5941   2.502   0.828   4.332  0.1304  0.2992  0.1146
 1681SOL    HW1 5942   2.576   0.803   4.269 -1.2105 -1.8646 -0.7070
 1681SOL    HW2 5943   2.524   0.798   4.424  0.2332 -0.4795 -0.1568
 1682SOL     OW 5944   5.756   1.296   4.416  0.4396  0.1656  0.0985
 1682SOL    HW1 5945   5.830   1.229   4.427  0.5997  0.7073  2.9821
 1682SOL    HW2 5946   5.668   1.248   4.422  0.5384 -0.1027 -0.4837
 1683SOL     OW 5947   0.184   3.102   2.433  0.7416  0.0727  0.0538
 1683SOL    HW1 5948   0.241   3.143   2.361 -3.1957  3.1161 -1.7656
 1683SOL    HW2 5949   0.202   3.148   2.520  1.5844  0.4174 -0.2919
 1684SOL     OW 5950   3.067   5.591   1.019 -0.0839 -0.3519  0.2357
 1684SOL    HW1 5951   2.988   5.557   1.071 -0.5714 -1.5193 -1.2109
 1684SOL    HW2 5952   3.041   5.672   0.967  0.5885  1.2501  2.2459
 1685SOL     OW 5953   6.598   1.905   4.540  0.4801 -0.2647 -0.2031
 1685SOL    HW1 5954   6.637   1.964   4.469  2.9425 -0.4733  0.8627
 1685SOL    HW2 5955   6.653   1.912   4.623 -1.7283 -0.7891  1.3978
 1686SOL     OW 5956   1.823   4.825   1.396  0.1128 -0.3320 -0.2028
 1686SOL    HW1 5957   1.762   4.887   1.445  0.1094 -0.3264 -0.2140
 1686SOL    HW2 5958   1.853   4.868   1.311 -0.7261 -0.7690 -0.7266
 1687SOL     OW 5959   5.344   4.217   1.135  0.9224  0.0827  0.0123
 1687SOL    HW1 5960   5.261   4.174   1.100  0.7246  0.1214  0.4190
 1687SOL    HW2 5961   5.386   4.157   1.203  1.2880  0.0159 -0.2728
 1688SOL     OW 5962   2.231   0.894   2.927 -0.2007 -0.3650 -0.9701
 1688SOL    HW1 5963   2.187   0.845   2.852  0.5259 -2.2377 -0.2153
 1688SOL    HW2 5964   2.327   0.866   2.935 -0.2508 -0.1848  0.6405
 1689SOL     OW 5965   4.806   0.771   0.866 -0.0649 -0.2423 -0.1223
 1689SOL    HW1 5966   4.776   0.678   0.886  2.3178 -0.6357  2.0807
 1689SOL    HW2 5967   4.774   0.834   0.937  2.3683 -0.3273  1.1510
 1690SOL     OW 5968   6.068   3.930   5.031  0.3897  0.0465  0.3408
 1690SOL    HW1 5969   6.143   3.988   5.062  0.4619  0.5596 -0.7629
 1690SOL    HW2 5970   6.002   3.918   5.106  0.8840  0.7156  0.8934
 1691SOL     OW 5971   3.798   3.808   4.937  0.2123 -0.3431  0.2634
 1691SOL    HW1 5972   3.875   3.745   4.923 -0.8818 -1.5647 -0.5610
 1691SOL    HW2 5973   3.826   3.901   4.915  1.0823 -0.9696 -1.4960
 1692SOL     OW 5974   4.866   5.318   1.227  0.1524  0.3254 -0.0798
 1692SOL    HW1 5975   4.893   5.226   1.255  2.1581  0.7259 -0.5062
 1692SOL    HW2 5976   4.947   5.368   1.196 -0.7846  2.4606  0.7482
 1693SOL     OW 5977   6.590   6.908   5.529  0.4256 -0.0889  0.1106
 1693SOL    HW1 5978   6.493   6.886   5.528  0.7933 -1.8978 -1.7502
 1693SOL    HW2 5979   6.615   6.958   5.446  1.3044 -0.7760 -0.0562
 1694SOL     OW 5980   4.725   1.675   6.002  0.1487  0.6727 -0.1605
 1694SOL    HW1 5981   4.672   1.594   5.976 -0.4727  0.7957  0.6968
 1694SOL    HW2 5982   4.775   1.709   5.922  1.7163 -1.5095 -0.1927
 1695SOL     OW 5983   5.372   0.487   6.158  0.0731  0.5826  0.5325
 1695SOL    HW1 5984   5.334   0.543   6.086 -0.3834 -0.1079  0.2225
 1695SOL    HW2 5985   5.469   0.510   6.172 -0.0206  1.1885  0.1797
 1696SOL     OW 5986   6.880   0.598   2.455  0.0176 -0.3753  0.7873
 1696SOL    HW1 5987   6.827   0.662   2.510 -1.1675  0.6938 -1.4715
 1696SOL    HW2 5988   6.874   0.623   2.358  0.0780 -3.4687 -0.1452
 1697SOL     OW 5989   5.638   3.466   0.649  0.8598  0.1814 -0.2148
 1697SOL    HW1 5990   5.706   3.438   0.581 -1.0431 -2.0303 -1.3852
 1697SOL    HW2 5991   5.601   3.555   0.625  2.0989  0.6254 -0.5407
 1698SOL     OW 5992   3.924   2.544   1.580  0.2123 -0.4751 -0.0025
 1698SOL    HW1 5993   3.895   2.566   1.487 -0.8698 -0.5804  0.3045
 1698SOL    HW2 5994   3.856   2.575   1.645 -0.5230 -3.0376  0.5708
 1699SOL     OW 5995   2.501   6.938   1.273  0.0007 -0.5082  0.0087
 1699SOL    HW1 5996   2.441   7.005   1.315  1.1037 -0.1024  1.0107
 1699SOL    HW2 5997   2.518   6.863   1.337 -0.1250 -1.0621 -0.5874
 1700SOL     OW 5998   5.510   4.033   2.413 -0.3280  0.1469 -0.1769
 1700SOL    HW1 5999   5.535   4.048   2.317 -0.5401 -1.0051 -0.4250
 1700SOL    HW2 6000   5.436   4.095   2.438  0.0972  0.8412 -0.5875
 1701SOL     OW 6001   1.902   5.822   5.529  0.0627  0.1025 -0.4551
 1701SOL    HW1 6002   1.962   5.815   5.450 -0.3105 -0.4862 -0.6933
 1701SOL    HW2 6003   1.944   5.776   5.607 -0.6314 -1.4448 -0.9635
 1702SOL     OW 6004   1.702   2.055   5.989 -0.1269 -0.3717 -0.4300
 1702SOL    HW1 6005   1.728   1.998   5.911 -0.4097 -1.5959  0.3412
 1702SOL    HW2 6006   1.779   2.111   6.017  1.5391 -3.2414  1.2307
 1703SOL     OW 6007   1.483   3.519   1.828  0.0937 -0.2219  0.0214
 1703SOL    HW1 6008   1.403   3.570   1.796 -1.1952 -1.2314  1.4551
 1703SOL    HW2 6009   1.475   3.423   1.800  1.5495 -0.0587 -1.0437
 1704SOL     OW 6010   1.987   2.866   5.852  0.4795 -0.2711 -0.1037
 1704SOL    HW1 6011   1.960   2.962   5.857 -0.6899 -0.5918 -0.0346
 1704SOL    HW2 6012   1.907   2.808   5.869  1.4368 -1.2605  1.2724
 1705SOL     OW 6013   6.610   3.890   2.743  0.0769  0.5137 -0.1399
 1705SOL    HW1 6014   6.586   3.795   2.722  0.0244  0.6506 -0.7028
 1705SOL    HW2 6015   6.652   3.932   2.663  1.8698  0.3916  0.6730
 1706SOL     OW 6016   3.323   1.595   6.388  0.3118 -0.1032  0.2131
 1706SOL    HW1 6017   3.263   1.613   6.311 -1.0060  1.9088  1.6319
 1706SOL    HW2 6018   3.397   1.663   6.390  0.8936 -0.7181  0.2221
 1707SOL     OW 6019   3.640   0.840   3.483  0.0276  0.5260 -0.1454
 1707SOL    HW1 6020   3.588   0.755   3.474  0.2233  0.4803 -0.9008
 1707SOL    HW2 6021   3.729   0.830   3.437 -0.2086  1.3493 -0.8105
 1708SOL     OW 6022   2.373   4.384   1.722  0.5610 -0.4805  0.0322
 1708SOL    HW1 6023   2.457   4.410   1.675  1.6111 -3.3013  0.1776
 1708SOL    HW2 6024   2.326   4.312   1.670 -0.2221 -1.0088  1.4150
 1709SOL     OW 6025   5.376   5.743   1.671 -0.0801 -0.3912  0.2708
 1709SOL    HW1 6026   5.324   5.825   1.647  1.5998  0.5480 -0.3191
 1709SOL    HW2 6027   5.331   5.696   1.747 -2.1657 -0.0472 -0.6978
 1710SOL     OW 6028   3.411   1.861   2.563 -0.2563  0.0648 -0.2313
 1710SOL    HW1 6029   3.464   1.798   2.506 -1.2385  0.9129 -2.1612
 1710SOL    HW2 6030   3.366   1.810   2.636 -0.4693 -1.3755 -1.3292
 1711SOL     OW 6031   3.076   5.312   0.870 -0.0386 -0.3089 -0.7782
 1711SOL    HW1 6032   3.107   5.218   0.884  2.4713  0.5292 -0.0799
 1711SOL    HW2 6033   3.067   5.357   0.959 -0.7071  0.2599 -1.1266
 1712SOL     OW 6034   6.538   1.443   2.212 -0.3689 -0.0099  0.1491
 1712SOL    HW1 6035   6.595   1.523   2.193  0.1522 -0.3975  0.0767
 1712SOL    HW2 6036   6.577   1.392   2.288 -0.0122 -0.8661 -0.5938
 1713SOL     OW 6037   3.622   6.414   3.440  0.1116 -0.5726  0.1580
 1713SOL    HW1 6038   3.627   6.436   3.342  0.6936 -1.5171 -0.0449
 1713SOL    HW2 6039   3.670   6.328   3.456  2.0321  0.7016  1.6294
 1714SOL     OW 6040   2.538   4.436   1.167 -0.4804 -0.2121  0.3236
 1714SOL    HW1 6041   2.518   4.338   1.158  1.4353 -0.5947 -0.4494
 1714SOL    HW2 6042   2.621   4.457   1.116  0.2482  1.4372  2.0561
 1715SOL     OW 6043   1.032   4.811   4.187 -0.1445  0.0874  0.8066
 1715SOL    HW1 6044   1.045   4.879   4.115  1.7987 -0.0763  0.9470
 1715SOL    HW2 6045   0.993   4.728   4.148 -0.8105  0.6339  0.2926
 1716SOL     OW 6046   6.099   2.548   2.880 -0.4110 -0.0388 -0.0723
 1716SOL    HW1 6047   6.073   2.452   2.874  0.0027 -0.1096 -0.8399
 1716SOL    HW2 6048   6.017   2.605   2.884 -0.6823 -0.5005  2.2077
 1717SOL     OW 6049   3.709   6.889   1.212  0.1667  0.5774  0.0687
 1717SOL    HW1 6050   3.781   6.831   1.251  0.5304  0.4923 -0.6956
 1717SOL    HW2 6051   3.745   6.982   1.199  0.0974  0.5701 -0.1827
 1718SOL     OW 6052   0.727   3.244   0.906 -0.0772 -0.0609 -0.3115
 1718SOL    HW1 6053   0.817   3.262   0.867  0.3461 -1.5863 -0.1178
 1718SOL    HW2 6054   0.700   3.150   0.885 -2.7384  1.0555 -2.4660
 1719SOL     OW 6055   0.988   4.010   1.652 -0.1481 -0.5901 -0.6374
 1719SOL    HW1 6056   1.010   3.927   1.703  0.7245 -1.8814 -2.9517
 1719SOL    HW2 6057   1.060   4.028   1.586 -0.2679  2.1297 -0.1504
 1720SOL     OW 6058   0.138   2.594   6.205 -0.2961 -0.0797 -0.4387
 1720SOL    HW1 6059   0.143   2.647   6.120  1.0107  1.3657  0.4883
 1720SOL    HW2 6060   0.164   2.499   6.186  1.7614  0.6023 -1.3929
 1721SOL     OW 6061   0.395   1.897   2.048  0.0236  0.4281 -0.3702
 1721SOL    HW1 6062   0.482   1.855   2.021  0.2169 -0.6779  1.7763
 1721SOL    HW2 6063   0.320   1.835   2.027  0.1026 -0.0904  0.7868
 1722SOL     OW 6064   2.643   2.437   3.004 -0.0815  0.1001  0.2274
 1722SOL    HW1 6065   2.608   2.409   2.915  0.5322  1.1814 -0.3699
 1722SOL    HW2 6066   2.654   2.536   3.007  1.9788 -0.0891  0.6992
 1723SOL     OW 6067   5.638   5.789   0.497 -0.4098  0.4879  0.2149
 1723SOL    HW1 6068   5.562   5.850   0.518 -1.1309 -0.0796 -0.6538
 1723SOL    HW2 6069   5.723   5.840   0.498 -0.9707  1.4548 -0.2663
 1724SOL     OW 6070   6.216   1.591   6.940  0.2848 -0.1539 -0.4976
 1724SOL    HW1 6071   6.314   1.606   6.946  0.0209  1.9061 -0.6734
 1724SOL    HW2 6072   6.176   1.595   7.031  0.4350 -1.9612 -0.3041
 1725SOL     OW 6073   2.652   6.662   6.096  0.0870  0.5915  1.2341
 1725SOL    HW1 6074   2.575   6.675   6.034  0.0419  0.7510  1.3238
 1725SOL    HW2 6075   2.634   6.582   6.155  0.0732  0.5175  1.1293
 1726SOL     OW 6076   4.365   4.782   2.167  0.4048  0.5744  0.3275
 1726SOL    HW1 6077   4.286   4.819   2.118  3.3806  1.2759 -4.5777
 1726SOL    HW2 6078   4.362   4.682   2.162 -0.6494  0.5381  1.2009
 1727SOL     OW 6079   3.303   3.979   2.102 -0.4267 -0.4172 -0.4685
 1727SOL    HW1 6080   3.283   3.976   2.200  0.5855  1.2851 -0.1538
 1727SOL    HW2 6081   3.260   3.902   2.056 -0.1650 -1.7698  1.4492
 1728SOL     OW 6082   6.024   2.499   3.333  0.2598 -0.6316 -0.3333
 1728SOL    HW1 6083   6.098   2.544   3.382  0.1460 -1.4253  0.6053
 1728SOL    HW2 6084   5.945   2.489   3.393  0.1343 -1.6733 -0.6414
 1729SOL     OW 6085   2.614   2.157   3.190  0.4887 -0.0859  0.1891
 1729SOL    HW1 6086   2.519   2.172   3.161  0.7411  0.3240 -0.4189
 1729SOL    HW2 6087   2.650   2.240   3.232  0.9826  0.1653 -0.7075
 1730SOL     OW 6088   3.093   2.226   4.472  0.3209 -0.3541 -0.8579
 1730SOL    HW1 6089   3.065   2.152   4.410  0.2930 -1.5790  0.5703
 1730SOL    HW2 6090   3.028   2.231   4.548  1.3121 -0.0251 -0.0191
 1731SOL     OW 6091   5.785   4.849   4.358 -0.0484 -0.2844  0.2358
 1731SOL    HW1 6092   5.851   4.792   4.408 -1.1187 -1.4923  0.3170
 1731SOL    HW2 6093   5.786   4.942   4.397  0.3001 -0.7609  1.4347
 1732SOL     OW 6094   5.785   3.171   5.241 -0.8785 -0.2068 -0.0387
 1732SOL    HW1 6095   5.686   3.175   5.249 -0.8494 -1.0001  0.8421
 1732SOL    HW2 6096   5.825   3.147   5.329  0.1929  1.3481 -0.0715
 1733SOL     OW 6097   0.827   3.115   6.065 -0.4010 -0.4085  0.7555
 1733SOL    HW1 6098   0.767   3.047   6.025  0.4673 -1.0265  0.4633
 1733SOL    HW2 6099   0.817   3.114   6.165 -1.2116 -0.1671  0.6802
 1734SOL     OW 6100   0.034   4.987   0.371 -0.1262  0.2603  0.6393
 1734SOL    HW1 6101  -0.037   5.055   0.389 -0.4824  0.1562 -0.3412
 1734SOL    HW2 6102   0.022   4.910   0.434  0.8825  1.5084  2.4461
 1735SOL     OW 6103   1.962   4.498   5.163  0.0023 -0.0503  0.0564
 1735SOL    HW1 6104   1.912   4.444   5.095 -0.1697 -0.5954  0.6041
 1735SOL    HW2 6105   2.059   4.474   5.161 -0.1460 -0.7368  0.6150
 1736SOL     OW 6106   5.916   2.429   5.128 -0.0206  0.2361 -0.1903
 1736SOL    HW1 6107   5.961   2.343   5.104  0.0747  0.2813 -0.1737
 1736SOL    HW2 6108   5.847   2.451   5.058  0.1302  0.2746 -0.3277
 1737SOL     OW 6109   3.749   0.105   6.132 -0.2279  0.2614  0.1719
 1737SOL    HW1 6110   3.677   0.060   6.079 -0.4369  0.4648  0.2854
 1737SOL    HW2 6111   3.784   0.041   6.201  0.0461 -0.0057 -0.2087
 1738SOL     OW 6112   6.957   3.787   0.694 -0.4305 -0.1520  0.4510
 1738SOL    HW1 6113   7.017   3.819   0.621 -0.6387  0.4913  0.5596
 1738SOL    HW2 6114   7.007   3.784   0.781 -0.6821  0.8785  0.6434
 1739SOL     OW 6115   4.207   6.108   1.961 -0.1567 -0.2841 -0.0979
 1739SOL    HW1 6116   4.176   6.126   2.055  0.2010 -0.2515  0.0165
 1739SOL    HW2 6117   4.134   6.128   1.897  0.4319  2.3040 -0.0483
 1740SOL     OW 6118   5.780   4.106   5.010 -0.6895  0.2638 -0.4641
 1740SOL    HW1 6119   5.760   4.134   5.104  1.2315  1.7946 -0.4502
 1740SOL    HW2 6120   5.836   4.023   5.012  0.1934  0.8471 -0.1815
 1741SOL     OW 6121   6.573   2.707   5.580 -0.4910 -0.0727  0.5343
 1741SOL    HW1 6122   6.539   2.748   5.496  0.5417 -0.3028 -0.0129
 1741SOL    HW2 6123   6.503   2.647   5.619 -0.0126 -2.2326 -1.6966
 1742SOL     OW 6124   4.861   0.344   6.658 -0.2150  0.5593 -0.5365
 1742SOL    HW1 6125   4.951   0.307   6.635 -0.8463 -1.3913 -0.1014
 1742SOL    HW2 6126   4.805   0.272   6.699 -1.4601  2.1360  0.6657
 1743SOL     OW 6127   1.306   2.691   1.224  0.1389 -0.6927 -0.0603
 1743SOL    HW1 6128   1.334   2.740   1.141 -1.2621 -3.0072 -2.0591
 1743SOL    HW2 6129   1.235   2.742   1.271  0.9267  0.6399 -0.2685
 1744SOL     OW 6130   4.005   3.802   5.982  0.2686  0.9368 -0.2319
 1744SOL    HW1 6131   3.926   3.741   5.987  1.2826 -0.3612  0.4607
 1744SOL    HW2 6132   4.067   3.769   5.910  2.3769 -0.8512  2.2141
 1745SOL     OW 6133   5.771   0.398   1.957  0.3685  0.0547  0.2587
 1745SOL    HW1 6134   5.836   0.336   2.002  0.8595  0.4789  0.1439
 1745SOL    HW2 6135   5.766   0.376   1.859 -1.6681 -1.7197  0.6826
 1746SOL     OW 6136   2.582   4.663   2.052  0.1043  0.1310  0.2192
 1746SOL    HW1 6137   2.560   4.745   1.999 -0.7371  0.1340  0.5458
 1746SOL    HW2 6138   2.653   4.610   2.005 -1.6550 -0.6560 -1.7173
 1747SOL     OW 6139   2.974   1.826   2.294  0.4433  0.2672  0.2368
 1747SOL    HW1 6140   3.038   1.777   2.354  0.6769 -0.8027 -0.8504
 1747SOL    HW2 6141   2.980   1.788   2.202 -0.2580  1.5665 -0.3625
 1748SOL     OW 6142   0.719   0.961   3.854  0.5603 -0.0282 -0.1358
 1748SOL    HW1 6143   0.759   1.052   3.855  0.8342 -0.1499  0.5575
 1748SOL    HW2 6144   0.628   0.965   3.813  0.6002  0.5447 -0.1741
 1749SOL     OW 6145   5.359   4.666   3.024 -0.6563 -0.3955  0.5253
 1749SOL    HW1 6146   5.367   4.763   3.046  0.3480 -0.2336 -0.4569
 1749SOL    HW2 6147   5.268   4.647   2.987 -1.0297  0.0615  1.1903
 1750SOL     OW 6148   2.735   2.821   1.300  0.1190 -0.2990  0.0689
 1750SOL    HW1 6149   2.692   2.849   1.386 -0.6240  1.3939 -0.7963
 1750SOL    HW2 6150   2.694   2.736   1.267 -1.4574  0.4307  0.0832
 1751SOL     OW 6151   6.624   4.864   5.035 -0.0638 -0.5900  0.0344
 1751SOL    HW1 6152   6.703   4.807   5.059  0.1755  0.0430  0.7980
 1751SOL    HW2 6153   6.540   4.818   5.064  0.1552 -0.3638  1.0877
 1752SOL     OW 6154   5.997   1.670   0.776  0.2713 -0.0163  0.2959
 1752SOL    HW1 6155   6.050   1.713   0.703  0.6596  1.7846  1.5852
 1752SOL    HW2 6156   5.903   1.705   0.773 -0.1445 -1.1410 -0.2929
 1753SOL     OW 6157   0.661   2.154   2.269 -0.4885  0.3734  0.4368
 1753SOL    HW1 6158   0.692   2.248   2.255  0.2515  0.0783  0.0242
 1753SOL    HW2 6159   0.563   2.154   2.292 -0.3362  1.2838  1.1515
 1754SOL     OW 6160   2.222   5.049   3.495 -0.0561 -0.0113  0.4634
 1754SOL    HW1 6161   2.183   5.114   3.429 -2.3923 -1.0748  0.6924
 1754SOL    HW2 6162   2.277   5.098   3.562 -0.2976  1.4943 -0.4005
 1755SOL     OW 6163   5.562   6.146   5.184 -0.1114 -0.5607 -0.2956
 1755SOL    HW1 6164   5.571   6.052   5.150 -2.4249 -0.5223 -1.2753
 1755SOL    HW2 6165   5.475   6.184   5.151  0.6175  1.8240  0.3571
 1756SOL     OW 6166   4.470   6.568   0.065  0.5379 -0.3932  0.1476
 1756SOL    HW1 6167   4.430   6.543  -0.023  0.0513 -0.3954  0.3669
 1756SOL    HW2 6168   4.506   6.486   0.110  0.9535 -0.3647 -0.1293
 1757SOL     OW 6169   5.032   5.066   4.497  0.0513 -0.2392 -0.1724
 1757SOL    HW1 6170   5.095   5.085   4.572  0.9556 -1.1898 -0.6590
 1757SOL    HW2 6171   5.084   5.050   4.413 -0.9467  0.9602 -1.0548
 1758SOL     OW 6172   1.447   5.139   4.704  0.1405 -0.1387  0.8776
 1758SOL    HW1 6173   1.543   5.148   4.677 -0.2378  0.3066 -0.3910
 1758SOL    HW2 6174   1.442   5.117   4.801  1.5631 -1.6313  0.6532
 1759SOL     OW 6175   0.743   5.451   5.606  0.1104  0.0195 -0.5284
 1759SOL    HW1 6176   0.771   5.474   5.699 -1.4884 -0.5529  0.1342
 1759SOL    HW2 6177   0.758   5.353   5.590  1.4696  0.3283 -1.3086
 1760SOL     OW 6178   6.785   1.105   3.694  0.9385  0.3110  0.0159
 1760SOL    HW1 6179   6.791   1.077   3.790  2.2316  0.0966 -0.1163
 1760SOL    HW2 6180   6.723   1.043   3.646  0.5865  0.1831  0.6250
 1761SOL     OW 6181   6.345   3.305   2.152 -0.1448 -0.3397  0.7332
 1761SOL    HW1 6182   6.410   3.374   2.120  0.3394 -0.2995  1.7576
 1761SOL    HW2 6183   6.395   3.224   2.182 -0.6250 -0.6334  0.7514
 1762SOL     OW 6184   0.667   0.188   4.712  0.4531  0.2394 -0.1153
 1762SOL    HW1 6185   0.723   0.168   4.792  0.2057  0.1463  0.0380
 1762SOL    HW2 6186   0.571   0.165   4.732 -0.2633  3.4539  0.8764
 1763SOL     OW 6187   0.799   4.307   3.662 -0.4293  0.0112 -0.3075
 1763SOL    HW1 6188   0.787   4.225   3.717  1.1345 -1.2637 -1.7725
 1763SOL    HW2 6189   0.740   4.380   3.697 -1.5327 -1.5837  1.2857
 1764SOL     OW 6190   2.060   5.991   3.445 -0.3115 -0.1024  0.1721
 1764SOL    HW1 6191   2.014   5.979   3.533 -0.7894  0.5921  0.0321
 1764SOL    HW2 6192   1.992   6.014   3.375 -0.1242 -2.0128 -0.6938
 1765SOL     OW 6193   4.706   4.259   2.620 -0.0559 -0.5649 -0.0806
 1765SOL    HW1 6194   4.724   4.176   2.567 -0.6888 -0.1956 -0.9016
 1765SOL    HW2 6195   4.780   4.273   2.686  1.6163 -0.1685 -1.9604
 1766SOL     OW 6196   0.085   3.904   2.744  0.8188 -0.0486 -0.0342
 1766SOL    HW1 6197   0.091   4.002   2.723  0.4405 -0.4433 -2.1011
 1766SOL    HW2 6198  -0.005   3.869   2.719  1.0451 -1.0086  0.4286
 1767SOL     OW 6199   2.418   4.052   6.651  0.1420 -0.1201  0.4144
 1767SOL    HW1 6200   2.516   4.059   6.631  0.3711  0.1827  1.5604
 1767SOL    HW2 6201   2.379   3.974   6.601  1.0152 -0.3916  0.1352
 1768SOL     OW 6202   5.444   6.236   2.453 -0.3347 -0.0042 -0.1103
 1768SOL    HW1 6203   5.410   6.205   2.364  1.0810 -0.6628 -0.4486
 1768SOL    HW2 6204   5.525   6.293   2.440  1.8378 -2.6630  0.7960
 1769SOL     OW 6205   4.391   6.662   6.559  0.2453  0.4438 -0.0138
 1769SOL    HW1 6206   4.399   6.752   6.517  0.3901  0.9800  1.1323
 1769SOL    HW2 6207   4.308   6.617   6.527 -0.6809  1.6474  0.6263
 1770SOL     OW 6208   2.069   5.648   2.694 -0.3112 -0.8218 -0.4024
 1770SOL    HW1 6209   2.061   5.646   2.794  1.0037  1.5948 -0.1573
 1770SOL    HW2 6210   2.144   5.589   2.665 -0.0759 -0.8024  0.1490
 1771SOL     OW 6211   0.993   1.029   4.944  0.3435 -0.0198  0.0044
 1771SOL    HW1 6212   1.060   1.102   4.933 -0.4569  0.6962 -0.1727
 1771SOL    HW2 6213   1.030   0.958   5.004  1.3961  0.1909 -0.3873
 1772SOL     OW 6214   1.079   2.293   2.246 -1.0181 -0.1982  0.0411
 1772SOL    HW1 6215   1.040   2.212   2.291 -0.6854 -1.1851 -1.3869
 1772SOL    HW2 6216   1.103   2.270   2.152 -1.3865  1.7188 -0.5610
 1773SOL     OW 6217   2.170   3.953   3.387 -0.6130 -0.1695 -0.5575
 1773SOL    HW1 6218   2.212   3.985   3.472 -1.8726  2.0866 -0.7229
 1773SOL    HW2 6219   2.149   3.856   3.396 -1.8886  0.2690  2.2322
 1774SOL     OW 6220   5.748   5.905   3.983 -0.5827 -0.0147 -0.2307
 1774SOL    HW1 6221   5.785   5.836   3.921  1.1639  1.0626 -0.4445
 1774SOL    HW2 6222   5.690   5.968   3.931  0.0629  0.2966 -0.5823
 1775SOL     OW 6223   0.491   5.846   3.326 -0.2079 -0.7138 -0.1136
 1775SOL    HW1 6224   0.545   5.762   3.325 -0.3404 -0.8124 -1.6060
 1775SOL    HW2 6225   0.493   5.886   3.417  1.3959 -1.3480  0.1640
 1776SOL     OW 6226   3.703   3.911   6.318 -0.2035 -0.0134  0.4962
 1776SOL    HW1 6227   3.732   3.820   6.289  2.5728  0.7005  0.8036
 1776SOL    HW2 6228   3.777   3.956   6.367 -2.1682  1.7310  2.0352
 1777SOL     OW 6229   2.463   6.225   6.433 -0.3102  0.2920 -0.0130
 1777SOL    HW1 6230   2.518   6.309   6.426  0.8204 -0.5592 -2.4645
 1777SOL    HW2 6231   2.521   6.150   6.466 -0.8610  0.0579  0.4487
 1778SOL     OW 6232   6.680   6.967   2.039 -0.5238 -0.2789 -0.1012
 1778SOL    HW1 6233   6.767   6.975   2.088 -1.1132  0.1386  0.9208
 1778SOL    HW2 6234   6.650   6.871   2.039  0.1499 -0.5029 -0.8735
 1779SOL     OW 6235   4.863   1.427   4.834  0.4354  0.0269  0.2547
 1779SOL    HW1 6236   4.918   1.417   4.917  2.3766 -1.6462 -1.1266
 1779SOL    HW2 6237   4.853   1.524   4.812  1.6215  0.4207  1.3370
 1780SOL     OW 6238   5.154   5.874   4.403 -0.5572 -0.1336 -0.4548
 1780SOL    HW1 6239   5.250   5.900   4.393 -1.1741  2.8790  0.4077
 1780SOL    HW2 6240   5.100   5.914   4.329 -1.4688  0.5529  0.5354
 1781SOL     OW 6241   3.826   2.955   5.747 -0.3187  0.6642 -0.1462
 1781SOL    HW1 6242   3.733   2.962   5.785 -0.7371  0.4947 -1.1028
 1781SOL    HW2 6243   3.823   2.905   5.660  0.2967  2.6412 -1.3758
 1782SOL     OW 6244   4.347   5.633   1.029 -0.6994 -0.3634  0.1137
 1782SOL    HW1 6245   4.353   5.674   0.938 -1.9875 -1.2510 -0.4057
 1782SOL    HW2 6246   4.263   5.580   1.036  0.6016 -2.4452  0.9438
 1783SOL     OW 6247   1.157   3.472   0.892 -0.2201  0.4678  0.6924
 1783SOL    HW1 6248   1.247   3.514   0.906  0.0664 -0.5205  1.9827
 1783SOL    HW2 6249   1.147   3.448   0.795  1.4543 -0.5310  0.7208
 1784SOL     OW 6250   2.636   6.292   0.307 -0.4039 -0.1038  0.2413
 1784SOL    HW1 6251   2.696   6.334   0.238 -1.1382  0.8695  0.1680
 1784SOL    HW2 6252   2.541   6.312   0.284 -0.6818 -0.1933  1.2702
 1785SOL     OW 6253   1.518   6.073   5.033 -0.4338 -0.3767 -1.1309
 1785SOL    HW1 6254   1.574   6.080   5.116 -1.0704  0.1793 -0.7458
 1785SOL    HW2 6255   1.435   6.127   5.044 -0.0717  0.4870 -2.5185
 1786SOL     OW 6256   1.038   4.892   3.563  0.6124  0.1783 -0.0592
 1786SOL    HW1 6257   1.137   4.882   3.576  0.2120 -3.4749  1.2693
 1786SOL    HW2 6258   1.013   4.864   3.471  0.8419  2.0688 -0.7399
 1787SOL     OW 6259   0.068   2.590   3.575 -0.1578 -0.1132  0.0017
 1787SOL    HW1 6260   0.014   2.570   3.493 -0.4382  1.1801 -0.1589
 1787SOL    HW2 6261   0.139   2.656   3.552 -0.1362  0.1316  0.7664
 1788SOL     OW 6262   1.736   2.800   6.557  0.1621  0.6628  0.0306
 1788SOL    HW1 6263   1.698   2.762   6.472  0.0106  1.1710 -0.1315
 1788SOL    HW2 6264   1.735   2.899   6.553  1.0043  0.6907  0.2585
 1789SOL     OW 6265   5.290   3.724   2.565  0.0646 -0.4453 -0.0850
 1789SOL    HW1 6266   5.385   3.715   2.532  0.5876  0.4409  1.1182
 1789SOL    HW2 6267   5.282   3.682   2.655 -0.8724 -1.0930 -0.4534
 1790SOL     OW 6268   3.112   1.772   4.307  0.1788  0.0394 -0.3133
 1790SOL    HW1 6269   3.135   1.870   4.308  2.3624 -0.3643 -2.0248
 1790SOL    HW2 6270   3.065   1.750   4.221 -1.3625 -0.2494  0.5700
 1791SOL     OW 6271   1.230   1.410   2.591 -0.0921  0.4712 -0.3445
 1791SOL    HW1 6272   1.187   1.359   2.665 -0.4037  2.2650  0.7759
 1791SOL    HW2 6273   1.292   1.479   2.629 -0.0423  1.2458 -1.7496
 1792SOL     OW 6274   6.392   2.432   5.923  0.0879  0.0788  0.9605
 1792SOL    HW1 6275   6.360   2.498   5.991  1.9626  1.4432  0.5935
 1792SOL    HW2 6276   6.378   2.468   5.831 -1.4707 -1.3070  0.6158
 1793SOL     OW 6277   6.440   1.448   5.487  0.0686 -0.0205 -0.3149
 1793SOL    HW1 6278   6.500   1.489   5.418  0.8052 -0.5337  0.0117
 1793SOL    HW2 6279   6.471   1.476   5.578  1.2203 -2.0776 -0.0219
 1794SOL     OW 6280   6.306   1.599   6.615  0.4625 -0.2467  0.1486
 1794SOL    HW1 6281   6.352   1.673   6.566 -0.4255  0.7303  0.7341
 1794SOL    HW2 6282   6.230   1.637   6.667  0.8731 -1.3811  1.6224
 1795SOL     OW 6283   5.076   4.786   6.053 -0.0954  0.2970  0.1001
 1795SOL    HW1 6284   5.122   4.743   5.976  2.9123  0.7305  1.5204
 1795SOL    HW2 6285   4.998   4.730   6.082 -0.6518 -0.3979 -2.5142
 1796SOL     OW 6286   4.124   6.674   6.776  0.1781  0.2112  0.0020
 1796SOL    HW1 6287   4.172   6.606   6.720  1.8979  0.2399  1.3628
 1796SOL    HW2 6288   4.057   6.629   6.834  1.2888 -0.3826  0.8753
 1797SOL     OW 6289   3.734   6.007   3.030  0.1824  0.2797  0.1982
 1797SOL    HW1 6290   3.652   6.048   2.990  0.2818  1.5119  1.1968
 1797SOL    HW2 6291   3.733   5.909   3.013 -1.2030  0.3524 -0.3300
 1798SOL     OW 6292   1.913   3.092   4.650  0.3721 -0.1860 -0.3658
 1798SOL    HW1 6293   1.969   3.010   4.637  0.9853 -0.1222  1.6450
 1798SOL    HW2 6294   1.970   3.174   4.636  0.3277 -0.1101 -0.0989
 1799SOL     OW 6295   3.369   1.534   1.608 -0.0379 -0.3368 -0.1172
 1799SOL    HW1 6296   3.449   1.566   1.557 -0.7125  1.2177 -0.2518
 1799SOL    HW2 6297   3.286   1.566   1.562 -0.6743  1.2655  2.0269
 1800SOL     OW 6298   4.375   4.207   5.583 -0.5696  0.2683 -0.0298
 1800SOL    HW1 6299   4.394   4.117   5.543 -1.2207 -0.0363  0.3242
 1800SOL    HW2 6300   4.431   4.276   5.538 -0.9361 -0.1386 -1.1425
 1801SOL     OW 6301   1.413   1.307   3.125  0.0298  0.3845 -0.3080
 1801SOL    HW1 6302   1.402   1.324   3.223  1.7583 -0.1937  0.0366
 1801SOL    HW2 6303   1.507   1.277   3.108 -0.4418 -0.1725 -2.0640
 1802SOL     OW 6304   5.996   3.922   3.722 -0.0774  0.0973 -0.2144
 1802SOL    HW1 6305   6.016   4.019   3.717  0.8869 -0.1329 -1.0867
 1802SOL    HW2 6306   5.935   3.904   3.800 -0.4651  1.4148 -0.1952
 1803SOL     OW 6307   1.251   6.464   3.777 -0.3924  0.6492 -0.0943
 1803SOL    HW1 6308   1.336   6.517   3.777 -0.0702  0.2531 -2.5042
 1803SOL    HW2 6309   1.269   6.373   3.815  0.2815  0.5508 -0.6354
 1804SOL     OW 6310   6.968   2.189   5.437  0.3919 -0.3254 -0.1403
 1804SOL    HW1 6311   7.041   2.211   5.372  0.2610 -1.1481 -0.5878
 1804SOL    HW2 6312   6.961   2.090   5.446 -0.5239 -0.2488  0.0718
 1805SOL     OW 6313   6.875   5.902   5.954  0.0043 -0.2450 -0.3028
 1805SOL    HW1 6314   6.935   5.897   6.034  0.2575  0.7828 -0.4219
 1805SOL    HW2 6315   6.922   5.862   5.875  0.9801  1.4945 -0.6454
 1806SOL     OW 6316   1.912   3.933   1.923 -0.0156  0.1913 -0.1546
 1806SOL    HW1 6317   1.841   3.879   1.969 -0.2173  0.2723 -0.3700
 1806SOL    HW2 6318   1.998   3.882   1.925 -0.6231 -1.0106 -1.9785
 1807SOL     OW 6319   6.449   2.887   3.708  0.1197  0.6498  0.3371
 1807SOL    HW1 6320   6.480   2.879   3.613 -0.6958  0.7411  0.0593
 1807SOL    HW2 6321   6.498   2.962   3.753  0.3408  0.7548 -0.0722
 1808SOL     OW 6322   0.129   0.129   6.921 -0.3282  0.6525  0.3296
 1808SOL    HW1 6323   0.084   0.126   7.011 -1.1885  0.7312 -0.0929
 1808SOL    HW2 6324   0.060   0.144   6.850  0.4514  1.5150 -0.2640
 1809SOL     OW 6325   6.083   6.749   4.129 -0.1989 -0.4825 -0.2561
 1809SOL    HW1 6326   6.172   6.709   4.109  0.7599  0.5135  1.7274
 1809SOL    HW2 6327   6.092   6.848   4.140 -1.4110 -0.4345  0.5917
 1810SOL     OW 6328   2.604   1.340   3.991  0.1648  0.1253  0.3101
 1810SOL    HW1 6329   2.622   1.310   4.084 -0.2365 -0.3851  0.2285
 1810SOL    HW2 6330   2.513   1.380   3.986 -0.5020 -1.3486 -0.1827
 1811SOL     OW 6331   1.811   3.576   3.098  0.5971  0.5205 -0.0606
 1811SOL    HW1 6332   1.762   3.493   3.125  1.2613  0.1341  0.0066
 1811SOL    HW2 6333   1.753   3.632   3.039 -0.0935  0.3228  0.4251
 1812SOL     OW 6334   3.803   2.071   5.677  0.1794 -0.0243  0.1839
 1812SOL    HW1 6335   3.777   2.105   5.587  0.0202  0.2518  0.3323
 1812SOL    HW2 6336   3.902   2.054   5.679  0.0193 -1.1755 -0.4126
 1813SOL     OW 6337   6.501   4.091   3.942 -0.1452  0.2672  0.0844
 1813SOL    HW1 6338   6.558   4.141   3.876 -2.8476 -0.8690 -3.4488
 1813SOL    HW2 6339   6.553   4.015   3.981  1.4044  0.5915 -1.2479
 1814SOL     OW 6340   6.684   5.581   1.764 -0.1703 -0.4828  0.0790
 1814SOL    HW1 6341   6.749   5.644   1.806 -0.5862  0.0129 -0.0101
 1814SOL    HW2 6342   6.701   5.488   1.797  1.2531 -0.5356 -0.7239
 1815SOL     OW 6343   6.258   6.753   1.422  0.5841 -0.0208 -0.2981
 1815SOL    HW1 6344   6.251   6.794   1.513  0.7636  1.5417 -0.9544
 1815SOL    HW2 6345   6.204   6.806   1.357  1.2028 -0.5597 -1.2860
 1816SOL     OW 6346   4.017   5.551   4.302  0.6805  0.8700  0.4356
 1816SOL    HW1 6347   3.939   5.516   4.354  0.1276  0.8523 -0.3929
 1816SOL    HW2 6348   4.082   5.595   4.365  0.4445  0.0994  1.2466
 1817SOL     OW 6349   0.610   2.720   3.099 -0.3864 -0.3696 -0.3558
 1817SOL    HW1 6350   0.536   2.726   3.032 -0.2057 -0.9396 -0.6087
 1817SOL    HW2 6351   0.611   2.628   3.140  0.6236 -0.5981 -0.8685
 1818SOL     OW 6352   1.597   1.114   0.178 -0.3524 -0.4304  0.4411
 1818SOL    HW1 6353   1.576   1.023   0.143 -0.7725  0.9638 -3.4581
 1818SOL    HW2 6354   1.518   1.150   0.227 -1.5517 -0.8537 -1.0994
 1819SOL     OW 6355   0.239   3.973   6.245 -0.2288 -0.3458  0.2912
 1819SOL    HW1 6356   0.270   3.957   6.339 -0.6692 -1.3248  0.2781
 1819SOL    HW2 6357   0.160   4.034   6.246  0.4938  0.6241  0.4560
 1820SOL     OW 6358   3.103   1.356   3.620  0.2087 -0.2209 -0.3198
 1820SOL    HW1 6359   3.114   1.450   3.586  0.8568 -0.4484 -0.7652
 1820SOL    HW2 6360   3.076   1.297   3.544  0.3449 -0.4910 -0.1572
 1821SOL     OW 6361   4.651   1.143   2.772 -0.1929  0.4875  0.4333
 1821SOL    HW1 6362   4.668   1.059   2.824 -2.0074 -0.7592 -0.8341
 1821SOL    HW2 6363   4.702   1.140   2.686 -0.4571  0.5481  0.2731
 1822SOL     OW 6364   1.819   1.747   5.354 -0.2115  0.5587  0.5475
 1822SOL    HW1 6365   1.773   1.749   5.265 -1.0637 -1.3983  0.8882
 1822SOL    HW2 6366   1.908   1.791   5.346 -0.8436  1.6749 -0.9135
 1823SOL     OW 6367   4.550   4.511   4.859  0.1146  0.0878 -0.0617
 1823SOL    HW1 6368   4.474   4.539   4.917  0.4300  0.6444  0.0906
 1823SOL    HW2 6369   4.622   4.580   4.862  1.6987 -1.5374  1.7391
 1824SOL     OW 6370   5.111   3.183   2.266 -0.4539 -0.0600 -0.0840
 1824SOL    HW1 6371   5.077   3.137   2.184  1.8925 -1.6441 -0.2598
 1824SOL    HW2 6372   5.181   3.249   2.241  1.8826 -2.0905  0.6588
 1825SOL     OW 6373   0.922   5.680   0.244  0.6092  0.4100  0.0948
 1825SOL    HW1 6374   0.997   5.698   0.181 -0.3601 -1.0242 -1.5375
 1825SOL    HW2 6375   0.842   5.733   0.216 -0.1346 -1.0027 -0.5386
 1826SOL     OW 6376   2.090   4.136   0.776  0.0974 -0.0311  0.1150
 1826SOL    HW1 6377   2.083   4.114   0.873 -0.9139 -1.0102 -0.1577
 1826SOL    HW2 6378   2.082   4.053   0.721 -0.1456  0.5911 -0.8364
 1827SOL     OW 6379   4.775   4.198   1.062  0.6170 -0.2519  0.3939
 1827SOL    HW1 6380   4.724   4.187   1.147 -0.1454  1.7087  0.2311
 1827SOL    HW2 6381   4.740   4.133   0.994  1.5021 -2.1183  1.6254
 1828SOL     OW 6382   1.509   4.288   4.898  0.3957  0.8440 -0.1309
 1828SOL    HW1 6383   1.564   4.339   4.831 -0.8609  0.9673 -1.1099
 1828SOL    HW2 6384   1.570   4.240   4.962  1.6275  2.4477 -0.0277
 1829SOL     OW 6385   4.101   6.074   1.037 -0.1038 -0.0719 -0.2690
 1829SOL    HW1 6386   4.161   6.003   1.074  0.2159  0.8571  1.0330
 1829SOL    HW2 6387   4.006   6.048   1.053  0.0237  0.4699  1.6034
 1830SOL     OW 6388   4.203   1.166   5.542  0.5990 -0.6425  0.1027
 1830SOL    HW1 6389   4.290   1.189   5.498  0.0553  3.4093  0.7235
 1830SOL    HW2 6390   4.215   1.166   5.642  0.1041 -1.0523  0.1663
 1831SOL     OW 6391   4.265   4.866   1.602 -0.3801  0.8380  0.0116
 1831SOL    HW1 6392   4.281   4.869   1.503  0.8777  2.2533  0.2326
 1831SOL    HW2 6393   4.207   4.787   1.623  0.7286 -0.5157 -1.6481
 1832SOL     OW 6394   1.769   2.149   0.173  0.1077  0.5239  0.2589
 1832SOL    HW1 6395   1.869   2.156   0.173  0.4021 -2.3329 -0.8933
 1832SOL    HW2 6396   1.735   2.159   0.079 -0.2750 -1.7702  0.0804
 1833SOL     OW 6397   4.419   2.900   6.868  0.6800  0.2639  0.1930
 1833SOL    HW1 6398   4.469   2.814   6.857  0.6179  0.3050 -0.4554
 1833SOL    HW2 6399   4.382   2.928   6.779 -0.1032  0.4660  0.5710
 1834SOL     OW 6400   2.233   4.180   6.146 -0.0901  0.6010 -0.5036
 1834SOL    HW1 6401   2.206   4.117   6.219 -0.9151  0.9207 -0.5225
 1834SOL    HW2 6402   2.230   4.274   6.180 -0.5866  0.7620 -0.9743
 1835SOL     OW 6403   6.606   6.246   1.488  0.3741  0.1802 -0.5253
 1835SOL    HW1 6404   6.536   6.174   1.479  0.2609  0.1258  0.6285
 1835SOL    HW2 6405   6.582   6.306   1.565  0.4737  1.4652 -1.4653
 1836SOL     OW 6406   6.948   3.495   5.286 -0.3082 -0.4553 -0.0647
 1836SOL    HW1 6407   7.025   3.456   5.236 -2.3631 -2.6529 -1.7926
 1836SOL    HW2 6408   6.881   3.531   5.220 -1.4613 -0.0154  1.2996
 1837SOL     OW 6409   1.979   2.564   6.232  0.1712  0.3632  0.5322
 1837SOL    HW1 6410   1.977   2.664   6.236  0.9884  0.3619  1.5888
 1837SOL    HW2 6411   2.073   2.533   6.218 -0.1948 -0.2534 -0.6958
 1838SOL     OW 6412   5.509   1.701   1.565  0.1429 -0.2670 -0.2917
 1838SOL    HW1 6413   5.544   1.608   1.554  1.4941  0.0063  1.4080
 1838SOL    HW2 6414   5.515   1.728   1.661  0.1714  1.7307 -0.8200
 1839SOL     OW 6415   0.018   3.026   5.645  0.7777  0.0208 -0.4231
 1839SOL    HW1 6416  -0.065   3.043   5.591  0.4186 -1.1538 -0.2789
 1839SOL    HW2 6417   0.046   3.110   5.690  0.0543  0.6022 -1.0231
 1840SOL     OW 6418   3.375   6.207   3.817  0.0535  0.0271  0.1234
 1840SOL    HW1 6419   3.394   6.285   3.756 -0.0531  0.3159  0.4535
 1840SOL    HW2 6420   3.276   6.189   3.817 -0.0470  0.5393  0.8171
 1841SOL     OW 6421   1.994   6.120   1.914 -0.3863 -0.3797  0.1754
 1841SOL    HW1 6422   1.974   6.217   1.930  0.0900 -0.4064  0.9899
 1841SOL    HW2 6423   2.014   6.106   1.817  0.4203  0.5061  0.1928
 1842SOL     OW 6424   6.061   3.275   2.177  0.1024  0.0041  0.5045
 1842SOL    HW1 6425   6.159   3.263   2.159  0.5184  0.2207  2.4283
 1842SOL    HW2 6426   6.009   3.251   2.095  1.7506 -0.1850 -0.5360
 1843SOL     OW 6427   2.288   6.701   6.208  0.1156  0.2899  0.1594
 1843SOL    HW1 6428   2.199   6.677   6.247  0.1418 -0.7497 -0.3855
 1843SOL    HW2 6429   2.297   6.801   6.206 -0.1264  0.3890  2.1932
 1844SOL     OW 6430   4.028   4.276   0.129 -0.4618  0.8599  0.7006
 1844SOL    HW1 6431   4.015   4.294   0.227  0.3211 -1.2351  1.2469
 1844SOL    HW2 6432   4.082   4.350   0.089  0.4783  1.0488  2.2162
 1845SOL     OW 6433   1.641   2.748   3.499  0.7883  0.5466 -0.0443
 1845SOL    HW1 6434   1.661   2.652   3.517  0.1705  0.4752  0.2951
 1845SOL    HW2 6435   1.546   2.768   3.523  0.2793  0.7551 -2.0793
 1846SOL     OW 6436   1.528   1.754   3.373 -0.2967 -0.4397  0.6096
 1846SOL    HW1 6437   1.475   1.835   3.349 -0.2077 -0.3006  0.8692
 1846SOL    HW2 6438   1.553   1.704   3.290 -0.1324 -0.0607  0.4268
 1847SOL     OW 6439   3.685   5.959   0.763 -0.1767  0.3888 -0.3594
 1847SOL    HW1 6440   3.715   6.044   0.720  0.3446  0.6038  0.4260
 1847SOL    HW2 6441   3.586   5.947   0.749 -0.1765  0.9072 -0.8241
 1848SOL     OW 6442   4.483   4.701   4.189  0.2186  0.0172 -0.1559
 1848SOL    HW1 6443   4.389   4.727   4.213  0.1417  0.7196 -1.1533
 1848SOL    HW2 6444   4.492   4.602   4.191 -0.6322 -0.0688 -0.3606
 1849SOL     OW 6445   5.253   3.599   2.799  0.3897  0.1942  0.2986
 1849SOL    HW1 6446   5.188   3.536   2.842  1.0210 -0.1883  0.7058
 1849SOL    HW2 6447   5.305   3.647   2.869 -0.3081  1.4249 -0.0056
 1850SOL     OW 6448   3.652   1.875   1.311  0.2870 -0.0572  0.5518
 1850SOL    HW1 6449   3.700   1.891   1.397  1.8842  0.4735 -0.4038
 1850SOL    HW2 6450   3.624   1.963   1.272 -0.4239 -0.2969  0.5014
 1851SOL     OW 6451   5.906   6.334   5.978  0.2059  0.3583 -0.2301
 1851SOL    HW1 6452   5.837   6.354   6.048  0.2180 -1.7280  0.4418
 1851SOL    HW2 6453   5.979   6.279   6.018  1.7131  1.5440 -1.2261
 1852SOL     OW 6454   1.857   0.377   3.716  0.3934  0.3002 -0.1242
 1852SOL    HW1 6455   1.946   0.392   3.759  0.0697  0.8025  0.3777
 1852SOL    HW2 6456   1.792   0.445   3.749  0.1244  0.6720 -1.3862
 1853SOL     OW 6457   0.076   0.842   5.312 -0.8889 -0.4130 -0.4677
 1853SOL    HW1 6458   0.071   0.939   5.289  1.1512 -0.0060  0.5705
 1853SOL    HW2 6459   0.047   0.788   5.233 -1.8073  1.0118 -1.1506
 1854SOL     OW 6460   6.914   6.836   3.736  0.1372 -1.0024 -0.4770
 1854SOL    HW1 6461   6.962   6.891   3.667  0.9280 -2.7315 -1.3720
 1854SOL    HW2 6462   6.833   6.886   3.768  1.0194  0.8165 -0.9526
 1855SOL     OW 6463   6.004   2.281   6.366 -0.5638 -0.1488 -0.1318
 1855SOL    HW1 6464   6.097   2.257   6.395 -0.1517  0.8074 -0.6080
 1855SOL    HW2 6465   5.998   2.274   6.266 -1.6200 -2.2293  0.0295
 1856SOL     OW 6466   6.369   4.546   6.059 -0.1504 -0.2927 -0.6675
 1856SOL    HW1 6467   6.378   4.447   6.074 -2.2261 -0.6106 -1.1631
 1856SOL    HW2 6468   6.283   4.564   6.011  1.1309  1.5944 -2.4160
 1857SOL     OW 6469   4.314   1.112   3.935  0.3077 -0.1594 -0.2241
 1857SOL    HW1 6470   4.330   1.016   3.961  1.5267  0.4043  1.2350
 1857SOL    HW2 6471   4.218   1.134   3.945  0.3304 -0.7000  1.3813
 1858SOL     OW 6472   4.028   1.031   4.881 -0.1207  0.1864  0.2163
 1858SOL    HW1 6473   4.051   0.943   4.841 -0.3479  0.1475  0.1685
 1858SOL    HW2 6474   4.060   1.104   4.821  0.1376  0.1365  0.2948
 1859SOL     OW 6475   1.547   6.624   1.920  0.2557  0.6929 -0.2895
 1859SOL    HW1 6476   1.481   6.556   1.888 -1.9537  1.3149  2.4806
 1859SOL    HW2 6477   1.500   6.710   1.938  1.5964  0.9647  2.5155
 1860SOL     OW 6478   4.415   6.480   5.543 -0.1734 -0.2049 -0.1505
 1860SOL    HW1 6479   4.362   6.564   5.535  0.1887 -0.0192 -0.5594
 1860SOL    HW2 6480   4.512   6.499   5.529 -0.1038 -0.7144 -0.3988
 1861SOL     OW 6481   0.340   6.836   4.967 -0.0960  0.2870  0.0162
 1861SOL    HW1 6482   0.415   6.808   5.029 -0.3119 -0.2160  0.0561
 1861SOL    HW2 6483   0.296   6.755   4.930 -0.6330  0.5837 -0.0015
 1862SOL     OW 6484   3.350   6.026   5.274  0.3431 -0.7155  0.0170
 1862SOL    HW1 6485   3.370   6.047   5.370 -3.6278  0.3725  0.7699
 1862SOL    HW2 6486   3.333   5.929   5.263 -0.7371 -0.6224  0.7856
 1863SOL     OW 6487   6.327   0.056   1.479  0.3782 -0.4596 -0.1103
 1863SOL    HW1 6488   6.420   0.073   1.513  1.8159 -3.2075 -2.2529
 1863SOL    HW2 6489   6.279  -0.006   1.540  0.1913  0.3665  0.6030
 1864SOL     OW 6490   2.103   6.125   2.715  0.5922  0.3187  0.0364
 1864SOL    HW1 6491   2.074   6.187   2.788  3.3468  1.1996  0.5296
 1864SOL    HW2 6492   2.090   6.169   2.626 -1.0169  0.0065  0.0936
 1865SOL     OW 6493   0.152   1.937   1.437 -0.1891 -0.0351 -0.4890
 1865SOL    HW1 6494   0.057   1.912   1.417 -0.0746  0.0225 -1.1071
 1865SOL    HW2 6495   0.210   1.856   1.427 -0.2288 -0.1664  0.2932
 1866SOL     OW 6496   6.678   5.560   4.062 -0.0254 -0.5275 -0.2027
 1866SOL    HW1 6497   6.728   5.478   4.035 -1.4298 -2.0978  1.6828
 1866SOL    HW2 6498   6.743   5.631   4.089  1.2667 -2.2050  1.3855
 1867SOL     OW 6499   1.284   3.691   2.232 -0.0438 -0.2058  0.0956
 1867SOL    HW1 6500   1.206   3.633   2.255 -0.1113  0.5263  1.8795
 1867SOL    HW2 6501   1.357   3.634   2.195 -1.4123 -0.8874 -1.7135
 1868SOL     OW 6502   3.980   1.883   4.830 -0.3118  0.3312 -0.0672
 1868SOL    HW1 6503   3.913   1.944   4.789 -0.2778  1.1962  1.1137
 1868SOL    HW2 6504   3.984   1.797   4.778 -1.4770  0.7228 -0.8294
 1869SOL     OW 6505   4.857   5.295   5.118 -0.1760  0.1059  0.1428
 1869SOL    HW1 6506   4.772   5.244   5.103  0.2903 -0.6477 -0.0315
 1869SOL    HW2 6507   4.857   5.377   5.061 -1.5050  1.0110  1.3996
 1870SOL     OW 6508   6.696   1.900   0.611 -0.9508 -0.0610 -0.0566
 1870SOL    HW1 6509   6.640   1.983   0.618 -0.1620  0.8165 -2.9920
 1870SOL    HW2 6510   6.686   1.861   0.520  1.8577 -0.8824 -0.0984
 1871SOL     OW 6511   0.365   5.571   6.378  0.7530  0.2609 -0.1172
 1871SOL    HW1 6512   0.298   5.578   6.453  0.9212  1.4614 -0.0618
 1871SOL    HW2 6513   0.371   5.658   6.330 -0.2831 -0.8400 -2.3791
 1872SOL     OW 6514   3.201   2.707   0.673  0.4928  0.0058 -0.0038
 1872SOL    HW1 6515   3.248   2.792   0.697  0.2718 -0.0234  0.5381
 1872SOL    HW2 6516   3.105   2.712   0.700  0.5862 -0.5957  0.4608
 1873SOL     OW 6517   6.060   1.425   2.969  0.6017  0.2292 -0.2107
 1873SOL    HW1 6518   6.086   1.332   2.993  1.9878  0.6097 -0.1377
 1873SOL    HW2 6519   5.967   1.425   2.932  0.7148 -1.2318 -0.5727
 1874SOL     OW 6520   2.330   4.849   0.772  0.0651 -0.0109  0.0293
 1874SOL    HW1 6521   2.349   4.812   0.863 -0.8439  0.3487  0.3750
 1874SOL    HW2 6522   2.353   4.780   0.702  0.5192 -0.3824  0.5381
 1875SOL     OW 6523   0.672   0.256   3.056 -0.4031  0.4137 -0.0506
 1875SOL    HW1 6524   0.617   0.206   3.122 -1.3583  0.6331 -0.6656
 1875SOL    HW2 6525   0.763   0.214   3.050 -0.5377 -0.0350  0.8726
 1876SOL     OW 6526   1.659   5.312   0.883 -0.0245  0.5439  0.0083
 1876SOL    HW1 6527   1.757   5.296   0.899  0.0759  0.3850 -0.7208
 1876SOL    HW2 6528   1.648   5.398   0.832 -0.2696  0.5609  0.0899
 1877SOL     OW 6529   1.976   1.450   3.887 -0.5398 -0.1959  0.3248
 1877SOL    HW1 6530   1.927   1.536   3.896 -0.0216  0.0801  0.5520
 1877SOL    HW2 6531   1.913   1.374   3.902 -1.3196  0.0895 -1.1965
 1878SOL     OW 6532   5.992   5.827   5.010  0.3017 -0.4531  0.0141
 1878SOL    HW1 6533   6.034   5.796   4.925 -2.8626  1.0086 -2.2771
 1878SOL    HW2 6534   6.035   5.912   5.040  1.2096 -0.7921 -0.2940
 1879SOL     OW 6535   3.316   5.183   5.597  0.0711 -0.5836 -0.3386
 1879SOL    HW1 6536   3.372   5.266   5.589 -0.7731 -0.1448 -2.3595
 1879SOL    HW2 6537   3.370   5.104   5.569  0.6554 -0.6480  0.8949
 1880SOL     OW 6538   0.553   3.087   4.400 -0.7193  0.4732 -0.2156
 1880SOL    HW1 6539   0.590   3.177   4.375  0.4922  0.0674  0.0191
 1880SOL    HW2 6540   0.459   3.097   4.431 -0.7158  1.6129 -0.5027
 1881SOL     OW 6541   2.201   1.661   2.865 -0.1317 -0.1544 -0.1972
 1881SOL    HW1 6542   2.109   1.621   2.862 -0.4876  0.7061 -1.0041
 1881SOL    HW2 6543   2.203   1.747   2.815  1.0791 -0.0573 -0.0325
 1882SOL     OW 6544   1.825   4.980   0.877 -0.2541 -0.3690 -0.4886
 1882SOL    HW1 6545   1.851   5.076   0.885  2.1204 -1.0443  0.5548
 1882SOL    HW2 6546   1.725   4.973   0.875 -0.5740  1.9384  1.9381
 1883SOL     OW 6547   0.918   3.739   2.127  0.4468 -0.0940 -0.2852
 1883SOL    HW1 6548   0.970   3.662   2.165 -0.3652  0.7162  2.7844
 1883SOL    HW2 6549   0.821   3.715   2.124  0.4331  0.0581 -1.4938
 1884SOL     OW 6550   3.926   6.599   1.590  0.1346 -0.1715 -0.6441
 1884SOL    HW1 6551   3.970   6.547   1.664 -1.0537  0.3206  0.4495
 1884SOL    HW2 6552   3.839   6.636   1.623 -0.3266  0.2437 -2.2450
 1885SOL     OW 6553   1.044   1.102   2.637 -0.1403 -0.3476 -0.3627
 1885SOL    HW1 6554   1.119   1.113   2.572  1.5886 -1.3148  1.3608
 1885SOL    HW2 6555   1.002   1.012   2.624 -0.5660 -0.0839 -0.8645
 1886SOL     OW 6556   3.307   4.042   3.594 -0.9542 -0.2031 -0.1609
 1886SOL    HW1 6557   3.217   4.039   3.549 -1.4520  0.5383  0.7492
 1886SOL    HW2 6558   3.341   3.948   3.605 -1.4811 -0.4770 -0.7601
 1887SOL     OW 6559   5.783   5.815   4.663 -0.2156 -0.2750  0.1528
 1887SOL    HW1 6560   5.814   5.897   4.710 -0.7938  0.5878 -0.9046
 1887SOL    HW2 6561   5.859   5.751   4.653  0.0908 -0.1551  1.5488
 1888SOL     OW 6562   0.908   1.000   5.765  0.2328  0.2315 -0.6618
 1888SOL    HW1 6563   0.861   0.920   5.803  1.0508 -0.8085 -1.7592
 1888SOL    HW2 6564   0.840   1.069   5.740 -0.4984 -0.1264  0.2703
 1889SOL     OW 6565   3.236   2.076   0.174  0.7819 -0.4820  0.6230
 1889SOL    HW1 6566   3.231   2.037   0.082  0.0926 -0.2691  0.5615
 1889SOL    HW2 6567   3.303   2.151   0.175 -0.1177  0.3627 -0.0363
 1890SOL     OW 6568   5.325   6.037   6.287 -0.0173 -0.1638  0.4936
 1890SOL    HW1 6569   5.394   6.046   6.215 -1.0463  0.7276 -0.4339
 1890SOL    HW2 6570   5.308   5.941   6.306  0.0609 -0.4281 -0.7008
 1891SOL     OW 6571   3.170   2.790   6.940  0.0989 -0.6952 -0.2415
 1891SOL    HW1 6572   3.113   2.708   6.946 -1.7657  0.3826 -1.8435
 1891SOL    HW2 6573   3.112   2.870   6.930  1.8943  0.7551  0.3651
 1892SOL     OW 6574   6.498   0.292   4.402  0.1687 -0.3225 -0.1637
 1892SOL    HW1 6575   6.471   0.388   4.395  0.6226  0.1849  3.2957
 1892SOL    HW2 6576   6.416   0.235   4.403 -0.2560  0.2753  0.1368
 1893SOL     OW 6577   2.806   0.076   5.139 -0.6157 -0.3509  0.5322
 1893SOL    HW1 6578   2.738   0.111   5.204 -1.8426 -0.2401 -0.7547
 1893SOL    HW2 6579   2.813   0.138   5.061 -1.3366 -1.9067 -0.8295
 1894SOL     OW 6580   5.513   4.319   0.907  0.1458 -0.1169  0.5843
 1894SOL    HW1 6581   5.506   4.298   1.004 -1.3220 -0.1603  0.4886
 1894SOL    HW2 6582   5.499   4.236   0.854  1.0648 -0.1160  0.3251
 1895SOL     OW 6583   3.902   5.062   1.378  0.1989 -0.2418 -0.0851
 1895SOL    HW1 6584   3.853   5.145   1.402  1.3523  0.1307  1.1229
 1895SOL    HW2 6585   3.898   4.998   1.455 -0.2662 -1.1210 -0.8204
 1896SOL     OW 6586   5.191   0.356   5.448  0.0559 -0.1397 -0.0046
 1896SOL    HW1 6587   5.222   0.397   5.534  1.7141 -0.3821 -0.4457
 1896SOL    HW2 6588   5.104   0.309   5.463 -0.2989  0.8455  1.2412
 1897SOL     OW 6589   3.996   4.788   2.609 -0.3123 -0.4682 -0.3200
 1897SOL    HW1 6590   4.088   4.765   2.577  0.3056  0.9898  0.3203
 1897SOL    HW2 6591   3.940   4.819   2.533  0.9466  2.3747 -0.1876
 1898SOL     OW 6592   5.259   6.918   0.909 -0.1433  0.1407  0.9498
 1898SOL    HW1 6593   5.189   6.988   0.895 -1.1274 -0.6748  1.6354
 1898SOL    HW2 6594   5.226   6.831   0.871  0.9340 -0.0289  0.3826
 1899SOL     OW 6595   1.006   1.205   2.894 -0.4810  0.0661 -0.6749
 1899SOL    HW1 6596   1.025   1.177   2.800 -0.9425 -0.5810 -0.5777
 1899SOL    HW2 6597   0.973   1.127   2.947  0.1335  0.3341  0.1314
 1900SOL     OW 6598   1.539   5.655   1.042 -0.0091  0.0316  0.7106
 1900SOL    HW1 6599   1.588   5.742   1.036 -3.0549  1.8463  0.0699
 1900SOL    HW2 6600   1.545   5.608   0.954  1.4394 -0.3649  0.9841
 1901SOL     OW 6601   1.141   1.748   4.493  0.2074  0.4956 -0.1197
 1901SOL    HW1 6602   1.180   1.687   4.562  0.7493  0.0191 -0.8417
 1901SOL    HW2 6603   1.041   1.739   4.494  0.2772 -0.3093 -0.1375
 1902SOL     OW 6604   1.110   3.809   5.622 -0.3623  0.1090 -0.0213
 1902SOL    HW1 6605   1.112   3.750   5.703 -0.8407  1.6401  1.1500
 1902SOL    HW2 6606   1.147   3.759   5.543  2.7937 -0.5212  1.7151
 1903SOL     OW 6607   1.763   5.278   3.956  0.1354 -0.5761 -0.6146
 1903SOL    HW1 6608   1.733   5.275   3.860 -0.1511  0.7751 -0.5890
 1903SOL    HW2 6609   1.820   5.359   3.971 -0.1053 -0.5826  0.4275
 1904SOL     OW 6610   0.550   6.108   5.504  0.1082  0.0379 -0.5162
 1904SOL    HW1 6611   0.480   6.174   5.479  1.2467  1.3222 -0.4453
 1904SOL    HW2 6612   0.539   6.082   5.600  0.6283  1.4611 -0.0323
 1905SOL     OW 6613   0.616   2.623   3.824  0.1873  0.3942  0.2574
 1905SOL    HW1 6614   0.520   2.598   3.826 -0.4860  2.6053 -0.9351
 1905SOL    HW2 6615   0.672   2.544   3.848 -1.8567 -1.2528 -0.1270
 1906SOL     OW 6616   3.729   0.042   5.357 -0.3001 -0.3388 -0.2109
 1906SOL    HW1 6617   3.638   0.043   5.400 -0.0962  1.4388  0.2696
 1906SOL    HW2 6618   3.798   0.061   5.426  0.2229  0.4901 -0.9384
 1907SOL     OW 6619   5.629   0.459   2.188  0.6578  0.5452 -0.4987
 1907SOL    HW1 6620   5.531   0.441   2.179  0.7132 -1.0894  1.3678
 1907SOL    HW2 6621   5.678   0.416   2.112  0.1509 -1.4627  0.2428
 1908SOL     OW 6622   5.582   0.178   0.818  0.0778 -0.0510  0.4537
 1908SOL    HW1 6623   5.677   0.146   0.825  0.2027  0.1691 -0.1387
 1908SOL    HW2 6624   5.576   0.272   0.853  0.4961  0.6768 -1.3264
 1909SOL     OW 6625   6.548   4.670   3.758 -0.1205 -0.6034 -0.1704
 1909SOL    HW1 6626   6.551   4.756   3.810  1.3181 -1.9984  2.2643
 1909SOL    HW2 6627   6.593   4.683   3.670  3.0334  0.4561  1.4299
 1910SOL     OW 6628   4.818   3.948   4.323  0.5289 -0.9004 -0.3883
 1910SOL    HW1 6629   4.829   3.865   4.379  0.2112 -0.2343  0.6883
 1910SOL    HW2 6630   4.908   3.985   4.300  0.6629 -0.5047  0.7248
 1911SOL     OW 6631   1.421   1.632   5.903  0.3406  0.1351 -0.2545
 1911SOL    HW1 6632   1.448   1.647   5.998  1.0188 -0.6164 -0.3174
 1911SOL    HW2 6633   1.402   1.535   5.889  0.0199  0.2770 -0.8324
 1912SOL     OW 6634   4.510   6.438   2.796  0.0567 -0.2479 -0.7002
 1912SOL    HW1 6635   4.526   6.340   2.789 -0.9806 -0.7222  2.3339
 1912SOL    HW2 6636   4.412   6.457   2.799  0.2249  0.9712 -1.8803
 1913SOL     OW 6637   3.882   3.068   0.671  0.1293  0.2399 -0.2410
 1913SOL    HW1 6638   3.788   3.038   0.685  1.0290 -2.4564  0.5711
 1913SOL    HW2 6639   3.913   3.118   0.752 -0.7551  1.7091 -0.7729
 1914SOL     OW 6640   4.414   3.027   5.303  0.1198  0.1007  0.2016
 1914SOL    HW1 6641   4.373   3.118   5.304 -0.7008 -0.2173 -1.2226
 1914SOL    HW2 6642   4.348   2.960   5.336  0.6623 -0.0189  1.0836
 1915SOL     OW 6643   4.170   5.851   5.566  0.0077 -0.1305 -1.0194
 1915SOL    HW1 6644   4.082   5.820   5.531  0.3990 -0.0931 -2.0700
 1915SOL    HW2 6645   4.235   5.776   5.566  0.3679  0.1747 -1.5826
 1916SOL     OW 6646   4.475   0.064   0.804 -0.2085  0.7938 -0.1293
 1916SOL    HW1 6647   4.528   0.017   0.734 -0.2237  1.7677 -0.8260
 1916SOL    HW2 6648   4.528   0.142   0.839 -0.8655  1.3357 -0.3062
 1917SOL     OW 6649   2.934   3.553   1.903  0.1493  0.2347  0.1996
 1917SOL    HW1 6650   3.020   3.517   1.865  0.7847  0.6943  1.1487
 1917SOL    HW2 6651   2.904   3.631   1.850 -0.5513 -0.8748 -1.1038
 1918SOL     OW 6652   1.470   6.857   4.025 -0.0823 -0.4173 -0.2651
 1918SOL    HW1 6653   1.554   6.817   3.988  0.1658  0.0893 -0.2547
 1918SOL    HW2 6654   1.392   6.830   3.969  0.5300  2.1121 -2.5332
 1919SOL     OW 6655   0.765   6.513   2.144 -0.1904 -0.4326  0.4720
 1919SOL    HW1 6656   0.841   6.569   2.110 -0.4821  1.0495  2.1355
 1919SOL    HW2 6657   0.783   6.417   2.123  0.9744  0.1165 -1.2797
 1920SOL     OW 6658   6.136   6.912   5.877  0.1677 -0.2371 -0.2022
 1920SOL    HW1 6659   6.163   6.954   5.963  0.7351  0.5010 -0.7255
 1920SOL    HW2 6660   6.211   6.855   5.843  0.6157  0.7966 -1.0176
 1921SOL     OW 6661   2.845   5.948   5.097  0.1454 -0.0127 -0.1605
 1921SOL    HW1 6662   2.753   5.977   5.124  0.3043  0.6385 -0.2878
 1921SOL    HW2 6663   2.848   5.849   5.089 -1.1754  0.0666 -2.3467
 1922SOL     OW 6664   3.696   3.451   0.287  0.2854 -0.0363 -0.2888
 1922SOL    HW1 6665   3.710   3.537   0.337  2.3250  0.6997 -1.9684
 1922SOL    HW2 6666   3.705   3.374   0.350 -0.2835  0.9146  1.0157
 1923SOL     OW 6667   1.481   3.180   6.537  0.1611  0.0001  0.3869
 1923SOL    HW1 6668   1.505   3.105   6.476 -0.1217 -0.1835  0.4984
 1923SOL    HW2 6669   1.475   3.146   6.631 -2.5798 -0.4402  0.1290
 1924SOL     OW 6670   6.479   4.557   1.092 -0.2462 -0.2498 -0.2641
 1924SOL    HW1 6671   6.503   4.599   1.004  0.8679 -1.3885 -0.5387
 1924SOL    HW2 6672   6.552   4.494   1.120 -1.2673 -1.0328  0.7463
 1925SOL     OW 6673   3.330   4.090   1.625  0.1444  0.3438 -0.0049
 1925SOL    HW1 6674   3.405   4.093   1.691  0.6804  1.6092 -0.6398
 1925SOL    HW2 6675   3.366   4.064   1.535 -0.7185 -2.2629  0.3309
 1926SOL     OW 6676   0.794   6.473   3.640  0.6505 -0.1546 -0.3138
 1926SOL    HW1 6677   0.758   6.381   3.626  0.4314  0.3211 -3.7151
 1926SOL    HW2 6678   0.719   6.537   3.659  0.8096 -0.5971  2.1217
 1927SOL     OW 6679   5.546   3.871   1.577 -0.1631 -0.1488  0.2242
 1927SOL    HW1 6680   5.469   3.888   1.639 -1.1070 -1.9491 -0.3811
 1927SOL    HW2 6681   5.539   3.930   1.497 -0.1352  0.6542  0.7999
 1928SOL     OW 6682   2.777   5.384   4.083  0.3151  0.2327 -0.2745
 1928SOL    HW1 6683   2.724   5.409   4.164  0.2292  0.4922 -0.4118
 1928SOL    HW2 6684   2.808   5.289   4.092  0.3984  0.2958  0.1116
 1929SOL     OW 6685   0.507   5.928   4.194 -0.0405  0.3199 -0.0711
 1929SOL    HW1 6686   0.547   5.988   4.264  0.1769  0.7911 -0.5928
 1929SOL    HW2 6687   0.421   5.967   4.162 -0.0826  0.1603 -0.1530
 1930SOL     OW 6688   0.691   5.300   0.270 -0.2806  0.0743 -0.0500
 1930SOL    HW1 6689   0.621   5.345   0.326 -0.0878 -0.1228  0.3571
 1930SOL    HW2 6690   0.736   5.230   0.325 -1.5421 -1.6154 -1.0865
 1931SOL     OW 6691   1.478   3.118   3.606  0.2016 -0.4201 -0.5328
 1931SOL    HW1 6692   1.468   3.053   3.681 -1.5373  0.8928  0.4598
 1931SOL    HW2 6693   1.489   3.210   3.643  1.6939 -0.0060 -1.9054
 1932SOL     OW 6694   5.888   3.433   1.924 -0.5682 -0.1226  0.2835
 1932SOL    HW1 6695   5.964   3.480   1.968 -1.1745  0.2706  0.9245
 1932SOL    HW2 6696   5.813   3.421   1.990 -0.6080 -1.5815  0.0194
 1933SOL     OW 6697   3.233   6.277   0.600 -0.3228 -0.2082 -0.4307
 1933SOL    HW1 6698   3.139   6.246   0.618  0.2891 -1.8285  0.0961
 1933SOL    HW2 6699   3.243   6.298   0.503 -1.0824 -0.5738 -0.5969
 1934SOL     OW 6700   1.102   6.448   3.131 -0.6094 -0.2237  0.2185
 1934SOL    HW1 6701   1.080   6.541   3.104 -0.2362  0.3357  1.7332
 1934SOL    HW2 6702   1.097   6.388   3.051 -1.8702  0.8927 -0.5902
 1935SOL     OW 6703   1.164   1.352   2.343  0.2512 -0.1100  0.1466
 1935SOL    HW1 6704   1.216   1.363   2.428  1.3356  1.0867 -0.6377
 1935SOL    HW2 6705   1.118   1.437   2.321  1.1213  0.0469 -1.1789
 1936SOL     OW 6706   0.799   6.010   5.440 -0.2286 -0.2987  0.5061
 1936SOL    HW1 6707   0.796   5.913   5.417 -0.8170 -0.0116 -0.7269
 1936SOL    HW2 6708   0.706   6.047   5.442  0.0468  0.4713 -0.1545
 1937SOL     OW 6709   4.454   1.261   3.712  0.6393  0.1541 -0.1968
 1937SOL    HW1 6710   4.383   1.242   3.781 -0.2966  1.4820 -0.7373
 1937SOL    HW2 6711   4.480   1.176   3.667 -1.2376 -0.2763 -0.5564
 1938SOL     OW 6712   0.005   5.417   3.563 -0.6248 -0.0448 -0.2640
 1938SOL    HW1 6713  -0.012   5.514   3.547  0.6504 -0.0569 -1.9545
 1938SOL    HW2 6714  -0.049   5.363   3.498 -0.1101 -0.3945 -0.4062
 1939SOL     OW 6715   3.045   6.418   5.586  0.2383 -0.1345  0.7296
 1939SOL    HW1 6716   3.109   6.431   5.510  0.4668  2.1357  1.2510
 1939SOL    HW2 6717   3.018   6.321   5.590  0.3311 -0.3658 -2.1198
 1940SOL     OW 6718   4.856   6.833   6.827 -0.7298  0.4515  0.0331
 1940SOL    HW1 6719   4.779   6.799   6.880 -0.6576  1.1807  0.6126
 1940SOL    HW2 6720   4.825   6.857   6.735 -0.6700 -1.7318 -0.6205
 1941SOL     OW 6721   4.463   0.088   0.413 -0.5673 -0.1260 -1.0306
 1941SOL    HW1 6722   4.368   0.074   0.386  0.1560 -1.2238 -3.2429
 1941SOL    HW2 6723   4.511   0.139   0.342  0.2057  1.7586  0.7374
 1942SOL     OW 6724   6.287   4.933   4.512  0.1316  0.1394  0.4809
 1942SOL    HW1 6725   6.337   4.998   4.570  0.4250 -0.6896  1.1728
 1942SOL    HW2 6726   6.326   4.842   4.522 -0.6083 -0.2516 -0.0778
 1943SOL     OW 6727   3.576   0.000   2.026 -0.2015  0.0865 -0.1747
 1943SOL    HW1 6728   3.521   0.025   2.106  0.8160  1.1264  0.2385
 1943SOL    HW2 6729   3.671   0.028   2.041  0.1640 -0.4059 -1.4388
 1944SOL     OW 6730   1.023   0.412   2.633 -0.2299 -0.1179  0.1009
 1944SOL    HW1 6731   1.026   0.441   2.537 -0.8111  0.4207  0.2327
 1944SOL    HW2 6732   0.932   0.431   2.670  0.0131 -0.2495  0.7797
 1945SOL     OW 6733   3.867   5.390   1.392  0.7567 -0.2301 -0.1385
 1945SOL    HW1 6734   3.958   5.429   1.380 -1.0635  5.2850  0.6774
 1945SOL    HW2 6735   3.848   5.379   1.490  0.2358 -0.4443 -0.2607
 1946SOL     OW 6736   1.300   6.453   0.080  0.0310 -0.2186  0.0667
 1946SOL    HW1 6737   1.230   6.385   0.101  1.6153 -1.8224  0.4732
 1946SOL    HW2 6738   1.339   6.434  -0.010  1.2972 -0.6230  0.6714
 1947SOL     OW 6739   6.739   0.859   2.885  0.0420 -0.2418  0.0603
 1947SOL    HW1 6740   6.722   0.761   2.882  0.2513 -0.2608 -0.6650
 1947SOL    HW2 6741   6.837   0.876   2.874 -0.2737  0.1571 -2.8247
 1948SOL     OW 6742   5.242   4.753   0.115  0.0956 -0.3530 -0.5996
 1948SOL    HW1 6743   5.150   4.775   0.147 -0.3818 -1.8878 -0.8246
 1948SOL    HW2 6744   5.253   4.653   0.113  2.2606 -0.2152  0.8685
 1949SOL     OW 6745   3.683   2.888   0.457  0.1795 -0.1323 -0.4098
 1949SOL    HW1 6746   3.677   2.918   0.552 -0.5618 -0.7877 -0.2337
 1949SOL    HW2 6747   3.592   2.893   0.415  0.4500 -0.1144 -1.0014
 1950SOL     OW 6748   3.729   4.800   1.428  0.0947 -0.6204 -0.0967
 1950SOL    HW1 6749   3.726   4.700   1.417  6.1723 -1.4067  1.7988
 1950SOL    HW2 6750   3.701   4.824   1.521  1.4859 -1.0040  0.4380
 1951SOL     OW 6751   3.639   2.293   0.139 -0.0837 -0.2375 -0.4292
 1951SOL    HW1 6752   3.687   2.373   0.175  1.8344 -0.7754 -1.6041
 1951SOL    HW2 6753   3.622   2.228   0.212  0.1523  0.3876  0.1892
 1952SOL     OW 6754   3.183   3.573   3.667 -0.4423 -0.0676  0.4426
 1952SOL    HW1 6755   3.157   3.486   3.625  1.3477  0.0588 -1.0604
 1952SOL    HW2 6756   3.100   3.622   3.695 -1.6123 -1.2463 -0.7661
 1953SOL     OW 6757   1.541   4.030   4.732 -0.7455  0.1928 -0.5404
 1953SOL    HW1 6758   1.535   4.091   4.654 -2.0346  0.2707 -0.4029
 1953SOL    HW2 6759   1.513   4.078   4.815  0.3655  0.0385 -0.0535
 1954SOL     OW 6760   2.892   0.367   4.081  0.5971 -0.5082  0.4100
 1954SOL    HW1 6761   2.798   0.339   4.064  0.6541 -0.1628 -0.5367
 1954SOL    HW2 6762   2.954   0.295   4.049  0.6529 -1.5938  2.7310
 1955SOL     OW 6763   1.410   6.587   4.355 -0.3222  0.3299 -0.2535
 1955SOL    HW1 6764   1.426   6.685   4.371  1.2265  0.0739 -0.1132
 1955SOL    HW2 6765   1.362   6.548   4.434 -1.4582  1.0790 -0.5529
 1956SOL     OW 6766   6.013   5.604   2.382 -0.4550 -0.7002 -0.4660
 1956SOL    HW1 6767   6.039   5.700   2.393 -1.3325 -0.6467  1.7474
 1956SOL    HW2 6768   5.938   5.597   2.317  1.9637 -0.3898 -3.5450
 1957SOL     OW 6769   1.669   6.061   5.264  0.1151  0.0227  0.1396
 1957SOL    HW1 6770   1.693   6.142   5.317 -0.1497  0.8192 -0.9124
 1957SOL    HW2 6771   1.701   5.979   5.311  0.3612  0.7303  1.2402
 1958SOL     OW 6772   2.997   3.386   4.477 -0.5016  1.1259  0.4953
 1958SOL    HW1 6773   2.943   3.315   4.432  0.6387  0.4439  0.1807
 1958SOL    HW2 6774   3.091   3.354   4.491  0.5877  3.2213 -1.3827
 1959SOL     OW 6775   1.777   6.579   1.272 -0.7246 -0.1792 -0.8892
 1959SOL    HW1 6776   1.790   6.656   1.208 -0.7120  0.6796  0.1267
 1959SOL    HW2 6777   1.769   6.614   1.365 -1.9717 -1.3252 -0.5349
 1960SOL     OW 6778   0.524   4.076   4.393 -0.1160  0.5304 -0.1324
 1960SOL    HW1 6779   0.520   3.993   4.337  1.5776 -0.2951  0.8606
 1960SOL    HW2 6780   0.544   4.051   4.488  3.2304  2.1060 -0.2600
 1961SOL     OW 6781   5.441   0.881   6.044  0.0061 -0.0627  0.1690
 1961SOL    HW1 6782   5.405   0.789   6.057  0.2306 -0.0110  1.2076
 1961SOL    HW2 6783   5.539   0.882   6.067  0.1461  0.3145 -0.3996
 1962SOL     OW 6784   1.361   5.370   5.513  0.0429 -0.3088 -0.3933
 1962SOL    HW1 6785   1.280   5.406   5.560 -0.7843 -0.2507 -1.8128
 1962SOL    HW2 6786   1.443   5.411   5.553 -0.4392 -1.7499  2.3340
 1963SOL     OW 6787   2.356   2.199   4.362 -0.2100 -0.1931  0.4304
 1963SOL    HW1 6788   2.320   2.116   4.405 -0.7977  0.4715  1.2703
 1963SOL    HW2 6789   2.377   2.266   4.433  0.3550  0.3433 -0.2297
 1964SOL     OW 6790   3.863   1.461   4.387 -0.2005  0.2216  0.0978
 1964SOL    HW1 6791   3.835   1.490   4.478 -0.2895  0.7647 -0.1014
 1964SOL    HW2 6792   3.852   1.537   4.322 -0.9173 -0.3971 -0.5301
 1965SOL     OW 6793   1.225   6.396   2.694  0.3561 -0.3325  0.0007
 1965SOL    HW1 6794   1.173   6.325   2.741  0.7700 -1.4589 -1.2047
 1965SOL    HW2 6795   1.164   6.449   2.635  0.1723 -0.1265  0.3730
 1966SOL     OW 6796   0.089   6.608   0.599 -0.2073  0.2563 -0.5505
 1966SOL    HW1 6797   0.010   6.635   0.545 -1.3245 -0.6527  0.5592
 1966SOL    HW2 6798   0.098   6.669   0.678  0.4251  0.5693 -0.8553
 1967SOL     OW 6799   6.172   5.493   4.826 -0.0852  0.1372  0.5348
 1967SOL    HW1 6800   6.172   5.592   4.837  0.5587  0.0888  1.1210
 1967SOL    HW2 6801   6.266   5.459   4.836 -0.1510 -0.4359 -0.6499
 1968SOL     OW 6802   3.584   6.337   3.927  1.1903  0.0450  0.0412
 1968SOL    HW1 6803   3.536   6.255   3.897 -2.4464  2.4895 -1.6760
 1968SOL    HW2 6804   3.637   6.374   3.851  0.1984  0.8742 -0.2850
 1969SOL     OW 6805   5.441   3.300   0.540  0.2603  0.0776  0.6125
 1969SOL    HW1 6806   5.518   3.362   0.557  1.1754 -1.3592  1.8654
 1969SOL    HW2 6807   5.450   3.219   0.596 -0.8014 -1.3310 -1.1420
 1970SOL     OW 6808   2.148   2.625   6.531 -0.1023  0.2455 -0.7801
 1970SOL    HW1 6809   2.222   2.570   6.568 -0.2342  0.7847  0.3199
 1970SOL    HW2 6810   2.062   2.574   6.536 -0.3531  0.7709  0.8965
 1971SOL     OW 6811   5.030   1.644   5.879 -0.6849  0.6679 -0.2879
 1971SOL    HW1 6812   5.113   1.687   5.912 -1.0760  1.1832  0.0219
 1971SOL    HW2 6813   5.000   1.688   5.794  0.0423 -0.3292 -1.0901
 1972SOL     OW 6814   1.917   1.485   5.227 -1.1408 -0.2785 -0.0745
 1972SOL    HW1 6815   1.921   1.508   5.325 -2.7536 -0.1124 -0.0175
 1972SOL    HW2 6816   1.821   1.485   5.197 -0.6301  0.2821 -1.8112
 1973SOL     OW 6817   2.409   2.409   4.553  0.4415  0.0679 -0.2111
 1973SOL    HW1 6818   2.487   2.415   4.489 -0.0170  0.3244 -0.7537
 1973SOL    HW2 6819   2.430   2.461   4.635  1.2365 -0.6522  0.0628
 1974SOL     OW 6820   6.941   0.040   4.384 -0.4297  0.2952  0.0299
 1974SOL    HW1 6821   6.873   0.107   4.355 -0.5137 -0.6136 -2.0559
 1974SOL    HW2 6822   7.031   0.067   4.350 -0.3792 -0.3581 -0.3697
 1975SOL     OW 6823   1.876   1.671   3.663  0.2690 -0.5347  0.4485
 1975SOL    HW1 6824   1.793   1.725   3.676  0.1888 -0.8084  1.0948
 1975SOL    HW2 6825   1.853   1.574   3.659  0.3412 -0.5085 -1.3411
 1976SOL     OW 6826   6.051   4.420   6.216  0.1976 -0.1076  0.1880
 1976SOL    HW1 6827   5.957   4.453   6.225 -0.4649 -0.6705 -3.2044
 1976SOL    HW2 6828   6.051   4.320   6.218  0.7876 -0.1020  0.5320
 1977SOL     OW 6829   4.041   1.691   4.618  0.1522  0.3374 -0.1798
 1977SOL    HW1 6830   4.092   1.625   4.674 -1.3999  0.0872  1.0123
 1977SOL    HW2 6831   4.084   1.698   4.528  1.1849 -1.2412  0.1366
 1978SOL     OW 6832   5.510   3.260   4.918  0.4046  0.1196 -0.0486
 1978SOL    HW1 6833   5.503   3.359   4.934  2.6111  0.0256  2.0306
 1978SOL    HW2 6834   5.447   3.234   4.845 -1.4751  2.7705  0.4700
 1979SOL     OW 6835   6.236   5.824   2.100 -0.1938 -0.3420 -0.7705
 1979SOL    HW1 6836   6.220   5.780   2.189 -1.0268 -2.6210 -1.9907
 1979SOL    HW2 6837   6.332   5.816   2.075  0.1621  0.7978  0.1275
 1980SOL     OW 6838   2.177   6.924   3.563 -1.0010 -0.4770  0.0165
 1980SOL    HW1 6839   2.121   6.842   3.573 -1.3512 -0.0951  1.4867
 1980SOL    HW2 6840   2.147   6.994   3.628 -0.4452  0.6812 -0.9148
 1981SOL     OW 6841   0.318   3.842   1.408 -0.0440  0.2872  0.5105
 1981SOL    HW1 6842   0.317   3.889   1.496 -1.4084  4.0932 -1.3426
 1981SOL    HW2 6843   0.411   3.811   1.388  0.6209  0.8071  2.5212
 1982SOL     OW 6844   0.377   0.080   6.323 -0.0631  0.3212  0.6306
 1982SOL    HW1 6845   0.287   0.070   6.280  0.7600 -0.1891 -1.0607
 1982SOL    HW2 6846   0.438   0.130   6.262  0.8550  0.5354  1.6950
 1983SOL     OW 6847   6.587   4.061   3.154  0.7978 -0.3113 -0.2915
 1983SOL    HW1 6848   6.629   3.986   3.103  0.7894  0.7732 -2.0049
 1983SOL    HW2 6849   6.492   4.073   3.125  0.8249  0.4025 -0.1166
 1984SOL     OW 6850   5.267   0.998   0.177 -0.5129 -0.1388  0.6985
 1984SOL    HW1 6851   5.264   1.080   0.234 -0.6131 -0.0189  0.5219
 1984SOL    HW2 6852   5.362   0.979   0.151 -0.5936  0.4798 -0.0612
 1985SOL     OW 6853   0.734   5.854   2.353 -0.3156 -0.3545 -0.3379
 1985SOL    HW1 6854   0.832   5.838   2.366 -0.4437 -0.2411  0.8167
 1985SOL    HW2 6855   0.719   5.949   2.325 -0.0403 -0.6042 -1.3917
 1986SOL     OW 6856   5.284   3.951   6.036  0.4637 -0.0656  0.1611
 1986SOL    HW1 6857   5.287   3.859   6.074 -0.1337 -0.0870  0.1674
 1986SOL    HW2 6858   5.370   3.970   5.988  0.6168 -0.5980  0.2162
 1987SOL     OW 6859   2.970   4.094   6.405 -0.2423 -0.0656  0.0099
 1987SOL    HW1 6860   3.042   4.061   6.344  0.4291  0.7735  0.3330
 1987SOL    HW2 6861   2.915   4.162   6.358 -3.4637 -3.4753 -1.7016
 1988SOL     OW 6862   6.140   2.332   6.810  0.3464  1.0838  0.0400
 1988SOL    HW1 6863   6.228   2.356   6.767  0.1199  0.2253 -0.9340
 1988SOL    HW2 6864   6.066   2.371   6.756  0.0890  0.9174  0.2760
 1989SOL     OW 6865   0.408   3.011   0.630  0.1000 -0.3079  0.4952
 1989SOL    HW1 6866   0.394   3.110   0.620  1.5402 -0.0267  1.0609
 1989SOL    HW2 6867   0.485   2.983   0.573  1.1630 -0.6828  2.0581
 1990SOL     OW 6868   1.590   5.633   2.999 -0.3774 -0.2706 -0.2254
 1990SOL    HW1 6869   1.616   5.725   3.030  0.2832 -0.0216 -1.4311
 1990SOL    HW2 6870   1.582   5.572   3.078  0.8499  0.4218  0.4670
 1991SOL     OW 6871   6.097   0.431   2.498  0.0148 -0.3941  0.2359
 1991SOL    HW1 6872   6.166   0.400   2.564 -0.0608 -0.6197  0.2069
 1991SOL    HW2 6873   6.042   0.354   2.467 -0.6472 -0.1261  0.7172
 1992SOL     OW 6874   2.736   5.642   4.785  0.0254 -0.2709  0.6258
 1992SOL    HW1 6875   2.716   5.669   4.690  0.7185  0.2881  0.6265
 1992SOL    HW2 6876   2.699   5.551   4.802 -0.3309 -0.2747 -0.1084
 1993SOL     OW 6877   3.028   3.964   4.229 -0.2033  0.0034 -0.7062
 1993SOL    HW1 6878   2.986   3.883   4.270 -0.3579  0.5096  0.1497
 1993SOL    HW2 6879   3.075   4.017   4.299 -2.0091  1.8485 -0.7735
 1994SOL     OW 6880   6.615   2.240   2.298  0.2010 -0.4145  0.5442
 1994SOL    HW1 6881   6.659   2.202   2.217  1.7032  1.0750  0.6159
 1994SOL    HW2 6882   6.516   2.225   2.292  0.0380  1.0793 -2.3915
 1995SOL     OW 6883   3.611   3.165   1.753 -0.3495  0.1571 -0.7364
 1995SOL    HW1 6884   3.524   3.154   1.705 -0.2158 -0.1746 -0.8992
 1995SOL    HW2 6885   3.612   3.108   1.835 -0.3716  0.3302 -0.6136
 1996SOL     OW 6886   3.977   3.182   4.009 -0.0418 -0.4081  0.0129
 1996SOL    HW1 6887   3.902   3.189   3.943  0.4540 -0.1498 -0.5288
 1996SOL    HW2 6888   4.051   3.243   3.982 -1.1005  2.1864  2.5357
 1997SOL     OW 6889   6.231   6.213   3.648 -0.3102  0.8383  0.3272
 1997SOL    HW1 6890   6.243   6.114   3.647  0.6448  0.9047  1.7442
 1997SOL    HW2 6891   6.138   6.235   3.675 -0.1494  0.3075  1.3870
 1998SOL     OW 6892   2.995   3.926   5.202 -0.2949  0.3795 -0.4762
 1998SOL    HW1 6893   3.040   3.868   5.135 -2.8821 -0.4958 -1.5734
 1998SOL    HW2 6894   3.000   3.883   5.293 -1.2291 -1.0579 -1.0782
 1999SOL     OW 6895   2.219   2.966   1.430  0.3065  0.7463  0.2612
 1999SOL    HW1 6896   2.301   3.012   1.397 -0.6817  2.6298  0.2447
 1999SOL    HW2 6897   2.138   3.014   1.395 -0.7838 -0.3906  1.1501
 2000SOL     OW 6898   4.603   6.962   5.059 -1.2115  0.0790 -0.0288
 2000SOL    HW1 6899   4.679   7.019   5.028 -1.9545  1.3837  0.5118
 2000SOL    HW2 6900   4.519   6.990   5.014 -1.1214 -2.7182 -2.2555
 2001SOL     OW 6901   2.901   4.507   6.429 -0.0885 -0.2322  0.1190
 2001SOL    HW1 6902   2.847   4.499   6.513 -1.2021 -0.6409 -0.6149
 2001SOL    HW2 6903   2.877   4.433   6.367  0.0540  0.5791 -0.9313
 2002SOL     OW 6904   2.502   5.205   4.330  0.0171  0.1356  0.1509
 2002SOL    HW1 6905   2.524   5.302   4.338 -0.5621  0.1426  2.3569
 2002SOL    HW2 6906   2.585   5.151   4.345  0.1500  0.2830 -0.0573
 2003SOL     OW 6907   5.789   4.580   4.079  0.3984  0.1647  0.3660
 2003SOL    HW1 6908   5.723   4.644   4.039  1.0320  1.5354  1.4463
 2003SOL    HW2 6909   5.843   4.627   4.148  0.6876 -1.6401  1.4203
 2004SOL     OW 6910   2.030   5.260   0.205  0.4353 -0.5034 -0.2746
 2004SOL    HW1 6911   2.010   5.338   0.265  1.0108  0.2725 -1.0584
 2004SOL    HW2 6912   2.087   5.194   0.254 -0.5927 -0.7642  0.6114
 2005SOL     OW 6913   1.991   5.452   3.930  0.8053 -0.1406 -0.7065
 2005SOL    HW1 6914   2.025   5.448   3.837 -0.3508 -1.1994 -1.1151
 2005SOL    HW2 6915   2.032   5.530   3.978 -0.2967  1.8253 -2.7914
 2006SOL     OW 6916   5.411   0.608   3.418 -0.4657  0.0980  0.3481
 2006SOL    HW1 6917   5.474   0.586   3.492  0.6971 -0.5542 -0.7957
 2006SOL    HW2 6918   5.326   0.644   3.456  0.3147  0.3172  1.9609
 2007SOL     OW 6919   6.524   0.112   6.271 -0.0234  1.1068 -0.0309
 2007SOL    HW1 6920   6.617   0.121   6.308  0.0888 -1.5911  0.5645
 2007SOL    HW2 6921   6.463   0.079   6.342 -0.5640 -0.8472 -1.3184
 2008SOL     OW 6922   1.291   6.243   5.118  0.0580  0.6867 -0.0888
 2008SOL    HW1 6923   1.198   6.207   5.113  0.8013 -1.2992 -1.0586
 2008SOL    HW2 6924   1.317   6.281   5.029 -0.0704  1.9335  0.3971
 2009SOL     OW 6925   0.945   6.923   6.058  0.0681 -0.8879 -0.3056
 2009SOL    HW1 6926   0.966   7.018   6.080  2.4537 -0.4536 -3.6392
 2009SOL    HW2 6927   1.018   6.864   6.094 -1.4352 -1.5518  1.8096
 2010SOL     OW 6928   2.660   0.565   0.102 -0.1315  0.6168 -0.0531
 2010SOL    HW1 6929   2.689   0.611   0.017  1.6555  1.6732  1.0614
 2010SOL    HW2 6930   2.574   0.605   0.133  0.5484  2.0951  0.0109
 2011SOL     OW 6931   6.502   6.207   5.620 -0.2907 -0.1933 -0.3950
 2011SOL    HW1 6932   6.501   6.139   5.694  4.5104  1.5036  1.6786
 2011SOL    HW2 6933   6.487   6.298   5.659  0.4304  0.5830 -1.8453
 2012SOL     OW 6934   6.286   3.171   0.601  0.3955 -0.1359  0.1733
 2012SOL    HW1 6935   6.297   3.092   0.540  1.4853 -0.7489  1.1275
 2012SOL    HW2 6936   6.247   3.247   0.549 -1.7915 -1.6184 -0.5079
 2013SOL     OW 6937   4.244   2.051   0.571 -0.2111  0.2268  0.6521
 2013SOL    HW1 6938   4.335   2.026   0.604 -0.5116 -0.9859  0.6134
 2013SOL    HW2 6939   4.175   1.998   0.620 -0.7677 -0.4029 -0.7712
 2014SOL     OW 6940   4.115   5.787   2.056  0.3998 -0.3997 -0.2775
 2014SOL    HW1 6941   4.016   5.776   2.043 -0.2408 -0.5570  3.5797
 2014SOL    HW2 6942   4.153   5.839   1.980 -2.7984  0.4922 -1.4349
 2015SOL     OW 6943   3.833   6.712   0.265 -0.3113 -0.2728  0.3490
 2015SOL    HW1 6944   3.760   6.687   0.201 -1.0036 -0.6125  1.2499
 2015SOL    HW2 6945   3.809   6.798   0.311  1.1231  1.0786 -1.2720
 2016SOL     OW 6946   6.700   6.469   4.840  0.1481 -0.5158 -0.3897
 2016SOL    HW1 6947   6.711   6.559   4.883  0.5676 -0.8715  0.2531
 2016SOL    HW2 6948   6.607   6.436   4.857 -0.8727  0.8561 -2.7086
 2017SOL     OW 6949   2.497   4.916   2.301  0.3450 -0.1938 -1.1917
 2017SOL    HW1 6950   2.562   4.967   2.358  3.9260 -4.0799 -1.3040
 2017SOL    HW2 6951   2.435   4.864   2.359  1.2528 -0.9198 -0.8374
 2018SOL     OW 6952   6.564   3.982   6.939  0.2726  0.3442  0.3841
 2018SOL    HW1 6953   6.595   3.956   6.847 -0.6715  1.1390 -0.1730
 2018SOL    HW2 6954   6.544   4.080   6.941 -2.1896 -0.1148  0.7050
 2019SOL     OW 6955   4.738   0.283   3.034 -0.2475  0.0195  0.6747
 2019SOL    HW1 6956   4.804   0.336   3.087 -0.7046 -0.0688  1.3502
 2019SOL    HW2 6957   4.728   0.192   3.074  1.2567 -0.9712 -1.0528
 2020SOL     OW 6958   1.731   5.873   4.004  0.1044  0.1753 -0.3012
 2020SOL    HW1 6959   1.657   5.832   3.950  1.1784 -3.1442  0.5247
 2020SOL    HW2 6960   1.807   5.897   3.944  0.3866 -1.3586 -0.5950
 2021SOL     OW 6961   1.386   6.036   6.893  0.0072 -0.2178 -0.1402
 2021SOL    HW1 6962   1.407   5.957   6.950  0.5342 -0.4083 -0.5837
 2021SOL    HW2 6963   1.460   6.103   6.902 -0.3051  0.1050  0.0259
 2022SOL     OW 6964   4.432   3.738   6.093  0.3504  0.0018  0.4375
 2022SOL    HW1 6965   4.357   3.673   6.079  0.8191 -0.5745  0.5592
 2022SOL    HW2 6966   4.458   3.777   6.005 -0.0176  0.1306  0.3804
 2023SOL     OW 6967   6.670   1.803   0.857 -0.1016  0.0443  0.2510
 2023SOL    HW1 6968   6.665   1.811   0.757 -0.2665  1.3687  0.3557
 2023SOL    HW2 6969   6.629   1.883   0.899  1.8141  0.5037  1.3670
 2024SOL     OW 6970   5.694   7.002   2.532  0.4842 -0.0196 -0.3264
 2024SOL    HW1 6971   5.672   7.027   2.437  1.3311  0.8662 -0.2982
 2024SOL    HW2 6972   5.694   6.902   2.540 -2.2582 -0.1192 -0.6042
 2025SOL     OW 6973   0.934   6.602   0.161 -0.0243 -0.1559 -0.9759
 2025SOL    HW1 6974   0.851   6.584   0.213 -0.3215  0.6532 -1.1666
 2025SOL    HW2 6975   0.930   6.553   0.074 -1.0531  1.1612 -1.7057
 2026SOL     OW 6976   1.196   3.070   4.537 -0.1269 -0.2010  0.2566
 2026SOL    HW1 6977   1.251   2.986   4.538  1.3366  0.7088  0.8368
 2026SOL    HW2 6978   1.253   3.147   4.507 -1.1013  0.7917  0.8602
 2027SOL     OW 6979   0.531   0.889   1.332 -0.2051 -0.2729 -0.5623
 2027SOL    HW1 6980   0.544   0.973   1.280 -1.4705  0.6105  0.4986
 2027SOL    HW2 6981   0.434   0.864   1.333 -0.3241  0.0045  1.6891
 2028SOL     OW 6982   3.953   3.374   6.219 -0.3419  0.0751 -0.0961
 2028SOL    HW1 6983   3.854   3.368   6.218 -0.3665  0.3958 -0.9384
 2028SOL    HW2 6984   3.980   3.470   6.210  0.0446  0.0261  0.4910
 2029SOL     OW 6985   1.280   0.542   6.972 -0.6095 -0.1365 -0.1625
 2029SOL    HW1 6986   1.210   0.527   7.042  0.6294  1.1781  1.4476
 2029SOL    HW2 6987   1.269   0.634   6.934 -2.2411 -1.3681 -2.9285
 2030SOL     OW 6988   1.288   1.788   3.717  0.2408 -0.2863  0.5516
 2030SOL    HW1 6989   1.345   1.782   3.798  0.4636  0.8310  0.4909
 2030SOL    HW2 6990   1.194   1.764   3.741  0.2954  0.0782  1.1554
 2031SOL     OW 6991   5.811   0.811   3.780  0.2552  0.5490 -0.6366
 2031SOL    HW1 6992   5.733   0.838   3.724 -0.0430  2.0217  0.4327
 2031SOL    HW2 6993   5.796   0.719   3.817 -1.0858  0.8993 -0.2745
 2032SOL     OW 6994   4.423   6.286   2.090  0.2410 -0.5064 -0.3153
 2032SOL    HW1 6995   4.369   6.206   2.065 -2.7392  0.7168  1.5927
 2032SOL    HW2 6996   4.413   6.357   2.020 -0.5725 -0.3343 -0.0312
 2033SOL     OW 6997   5.538   6.541   5.982  0.3470 -0.5748 -0.2536
 2033SOL    HW1 6998   5.583   6.460   5.945  2.9759 -0.1113  1.5554
 2033SOL    HW2 6999   5.585   6.623   5.948 -1.6614  0.2009 -1.3096
 2034SOL     OW 7000   3.341   5.036   3.816 -0.5865  0.4776  0.1720
 2034SOL    HW1 7001   3.296   5.112   3.863 -1.0078  0.7193 -0.6072
 2034SOL    HW2 7002   3.434   5.026   3.851 -0.6412  1.1369  0.5220
 2035SOL     OW 7003   0.928   1.206   0.258 -0.0758  0.7254 -0.7797
 2035SOL    HW1 7004   0.948   1.109   0.274 -0.0512  1.1042  1.9104
 2035SOL    HW2 7005   1.014   1.256   0.247 -0.0855  0.4807 -2.0861
 2036SOL     OW 7006   0.053   5.758   0.571  0.0967 -0.1830 -0.8523
 2036SOL    HW1 7007   0.137   5.797   0.534  0.9626 -1.3536 -0.1806
 2036SOL    HW2 7008  -0.010   5.737   0.496  0.0886  1.3636 -1.3072
 2037SOL     OW 7009   1.291   1.186   6.266  0.2547 -0.2277 -0.3745
 2037SOL    HW1 7010   1.210   1.148   6.312  0.2368 -0.9516 -0.9759
 2037SOL    HW2 7011   1.367   1.190   6.331 -0.3438  0.7803  0.2899
 2038SOL     OW 7012   0.160   1.722   5.694  0.4468 -0.0776  0.5210
 2038SOL    HW1 7013   0.133   1.631   5.727  1.3361  0.4553  2.9518
 2038SOL    HW2 7014   0.258   1.735   5.710  0.4436  1.1285 -0.3050
 2039SOL     OW 7015   1.738   4.972   2.657  0.2321  0.3817 -0.4721
 2039SOL    HW1 7016   1.662   5.030   2.686 -1.2638 -1.5455 -0.3470
 2039SOL    HW2 7017   1.729   4.951   2.559  1.1611  0.8949 -0.6854
 2040SOL     OW 7018   4.114   3.390   4.277  0.4324 -0.0889  0.1652
 2040SOL    HW1 7019   4.177   3.420   4.205 -1.3600 -1.5048 -2.1531
 2040SOL    HW2 7020   4.074   3.470   4.321  0.3449  0.8884 -1.5796
 2041SOL     OW 7021   3.428   3.336   5.829 -0.4702 -0.1275  0.1213
 2041SOL    HW1 7022   3.466   3.272   5.896 -0.8345 -1.6835 -1.0963
 2041SOL    HW2 7023   3.331   3.350   5.847 -0.2338  0.6559  0.8138
 2042SOL     OW 7024   3.581   5.980   1.323  0.2207 -0.1009  0.6321
 2042SOL    HW1 7025   3.492   6.001   1.364  1.0497  0.4841  2.2230
 2042SOL    HW2 7026   3.608   6.055   1.262 -0.4198 -0.3463  0.0344
 2043SOL     OW 7027   6.185   5.720   3.461  0.0717 -0.1978  0.2369
 2043SOL    HW1 7028   6.252   5.663   3.414  2.0078  0.5209  1.9794
 2043SOL    HW2 7029   6.126   5.662   3.518  0.4256 -0.6812  0.1149
 2044SOL     OW 7030   6.483   0.983   1.781  0.1444  0.2441 -0.1142
 2044SOL    HW1 7031   6.424   0.911   1.745  0.5819 -0.1245 -0.0946
 2044SOL    HW2 7032   6.492   1.056   1.714 -0.9242  0.6570  0.1554
 2045SOL     OW 7033   3.099   5.016   0.635 -0.1582 -0.7393  0.4528
 2045SOL    HW1 7034   3.062   4.924   0.626 -1.9493  0.0545 -0.9177
 2045SOL    HW2 7035   3.135   5.047   0.547  0.8479 -0.2606  1.0030
 2046SOL     OW 7036   6.497   1.524   0.587  0.3029 -0.1353 -0.4799
 2046SOL    HW1 7037   6.597   1.522   0.589  0.3210  0.0623 -1.0671
 2046SOL    HW2 7038   6.465   1.524   0.492 -0.2848 -1.5394 -0.3066
 2047SOL     OW 7039   4.786   1.117   0.822 -0.0279  0.5015  0.2328
 2047SOL    HW1 7040   4.742   1.125   0.733  0.8901 -0.9753 -0.4003
 2047SOL    HW2 7041   4.738   1.050   0.878  0.3097  0.2640  0.2441
 2048SOL     OW 7042   5.658   6.278   5.900 -0.2355 -0.1214 -0.1756
 2048SOL    HW1 7043   5.757   6.273   5.914 -0.2074 -1.1920 -0.6779
 2048SOL    HW2 7044   5.633   6.227   5.818 -1.4059 -1.4946  0.9830
 2049SOL     OW 7045   4.226   6.043   7.020 -0.4839 -0.4762 -0.9409
 2049SOL    HW1 7046   4.229   6.138   6.989 -1.6396 -0.8404 -2.2826
 2049SOL    HW2 7047   4.172   6.036   7.103  0.6055  0.1942 -0.1620
 2050SOL     OW 7048   5.847   0.349   3.673  0.2482 -0.1296  0.2230
 2050SOL    HW1 7049   5.831   0.428   3.733 -0.7222 -0.0033 -0.1827
 2050SOL    HW2 7050   5.924   0.296   3.709 -1.7577 -1.4101  2.9891
 2051SOL     OW 7051   2.487   6.162   2.217  0.3323  0.6891 -0.7105
 2051SOL    HW1 7052   2.397   6.180   2.178  0.5689 -1.1813 -2.2168
 2051SOL    HW2 7053   2.550   6.234   2.189 -0.0779  0.6454 -1.7632
 2052SOL     OW 7054   0.352   5.765   0.949  0.4145  0.0314  0.6322
 2052SOL    HW1 7055   0.372   5.723   1.038  0.4517 -1.6624 -0.1245
 2052SOL    HW2 7056   0.311   5.696   0.889 -2.0573  1.8170  0.1415
 2053SOL     OW 7057   5.021   0.352   0.428 -0.0968 -0.4081 -0.4976
 2053SOL    HW1 7058   5.084   0.313   0.496  0.3491 -0.0356 -0.6911
 2053SOL    HW2 7059   5.068   0.359   0.340  0.3156  1.8294 -0.1624
 2054SOL     OW 7060   6.158   2.021   1.375  0.0506 -0.2850  0.6448
 2054SOL    HW1 7061   6.187   2.089   1.308 -1.7351 -0.4933 -0.3945
 2054SOL    HW2 7062   6.214   2.030   1.458  0.4161  1.8774  0.2230
 2055SOL     OW 7063   6.113   1.951   6.106 -0.1383  0.0543 -0.3329
 2055SOL    HW1 7064   6.159   1.918   6.024  0.7710  0.5553 -0.0366
 2055SOL    HW2 7065   6.125   1.885   6.180  0.9925  0.6564  0.0326
 2056SOL     OW 7066   0.934   0.686   2.447 -0.0205 -0.1384  0.3585
 2056SOL    HW1 7067   1.000   0.611   2.440 -0.0737 -0.1382 -0.2209
 2056SOL    HW2 7068   0.958   0.758   2.382  0.3771  0.6269  1.3344
 2057SOL     OW 7069   6.516   2.491   4.228 -0.5064 -0.7599 -0.2258
 2057SOL    HW1 7070   6.570   2.536   4.299  1.8455  1.3274 -3.0827
 2057SOL    HW2 7071   6.544   2.395   4.220  1.8887 -0.0948 -0.6349
 2058SOL     OW 7072   6.086   0.401   0.056 -0.1835  0.6731  0.2151
 2058SOL    HW1 7073   6.184   0.381   0.052 -0.1960  0.7097 -0.3436
 2058SOL    HW2 7074   6.043   0.347   0.129  0.5648  1.9603  1.6766
 2059SOL     OW 7075   1.238   6.818   6.378  0.4666 -0.3663 -0.3091
 2059SOL    HW1 7076   1.316   6.784   6.430 -0.8330 -1.5921  0.9131
 2059SOL    HW2 7077   1.263   6.903   6.332  1.5892  1.0212  2.6296
 2060SOL     OW 7078   1.793   6.829   1.630 -0.0622  0.5723  0.0194
 2060SOL    HW1 7079   1.707   6.844   1.680  0.6575  0.5829  1.3139
 2060SOL    HW2 7080   1.802   6.732   1.608  0.5565  0.1857  1.7912
 2061SOL     OW 7081   1.090   0.775   1.845  0.0956  0.6544  0.1923
 2061SOL    HW1 7082   1.182   0.810   1.865  1.4075 -2.1702 -0.3219
 2061SOL    HW2 7083   1.078   0.769   1.746 -0.8313  1.4145  0.2539
 2062SOL     OW 7084   3.294   6.713   3.995 -0.7944  0.1842 -0.1511
 2062SOL    HW1 7085   3.243   6.739   4.077 -1.1917  0.5740 -0.5138
 2062SOL    HW2 7086   3.381   6.762   3.993 -0.6281 -0.0951  0.2150
 2063SOL     OW 7087   0.823   1.896   1.320  0.1999 -0.6555  0.1542
 2063SOL    HW1 7088   0.734   1.915   1.360  0.0329  1.5251 -1.0610
 2063SOL    HW2 7089   0.832   1.946   1.233  2.7921 -0.3581  0.4986
 2064SOL     OW 7090   1.844   1.998   5.739 -0.1255  0.4446 -0.5634
 2064SOL    HW1 7091   1.893   1.912   5.720 -1.4053 -0.5888  0.6090
 2064SOL    HW2 7092   1.790   2.023   5.658  0.5741  0.3826 -1.0616
 2065SOL     OW 7093   0.197   3.934   2.381 -0.0462 -0.8385 -0.0214
 2065SOL    HW1 7094   0.213   3.934   2.282 -1.9905  2.0649 -0.4760
 2065SOL    HW2 7095   0.252   4.007   2.423  1.0843 -2.3207  1.1558
 2066SOL     OW 7096   1.615   5.447   2.581  0.5677 -0.6429  0.3235
 2066SOL    HW1 7097   1.698   5.486   2.541 -1.1768  1.0020 -1.9474
 2066SOL    HW2 7098   1.574   5.513   2.644 -1.4015  0.6103 -2.1143
 2067SOL     OW 7099   0.943   4.378   6.991 -0.3215  0.1917 -0.0463
 2067SOL    HW1 7100   0.953   4.464   7.040 -1.7768 -1.1586  2.8330
 2067SOL    HW2 7101   0.975   4.303   7.048 -0.0623 -1.3499 -2.0775
 2068SOL     OW 7102   2.926   3.407   6.368 -0.4327 -0.4089 -0.8873
 2068SOL    HW1 7103   2.928   3.369   6.276 -0.3701  0.1721 -1.1291
 2068SOL    HW2 7104   2.885   3.498   6.366 -1.2205 -0.7381 -0.2059
 2069SOL     OW 7105   3.014   2.390   0.801 -0.1413  0.0846  0.0497
 2069SOL    HW1 7106   2.977   2.425   0.714 -0.8447  1.5496  0.8993
 2069SOL    HW2 7107   3.112   2.406   0.804 -0.4272  2.0094  0.3753
 2070SOL     OW 7108   2.811   6.904   3.538  0.5231  0.3393  0.0699
 2070SOL    HW1 7109   2.853   6.819   3.507 -0.5523 -0.5295  0.8960
 2070SOL    HW2 7110   2.711   6.893   3.541  0.4091  1.3891  0.8576
 2071SOL     OW 7111   2.393   4.828   4.542 -0.1403  0.5322 -0.0321
 2071SOL    HW1 7112   2.418   4.771   4.620 -0.7185  0.8283  0.3769
 2071SOL    HW2 7113   2.410   4.924   4.565  0.8616  0.5335 -0.7252
 2072SOL     OW 7114   4.943   4.332   2.121  0.0469  0.4361 -0.3904
 2072SOL    HW1 7115   5.009   4.323   2.047 -0.0195  0.8010 -0.4950
 2072SOL    HW2 7116   4.991   4.331   2.209  0.1229 -0.0144 -0.4336
 2073SOL     OW 7117   4.965   5.071   5.291 -0.3712  0.3929 -0.1715
 2073SOL    HW1 7118   4.965   5.102   5.386 -3.9180 -0.4995  0.3001
 2073SOL    HW2 7119   5.009   5.139   5.233  1.2947  1.2780  2.0051
 2074SOL     OW 7120   5.517   2.833   2.779 -0.2681  0.1626  0.2521
 2074SOL    HW1 7121   5.450   2.906   2.766  0.7355  0.9729 -0.5773
 2074SOL    HW2 7122   5.516   2.803   2.874 -1.8235  0.1237  0.2419
 2075SOL     OW 7123   3.345   3.749   6.247  0.2706  0.3318 -0.3038
 2075SOL    HW1 7124   3.418   3.785   6.189  0.5221  1.3496  0.6334
 2075SOL    HW2 7125   3.304   3.669   6.202 -0.0846  1.5471 -2.2680
 2076SOL     OW 7126   6.926   1.109   0.360 -0.2602 -0.3375 -0.4793
 2076SOL    HW1 7127   6.959   1.191   0.407 -0.3005  0.3023 -1.5263
 2076SOL    HW2 7128   6.898   1.041   0.427  0.1738  0.3423  0.4147
 2077SOL     OW 7129   5.569   1.035   2.273 -0.0716 -0.2398  0.0104
 2077SOL    HW1 7130   5.514   1.083   2.205 -0.1802  0.9164  0.8726
 2077SOL    HW2 7131   5.619   0.960   2.230 -0.5016  0.1732 -1.2342
 2078SOL     OW 7132   3.410   5.843   3.039  0.0861  0.2156  0.0520
 2078SOL    HW1 7133   3.411   5.771   3.108 -2.2089  1.3522  1.3903
 2078SOL    HW2 7134   3.440   5.806   2.951  0.5416 -1.9257  1.0634
 2079SOL     OW 7135   6.147   0.661   5.759 -0.2951  0.5240 -0.2874
 2079SOL    HW1 7136   6.128   0.655   5.661 -1.2311  0.4870 -0.1118
 2079SOL    HW2 7137   6.115   0.578   5.805  0.0791  0.5669  0.0622
 2080SOL     OW 7138   2.053   2.289   2.966  0.0112  0.1348  0.4677
 2080SOL    HW1 7139   2.090   2.199   2.990  0.7658  0.6248  1.1979
 2080SOL    HW2 7140   2.085   2.315   2.875  0.7553  0.1619  0.7276
 2081SOL     OW 7141   2.057   5.723   4.685  0.2607  0.2278  0.2936
 2081SOL    HW1 7142   2.139   5.667   4.700 -0.0346  0.2578  2.3481
 2081SOL    HW2 7143   2.072   5.814   4.722 -1.1362 -0.1854  2.0178
 2082SOL     OW 7144   5.200   1.823   1.395 -0.5887 -0.2319 -0.5813
 2082SOL    HW1 7145   5.125   1.838   1.330 -1.0072 -1.8707 -0.5159
 2082SOL    HW2 7146   5.168   1.766   1.470  0.3089  0.3920  0.2997
 2083SOL     OW 7147   4.694   5.009   6.764 -0.2280  0.3184  0.2457
 2083SOL    HW1 7148   4.784   5.002   6.808 -0.9013 -0.6467  1.5237
 2083SOL    HW2 7149   4.707   5.011   6.665  1.2651  1.4420  0.4197
 2084SOL     OW 7150   0.156   2.428   2.025  0.2141 -1.2432 -0.7407
 2084SOL    HW1 7151   0.195   2.426   1.934  0.1176  1.1938 -0.8790
 2084SOL    HW2 7152   0.074   2.485   2.026  0.0610 -1.4229  0.8262
 2085SOL     OW 7153   6.045   6.308   0.742 -0.0805  0.2341 -0.8458
 2085SOL    HW1 7154   5.990   6.225   0.753  0.5649 -0.0819  0.0985
 2085SOL    HW2 7155   5.992   6.387   0.774 -0.1322 -0.0173 -0.2986
 2086SOL     OW 7156   3.554   4.218   1.470 -0.4291  0.5618 -0.5981
 2086SOL    HW1 7157   3.567   4.283   1.544 -0.0543  1.0935 -1.1255
 2086SOL    HW2 7158   3.644   4.186   1.437 -0.6020 -0.1038 -0.4517
 2087SOL     OW 7159   5.799   5.606   2.587  0.0546  0.2709  0.0190
 2087SOL    HW1 7160   5.880   5.584   2.533 -0.6975  0.2198 -1.1271
 2087SOL    HW2 7161   5.723   5.628   2.526 -1.4790 -1.9669  0.9729
 2088SOL     OW 7162   1.904   1.416   3.109 -0.2540  0.2366 -0.1563
 2088SOL    HW1 7163   1.924   1.318   3.120 -1.0440 -0.0304 -1.0288
 2088SOL    HW2 7164   1.898   1.458   3.200  2.5110  0.0037  0.2175
 2089SOL     OW 7165   2.048   0.247   5.970  0.2682  0.7788 -0.0654
 2089SOL    HW1 7166   2.082   0.336   5.940  0.2198  1.2539  1.2410
 2089SOL    HW2 7167   1.976   0.260   6.038  1.0342 -0.2630  0.9888
 2090SOL     OW 7168   4.114   3.575   4.477 -0.0079  0.5804  0.2860
 2090SOL    HW1 7169   4.112   3.550   4.574  1.7601  1.3683  0.5704
 2090SOL    HW2 7170   4.092   3.672   4.467 -1.1941  0.2729 -0.2278
 2091SOL     OW 7171   2.982   3.756   1.130 -0.3605  0.3737  0.1950
 2091SOL    HW1 7172   3.032   3.683   1.178 -0.1323  0.5803  0.2695
 2091SOL    HW2 7173   2.942   3.818   1.197 -2.0960 -0.6844  0.2104
 2092SOL     OW 7174   1.374   4.931   1.916 -0.1028 -0.4866 -0.2396
 2092SOL    HW1 7175   1.382   4.831   1.917  1.6216 -0.3682  0.1959
 2092SOL    HW2 7176   1.464   4.972   1.925 -1.0029  1.1164  3.0165
 2093SOL     OW 7177   1.007   3.059   0.648 -0.1330 -0.4369  0.0210
 2093SOL    HW1 7178   1.096   3.032   0.685  0.9901 -1.7116 -3.1720
 2093SOL    HW2 7179   0.942   2.985   0.663  0.4580 -1.1764 -0.9422
 2094SOL     OW 7180   6.087   0.837   0.270 -0.1934 -0.3403  0.7270
 2094SOL    HW1 7181   6.174   0.853   0.315 -1.0496  0.5693  2.1393
 2094SOL    HW2 7182   6.018   0.812   0.338 -1.3438  0.2825 -0.1773
 2095SOL     OW 7183   6.402   5.669   5.966  0.0043  0.3614  0.0200
 2095SOL    HW1 7184   6.433   5.695   5.875  0.3638  1.3948  0.4219
 2095SOL    HW2 7185   6.307   5.697   5.979  0.7262  2.6373  0.8514
 2096SOL     OW 7186   5.531   4.969   3.426  0.0111  0.4679  0.0428
 2096SOL    HW1 7187   5.587   5.047   3.396 -0.2871  0.7689  0.2649
 2096SOL    HW2 7188   5.528   4.901   3.353  0.3590  0.6164 -0.1146
 2097SOL     OW 7189   5.394   5.199   1.016  0.1322 -0.8968  0.2748
 2097SOL    HW1 7190   5.308   5.208   1.066  0.0606 -0.8235  0.1392
 2097SOL    HW2 7191   5.379   5.144   0.934  0.1063 -0.4859 -0.0008
 2098SOL     OW 7192   5.871   0.121   6.034 -0.5444 -0.2973  0.2584
 2098SOL    HW1 7193   5.821   0.115   5.947 -1.8855 -0.3599  1.0042
 2098SOL    HW2 7194   5.958   0.073   6.025 -1.0701 -1.1128 -0.7759
 2099SOL     OW 7195   3.152   1.767   3.190 -0.2118  0.1206 -0.0144
 2099SOL    HW1 7196   3.176   1.732   3.099 -0.6593  1.0001 -0.4830
 2099SOL    HW2 7197   3.092   1.846   3.180 -0.1515  0.3094  1.0525
 2100SOL     OW 7198   3.340   5.437   6.454 -0.0612  0.4777 -0.3252
 2100SOL    HW1 7199   3.438   5.445   6.435 -0.1969  2.1804 -0.4487
 2100SOL    HW2 7200   3.325   5.366   6.522  1.0829 -1.0150 -1.5569
 2101SOL     OW 7201   6.905   0.425   3.038  0.4651 -0.4588  0.0499
 2101SOL    HW1 7202   6.920   0.327   3.022  0.5261 -0.6705  1.3368
 2101SOL    HW2 7203   6.809   0.447   3.023  0.2627 -0.9069  0.6585
 2102SOL     OW 7204   0.694   5.879   2.922  0.1907 -0.5309  0.6641
 2102SOL    HW1 7205   0.685   5.933   3.006  1.3435  0.1631  0.3584
 2102SOL    HW2 7206   0.669   5.935   2.844  2.0006 -0.1908  0.2805
 2103SOL     OW 7207   3.888   4.016   6.868 -0.1096 -0.1830 -0.1248
 2103SOL    HW1 7208   3.822   3.962   6.815  1.7733 -3.0161  0.1805
 2103SOL    HW2 7209   3.974   4.023   6.818  0.1512  1.4274  0.4758
 2104SOL     OW 7210   0.731   1.758   6.763  0.6753 -0.6786  0.5402
 2104SOL    HW1 7211   0.694   1.770   6.855  3.2766 -0.6448  1.6741
 2104SOL    HW2 7212   0.697   1.673   6.724  0.9625 -1.6555  2.3209
 2105SOL     OW 7213   5.001   5.622   0.685 -0.1095 -0.0196 -0.5331
 2105SOL    HW1 7214   5.085   5.607   0.737 -0.4830 -0.0042  0.0833
 2105SOL    HW2 7215   5.014   5.700   0.623  1.4130 -2.0037 -2.8617
 2106SOL     OW 7216   6.153   6.438   0.029  0.0280 -0.3232 -0.1197
 2106SOL    HW1 7217   6.193   6.456   0.119  0.5082  0.7864 -0.5501
 2106SOL    HW2 7218   6.072   6.381   0.041 -2.3140  3.0100  1.4795
 2107SOL     OW 7219   3.077   4.154   0.322  0.3971  0.1936  0.1136
 2107SOL    HW1 7220   3.007   4.216   0.286 -0.5039 -1.4647 -1.1324
 2107SOL    HW2 7221   3.146   4.138   0.252  1.0106  0.3495  0.6812
 2108SOL     OW 7222   4.209   4.276   0.411 -0.5838 -0.5335  0.3411
 2108SOL    HW1 7223   4.271   4.264   0.334 -0.7913 -0.7468  0.2071
 2108SOL    HW2 7224   4.255   4.248   0.495  0.5596  2.0883  0.6745
 2109SOL     OW 7225   0.038   6.020   2.672  0.2137  0.4508 -0.5001
 2109SOL    HW1 7226  -0.015   6.036   2.756  0.6784  2.1467 -0.4921
 2109SOL    HW2 7227   0.005   6.081   2.600  0.1546 -0.6428 -1.4198
 2110SOL     OW 7228   1.716   5.157   4.586 -0.2140 -0.5458  0.3946
 2110SOL    HW1 7229   1.801   5.113   4.556  0.3785  0.9401 -0.2621
 2110SOL    HW2 7230   1.676   5.207   4.508 -0.3908  0.7229  1.2644
 2111SOL     OW 7231   0.954   3.401   7.001 -0.3041  0.5007 -1.0413
 2111SOL    HW1 7232   0.915   3.454   7.076 -1.1783 -1.9545  0.3353
 2111SOL    HW2 7233   1.051   3.423   6.991  0.0080  0.4270  1.2666
 2112SOL     OW 7234   4.444   4.344   0.273  0.5436 -0.4000  0.2046
 2112SOL    HW1 7235   4.495   4.375   0.353  0.7666 -1.0486  0.3211
 2112SOL    HW2 7236   4.498   4.364   0.190 -0.2613  1.4764  0.0786
 2113SOL     OW 7237   5.831   3.082   2.101  0.2751 -0.1257 -0.3690
 2113SOL    HW1 7238   5.753   3.145   2.100 -0.4118 -0.9319  0.4797
 2113SOL    HW2 7239   5.809   3.002   2.157  1.0253 -1.2622 -1.6345
 2114SOL     OW 7240   0.061   4.484   6.765  0.3177  0.0753  0.4050
 2114SOL    HW1 7241   0.026   4.539   6.689  0.8522  0.7112  0.6177
 2114SOL    HW2 7242   0.076   4.390   6.733  0.7054  0.3784 -0.3399
 2115SOL     OW 7243   2.261   6.523   0.440  0.1716 -0.9486  0.4161
 2115SOL    HW1 7244   2.277   6.442   0.497 -1.0907 -1.3628  0.2042
 2115SOL    HW2 7245   2.316   6.600   0.475 -0.5231 -1.2021  2.1652
 2116SOL     OW 7246   1.513   4.990   3.698  0.1021 -0.1533  0.4461
 2116SOL    HW1 7247   1.529   4.909   3.754  0.2468  0.8610  1.9222
 2116SOL    HW2 7248   1.584   5.057   3.715  1.7495 -0.8022 -3.0051
 2117SOL     OW 7249   0.496   5.496   0.359 -0.1543 -0.3604  0.2967
 2117SOL    HW1 7250   0.485   5.502   0.259  0.5750 -0.0099  0.2295
 2117SOL    HW2 7251   0.582   5.540   0.385 -1.7900  2.3645  1.4307
 2118SOL     OW 7252   6.162   2.847   2.695  0.0055  0.0151  0.7214
 2118SOL    HW1 7253   6.225   2.788   2.746 -1.5953 -0.4167  2.2832
 2118SOL    HW2 7254   6.071   2.805   2.693 -0.3123  0.6626 -1.4102
 2119SOL     OW 7255   4.966   6.037   0.097  0.0536  0.3089  0.1977
 2119SOL    HW1 7256   5.023   6.101   0.045  0.0711  1.0021  1.0595
 2119SOL    HW2 7257   4.871   6.069   0.096 -0.3878 -0.9385 -1.3897
 2120SOL     OW 7258   1.757   5.328   1.597 -0.4370 -0.7013  0.7219
 2120SOL    HW1 7259   1.679   5.265   1.593 -0.5735 -0.5391  0.8554
 2120SOL    HW2 7260   1.826   5.298   1.531 -1.3923  0.2184 -0.7514
 2121SOL     OW 7261   1.025   5.521   5.427  0.0842 -0.0419  0.4748
 2121SOL    HW1 7262   1.081   5.528   5.509 -0.8552 -1.1888  1.2427
 2121SOL    HW2 7263   1.076   5.475   5.354  0.6481  0.2772  0.6699
 2122SOL     OW 7264   4.872   4.533   6.646 -0.4464  0.4107 -0.0382
 2122SOL    HW1 7265   4.904   4.512   6.738  0.9826  0.8439 -0.4126
 2122SOL    HW2 7266   4.854   4.448   6.596 -0.7284  0.1711  0.4720
 2123SOL     OW 7267   5.650   4.502   2.241 -0.0919 -0.7554  0.0065
 2123SOL    HW1 7268   5.658   4.413   2.197  0.6012 -0.0613 -1.3244
 2123SOL    HW2 7269   5.691   4.572   2.183  1.6290  0.1084  2.1314
 2124SOL     OW 7270   2.428   1.311   0.823 -0.5532  0.4112  0.1607
 2124SOL    HW1 7271   2.382   1.387   0.869 -0.9421 -0.0656  0.5742
 2124SOL    HW2 7272   2.521   1.301   0.858 -1.1586 -0.5582  1.5678
 2125SOL     OW 7273   5.068   0.836   0.778 -0.1051  0.6725  0.0224
 2125SOL    HW1 7274   5.118   0.892   0.844  0.5293  0.9021 -0.6454
 2125SOL    HW2 7275   4.970   0.841   0.798  0.1786 -0.6979  2.0428
 2126SOL     OW 7276   2.881   2.637   0.063 -0.2618  0.1447 -0.0859
 2126SOL    HW1 7277   2.905   2.734   0.074  0.6906 -0.1152  0.1375
 2126SOL    HW2 7278   2.894   2.610  -0.033 -0.6807  0.2749 -0.1814
 2127SOL     OW 7279   5.847   1.606   4.101 -0.0788  0.0981  0.6642
 2127SOL    HW1 7280   5.887   1.551   4.027 -1.5443 -0.0700 -0.0436
 2127SOL    HW2 7281   5.920   1.643   4.158  1.3162  2.2991 -2.3061
 2128SOL     OW 7282   6.581   3.416   3.354  0.1164  0.3295  0.5104
 2128SOL    HW1 7283   6.512   3.435   3.424 -0.2807  0.2598  0.1433
 2128SOL    HW2 7284   6.655   3.483   3.361  1.0021 -0.7741  2.1785
 2129SOL     OW 7285   4.748   1.750   6.972 -0.2450  0.3953  0.0544
 2129SOL    HW1 7286   4.733   1.676   7.038 -0.9076 -0.9085 -1.4942
 2129SOL    HW2 7287   4.745   1.838   7.020  1.1474 -0.5618  2.0396
 2130SOL     OW 7288   5.926   6.390   4.367 -0.1175 -0.2582  0.0383
 2130SOL    HW1 7289   6.005   6.398   4.307 -1.3934 -2.3413 -2.1153
 2130SOL    HW2 7290   5.843   6.410   4.315 -1.5554 -4.9256  0.0658
 2131SOL     OW 7291   3.096   2.060   0.938 -0.0213  0.3217 -0.2934
 2131SOL    HW1 7292   3.135   2.057   0.846 -1.7942  1.5263 -1.1488
 2131SOL    HW2 7293   3.080   1.966   0.970 -2.4481 -0.2439 -2.6810
 2132SOL     OW 7294   1.128   4.737   6.474 -0.4916 -0.2645  0.3397
 2132SOL    HW1 7295   1.178   4.715   6.558  0.8741  2.0756  0.2106
 2132SOL    HW2 7296   1.194   4.753   6.400 -1.3258  2.8807  0.1483
 2133SOL     OW 7297   3.134   3.012   6.437 -0.3780  0.5300 -0.4134
 2133SOL    HW1 7298   3.231   3.032   6.423 -0.3684 -0.0434 -1.2311
 2133SOL    HW2 7299   3.121   2.913   6.445 -1.0161  0.5234 -1.3813
 2134SOL     OW 7300   0.713   0.457   1.855 -0.0225 -0.3861  0.6696
 2134SOL    HW1 7301   0.719   0.548   1.814 -0.3442 -0.1688  1.0951
 2134SOL    HW2 7302   0.764   0.392   1.799  0.1956  0.0514  0.3508
 2135SOL     OW 7303   5.810   5.656   6.339  0.0503 -0.0960  0.0388
 2135SOL    HW1 7304   5.739   5.605   6.387 -0.9189  0.5830 -0.6166
 2135SOL    HW2 7305   5.794   5.650   6.240 -0.6020  2.1434 -0.0384
 2136SOL     OW 7306   0.030   6.270   6.767  0.2582 -0.1827  0.1441
 2136SOL    HW1 7307  -0.016   6.342   6.818  0.9947 -0.2285  0.8815
 2136SOL    HW2 7308   0.060   6.306   6.679 -0.1370  0.1654  0.1473
 2137SOL     OW 7309   1.041   5.207   3.091  0.2110 -0.2883  0.5393
 2137SOL    HW1 7310   0.980   5.270   3.043  1.3920  1.3618  1.1206
 2137SOL    HW2 7311   1.097   5.157   3.024  2.6382  2.7901  0.0635
 2138SOL     OW 7312   5.166   2.768   1.322  0.2122 -0.3142 -0.4078
 2138SOL    HW1 7313   5.095   2.699   1.309  0.5465 -0.6738 -0.3600
 2138SOL    HW2 7314   5.238   2.756   1.253  0.5988 -0.4395  0.0125
 2139SOL     OW 7315   3.774   6.474   4.114  0.1512 -0.0444  1.0528
 2139SOL    HW1 7316   3.739   6.392   4.069 -2.2041  1.2105  0.4239
 2139SOL    HW2 7317   3.727   6.487   4.201  0.4675  0.6639  1.1273
 2140SOL     OW 7318   2.394   2.305   3.458  0.2245  0.5704 -0.4737
 2140SOL    HW1 7319   2.479   2.281   3.505 -1.1052 -1.4493  1.1018
 2140SOL    HW2 7320   2.405   2.291   3.359  1.3641 -0.8697 -0.1751
 2141SOL     OW 7321   5.875   2.743   4.233 -0.2902  0.3717 -0.1739
 2141SOL    HW1 7322   5.938   2.728   4.157  1.1900 -0.6390  1.1901
 2141SOL    HW2 7323   5.832   2.656   4.259 -1.8033  0.9454 -0.6933
 2142SOL     OW 7324   1.653   2.929   0.719  0.5128  0.0362 -0.7844
 2142SOL    HW1 7325   1.665   2.986   0.637  0.0871  1.2382 -0.0245
 2142SOL    HW2 7326   1.738   2.880   0.737  0.7515  0.0825 -1.7019
 2143SOL     OW 7327   6.364   0.671   5.922  0.2207 -0.3506  0.6163
 2143SOL    HW1 7328   6.349   0.635   6.014 -0.1117 -0.0484  0.6846
 2143SOL    HW2 7329   6.276   0.685   5.877  0.0663  2.9558  1.6073
 2144SOL     OW 7330   0.020   5.019   2.722 -0.5677  0.1547  0.3636
 2144SOL    HW1 7331  -0.002   5.097   2.663 -0.0730  1.3525  1.7049
 2144SOL    HW2 7332   0.113   4.988   2.704 -1.4515 -1.5694 -1.6719
 2145SOL     OW 7333   5.903   2.665   3.126  0.0884  0.0700  0.3592
 2145SOL    HW1 7334   5.857   2.603   3.063 -0.4060 -0.5002  1.2642
 2145SOL    HW2 7335   5.951   2.612   3.196  1.9181  0.6607 -0.3996
 2146SOL     OW 7336   2.374   1.305   0.089  0.4463  0.0093  0.3093
 2146SOL    HW1 7337   2.330   1.305   0.179  0.6893 -0.0426  0.4292
 2146SOL    HW2 7338   2.316   1.354   0.024 -0.1070 -0.6305  0.3031
 2147SOL     OW 7339   6.952   0.736   5.502 -0.0207 -0.2164 -0.5253
 2147SOL    HW1 7340   7.029   0.765   5.445  0.3405  0.7637  0.4295
 2147SOL    HW2 7341   6.986   0.703   5.590 -0.6388 -0.6196 -0.4323
 2148SOL     OW 7342   0.054   2.145   4.381 -0.4611  0.0669 -0.4262
 2148SOL    HW1 7343   0.091   2.069   4.326  1.6963 -0.3150  1.3996
 2148SOL    HW2 7344   0.063   2.230   4.329  1.8209 -0.2370 -0.6693
 2149SOL     OW 7345   0.074   0.717   6.256  0.0161 -0.4047 -0.6660
 2149SOL    HW1 7346   0.122   0.791   6.303 -0.4004 -0.0286 -0.8205
 2149SOL    HW2 7347  -0.021   0.744   6.239 -0.2172 -1.0834 -0.4802
 2150SOL     OW 7348   2.731   4.243   0.936 -0.5756  0.1580  0.4967
 2150SOL    HW1 7349   2.721   4.338   0.966  0.2107  0.6346 -0.6530
 2150SOL    HW2 7350   2.665   4.224   0.864  1.2110  0.8214 -1.4240
 2151SOL     OW 7351   1.137   5.938   0.254 -0.4131 -0.0641 -0.2644
 2151SOL    HW1 7352   1.130   5.915   0.157 -1.2003  1.5450 -0.6198
 2151SOL    HW2 7353   1.165   6.034   0.264 -0.6273 -0.1211  1.0919
 2152SOL     OW 7354   6.205   0.904   4.436  0.3917 -0.3251  0.0002
 2152SOL    HW1 7355   6.163   0.916   4.526  1.4915  1.6779  0.2846
 2152SOL    HW2 7356   6.303   0.916   4.443  0.5309 -0.4374 -1.4456
 2153SOL     OW 7357   5.623   4.985   5.941 -0.0324  0.3548 -0.4121
 2153SOL    HW1 7358   5.652   5.080   5.932 -1.2055  0.6955 -0.7626
 2153SOL    HW2 7359   5.642   4.936   5.856 -0.5938  0.6184 -0.6984
 2154SOL     OW 7360   2.873   5.433   1.805  0.0727 -0.4258  0.5898
 2154SOL    HW1 7361   2.795   5.481   1.846  1.4969  0.8988  1.8861
 2154SOL    HW2 7362   2.922   5.382   1.876  1.1406 -0.1827  0.0480
 2155SOL     OW 7363   4.016   0.423   2.225  0.7654 -0.0514  0.1634
 2155SOL    HW1 7364   4.020   0.422   2.325 -0.9557  0.9860  0.2828
 2155SOL    HW2 7365   4.027   0.330   2.190  3.0536 -0.2303  1.1938
 2156SOL     OW 7366   5.615   2.451   3.994  0.4814 -0.4160 -0.2202
 2156SOL    HW1 7367   5.586   2.382   4.060  0.4745  2.3283  2.8860
 2156SOL    HW2 7368   5.564   2.440   3.909 -1.8656 -2.2299  1.3130
 2157SOL     OW 7369   4.557   5.223   5.067  0.0441  0.6518 -0.4450
 2157SOL    HW1 7370   4.598   5.136   5.039 -0.5202  0.5498 -1.0136
 2157SOL    HW2 7371   4.459   5.209   5.082  0.0483  1.0780 -0.0225
 2158SOL     OW 7372   2.645   6.811   0.600 -0.2740 -0.6159  0.0073
 2158SOL    HW1 7373   2.632   6.716   0.572  0.7957 -0.9177  0.4844
 2158SOL    HW2 7374   2.574   6.868   0.559 -0.5520 -1.5191 -0.7966
 2159SOL     OW 7375   0.142   1.552   4.795 -0.2282  0.1865 -0.2625
 2159SOL    HW1 7376   0.198   1.592   4.868 -1.4003 -0.6886  1.1640
 2159SOL    HW2 7377   0.103   1.625   4.739  0.6037  0.8789  0.0376
 2160SOL     OW 7378   4.109   6.894   6.314 -0.0281  0.2386  0.6183
 2160SOL    HW1 7379   4.190   6.949   6.338 -0.2594  0.8699  0.0005
 2160SOL    HW2 7380   4.113   6.806   6.361  0.2196  0.8855  1.8471
 2161SOL     OW 7381   0.791   3.729   6.564 -0.4833  0.0692  0.0199
 2161SOL    HW1 7382   0.856   3.653   6.575 -0.6616 -0.4632 -2.1518
 2161SOL    HW2 7383   0.838   3.808   6.525 -0.9672 -0.0782 -0.8926
 2162SOL     OW 7384   3.443   1.011   3.071 -0.8274  0.0845  0.2295
 2162SOL    HW1 7385   3.442   0.955   2.988 -0.8460  1.3329 -0.6299
 2162SOL    HW2 7386   3.425   0.953   3.151 -1.5286 -1.0105 -0.7058
 2163SOL     OW 7387   1.449   2.838   2.373  0.3972 -0.0887  0.4038
 2163SOL    HW1 7388   1.412   2.837   2.465 -0.8290  2.4387  0.0247
 2163SOL    HW2 7389   1.549   2.846   2.376  0.2315  2.3176  1.5959
 2164SOL     OW 7390   1.742   3.354   1.839  0.4401  0.2050 -0.2044
 2164SOL    HW1 7391   1.728   3.446   1.878  1.8990  0.2218  0.3219
 2164SOL    HW2 7392   1.659   3.327   1.790 -0.8104  0.9482  1.3638
 2165SOL     OW 7393   5.806   1.427   3.150 -0.2272 -0.0718 -0.4888
 2165SOL    HW1 7394   5.905   1.413   3.159 -0.5346 -1.0430  6.0916
 2165SOL    HW2 7395   5.759   1.338   3.156 -1.4852  0.6394  0.9191
 2166SOL     OW 7396   0.203   4.000   1.226 -0.5910 -0.7095  0.4492
 2166SOL    HW1 7397   0.213   4.096   1.252  0.2654 -1.0430  1.4519
 2166SOL    HW2 7398   0.246   3.942   1.296  2.0292 -1.6660 -1.7900
 2167SOL     OW 7399   0.793   2.978   2.818 -0.2792  0.1666  0.0859
 2167SOL    HW1 7400   0.816   2.884   2.841  1.7222  0.2963 -1.1541
 2167SOL    HW2 7401   0.749   3.022   2.897 -2.3061 -2.0674  0.3349
 2168SOL     OW 7402   2.295   2.717   1.834 -0.0176  0.0241  0.0945
 2168SOL    HW1 7403   2.292   2.644   1.766  0.1066 -2.2560  2.3792
 2168SOL    HW2 7404   2.205   2.728   1.876 -0.5283  2.5629 -1.4617
 2169SOL     OW 7405   0.171   5.774   1.979 -0.6907 -0.3446 -0.4329
 2169SOL    HW1 7406   0.225   5.775   2.063 -0.9744  2.2351 -0.2187
 2169SOL    HW2 7407   0.199   5.849   1.919 -0.8897 -1.7776 -2.4389
 2170SOL     OW 7408   0.156   3.290   4.454  0.9252 -0.0442 -0.0341
 2170SOL    HW1 7409   0.089   3.254   4.390  0.9788  0.6942 -0.5229
 2170SOL    HW2 7410   0.233   3.330   4.403  1.7215 -0.8524  0.5160
 2171SOL     OW 7411   0.296   4.872   2.447  0.1583 -0.3037 -0.3932
 2171SOL    HW1 7412   0.388   4.836   2.431  0.6597 -0.3770  2.1802
 2171SOL    HW2 7413   0.281   4.951   2.389  2.2882  0.3661 -0.1213
 2172SOL     OW 7414   3.433   0.620   3.956 -0.0223 -0.0085  0.2151
 2172SOL    HW1 7415   3.507   0.574   4.005  0.9548  0.1511 -1.0702
 2172SOL    HW2 7416   3.435   0.718   3.975  0.7652  0.1483 -0.6361
 2173SOL     OW 7417   6.610   1.522   5.240 -0.0728  0.1963 -0.0799
 2173SOL    HW1 7418   6.697   1.549   5.199  0.2614 -1.5812 -0.6256
 2173SOL    HW2 7419   6.594   1.424   5.224 -0.8664 -0.1469  2.3758
 2174SOL     OW 7420   5.236   0.615   0.245  0.1517 -0.0875 -0.1211
 2174SOL    HW1 7421   5.263   0.575   0.334 -2.4367  0.1499  0.8452
 2174SOL    HW2 7422   5.225   0.714   0.255  0.7033  0.0727 -0.9766
 2175SOL     OW 7423   4.661   2.852   6.421  0.1529 -0.3070  0.2050
 2175SOL    HW1 7424   4.742   2.822   6.472  0.2088  0.6837  0.7253
 2175SOL    HW2 7425   4.614   2.772   6.383  2.5549 -0.8085 -1.9951
 2176SOL     OW 7426   5.454   2.171   4.077  0.1909 -0.3781 -0.2718
 2176SOL    HW1 7427   5.434   2.230   4.155 -1.2243 -0.8588 -0.2419
 2176SOL    HW2 7428   5.479   2.080   4.110  1.8931  0.0390 -0.3325
 2177SOL     OW 7429   2.048   0.254   5.424 -0.3333 -0.5783  0.2786
 2177SOL    HW1 7430   2.027   0.172   5.478  0.3470 -0.4434  0.7654
 2177SOL    HW2 7431   1.980   0.265   5.351  0.5490 -2.5938 -0.9357
 2178SOL     OW 7432   0.133   1.842   0.516  0.5159 -0.3922  0.3734
 2178SOL    HW1 7433   0.093   1.932   0.495  2.7567  0.9456  1.4914
 2178SOL    HW2 7434   0.128   1.827   0.615 -1.3695 -2.3335  0.0461
 2179SOL     OW 7435   1.876   3.681   0.041 -0.3000  0.0730 -0.3991
 2179SOL    HW1 7436   1.931   3.637  -0.030  0.1110 -0.5837  0.3053
 2179SOL    HW2 7437   1.792   3.628   0.055 -1.0043  0.9144 -1.2719
 2180SOL     OW 7438   1.166   4.685   5.384  0.3135 -0.3240 -0.9299
 2180SOL    HW1 7439   1.160   4.773   5.431  0.8281 -0.4218 -0.6838
 2180SOL    HW2 7440   1.074   4.648   5.372  0.1885 -0.3636  0.1089
 2181SOL     OW 7441   4.172   5.301   3.739  0.2356  0.2925  0.6891
 2181SOL    HW1 7442   4.093   5.253   3.700  0.1427  0.3188  0.8441
 2181SOL    HW2 7443   4.152   5.398   3.747  0.4315  0.3619  0.3577
 2182SOL     OW 7444   6.883   6.462   6.854  0.9891  0.4842  0.3937
 2182SOL    HW1 7445   6.803   6.476   6.796 -0.4971  1.2699  2.4935
 2182SOL    HW2 7446   6.906   6.549   6.898  1.9955 -0.1074  1.0490
 2183SOL     OW 7447   3.078   0.609   0.749 -0.0050 -0.5132 -0.2725
 2183SOL    HW1 7448   2.980   0.601   0.731 -0.2454  0.2371  0.6333
 2183SOL    HW2 7449   3.094   0.680   0.818  1.1745 -0.6465 -0.3846
 2184SOL     OW 7450   0.232   2.432   7.021 -0.1801 -0.0683  0.3039
 2184SOL    HW1 7451   0.212   2.510   6.961 -1.8859 -1.3380 -0.8885
 2184SOL    HW2 7452   0.193   2.449   7.111 -2.0973 -0.2246 -0.4501
 2185SOL     OW 7453   6.703   0.957   6.243  0.5191 -0.1584  0.2324
 2185SOL    HW1 7454   6.723   1.049   6.279  1.7370  0.4386 -1.8085
 2185SOL    HW2 7455   6.784   0.922   6.196  0.6137 -2.9756  2.2535
 2186SOL     OW 7456   0.399   0.221   5.080  0.3235  0.1948  0.3321
 2186SOL    HW1 7457   0.316   0.179   5.044  0.8768  0.4272 -1.2801
 2186SOL    HW2 7458   0.408   0.199   5.177 -0.0619 -2.3141 -0.1499
 2187SOL     OW 7459   5.195   3.672   0.802  0.3838  0.1374  0.2652
 2187SOL    HW1 7460   5.140   3.697   0.723  0.7200 -1.7235 -0.6299
 2187SOL    HW2 7461   5.292   3.691   0.783  0.5074 -0.6554  0.0469
 2188SOL     OW 7462   4.085   6.005   0.227  0.0750  0.4137 -0.0277
 2188SOL    HW1 7463   4.038   5.931   0.275  0.7180 -0.5418 -0.8246
 2188SOL    HW2 7464   4.083   6.088   0.283  0.0367 -0.4171  1.2532
 2189SOL     OW 7465   3.898   0.764   1.882 -0.3449  0.3722  0.0304
 2189SOL    HW1 7466   3.948   0.717   1.955  3.0374  0.8815 -1.7851
 2189SOL    HW2 7467   3.860   0.696   1.819 -0.1076 -0.0079  0.2896
 2190SOL     OW 7468   6.563   4.252   1.717  0.5878 -0.3723 -0.0264
 2190SOL    HW1 7469   6.542   4.349   1.728  3.3735  0.1393  1.5196
 2190SOL    HW2 7470   6.479   4.203   1.691 -1.1374  2.2285  0.2621
 2191SOL     OW 7471   1.071   1.059   6.411 -0.6372 -0.3651 -0.2702
 2191SOL    HW1 7472   1.026   0.969   6.414  0.7175 -1.0326  1.2757
 2191SOL    HW2 7473   1.111   1.079   6.500  0.1087  1.2684 -0.9413
 2192SOL     OW 7474   5.227   3.810   1.437 -0.0123  0.5726  0.6830
 2192SOL    HW1 7475   5.278   3.760   1.366 -1.5582  1.0010 -0.7829
 2192SOL    HW2 7476   5.229   3.758   1.522  1.6438 -0.1018  0.2771
 2193SOL     OW 7477   1.188   0.322   6.144 -0.3456  0.3315 -0.8264
 2193SOL    HW1 7478   1.214   0.373   6.227 -3.3324  1.2107 -0.3019
 2193SOL    HW2 7479   1.270   0.284   6.102  1.2681 -0.9834  3.0252
 2194SOL     OW 7480   6.872   5.051   6.172  0.4965 -0.9957 -0.3025
 2194SOL    HW1 7481   6.843   5.093   6.257  2.3985 -0.2696  0.0500
 2194SOL    HW2 7482   6.817   5.086   6.096 -0.9300 -1.3315  0.5553
 2195SOL     OW 7483   6.898   4.081   5.342  0.2295 -0.2323  0.3913
 2195SOL    HW1 7484   6.967   4.140   5.299  0.2703 -0.0700  0.6789
 2195SOL    HW2 7485   6.807   4.108   5.311  0.2693 -0.2153  0.2884
 2196SOL     OW 7486   5.149   1.439   0.118 -0.6810 -0.1006 -0.7201
 2196SOL    HW1 7487   5.202   1.509   0.070  1.1966 -0.6080  0.4975
 2196SOL    HW2 7488   5.076   1.482   0.172 -0.1296  0.8328 -0.7067
 2197SOL     OW 7489   1.815   6.376   6.559  0.6533  0.7332  0.0232
 2197SOL    HW1 7490   1.894   6.336   6.605  0.9733 -0.4733 -1.5136
 2197SOL    HW2 7491   1.791   6.321   6.479 -1.6410  1.1804  0.3368
 2198SOL     OW 7492   1.197   2.553   4.780 -0.0848  0.2735  0.5114
 2198SOL    HW1 7493   1.153   2.564   4.869  1.2635  2.8866  0.9606
 2198SOL    HW2 7494   1.126   2.550   4.709 -1.1256  1.6772  1.4206
 2199SOL     OW 7495   5.019   0.427   3.573 -0.0636  0.0384  0.0483
 2199SOL    HW1 7496   4.922   0.432   3.552 -0.2003  1.2660  0.8467
 2199SOL    HW2 7497   5.039   0.340   3.619 -1.2821  0.8033  2.1626
 2200SOL     OW 7498   3.383   1.304   0.632 -0.3091 -0.6205  0.2394
 2200SOL    HW1 7499   3.456   1.366   0.660  1.3436 -2.7829  1.0090
 2200SOL    HW2 7500   3.345   1.334   0.544  0.9981  0.9637  0.1719
 2201SOL     OW 7501   6.264   4.093   5.136 -0.0245 -0.0408  0.0513
 2201SOL    HW1 7502   6.239   4.121   5.229 -0.1669 -0.5294  0.1622
 2201SOL    HW2 7503   6.353   4.046   5.139 -0.3913 -0.7476  0.0583
 2202SOL     OW 7504   4.354   0.369   1.791  0.1533  0.7813 -0.0206
 2202SOL    HW1 7505   4.392   0.370   1.883  0.5912  2.5472 -0.1876
 2202SOL    HW2 7506   4.277   0.433   1.786 -1.1342 -0.7244 -0.4070
 2203SOL     OW 7507   1.000   5.211   0.518 -0.1007 -0.4989  0.2932
 2203SOL    HW1 7508   0.969   5.138   0.458  0.4135 -0.4397 -0.0503
 2203SOL    HW2 7509   1.085   5.183   0.564 -0.1413 -0.2903  0.4981
 2204SOL     OW 7510   5.576   1.594   0.861 -0.4249 -0.5958 -0.1157
 2204SOL    HW1 7511   5.587   1.608   0.959 -1.7253  1.8037 -0.2343
 2204SOL    HW2 7512   5.643   1.527   0.829  0.2787 -1.1508  2.3100
 2205SOL     OW 7513   6.055   0.984   0.034 -0.0166  0.2493 -0.2715
 2205SOL    HW1 7514   6.002   1.036   0.101 -0.6865 -0.1993 -0.4428
 2205SOL    HW2 7515   6.030   0.887   0.040  1.2090 -0.0738  0.0460
 2206SOL     OW 7516   3.260   1.345   5.590 -0.3050 -0.0374 -0.3350
 2206SOL    HW1 7517   3.304   1.364   5.502  0.1813  0.9142  0.1070
 2206SOL    HW2 7518   3.171   1.302   5.573  0.3782 -1.1684 -1.2499
 2207SOL     OW 7519   5.873   5.810   0.860 -0.9348  0.3543  0.7599
 2207SOL    HW1 7520   5.830   5.759   0.785 -0.0782  1.3175 -0.4397
 2207SOL    HW2 7521   5.912   5.746   0.926  0.7051 -0.5873 -1.0360
 2208SOL     OW 7522   0.893   6.666   4.500 -0.0549 -0.0428 -0.5617
 2208SOL    HW1 7523   0.944   6.582   4.481  1.7987  1.1448 -1.0664
 2208SOL    HW2 7524   0.805   6.643   4.542  1.1667 -2.1424  1.0153
 2209SOL     OW 7525   3.314   5.146   3.574  0.2654  0.1123 -0.7803
 2209SOL    HW1 7526   3.343   5.113   3.664  2.0258 -0.5079 -1.5414
 2209SOL    HW2 7527   3.309   5.070   3.510  1.8359  0.9171 -1.9124
 2210SOL     OW 7528   4.970   6.843   1.242 -0.5039 -0.4721 -0.2047
 2210SOL    HW1 7529   4.874   6.857   1.217 -0.6454 -0.8434  0.1226
 2210SOL    HW2 7530   5.003   6.758   1.200 -0.7269 -1.0679  0.7952
 2211SOL     OW 7531   1.893   2.278   1.552  0.6434 -0.1749  0.2357
 2211SOL    HW1 7532   1.982   2.314   1.580  0.3484  1.0930 -0.3739
 2211SOL    HW2 7533   1.829   2.354   1.539 -0.0484 -0.9304 -0.9715
 2212SOL     OW 7534   2.211   5.687   6.588 -0.2950 -0.5102 -0.2341
 2212SOL    HW1 7535   2.205   5.612   6.655  0.7969  0.4011  0.9259
 2212SOL    HW2 7536   2.252   5.652   6.504 -1.7956 -1.7041 -0.5421
 2213SOL     OW 7537   4.255   6.948   5.138  0.1725  0.3213 -0.6364
 2213SOL    HW1 7538   4.194   6.871   5.119  0.5850 -1.0932  2.9226
 2213SOL    HW2 7539   4.328   6.919   5.200  0.3026  3.5760  0.9706
 2214SOL     OW 7540   3.474   3.574   0.881  1.3461  0.1311 -0.2908
 2214SOL    HW1 7541   3.405   3.627   0.931  1.0338  2.3075 -2.7889
 2214SOL    HW2 7542   3.495   3.490   0.931 -1.8107  0.2194  1.4171
 2215SOL     OW 7543   5.063   6.938   0.524  0.9593 -0.4593 -0.1209
 2215SOL    HW1 7544   5.091   6.842   0.521 -0.7716 -0.9998 -0.7232
 2215SOL    HW2 7545   5.048   6.972   0.431 -0.3220 -0.2304  0.1480
 2216SOL     OW 7546   6.942   5.685   0.318  0.1275  0.1285 -0.0760
 2216SOL    HW1 7547   6.869   5.628   0.358 -0.7118  0.6700 -0.7975
 2216SOL    HW2 7548   6.924   5.697   0.220  0.8902  0.7355 -0.1433
 2217SOL     OW 7549   4.139   1.694   3.239  0.1593  1.1704 -0.0700
 2217SOL    HW1 7550   4.185   1.694   3.150 -0.2103  0.7635 -0.2637
 2217SOL    HW2 7551   4.077   1.772   3.244 -0.6149  0.6031 -0.5902
 2218SOL     OW 7552   1.115   6.836   5.341  0.2254 -0.2003  0.5070
 2218SOL    HW1 7553   1.053   6.914   5.333 -0.9427 -1.0601  0.8969
 2218SOL    HW2 7554   1.191   6.860   5.402  0.1955  0.8204  0.1498
 2219SOL     OW 7555   4.415   1.792   1.248 -0.3706 -0.0530 -0.4468
 2219SOL    HW1 7556   4.460   1.852   1.314  1.5584 -1.0413 -0.8178
 2219SOL    HW2 7557   4.316   1.792   1.267 -0.2972  2.1947  0.3607
 2220SOL     OW 7558   1.067   4.711   3.848 -0.1202 -0.3298  0.1591
 2220SOL    HW1 7559   0.985   4.761   3.820  0.0484 -0.0853  0.1034
 2220SOL    HW2 7560   1.136   4.775   3.880 -0.4198 -0.6106  1.4470
 2221SOL     OW 7561   6.431   0.907   4.611  0.5124 -0.4908  0.6553
 2221SOL    HW1 7562   6.421   0.911   4.711  0.1913 -0.6818  0.6317
 2221SOL    HW2 7563   6.500   0.974   4.582 -0.6908  0.8926  0.8323
 2222SOL     OW 7564   5.821   1.429   2.818  0.1097  0.0448  0.1773
 2222SOL    HW1 7565   5.817   1.501   2.749  0.7752 -0.5921 -0.5449
 2222SOL    HW2 7566   5.743   1.438   2.880 -0.0246  1.1439 -0.1252
 2223SOL     OW 7567   1.346   1.048   5.556 -0.8637  0.1196  0.1171
 2223SOL    HW1 7568   1.279   1.017   5.487 -1.0702 -1.1797  0.8726
 2223SOL    HW2 7569   1.319   1.014   5.646  0.5868 -0.0545  0.5088
 2224SOL     OW 7570   4.375   5.555   0.476 -0.1895  0.3725  0.0130
 2224SOL    HW1 7571   4.286   5.556   0.430 -1.3696 -0.7559  2.0992
 2224SOL    HW2 7572   4.407   5.461   0.483  1.1893  0.7709 -0.6907
 2225SOL     OW 7573   5.864   0.283   1.040  0.6603 -0.4115 -0.0226
 2225SOL    HW1 7574   5.766   0.280   1.063  0.9405 -0.6269  1.2340
 2225SOL    HW2 7575   5.916   0.300   1.123  1.5336  2.5770 -1.0568
 2226SOL     OW 7576   0.825   2.928   5.690 -0.1538  0.0688 -0.5384
 2226SOL    HW1 7577   0.916   2.963   5.669 -0.4788  0.3011 -1.6216
 2226SOL    HW2 7578   0.773   2.917   5.605 -1.2033  0.1259  0.0806
 2227SOL     OW 7579   3.982   1.701   2.071 -0.2807  0.4114 -0.0188
 2227SOL    HW1 7580   3.894   1.739   2.099 -0.1130  0.2799  0.7212
 2227SOL    HW2 7581   4.018   1.644   2.145  0.7186  0.9754 -0.0434
 2228SOL     OW 7582   5.377   6.276   6.389 -0.1592 -0.1342 -0.1059
 2228SOL    HW1 7583   5.363   6.205   6.320  1.6384 -0.3809 -0.2611
 2228SOL    HW2 7584   5.392   6.365   6.343  2.8978 -0.5947 -0.2519
 2229SOL     OW 7585   3.146   4.399   5.331 -0.6048 -0.1096  0.0359
 2229SOL    HW1 7586   3.068   4.440   5.282 -0.1346  0.9162  0.1357
 2229SOL    HW2 7587   3.223   4.461   5.329 -0.2451 -0.5023  1.2126
 2230SOL     OW 7588   5.156   1.476   6.795 -0.0360  0.4233 -0.7761
 2230SOL    HW1 7589   5.149   1.514   6.887 -1.8649 -0.2414 -0.5940
 2230SOL    HW2 7590   5.247   1.496   6.757 -0.0765  2.7828  0.2198
 2231SOL     OW 7591   1.809   7.024   4.987  0.2488 -0.7895 -0.0282
 2231SOL    HW1 7592   1.848   7.019   5.078 -0.0929 -1.0937  0.1056
 2231SOL    HW2 7593   1.830   7.113   4.946 -1.0364  0.0445  1.0227
 2232SOL     OW 7594   1.018   2.450   6.169 -0.0025 -0.0577 -0.1735
 2232SOL    HW1 7595   1.033   2.505   6.252 -1.8580  1.9753 -1.0728
 2232SOL    HW2 7596   0.935   2.396   6.180 -0.3418  0.3395 -0.7467
 2233SOL     OW 7597   3.141   4.476   6.809  0.1593  0.2807  0.7943
 2233SOL    HW1 7598   3.131   4.411   6.734  3.1875  1.0377 -0.4165
 2233SOL    HW2 7599   3.158   4.425   6.894 -1.2303 -0.5256  0.6284
 2234SOL     OW 7600   0.041   2.686   2.225  0.0165 -0.4407 -0.3069
 2234SOL    HW1 7601  -0.010   2.657   2.145  1.8158 -2.7404 -0.7398
 2234SOL    HW2 7602   0.023   2.623   2.301  1.2334 -0.6150 -0.1311
 2235SOL     OW 7603   0.392   3.688   1.800 -0.1140 -0.5424 -0.2445
 2235SOL    HW1 7604   0.315   3.624   1.792 -1.0080  0.1019  2.3249
 2235SOL    HW2 7605   0.477   3.636   1.809 -0.5927 -1.3305 -0.1671
 2236SOL     OW 7606   4.339   6.821   4.014 -0.1187  0.5673 -0.6180
 2236SOL    HW1 7607   4.293   6.733   3.999 -0.5303  0.6558  0.0778
 2236SOL    HW2 7608   4.271   6.894   4.012  0.1958  0.8468 -0.9912
 2237SOL     OW 7609   6.723   1.042   5.301  0.3404  0.1487  0.3509
 2237SOL    HW1 7610   6.773   1.128   5.291 -1.1532  0.9804 -0.4173
 2237SOL    HW2 7611   6.723   1.014   5.397  1.9899  0.2741  0.4097
 2238SOL     OW 7612   5.415   3.906   1.044  1.3025  0.3463  0.4289
 2238SOL    HW1 7613   5.418   3.967   0.965  0.8367 -1.8577 -1.3889
 2238SOL    HW2 7614   5.323   3.908   1.084  0.9856  0.0614 -0.2759
 2239SOL     OW 7615   6.201   1.232   3.688  0.6513 -0.4186  0.1525
 2239SOL    HW1 7616   6.260   1.280   3.623  1.0806 -0.4292  0.5284
 2239SOL    HW2 7617   6.106   1.238   3.657  0.7866  0.0370 -0.1922
 2240SOL     OW 7618   5.880   0.439   3.293 -0.2693  0.3585 -0.5324
 2240SOL    HW1 7619   5.809   0.369   3.301  0.0073  0.0522 -0.7172
 2240SOL    HW2 7620   5.867   0.508   3.364  1.2030 -1.4349  1.6398
 2241SOL     OW 7621   6.854   0.042   2.512  0.0746 -0.6315 -0.5767
 2241SOL    HW1 7622   6.810   0.008   2.595 -0.3773 -1.6328 -1.2075
 2241SOL    HW2 7623   6.951   0.018   2.514  0.2413  0.0754  0.0357
 2242SOL     OW 7624   6.319   1.768   5.175  0.5265 -0.2011  0.2069
 2242SOL    HW1 7625   6.356   1.813   5.093  0.3853  0.2629  0.3930
 2242SOL    HW2 7626   6.377   1.789   5.253 -1.9995  3.6825  1.3243
 2243SOL     OW 7627   3.880   0.533   5.843  0.3220 -0.2423 -0.2171
 2243SOL    HW1 7628   3.815   0.499   5.911  0.2612 -1.9112 -1.0460
 2243SOL    HW2 7629   3.957   0.469   5.836  0.3280 -0.1011 -1.7077
 2244SOL     OW 7630   2.717   6.832   2.459  0.1210  0.2367  0.0340
 2244SOL    HW1 7631   2.708   6.777   2.376  1.4529 -0.7268  0.4724
 2244SOL    HW2 7632   2.637   6.819   2.517 -1.3182  1.7265 -1.5017
 2245SOL     OW 7633   2.290   5.297   0.889  0.2528 -0.2077 -0.2593
 2245SOL    HW1 7634   2.322   5.340   0.804 -0.0061  1.5681  0.4875
 2245SOL    HW2 7635   2.199   5.332   0.910 -0.3545 -1.8445 -0.0501
 2246SOL     OW 7636   3.076   2.002   5.442  0.7358 -0.1839  0.1272
 2246SOL    HW1 7637   3.108   2.021   5.535  3.0962 -0.1118 -0.6263
 2246SOL    HW2 7638   3.027   2.082   5.407 -0.8647 -0.4954  1.5351
 2247SOL     OW 7639   2.474   3.618   1.440 -0.6828 -0.0883  0.0163
 2247SOL    HW1 7640   2.513   3.674   1.367  0.6656  0.0806  0.8356
 2247SOL    HW2 7641   2.481   3.522   1.415 -0.7576 -0.0037 -0.3335
 2248SOL     OW 7642   6.202   2.958   5.372 -0.1157 -0.0514  0.7006
 2248SOL    HW1 7643   6.142   2.891   5.416 -0.3318  0.1278  0.6849
 2248SOL    HW2 7644   6.147   3.017   5.312 -0.1571  0.9303  1.6454
 2249SOL     OW 7645   3.768   6.170   3.440  0.0952  0.1556  0.1621
 2249SOL    HW1 7646   3.832   6.140   3.370 -1.9123  2.1413 -2.7567
 2249SOL    HW2 7647   3.814   6.172   3.529  3.0507 -1.5680 -1.1892
 2250SOL     OW 7648   5.423   6.573   1.004 -0.0916  0.3485 -0.0317
 2250SOL    HW1 7649   5.350   6.545   1.066 -2.5095 -0.9007 -3.1469
 2250SOL    HW2 7650   5.490   6.628   1.054 -2.8970  1.2397  3.1326
 2251SOL     OW 7651   6.026   6.106   5.038  0.4095 -0.1794 -0.1875
 2251SOL    HW1 7652   6.066   6.132   5.126  0.7554 -1.1860 -0.0382
 2251SOL    HW2 7653   6.009   6.188   4.984  1.6558  0.3400  0.1848
 2252SOL     OW 7654   5.260   1.438   1.480 -0.2714 -0.2145  0.0408
 2252SOL    HW1 7655   5.326   1.434   1.555  0.3637 -0.5140 -0.5228
 2252SOL    HW2 7656   5.299   1.491   1.405 -0.7065 -0.3319 -0.2695
 2253SOL     OW 7657   6.663   3.003   6.334  0.2818 -0.6169  0.2171
 2253SOL    HW1 7658   6.606   2.937   6.285  0.3238  0.7076 -1.7140
 2253SOL    HW2 7659   6.758   2.996   6.301  0.7461 -1.0395  1.5622
 2254SOL     OW 7660   3.140   3.113   3.405 -0.0536  0.5536  0.0433
 2254SOL    HW1 7661   3.188   3.090   3.320 -1.0913  2.2040 -1.0482
 2254SOL    HW2 7662   3.166   3.049   3.477  0.1322 -1.4936 -1.7576
 2255SOL     OW 7663   0.895   2.624   0.125 -0.1831  0.4818 -0.3694
 2255SOL    HW1 7664   0.915   2.635   0.028  1.1366 -0.2064 -0.1819
 2255SOL    HW2 7665   0.911   2.711   0.172 -1.4183  0.9877 -0.8483
 2256SOL     OW 7666   6.122   0.176   0.363  0.1593  0.0348  0.4412
 2256SOL    HW1 7667   6.036   0.217   0.331 -0.0651 -1.2331 -0.6836
 2256SOL    HW2 7668   6.156   0.112   0.294  1.2510 -0.5840  1.5109
 2257SOL     OW 7669   5.955   3.015   0.763  0.3487 -0.1728 -0.5590
 2257SOL    HW1 7670   6.045   2.978   0.784 -0.1956 -1.0755  0.2582
 2257SOL    HW2 7671   5.953   3.113   0.785  1.3275  0.0098 -1.2479
 2258SOL     OW 7672   2.120   3.642   3.360 -0.8236 -0.3350 -0.3950
 2258SOL    HW1 7673   2.047   3.635   3.427  0.3485 -3.0406  0.7701
 2258SOL    HW2 7674   2.150   3.550   3.334  1.4629  0.6576 -1.5696
 2259SOL     OW 7675   6.210   1.180   5.775 -0.1155  0.2958 -0.3140
 2259SOL    HW1 7676   6.288   1.163   5.836 -0.2745 -1.3349 -0.5435
 2259SOL    HW2 7677   6.243   1.188   5.680 -0.2205 -0.3599 -0.4069
 2260SOL     OW 7678   5.717   3.624   0.323  0.5612 -0.4227  0.2850
 2260SOL    HW1 7679   5.725   3.540   0.269 -1.9429  0.3003 -1.3701
 2260SOL    HW2 7680   5.753   3.701   0.271  0.6788 -0.1272  0.7988
 2261SOL     OW 7681   5.002   3.124   6.300 -0.6378 -0.4263 -0.2946
 2261SOL    HW1 7682   5.075   3.060   6.276 -1.6451 -2.3077  1.3516
 2261SOL    HW2 7683   4.919   3.073   6.323 -2.4328  1.6336 -1.7997
 2262SOL     OW 7684   0.442   1.224   5.786 -0.6204  0.2170 -0.1483
 2262SOL    HW1 7685   0.414   1.313   5.821 -3.0528  0.2410 -1.9442
 2262SOL    HW2 7686   0.367   1.159   5.794  1.0604 -1.7211  1.0080
 2263SOL     OW 7687   2.949   2.898   0.086 -0.2238  0.1005  0.5748
 2263SOL    HW1 7688   2.876   2.961   0.061 -0.0873 -0.2636 -0.8477
 2263SOL    HW2 7689   3.013   2.943   0.148 -0.9505  0.8391  0.8012
 2264SOL     OW 7690   2.586   6.604   3.911  0.1127 -0.4575 -0.0502
 2264SOL    HW1 7691   2.671   6.617   3.860 -0.7108 -0.8980 -1.5982
 2264SOL    HW2 7692   2.574   6.680   3.975  0.1835  1.2678 -1.9856
 2265SOL     OW 7693   0.425   5.420   3.033 -0.8548  0.0579 -0.1434
 2265SOL    HW1 7694   0.449   5.327   3.005  0.0374  0.4678 -0.8009
 2265SOL    HW2 7695   0.500   5.482   3.011 -1.5518  0.9879  0.0222
 2266SOL     OW 7696   3.499   2.118   0.309 -0.5261  0.2098 -0.7655
 2266SOL    HW1 7697   3.431   2.151   0.375 -1.2184  0.4658 -1.5859
 2266SOL    HW2 7698   3.457   2.050   0.249  0.0581  0.0691 -1.0198
 2267SOL     OW 7699   4.750   2.890   3.789  1.0055  0.5284 -0.4420
 2267SOL    HW1 7700   4.791   2.869   3.877  0.6674 -1.5391 -0.7206
 2267SOL    HW2 7701   4.670   2.832   3.775  1.5438  0.1864 -2.4394
 2268SOL     OW 7702   2.999   0.095   3.382  0.0558 -0.0094 -0.2431
 2268SOL    HW1 7703   3.078   0.130   3.432  0.3313 -0.0577 -0.6450
 2268SOL    HW2 7704   2.933   0.057   3.447  1.0397 -1.3864  0.0048
 2269SOL     OW 7705   0.580   4.532   5.335 -0.0888 -0.7691 -0.7655
 2269SOL    HW1 7706   0.602   4.541   5.238 -0.2764 -1.2732 -0.8544
 2269SOL    HW2 7707   0.628   4.453   5.373  1.1480  0.2436 -0.1044
 2270SOL     OW 7708   4.393   3.013   5.913  0.3445 -0.2037 -0.0631
 2270SOL    HW1 7709   4.456   3.067   5.969  0.1334 -1.5504  1.5153
 2270SOL    HW2 7710   4.429   3.008   5.819 -0.4670  4.0495 -0.8174
 2271SOL     OW 7711   3.611   0.522   4.618  0.1210  0.3033  0.0804
 2271SOL    HW1 7712   3.681   0.544   4.686 -0.5364  1.2628  0.4668
 2271SOL    HW2 7713   3.622   0.427   4.588  0.5417 -0.0832  1.3835
 2272SOL     OW 7714   3.736   0.828   6.173  0.2912  0.1617 -0.0981
 2272SOL    HW1 7715   3.681   0.748   6.148  2.3065 -1.5306  0.5911
 2272SOL    HW2 7716   3.773   0.815   6.265  0.5222  1.9942  0.0926
 2273SOL     OW 7717   1.638   3.020   4.584  0.1573  0.4995  0.9165
 2273SOL    HW1 7718   1.730   3.056   4.596  0.1540  0.7292  0.2845
 2273SOL    HW2 7719   1.637   2.955   4.508 -0.1418  0.2836  1.1022
 2274SOL     OW 7720   1.065   1.981   6.641 -0.5835 -0.4466 -0.2103
 2274SOL    HW1 7721   1.044   2.021   6.730 -1.7797 -0.7431 -0.3465
 2274SOL    HW2 7722   1.099   1.888   6.653  0.1029 -0.1854 -0.0310
 2275SOL     OW 7723   5.700   4.257   3.097  0.1643  0.4492 -0.9671
 2275SOL    HW1 7724   5.661   4.293   3.182  3.0229 -1.1561  1.2059
 2275SOL    HW2 7725   5.648   4.178   3.067  1.4650 -1.6257  1.8210
 2276SOL     OW 7726   0.407   2.870   0.011 -0.0816 -0.0105 -0.1451
 2276SOL    HW1 7727   0.375   2.809   0.083  0.1014 -2.2164 -1.8489
 2276SOL    HW2 7728   0.329   2.899  -0.045  0.0759 -0.2045 -0.4654
 2277SOL     OW 7729   3.727   3.649   4.219 -0.0122  0.1444 -0.0774
 2277SOL    HW1 7730   3.745   3.744   4.197  0.5035  0.0019 -0.2862
 2277SOL    HW2 7731   3.762   3.590   4.145  1.9383 -0.3576  1.1765
 2278SOL     OW 7732   0.386   2.106   4.324  0.2622  0.3212 -0.6483
 2278SOL    HW1 7733   0.306   2.050   4.341 -0.6651  2.0590  1.2229
 2278SOL    HW2 7734   0.371   2.163   4.243 -0.8791  1.3874  0.2844
 2279SOL     OW 7735   1.304   4.757   6.257 -0.3279 -0.0529 -0.5339
 2279SOL    HW1 7736   1.372   4.684   6.265 -0.1677 -0.0993 -2.0298
 2279SOL    HW2 7737   1.283   4.772   6.161  0.2676  2.4682 -0.3210
 2280SOL     OW 7738   4.731   3.865   5.606  0.0792  0.0028  0.4826
 2280SOL    HW1 7739   4.743   3.790   5.540 -2.3529 -0.3105  0.2964
 2280SOL    HW2 7740   4.743   3.953   5.559 -1.2859 -0.2266 -0.3523
 2281SOL     OW 7741   6.716   6.662   1.395  0.2946  0.6744  0.8317
 2281SOL    HW1 7742   6.777   6.588   1.366  0.3328  1.6070 -1.7967
 2281SOL    HW2 7743   6.624   6.625   1.411  0.2471  0.0309 -0.6830
 2282SOL     OW 7744   3.414   5.882   6.071 -0.0910  0.0064  0.0770
 2282SOL    HW1 7745   3.316   5.890   6.086 -0.0316  1.2174 -0.0247
 2282SOL    HW2 7746   3.432   5.828   5.990 -0.7341  0.8414 -0.6417
 2283SOL     OW 7747   0.642   1.787   4.062 -0.5119  0.1871  0.4939
 2283SOL    HW1 7748   0.582   1.707   4.058 -1.0993  0.6214  0.2953
 2283SOL    HW2 7749   0.620   1.848   3.985 -0.1868  0.6123  0.7371
 2284SOL     OW 7750   4.869   4.022   6.609 -0.1593  0.8606  0.5427
 2284SOL    HW1 7751   4.831   3.932   6.630  2.7541 -0.7840 -0.7234
 2284SOL    HW2 7752   4.858   4.042   6.512  1.7479  0.5033  0.2193
 2285SOL     OW 7753   0.863   4.772   6.490 -0.2611 -0.3228  0.1279
 2285SOL    HW1 7754   0.842   4.760   6.587 -0.3176 -1.1684  0.0178
 2285SOL    HW2 7755   0.962   4.778   6.478 -0.3076  1.2155  0.3832
 2286SOL     OW 7756   6.237   5.243   2.867 -0.0458 -0.2649 -0.1591
 2286SOL    HW1 7757   6.219   5.341   2.871 -0.3934 -0.2372 -1.8221
 2286SOL    HW2 7758   6.152   5.194   2.847  0.4332 -0.7417 -1.0900
 2287SOL     OW 7759   0.868   0.671   5.063 -0.1459  0.3023  0.0736
 2287SOL    HW1 7760   0.784   0.676   5.009 -0.2802 -1.3697  0.0833
 2287SOL    HW2 7761   0.946   0.659   5.002 -0.1601 -0.2864  0.1617
 2288SOL     OW 7762   6.118   0.822   3.730  0.2233  0.3250 -0.3557
 2288SOL    HW1 7763   6.110   0.810   3.829  1.2397  1.4995 -0.1056
 2288SOL    HW2 7764   6.027   0.820   3.688 -0.2011 -0.3397  0.5769
 2289SOL     OW 7765   6.945   5.607   6.704  0.0996  0.2444  0.0493
 2289SOL    HW1 7766   6.981   5.591   6.796  0.0787  0.6597  0.1360
 2289SOL    HW2 7767   6.888   5.530   6.676  1.0373 -0.4081 -0.0863
 2290SOL     OW 7768   1.321   5.126   0.054  0.1677 -0.1782  0.0598
 2290SOL    HW1 7769   1.283   5.139   0.145  1.2140  1.0406  0.3382
 2290SOL    HW2 7770   1.259   5.166  -0.014  0.4441  0.8922  0.4273
 2291SOL     OW 7771   1.122   3.120   2.064  0.5308  0.1082 -0.6168
 2291SOL    HW1 7772   1.161   3.210   2.043  1.6940 -0.4761 -1.0147
 2291SOL    HW2 7773   1.195   3.052   2.070 -0.3906 -0.9452 -0.9697
 2292SOL     OW 7774   1.864   0.810   6.177  0.4303 -0.0536 -0.5710
 2292SOL    HW1 7775   1.889   0.907   6.176 -1.1703  0.4285  0.6334
 2292SOL    HW2 7776   1.915   0.763   6.249  0.1196  0.2431 -0.1514
 2293SOL     OW 7777   5.742   6.366   1.772 -0.3726  0.0682 -0.3363
 2293SOL    HW1 7778   5.818   6.304   1.792 -0.0186 -0.7635 -3.7163
 2293SOL    HW2 7779   5.691   6.384   1.856  4.3607  1.9364  2.5461
 2294SOL     OW 7780   4.021   5.532   6.504 -0.3624 -0.4764 -0.4813
 2294SOL    HW1 7781   3.936   5.585   6.511 -1.2593 -2.1171  2.2305
 2294SOL    HW2 7782   4.016   5.452   6.563  2.7224 -1.1909 -1.0098
 2295SOL     OW 7783   3.108   1.169   0.279  0.0009 -0.8755 -0.3211
 2295SOL    HW1 7784   3.206   1.186   0.265 -0.3504  0.0248 -1.9569
 2295SOL    HW2 7785   3.096   1.100   0.350  1.7396  1.4919  2.4942
 2296SOL     OW 7786   3.493   1.885   0.035 -0.8188  0.2752  0.0446
 2296SOL    HW1 7787   3.494   1.787   0.055 -0.5922  0.0081 -1.1832
 2296SOL    HW2 7788   3.406   1.910  -0.006 -1.3966  0.8743  1.5461
 2297SOL     OW 7789   4.622   6.232   5.950 -0.0877  0.5619  0.1369
 2297SOL    HW1 7790   4.683   6.253   6.026  0.0250 -0.4662  0.3407
 2297SOL    HW2 7791   4.674   6.228   5.865  0.0366  0.2018  0.2322
 2298SOL     OW 7792   4.138   1.959   0.900 -0.2195  0.0869 -0.5914
 2298SOL    HW1 7793   4.201   1.950   0.977 -0.3098  2.2632 -0.2113
 2298SOL    HW2 7794   4.052   1.999   0.931 -0.5429  0.3080 -1.7077
 2299SOL     OW 7795   4.670   0.548   1.007 -0.0712 -0.0315 -0.3966
 2299SOL    HW1 7796   4.712   0.530   1.095  0.4460 -2.3766 -1.0521
 2299SOL    HW2 7797   4.576   0.580   1.021  0.9997  2.9170  1.0022
 2300SOL     OW 7798   1.556   4.998   0.874 -0.2767 -0.0696  0.1287
 2300SOL    HW1 7799   1.512   5.012   0.963 -0.4816 -1.2095  0.2255
 2300SOL    HW2 7800   1.510   4.923   0.826  0.3724 -0.0218 -0.5747
 2301SOL     OW 7801   3.171   3.487   1.806  0.1824  0.9062  0.0431
 2301SOL    HW1 7802   3.220   3.515   1.724  1.2657  1.0512  0.7270
 2301SOL    HW2 7803   3.221   3.516   1.887 -1.3562  1.6274  0.7818
 2302SOL     OW 7804   1.334   3.982   3.844  0.5221  0.1350 -0.2504
 2302SOL    HW1 7805   1.243   3.940   3.849 -0.1761  1.5480 -0.6438
 2302SOL    HW2 7806   1.371   3.969   3.752 -0.0723  1.0947 -0.6435
 2303SOL     OW 7807   5.624   2.434   4.542  0.4591  0.2909  0.3531
 2303SOL    HW1 7808   5.716   2.394   4.542  0.2143 -0.3878 -1.5867
 2303SOL    HW2 7809   5.569   2.392   4.614  1.4654  0.2473  1.1239
 2304SOL     OW 7810   6.221   0.825   3.445  0.1404  0.3528  0.0191
 2304SOL    HW1 7811   6.244   0.873   3.529  0.1257  0.1843  0.1212
 2304SOL    HW2 7812   6.270   0.737   3.443 -0.1019  0.2175  0.0009
 2305SOL     OW 7813   2.466   4.639   1.332  0.2543 -0.2123 -0.5067
 2305SOL    HW1 7814   2.370   4.664   1.322  0.2066 -0.5035 -0.8084
 2305SOL    HW2 7815   2.486   4.560   1.274  0.0126 -1.9263  1.6034
 2306SOL     OW 7816   0.424   4.282   1.897 -0.0697 -0.6923  0.3112
 2306SOL    HW1 7817   0.432   4.245   1.804  0.5002  1.0898 -0.3904
 2306SOL    HW2 7818   0.508   4.263   1.947  0.5046  0.2134 -0.2786
 2307SOL     OW 7819   1.068   1.597   2.456 -0.2933  0.2021  0.3758
 2307SOL    HW1 7820   1.146   1.582   2.517  0.9250  0.7894 -0.9860
 2307SOL    HW2 7821   0.986   1.557   2.497  0.2960  1.2407  2.7493
 2308SOL     OW 7822   5.987   6.353   2.302  0.0496 -0.0818 -0.5475
 2308SOL    HW1 7823   6.048   6.273   2.302 -1.9908 -1.7211 -0.9615
 2308SOL    HW2 7824   5.942   6.360   2.390 -0.3241  0.1702 -0.7593
 2309SOL     OW 7825   4.359   4.543   6.523  0.3433  0.0225  0.0969
 2309SOL    HW1 7826   4.443   4.489   6.526  0.3256 -0.1483 -1.8011
 2309SOL    HW2 7827   4.295   4.502   6.459  0.4408  2.4049 -1.6667
 2310SOL     OW 7828   0.616   3.015   2.202 -0.0186 -0.1340  0.0259
 2310SOL    HW1 7829   0.521   2.986   2.214  0.2811 -1.3736 -0.4070
 2310SOL    HW2 7830   0.649   3.057   2.287 -1.0942  0.7912  0.0127
 2311SOL     OW 7831   3.286   0.791   1.583 -0.2071  0.1562 -0.3661
 2311SOL    HW1 7832   3.262   0.698   1.612 -0.6737 -0.2868 -2.0731
 2311SOL    HW2 7833   3.202   0.844   1.569  0.0323  0.5533 -0.3165
 2312SOL     OW 7834   1.546   2.647   4.191  0.4913 -0.2255 -0.5600
 2312SOL    HW1 7835   1.570   2.641   4.288  0.7684 -0.3690 -0.6346
 2312SOL    HW2 7836   1.611   2.592   4.138  0.3169 -0.1787 -0.8223
 2313SOL     OW 7837   2.669   2.322   0.354  0.2043 -0.0331  0.3856
 2313SOL    HW1 7838   2.622   2.309   0.267  1.8295 -0.3090 -0.4942
 2313SOL    HW2 7839   2.694   2.418   0.364 -1.4017  0.3134  1.3355
 2314SOL     OW 7840   0.809   0.465   3.706  0.6820 -0.2797  0.0266
 2314SOL    HW1 7841   0.838   0.560   3.710  0.6987 -0.2746 -0.2031
 2314SOL    HW2 7842   0.790   0.440   3.611 -1.7156  0.2194  0.3094
 2315SOL     OW 7843   5.290   5.097   2.829 -0.6969  0.0623  0.0404
 2315SOL    HW1 7844   5.350   5.174   2.850 -1.1365  0.7368 -1.0540
 2315SOL    HW2 7845   5.307   5.023   2.893  0.6644  0.5756  0.3092
 2316SOL     OW 7846   1.059   3.604   5.835 -0.3090  0.4741  0.9486
 2316SOL    HW1 7847   1.036   3.548   5.756 -1.6493 -0.1905  1.7656
 2316SOL    HW2 7848   1.103   3.547   5.904  0.1522  0.8742  0.9860
 2317SOL     OW 7849   6.487   4.995   3.151 -0.4066  0.0592  0.1482
 2317SOL    HW1 7850   6.410   5.008   3.214  0.3864  0.7167  1.0240
 2317SOL    HW2 7851   6.458   5.017   3.058 -1.1083  1.0072  0.5660
 2318SOL     OW 7852   6.693   5.680   5.515  0.5020 -0.8966 -0.7735
 2318SOL    HW1 7853   6.598   5.709   5.521  0.6271 -0.7478  0.8124
 2318SOL    HW2 7854   6.751   5.760   5.498  0.6026 -0.5089  1.1621
 2319SOL     OW 7855   0.786   4.876   4.296  0.1550 -0.2955  0.6084
 2319SOL    HW1 7856   0.880   4.879   4.260 -0.1479  0.4043 -0.1796
 2319SOL    HW2 7857   0.725   4.920   4.230 -0.7411 -0.8168  1.0821
 2320SOL     OW 7858   0.026   2.414   4.283 -0.2255  0.1245 -0.2608
 2320SOL    HW1 7859   0.053   2.478   4.355 -0.6529  0.0490 -0.0301
 2320SOL    HW2 7860   0.089   2.422   4.205  0.2176  0.2283  0.1087
 2321SOL     OW 7861   1.149   4.257   5.054 -0.8226 -0.6445  0.2536
 2321SOL    HW1 7862   1.183   4.302   4.972 -0.0399 -1.5313  0.0745
 2321SOL    HW2 7863   1.098   4.323   5.109 -0.2046  0.3077 -0.2823
 2322SOL     OW 7864   1.678   3.895   0.374 -0.1368  0.0495 -0.5113
 2322SOL    HW1 7865   1.755   3.860   0.428 -0.5474  1.7898  1.3314
 2322SOL    HW2 7866   1.713   3.949   0.297  0.5502  1.1229  0.5089
 2323SOL     OW 7867   1.772   5.367   2.888  0.2372 -0.2447  0.0442
 2323SOL    HW1 7868   1.681   5.329   2.872  1.0505 -2.2634 -0.0715
 2323SOL    HW2 7869   1.774   5.462   2.857 -1.7854 -0.1802 -0.0402
 2324SOL     OW 7870   0.226   4.070   4.167 -0.2786  0.4966  0.5370
 2324SOL    HW1 7871   0.133   4.031   4.171  0.1579 -0.4211  2.8247
 2324SOL    HW2 7872   0.226   4.160   4.210 -0.2421  0.8782 -0.2332
 2325SOL     OW 7873   6.620   6.682   2.866 -0.0036  0.2436 -0.2645
 2325SOL    HW1 7874   6.611   6.717   2.772  0.0479 -0.5604 -0.5775
 2325SOL    HW2 7875   6.549   6.613   2.882 -0.6482  1.0909  0.6303
 2326SOL     OW 7876   1.439   0.138   5.600  0.3519 -0.4759  0.0914
 2326SOL    HW1 7877   1.352   0.124   5.647 -1.6013  1.9681 -2.4991
 2326SOL    HW2 7878   1.512   0.091   5.651 -2.4927 -3.2121  1.9777
 2327SOL     OW 7879   2.413   0.553   2.525  0.0889  0.1557 -0.2172
 2327SOL    HW1 7880   2.318   0.527   2.507 -0.0341  0.2647  0.2546
 2327SOL    HW2 7881   2.414   0.630   2.589  0.5296 -0.6239  0.7210
 2328SOL     OW 7882   2.003   2.868   2.563 -0.4287  0.4430 -0.5006
 2328SOL    HW1 7883   1.943   2.865   2.642  0.4005 -2.6537  0.1663
 2328SOL    HW2 7884   2.056   2.953   2.564 -1.1569  0.9320  1.6981
 2329SOL     OW 7885   6.389   4.664   4.517  0.9489 -0.1270  0.0130
 2329SOL    HW1 7886   6.487   4.653   4.530  0.8918 -0.2626  0.3392
 2329SOL    HW2 7887   6.356   4.599   4.448  1.1975  0.3606 -0.5682
 2330SOL     OW 7888   0.562   2.988   0.893  0.3337  0.1424 -0.0535
 2330SOL    HW1 7889   0.513   3.006   0.978  0.4065  0.9566 -0.1789
 2330SOL    HW2 7890   0.500   3.001   0.815  0.4526  0.0922 -0.1568
 2331SOL     OW 7891   4.064   5.263   0.096  0.4460 -0.1291 -0.3397
 2331SOL    HW1 7892   4.016   5.325   0.034 -3.0930 -2.5752 -0.3671
 2331SOL    HW2 7893   4.051   5.295   0.190 -0.5449 -0.2883 -0.4124
 2332SOL     OW 7894   0.483   0.731   0.941 -0.3395  0.4010  0.3069
 2332SOL    HW1 7895   0.409   0.773   0.992  0.7429  0.2082  2.1276
 2332SOL    HW2 7896   0.503   0.786   0.860  0.6846  3.2419  2.3034
 2333SOL     OW 7897   0.206   3.192   3.536  0.0106  0.1073 -0.1933
 2333SOL    HW1 7898   0.302   3.173   3.515  0.5854 -0.2887  2.3608
 2333SOL    HW2 7899   0.147   3.150   3.468  1.5326 -3.7378  0.6230
 2334SOL     OW 7900   2.360   6.624   6.666  0.3143 -0.7510 -0.3415
 2334SOL    HW1 7901   2.368   6.524   6.665  2.3314 -0.6668 -2.3190
 2334SOL    HW2 7902   2.402   6.661   6.583 -0.0430  1.7852  0.5248
 2335SOL     OW 7903   5.575   6.565   4.865  0.0947 -0.4692  0.1597
 2335SOL    HW1 7904   5.671   6.583   4.846  1.2105 -4.7239  0.6449
 2335SOL    HW2 7905   5.521   6.586   4.783  1.2803  2.2203 -0.0527
 2336SOL     OW 7906   1.663   1.107   1.850 -0.3379 -0.2379 -0.1833
 2336SOL    HW1 7907   1.748   1.155   1.829 -0.7484  0.7777  0.4353
 2336SOL    HW2 7908   1.671   1.064   1.940 -0.4927 -0.1174 -0.1124
 2337SOL     OW 7909   4.183   2.053   2.375 -0.5695  0.2588 -0.1129
 2337SOL    HW1 7910   4.134   2.042   2.462 -1.3377 -0.3006 -0.6025
 2337SOL    HW2 7911   4.128   2.014   2.301  0.8306 -0.8729 -0.6126
 2338SOL     OW 7912   2.080   1.892   3.223 -0.2303  0.1704  0.1915
 2338SOL    HW1 7913   2.019   1.876   3.146 -1.3283 -0.2103  1.1270
 2338SOL    HW2 7914   2.029   1.888   3.309  1.2940 -1.4069  1.0985
 2339SOL     OW 7915   4.122   3.651   3.894 -0.0793  0.0134 -0.0070
 2339SOL    HW1 7916   4.071   3.735   3.877  0.9072  0.2913 -1.9085
 2339SOL    HW2 7917   4.137   3.640   3.992 -3.1947  0.2094  0.5951
 2340SOL     OW 7918   1.856   3.955   5.532 -0.6676  0.8068  0.6342
 2340SOL    HW1 7919   1.877   3.962   5.435 -0.4260  0.9105  0.6928
 2340SOL    HW2 7920   1.777   3.894   5.545 -1.6720  1.9848  0.2515
 2341SOL     OW 7921   1.847   2.865   1.690  0.4852  0.1801 -0.0870
 2341SOL    HW1 7922   1.834   2.836   1.785  1.7724  0.6623  0.2518
 2341SOL    HW2 7923   1.908   2.944   1.687 -1.0619  1.3862 -1.1813
 2342SOL     OW 7924   3.740   5.998   4.057 -0.4056  0.3208  0.2543
 2342SOL    HW1 7925   3.789   6.081   4.081 -1.0459  1.4349 -2.0293
 2342SOL    HW2 7926   3.723   5.996   3.959 -1.6204 -1.8607  0.4393
 2343SOL     OW 7927   0.666   6.331   2.461  0.0645  0.2618  0.1107
 2343SOL    HW1 7928   0.640   6.316   2.557  1.7408  0.8032  0.6833
 2343SOL    HW2 7929   0.669   6.429   2.442 -2.7409  0.1912 -1.2782
 2344SOL     OW 7930   4.687   4.134   0.280 -0.1921 -0.0990  0.2421
 2344SOL    HW1 7931   4.643   4.044   0.277  0.5294 -0.4175 -1.4652
 2344SOL    HW2 7932   4.625   4.203   0.244 -0.0038 -0.2344 -0.3388
 2345SOL     OW 7933   3.943   5.619   3.415  0.1818  0.1665 -0.1025
 2345SOL    HW1 7934   3.868   5.628   3.349  0.5473 -2.9027 -1.1236
 2345SOL    HW2 7935   3.912   5.565   3.493  1.0057 -0.2155 -0.0294
 2346SOL     OW 7936   4.509   3.520   6.242 -0.6538 -0.4502 -0.1382
 2346SOL    HW1 7937   4.470   3.530   6.334  0.5879 -0.4501  0.4131
 2346SOL    HW2 7938   4.497   3.606   6.192  2.4211  1.1448  1.5650
 2347SOL     OW 7939   0.988   2.283   0.394 -0.0898  0.2797 -0.7621
 2347SOL    HW1 7940   1.043   2.213   0.440 -0.9678  0.1717  0.1602
 2347SOL    HW2 7941   1.046   2.335   0.331  0.5926 -1.1836 -1.3642
 2348SOL     OW 7942   0.041   5.186   2.527  0.5026  0.1712 -0.1466
 2348SOL    HW1 7943  -0.020   5.241   2.470  0.1627 -0.8955 -0.8466
 2348SOL    HW2 7944   0.133   5.226   2.527  0.3319  0.5713 -0.8724
 2349SOL     OW 7945   6.370   4.797   4.847 -0.3502 -0.2608 -0.1916
 2349SOL    HW1 7946   6.447   4.751   4.803 -1.0724  0.0010 -1.8251
 2349SOL    HW2 7947   6.359   4.889   4.808 -0.5400  0.3207  1.1546
 2350SOL     OW 7948   5.709   5.262   5.889 -0.3408  0.2881  0.1862
 2350SOL    HW1 7949   5.682   5.313   5.808 -0.1732  0.3406  0.1618
 2350SOL    HW2 7950   5.637   5.267   5.958 -0.9219 -0.6141 -0.3441
 2351SOL     OW 7951   4.616   0.172   1.987  0.0336  0.0246 -0.1954
 2351SOL    HW1 7952   4.627   0.161   2.086 -0.6902 -1.0135 -0.2127
 2351SOL    HW2 7953   4.692   0.226   1.951  2.3336 -2.5774  0.3904
 2352SOL     OW 7954   1.717   2.804   4.821  0.1397  0.1784  0.6053
 2352SOL    HW1 7955   1.682   2.801   4.914 -0.8202  0.9357  0.2843
 2352SOL    HW2 7956   1.706   2.896   4.784  0.9567  0.0050 -0.0909
 2353SOL     OW 7957   4.523   5.366   4.810 -0.2992  0.1743  0.0271
 2353SOL    HW1 7958   4.425   5.354   4.793  0.2263 -1.6203 -2.3403
 2353SOL    HW2 7959   4.552   5.306   4.884 -0.8212  0.0279  0.1168
 2354SOL     OW 7960   3.154   0.162   3.173  0.1920 -0.5646  1.0309
 2354SOL    HW1 7961   3.106   0.163   3.261 -1.1486 -0.0577  0.3235
 2354SOL    HW2 7962   3.135   0.075   3.126  1.2202 -0.9960  1.3970
 2355SOL     OW 7963   4.729   5.476   4.216 -0.1169 -0.1781 -0.5380
 2355SOL    HW1 7964   4.655   5.412   4.240 -0.4990  0.1680 -0.7822
 2355SOL    HW2 7965   4.697   5.570   4.230  0.3251 -0.0307 -0.5200
 2356SOL     OW 7966   6.538   4.594   1.442 -0.5016  0.5281  0.2822
 2356SOL    HW1 7967   6.580   4.507   1.466 -2.6555 -0.6895 -0.1163
 2356SOL    HW2 7968   6.608   4.665   1.439  1.2100 -1.0364  1.2664
 2357SOL     OW 7969   2.770   6.014   2.626  0.4476 -0.2700 -0.2544
 2357SOL    HW1 7970   2.767   6.104   2.669 -0.5050  0.3745 -1.6125
 2357SOL    HW2 7971   2.713   6.014   2.544  0.0663 -2.2548 -0.0351
 2358SOL     OW 7972   3.406   5.179   6.938  0.0158  0.0864 -0.4041
 2358SOL    HW1 7973   3.378   5.085   6.916  0.7669 -0.1571 -0.3756
 2358SOL    HW2 7974   3.414   5.232   6.853 -0.9499  0.2923 -0.3769
 2359SOL     OW 7975   3.258   6.665   3.484  0.1746  0.1597  0.4005
 2359SOL    HW1 7976   3.231   6.702   3.395  0.5791  0.5126  0.4186
 2359SOL    HW2 7977   3.358   6.672   3.494  0.4123 -1.8899 -0.0343
 2360SOL     OW 7978   5.558   4.298   6.283 -0.1875  0.3454  0.2467
 2360SOL    HW1 7979   5.598   4.237   6.215  0.4449  1.0188 -0.0019
 2360SOL    HW2 7980   5.494   4.360   6.238 -0.1581  0.4492  0.3463
 2361SOL     OW 7981   3.036   0.145   6.376 -0.0999 -0.2879 -0.1367
 2361SOL    HW1 7982   3.004   0.140   6.281  0.2443  0.0985 -0.2770
 2361SOL    HW2 7983   2.968   0.195   6.431  0.2286  0.4865 -0.4227
 2362SOL     OW 7984   2.659   6.430   3.283  0.0974  0.3226 -0.1249
 2362SOL    HW1 7985   2.740   6.396   3.234  0.5077  1.7867 -0.5113
 2362SOL    HW2 7986   2.685   6.454   3.376 -0.2988 -0.7999  0.3004
 2363SOL     OW 7987   4.903   5.711   3.170  0.0877  0.3454  0.2831
 2363SOL    HW1 7988   4.907   5.771   3.090 -0.6396 -0.0074 -0.0219
 2363SOL    HW2 7989   4.906   5.616   3.141 -2.5231  0.1344  0.4559
 2364SOL     OW 7990   1.271   2.087   1.267 -0.7397  0.2035  0.2156
 2364SOL    HW1 7991   1.318   2.010   1.223 -0.8651 -0.2444  0.8372
 2364SOL    HW2 7992   1.226   2.143   1.198 -0.1563  0.0536 -0.2988
 2365SOL     OW 7993   6.305   2.145   6.909  0.1258 -0.2130  0.3569
 2365SOL    HW1 7994   6.378   2.141   6.841  0.0625  2.3705  0.0163
 2365SOL    HW2 7995   6.239   2.216   6.882 -0.4761  0.1358  2.5699
 2366SOL     OW 7996   4.370   4.564   3.618 -0.2504  0.0167 -0.4596
 2366SOL    HW1 7997   4.408   4.655   3.634 -0.6247  0.4517 -1.8972
 2366SOL    HW2 7998   4.282   4.556   3.665  0.9318 -0.5519  1.8194
 2367SOL     OW 7999   3.494   4.058   5.594 -0.1901  0.3733 -0.2456
 2367SOL    HW1 8000   3.547   4.117   5.534 -0.1005 -0.1068 -0.6425
 2367SOL    HW2 8001   3.514   3.962   5.573 -0.4986  0.1980  0.2434
 2368SOL     OW 8002   6.557   0.349   1.654 -0.8449 -0.4728 -0.5393
 2368SOL    HW1 8003   6.553   0.297   1.739  0.7019 -2.1115 -1.4015
 2368SOL    HW2 8004   6.639   0.323   1.602 -1.4572  0.8622 -2.2963
 2369SOL     OW 8005   3.614   6.763   3.100 -0.0957  0.0766 -0.0761
 2369SOL    HW1 8006   3.594   6.771   3.198  0.2021 -1.9510  0.2007
 2369SOL    HW2 8007   3.713   6.763   3.086 -0.0495 -1.8702 -0.0726
 2370SOL     OW 8008   4.832   1.257   0.393  0.6247 -0.2257  0.2801
 2370SOL    HW1 8009   4.798   1.243   0.300  0.5265 -0.3472  0.3332
 2370SOL    HW2 8010   4.754   1.274   0.454  0.5627 -1.5102  0.5853
 2371SOL     OW 8011   3.190   6.076   1.038 -0.7220 -0.1019 -0.8446
 2371SOL    HW1 8012   3.148   6.079   1.129  1.0567  0.2444 -0.0037
 2371SOL    HW2 8013   3.276   6.025   1.043 -0.1255  0.7494 -2.1323
 2372SOL     OW 8014   6.730   3.377   0.874 -0.1064 -0.5272 -0.2649
 2372SOL    HW1 8015   6.635   3.396   0.897  0.0241 -0.1394 -0.0467
 2372SOL    HW2 8016   6.734   3.296   0.815 -0.6767  0.1271 -1.2417
 2373SOL     OW 8017   0.662   2.942   5.920  0.1206  0.2181  0.3197
 2373SOL    HW1 8018   0.640   2.845   5.929 -0.5651  0.4818  1.7424
 2373SOL    HW2 8019   0.707   2.958   5.832 -0.6218 -1.2180 -0.3478
 2374SOL     OW 8020   5.675   5.434   3.571 -0.0799 -0.0103 -0.2136
 2374SOL    HW1 8021   5.674   5.405   3.476 -0.3597  0.6048 -0.4043
 2374SOL    HW2 8022   5.583   5.462   3.599  0.0191 -0.0981  0.2088
 2375SOL     OW 8023   2.010   6.093   5.492  0.1602  0.8495 -0.0507
 2375SOL    HW1 8024   1.960   6.007   5.508  0.6987  0.5853  0.2224
 2375SOL    HW2 8025   1.944   6.166   5.476 -0.3203  0.4940  0.2610
 2376SOL     OW 8026   0.488   2.332   4.484  0.0310 -1.1559 -0.7458
 2376SOL    HW1 8027   0.484   2.312   4.582  0.4769 -0.9113 -0.6725
 2376SOL    HW2 8028   0.450   2.255   4.433  0.7018 -1.7158 -0.4187
 2377SOL     OW 8029   3.114   3.561   5.595 -0.0738 -0.7716  0.4728
 2377SOL    HW1 8030   3.131   3.633   5.662  0.9039  1.4432 -1.9896
 2377SOL    HW2 8031   3.200   3.532   5.553 -0.8046 -0.6887 -1.1765
 2378SOL     OW 8032   4.904   1.734   0.545 -0.9485 -0.0507 -0.3486
 2378SOL    HW1 8033   4.997   1.699   0.556 -0.2269  1.5312 -1.1973
 2378SOL    HW2 8034   4.857   1.732   0.634  1.3730  3.0684  1.1313
 2379SOL     OW 8035   5.956   4.891   5.853  0.6974 -0.0338  0.2752
 2379SOL    HW1 8036   5.902   4.973   5.831 -0.7617 -0.3507  2.4318
 2379SOL    HW2 8037   5.915   4.844   5.931  1.8710 -2.5138 -0.5162
 2380SOL     OW 8038   5.561   1.370   2.532 -0.3885  0.2658  0.1783
 2380SOL    HW1 8039   5.630   1.305   2.501  0.6295  0.7760  1.2876
 2380SOL    HW2 8040   5.506   1.328   2.605 -1.1513 -0.0710 -0.5692
 2381SOL     OW 8041   2.024   5.169   3.758  0.1826  0.1435  0.3940
 2381SOL    HW1 8042   2.026   5.069   3.763  0.3437  0.1473  0.4080
 2381SOL    HW2 8043   2.027   5.207   3.851  0.5314  0.1676  0.3744
 2382SOL     OW 8044   0.536   4.150   5.755  0.3193 -0.1057  0.5918
 2382SOL    HW1 8045   0.502   4.063   5.792 -0.4254 -0.4761 -0.8920
 2382SOL    HW2 8046   0.492   4.226   5.803 -0.1819 -0.5633  0.8658
 2383SOL     OW 8047   6.402   5.426   0.827 -0.3825  1.0709  0.4941
 2383SOL    HW1 8048   6.500   5.423   0.846 -0.5350  0.1704  1.2174
 2383SOL    HW2 8049   6.351   5.419   0.913 -1.0909 -1.2302 -0.0576
 2384SOL     OW 8050   4.883   1.926   2.933 -0.1724 -0.4001 -0.1000
 2384SOL    HW1 8051   4.900   2.023   2.919 -0.8058 -0.1772  0.5892
 2384SOL    HW2 8052   4.859   1.910   3.028  2.0690 -1.5633  0.3269
 2385SOL     OW 8053   6.818   1.333   5.324  0.6987  0.0289  0.0711
 2385SOL    HW1 8054   6.760   1.414   5.328  0.6303  0.0901 -1.5602
 2385SOL    HW2 8055   6.874   1.335   5.241 -0.1807 -2.1320 -0.6773
 2386SOL     OW 8056   4.827   6.374   5.073  0.2824 -0.5075 -0.1845
 2386SOL    HW1 8057   4.787   6.318   5.001  2.1673 -1.0491 -0.8737
 2386SOL    HW2 8058   4.859   6.314   5.147  2.3915 -0.4238 -0.9613
 2387SOL     OW 8059   2.333   2.659   4.292  0.5138 -0.5864  0.2752
 2387SOL    HW1 8060   2.255   2.598   4.277 -0.2859  0.5110 -0.2145
 2387SOL    HW2 8061   2.409   2.608   4.332 -0.4224 -1.7039  0.6755
 2388SOL     OW 8062   0.553   1.982   5.051  0.2364 -0.3457 -0.4158
 2388SOL    HW1 8063   0.507   2.067   5.075  0.6425 -0.7307  2.0145
 2388SOL    HW2 8064   0.572   1.981   4.953 -1.1739  1.6347 -0.7770
 2389SOL     OW 8065   3.442   4.900   3.124  0.6899 -0.3074  0.1232
 2389SOL    HW1 8066   3.352   4.864   3.100  1.0729 -1.5660  0.5099
 2389SOL    HW2 8067   3.492   4.926   3.040 -0.4588  1.5723 -0.0472
 2390SOL     OW 8068   3.456   3.963   2.504  0.4730  0.3215  0.1082
 2390SOL    HW1 8069   3.385   4.030   2.480  1.0042  1.1016  0.6749
 2390SOL    HW2 8070   3.482   3.911   2.423  0.5885  1.3192 -0.5072
 2391SOL     OW 8071   3.226   5.047   6.104 -0.2267 -0.3049  0.8450
 2391SOL    HW1 8072   3.268   5.101   6.031 -0.4504 -0.6149  0.4822
 2391SOL    HW2 8073   3.278   5.058   6.188  0.0862 -0.0149  0.6153
 2392SOL     OW 8074   3.960   1.429   6.637  0.7727  0.4341 -0.4051
 2392SOL    HW1 8075   3.997   1.498   6.699 -0.5850 -0.2596  1.2250
 2392SOL    HW2 8076   3.864   1.447   6.619 -0.0979 -1.8353  1.3757
 2393SOL     OW 8077   4.762   6.543   6.489  0.3802 -0.6183  0.3561
 2393SOL    HW1 8078   4.806   6.454   6.502  0.8763 -0.4254  0.0283
 2393SOL    HW2 8079   4.824   6.615   6.519 -0.7835 -0.4544  2.5614
 2394SOL     OW 8080   1.164   5.481   5.637  0.0094  0.0110  0.0145
 2394SOL    HW1 8081   1.123   5.456   5.724 -1.6000  0.2919 -0.6306
 2394SOL    HW2 8082   1.197   5.575   5.641 -1.1091  0.4091 -0.0328
 2395SOL     OW 8083   6.283   0.989   6.068  0.1268 -0.1915 -0.2462
 2395SOL    HW1 8084   6.259   1.085   6.075  0.1564 -0.0554 -1.6958
 2395SOL    HW2 8085   6.218   0.942   6.009  1.2259 -0.6199 -1.1534
 2396SOL     OW 8086   3.076   5.380   0.134  0.4084 -0.7023 -0.0153
 2396SOL    HW1 8087   3.141   5.318   0.178 -2.2519 -1.8645  2.5723
 2396SOL    HW2 8088   3.044   5.447   0.200 -1.1651 -0.2817 -1.1460
 2397SOL     OW 8089   0.295   2.697   2.606 -0.3056  0.4219 -0.0591
 2397SOL    HW1 8090   0.290   2.601   2.579  0.4298  0.8686 -1.9569
 2397SOL    HW2 8091   0.382   2.736   2.575 -0.8450  1.8455  0.1379
 2398SOL     OW 8092   4.031   3.464   0.499  0.1732 -0.7566 -0.2295
 2398SOL    HW1 8093   4.048   3.502   0.590 -0.9719 -0.3805 -0.1568
 2398SOL    HW2 8094   3.938   3.489   0.469  0.6515 -0.5686 -1.6449
 2399SOL     OW 8095   3.962   2.089   2.906 -0.0545 -0.4166  0.9895
 2399SOL    HW1 8096   3.863   2.073   2.898 -0.0814 -0.5431  1.5808
 2399SOL    HW2 8097   3.981   2.140   2.989  0.2631  0.7026  0.2592
 2400SOL     OW 8098   1.508   5.530   3.560  1.2408 -0.2807 -0.0604
 2400SOL    HW1 8099   1.600   5.501   3.534  1.4022  1.2509 -1.3899
 2400SOL    HW2 8100   1.472   5.592   3.490 -0.7072 -0.6326  0.5610
 2401SOL     OW 8101   0.843   1.069   4.500  0.2674  0.1744  0.4040
 2401SOL    HW1 8102   0.814   1.039   4.590  1.6479 -0.0259  0.8008
 2401SOL    HW2 8103   0.943   1.078   4.498  0.4168 -1.3010 -1.5358
 2402SOL     OW 8104   5.949   4.869   3.517 -0.5586  0.6377 -0.1519
 2402SOL    HW1 8105   6.037   4.875   3.564  1.2713  1.9075 -3.4472
 2402SOL    HW2 8106   5.940   4.944   3.452 -3.2137 -0.6098 -1.3835
 2403SOL     OW 8107   0.911   2.048   4.618  0.0963 -0.2362  0.0344
 2403SOL    HW1 8108   0.824   2.001   4.603 -0.4030  1.0433 -1.2295
 2403SOL    HW2 8109   0.949   2.020   4.707 -0.7726 -2.0546 -0.1144
 2404SOL     OW 8110   2.072   6.889   5.873 -0.6082  0.2514 -0.1302
 2404SOL    HW1 8111   2.089   6.839   5.788 -1.0068 -0.3971  0.1606
 2404SOL    HW2 8112   2.000   6.843   5.925 -0.0246  0.3586  0.7974
 2405SOL     OW 8113   2.788   4.635   1.640  0.1611  1.2544  0.3020
 2405SOL    HW1 8114   2.721   4.710   1.634 -1.4620 -0.0872  0.7590
 2405SOL    HW2 8115   2.787   4.597   1.733  0.7245  0.4825  0.0013
 2406SOL     OW 8116   6.244   1.090   1.560  0.2325 -0.3862  0.3270
 2406SOL    HW1 8117   6.168   1.032   1.530 -0.6456  0.7366  0.3055
 2406SOL    HW2 8118   6.304   1.108   1.482  0.5030 -1.2394  0.3315
 2407SOL     OW 8119   5.068   6.586   5.466 -0.0405  0.2775  0.0422
 2407SOL    HW1 8120   5.006   6.577   5.388  0.4303  0.5338 -0.3685
 2407SOL    HW2 8121   5.162   6.576   5.435  0.2155  1.3967  0.3920
 2408SOL     OW 8122   5.835   4.651   2.105 -0.0216 -0.2792 -0.8814
 2408SOL    HW1 8123   5.874   4.704   2.180 -0.9008 -0.5598 -0.2083
 2408SOL    HW2 8124   5.870   4.685   2.018 -0.9147  1.7478 -0.5057
 2409SOL     OW 8125   0.477   4.463   5.953  0.3194 -0.1004 -0.0792
 2409SOL    HW1 8126   0.471   4.430   6.048  0.8672 -0.3849 -0.1386
 2409SOL    HW2 8127   0.407   4.533   5.938 -0.0830 -0.3924  0.3955
 2410SOL     OW 8128   3.928   3.891   1.958 -0.2892  0.0103 -0.0269
 2410SOL    HW1 8129   4.017   3.918   1.993 -0.4183  1.4212 -0.7286
 2410SOL    HW2 8130   3.921   3.791   1.957  1.3891 -0.1180 -0.2762
 2411SOL     OW 8131   5.177   0.334   4.436 -0.3903  0.2560 -0.3528
 2411SOL    HW1 8132   5.182   0.333   4.536  1.5889 -1.4296 -0.4124
 2411SOL    HW2 8133   5.253   0.388   4.399  0.7307 -1.6270 -0.9446
 2412SOL     OW 8134   4.889   2.927   1.212  0.0115  0.2792 -0.4504
 2412SOL    HW1 8135   4.884   2.980   1.297 -1.3116  1.0644 -0.9919
 2412SOL    HW2 8136   4.926   2.984   1.139  2.4124 -0.7846 -0.1549
 2413SOL     OW 8137   6.302   5.479   3.321  0.2960  0.4065 -0.1448
 2413SOL    HW1 8138   6.371   5.419   3.281 -1.1511 -2.6010  1.5322
 2413SOL    HW2 8139   6.211   5.445   3.298 -0.6972  3.4072 -1.0647
 2414SOL     OW 8140   6.867   3.318   3.404  0.1795  0.1005 -0.4345
 2414SOL    HW1 8141   6.912   3.234   3.376  0.5292  0.8454 -2.1971
 2414SOL    HW2 8142   6.776   3.296   3.440 -0.0768 -0.9741 -1.6546
 2415SOL     OW 8143   2.459   1.277   3.666  0.0142  0.1476  0.1500
 2415SOL    HW1 8144   2.441   1.229   3.580 -0.3565  1.9995 -0.8674
 2415SOL    HW2 8145   2.491   1.370   3.646  1.0865  0.2334  2.0267
 2416SOL     OW 8146   5.540   2.044   6.253  0.0718  0.1152 -0.2365
 2416SOL    HW1 8147   5.462   2.024   6.193  0.0797  1.3327 -0.6898
 2416SOL    HW2 8148   5.507   2.069   6.344  0.0538 -1.6174  0.2725
 2417SOL     OW 8149   3.660   3.555   2.838 -0.1638 -0.4614 -0.4846
 2417SOL    HW1 8150   3.580   3.604   2.873  1.2077  0.5306  1.4865
 2417SOL    HW2 8151   3.646   3.457   2.847 -0.6848 -0.2808  1.0635
 2418SOL     OW 8152   3.990   3.151   4.389  0.2580 -0.3201 -0.1527
 2418SOL    HW1 8153   4.043   3.194   4.315 -3.0203 -1.7524 -3.6922
 2418SOL    HW2 8154   3.953   3.223   4.449  1.2424  1.1394 -1.2208
 2419SOL     OW 8155   0.547   6.958   2.991 -0.1570 -0.0958  0.2609
 2419SOL    HW1 8156   0.488   6.935   3.069  0.1958  0.0859  0.5885
 2419SOL    HW2 8157   0.492   7.001   2.919 -0.6130 -0.9146  0.1125
 2420SOL     OW 8158   2.494   0.282   2.916 -0.0396  0.2790  0.5846
 2420SOL    HW1 8159   2.577   0.242   2.954  0.0926 -1.4535 -1.3607
 2420SOL    HW2 8160   2.512   0.316   2.823 -1.4897 -0.2520  0.0621
 2421SOL     OW 8161   3.772   1.659   3.171 -0.1694 -0.0986  0.4131
 2421SOL    HW1 8162   3.764   1.690   3.266 -3.2721  0.0333  0.2030
 2421SOL    HW2 8163   3.733   1.568   3.162 -2.1939  0.8397 -1.1086
 2422SOL     OW 8164   4.790   6.584   0.366 -0.4798 -0.0716  0.2372
 2422SOL    HW1 8165   4.698   6.544   0.374 -2.0498  3.4168  1.7524
 2422SOL    HW2 8166   4.791   6.650   0.292  0.8657 -0.1176  0.1957
 2423SOL     OW 8167   1.736   4.716   3.893 -0.3755 -0.2920 -0.1664
 2423SOL    HW1 8168   1.831   4.688   3.908 -0.4345 -1.3180 -1.4792
 2423SOL    HW2 8169   1.723   4.811   3.921  1.4402  0.3761 -1.4612
 2424SOL     OW 8170   5.507   1.600   0.222 -0.2920 -0.3095  0.1314
 2424SOL    HW1 8171   5.445   1.660   0.273  1.0102  0.1785  1.2206
 2424SOL    HW2 8172   5.586   1.578   0.280 -0.3417 -2.4231 -0.5526
 2425SOL     OW 8173   1.622   5.480   6.054 -0.4375  0.2253 -0.3394
 2425SOL    HW1 8174   1.631   5.563   6.110  0.6013  0.5560 -0.9531
 2425SOL    HW2 8175   1.583   5.505   5.965  0.8596  0.2696 -0.9245
 2426SOL     OW 8176   2.472   4.916   4.933 -0.5980  0.0496 -0.2933
 2426SOL    HW1 8177   2.521   4.839   4.974 -0.9709 -0.3019 -0.5059
 2426SOL    HW2 8178   2.527   4.999   4.944 -0.7046 -0.0235  0.9604
 2427SOL     OW 8179   4.348   1.176   4.523  0.2054  0.0230 -0.2864
 2427SOL    HW1 8180   4.283   1.246   4.493  2.6830  2.5577 -0.2088
 2427SOL    HW2 8181   4.345   1.167   4.622 -0.4803 -0.3763 -0.3408
 2428SOL     OW 8182   5.820   0.026   0.669 -0.0455 -0.0051  0.2562
 2428SOL    HW1 8183   5.774   0.022   0.580 -0.0379  0.2913  0.2374
 2428SOL    HW2 8184   5.807  -0.061   0.717 -0.9350  0.1873  0.3951
 2429SOL     OW 8185   6.535   6.706   2.050 -0.2957 -0.3978 -0.2870
 2429SOL    HW1 8186   6.586   6.628   2.015  2.8891  1.4695 -0.1491
 2429SOL    HW2 8187   6.480   6.677   2.129  1.7211 -2.2718  0.5352
 2430SOL     OW 8188   5.117   1.817   0.916  0.6422 -0.0364  0.6494
 2430SOL    HW1 8189   5.130   1.860   1.006  1.6785 -0.9514  0.9507
 2430SOL    HW2 8190   5.171   1.733   0.911  1.4841  0.5655 -1.2333
 2431SOL     OW 8191   4.381   0.560   1.053 -0.4969 -0.2198  0.1324
 2431SOL    HW1 8192   4.358   0.531   0.961 -3.6389  0.9780  0.4018
 2431SOL    HW2 8193   4.340   0.650   1.071  0.2166 -0.3062  2.6044
 2432SOL     OW 8194   2.927   5.379   2.625  0.1665 -0.1442 -0.0043
 2432SOL    HW1 8195   2.967   5.303   2.575  0.1154  0.6584 -1.3149
 2432SOL    HW2 8196   2.934   5.463   2.570  3.1558  1.5603  2.6542
 2433SOL     OW 8197   4.609   5.372   6.982  0.4205 -0.1261  0.3173
 2433SOL    HW1 8198   4.587   5.281   6.947 -0.8442  0.3805 -0.2782
 2433SOL    HW2 8199   4.591   5.440   6.910  0.1710  0.7018  1.1498
 2434SOL     OW 8200   3.946   2.702   5.564 -0.0235 -0.4353 -0.0316
 2434SOL    HW1 8201   3.901   2.698   5.653  1.3108 -2.0184  0.6028
 2434SOL    HW2 8202   3.876   2.709   5.492 -1.2107 -1.2509  1.0088
 2435SOL     OW 8203   4.374   6.215   5.447  0.6646 -0.3316  0.0332
 2435SOL    HW1 8204   4.311   6.219   5.370  1.2283  0.9105 -0.3938
 2435SOL    HW2 8205   4.391   6.308   5.481  0.3224 -0.8551  1.7508
 2436SOL     OW 8206   4.181   5.426   1.360 -0.2623  0.1500  0.1106
 2436SOL    HW1 8207   4.185   5.340   1.411 -0.3514  0.1589  0.1343
 2436SOL    HW2 8208   4.213   5.501   1.418 -0.5098  0.1829  0.2081
 2437SOL     OW 8209   1.168   1.788   5.913  0.5073 -0.2988 -0.1566
 2437SOL    HW1 8210   1.263   1.757   5.926 -0.0973 -1.5057  1.9935
 2437SOL    HW2 8211   1.143   1.850   5.988 -0.7964 -1.0915  0.0971
 2438SOL     OW 8212   3.147   2.125   5.712  0.4906 -0.7615 -0.1498
 2438SOL    HW1 8213   3.240   2.157   5.692  0.0803  0.2454 -0.5160
 2438SOL    HW2 8214   3.093   2.202   5.746  0.1400 -1.6215  1.3140
 2439SOL     OW 8215   3.531   3.799   6.051  0.2162 -0.8603 -0.7394
 2439SOL    HW1 8216   3.467   3.840   5.988  0.0314 -0.8279 -0.5317
 2439SOL    HW2 8217   3.609   3.860   6.066 -0.2646 -0.3894 -0.0966
 2440SOL     OW 8218   6.030   3.900   6.359  0.2440 -0.4332 -0.2100
 2440SOL    HW1 8219   6.095   3.901   6.435 -1.4174  1.2244  1.3304
 2440SOL    HW2 8220   5.950   3.846   6.385  0.5877 -1.7546 -1.7442
 2441SOL     OW 8221   5.680   2.272   2.454 -0.5579  0.1696 -0.1168
 2441SOL    HW1 8222   5.597   2.313   2.418 -1.0005  1.1268  1.8413
 2441SOL    HW2 8223   5.750   2.270   2.383 -2.1082 -0.3552 -1.7103
 2442SOL     OW 8224   6.927   2.560   6.354  0.1463  0.5478  0.9140
 2442SOL    HW1 8225   6.900   2.648   6.393  1.3913  1.3583  0.0608
 2442SOL    HW2 8226   7.003   2.575   6.290  0.2076 -1.1260  0.5596
 2443SOL     OW 8227   2.297   5.600   4.687 -0.7004 -0.6852  0.2699
 2443SOL    HW1 8228   2.322   5.556   4.601  0.1756 -1.2031  0.7817
 2443SOL    HW2 8229   2.357   5.678   4.702 -1.5709  0.0836 -0.1159
 2444SOL     OW 8230   2.396   0.572   6.050  0.1176 -0.3081  0.4906
 2444SOL    HW1 8231   2.326   0.553   5.981 -0.5864  0.9654  0.8091
 2444SOL    HW2 8232   2.376   0.520   6.133 -0.0690 -0.4604  0.3516
 2445SOL     OW 8233   0.101   6.161   1.559  0.5344  0.4578  0.6509
 2445SOL    HW1 8234   0.039   6.139   1.484  1.2588  2.6438 -0.6832
 2445SOL    HW2 8235   0.068   6.242   1.608  0.3469 -0.6338  2.4214
 2446SOL     OW 8236   3.458   1.404   6.527 -0.1144  0.5238  0.4934
 2446SOL    HW1 8237   3.415   1.315   6.512  1.6695 -0.5891  1.6404
 2446SOL    HW2 8238   3.399   1.476   6.490 -2.3779 -0.9837  0.9855
 2447SOL     OW 8239   6.698   2.175   6.561  0.1052 -0.2826 -0.6972
 2447SOL    HW1 8240   6.754   2.093   6.575  0.2435 -0.3850 -1.7535
 2447SOL    HW2 8241   6.738   2.230   6.488  0.7762  1.4378  0.8939
 2448SOL     OW 8242   0.533   6.885   4.055  0.0316  0.0302  0.7811
 2448SOL    HW1 8243   0.441   6.873   4.016  0.0765 -1.5073  1.0718
 2448SOL    HW2 8244   0.578   6.796   4.061  2.4413  0.9695 -1.4510
 2449SOL     OW 8245   0.647   3.345   4.347  0.2180 -0.6303 -0.1510
 2449SOL    HW1 8246   0.695   3.381   4.427 -0.1878  1.3792 -0.7419
 2449SOL    HW2 8247   0.700   3.364   4.265 -0.6724 -0.0908 -0.6162
 2450SOL     OW 8248   2.402   2.310   1.029  0.1888  0.2995  0.1479
 2450SOL    HW1 8249   2.389   2.393   0.975 -0.1615 -0.3730 -0.8271
 2450SOL    HW2 8250   2.313   2.277   1.060  0.2853  0.0200  0.1236
 2451SOL     OW 8251   2.715   6.170   5.626  0.2636 -0.5183  0.6300
 2451SOL    HW1 8252   2.651   6.093   5.619 -0.8031  0.2131  1.9095
 2451SOL    HW2 8253   2.701   6.217   5.712  0.7361  1.2775 -0.2291
 2452SOL     OW 8254   2.707   1.929   4.197  0.1928  0.0270  0.9723
 2452SOL    HW1 8255   2.659   2.015   4.179  1.8646  0.8703  0.4084
 2452SOL    HW2 8256   2.722   1.920   4.295 -0.6904 -0.0280  1.1135
 2453SOL     OW 8257   0.707   5.822   0.544 -0.2921 -0.1688  0.7417
 2453SOL    HW1 8258   0.801   5.854   0.540  0.9394 -2.6632  4.3054
 2453SOL    HW2 8259   0.703   5.727   0.513 -1.4532 -0.3435  1.3638
 2454SOL     OW 8260   0.787   1.585   1.584  0.1784  0.2880  0.2392
 2454SOL    HW1 8261   0.816   1.594   1.489 -0.1464  1.1395  0.2135
 2454SOL    HW2 8262   0.739   1.498   1.597 -0.3917  0.4846 -0.5359
 2455SOL     OW 8263   6.506   3.325   3.095  0.3636 -0.9309 -0.1430
 2455SOL    HW1 8264   6.483   3.228   3.082  0.4886 -1.0092  0.2194
 2455SOL    HW2 8265   6.510   3.346   3.193 -1.5481 -0.1101 -0.2072
 2456SOL     OW 8266   1.941   6.366   6.202 -0.8478 -0.3970 -0.0481
 2456SOL    HW1 8267   1.888   6.397   6.124  0.1666 -2.1004 -1.4855
 2456SOL    HW2 8268   1.988   6.281   6.179 -1.0386 -1.3352  2.6468
 2457SOL     OW 8269   6.273   6.398   1.771 -0.2108 -0.3990 -0.0535
 2457SOL    HW1 8270   6.218   6.450   1.837 -0.1677  0.9471 -1.0334
 2457SOL    HW2 8271   6.217   6.379   1.690  0.7813  1.2105 -1.1718
 2458SOL     OW 8272   0.105   6.358   2.308 -0.1393 -0.0947  0.2137
 2458SOL    HW1 8273   0.123   6.446   2.263  1.0413 -1.1639 -1.5561
 2458SOL    HW2 8274   0.087   6.288   2.238  2.3363 -1.9652  1.2786
 2459SOL     OW 8275   6.477   2.038   5.837 -0.1152 -0.4019 -0.0583
 2459SOL    HW1 8276   6.530   2.103   5.783  2.2744 -1.8903  0.3571
 2459SOL    HW2 8277   6.446   1.962   5.780  0.4842 -0.8530  0.2073
 2460SOL     OW 8278   3.444   3.817   6.944  0.1295 -0.0289  0.1660
 2460SOL    HW1 8279   3.446   3.914   6.920 -2.1973  0.0337 -0.0402
 2460SOL    HW2 8280   3.537   3.781   6.947  0.9542  1.6964 -1.8315
 2461SOL     OW 8281   5.541   2.029   3.614  0.1410  0.2311 -0.0474
 2461SOL    HW1 8282   5.498   1.949   3.658  2.2323 -0.9139  0.0238
 2461SOL    HW2 8283   5.581   2.001   3.527  1.6619  0.9950  0.3846
 2462SOL     OW 8284   2.754   3.355   5.353  0.1617 -0.2133 -0.4714
 2462SOL    HW1 8285   2.803   3.436   5.323  0.0393 -0.1132 -0.4021
 2462SOL    HW2 8286   2.664   3.351   5.309 -1.0524  1.2474  1.6990
 2463SOL     OW 8287   0.004   4.821   4.598  0.1465 -0.2230  0.8069
 2463SOL    HW1 8288   0.077   4.888   4.582  0.9363 -1.0229  0.9585
 2463SOL    HW2 8289   0.040   4.729   4.584 -0.1996 -0.7778  3.1025
 2464SOL     OW 8290   1.399   2.068   6.946 -0.0119  0.8302 -0.0516
 2464SOL    HW1 8291   1.403   2.006   7.024 -0.3792 -0.0675 -0.7361
 2464SOL    HW2 8292   1.492   2.095   6.920  0.2834 -1.0343 -1.0077
 2465SOL     OW 8293   4.254   5.234   1.538 -0.1408  0.1369  0.1613
 2465SOL    HW1 8294   4.340   5.220   1.587  0.0294 -2.2435 -0.7145
 2465SOL    HW2 8295   4.177   5.209   1.598 -0.0133 -1.2543 -0.2345
 2466SOL     OW 8296   2.848   2.087   2.380  0.0251 -0.0556  1.1931
 2466SOL    HW1 8297   2.889   1.996   2.374  0.8484  0.3463  0.4944
 2466SOL    HW2 8298   2.780   2.089   2.453 -0.1822 -1.3018  1.0464
 2467SOL     OW 8299   1.252   2.318   4.582  0.0302  0.4946 -0.0541
 2467SOL    HW1 8300   1.286   2.375   4.657  0.8493  0.1504 -0.1448
 2467SOL    HW2 8301   1.295   2.346   4.497  0.6348 -0.3980 -0.0596
 2468SOL     OW 8302   5.450   3.782   0.124 -0.2758  0.7592  0.7508
 2468SOL    HW1 8303   5.470   3.866   0.073 -0.4588 -0.2599 -1.1225
 2468SOL    HW2 8304   5.435   3.803   0.220  0.6017  2.7351  0.4958
 2469SOL     OW 8305   1.633   1.464   5.676 -0.4582 -0.1142  0.7292
 2469SOL    HW1 8306   1.677   1.464   5.766  0.7531  1.0494  0.1730
 2469SOL    HW2 8307   1.616   1.558   5.648 -1.3948 -0.4907  0.0043
 2470SOL     OW 8308   0.437   3.072   1.223 -0.4314 -0.3865  0.2283
 2470SOL    HW1 8309   0.349   3.057   1.267 -0.3849 -0.3001  0.3505
 2470SOL    HW2 8310   0.507   3.087   1.292 -0.7799  2.1971  0.1327
 2471SOL     OW 8311   1.734   0.276   2.347 -0.5054 -0.2570  0.2280
 2471SOL    HW1 8312   1.727   0.366   2.389 -3.2405 -0.6937  0.9243
 2471SOL    HW2 8313   1.807   0.224   2.391  0.0929  1.0898  0.8582
 2472SOL     OW 8314   6.850   0.753   3.619  0.2184  0.0768  0.3758
 2472SOL    HW1 8315   6.760   0.760   3.576 -0.2233  1.1932  1.4295
 2472SOL    HW2 8316   6.879   0.658   3.618 -1.4914 -0.5023  1.0140
 2473SOL     OW 8317   1.585   6.217   6.065 -0.5009 -0.1638  0.0939
 2473SOL    HW1 8318   1.488   6.196   6.076 -0.0822 -1.6304  1.3372
 2473SOL    HW2 8319   1.607   6.303   6.111 -1.3687  0.7097 -1.0538
 2474SOL     OW 8320   6.137   1.190   2.259  0.7149  0.1846 -0.4162
 2474SOL    HW1 8321   6.232   1.165   2.274  0.7407  0.1155 -0.6995
 2474SOL    HW2 8322   6.128   1.237   2.171  0.7230  1.4347  0.2267
 2475SOL     OW 8323   5.339   2.043   6.499  0.6066 -0.0569  0.4124
 2475SOL    HW1 8324   5.384   2.124   6.537 -1.4294  1.7702 -0.8755
 2475SOL    HW2 8325   5.259   2.021   6.554  1.7156 -1.9445  1.3853
 2476SOL     OW 8326   2.186   0.261   2.985  0.2483  0.1547 -0.2852
 2476SOL    HW1 8327   2.188   0.250   3.084  0.0775  0.0867 -0.2904
 2476SOL    HW2 8328   2.280   0.268   2.951  0.4536 -2.4094 -0.4065
 2477SOL     OW 8329   5.595   5.916   1.234 -0.2814  0.1475  0.0651
 2477SOL    HW1 8330   5.592   5.975   1.315  2.0697 -1.7370  1.6788
 2477SOL    HW2 8331   5.650   5.959   1.163  1.4699 -0.0597  1.2426
 2478SOL     OW 8332   1.132   6.589   2.167 -0.7782 -0.1268 -0.3746
 2478SOL    HW1 8333   1.080   6.572   2.084 -0.8236  0.6344 -0.5163
 2478SOL    HW2 8334   1.155   6.503   2.211 -2.3364 -0.4802 -0.1960
 2479SOL     OW 8335   0.463   3.127   0.161 -0.1473  0.4878  0.1726
 2479SOL    HW1 8336   0.466   3.033   0.125 -1.3224  0.2394  0.6857
 2479SOL    HW2 8337   0.532   3.137   0.232 -2.2297 -1.0773  2.5647
 2480SOL     OW 8338   6.194   6.028   1.796  0.4732  0.5221 -0.1998
 2480SOL    HW1 8339   6.246   6.097   1.847  1.7229  0.9377 -1.9486
 2480SOL    HW2 8340   6.211   5.938   1.835  1.1824  0.8572  0.2908
 2481SOL     OW 8341   4.098   3.753   0.627  0.3790 -0.1347  0.1516
 2481SOL    HW1 8342   4.168   3.765   0.557  0.6355 -0.6096  0.3270
 2481SOL    HW2 8343   4.015   3.803   0.600  0.2582 -0.8279 -0.8009
 2482SOL     OW 8344   4.269   1.668   2.997 -0.2785 -0.0123  0.4876
 2482SOL    HW1 8345   4.228   1.593   2.945  1.9183  0.9294 -2.9998
 2482SOL    HW2 8346   4.346   1.634   3.050 -0.5726 -0.5432  0.5754
 2483SOL     OW 8347   6.830   4.094   6.966  0.4640  0.9255 -0.0274
 2483SOL    HW1 8348   6.847   4.081   6.868  2.6377 -0.4312  0.4790
 2483SOL    HW2 8349   6.747   4.044   6.992  0.1114  0.9405 -1.0890
 2484SOL     OW 8350   4.258   5.565   6.169 -0.4128  0.1826  0.4275
 2484SOL    HW1 8351   4.328   5.628   6.135 -2.7528  3.8938  1.8966
 2484SOL    HW2 8352   4.235   5.588   6.263 -1.4555 -3.0291  1.1023
 2485SOL     OW 8353   1.617   5.597   5.308 -0.3050  0.1609  0.2296
 2485SOL    HW1 8354   1.588   5.637   5.395  0.6800  2.7698 -0.5266
 2485SOL    HW2 8355   1.538   5.586   5.249 -0.6230  1.2285  0.4248
 2486SOL     OW 8356   6.946   5.682   3.924 -0.3209  0.2949  0.4193
 2486SOL    HW1 8357   6.964   5.584   3.930 -2.4249 -0.0751  1.3210
 2486SOL    HW2 8358   6.972   5.726   4.010 -0.2288  0.4001  0.3396
 2487SOL     OW 8359   3.738   2.639   1.756  0.0088 -0.3094 -0.7437
 2487SOL    HW1 8360   3.744   2.587   1.842 -2.6071  1.0068  0.3431
 2487SOL    HW2 8361   3.748   2.736   1.775  0.7506 -0.0781 -2.1737
 2488SOL     OW 8362   3.129   0.534   5.709 -0.8396 -0.0113 -0.3075
 2488SOL    HW1 8363   3.047   0.483   5.684 -1.5310  0.2532  1.3310
 2488SOL    HW2 8364   3.103   0.617   5.757  0.3885 -1.1812  2.6089
 2489SOL     OW 8365   0.133   6.651   5.767 -0.3363  0.2783 -0.1524
 2489SOL    HW1 8366   0.125   6.751   5.772  0.8916  0.3598  0.4958
 2489SOL    HW2 8367   0.210   6.626   5.709  0.4783 -0.2267  1.0919
 2490SOL     OW 8368   5.692   4.519   0.962 -0.2333 -0.3270 -0.2966
 2490SOL    HW1 8369   5.681   4.599   1.021 -1.2063 -0.0562 -0.8250
 2490SOL    HW2 8370   5.615   4.457   0.975 -0.1913 -0.5130 -0.8958
 2491SOL     OW 8371   0.109   5.225   3.755  0.2180 -0.2197  0.4500
 2491SOL    HW1 8372   0.077   5.296   3.693  1.8490  0.0823 -0.1003
 2491SOL    HW2 8373   0.182   5.262   3.813  0.2031 -1.0969  1.0464
 2492SOL     OW 8374   3.818   1.287   6.036  0.0623  0.2752 -0.1913
 2492SOL    HW1 8375   3.752   1.255   6.104  0.3552 -0.0354 -0.0515
 2492SOL    HW2 8376   3.770   1.333   5.962 -0.2468  0.7799  0.3193
 2493SOL     OW 8377   5.292   1.415   4.989  0.0101  0.0920  0.0867
 2493SOL    HW1 8378   5.197   1.444   4.997  0.1204  0.2457  0.9285
 2493SOL    HW2 8379   5.299   1.343   4.919 -0.7824 -0.1887  0.2829
 2494SOL     OW 8380   2.539   3.796   0.200 -0.0394  0.1397 -0.3335
 2494SOL    HW1 8381   2.554   3.719   0.262  1.0221  0.3472 -0.3186
 2494SOL    HW2 8382   2.533   3.881   0.253  1.5896  0.4129 -0.5297
 2495SOL     OW 8383   6.074   6.954   3.900  0.0973  0.1796 -0.4522
 2495SOL    HW1 8384   6.148   6.979   3.962 -0.7995 -1.5200  1.4021
 2495SOL    HW2 8385   6.101   6.874   3.846 -0.8434 -1.3716  1.2847
 2496SOL     OW 8386   1.606   5.101   6.709 -0.6900 -0.0634 -0.1563
 2496SOL    HW1 8387   1.684   5.056   6.665  0.8539  0.4718  1.8875
 2496SOL    HW2 8388   1.626   5.113   6.806 -2.3232  2.2953 -0.0499
 2497SOL     OW 8389   3.817   1.065   5.289 -0.1553  0.2030  0.0543
 2497SOL    HW1 8390   3.810   1.023   5.379  2.4404  0.6455  0.5269
 2497SOL    HW2 8391   3.817   0.994   5.218  0.8919 -0.3874  0.6255
 2498SOL     OW 8392   0.110   3.697   4.591  0.0935  0.6513 -0.2772
 2498SOL    HW1 8393   0.111   3.794   4.565  3.4390  1.3520  1.7855
 2498SOL    HW2 8394   0.095   3.690   4.690 -1.6325 -1.1321 -0.6002
 2499SOL     OW 8395   4.084   1.537   6.394  0.5056 -0.7577  0.3316
 2499SOL    HW1 8396   4.014   1.518   6.463  0.0127 -0.4851 -0.0902
 2499SOL    HW2 8397   4.073   1.630   6.359 -0.5345 -1.5334 -1.5581
 2500SOL     OW 8398   1.767   2.374   0.356 -0.2211  0.0052  0.0119
 2500SOL    HW1 8399   1.767   2.293   0.299 -3.9388 -1.3103  1.5355
 2500SOL    HW2 8400   1.707   2.443   0.315 -0.1207  0.4400  0.5825
 2501SOL     OW 8401   0.372   4.080   2.539  0.4313 -0.1174 -0.0508
 2501SOL    HW1 8402   0.349   4.169   2.576  0.0050  0.1162 -0.8505
 2501SOL    HW2 8403   0.346   4.009   2.604  0.4217  0.3176  0.4275
 2502SOL     OW 8404   2.173   1.680   4.916 -0.4280 -0.0798 -0.0118
 2502SOL    HW1 8405   2.117   1.762   4.913 -1.0864 -0.4564 -3.9746
 2502SOL    HW2 8406   2.269   1.705   4.900 -0.5316  0.0254 -0.5038
 2503SOL     OW 8407   6.991   6.305   3.143  0.1278  0.0531 -0.8677
 2503SOL    HW1 8408   7.056   6.230   3.137 -2.0287 -2.0845  0.7492
 2503SOL    HW2 8409   6.976   6.330   3.238 -1.9700 -0.0767 -1.1152
 2504SOL     OW 8410   3.463   5.813   2.589  1.1443  0.0897  0.9137
 2504SOL    HW1 8411   3.525   5.765   2.527  0.4978 -0.6241  0.8054
 2504SOL    HW2 8412   3.441   5.754   2.667 -1.6409 -0.8795 -0.4454
 2505SOL     OW 8413   5.515   3.948   4.616 -0.1786  0.4845 -0.0150
 2505SOL    HW1 8414   5.610   3.919   4.630 -0.6954 -0.9006  0.7231
 2505SOL    HW2 8415   5.493   3.946   4.519 -0.6782 -3.3786  0.0314
 2506SOL     OW 8416   0.268   2.572   1.383 -0.1787  0.5058  0.2475
 2506SOL    HW1 8417   0.336   2.642   1.364  1.0793 -0.9096 -0.7654
 2506SOL    HW2 8418   0.191   2.612   1.433  0.5178  2.5509 -0.2229
 2507SOL     OW 8419   6.418   4.844   0.704  0.7022  0.6863  0.3160
 2507SOL    HW1 8420   6.356   4.830   0.627 -3.3220  2.3512  2.9203
 2507SOL    HW2 8421   6.484   4.915   0.681 -1.2112  2.0743 -1.2598
 2508SOL     OW 8422   1.177   2.889   1.522  0.1934  0.6056  0.8892
 2508SOL    HW1 8423   1.099   2.928   1.472 -0.6733 -1.2439  0.7278
 2508SOL    HW2 8424   1.261   2.905   1.471 -0.7454 -1.8819 -1.6832
 2509SOL     OW 8425   4.982   1.226   2.642  0.1224 -0.8022 -0.4868
 2509SOL    HW1 8426   5.063   1.170   2.624  0.2527 -0.8957  0.3391
 2509SOL    HW2 8427   4.948   1.264   2.556 -1.3567 -4.0091 -1.5035
 2510SOL     OW 8428   4.619   5.732   1.048  0.5600  0.3145  0.2485
 2510SOL    HW1 8429   4.532   5.683   1.045  1.3183 -1.1163  0.4936
 2510SOL    HW2 8430   4.657   5.738   0.956  1.3521 -1.2923  0.4332
 2511SOL     OW 8431   7.015   6.005   5.289 -0.3660 -0.4282  0.7712
 2511SOL    HW1 8432   7.061   6.004   5.378 -1.1274  1.7266  1.2474
 2511SOL    HW2 8433   6.962   6.090   5.280 -0.1640 -0.5148 -1.8171
 2512SOL     OW 8434   5.721   3.952   4.163 -0.3049  0.5241  0.3200
 2512SOL    HW1 8435   5.810   3.992   4.185  0.1435 -1.5186  2.5873
 2512SOL    HW2 8436   5.727   3.905   4.075  1.8809 -2.1328  1.7270
 2513SOL     OW 8437   1.987   5.717   5.994  0.6962  0.4105 -0.4540
 2513SOL    HW1 8438   1.969   5.627   6.033  1.5583 -0.5582 -2.1769
 2513SOL    HW2 8439   2.059   5.762   6.047  1.3717 -0.5917 -0.4875
 2514SOL     OW 8440   0.338   2.559   4.728 -0.0769 -0.2093 -0.6034
 2514SOL    HW1 8441   0.252   2.510   4.710 -0.9250  0.0040  2.2712
 2514SOL    HW2 8442   0.322   2.657   4.721 -0.8765 -0.0186  2.2676
 2515SOL     OW 8443   0.797   4.087   0.498  0.1397 -0.6771  0.0520
 2515SOL    HW1 8444   0.851   4.021   0.549  0.1376 -0.8471 -0.1638
 2515SOL    HW2 8445   0.714   4.109   0.548 -0.5506 -1.9111 -0.5272
 2516SOL     OW 8446   5.729   0.127   3.489 -0.1446  0.1857  0.4187
 2516SOL    HW1 8447   5.689   0.214   3.517  0.3276  1.1901 -1.8133
 2516SOL    HW2 8448   5.820   0.143   3.451 -0.8515 -0.9569 -1.9228
 2517SOL     OW 8449   1.713   4.898   0.547  0.3713 -0.3063 -0.0582
 2517SOL    HW1 8450   1.692   4.879   0.643  0.1120 -0.6851 -0.1898
 2517SOL    HW2 8451   1.812   4.912   0.537  0.5436 -1.3250  0.0916
 2518SOL     OW 8452   3.077   2.650   5.711 -0.2051  0.4974 -0.3392
 2518SOL    HW1 8453   3.070   2.739   5.668  0.2628  0.1102 -1.2324
 2518SOL    HW2 8454   3.031   2.581   5.654 -2.6425  0.5095  1.4576
 2519SOL     OW 8455   5.995   3.216   5.689  0.7718  0.1921 -0.1010
 2519SOL    HW1 8456   5.975   3.314   5.690  0.2120  0.1104 -1.2436
 2519SOL    HW2 8457   6.085   3.201   5.648  0.3705  0.1767 -1.0098
 2520SOL     OW 8458   1.534   5.034   3.025  0.3386 -0.3440 -0.0370
 2520SOL    HW1 8459   1.468   4.974   2.979  0.3227 -0.1262 -0.3019
 2520SOL    HW2 8460   1.521   5.029   3.124  0.4907 -0.9582 -0.0458
 2521SOL     OW 8461   4.370   5.983   0.387 -0.3403 -0.2804 -0.3508
 2521SOL    HW1 8462   4.318   5.952   0.308 -0.4915 -1.6066  0.2322
 2521SOL    HW2 8463   4.438   5.914   0.411  0.8154  0.8360 -0.2992
 2522SOL     OW 8464   0.711   3.936   4.775  0.4294  0.1685  0.3202
 2522SOL    HW1 8465   0.633   3.999   4.771  0.7229  0.6154  1.3621
 2522SOL    HW2 8466   0.733   3.905   4.683 -0.5956  0.5098 -0.0568
 2523SOL     OW 8467   1.327   2.926   5.612  0.4944  0.3718 -0.5890
 2523SOL    HW1 8468   1.393   3.001   5.612  0.3840  0.4690 -0.4133
 2523SOL    HW2 8469   1.323   2.886   5.520  0.3464  0.7663 -0.7586
 2524SOL     OW 8470   1.833   0.182   4.044  0.1152  0.3680  0.3643
 2524SOL    HW1 8471   1.762   0.150   3.981 -0.6759  0.5876  1.1272
 2524SOL    HW2 8472   1.822   0.136   4.132  1.1136  0.1804  0.3990
 2525SOL     OW 8473   2.230   4.797   1.306 -0.3703  0.0105 -0.7334
 2525SOL    HW1 8474   2.265   4.877   1.356  1.7508 -1.3860  0.1248
 2525SOL    HW2 8475   2.209   4.824   1.212  1.6138  1.3177 -0.8642
 2526SOL     OW 8476   2.680   2.474   3.492  0.4117  0.6658  0.3136
 2526SOL    HW1 8477   2.599   2.531   3.478  1.2302  1.8282  0.1510
 2526SOL    HW2 8478   2.723   2.498   3.579 -0.0834 -0.8253  1.0154
 2527SOL     OW 8479   6.306   5.949   3.575  0.5491  0.0124 -0.0054
 2527SOL    HW1 8480   6.253   5.874   3.535 -0.3836  1.5767 -1.8641
 2527SOL    HW2 8481   6.396   5.953   3.531  0.0784  0.8129 -0.9239
 2528SOL     OW 8482   3.919   5.970   0.583 -0.0838  0.0098 -0.0770
 2528SOL    HW1 8483   3.845   5.936   0.642  0.7973 -0.8305  0.5744
 2528SOL    HW2 8484   4.001   5.985   0.638 -0.3749  3.1929 -0.3325
 2529SOL     OW 8485   6.144   4.609   6.446  0.2886  0.0569  0.3074
 2529SOL    HW1 8486   6.220   4.654   6.398  0.2220 -1.1243 -0.9592
 2529SOL    HW2 8487   6.104   4.539   6.387 -1.3625  0.1895  1.2155
 2530SOL     OW 8488   0.436   4.668   4.939 -0.2863 -0.3290 -0.2754
 2530SOL    HW1 8489   0.339   4.686   4.922 -0.0360  1.8122  0.3609
 2530SOL    HW2 8490   0.483   4.651   4.852 -1.0571 -0.5826 -0.6523
 2531SOL     OW 8491   5.984   2.403   0.066  0.0869 -0.0136 -0.1933
 2531SOL    HW1 8492   5.976   2.311   0.105 -1.9359  0.0821 -0.2829
 2531SOL    HW2 8493   5.947   2.402  -0.027 -1.4961  1.2231  0.3894
 2532SOL     OW 8494   0.253   5.211   5.913  0.1767  0.4548 -0.1344
 2532SOL    HW1 8495   0.316   5.190   5.988 -1.2438 -0.0179  0.9938
 2532SOL    HW2 8496   0.260   5.308   5.889 -1.5900  1.5212  2.9472
 2533SOL     OW 8497   6.400   1.237   4.672 -0.4056 -0.4858 -0.1341
 2533SOL    HW1 8498   6.455   1.193   4.601  0.5458 -0.1196  0.3648
 2533SOL    HW2 8499   6.444   1.227   4.761 -1.3222 -0.4820  0.3394
 2534SOL     OW 8500   1.109   1.145   4.471  0.1068  0.0131 -0.3956
 2534SOL    HW1 8501   1.171   1.216   4.504  0.6309 -0.4951 -0.2589
 2534SOL    HW2 8502   1.096   1.155   4.372 -1.2325  1.3606 -0.1188
 2535SOL     OW 8503   2.264   1.821   1.563 -0.3712  0.1309  0.0688
 2535SOL    HW1 8504   2.295   1.911   1.594  0.4697 -0.1823  0.1784
 2535SOL    HW2 8505   2.241   1.764   1.642 -1.6314  0.4824 -0.0218
 2536SOL     OW 8506   2.198   1.649   3.317 -0.1493 -0.5240 -0.2722
 2536SOL    HW1 8507   2.124   1.601   3.270 -2.1079  0.9624  1.1163
 2536SOL    HW2 8508   2.193   1.747   3.295  1.1187 -0.3145  0.2546
 2537SOL     OW 8509   5.134   6.596   3.601 -0.3402  0.2382  0.1040
 2537SOL    HW1 8510   5.080   6.680   3.600 -1.2402 -0.1310  4.0340
 2537SOL    HW2 8511   5.075   6.517   3.616  0.3510 -1.4617 -4.4659
 2538SOL     OW 8512   1.480   6.146   4.734  0.2047  0.2572 -0.2705
 2538SOL    HW1 8513   1.413   6.083   4.695  0.9051 -0.3200 -0.5846
 2538SOL    HW2 8514   1.564   6.096   4.754  0.9155  1.1633 -0.8889
 2539SOL     OW 8515   1.625   2.295   5.446  0.3403 -0.2662 -0.2671
 2539SOL    HW1 8516   1.580   2.362   5.504  1.2342  2.1200 -2.1486
 2539SOL    HW2 8517   1.594   2.307   5.351 -0.5047 -3.5048 -0.5252
 2540SOL     OW 8518   3.198   2.038   2.192  0.0513 -0.0785 -0.5777
 2540SOL    HW1 8519   3.116   1.982   2.199 -0.2212  0.2569 -0.9903
 2540SOL    HW2 8520   3.245   2.041   2.280 -0.9829  0.6386 -0.0283
 2541SOL     OW 8521   1.619   1.506   6.187 -0.4212  0.1893  0.1619
 2541SOL    HW1 8522   1.565   1.548   6.259 -0.3604  0.4542  0.0546
 2541SOL    HW2 8523   1.654   1.418   6.218 -2.7691 -1.0755 -0.5188
 2542SOL     OW 8524   4.767   1.973   4.371  0.3370  0.4803  0.2737
 2542SOL    HW1 8525   4.786   1.887   4.418 -3.5339  0.2776  1.8046
 2542SOL    HW2 8526   4.834   1.986   4.298  0.9006 -3.9839 -0.2926
 2543SOL     OW 8527   6.265   0.133   5.714  0.7932  0.0638  0.2928
 2543SOL    HW1 8528   6.308   0.103   5.798 -1.0892  0.5118  1.4818
 2543SOL    HW2 8529   6.168   0.108   5.715  0.9792 -1.0867 -2.3391
 2544SOL     OW 8530   6.645   1.037   1.990 -0.3710 -0.1077 -0.2269
 2544SOL    HW1 8531   6.610   1.003   1.903 -0.0872  1.3656 -0.9556
 2544SOL    HW2 8532   6.629   1.136   1.995 -1.5483 -0.3637  1.9735
 2545SOL     OW 8533   5.748   2.929   6.539 -0.4717 -0.1162 -0.3348
 2545SOL    HW1 8534   5.805   2.933   6.621  0.4455  0.7708 -0.9970
 2545SOL    HW2 8535   5.739   3.021   6.500 -0.5534 -0.5828 -1.4484
 2546SOL     OW 8536   0.622   3.582   2.319 -0.1333 -0.0533 -0.4026
 2546SOL    HW1 8537   0.598   3.636   2.237 -1.7745  2.1390  1.3885
 2546SOL    HW2 8538   0.564   3.501   2.322 -2.0254  1.2186 -0.1399
 2547SOL     OW 8539   5.081   6.223   6.947 -0.1893 -0.0240  0.3129
 2547SOL    HW1 8540   5.024   6.303   6.967  0.1222  0.0128  1.1099
 2547SOL    HW2 8541   5.166   6.252   6.903  0.2244  0.1709  1.2097
 2548SOL     OW 8542   6.110   1.151   6.348 -0.4412  0.0599 -0.5959
 2548SOL    HW1 8543   6.103   1.146   6.248 -0.3946 -0.4893 -0.5708
 2548SOL    HW2 8544   6.062   1.075   6.389 -0.3545  0.2169 -0.1983
 2549SOL     OW 8545   2.594   5.990   2.418 -0.0883  0.4656 -0.7118
 2549SOL    HW1 8546   2.549   6.055   2.357  0.4383  0.0504 -1.5783
 2549SOL    HW2 8547   2.562   5.898   2.397 -1.2383  0.4691  0.8792
 2550SOL     OW 8548   1.674   1.828   1.947  0.2236  0.2149 -0.2676
 2550SOL    HW1 8549   1.608   1.771   1.996  1.2048 -0.4736  0.2910
 2550SOL    HW2 8550   1.695   1.909   2.002  1.1886 -0.4686  0.4076
 2551SOL     OW 8551   3.634   3.703   0.709  0.4429 -0.1868  0.0769
 2551SOL    HW1 8552   3.589   3.640   0.772 -0.9826  1.3843  0.7104
 2551SOL    HW2 8553   3.587   3.791   0.710 -0.8583 -0.5604 -4.5573
 2552SOL     OW 8554   2.483   3.676   1.706  0.3130 -0.0942 -0.6040
 2552SOL    HW1 8555   2.477   3.642   1.612  2.2112 -0.0861 -0.7828
 2552SOL    HW2 8556   2.450   3.606   1.769 -0.3245 -0.3713 -1.2348
 2553SOL     OW 8557   3.538   1.711   0.668 -0.1770 -0.5116 -0.1960
 2553SOL    HW1 8558   3.450   1.718   0.622 -0.4049  0.3818  0.3571
 2553SOL    HW2 8559   3.572   1.617   0.661 -1.2080 -0.8806 -0.3529
 2554SOL     OW 8560   5.357   0.001   1.311  0.2887  0.1716 -0.1739
 2554SOL    HW1 8561   5.322  -0.079   1.261 -1.0795  0.2229  0.6258
 2554SOL    HW2 8562   5.373   0.076   1.248 -0.3884 -0.0968 -0.6781
 2555SOL     OW 8563   0.844   5.777   5.729 -0.7108 -0.0377 -0.4590
 2555SOL    HW1 8564   0.869   5.872   5.710  1.1345 -0.5238 -0.7021
 2555SOL    HW2 8565   0.827   5.729   5.643  2.7850 -0.9921 -0.7685
 2556SOL     OW 8566   4.239   0.443   0.468  0.6203 -0.6172  0.8647
 2556SOL    HW1 8567   4.310   0.385   0.509  2.0427 -0.3223 -1.0698
 2556SOL    HW2 8568   4.161   0.386   0.441  0.6075 -1.1211  1.9064
 2557SOL     OW 8569   3.045   0.224   6.004  0.1162 -0.4747 -0.3196
 2557SOL    HW1 8570   2.992   0.309   6.006  1.8343  0.6560 -0.0041
 2557SOL    HW2 8571   2.986   0.147   6.028 -1.5290  0.5872 -0.7535
 2558SOL     OW 8572   3.485   2.302   0.658 -0.4251  0.2052 -0.0702
 2558SOL    HW1 8573   3.549   2.355   0.603 -1.9711 -0.3181 -2.5027
 2558SOL    HW2 8574   3.517   2.208   0.666 -1.3438 -0.3428 -2.2383
 2559SOL     OW 8575   0.743   4.141   4.222  0.1322  0.1469  0.2862
 2559SOL    HW1 8576   0.657   4.104   4.258 -1.3475  0.1097 -2.9655
 2559SOL    HW2 8577   0.785   4.074   4.161 -0.2369  2.0014 -2.1541
 2560SOL     OW 8578   5.378   2.702   0.494 -0.1294 -0.2869 -0.1286
 2560SOL    HW1 8579   5.455   2.666   0.546  1.1832  1.7647 -0.5511
 2560SOL    HW2 8580   5.323   2.762   0.552 -1.6665 -1.9647  0.2593
 2561SOL     OW 8581   4.688   6.825   6.024 -0.1499  0.0583  0.0931
 2561SOL    HW1 8582   4.710   6.817   5.927 -1.1916 -0.4937 -0.1078
 2561SOL    HW2 8583   4.594   6.858   6.034 -0.9853 -2.4120  0.8953
 2562SOL     OW 8584   2.576   6.957   5.009  0.1031 -0.1421 -0.1371
 2562SOL    HW1 8585   2.659   6.977   5.062 -0.0614 -0.3602  0.2082
 2562SOL    HW2 8586   2.559   7.031   4.945  0.3775  0.0672  0.0284
 2563SOL     OW 8587   3.445   2.138   6.819  0.0433  0.5828 -0.2418
 2563SOL    HW1 8588   3.536   2.097   6.829 -0.1315 -0.4358 -2.2444
 2563SOL    HW2 8589   3.414   2.172   6.907  1.1957 -1.5432  1.0807
 2564SOL     OW 8590   0.468   2.170   1.605  0.5004 -0.4977  0.3349
 2564SOL    HW1 8591   0.460   2.257   1.557 -1.1202 -0.9942 -0.3703
 2564SOL    HW2 8592   0.563   2.154   1.630  1.2371  0.2939 -1.7784
 2565SOL     OW 8593   0.091   2.470   0.223 -0.4584 -0.7533 -0.1486
 2565SOL    HW1 8594   0.081   2.375   0.252 -1.2663 -0.5547  0.2456
 2565SOL    HW2 8595   0.024   2.527   0.270 -0.2839 -0.0569 -0.7168
 2566SOL     OW 8596   2.343   1.951   0.541  0.3799  0.2979 -0.2035
 2566SOL    HW1 8597   2.309   2.039   0.509  2.4865  2.3762  2.6696
 2566SOL    HW2 8598   2.441   1.944   0.522  0.5275 -0.7757  0.8260
 2567SOL     OW 8599   2.162   0.516   5.888 -0.5529 -0.0040 -0.0480
 2567SOL    HW1 8600   2.216   0.477   5.813  0.1296  1.1611 -0.1811
 2567SOL    HW2 8601   2.150   0.614   5.873 -1.0929  0.0970  0.9663
 2568SOL     OW 8602   1.817   5.102   0.134  0.7325  0.1738  0.4460
 2568SOL    HW1 8603   1.888   5.152   0.183  0.8049  0.1847  0.3318
 2568SOL    HW2 8604   1.857   5.019   0.093  0.3877 -0.5561  1.5347
 2569SOL     OW 8605   0.644   4.620   1.248  0.5498  0.2216 -0.0648
 2569SOL    HW1 8606   0.656   4.552   1.321  0.9155  0.7816  0.4101
 2569SOL    HW2 8607   0.647   4.574   1.159  1.4401 -0.2991  0.2201
 2570SOL     OW 8608   1.084   6.784   4.943 -0.1075  0.1636 -0.6520
 2570SOL    HW1 8609   1.036   6.798   4.857  0.6506  0.5214 -1.0182
 2570SOL    HW2 8610   1.122   6.870   4.975 -2.4724  0.6021  1.3406
 2571SOL     OW 8611   3.650   3.711   2.575 -0.0904  0.0084  0.2386
 2571SOL    HW1 8612   3.553   3.706   2.600 -0.2205  3.5949  0.9974
 2571SOL    HW2 8613   3.705   3.713   2.658  0.5634 -0.6583 -0.1654
 2572SOL     OW 8614   3.697   4.597   1.071 -0.2439 -0.5267  0.3435
 2572SOL    HW1 8615   3.738   4.514   1.033  2.1645  0.3422  0.8621
 2572SOL    HW2 8616   3.613   4.619   1.021  1.7527 -0.4474 -3.2841
 2573SOL     OW 8617   6.742   0.501   3.397  0.6430 -0.1892 -0.3389
 2573SOL    HW1 8618   6.838   0.511   3.370  1.1960  1.2496  1.8948
 2573SOL    HW2 8619   6.711   0.585   3.442 -0.9887 -1.4378  0.9954
 2574SOL     OW 8620   0.500   3.812   0.723  0.0655 -0.4637 -0.1383
 2574SOL    HW1 8621   0.448   3.727   0.732  2.7313 -2.0851  1.0938
 2574SOL    HW2 8622   0.523   3.848   0.814  2.1855 -0.5637 -0.5834
 2575SOL     OW 8623   3.316   3.910   5.311  0.2742 -0.4447  0.3325
 2575SOL    HW1 8624   3.259   3.990   5.293  0.6048 -0.4479 -0.8421
 2575SOL    HW2 8625   3.288   3.835   5.250  0.9220 -0.7379  0.3838
 2576SOL     OW 8626   2.489   5.761   4.830 -0.0994  0.8109  0.5713
 2576SOL    HW1 8627   2.565   5.764   4.765  0.0005  1.8653  0.7120
 2576SOL    HW2 8628   2.498   5.681   4.889 -0.0429 -0.0230 -0.5255
 2577SOL     OW 8629   1.948   4.908   0.414  0.4022  0.1175 -0.0096
 2577SOL    HW1 8630   2.021   4.976   0.416  0.8223 -0.3556  1.3464
 2577SOL    HW2 8631   1.983   4.822   0.375  0.6934 -0.2251  0.9790
 2578SOL     OW 8632   5.489   2.427   3.709 -0.4191  0.8649 -0.2658
 2578SOL    HW1 8633   5.570   2.370   3.718 -0.2797  1.0339 -0.4301
 2578SOL    HW2 8634   5.407   2.370   3.713 -0.3365  0.8056  0.9138
 2579SOL     OW 8635   6.774   0.922   5.769 -0.1261 -0.1590 -0.0391
 2579SOL    HW1 8636   6.690   0.933   5.822 -0.1220 -0.4557  0.0329
 2579SOL    HW2 8637   6.752   0.917   5.672 -0.0982  0.8012 -0.1046
 2580SOL     OW 8638   0.485   2.650   1.901 -0.0276 -0.0049  0.4893
 2580SOL    HW1 8639   0.474   2.557   1.935  0.9709  0.0586  1.0473
 2580SOL    HW2 8640   0.534   2.649   1.814 -1.1019 -0.0628 -0.1315
 2581SOL     OW 8641   5.456   5.154   5.591  0.4174  0.8069  0.5098
 2581SOL    HW1 8642   5.484   5.071   5.543  1.0680  0.9604  0.6160
 2581SOL    HW2 8643   5.420   5.130   5.681  1.9271  0.7399  1.1132
 2582SOL     OW 8644   1.031   2.611   4.274 -0.0793  0.6497 -0.2109
 2582SOL    HW1 8645   1.095   2.679   4.309 -0.3537  0.9355 -0.2657
 2582SOL    HW2 8646   0.975   2.651   4.201 -0.1440  0.3249 -0.3439
 2583SOL     OW 8647   1.933   1.391   0.322  0.2691 -1.1457 -0.0093
 2583SOL    HW1 8648   1.965   1.343   0.240  1.4974  0.1431 -0.3278
 2583SOL    HW2 8649   1.868   1.333   0.371  1.0450 -2.7811 -0.8068
 2584SOL     OW 8650   3.692   1.829   3.942  0.3481 -0.2523 -0.2580
 2584SOL    HW1 8651   3.697   1.918   3.987  1.0989 -0.5832  0.3401
 2584SOL    HW2 8652   3.781   1.783   3.949 -0.6268 -2.0412  1.5440
 2585SOL     OW 8653   3.903   6.460   1.354 -0.1982  0.0236 -0.0171
 2585SOL    HW1 8654   3.883   6.362   1.358  0.4673 -0.1271 -0.1986
 2585SOL    HW2 8655   3.914   6.496   1.446 -2.5703  0.4040  0.1875
 2586SOL     OW 8656   0.385   6.883   3.202 -0.2828 -0.5017  0.4754
 2586SOL    HW1 8657   0.287   6.901   3.210 -0.5535 -1.8626  0.3512
 2586SOL    HW2 8658   0.412   6.814   3.269  1.2129  1.9714  2.6168
 2587SOL     OW 8659   0.925   5.612   3.456  0.2123  0.4706 -0.6526
 2587SOL    HW1 8660   0.844   5.622   3.515  0.1879  1.2575 -0.8129
 2587SOL    HW2 8661   0.984   5.692   3.468  1.1575 -0.2716 -0.2571
 2588SOL     OW 8662   3.664   5.942   1.640 -0.2073 -0.2794  0.1385
 2588SOL    HW1 8663   3.681   5.918   1.544  0.1248 -0.3524  0.2144
 2588SOL    HW2 8664   3.653   6.041   1.648 -3.6694 -0.4943 -0.5062
 2589SOL     OW 8665   4.057   0.606   2.050 -0.3590 -0.0953  0.2130
 2589SOL    HW1 8666   4.076   0.676   2.119  2.5211  1.1766 -1.6957
 2589SOL    HW2 8667   4.028   0.521   2.096 -1.4455  1.4969  2.7303
 2590SOL     OW 8668   2.659   4.856   4.702  0.0388 -0.4250  0.0160
 2590SOL    HW1 8669   2.562   4.841   4.723  0.0055 -1.3465 -0.7474
 2590SOL    HW2 8670   2.706   4.887   4.784 -1.1419  1.2643  0.1168
 2591SOL     OW 8671   6.573   0.669   1.016 -0.1495 -0.0284 -0.1580
 2591SOL    HW1 8672   6.550   0.735   0.945 -0.6284 -0.6408 -0.5786
 2591SOL    HW2 8673   6.532   0.698   1.103 -1.1620 -0.2559 -0.5480
 2592SOL     OW 8674   2.014   4.661   3.868 -0.5922 -0.9620 -0.3056
 2592SOL    HW1 8675   2.021   4.581   3.809  0.9617 -0.1946 -1.2247
 2592SOL    HW2 8676   2.059   4.642   3.955  2.1914 -0.3152 -1.4805
 2593SOL     OW 8677   2.030   5.659   4.434  0.2660  0.3640 -0.6300
 2593SOL    HW1 8678   1.993   5.740   4.388 -0.0661  0.8305  0.4247
 2593SOL    HW2 8679   2.042   5.679   4.532  1.9515 -0.2485 -0.6821
 2594SOL     OW 8680   2.010   6.257   0.424 -0.1733  0.2017 -0.5763
 2594SOL    HW1 8681   2.082   6.277   0.491 -1.5726  1.5776  0.5961
 2594SOL    HW2 8682   2.040   6.183   0.364  1.5088 -0.4598  0.9829
 2595SOL     OW 8683   1.593   3.785   4.608  0.1698  0.4365  0.1993
 2595SOL    HW1 8684   1.562   3.865   4.659  0.3798  1.2605 -0.9345
 2595SOL    HW2 8685   1.552   3.785   4.517  0.5801 -0.4652  0.0060
 2596SOL     OW 8686   3.252   1.094   0.723  0.4019 -0.4426 -0.1044
 2596SOL    HW1 8687   3.311   1.172   0.704 -0.2743  0.1358  0.1033
 2596SOL    HW2 8688   3.303   1.009   0.710  0.4350 -0.0669 -2.9611
 2597SOL     OW 8689   1.306   0.919   0.510  0.0959  0.6164  0.2550
 2597SOL    HW1 8690   1.270   0.905   0.602 -0.7297 -0.8570 -0.2747
 2597SOL    HW2 8691   1.383   0.857   0.494  0.3509  0.9919  0.0047
 2598SOL     OW 8692   0.093   2.148   3.046  0.3648  0.2485 -0.1620
 2598SOL    HW1 8693   0.141   2.076   2.996  0.1844  0.1270 -0.1621
 2598SOL    HW2 8694  -0.004   2.147   3.020  0.4070  0.6382 -0.3299
 2599SOL     OW 8695   5.412   6.790   6.267 -0.2667 -0.4544  0.6221
 2599SOL    HW1 8696   5.334   6.772   6.328 -0.6967 -1.8034 -0.2861
 2599SOL    HW2 8697   5.494   6.747   6.305 -0.3620 -0.6213  0.6387
 2600SOL     OW 8698   6.403   2.596   5.268 -0.0539  0.4685 -0.1767
 2600SOL    HW1 8699   6.303   2.590   5.260 -0.2520  0.4195  1.7473
 2600SOL    HW2 8700   6.427   2.676   5.323  1.0579  1.1896 -1.6572
 2601SOL     OW 8701   3.196   3.410   6.466  0.1663 -0.1860 -0.6297
 2601SOL    HW1 8702   3.217   3.348   6.541 -0.1543  1.2841  0.7209
 2601SOL    HW2 8703   3.103   3.392   6.433  0.4949 -1.1775 -1.0565
 2602SOL     OW 8704   5.624   0.849   0.315  0.1694 -0.3458 -0.2427
 2602SOL    HW1 8705   5.544   0.831   0.373 -1.8877 -2.0164 -3.2789
 2602SOL    HW2 8706   5.597   0.908   0.239  2.0667 -0.2764 -0.9186
 2603SOL     OW 8707   0.887   3.429   6.394 -0.4177  0.2236  0.0801
 2603SOL    HW1 8708   0.892   3.332   6.419  0.7387  0.0780 -0.6568
 2603SOL    HW2 8709   0.920   3.485   6.470  0.2306 -0.0446 -0.0005
 2604SOL     OW 8710   5.974   0.843   1.825 -0.6309 -0.0599  0.0080
 2604SOL    HW1 8711   5.923   0.762   1.794  0.6349 -0.2502 -1.8004
 2604SOL    HW2 8712   6.029   0.819   1.905 -3.0954  0.0994  1.8693
 2605SOL     OW 8713   5.060   3.643   4.244 -0.3872  0.0568  0.1992
 2605SOL    HW1 8714   5.153   3.637   4.279 -0.7031 -1.8251  0.8252
 2605SOL    HW2 8715   4.999   3.675   4.317 -0.5347 -0.7571  0.4512
 2606SOL     OW 8716   5.608   5.652   1.951  0.1471  0.2837  0.3610
 2606SOL    HW1 8717   5.667   5.572   1.949 -0.2207  0.0227 -0.2885
 2606SOL    HW2 8718   5.612   5.699   1.862  0.0710  0.7687  0.6087
 2607SOL     OW 8719   1.119   1.486   3.123 -0.7170  1.5862 -0.0417
 2607SOL    HW1 8720   1.217   1.475   3.110 -0.9281  0.0057 -0.5423
 2607SOL    HW2 8721   1.101   1.570   3.174  1.1635  0.0933  3.4078
 2608SOL     OW 8722   3.756   1.405   6.935 -0.4229  0.1406  0.0618
 2608SOL    HW1 8723   3.737   1.479   6.870 -0.4707  0.8687  0.8923
 2608SOL    HW2 8724   3.851   1.376   6.926 -0.5437 -0.0596 -0.6274
 2609SOL     OW 8725   0.166   3.167   2.711  0.1057 -0.0430  0.0239
 2609SOL    HW1 8726   0.138   3.106   2.785 -0.0849  0.6190  0.5139
 2609SOL    HW2 8727   0.262   3.193   2.724  0.4099 -0.8126 -0.5981
 2610SOL     OW 8728   5.024   5.990   5.093 -0.3175  0.5082  0.0219
 2610SOL    HW1 8729   5.005   6.056   5.166 -3.6150  0.2613 -0.4365
 2610SOL    HW2 8730   5.025   6.037   5.005  1.1943  0.4466 -0.0149
 2611SOL     OW 8731   3.143   5.195   2.942 -0.0328 -0.2366  0.0057
 2611SOL    HW1 8732   3.197   5.183   2.859  1.1700  0.0024  0.7289
 2611SOL    HW2 8733   3.047   5.175   2.923 -0.2578  2.2876 -2.0990
 2612SOL     OW 8734   0.408   0.098   4.748 -0.4013 -0.2089 -0.6983
 2612SOL    HW1 8735   0.361   0.081   4.834 -0.5709  1.6164 -0.3895
 2612SOL    HW2 8736   0.348   0.075   4.671 -0.8937 -0.1902 -0.3214
 2613SOL     OW 8737   3.599   6.744   0.898 -0.3484 -0.1921 -0.1837
 2613SOL    HW1 8738   3.562   6.684   0.969  1.3488 -0.5521  0.4542
 2613SOL    HW2 8739   3.576   6.839   0.918 -0.4868 -0.3592  0.4700
 2614SOL     OW 8740   6.684   4.880   0.969  0.0573  0.4563 -0.4292
 2614SOL    HW1 8741   6.652   4.822   0.894  0.8318 -0.4090 -0.1047
 2614SOL    HW2 8742   6.615   4.882   1.041 -0.1769  0.3387 -0.6469
 2615SOL     OW 8743   4.620   4.808   0.328  0.1779  0.1048  0.4259
 2615SOL    HW1 8744   4.611   4.883   0.263 -1.6534 -1.5427 -1.3802
 2615SOL    HW2 8745   4.669   4.839   0.410 -1.9539  3.7055  0.5322
 2616SOL     OW 8746   3.913   3.536   1.785 -0.4778  0.6609 -0.8532
 2616SOL    HW1 8747   3.837   3.600   1.776 -1.6659 -0.1021  2.3623
 2616SOL    HW2 8748   3.877   3.446   1.811  1.4924  0.2059  0.4712
 2617SOL     OW 8749   1.683   6.187   1.431 -0.1675  0.1910  0.2989
 2617SOL    HW1 8750   1.630   6.262   1.392 -2.6417  0.0722  3.0596
 2617SOL    HW2 8751   1.755   6.224   1.489  1.8758  0.3439 -2.1944
 2618SOL     OW 8752   2.384   6.940   0.542 -0.4983 -0.4061  0.1148
 2618SOL    HW1 8753   2.385   7.039   0.525 -0.0823 -0.0872  1.7897
 2618SOL    HW2 8754   2.351   6.923   0.635 -0.2350 -1.8340 -0.0379
 2619SOL     OW 8755   4.879   2.713   2.608  0.2089 -0.1347 -0.3055
 2619SOL    HW1 8756   4.890   2.658   2.691  1.5132 -1.1473 -1.1049
 2619SOL    HW2 8757   4.805   2.676   2.553  0.3076 -0.3742 -0.2797
 2620SOL     OW 8758   1.279   4.609   5.963 -0.1423  0.8373 -0.3328
 2620SOL    HW1 8759   1.185   4.636   5.944 -0.4643  0.2123  0.3209
 2620SOL    HW2 8760   1.342   4.675   5.922 -0.8580  1.1125 -0.9978
 2621SOL     OW 8761   0.604   5.078   5.819 -0.8730  0.5392  0.0960
 2621SOL    HW1 8762   0.569   4.992   5.857  1.7332  0.4614  2.5959
 2621SOL    HW2 8763   0.581   5.154   5.880 -3.0608  1.7747 -2.0251
 2622SOL     OW 8764   0.690   2.263   5.510  0.0041 -0.3155 -0.0045
 2622SOL    HW1 8765   0.775   2.248   5.561  0.1552  1.0761  0.1887
 2622SOL    HW2 8766   0.611   2.245   5.569  0.1506 -1.0959 -0.0307
 2623SOL     OW 8767   2.960   1.298   4.545 -0.5766  0.4766 -0.8413
 2623SOL    HW1 8768   2.954   1.273   4.448 -0.9831 -0.7704 -0.5111
 2623SOL    HW2 8769   2.870   1.327   4.577 -0.4518  0.8405 -0.8084
 2624SOL     OW 8770   6.747   2.130   3.567  0.2575 -0.1133 -0.8797
 2624SOL    HW1 8771   6.744   2.222   3.606  0.6085 -1.0386  1.5395
 2624SOL    HW2 8772   6.667   2.079   3.596  0.3234 -0.7461 -1.7661
 2625SOL     OW 8773   3.021   0.728   5.905 -0.5449 -0.6112  0.5886
 2625SOL    HW1 8774   3.075   0.772   5.977 -0.1193  0.7814 -0.5250
 2625SOL    HW2 8775   2.924   0.744   5.922 -0.4248  0.1475  0.6172
 2626SOL     OW 8776   2.089   0.061   1.925  0.1128  0.4055  0.2270
 2626SOL    HW1 8777   2.162   0.090   1.988  0.7573 -2.1603  0.7885
 2626SOL    HW2 8778   2.003   0.054   1.976  0.1580  0.4296  0.3076
 2627SOL     OW 8779   1.110   0.612   4.287  0.1206  0.4082 -0.3919
 2627SOL    HW1 8780   1.174   0.654   4.352  1.0388  0.0100 -1.0050
 2627SOL    HW2 8781   1.096   0.675   4.210 -1.0420  0.9208  0.2219
 2628SOL     OW 8782   4.718   5.716   1.540 -0.1934 -0.3154  0.1468
 2628SOL    HW1 8783   4.736   5.785   1.470 -1.6373  1.3966  1.3666
 2628SOL    HW2 8784   4.773   5.737   1.621  0.3263 -1.3934  0.0903
 2629SOL     OW 8785   2.104   4.627   2.180 -0.0543  0.1298  0.2512
 2629SOL    HW1 8786   2.078   4.697   2.247  0.8204  0.4842  0.2398
 2629SOL    HW2 8787   2.026   4.609   2.119  0.2928  2.6928 -1.1267
 2630SOL     OW 8788   2.452   2.282   1.828 -0.2551  0.6883  0.4303
 2630SOL    HW1 8789   2.511   2.358   1.858  1.0198 -0.3784  0.7595
 2630SOL    HW2 8790   2.452   2.211   1.899 -0.7869  0.0442 -0.2071
 2631SOL     OW 8791   5.347   4.982   4.115 -0.1939  0.1447 -0.3785
 2631SOL    HW1 8792   5.359   4.990   4.016  0.4337  0.0004 -0.3214
 2631SOL    HW2 8793   5.413   4.915   4.150  1.5310  2.1975  0.5094
 2632SOL     OW 8794   5.997   0.288   2.056 -0.1290  0.1421  0.5873
 2632SOL    HW1 8795   6.017   0.193   2.078 -1.4300 -0.3322 -0.1975
 2632SOL    HW2 8796   6.081   0.333   2.025  0.2902 -1.0616 -0.1096
 2633SOL     OW 8797   0.234   2.337   6.087  0.6060  0.1706 -0.3543
 2633SOL    HW1 8798   0.159   2.296   6.035  0.0049  1.8178 -0.8740
 2633SOL    HW2 8799   0.312   2.354   6.027 -1.1078  4.8084 -1.7476
 2634SOL     OW 8800   1.854   4.428   1.516  0.0086  0.2859 -0.0462
 2634SOL    HW1 8801   1.933   4.459   1.569 -0.6368  0.0367  1.0777
 2634SOL    HW2 8802   1.885   4.401   1.424  1.1251  0.7816  0.1643
 2635SOL     OW 8803   5.155   4.593   4.252  0.0474 -0.0202  0.6120
 2635SOL    HW1 8804   5.090   4.663   4.221 -2.2078 -1.9347  0.6942
 2635SOL    HW2 8805   5.105   4.508   4.271  2.6542 -1.6801  0.4920
 2636SOL     OW 8806   6.137   5.571   5.429 -0.4932 -0.5494 -0.3720
 2636SOL    HW1 8807   6.211   5.531   5.483  1.7642  2.0255 -1.3281
 2636SOL    HW2 8808   6.112   5.660   5.467 -0.1123  0.5043 -2.4314
 2637SOL     OW 8809   5.183   5.199   2.595 -0.3041  0.0693 -0.3305
 2637SOL    HW1 8810   5.245   5.168   2.667  1.2080  0.0636 -1.5737
 2637SOL    HW2 8811   5.090   5.171   2.616  0.3045 -1.1087  0.9317
 2638SOL     OW 8812   4.108   4.788   1.216  0.2392  0.5567 -0.2637
 2638SOL    HW1 8813   4.114   4.690   1.201  0.4257  0.2286  1.6440
 2638SOL    HW2 8814   4.189   4.819   1.267 -1.3382  1.0120  2.1592
 2639SOL     OW 8815   6.315   0.303   5.489 -0.0358 -0.3508  0.0625
 2639SOL    HW1 8816   6.412   0.329   5.484  0.3720 -1.5945  0.8180
 2639SOL    HW2 8817   6.297   0.261   5.578 -1.9180  2.2065  0.9949
 2640SOL     OW 8818   6.366   0.014   6.483  0.0851  0.1300 -0.1393
 2640SOL    HW1 8819   6.390   0.082   6.552 -2.4397  0.4707  0.5292
 2640SOL    HW2 8820   6.392  -0.077   6.516  0.1157  0.4271  0.6726
 2641SOL     OW 8821   4.039   4.773   0.613 -0.1074  0.4016  0.2377
 2641SOL    HW1 8822   4.077   4.714   0.542  1.5391  1.4848  0.1697
 2641SOL    HW2 8823   3.945   4.745   0.633  0.6154 -2.2412  0.2667
 2642SOL     OW 8824   6.261   3.168   3.480 -0.4737  0.4630  0.2268
 2642SOL    HW1 8825   6.237   3.081   3.523 -0.2763  0.6740  0.7632
 2642SOL    HW2 8826   6.187   3.195   3.418  0.1572 -0.8828 -1.1833
 2643SOL     OW 8827   3.055   6.523   2.819  1.1055 -0.0817  0.1781
 2643SOL    HW1 8828   3.145   6.563   2.805  0.5860  1.5386  1.1784
 2643SOL    HW2 8829   3.047   6.440   2.765  2.2953  1.0681 -1.9014
 2644SOL     OW 8830   1.157   5.424   5.194 -0.0760 -0.1474  0.3069
 2644SOL    HW1 8831   1.105   5.375   5.124  0.2639 -0.5234  0.3149
 2644SOL    HW2 8832   1.246   5.380   5.206 -0.1132 -0.0482  0.9410
 2645SOL     OW 8833   3.924   0.071   5.880  0.1995 -0.7038  0.4271
 2645SOL    HW1 8834   3.872   0.039   5.960  1.8335 -2.2677  0.9396
 2645SOL    HW2 8835   3.997   0.132   5.910 -1.7216  2.1706 -0.3744
 2646SOL     OW 8836   5.021   2.863   0.364 -0.1733 -0.0891 -0.3950
 2646SOL    HW1 8837   5.083   2.915   0.423 -1.3900  0.4008  0.4756
 2646SOL    HW2 8838   5.003   2.914   0.280 -2.3099  1.5462  0.9636
 2647SOL     OW 8839   2.987   2.323   5.320  0.4603  0.1173 -0.4548
 2647SOL    HW1 8840   2.958   2.256   5.251 -1.4850  0.3212  0.1190
 2647SOL    HW2 8841   3.074   2.364   5.292  0.6536 -1.1611 -1.8342
 2648SOL     OW 8842   3.175   0.786   2.460 -0.4426 -0.3469 -0.1377
 2648SOL    HW1 8843   3.123   0.792   2.545 -0.6347  1.4872 -0.3435
 2648SOL    HW2 8844   3.272   0.799   2.480 -0.5600  0.7801 -0.2619
 2649SOL     OW 8845   3.352   3.262   6.236 -0.3712 -0.6206  0.4473
 2649SOL    HW1 8846   3.353   3.361   6.255  0.3295 -0.4157 -0.5893
 2649SOL    HW2 8847   3.270   3.239   6.184  0.0380 -0.3775 -0.3169
 2650SOL     OW 8848   0.790   6.348   5.560  0.2600 -0.2320  0.2214
 2650SOL    HW1 8849   0.778   6.305   5.650 -0.3935  0.5131  0.4907
 2650SOL    HW2 8850   0.760   6.284   5.489 -0.2040 -0.4251  0.5866
 2651SOL     OW 8851   2.208   1.442   3.478  0.2089  0.4051 -0.4696
 2651SOL    HW1 8852   2.294   1.392   3.464 -0.0905 -0.0629 -0.6802
 2651SOL    HW2 8853   2.205   1.521   3.416  0.8970  0.9754  0.2041
 2652SOL     OW 8854   4.103   3.485   2.356  0.3563 -0.2617  0.1502
 2652SOL    HW1 8855   4.107   3.395   2.400  1.0745  0.0868  0.8230
 2652SOL    HW2 8856   4.016   3.529   2.377  0.0175 -0.7736 -0.1489
 2653SOL     OW 8857   6.836   1.536   0.578 -0.0433  0.2688 -0.5126
 2653SOL    HW1 8858   6.868   1.596   0.505  0.8908  0.2012 -0.1820
 2653SOL    HW2 8859   6.871   1.570   0.666  0.0938 -0.4762 -0.2708
 2654SOL     OW 8860   0.778   0.896   6.553  0.1764 -0.2516  0.6749
 2654SOL    HW1 8861   0.703   0.962   6.569  0.7111  0.5642 -0.0773
 2654SOL    HW2 8862   0.855   0.920   6.612  0.8040  0.5361 -0.4318
 2655SOL     OW 8863   5.931   5.288   6.052  0.1278 -0.3488 -0.5914
 2655SOL    HW1 8864   5.959   5.382   6.036  0.5595 -0.4401 -0.3872
 2655SOL    HW2 8865   5.846   5.270   6.004  0.0018  0.1686 -0.5686
 2656SOL     OW 8866   4.642   2.533   4.772  0.1583 -0.2030 -0.0875
 2656SOL    HW1 8867   4.590   2.465   4.720 -1.0408  1.2075 -0.8328
 2656SOL    HW2 8868   4.724   2.491   4.809 -0.2635 -1.9089 -0.9607
 2657SOL     OW 8869   4.778   0.858   5.444 -0.2265 -0.0837 -0.8474
 2657SOL    HW1 8870   4.692   0.906   5.426 -0.5002  0.1570  0.9437
 2657SOL    HW2 8871   4.774   0.766   5.406 -1.7053 -0.4421  0.1135
 2658SOL     OW 8872   5.512   4.728   4.830  0.0593  0.4530 -0.0231
 2658SOL    HW1 8873   5.611   4.712   4.822  0.0655  0.5484 -0.1258
 2658SOL    HW2 8874   5.484   4.711   4.925  0.0153 -0.4382 -0.1841
 2659SOL     OW 8875   0.778   2.813   4.160  0.1480  0.5465  0.2459
 2659SOL    HW1 8876   0.782   2.829   4.259  1.8514  2.5173 -0.0701
 2659SOL    HW2 8877   0.748   2.719   4.143 -3.4512  1.0373  2.5337
 2660SOL     OW 8878   0.580   2.106   3.059 -0.5238 -0.3393 -0.7511
 2660SOL    HW1 8879   0.645   2.109   3.135 -0.7251 -2.0046 -0.4684
 2660SOL    HW2 8880   0.610   2.168   2.987 -0.8184  2.0008  1.0286
 2661SOL     OW 8881   4.682   6.254   2.540 -0.0931 -0.0352  0.3049
 2661SOL    HW1 8882   4.729   6.179   2.493 -1.5615 -0.1580 -1.0640
 2661SOL    HW2 8883   4.645   6.318   2.472  0.9282  1.8432  1.4367
 2662SOL     OW 8884   6.771   6.576   3.386 -0.2044  0.2083 -0.3582
 2662SOL    HW1 8885   6.705   6.504   3.403 -0.5110  0.7110  0.6490
 2662SOL    HW2 8886   6.726   6.654   3.341 -0.3503  0.6144  0.4713
 2663SOL     OW 8887   0.897   4.056   3.430  0.8207 -0.1321 -0.1554
 2663SOL    HW1 8888   0.837   4.122   3.385  0.5198 -0.1494  0.2160
 2663SOL    HW2 8889   0.887   3.966   3.387 -0.4093 -0.4535  0.7267
 2664SOL     OW 8890   4.196   4.341   1.670 -0.1619 -0.2570  0.5037
 2664SOL    HW1 8891   4.252   4.307   1.746 -1.3557  2.3518  2.7520
 2664SOL    HW2 8892   4.191   4.272   1.598  3.3492 -1.7707  1.5149
 2665SOL     OW 8893   5.659   0.385   3.504 -0.1706 -0.4022  0.3119
 2665SOL    HW1 8894   5.735   0.374   3.568 -0.5139 -0.7544  0.6625
 2665SOL    HW2 8895   5.577   0.415   3.553 -0.5076 -0.9318  0.0833
 2666SOL     OW 8896   6.020   0.390   1.597 -0.2650  1.0114  0.4279
 2666SOL    HW1 8897   6.093   0.454   1.572  0.3784  0.0730 -0.1555
 2666SOL    HW2 8898   6.060   0.308   1.637 -1.0494  0.7403  0.6666
 2667SOL     OW 8899   2.598   4.722   3.243 -0.5645 -0.1877 -0.4732
 2667SOL    HW1 8900   2.601   4.753   3.338 -1.5598  1.7480 -1.0199
 2667SOL    HW2 8901   2.523   4.657   3.232 -1.7797  1.1364 -0.3171
 2668SOL     OW 8902   5.770   2.558   5.768 -0.4272 -0.3358  0.3480
 2668SOL    HW1 8903   5.782   2.655   5.786  0.6554 -0.4216  0.1735
 2668SOL    HW2 8904   5.679   2.529   5.799 -0.8831  0.7880  0.1097
 2669SOL     OW 8905   4.233   4.996   3.502 -0.3650 -0.3890  0.2185
 2669SOL    HW1 8906   4.143   5.030   3.527  0.0515 -0.1082  1.3811
 2669SOL    HW2 8907   4.302   5.066   3.520  0.1707 -0.8488  0.0061
 2670SOL     OW 8908   3.261   6.248   3.007  0.2168  0.3382 -0.2001
 2670SOL    HW1 8909   3.212   6.246   3.094 -0.3920 -0.0463 -0.5438
 2670SOL    HW2 8910   3.295   6.340   2.989 -0.9542  0.7666 -0.2737
 2671SOL     OW 8911   2.771   4.134   5.867  0.2015  0.6518 -0.3304
 2671SOL    HW1 8912   2.718   4.154   5.784 -1.0945  0.3102  0.3958
 2671SOL    HW2 8913   2.827   4.214   5.890  1.2437  0.4574 -1.9925
 2672SOL     OW 8914   6.475   5.264   0.117  0.2621 -0.0992  0.1117
 2672SOL    HW1 8915   6.521   5.296   0.200  1.8795  0.1348 -0.8382
 2672SOL    HW2 8916   6.414   5.336   0.084 -1.1945 -0.5762  1.6297
 2673SOL     OW 8917   3.135   5.661   2.303 -0.0180 -0.1327  0.0184
 2673SOL    HW1 8918   3.158   5.700   2.213 -0.8228  1.4365  0.4672
 2673SOL    HW2 8919   3.187   5.709   2.374  1.3479 -2.0074  0.3620
 2674SOL     OW 8920   0.948   5.923   3.927 -0.0085 -0.0083 -0.0219
 2674SOL    HW1 8921   1.001   5.839   3.912 -0.4942 -0.2335 -0.5575
 2674SOL    HW2 8922   0.858   5.899   3.964  0.9610  0.5070  2.8917
 2675SOL     OW 8923   6.188   4.778   5.871  0.0064 -0.2907  0.6858
 2675SOL    HW1 8924   6.156   4.698   5.922 -0.0572 -0.3449  0.5602
 2675SOL    HW2 8925   6.110   4.830   5.836  0.0408 -0.0316  0.9829
 2676SOL     OW 8926   5.509   2.114   2.083  0.0255 -0.1049  0.1366
 2676SOL    HW1 8927   5.522   2.023   2.043 -2.3175 -0.4766  0.0498
 2676SOL    HW2 8928   5.456   2.106   2.167 -1.0536  1.2116 -0.3670
 2677SOL     OW 8929   2.744   5.294   2.803  0.7085  0.4291 -0.3164
 2677SOL    HW1 8930   2.739   5.372   2.864  4.5854  0.3036  0.4284
 2677SOL    HW2 8931   2.801   5.317   2.724  0.3811 -1.0890 -1.0406
 2678SOL     OW 8932   6.779   5.155   1.443 -0.0832  0.5438 -0.3599
 2678SOL    HW1 8933   6.842   5.125   1.372  1.0201 -0.6964  1.0785
 2678SOL    HW2 8934   6.804   5.247   1.473  0.0102  0.7097 -0.9464
 2679SOL     OW 8935   0.237   5.520   2.714 -0.0157  0.0901 -0.1096
 2679SOL    HW1 8936   0.258   5.541   2.809  0.1452 -1.1628  0.1560
 2679SOL    HW2 8937   0.229   5.604   2.662  1.0581  0.7658  0.7694
 2680SOL     OW 8938   6.668   3.050   0.798  0.4597 -0.1937 -0.1318
 2680SOL    HW1 8939   6.754   3.040   0.847  0.1641  1.0485  0.6638
 2680SOL    HW2 8940   6.592   3.034   0.861  0.0121  3.5086  0.4815
 2681SOL     OW 8941   2.077   3.113   0.787 -0.7584 -0.1219  0.1960
 2681SOL    HW1 8942   2.154   3.133   0.847 -0.3192  0.8169 -0.6618
 2681SOL    HW2 8943   2.098   3.143   0.694 -1.3264 -1.7655 -0.4995
 2682SOL     OW 8944   5.402   3.465   4.004 -0.5450 -0.1251  0.7469
 2682SOL    HW1 8945   5.432   3.482   4.098 -0.8555 -0.1963  0.8627
 2682SOL    HW2 8946   5.383   3.367   3.992 -1.6874  0.0583  0.9711
 2683SOL     OW 8947   1.165   0.138   6.780  0.6160 -0.0665  0.3632
 2683SOL    HW1 8948   1.193   0.059   6.725 -1.1823 -0.7257  0.3298
 2683SOL    HW2 8949   1.084   0.114   6.834 -0.1382  1.8299  0.1433
 2684SOL     OW 8950   2.157   4.163   3.778  0.7484  0.1928  0.1135
 2684SOL    HW1 8951   2.096   4.087   3.756 -0.2943  0.5699  1.5044
 2684SOL    HW2 8952   2.247   4.128   3.801  0.6811 -0.4988 -0.6516
 2685SOL     OW 8953   5.793   6.129   6.805  0.2055  0.3331  0.6358
 2685SOL    HW1 8954   5.886   6.142   6.840  0.0460  2.0910  0.5047
 2685SOL    HW2 8955   5.779   6.186   6.724 -0.3750 -1.4548 -0.5746
 2686SOL     OW 8956   1.016   4.420   5.995  0.2418 -0.1974 -0.7695
 2686SOL    HW1 8957   0.921   4.405   5.967  0.9049 -1.8198 -2.4178
 2686SOL    HW2 8958   1.054   4.495   5.942 -0.7956  2.3119  1.7941
 2687SOL     OW 8959   4.672   5.149   2.982 -0.1096  0.1929  0.4292
 2687SOL    HW1 8960   4.631   5.108   2.901 -2.9865  1.1051  1.2979
 2687SOL    HW2 8961   4.730   5.226   2.954  1.9161 -1.7000 -0.9059
 2688SOL     OW 8962   3.464   4.864   0.081 -0.3074 -0.0429  0.0502
 2688SOL    HW1 8963   3.425   4.915   0.005 -1.8031 -0.7649  0.2986
 2688SOL    HW2 8964   3.432   4.769   0.078  0.0717 -0.2293  1.2568
 2689SOL     OW 8965   6.748   2.399   4.677 -0.8194  0.2645  0.2849
 2689SOL    HW1 8966   6.742   2.303   4.649  0.1521  0.2631  0.0524
 2689SOL    HW2 8967   6.662   2.426   4.721 -1.2978 -0.5549 -0.1174
 2690SOL     OW 8968   4.334   3.979   1.696 -0.4709  0.1473 -0.2728
 2690SOL    HW1 8969   4.418   3.926   1.700  0.0774  1.0414  1.2567
 2690SOL    HW2 8970   4.352   4.072   1.730 -1.9664  0.5030 -0.3825
 2691SOL     OW 8971   1.770   0.334   2.086  0.6082 -0.7143  0.0960
 2691SOL    HW1 8972   1.760   0.311   2.183 -0.1899  0.1130  0.2355
 2691SOL    HW2 8973   1.782   0.251   2.033 -0.6793 -1.3415  0.7277
 2692SOL     OW 8974   6.981   3.819   3.536 -0.1122 -0.1036  0.3308
 2692SOL    HW1 8975   6.953   3.867   3.453  0.8665  0.6810  0.4373
 2692SOL    HW2 8976   7.067   3.770   3.518  0.3167  0.3994  0.9902
 2693SOL     OW 8977   1.978   3.964   3.683  0.2215  0.4500  0.3559
 2693SOL    HW1 8978   2.002   3.871   3.658  0.2117  0.3819  0.5976
 2693SOL    HW2 8979   1.913   3.963   3.759 -0.2153  0.6412 -0.0077
 2694SOL     OW 8980   0.964   2.139   3.243  0.3318 -0.3452  0.0277
 2694SOL    HW1 8981   0.941   2.218   3.186 -0.6211 -0.9763 -0.4941
 2694SOL    HW2 8982   0.886   2.117   3.302 -0.4147 -2.3750 -1.5800
 2695SOL     OW 8983   3.450   0.853   1.334  0.7772  0.3417  0.0148
 2695SOL    HW1 8984   3.446   0.949   1.306  0.4572 -0.0153 -1.2043
 2695SOL    HW2 8985   3.422   0.845   1.430 -1.1805  1.2149 -0.4495
 2696SOL     OW 8986   3.118   6.051   5.969  0.1221  0.6510  0.0753
 2696SOL    HW1 8987   3.124   6.151   5.970  0.2799  0.7182 -2.2240
 2696SOL    HW2 8988   3.024   6.023   5.953  0.0906  0.4048  0.6395
 2697SOL     OW 8989   3.396   2.360   5.368 -0.4288 -0.3526  0.6623
 2697SOL    HW1 8990   3.386   2.418   5.449 -0.2234  0.1482  0.3370
 2697SOL    HW2 8991   3.313   2.364   5.313 -0.6340 -0.8330  0.9411
 2698SOL     OW 8992   0.212   4.028   5.854 -0.4974 -0.2375  0.0394
 2698SOL    HW1 8993   0.255   4.098   5.911 -1.2388  0.7039 -0.5290
 2698SOL    HW2 8994   0.176   4.070   5.771 -0.4419 -1.3989 -0.5946
 2699SOL     OW 8995   2.264   5.892   3.229  0.1108  0.0471  0.2312
 2699SOL    HW1 8996   2.181   5.942   3.255 -0.6345 -0.3180 -1.3442
 2699SOL    HW2 8997   2.278   5.899   3.131  0.5788 -1.9202  0.1115
 2700SOL     OW 8998   2.916   1.296   2.390  0.5963 -0.8535 -0.0009
 2700SOL    HW1 8999   2.922   1.344   2.302 -1.4639 -0.0669  0.2400
 2700SOL    HW2 9000   2.995   1.235   2.399  1.4074 -0.1905 -1.9234
 2701SOL     OW 9001   2.911   5.944   4.802 -0.6307 -0.4465 -0.2677
 2701SOL    HW1 9002   2.939   5.852   4.776  2.3785 -0.6630  2.9109
 2701SOL    HW2 9003   2.878   5.943   4.897 -0.9178  1.6866 -0.2962
 2702SOL     OW 9004   6.972   5.506   2.820 -0.5455  0.7187 -0.5148
 2702SOL    HW1 9005   7.053   5.533   2.769 -0.9208  1.1975 -0.8703
 2702SOL    HW2 9006   6.944   5.582   2.879 -0.7613  0.5698 -0.4261
 2703SOL     OW 9007   3.023   1.688   4.067 -0.0524  0.0623 -0.1871
 2703SOL    HW1 9008   3.030   1.633   3.984 -0.1959 -1.5213  0.8077
 2703SOL    HW2 9009   2.953   1.758   4.054 -0.2343 -0.3080 -1.3230
 2704SOL     OW 9010   2.158   5.048   0.322  0.1686 -0.0348 -0.2850
 2704SOL    HW1 9011   2.182   4.978   0.255 -1.6930 -0.8102 -0.2117
 2704SOL    HW2 9012   2.237   5.070   0.379  1.0408 -1.3550 -0.9630
 2705SOL     OW 9013   5.933   2.501   1.722  0.0615 -0.3640 -0.0684
 2705SOL    HW1 9014   5.947   2.550   1.636 -1.1156  0.5872  0.2441
 2705SOL    HW2 9015   5.835   2.500   1.743  0.4295  0.5177  1.8779
 2706SOL     OW 9016   6.653   2.132   5.101  0.6371 -0.8452 -0.8766
 2706SOL    HW1 9017   6.599   2.130   5.017  0.4063 -1.0964 -0.7242
 2706SOL    HW2 9018   6.735   2.076   5.088  0.9308 -0.3504 -1.1540
 2707SOL     OW 9019   2.637   1.667   0.675 -0.5363  0.3725  0.1515
 2707SOL    HW1 9020   2.668   1.758   0.647 -0.3173  0.5107  0.8306
 2707SOL    HW2 9021   2.711   1.619   0.721 -0.7315 -0.0563  0.0256
 2708SOL     OW 9022   0.150   5.721   1.356  0.6523 -0.9818  0.2322
 2708SOL    HW1 9023   0.056   5.699   1.332  0.4292  0.2652 -0.1464
 2708SOL    HW2 9024   0.150   5.794   1.425  1.3322 -1.8310  1.1470
 2709SOL     OW 9025   4.309   4.598   2.794  0.3030  0.0896 -0.0054
 2709SOL    HW1 9026   4.359   4.682   2.816  0.5316  0.4110 -1.6265
 2709SOL    HW2 9027   4.374   4.524   2.779  0.1111 -0.3426  1.1562
 2710SOL     OW 9028   6.012   4.425   3.490 -0.7721 -0.0452  0.1142
 2710SOL    HW1 9029   5.938   4.415   3.556 -0.5999 -2.3018  0.0603
 2710SOL    HW2 9030   5.987   4.492   3.420 -2.0413  0.4424  1.0107
 2711SOL     OW 9031   2.854   6.395   2.553 -0.3801 -0.1841  0.1112
 2711SOL    HW1 9032   2.886   6.346   2.472  1.1637 -0.2560  0.7318
 2711SOL    HW2 9033   2.845   6.331   2.629  2.0509  0.4847  1.0429
 2712SOL     OW 9034   5.984   5.454   1.602  0.3770 -0.2810  0.3191
 2712SOL    HW1 9035   6.032   5.474   1.687  3.2978 -1.7104 -0.8493
 2712SOL    HW2 9036   5.973   5.355   1.592 -1.6054 -0.0573 -0.1780
 2713SOL     OW 9037   2.701   3.065   5.361  0.1067 -0.0947 -0.4348
 2713SOL    HW1 9038   2.617   3.058   5.306  1.3624 -1.7263 -2.2837
 2713SOL    HW2 9039   2.733   3.160   5.360  0.0142 -0.0229 -2.4888
 2714SOL     OW 9040   4.010   0.844   0.081  0.0498 -0.0770  0.0759
 2714SOL    HW1 9041   4.078   0.772   0.065 -0.8741 -1.0700  0.4581
 2714SOL    HW2 9042   3.974   0.835   0.174  0.9440  1.7962  0.6566
 2715SOL     OW 9043   7.015   2.128   1.785 -0.1454 -0.5486  0.0216
 2715SOL    HW1 9044   7.022   2.176   1.873 -1.7322  1.5331 -0.8944
 2715SOL    HW2 9045   6.923   2.140   1.748  0.0910 -2.4907 -1.3571
 2716SOL     OW 9046   6.208   1.641   3.305  0.1448 -0.2734  0.0274
 2716SOL    HW1 9047   6.252   1.697   3.234 -0.0931 -1.2287 -0.9028
 2716SOL    HW2 9048   6.110   1.660   3.305  0.0861 -0.5692 -0.1855
 2717SOL     OW 9049   2.022   6.212   4.093  0.2049 -0.1395 -0.1084
 2717SOL    HW1 9050   2.008   6.311   4.096 -0.6363 -0.2475 -0.3588
 2717SOL    HW2 9051   1.952   6.169   4.036  0.6985 -0.8580 -0.1883
 2718SOL     OW 9052   6.141   4.662   4.818  0.3601 -0.2512  0.0860
 2718SOL    HW1 9053   6.227   4.712   4.816 -0.0323  0.4770  0.8415
 2718SOL    HW2 9054   6.069   4.718   4.778 -0.1271 -0.1146  1.1306
 2719SOL     OW 9055   3.997   5.549   4.032  0.1163 -0.2011 -0.2878
 2719SOL    HW1 9056   4.032   5.539   4.126  1.1395  0.4972 -0.5807
 2719SOL    HW2 9057   3.919   5.612   4.032 -1.5284 -2.1445  0.4446
 2720SOL     OW 9058   1.092   6.128   6.173 -0.5511  0.1590 -0.6495
 2720SOL    HW1 9059   1.162   6.063   6.204 -0.1658  1.7647  2.2252
 2720SOL    HW2 9060   1.036   6.086   6.102 -0.2048 -3.2009  0.8946
 2721SOL     OW 9061   5.772   0.152   2.239  0.5006  1.1796  0.2070
 2721SOL    HW1 9062   5.754   0.107   2.152  0.4537  0.2050  0.7043
 2721SOL    HW2 9063   5.685   0.175   2.284  0.4750 -0.2833  0.9686
 2722SOL     OW 9064   1.410   5.588   1.563 -0.0388 -0.4936 -0.4141
 2722SOL    HW1 9065   1.510   5.582   1.574 -0.0363 -0.7289 -0.5477
 2722SOL    HW2 9066   1.366   5.520   1.622 -0.1678  0.2255  0.3323
 2723SOL     OW 9067   1.946   2.149   5.326 -0.0702  0.1210  0.4775
 2723SOL    HW1 9068   1.925   2.204   5.245  1.3542  1.6709  1.1095
 2723SOL    HW2 9069   1.947   2.052   5.300 -4.0822  0.1418 -0.3485
 2724SOL     OW 9070   3.776   6.670   4.860 -0.2473  0.0817 -0.3054
 2724SOL    HW1 9071   3.707   6.732   4.823  0.5930  2.9059  2.4157
 2724SOL    HW2 9072   3.867   6.709   4.845  0.4100 -1.1196  0.3884
 2725SOL     OW 9073   1.384   4.914   4.361  0.3086 -0.1663  0.6968
 2725SOL    HW1 9074   1.315   4.856   4.404 -1.6515  3.1340  2.4409
 2725SOL    HW2 9075   1.474   4.873   4.373 -0.9637 -3.0045  1.3450
 2726SOL     OW 9076   4.394   6.325   1.408  0.6213  0.4526 -0.3543
 2726SOL    HW1 9077   4.322   6.309   1.341  0.7085 -1.8424  0.0258
 2726SOL    HW2 9078   4.391   6.420   1.438 -1.5793  0.6674 -1.1104
 2727SOL     OW 9079   2.663   4.679   3.774  0.3935  0.3775 -0.3480
 2727SOL    HW1 9080   2.580   4.710   3.822  0.2131  1.7603 -1.4690
 2727SOL    HW2 9081   2.743   4.723   3.814  0.2788  1.2454 -1.0343
 2728SOL     OW 9082   3.735   5.681   5.778 -0.4595  0.2742  0.4749
 2728SOL    HW1 9083   3.743   5.593   5.731 -1.6932  0.0126  0.7233
 2728SOL    HW2 9084   3.777   5.675   5.868  0.6659  0.3677 -0.0129
 2729SOL     OW 9085   1.301   4.919   3.543 -0.2836  0.1202 -0.3927
 2729SOL    HW1 9086   1.383   4.958   3.584 -0.0449  0.4577 -1.1707
 2729SOL    HW2 9087   1.265   4.982   3.474 -1.0588 -0.1347 -0.2336
 2730SOL     OW 9088   0.225   5.449   1.095 -1.0445 -0.3080  0.0407
 2730SOL    HW1 9089   0.249   5.527   1.152 -0.2450  0.6149 -1.4944
 2730SOL    HW2 9090   0.239   5.472   0.998  0.6430 -2.7844 -0.4183
 2731SOL     OW 9091   2.786   3.911   1.249 -0.5093 -0.1040  0.4440
 2731SOL    HW1 9092   2.768   3.882   1.155  1.5702 -2.0148  0.5610
 2731SOL    HW2 9093   2.817   4.006   1.250 -2.9715  0.7774 -0.4756
 2732SOL     OW 9094   5.515   3.686   3.907 -0.2915 -0.2465  0.0937
 2732SOL    HW1 9095   5.489   3.590   3.922  0.0875 -0.3167  0.3184
 2732SOL    HW2 9096   5.615   3.694   3.906 -0.3097 -0.0001 -0.9070
 2733SOL     OW 9097   3.517   6.376   4.895  0.0621  0.0470 -0.1661
 2733SOL    HW1 9098   3.615   6.361   4.881 -0.1374 -1.6198  0.0576
 2733SOL    HW2 9099   3.492   6.350   4.988 -0.6516  0.1416 -0.3216
 2734SOL     OW 9100   3.578   0.423   3.172  0.2136 -0.0109 -0.1448
 2734SOL    HW1 9101   3.661   0.479   3.164 -0.2543  0.6528 -0.3961
 2734SOL    HW2 9102   3.601   0.327   3.154  1.0333  0.0826  0.3395
 2735SOL     OW 9103   1.359   6.424   0.546 -0.4910  0.4183 -0.4136
 2735SOL    HW1 9104   1.349   6.524   0.545 -3.0362  0.2241 -0.6270
 2735SOL    HW2 9105   1.445   6.400   0.591 -0.1176  2.6701  0.2182
 2736SOL     OW 9106   4.996   5.268   6.472 -0.0944 -0.1858 -0.2359
 2736SOL    HW1 9107   4.937   5.332   6.422 -2.9595 -2.0534  0.5394
 2736SOL    HW2 9108   4.998   5.292   6.569 -0.9441 -1.0472  0.0104
 2737SOL     OW 9109   3.178   3.045   4.671  0.2019  0.5326  0.4302
 2737SOL    HW1 9110   3.127   3.098   4.738 -1.8449 -1.1518  0.2946
 2737SOL    HW2 9111   3.223   2.968   4.716 -0.5051 -0.1332  0.0234
 2738SOL     OW 9112   6.229   3.685   3.773  0.0124 -0.1239 -0.1219
 2738SOL    HW1 9113   6.169   3.762   3.754  0.6643  0.4767  0.1888
 2738SOL    HW2 9114   6.293   3.672   3.697 -0.4669 -0.7300 -0.4310
 2739SOL     OW 9115   3.903   3.925   0.566 -0.5469  0.0569 -0.2810
 2739SOL    HW1 9116   3.892   3.994   0.638 -0.4815 -0.3215  0.0971
 2739SOL    HW2 9117   3.963   3.961   0.494  1.2836 -0.3974  0.9577
 2740SOL     OW 9118   5.544   1.477   5.059 -0.2114  0.1692 -0.2362
 2740SOL    HW1 9119   5.582   1.434   5.140  0.8333  1.7672  0.1632
 2740SOL    HW2 9120   5.448   1.451   5.049 -0.4909  0.3245  1.7849
 2741SOL     OW 9121   2.425   2.088   5.768 -0.4557  0.3844  0.0584
 2741SOL    HW1 9122   2.434   2.077   5.669  0.7386  0.9404  0.0825
 2741SOL    HW2 9123   2.369   2.015   5.805 -0.8503  0.1213 -1.0233
 2742SOL     OW 9124   2.626   6.157   5.951 -0.3514  0.6256  0.6179
 2742SOL    HW1 9125   2.636   6.168   6.050  4.6389 -0.3790  0.5111
 2742SOL    HW2 9126   2.635   6.246   5.906 -2.0764  1.0105  0.9864
 2743SOL     OW 9127   5.072   3.703   5.892 -0.3024  0.2721 -0.6429
 2743SOL    HW1 9128   5.006   3.776   5.872  0.6406  0.9333 -1.4710
 2743SOL    HW2 9129   5.057   3.669   5.985 -1.4756  0.7426 -0.6392
 2744SOL     OW 9130   4.555   6.665   2.121  0.7457  0.1380 -0.1742
 2744SOL    HW1 9131   4.462   6.677   2.085  0.7263  1.2992  0.2232
 2744SOL    HW2 9132   4.606   6.750   2.109  1.6740 -0.4038 -0.1233
 2745SOL     OW 9133   3.171   5.705   6.922  0.6929 -0.0075  0.1259
 2745SOL    HW1 9134   3.241   5.635   6.935  0.6347 -0.3351 -1.1576
 2745SOL    HW2 9135   3.207   5.778   6.865 -0.1469 -0.4417 -0.9996
 2746SOL     OW 9136   0.793   2.305   6.244  0.3034  0.1142 -0.5056
 2746SOL    HW1 9137   0.719   2.372   6.252  0.4133  0.2322 -0.4694
 2746SOL    HW2 9138   0.774   2.227   6.303  2.0078  1.7938  2.4895
 2747SOL     OW 9139   6.627   5.990   2.729 -0.1631  0.4493 -0.1070
 2747SOL    HW1 9140   6.639   6.002   2.827 -2.0346  0.0600  0.2012
 2747SOL    HW2 9141   6.537   5.952   2.710  0.5021 -0.3578 -1.9357
 2748SOL     OW 9142   6.008   3.501   5.666 -0.0861  0.1145  0.3235
 2748SOL    HW1 9143   6.081   3.548   5.616 -0.3875 -0.6996 -0.9339
 2748SOL    HW2 9144   5.945   3.569   5.703  0.2867  0.7631 -0.1876
 2749SOL     OW 9145   5.915   5.042   3.281 -0.2695  0.2480 -0.2056
 2749SOL    HW1 9146   5.958   5.107   3.217 -1.7015  0.3418 -1.1065
 2749SOL    HW2 9147   5.817   5.037   3.263 -0.2056 -2.1760 -0.1638
 2750SOL     OW 9148   2.580   6.051   0.102  0.2428 -0.3817  0.2608
 2750SOL    HW1 9149   2.662   6.060   0.158  0.5253 -1.3584  0.0194
 2750SOL    HW2 9150   2.506   6.011   0.157  1.1621 -3.4720 -0.5728
 2751SOL     OW 9151   3.839   6.385   5.164 -0.2663  0.0927 -0.2015
 2751SOL    HW1 9152   3.927   6.361   5.124  0.0769 -1.0632  1.1496
 2751SOL    HW2 9153   3.789   6.301   5.188 -0.9473  0.7335  0.6905
 2752SOL     OW 9154   2.052   6.460   5.774 -0.1871 -0.0099 -0.1115
 2752SOL    HW1 9155   2.000   6.385   5.815  1.0015 -0.5276  0.4995
 2752SOL    HW2 9156   2.107   6.426   5.698  2.2678 -0.3496  1.6998
 2753SOL     OW 9157   4.029   3.884   5.335  0.2351  0.7511  0.2356
 2753SOL    HW1 9158   4.023   3.874   5.434  0.7595 -1.0605  0.1223
 2753SOL    HW2 9159   3.955   3.832   5.292  1.3011 -0.3114 -0.3637
 2754SOL     OW 9160   1.076   4.911   5.161 -0.1288  0.6413  0.0110
 2754SOL    HW1 9161   0.991   4.880   5.204  1.2205 -2.0508  0.9782
 2754SOL    HW2 9162   1.146   4.924   5.231  1.2163 -0.6997 -1.0061
 2755SOL     OW 9163   5.374   5.514   3.424 -0.7955 -0.5840 -0.2403
 2755SOL    HW1 9164   5.404   5.547   3.513 -0.0418 -0.9873 -0.3365
 2755SOL    HW2 9165   5.328   5.587   3.374  1.0178  0.4150 -0.5417
 2756SOL     OW 9166   0.597   2.533   5.727  0.3628  0.5637 -0.1811
 2756SOL    HW1 9167   0.546   2.576   5.652  1.2890  1.1016 -0.5114
 2756SOL    HW2 9168   0.690   2.512   5.697  0.0990 -1.2208  0.1400
 2757SOL     OW 9169   5.277   3.757   6.790 -0.3952  0.1675  0.0225
 2757SOL    HW1 9170   5.322   3.834   6.746  0.5881 -0.6982 -0.5445
 2757SOL    HW2 9171   5.248   3.782   6.882 -1.6776  1.7380 -0.7594
 2758SOL     OW 9172   6.749   0.309   1.204  0.1628 -0.2192 -0.6074
 2758SOL    HW1 9173   6.834   0.256   1.206  0.3821  0.1536  1.7809
 2758SOL    HW2 9174   6.671   0.247   1.209  0.4128 -0.4228  1.7741
 2759SOL     OW 9175   3.816   2.966   4.068  0.0663 -0.8888  0.4261
 2759SOL    HW1 9176   3.803   2.958   3.969 -0.0544  0.6468  0.2924
 2759SOL    HW2 9177   3.911   2.990   4.087 -0.4326  1.1863  0.4940
 2760SOL     OW 9178   4.615   6.339   2.284  0.3597 -0.1872  0.3416
 2760SOL    HW1 9179   4.646   6.434   2.287  0.3480 -0.2055  1.0431
 2760SOL    HW2 9180   4.570   6.322   2.196 -0.2378  0.6457  0.4720
 2761SOL     OW 9181   1.306   3.482   4.558 -0.6034 -0.0774 -0.5309
 2761SOL    HW1 9182   1.235   3.451   4.495 -0.7334 -2.3630  0.6257
 2761SOL    HW2 9183   1.363   3.404   4.585 -0.7977  0.6610  2.4384
 2762SOL     OW 9184   6.015   6.773   3.027  0.1721 -0.8174 -0.1003
 2762SOL    HW1 9185   6.020   6.873   3.029  1.2760 -0.8590 -0.2331
 2762SOL    HW2 9186   6.076   6.738   2.956 -0.9771 -1.5514 -0.7562
 2763SOL     OW 9187   7.004   6.804   4.781  0.7856 -0.0840 -0.2379
 2763SOL    HW1 9188   7.081   6.745   4.758  0.0453 -1.5659  0.8529
 2763SOL    HW2 9189   6.946   6.818   4.701 -0.3542 -2.9664 -0.0354
 2764SOL     OW 9190   1.345   4.125   2.736 -0.3225  0.3681 -0.1892
 2764SOL    HW1 9191   1.301   4.036   2.733  0.4275  0.0041 -0.8906
 2764SOL    HW2 9192   1.430   4.121   2.684 -0.2728  1.4894 -0.2091
 2765SOL     OW 9193   0.594   6.730   6.676 -0.5091 -0.1756 -0.0839
 2765SOL    HW1 9194   0.666   6.704   6.739 -0.4965 -1.6155 -0.6640
 2765SOL    HW2 9195   0.506   6.728   6.723 -0.9538 -4.3137 -0.6975
 2766SOL     OW 9196   4.026   0.601   6.240  0.4412 -0.2520  0.0242
 2766SOL    HW1 9197   4.117   0.590   6.202 -0.4703  0.4391 -2.5548
 2766SOL    HW2 9198   3.980   0.512   6.243 -0.1692 -0.0830 -2.5279
 2767SOL     OW 9199   4.980   6.923   4.767 -0.3536  0.2390  0.0179
 2767SOL    HW1 9200   5.041   6.958   4.839  0.0142  0.4319 -0.3804
 2767SOL    HW2 9201   4.905   6.988   4.753 -0.2142  0.3900 -0.0371
 2768SOL     OW 9202   2.199   0.050   2.312  0.3118  0.0466 -0.1421
 2768SOL    HW1 9203   2.211   0.003   2.400 -1.7041 -1.1491 -0.4255
 2768SOL    HW2 9204   2.101   0.050   2.289  0.8204  0.1469 -2.4828
 2769SOL     OW 9205   6.674   3.915   6.438 -0.6484 -0.8165 -0.2574
 2769SOL    HW1 9206   6.646   3.869   6.354 -0.0687 -0.5630 -0.5936
 2769SOL    HW2 9207   6.758   3.967   6.422 -1.6546  0.9669 -0.1144
 2770SOL     OW 9208   2.203   6.417   1.714 -0.0491 -0.4216  0.2285
 2770SOL    HW1 9209   2.193   6.396   1.617  0.7150 -0.5328  0.1606
 2770SOL    HW2 9210   2.231   6.512   1.725  1.8484 -0.9296  0.1949
 2771SOL     OW 9211   5.052   6.249   5.537 -0.6577 -0.7065  0.1148
 2771SOL    HW1 9212   5.007   6.330   5.575  0.4596 -0.1541  0.3199
 2771SOL    HW2 9213   5.073   6.185   5.611  1.4837  0.3521  0.5061
 2772SOL     OW 9214   5.179   2.361   4.942 -0.2353  0.0227 -0.3670
 2772SOL    HW1 9215   5.192   2.271   4.902 -0.4526  0.2347 -0.9303
 2772SOL    HW2 9216   5.229   2.367   5.029 -1.4534 -1.1463  0.4562
 2773SOL     OW 9217   3.911   1.162   1.336 -0.7878  0.4857  0.4356
 2773SOL    HW1 9218   3.966   1.246   1.342  0.6770 -0.3347 -0.8567
 2773SOL    HW2 9219   3.849   1.158   1.414  0.3768  1.8793  1.5005
 2774SOL     OW 9220   3.027   6.742   4.512 -0.0344 -0.5545  0.3033
 2774SOL    HW1 9221   2.996   6.675   4.445  1.0370 -0.3746 -0.3797
 2774SOL    HW2 9222   3.024   6.834   4.471 -0.2445 -0.3360  0.8021
 2775SOL     OW 9223   6.157   0.525   6.424 -0.3546  0.3230 -0.5922
 2775SOL    HW1 9224   6.200   0.615   6.421 -1.8542  1.2076  1.4363
 2775SOL    HW2 9225   6.209   0.466   6.485  0.4779 -0.1166 -1.7096
 2776SOL     OW 9226   3.128   3.110   6.160  0.1096 -0.5490  0.4227
 2776SOL    HW1 9227   3.097   3.081   6.250 -1.9457 -0.6584 -0.2605
 2776SOL    HW2 9228   3.126   3.032   6.097 -1.2677  0.0968 -0.3814
 2777SOL     OW 9229   1.606   2.805   0.436  0.0817  0.3730 -0.0289
 2777SOL    HW1 9230   1.575   2.736   0.370 -1.4515  1.5990 -0.6593
 2777SOL    HW2 9231   1.601   2.768   0.528  1.1114 -0.9744 -0.4762
 2778SOL     OW 9232   4.343   6.790   4.318 -0.8352 -0.0351 -0.2543
 2778SOL    HW1 9233   4.390   6.785   4.230 -0.2815  0.3549  0.0156
 2778SOL    HW2 9234   4.245   6.776   4.304 -0.9549  1.4549 -1.1302
 2779SOL     OW 9235   4.113   0.819   4.731  0.5469  0.2235 -0.0722
 2779SOL    HW1 9236   4.092   0.722   4.719 -0.9324  0.4067  0.7329
 2779SOL    HW2 9237   4.148   0.857   4.645 -1.7550 -0.3628 -1.3737
 2780SOL     OW 9238   0.449   1.238   5.075  0.1432  0.1667 -0.1182
 2780SOL    HW1 9239   0.416   1.195   4.991  0.0357  1.4659 -0.7694
 2780SOL    HW2 9240   0.436   1.176   5.152 -1.1263 -0.4732 -0.8257
 2781SOL     OW 9241   1.979   0.998   1.835 -0.3127  0.1558  0.4443
 2781SOL    HW1 9242   1.978   0.995   1.934 -3.9958  0.0521  0.5436
 2781SOL    HW2 9243   1.934   1.082   1.803  0.9392  0.2731 -1.1892
 2782SOL     OW 9244   4.681   6.906   5.332  0.3044 -0.4465 -0.2508
 2782SOL    HW1 9245   4.764   6.853   5.317  0.5461  0.4272 -2.4181
 2782SOL    HW2 9246   4.624   6.903   5.250 -0.2270  1.6141 -0.0263
 2783SOL     OW 9247   6.287   2.107   1.954 -0.2648 -0.2134 -0.4822
 2783SOL    HW1 9248   6.324   2.123   2.045  0.4931  1.4953 -1.0657
 2783SOL    HW2 9249   6.275   2.194   1.906 -2.4283 -0.9032 -1.3562
 2784SOL     OW 9250   0.429   3.704   0.368  0.3510  0.2076  0.0186
 2784SOL    HW1 9251   0.437   3.623   0.309 -1.9154 -1.3850  1.7059
 2784SOL    HW2 9252   0.494   3.696   0.444  1.4071  0.9272 -0.7888
 2785SOL     OW 9253   6.117   4.288   4.249  0.2945 -0.4676  0.2389
 2785SOL    HW1 9254   6.107   4.331   4.339 -0.5058  0.7884 -0.4249
 2785SOL    HW2 9255   6.214   4.274   4.228  0.4797 -1.3036  1.5145
 2786SOL     OW 9256   6.961   0.133   0.975  0.4837  0.0010 -1.1374
 2786SOL    HW1 9257   7.052   0.127   0.933  0.5725 -1.1285 -0.8095
 2786SOL    HW2 9258   6.970   0.130   1.074  0.0591 -0.8385 -1.1133
 2787SOL     OW 9259   0.402   5.856   5.429  0.2464 -0.3955  0.1598
 2787SOL    HW1 9260   0.430   5.797   5.354 -0.3366  0.6090 -0.8827
 2787SOL    HW2 9261   0.465   5.934   5.435  0.2498 -0.4364  0.6661
 2788SOL     OW 9262   4.258   0.279   1.408  0.3935  0.2059  0.1000
 2788SOL    HW1 9263   4.218   0.343   1.474  1.8377  0.1854  1.0297
 2788SOL    HW2 9264   4.184   0.232   1.358 -0.7312  2.8753 -0.9514
 2789SOL     OW 9265   2.874   2.286   3.389  0.2796  0.1202  0.0629
 2789SOL    HW1 9266   2.881   2.283   3.290 -1.9567 -1.6055 -0.1161
 2789SOL    HW2 9267   2.816   2.363   3.417 -0.1241 -0.1473 -0.0441
 2790SOL     OW 9268   0.294   5.802   2.204  0.0477 -0.4201  0.2629
 2790SOL    HW1 9269   0.346   5.743   2.265 -0.7652  0.1733  1.5552
 2790SOL    HW2 9270   0.272   5.887   2.250 -0.1785  0.2542 -1.0324
 2791SOL     OW 9271   1.395   3.095   4.849  0.5080  0.1585  0.1573
 2791SOL    HW1 9272   1.493   3.108   4.860  0.7553 -2.2931  1.4055
 2791SOL    HW2 9273   1.376   3.004   4.814 -1.3112  1.0273 -1.3059
 2792SOL     OW 9274   3.473   0.073   5.464  0.2796  1.0376 -0.2308
 2792SOL    HW1 9275   3.450   0.145   5.529 -0.5535  1.3236 -0.8195
 2792SOL    HW2 9276   3.396   0.008   5.458  0.9008  0.2595  0.0777
 2793SOL     OW 9277   3.008   2.331   6.717  0.3070 -0.1334  0.8150
 2793SOL    HW1 9278   2.917   2.300   6.690 -0.5340 -0.1850  3.3875
 2793SOL    HW2 9279   3.065   2.343   6.636 -1.7881 -0.6734 -0.8283
 2794SOL     OW 9280   2.490   0.943   6.680 -0.2918  0.7939 -0.6668
 2794SOL    HW1 9281   2.428   0.993   6.741 -0.7661  0.8023 -1.1480
 2794SOL    HW2 9282   2.545   1.008   6.627  1.8857  0.8302  1.4471
 2795SOL     OW 9283   2.516   6.334   0.857  0.2561 -0.1936  0.4503
 2795SOL    HW1 9284   2.512   6.235   0.875  0.0707 -0.0372  1.3315
 2795SOL    HW2 9285   2.611   6.363   0.855  0.3718 -0.6092 -1.1561
 2796SOL     OW 9286   1.115   0.794   1.580  0.2008 -0.1949 -0.2512
 2796SOL    HW1 9287   1.185   0.729   1.550  0.9537 -0.3829  1.7915
 2796SOL    HW2 9288   1.158   0.881   1.604  0.4521 -1.4238  4.6093
 2797SOL     OW 9289   4.645   5.601   4.789  0.2684  0.7791 -0.5397
 2797SOL    HW1 9290   4.605   5.509   4.787  3.0279 -0.5735  0.4895
 2797SOL    HW2 9291   4.588   5.661   4.845 -0.3396 -0.9927  0.8279
 2798SOL     OW 9292   5.209   2.541   3.130  0.3164  0.5668 -0.0749
 2798SOL    HW1 9293   5.200   2.640   3.136 -0.9740  0.4337  0.5437
 2798SOL    HW2 9294   5.119   2.498   3.143  0.8833 -0.6873 -0.1299
 2799SOL     OW 9295   6.105   6.357   4.950 -0.1315  0.0929 -0.2463
 2799SOL    HW1 9296   6.180   6.392   4.894 -0.2287  0.9234  0.1256
 2799SOL    HW2 9297   6.018   6.369   4.902 -0.2271  0.9037  0.1061
 2800SOL     OW 9298   5.186   2.049   1.964 -0.1058 -0.1583  0.3981
 2800SOL    HW1 9299   5.117   2.093   2.021  0.8999 -0.4222  1.8793
 2800SOL    HW2 9300   5.271   2.039   2.016  0.8010 -0.5854 -1.1035
 2801SOL     OW 9301   1.231   2.590   3.158  0.2581 -0.5288 -0.0812
 2801SOL    HW1 9302   1.286   2.539   3.091  0.1723  0.6840 -1.1118
 2801SOL    HW2 9303   1.150   2.536   3.182  0.8209 -1.4296 -0.1556
 2802SOL     OW 9304   1.026   5.368   4.972  1.3221 -0.2627 -0.4282
 2802SOL    HW1 9305   1.001   5.346   4.878  0.7434  0.0304 -0.3451
 2802SOL    HW2 9306   0.977   5.449   5.002 -1.3086 -2.3238  1.2975
 2803SOL     OW 9307   3.034   2.138   6.034  0.0165 -0.3194 -0.0583
 2803SOL    HW1 9308   3.101   2.166   5.965  0.8574  1.9666  1.5698
 2803SOL    HW2 9309   2.942   2.158   6.000  0.5015  4.0597  0.6071
 2804SOL     OW 9310   5.197   1.720   3.125  0.2488  0.0749 -0.0290
 2804SOL    HW1 9311   5.231   1.679   3.210  0.0297  0.3183  0.1779
 2804SOL    HW2 9312   5.098   1.706   3.119  0.1045  0.9300  0.2463
 2805SOL     OW 9313   4.344   4.439   1.444  0.3772 -0.1299 -0.4133
 2805SOL    HW1 9314   4.341   4.472   1.538 -0.3529 -0.0246 -0.4752
 2805SOL    HW2 9315   4.261   4.464   1.396  0.2250 -1.1969 -0.7479
 2806SOL     OW 9316   6.653   4.138   5.221 -0.3183 -0.1546 -0.4410
 2806SOL    HW1 9317   6.577   4.088   5.262 -0.8703 -1.5000 -2.9035
 2806SOL    HW2 9318   6.653   4.123   5.122  1.5836  1.9977 -0.8480
 2807SOL     OW 9319   5.018   2.636   5.330 -0.0692  0.3628 -0.1460
 2807SOL    HW1 9320   4.987   2.557   5.383 -0.7804 -0.1251 -1.2230
 2807SOL    HW2 9321   5.117   2.645   5.337  0.2969 -1.8148 -1.5118
 2808SOL     OW 9322   1.541   0.859   6.441 -0.2064  0.6518  0.3675
 2808SOL    HW1 9323   1.561   0.782   6.502 -0.8712  0.9609  0.9921
 2808SOL    HW2 9324   1.582   0.843   6.352 -0.2347 -0.3732  0.5305
 2809SOL     OW 9325   0.689   5.113   0.617 -0.6020 -0.9586 -0.2615
 2809SOL    HW1 9326   0.749   5.122   0.538 -1.2920  0.9439 -0.6354
 2809SOL    HW2 9327   0.724   5.170   0.692 -0.7361 -1.5972  0.2921
 2810SOL     OW 9328   0.558   5.083   2.310  0.2309 -0.1949 -0.1762
 2810SOL    HW1 9329   0.579   5.135   2.393  1.9581 -0.6379 -0.2886
 2810SOL    HW2 9330   0.549   5.145   2.233 -0.6465  0.1601  0.2023
 2811SOL     OW 9331   1.073   2.450   1.275 -0.0841 -0.7954 -0.1477
 2811SOL    HW1 9332   1.100   2.384   1.205 -0.0909 -0.3661 -0.5597
 2811SOL    HW2 9333   1.036   2.532   1.231 -0.3932 -0.6536  0.3673
 2812SOL     OW 9334   2.816   6.179   1.228  0.0601 -0.1470 -0.1614
 2812SOL    HW1 9335   2.755   6.103   1.251  0.7951 -0.7979 -0.3437
 2812SOL    HW2 9336   2.909   6.146   1.218  0.1984  0.5495 -1.5055
 2813SOL     OW 9337   1.721   0.850   0.789  0.5577 -0.2090  0.0222
 2813SOL    HW1 9338   1.702   0.800   0.705  0.4487  1.0493 -0.7232
 2813SOL    HW2 9339   1.767   0.789   0.854  0.5011 -1.2402 -0.8746
 2814SOL     OW 9340   2.775   4.048   6.143 -0.1612  0.3231 -0.7768
 2814SOL    HW1 9341   2.757   4.058   6.045  0.0695 -1.9152 -1.1190
 2814SOL    HW2 9342   2.694   4.010   6.187  0.4739 -0.8026 -0.5460
 2815SOL     OW 9343   6.279   4.623   4.248  0.9968 -0.6156 -0.3815
 2815SOL    HW1 9344   6.251   4.619   4.152 -0.6106 -1.1275  0.0688
 2815SOL    HW2 9345   6.361   4.679   4.257 -1.0370  2.8496 -1.5912
 2816SOL     OW 9346   0.228   5.532   5.566  0.0247 -0.0867  0.0586
 2816SOL    HW1 9347   0.152   5.547   5.502  0.0999 -0.4069 -0.1064
 2816SOL    HW2 9348   0.315   5.536   5.516  0.2069  1.4956  0.4385
 2817SOL     OW 9349   4.808   1.253   1.910 -0.0560  0.9347  0.1251
 2817SOL    HW1 9350   4.887   1.197   1.936 -0.0766  0.9532  0.2292
 2817SOL    HW2 9351   4.815   1.343   1.953 -0.2756  0.8410  0.3596
 2818SOL     OW 9352   1.808   1.644   0.433 -0.0281 -0.0280 -0.2037
 2818SOL    HW1 9353   1.725   1.609   0.476  0.9662 -1.0936  0.9344
 2818SOL    HW2 9354   1.853   1.570   0.382 -1.3409  1.2622 -3.5196
 2819SOL     OW 9355   0.604   1.982   5.976  0.1681 -0.1314 -0.8096
 2819SOL    HW1 9356   0.664   2.053   5.940 -0.3219  1.0816  0.6725
 2819SOL    HW2 9357   0.539   2.023   6.040 -0.1477 -1.9175  0.0603
 2820SOL     OW 9358   1.677   1.736   5.619 -0.1785  0.5031  0.5248
 2820SOL    HW1 9359   1.744   1.749   5.546  0.0841  3.0863  1.1366
 2820SOL    HW2 9360   1.718   1.760   5.707 -0.4100 -2.8024  1.6634
 2821SOL     OW 9361   3.038   2.366   6.241  0.4698  0.7043 -0.4800
 2821SOL    HW1 9362   2.980   2.433   6.196 -2.4159 -0.7046  0.8823
 2821SOL    HW2 9363   3.064   2.295   6.175 -1.4921  0.0653 -0.6354
 2822SOL     OW 9364   5.672   2.709   1.399 -0.0553 -0.7624 -0.3102
 2822SOL    HW1 9365   5.665   2.770   1.320 -0.8827  0.4418  0.6488
 2822SOL    HW2 9366   5.704   2.761   1.479  2.0363 -2.2242 -0.1127
 2823SOL     OW 9367   4.213   2.934   1.407  0.1122 -0.1842 -0.1510
 2823SOL    HW1 9368   4.122   2.937   1.450  0.6809  0.9531  1.0606
 2823SOL    HW2 9369   4.283   2.941   1.478  1.2025 -2.0844 -0.9749
 2824SOL     OW 9370   1.515   5.856   6.676  0.2977  0.3232  0.3273
 2824SOL    HW1 9371   1.608   5.883   6.698  0.9016 -0.8801 -0.6264
 2824SOL    HW2 9372   1.491   5.772   6.725  0.3396 -0.3069 -0.6948
 2825SOL     OW 9373   5.210   0.413   4.695 -0.2626 -0.0764  0.0273
 2825SOL    HW1 9374   5.224   0.375   4.786 -0.0409 -0.5284 -0.1913
 2825SOL    HW2 9375   5.253   0.503   4.688  0.9344 -0.6421 -0.0587
 2826SOL     OW 9376   3.703   1.501   6.631 -0.4761 -0.3249 -0.4397
 2826SOL    HW1 9377   3.607   1.473   6.620 -0.5682 -0.0955 -0.2337
 2826SOL    HW2 9378   3.707   1.580   6.692 -0.1299 -0.5007 -0.2355
 2827SOL     OW 9379   6.147   1.894   0.541  0.1263  0.0557 -0.9283
 2827SOL    HW1 9380   6.049   1.912   0.533 -0.0450 -1.3371 -2.6720
 2827SOL    HW2 9381   6.163   1.796   0.548  1.3301  0.3516  1.6913
 2828SOL     OW 9382   0.857   2.473   0.775  0.8260 -0.0009  0.3106
 2828SOL    HW1 9383   0.789   2.476   0.701  0.3938 -0.2958  0.6893
 2828SOL    HW2 9384   0.818   2.513   0.858  1.6202  1.1532  0.1496
 2829SOL     OW 9385   3.071   3.807   2.014 -0.6603 -0.5917 -0.5484
 2829SOL    HW1 9386   2.982   3.781   1.977 -0.7440  0.2173 -0.9416
 2829SOL    HW2 9387   3.133   3.829   1.938 -0.2072 -0.8884 -0.2680
 2830SOL     OW 9388   1.735   4.798   5.727  0.2536  0.5661 -0.7912
 2830SOL    HW1 9389   1.708   4.721   5.670  1.5657 -0.9316  0.5267
 2830SOL    HW2 9390   1.796   4.859   5.676  2.1520 -1.2410 -0.7907
 2831SOL     OW 9391   0.050   1.202   3.147 -0.2401 -0.2406  0.2323
 2831SOL    HW1 9392   0.124   1.256   3.187  0.8134 -1.8139  0.4845
 2831SOL    HW2 9393  -0.027   1.262   3.125  0.9397  1.3627  0.3484
 2832SOL     OW 9394   1.621   3.439   0.448  0.2393 -0.4310 -0.2870
 2832SOL    HW1 9395   1.552   3.479   0.388  0.1085  0.5610  0.5016
 2832SOL    HW2 9396   1.583   3.427   0.540  1.1411  0.2502  0.1921
 2833SOL     OW 9397   0.906   3.975   3.027 -0.5827 -0.0335  0.4650
 2833SOL    HW1 9398   0.950   3.900   3.076 -0.5104 -0.2103  0.1314
 2833SOL    HW2 9399   0.921   3.964   2.929 -0.6988  0.3363  0.4053
 2834SOL     OW 9400   5.165   6.329   4.448  0.3590 -0.4962  0.1461
 2834SOL    HW1 9401   5.224   6.259   4.407  1.1397 -0.8450  1.8014
 2834SOL    HW2 9402   5.189   6.418   4.409  0.5772 -0.9029 -0.6777
 2835SOL     OW 9403   5.278   0.525   1.098 -0.7609 -0.6424  0.1329
 2835SOL    HW1 9404   5.333   0.501   1.178  0.3154  0.7854 -0.1303
 2835SOL    HW2 9405   5.299   0.619   1.070 -2.4452 -0.4813 -0.7442
 2836SOL     OW 9406   3.039   0.360   1.030 -0.1810  0.0131  0.1316
 2836SOL    HW1 9407   3.126   0.400   1.000 -0.7711 -0.0460 -1.8630
 2836SOL    HW2 9408   3.055   0.266   1.062  0.5790  0.2437  0.4467
 2837SOL     OW 9409   6.022   4.803   2.278  0.7189 -0.1004 -0.1495
 2837SOL    HW1 9410   5.967   4.874   2.234 -0.7256  0.0045  1.7128
 2837SOL    HW2 9411   6.093   4.845   2.335  0.3278 -0.1513  0.3816
 2838SOL     OW 9412   6.605   4.495   5.147  0.1213 -0.0146 -0.4100
 2838SOL    HW1 9413   6.531   4.445   5.103 -0.3718 -1.3863  1.8621
 2838SOL    HW2 9414   6.568   4.572   5.199  0.6625  1.3360 -1.9253
 2839SOL     OW 9415   5.380   2.889   5.992 -0.3547 -0.5993 -0.0240
 2839SOL    HW1 9416   5.430   2.953   5.933 -0.3209  0.4311  1.0915
 2839SOL    HW2 9417   5.407   2.904   6.087 -2.5492 -0.2403  0.5844
 2840SOL     OW 9418   5.629   6.574   3.543 -0.3129 -0.1493  0.3043
 2840SOL    HW1 9419   5.576   6.490   3.552  1.0017 -0.9912  0.5612
 2840SOL    HW2 9420   5.725   6.555   3.566  0.5002  0.8477 -2.0309
 2841SOL     OW 9421   5.653   3.585   1.800  0.4313  0.1562 -0.0546
 2841SOL    HW1 9422   5.686   3.679   1.809 -1.5325  1.0317 -1.2947
 2841SOL    HW2 9423   5.678   3.549   1.710  0.4004 -0.1607  0.0620
 2842SOL     OW 9424   1.246   0.374   3.479 -0.2941  0.0373  0.2006
 2842SOL    HW1 9425   1.216   0.293   3.428 -3.3284  0.7579  0.5991
 2842SOL    HW2 9426   1.318   0.348   3.543  0.3991 -1.8405 -1.2551
 2843SOL     OW 9427   1.441   0.952   4.935  0.1569 -0.2034  0.1417
 2843SOL    HW1 9428   1.522   1.007   4.915  1.3706 -1.4529  1.3535
 2843SOL    HW2 9429   1.369   0.973   4.869  0.3084  3.2422  0.9018
 2844SOL     OW 9430   5.364   4.878   6.168 -0.1407  0.0952 -0.2904
 2844SOL    HW1 9431   5.292   4.811   6.152  0.2534 -0.2139 -0.7904
 2844SOL    HW2 9432   5.325   4.961   6.208 -0.4466 -0.9257  1.6469
 2845SOL     OW 9433   3.506   0.262   0.945  0.0546 -0.2535 -0.3785
 2845SOL    HW1 9434   3.447   0.307   1.012  1.9415  2.1276 -0.1919
 2845SOL    HW2 9435   3.601   0.290   0.960  0.9003 -1.8149 -2.3658
 2846SOL     OW 9436   3.051   6.442   6.551 -0.1533 -0.2272 -0.1057
 2846SOL    HW1 9437   3.005   6.531   6.543 -0.8006 -0.4148  1.2076
 2846SOL    HW2 9438   3.138   6.445   6.502 -0.5712  0.8457 -0.8196
 2847SOL     OW 9439   4.566   4.849   1.953  0.1327 -0.0230 -0.1127
 2847SOL    HW1 9440   4.628   4.893   2.018 -0.1028  0.0497  0.0653
 2847SOL    HW2 9441   4.481   4.823   2.000  0.6743 -1.6471  0.0433
 2848SOL     OW 9442   6.009   4.610   6.699  0.6832 -0.0900  0.4483
 2848SOL    HW1 9443   6.036   4.622   6.604 -0.2874 -0.7788  0.0726
 2848SOL    HW2 9444   5.980   4.515   6.713 -1.0983  0.5002  0.9361
 2849SOL     OW 9445   6.280   1.798   1.301  0.9117 -0.1564  0.1997
 2849SOL    HW1 9446   6.209   1.735   1.268  1.0351 -1.8235  2.8423
 2849SOL    HW2 9447   6.237   1.884   1.328  0.5635  0.5071 -2.1739
 2850SOL     OW 9448   1.450   1.328   1.826  0.0339  0.1950 -0.3085
 2850SOL    HW1 9449   1.374   1.310   1.763 -1.5571 -0.6904  1.7537
 2850SOL    HW2 9450   1.511   1.249   1.829  0.9241  0.7827 -1.7227
 2851SOL     OW 9451   3.129   3.876   2.287  0.0548  0.4381 -0.5699
 2851SOL    HW1 9452   3.162   3.798   2.340 -0.8817  1.3611  1.4824
 2851SOL    HW2 9453   3.111   3.847   2.193  1.5528 -1.3262 -0.3733
 2852SOL     OW 9454   6.134   6.174   5.265 -0.3274  0.2090 -0.2964
 2852SOL    HW1 9455   6.142   6.250   5.329  0.7512  0.1108 -0.3013
 2852SOL    HW2 9456   6.107   6.091   5.314  0.6191  0.1030  0.0610
 2853SOL     OW 9457   0.147   0.168   4.315  0.0440  0.3391 -0.0049
 2853SOL    HW1 9458   0.200   0.217   4.385 -0.3801  2.1206 -0.8923
 2853SOL    HW2 9459   0.123   0.230   4.241 -0.1542 -1.3368 -1.4114
 2854SOL     OW 9460   4.037   6.118   6.792 -0.2515  0.5385  0.6110
 2854SOL    HW1 9461   4.067   6.155   6.704 -2.1116 -0.1634 -0.3816
 2854SOL    HW2 9462   4.077   6.027   6.805  0.8120  1.0361  0.9992
 2855SOL     OW 9463   1.845   0.779   3.136  0.1791 -0.0125  0.2191
 2855SOL    HW1 9464   1.859   0.681   3.147  1.1087  0.0374 -0.4134
 2855SOL    HW2 9465   1.929   0.828   3.161 -0.1238  0.5864  0.0776
 2856SOL     OW 9466   0.301   4.291   0.549  0.3888  0.6250 -0.0032
 2856SOL    HW1 9467   0.287   4.192   0.555  0.3084  0.6263 -0.1663
 2856SOL    HW2 9468   0.323   4.316   0.455 -0.3907  0.8633 -0.1312
 2857SOL     OW 9469   6.251   4.177   0.095 -0.0273  0.0262 -0.0033
 2857SOL    HW1 9470   6.303   4.093   0.080 -1.7014 -1.3425  1.4623
 2857SOL    HW2 9471   6.314   4.253   0.107  1.5564 -1.1579 -0.4939
 2858SOL     OW 9472   4.302   5.115   4.228  0.0434 -0.3269 -0.5131
 2858SOL    HW1 9473   4.240   5.189   4.255 -0.4699 -1.6244  2.1232
 2858SOL    HW2 9474   4.396   5.150   4.222  0.3423  0.0597  3.7894
 2859SOL     OW 9475   0.222   4.844   1.805 -0.2429 -1.0240  0.2007
 2859SOL    HW1 9476   0.226   4.746   1.825  0.0479 -1.2068 -0.6913
 2859SOL    HW2 9477   0.258   4.860   1.713  0.6807  0.0373  0.7207
 2860SOL     OW 9478   0.778   5.141   5.599 -0.4374 -0.9765  0.4786
 2860SOL    HW1 9479   0.742   5.077   5.531  0.5101 -0.5252 -0.4905
 2860SOL    HW2 9480   0.730   5.129   5.686 -2.0560 -1.2112 -0.4019
 2861SOL     OW 9481   4.013   3.862   5.606 -0.1580  0.4361 -0.6507
 2861SOL    HW1 9482   4.061   3.919   5.673 -0.1941  0.1313 -0.3615
 2861SOL    HW2 9483   4.023   3.766   5.631  0.0965  0.2969 -1.2654
 2862SOL     OW 9484   4.388   1.409   6.916  0.8798  0.2286 -0.1668
 2862SOL    HW1 9485   4.433   1.370   6.996  0.3305  1.5494  0.8061
 2862SOL    HW2 9486   4.417   1.503   6.903 -0.1711  0.5035 -0.6451
 2863SOL     OW 9487   4.585   1.767   3.297 -0.2928 -0.1879  0.9962
 2863SOL    HW1 9488   4.501   1.801   3.339  0.1224  0.4098  1.3641
 2863SOL    HW2 9489   4.611   1.681   3.340 -1.3500 -0.9941  0.0642
 2864SOL     OW 9490   5.561   0.111   1.119  0.3068  0.4994  0.6630
 2864SOL    HW1 9491   5.561   0.128   1.218 -1.5985 -0.8976  0.9672
 2864SOL    HW2 9492   5.469   0.125   1.083  0.5322 -0.8417 -0.5325
 2865SOL     OW 9493   5.776   5.215   0.077  0.2137 -0.3428  0.1617
 2865SOL    HW1 9494   5.835   5.228   0.158  0.1703  1.1870 -0.0243
 2865SOL    HW2 9495   5.832   5.183   0.001  0.4862 -0.6066  0.4685
 2866SOL     OW 9496   3.704   5.953   0.259  0.1269 -0.6106 -0.2077
 2866SOL    HW1 9497   3.661   6.025   0.313 -0.4529 -1.7806  0.9459
 2866SOL    HW2 9498   3.681   5.966   0.163 -1.1309 -0.0354  0.1471
 2867SOL     OW 9499   1.311   0.252   3.866  0.8472 -0.7203  0.8099
 2867SOL    HW1 9500   1.340   0.301   3.948 -0.3069  0.7995  0.3432
 2867SOL    HW2 9501   1.229   0.294   3.828  1.6006 -1.0798 -1.4075
 2868SOL     OW 9502   1.242   1.475   4.002 -0.3361  0.3619 -0.0036
 2868SOL    HW1 9503   1.240   1.382   4.040 -1.0834  1.1989  2.1665
 2868SOL    HW2 9504   1.336   1.505   3.990 -0.0836 -0.2697  0.3699
 2869SOL     OW 9505   0.974   5.369   4.700  0.3968  0.1806 -0.1579
 2869SOL    HW1 9506   0.889   5.335   4.659  1.3144 -1.5187 -0.7435
 2869SOL    HW2 9507   1.052   5.330   4.652  1.5435  1.7029  0.3800
 2870SOL     OW 9508   1.348   0.287   2.464  0.1919  0.9491  0.3132
 2870SOL    HW1 9509   1.270   0.246   2.511 -0.3503  1.2167 -0.3277
 2870SOL    HW2 9510   1.324   0.380   2.435  1.0028  1.2994  0.7359
 2871SOL     OW 9511   5.668   2.455   4.973 -0.1960  0.2827  0.6909
 2871SOL    HW1 9512   5.624   2.423   4.890  0.5859 -0.5550  0.5852
 2871SOL    HW2 9513   5.659   2.386   5.045  0.9352  0.0893  0.6617
 2872SOL     OW 9514   3.415   0.637   3.158 -0.9045 -0.2813 -0.3050
 2872SOL    HW1 9515   3.486   0.567   3.157 -0.9895 -0.3590 -0.8545
 2872SOL    HW2 9516   3.415   0.686   3.071 -0.7545  0.4940  0.1211
 2873SOL     OW 9517   3.273   0.405   3.721  0.0463 -1.0513  0.2738
 2873SOL    HW1 9518   3.247   0.501   3.708  1.9771 -0.6620 -1.2680
 2873SOL    HW2 9519   3.304   0.391   3.815  0.5556  0.0845  0.3013
 2874SOL     OW 9520   0.856   1.440   5.331  0.0746 -0.5113 -0.2107
 2874SOL    HW1 9521   0.799   1.423   5.251  1.1227 -2.4668 -0.6015
 2874SOL    HW2 9522   0.938   1.491   5.304 -0.7014  0.9839  0.0988
 2875SOL     OW 9523   1.817   0.229   2.670 -0.0610 -0.6710  0.5957
 2875SOL    HW1 9524   1.841   0.242   2.766  0.2936  1.4038  0.2735
 2875SOL    HW2 9525   1.895   0.256   2.613 -0.6102 -0.9532 -0.2989
 2876SOL     OW 9526   0.069   0.166   0.184  0.7026 -0.0849 -0.5993
 2876SOL    HW1 9527   0.124   0.106   0.242  3.1684  2.1151 -0.4751
 2876SOL    HW2 9528   0.040   0.246   0.237 -0.6276 -0.0404 -1.3414
 2877SOL     OW 9529   1.448   4.899   0.101 -0.2442  0.5805 -0.4322
 2877SOL    HW1 9530   1.403   4.989   0.099 -0.3520  0.6023  1.6370
 2877SOL    HW2 9531   1.512   4.895   0.178 -1.0949 -1.5156  0.2333
 2878SOL     OW 9532   3.216   3.457   4.794  0.1117  0.4303  0.5314
 2878SOL    HW1 9533   3.126   3.454   4.838 -0.7212  0.7030 -1.0955
 2878SOL    HW2 9534   3.222   3.537   4.734  1.9526  1.1743  1.6151
 2879SOL     OW 9535   4.633   5.591   1.883 -0.5433  0.0370 -0.3689
 2879SOL    HW1 9536   4.715   5.640   1.853 -0.9883 -0.2789 -2.2296
 2879SOL    HW2 9537   4.654   5.538   1.966  0.2277  2.4659  1.0758
 2880SOL     OW 9538   1.211   0.147   3.314 -0.3625  0.0600  0.3626
 2880SOL    HW1 9539   1.267   0.101   3.382  0.3838 -0.9755 -0.8924
 2880SOL    HW2 9540   1.161   0.079   3.260 -0.7226  0.8196 -0.2916
 2881SOL     OW 9541   4.645   4.629   6.812 -0.1463  0.2508  0.6716
 2881SOL    HW1 9542   4.706   4.608   6.735  0.7277 -1.3057  1.7398
 2881SOL    HW2 9543   4.591   4.710   6.790  1.3443  0.8937 -0.8618
 2882SOL     OW 9544   3.809   5.699   6.498 -0.0482  0.2677  0.0505
 2882SOL    HW1 9545   3.813   5.794   6.528 -0.9796  0.5299 -0.6232
 2882SOL    HW2 9546   3.836   5.693   6.402 -1.9484  0.1594 -0.5116
 2883SOL     OW 9547   2.869   6.581   3.036 -0.2028  0.1538  0.2509
 2883SOL    HW1 9548   2.844   6.488   3.062  2.3548  0.2213  3.7724
 2883SOL    HW2 9549   2.946   6.578   2.972 -0.6692 -0.1395 -0.2986
 2884SOL     OW 9550   1.051   6.539   2.499 -0.7605  0.2502 -0.0921
 2884SOL    HW1 9551   1.075   6.627   2.458 -0.2794  1.5236  2.6339
 2884SOL    HW2 9552   0.984   6.554   2.572  0.2659 -1.4422  1.2690
 2885SOL     OW 9553   6.423   4.304   2.421 -0.1316 -0.1983 -0.1164
 2885SOL    HW1 9554   6.385   4.375   2.481  0.7953  0.6108 -0.4431
 2885SOL    HW2 9555   6.394   4.214   2.452 -2.9701  0.3804 -0.8229
 2886SOL     OW 9556   1.473   4.753   5.832  0.1148 -0.0180 -0.1952
 2886SOL    HW1 9557   1.418   4.818   5.779  0.5781  0.7359  0.2507
 2886SOL    HW2 9558   1.569   4.761   5.806  0.2516 -0.1308  0.2641
 2887SOL     OW 9559   6.827   6.072   3.330 -0.3862 -0.2242 -0.5277
 2887SOL    HW1 9560   6.876   6.151   3.368  1.1844 -1.4737  0.1125
 2887SOL    HW2 9561   6.825   6.080   3.230  1.2489 -0.1752 -0.5858
 2888SOL     OW 9562   4.677   6.719   6.305 -0.2509  0.5036  0.5420
 2888SOL    HW1 9563   4.720   6.641   6.351 -0.0051  1.9010  2.8643
 2888SOL    HW2 9564   4.692   6.713   6.206  0.6609 -1.7952  0.7707
 2889SOL     OW 9565   3.806   5.728   3.984 -0.2918 -0.7871 -0.2616
 2889SOL    HW1 9566   3.785   5.693   3.893 -0.2227 -1.1795 -0.1307
 2889SOL    HW2 9567   3.840   5.821   3.977  0.0998 -0.9584 -0.6751
 2890SOL     OW 9568   0.231   1.469   6.211  0.0512  0.4991  0.1315
 2890SOL    HW1 9569   0.165   1.522   6.158  0.7092  1.1826 -0.0068
 2890SOL    HW2 9570   0.235   1.505   6.305 -0.7405 -0.3884  0.5252
 2891SOL     OW 9571   0.217   0.701   5.519 -0.0881 -0.3951  0.2451
 2891SOL    HW1 9572   0.182   0.762   5.449 -1.0877 -0.0840  0.9902
 2891SOL    HW2 9573   0.313   0.723   5.538  0.5217 -1.1289 -1.6921
 2892SOL     OW 9574   5.377   2.974   3.110  0.4506 -0.0000 -0.3920
 2892SOL    HW1 9575   5.298   2.972   3.049 -0.2435 -1.0915  0.4839
 2892SOL    HW2 9576   5.436   2.895   3.090  0.3616 -0.2074  0.1354
 2893SOL     OW 9577   6.643   6.207   0.873  0.0687  0.6520  0.0357
 2893SOL    HW1 9578   6.664   6.304   0.861 -0.7578  0.8196 -0.1075
 2893SOL    HW2 9579   6.646   6.161   0.784  0.7148  0.4818  0.1353
 2894SOL     OW 9580   1.474   6.088   1.218 -0.6011 -0.8341 -0.2415
 2894SOL    HW1 9581   1.532   6.169   1.215 -1.2805 -0.3687 -1.6880
 2894SOL    HW2 9582   1.468   6.055   1.312  0.5966  0.1118  0.2015
 2895SOL     OW 9583   6.598   6.561   6.369 -0.1378  0.5006  0.0662
 2895SOL    HW1 9584   6.551   6.586   6.284 -0.3379 -0.1639 -0.0312
 2895SOL    HW2 9585   6.693   6.593   6.365  0.3602 -0.9428 -1.1512
 2896SOL     OW 9586   4.769   6.782   5.759  0.3973 -0.0204  0.2227
 2896SOL    HW1 9587   4.789   6.878   5.737  1.9993  0.1037  1.9284
 2896SOL    HW2 9588   4.726   6.738   5.681 -1.0848  2.2776 -0.3336
 2897SOL     OW 9589   4.809   5.873   4.023 -0.2234  0.5635  0.4863
 2897SOL    HW1 9590   4.852   5.798   3.973 -0.3776  2.5048 -2.8978
 2897SOL    HW2 9591   4.710   5.859   4.027 -0.2718  0.6435 -0.2917
 2898SOL     OW 9592   5.217   2.476   4.032 -0.3362  0.4619 -0.4507
 2898SOL    HW1 9593   5.236   2.530   4.114 -1.9409  0.7853 -0.2499
 2898SOL    HW2 9594   5.199   2.537   3.955 -0.9366  0.1989 -0.5216
 2899SOL     OW 9595   0.175   3.825   3.221  0.6002 -0.1219  0.1252
 2899SOL    HW1 9596   0.187   3.909   3.169  1.7326 -1.0530 -1.1725
 2899SOL    HW2 9597   0.085   3.786   3.201  0.4526  0.2771 -0.0026
 2900SOL     OW 9598   3.331   2.984   4.979  0.2242 -0.4832  0.1546
 2900SOL    HW1 9599   3.313   3.072   4.936  0.9041 -0.2565  0.3129
 2900SOL    HW2 9600   3.372   2.922   4.913  1.2406 -0.1448  0.4439
 2901SOL     OW 9601   2.054   3.356   1.753 -0.4443  0.5830  0.4428
 2901SOL    HW1 9602   2.136   3.406   1.780 -0.0641  0.6635 -0.7689
 2901SOL    HW2 9603   1.997   3.338   1.833  1.9269 -1.6741  1.7654
 2902SOL     OW 9604   6.325   1.354   3.464  0.3056 -0.1863 -0.0733
 2902SOL    HW1 9605   6.323   1.377   3.366  0.6021 -0.4840 -0.1526
 2902SOL    HW2 9606   6.354   1.434   3.516  1.5110 -0.4112 -0.3614
 2903SOL     OW 9607   6.460   5.729   1.737  0.5998  0.4104  0.9549
 2903SOL    HW1 9608   6.383   5.665   1.737  1.2984 -0.4572  0.6262
 2903SOL    HW2 9609   6.546   5.677   1.735  1.2252  1.3322  2.5433
 2904SOL     OW 9610   2.515   4.462   5.485 -0.4925  0.1515 -0.0945
 2904SOL    HW1 9611   2.463   4.385   5.523  0.9019 -0.6078  0.3517
 2904SOL    HW2 9612   2.576   4.498   5.555  0.9895 -0.2419 -1.1400
 2905SOL     OW 9613   6.623   6.010   0.631 -0.2245 -0.2145 -0.0426
 2905SOL    HW1 9614   6.663   5.926   0.594 -0.5373  0.3470 -1.7408
 2905SOL    HW2 9615   6.523   6.006   0.625 -0.2599  0.1124  0.2488
 2906SOL     OW 9616   5.270   6.628   4.987 -0.2965  0.7031 -0.3261
 2906SOL    HW1 9617   5.361   6.587   4.995  0.3368  1.8303 -1.2288
 2906SOL    HW2 9618   5.200   6.557   4.988  0.6909 -0.3052 -0.8995
 2907SOL     OW 9619   5.668   0.852   6.241  0.1782  0.6330 -0.1151
 2907SOL    HW1 9620   5.630   0.843   6.333 -0.4878  0.0398 -0.4362
 2907SOL    HW2 9621   5.765   0.831   6.243  0.1751  0.6669  0.4655
 2908SOL     OW 9622   4.984   5.525   4.181 -0.4900 -0.1772 -0.1251
 2908SOL    HW1 9623   5.040   5.452   4.221  0.8700  0.9340  0.0693
 2908SOL    HW2 9624   4.888   5.511   4.207  0.0170 -0.7943  1.5826
 2909SOL     OW 9625   0.576   5.688   1.726  0.0868  0.0797 -0.0606
 2909SOL    HW1 9626   0.549   5.734   1.811 -0.4198 -0.4914  0.0919
 2909SOL    HW2 9627   0.675   5.699   1.713  0.4453 -1.1257  1.4171
 2910SOL     OW 9628   6.628   1.490   3.349 -0.0974 -0.6335  0.3069
 2910SOL    HW1 9629   6.651   1.409   3.402  0.9007 -0.3090  0.3936
 2910SOL    HW2 9630   6.685   1.567   3.378 -1.3152  0.2256  0.5230
 2911SOL     OW 9631   6.057   3.274   3.365 -0.7683  0.2970  0.5196
 2911SOL    HW1 9632   6.032   3.330   3.286  0.6727  0.4427  0.1379
 2911SOL    HW2 9633   5.978   3.266   3.426 -1.4583  1.4779 -0.1677
 2912SOL     OW 9634   2.347   0.879   1.012  0.4513 -0.1111 -0.2256
 2912SOL    HW1 9635   2.388   0.941   0.945  1.1157  1.7650  1.7802
 2912SOL    HW2 9636   2.418   0.848   1.076 -0.4555 -0.4729  0.6304
 2913SOL     OW 9637   2.005   0.643   4.898 -0.4768  0.1907  0.0808
 2913SOL    HW1 9638   2.079   0.592   4.941  0.4311  0.9588 -0.5140
 2913SOL    HW2 9639   1.972   0.594   4.817  0.3974  0.5353 -0.4957
 2914SOL     OW 9640   3.850   4.490   6.803  0.1182 -0.0121  0.1497
 2914SOL    HW1 9641   3.825   4.421   6.871 -2.2291  1.5422  0.9949
 2914SOL    HW2 9642   3.905   4.562   6.846  0.6107 -0.1800 -0.1843
 2915SOL     OW 9643   2.285   1.055   4.147  0.1882 -0.4915 -0.3578
 2915SOL    HW1 9644   2.346   1.003   4.088 -1.5585  0.3252 -3.1145
 2915SOL    HW2 9645   2.190   1.032   4.125 -0.6832  3.2280 -1.3370
 2916SOL     OW 9646   0.455   6.731   0.424  0.3022  0.0346 -0.1621
 2916SOL    HW1 9647   0.369   6.781   0.427  0.3733  0.1142  2.3163
 2916SOL    HW2 9648   0.437   6.634   0.408 -0.2560  0.0567  0.3066
 2917SOL     OW 9649   1.689   1.766   4.567 -0.1084 -0.5949 -0.3263
 2917SOL    HW1 9650   1.619   1.802   4.505  0.5368  1.4960  0.0776
 2917SOL    HW2 9651   1.742   1.696   4.520 -0.6391 -0.1757 -1.6043
 2918SOL     OW 9652   4.457   3.449   0.910 -0.1768 -0.0983  0.3002
 2918SOL    HW1 9653   4.428   3.385   0.839  0.4290  0.9348 -0.9289
 2918SOL    HW2 9654   4.384   3.515   0.928 -0.0596  0.0893  0.0925
 2919SOL     OW 9655   2.036   6.616   4.552  0.0661 -0.0917  0.1302
 2919SOL    HW1 9656   2.097   6.542   4.522  0.6765  0.4810 -0.0507
 2919SOL    HW2 9657   1.979   6.583   4.628  1.8035 -0.1273  1.4823
 2920SOL     OW 9658   2.357   1.282   1.207  0.2775  0.3983 -0.6241
 2920SOL    HW1 9659   2.439   1.335   1.187  1.1070 -0.9047 -0.7804
 2920SOL    HW2 9660   2.303   1.329   1.277  1.6669  0.7742  0.2242
 2921SOL     OW 9661   1.470   6.758   3.591 -0.6029 -0.3756  0.2819
 2921SOL    HW1 9662   1.423   6.714   3.668 -0.6907 -0.0189  0.4351
 2921SOL    HW2 9663   1.529   6.830   3.626 -0.3124 -0.4991  0.0465
 2922SOL     OW 9664   5.051   6.000   3.545  0.3768  0.0616 -0.4633
 2922SOL    HW1 9665   5.023   5.904   3.545  0.3975  0.0531 -0.9198
 2922SOL    HW2 9666   4.980   6.055   3.588 -0.3095  0.0266 -1.5214
 2923SOL     OW 9667   0.431   3.682   3.699 -0.0567 -0.2081  0.2421
 2923SOL    HW1 9668   0.384   3.684   3.787  0.6060 -0.0798  0.6036
 2923SOL    HW2 9669   0.434   3.775   3.661  0.4407 -0.1035  0.5207
 2924SOL     OW 9670   6.235   1.586   0.989  0.5523  0.6495 -0.4240
 2924SOL    HW1 9671   6.207   1.601   1.084  1.8632  1.5050 -0.1494
 2924SOL    HW2 9672   6.188   1.650   0.930 -0.8435 -0.3812 -0.4772
 2925SOL     OW 9673   6.693   6.872   6.470  0.2293 -0.1650 -0.1420
 2925SOL    HW1 9674   6.756   6.794   6.472  1.1700  0.5553  2.1257
 2925SOL    HW2 9675   6.740   6.951   6.431  0.0037 -0.1600 -0.4060
 2926SOL     OW 9676   0.514   1.556   4.086  0.4434 -0.0930 -0.2793
 2926SOL    HW1 9677   0.542   1.463   4.112  2.0597  0.6744  0.8911
 2926SOL    HW2 9678   0.445   1.589   4.149  1.2319  0.1663  0.4703
 2927SOL     OW 9679   2.613   2.922   1.528 -0.9711  0.5076 -0.3426
 2927SOL    HW1 9680   2.586   2.993   1.594  0.2208 -0.0139  0.7343
 2927SOL    HW2 9681   2.585   2.832   1.563  1.3539  0.0243  0.4433
 2928SOL     OW 9682   3.676   3.430   6.984  0.5549  0.3994 -0.4815
 2928SOL    HW1 9683   3.676   3.400   7.079 -2.7590 -1.0068 -0.7864
 2928SOL    HW2 9684   3.739   3.374   6.931 -0.4838 -1.5401  0.2267
 2929SOL     OW 9685   0.133   1.952   2.637 -0.0485  0.0206  0.0474
 2929SOL    HW1 9686   0.150   2.048   2.613  1.4505 -0.2159  0.0880
 2929SOL    HW2 9687   0.198   1.893   2.589  0.9695 -0.7234  2.2313
 2930SOL     OW 9688   0.462   3.712   4.570  0.0403 -0.3196 -0.2053
 2930SOL    HW1 9689   0.398   3.789   4.576  0.6842  0.1705  0.7136
 2930SOL    HW2 9690   0.550   3.745   4.535  0.5670 -0.4678  0.9525
 2931SOL     OW 9691   0.303   5.404   0.147  0.1102  0.3456 -0.0888
 2931SOL    HW1 9692   0.226   5.410   0.084  0.4140  2.9790 -0.3079
 2931SOL    HW2 9693   0.281   5.451   0.232  0.5392 -1.2435  0.9603
 2932SOL     OW 9694   6.779   5.334   1.876  0.0357 -0.0416 -0.3808
 2932SOL    HW1 9695   6.732   5.338   1.964  0.8540  0.3065  0.0561
 2932SOL    HW2 9696   6.722   5.287   1.809 -1.3814  1.2800 -0.1661
 2933SOL     OW 9697   1.489   6.941   0.197  0.1041 -0.1441  0.2271
 2933SOL    HW1 9698   1.484   6.845   0.225 -0.7752 -0.1912 -0.0730
 2933SOL    HW2 9699   1.497   6.947   0.097  1.9909  0.0567  0.3608
 2934SOL     OW 9700   4.905   3.644   0.837  0.2630  0.3432  0.2172
 2934SOL    HW1 9701   4.891   3.672   0.742 -0.7008  0.5031  0.4022
 2934SOL    HW2 9702   5.000   3.663   0.863  1.0892 -1.4585 -1.2866
 2935SOL     OW 9703   0.532   4.909   6.290  0.2385  0.2787 -0.0901
 2935SOL    HW1 9704   0.584   4.951   6.365  1.3342 -0.3328 -0.4756
 2935SOL    HW2 9705   0.480   4.831   6.324  0.3232  0.3182  0.1299
 2936SOL     OW 9706   3.895   6.900   2.807 -0.4523 -0.1220  0.5086
 2936SOL    HW1 9707   3.916   6.996   2.787 -2.0501  0.0261 -0.6554
 2936SOL    HW2 9708   3.954   6.842   2.751 -1.2505  0.2437 -0.7662
 2937SOL     OW 9709   5.535   3.957   3.080  0.5279 -0.4451 -0.5969
 2937SOL    HW1 9710   5.570   3.995   3.166 -0.3258  1.8705 -1.1744
 2937SOL    HW2 9711   5.602   3.896   3.040  1.7494 -0.0454  0.7544
 2938SOL     OW 9712   5.768   3.436   0.132 -0.1265  0.4274  0.2616
 2938SOL    HW1 9713   5.774   3.341   0.164  0.6816 -0.1150 -1.3819
 2938SOL    HW2 9714   5.854   3.462   0.089 -1.5817  0.5939 -2.7489
 2939SOL     OW 9715   0.064   6.175   0.198 -0.0690  0.1063  0.0660
 2939SOL    HW1 9716   0.034   6.109   0.129 -1.3270  0.4376  0.2743
 2939SOL    HW2 9717   0.164   6.175   0.203  0.0975  0.5662 -2.2534
 2940SOL     OW 9718   4.216   0.149   3.739 -0.1811  0.7353  0.1766
 2940SOL    HW1 9719   4.247   0.063   3.699 -0.8017  1.5502 -2.2046
 2940SOL    HW2 9720   4.295   0.206   3.761  0.1739  0.3185 -0.0068
 2941SOL     OW 9721   2.342   4.403   2.675  0.2867  0.3995 -0.4374
 2941SOL    HW1 9722   2.373   4.427   2.767 -0.5343  2.2202 -0.5912
 2941SOL    HW2 9723   2.328   4.304   2.670  1.0500  0.1653  1.1544
 2942SOL     OW 9724   3.697   1.564   2.305 -0.2890 -0.1965  0.2628
 2942SOL    HW1 9725   3.708   1.656   2.344 -1.1098 -0.5275  1.3332
 2942SOL    HW2 9726   3.685   1.498   2.380  1.5399 -1.3827 -0.4110
 2943SOL     OW 9727   2.359   4.442   4.116  0.3552  0.3397 -0.5218
 2943SOL    HW1 9728   2.356   4.441   4.216 -0.8275  1.1367 -0.5261
 2943SOL    HW2 9729   2.361   4.537   4.084 -2.6028  0.2344 -1.2877
 2944SOL     OW 9730   1.124   5.365   2.085  0.5471  0.0417 -0.0553
 2944SOL    HW1 9731   1.134   5.354   2.184  1.0146  0.8551  0.0026
 2944SOL    HW2 9732   1.160   5.455   2.058 -3.2239  1.6521 -0.3887
 2945SOL     OW 9733   5.645   3.841   6.569 -0.4661  0.2235  0.1219
 2945SOL    HW1 9734   5.670   3.868   6.476 -1.6668  1.7231  0.1831
 2945SOL    HW2 9735   5.721   3.792   6.612  0.5340  0.5330 -1.2447
 2946SOL     OW 9736   2.963   3.785   3.304 -0.1650  0.1477 -0.2855
 2946SOL    HW1 9737   2.957   3.779   3.204 -3.0944  0.2669 -0.1844
 2946SOL    HW2 9738   2.981   3.695   3.342 -2.2432 -0.5295 -0.8038
 2947SOL     OW 9739   6.636   6.488   0.157  0.0794  0.7383 -0.3374
 2947SOL    HW1 9740   6.543   6.461   0.135  0.8777 -1.3561 -1.3728
 2947SOL    HW2 9741   6.698   6.412   0.140  2.0036  2.0838  0.3028
 2948SOL     OW 9742   6.286   4.792   0.964 -0.4482 -0.1711  0.0630
 2948SOL    HW1 9743   6.331   4.815   0.877  0.5836  0.1989  0.6691
 2948SOL    HW2 9744   6.355   4.786   1.036 -1.0486 -2.3056  0.5296
 2949SOL     OW 9745   0.944   5.910   1.211 -0.3292  0.1890  0.3000
 2949SOL    HW1 9746   0.936   5.882   1.115  0.7977 -1.0283  0.5317
 2949SOL    HW2 9747   1.037   5.894   1.242 -0.5489  1.0741  1.4616
 2950SOL     OW 9748   0.070   5.641   2.332  0.1396  0.2153  0.0709
 2950SOL    HW1 9749   0.103   5.679   2.418  2.3292 -0.4059 -0.4475
 2950SOL    HW2 9750   0.085   5.707   2.258  1.9310 -0.7496 -0.4640
 2951SOL     OW 9751   0.695   2.457   0.169 -0.1414  0.2324  0.2727
 2951SOL    HW1 9752   0.645   2.476   0.085 -0.5780 -1.5012  0.1040
 2951SOL    HW2 9753   0.775   2.517   0.175  1.2810 -1.1717 -2.6072
 2952SOL     OW 9754   6.324   1.398   3.203  0.0514  0.2330  0.1752
 2952SOL    HW1 9755   6.402   1.395   3.141 -0.8692 -1.6241 -0.9522
 2952SOL    HW2 9756   6.298   1.494   3.218  0.7612  0.7625 -1.6879
 2953SOL     OW 9757   2.666   4.626   2.554 -0.1856 -0.6618 -0.2051
 2953SOL    HW1 9758   2.628   4.534   2.566  1.6654 -1.6868 -1.6258
 2953SOL    HW2 9759   2.686   4.641   2.457  1.3070  0.4896  0.2410
 2954SOL     OW 9760   0.676   4.925   5.409  0.7112 -0.3559  0.3954
 2954SOL    HW1 9761   0.607   4.880   5.465  0.2185 -0.1835 -0.0640
 2954SOL    HW2 9762   0.766   4.912   5.450  0.4289 -0.7335  0.9049
 2955SOL     OW 9763   2.267   3.616   0.521  0.4422 -0.2602  0.5430
 2955SOL    HW1 9764   2.224   3.699   0.557  0.8240  0.6692 -1.0324
 2955SOL    HW2 9765   2.202   3.540   0.527 -1.9428  1.2707 -2.6064
 2956SOL     OW 9766   6.052   5.046   6.139 -0.4590  0.1530  0.0920
 2956SOL    HW1 9767   5.988   5.115   6.105 -0.3674 -0.5328 -1.5527
 2956SOL    HW2 9768   6.012   4.955   6.128  0.2939 -0.2012  0.2183
 2957SOL     OW 9769   0.848   4.342   4.069 -0.4901  0.2040 -0.2299
 2957SOL    HW1 9770   0.826   4.256   4.115  0.4056  0.3499  0.4908
 2957SOL    HW2 9771   0.891   4.322   3.981 -1.6099 -0.0772 -0.7253
 2958SOL     OW 9772   1.209   4.603   3.264  0.3003  0.4386 -0.5660
 2958SOL    HW1 9773   1.278   4.589   3.334  1.0416 -0.6995 -1.4815
 2958SOL    HW2 9774   1.253   4.626   3.177 -0.5038  0.3580 -1.0087
 2959SOL     OW 9775   0.338   4.715   2.771 -0.2464 -0.3382 -0.3908
 2959SOL    HW1 9776   0.278   4.689   2.846  0.4284 -0.1711  0.2276
 2959SOL    HW2 9777   0.317   4.661   2.690  0.2542 -1.8929  0.4723
 2960SOL     OW 9778   3.136   1.013   1.362  0.3211 -0.4640  0.0120
 2960SOL    HW1 9779   3.101   0.931   1.407 -3.0374  1.3971  1.1457
 2960SOL    HW2 9780   3.186   1.070   1.428  0.3526 -0.3542 -0.1031
 2961SOL     OW 9781   0.100   3.704   0.222  0.2561  0.5308 -0.1370
 2961SOL    HW1 9782   0.193   3.731   0.198  0.3084 -1.5730 -2.6464
 2961SOL    HW2 9783   0.095   3.605   0.234 -1.7363  0.5346 -0.5284
 2962SOL     OW 9784   0.226   1.078   3.546  0.0631  0.9510 -0.3301
 2962SOL    HW1 9785   0.148   1.138   3.564  1.4581  1.8643  3.6218
 2962SOL    HW2 9786   0.203   0.985   3.572 -0.4824  0.7042 -1.6369
 2963SOL     OW 9787   4.997   7.016   6.426  0.0901 -0.3373 -0.1464
 2963SOL    HW1 9788   5.056   7.095   6.435  0.4386 -0.6376  0.2520
 2963SOL    HW2 9789   4.959   7.012   6.333 -1.6677  1.5019  0.4293
 2964SOL     OW 9790   4.172   1.364   4.391 -0.1961 -0.2736  0.0167
 2964SOL    HW1 9791   4.211   1.449   4.355  0.8170 -1.6417 -2.3531
 2964SOL    HW2 9792   4.078   1.354   4.359  0.3311 -0.9395 -1.4024
 2965SOL     OW 9793   6.611   1.205   0.400 -0.1069  0.2275 -0.6497
 2965SOL    HW1 9794   6.676   1.253   0.341 -0.5162  0.4194 -0.9514
 2965SOL    HW2 9795   6.519   1.240   0.383 -0.1639  0.6431  0.4843
 2966SOL     OW 9796   4.229   5.623   2.693 -0.3781 -0.2791  0.3798
 2966SOL    HW1 9797   4.220   5.691   2.621 -2.0930  0.4707  1.2502
 2966SOL    HW2 9798   4.309   5.644   2.749 -0.5126  0.6435  0.2428
 2967SOL     OW 9799   6.744   0.415   5.093  0.0086 -0.0827 -0.6785
 2967SOL    HW1 9800   6.786   0.460   5.171  0.2506 -0.3344 -0.6643
 2967SOL    HW2 9801   6.801   0.427   5.012  0.9449 -1.7983 -0.3109
 2968SOL     OW 9802   2.447   3.024   1.324  0.2808 -0.3035  0.5513
 2968SOL    HW1 9803   2.449   2.945   1.263  0.6068  1.0655 -1.3007
 2968SOL    HW2 9804   2.512   3.010   1.399  0.5838 -1.6263  0.0702
 2969SOL     OW 9805   4.883   2.242   3.477 -0.2759 -0.7088 -0.0499
 2969SOL    HW1 9806   4.970   2.211   3.516 -0.5865 -0.8435  0.5369
 2969SOL    HW2 9807   4.808   2.191   3.518 -0.6216 -0.7089 -0.6814
 2970SOL     OW 9808   2.008   2.142   0.847 -0.3569  0.2053  0.4122
 2970SOL    HW1 9809   1.949   2.086   0.789 -0.7363 -1.4496  2.2717
 2970SOL    HW2 9810   2.103   2.112   0.838 -0.4861 -0.4071  0.9936
 2971SOL     OW 9811   2.661   2.436   4.991  0.1144 -0.1632  0.0273
 2971SOL    HW1 9812   2.606   2.472   4.916 -0.2999 -1.3112 -0.2438
 2971SOL    HW2 9813   2.698   2.512   5.045 -2.2706  0.6523  0.6100
 2972SOL     OW 9814   6.672   0.201   5.841 -0.6390 -0.5612 -0.6048
 2972SOL    HW1 9815   6.636   0.294   5.832  0.4674 -0.0430  0.0796
 2972SOL    HW2 9816   6.724   0.193   5.926  0.1524 -1.4945 -1.1492
 2973SOL     OW 9817   4.884   1.352   4.200  0.5505  0.1969  0.5021
 2973SOL    HW1 9818   4.919   1.445   4.201 -1.9598  1.2466 -1.1381
 2973SOL    HW2 9819   4.824   1.338   4.279  0.4159  0.1795  0.3971
 2974SOL     OW 9820   5.807   0.043   1.940  0.2817  0.1591  0.3783
 2974SOL    HW1 9821   5.858   0.054   1.854  2.1807  1.6077  1.6152
 2974SOL    HW2 9822   5.854  -0.022   1.999  0.3610  1.0342  1.2985
 2975SOL     OW 9823   0.234   1.811   3.322 -0.2996 -0.2040 -0.2950
 2975SOL    HW1 9824   0.317   1.835   3.272  0.3694  0.2812  1.0115
 2975SOL    HW2 9825   0.154   1.848   3.274  0.1954 -0.8821 -1.6903
 2976SOL     OW 9826   3.235   6.415   1.671  0.3766 -0.5375 -0.0518
 2976SOL    HW1 9827   3.210   6.486   1.736 -2.1128 -1.6945  0.3879
 2976SOL    HW2 9828   3.216   6.446   1.578 -0.7511 -0.6027  0.1410
 2977SOL     OW 9829   0.622   3.092   1.443  0.3403  0.0459 -0.3074
 2977SOL    HW1 9830   0.697   3.157   1.432 -0.1899  1.6826  3.9347
 2977SOL    HW2 9831   0.655   3.009   1.488 -0.3268  0.7980  1.6378
 2978SOL     OW 9832   5.364   6.234   6.881  0.0005 -0.0816  0.2743
 2978SOL    HW1 9833   5.421   6.304   6.924  0.3513  0.3820 -0.8866
 2978SOL    HW2 9834   5.423   6.166   6.837 -0.3429 -0.9299  1.1073
 2979SOL     OW 9835   3.563   0.408   0.424 -0.1401 -0.0810 -0.1441
 2979SOL    HW1 9836   3.523   0.383   0.512 -0.3730 -0.0654 -0.2439
 2979SOL    HW2 9837   3.647   0.459   0.439 -1.2317  1.7531  0.1160
 2980SOL     OW 9838   3.298   3.575   3.404  0.6157  0.4171 -0.4374
 2980SOL    HW1 9839   3.372   3.642   3.408  1.2441 -0.3110  0.4854
 2980SOL    HW2 9840   3.253   3.569   3.493  1.2332 -1.0980 -0.1972
 2981SOL     OW 9841   2.985   1.787   2.031 -0.0066 -0.1528 -0.2876
 2981SOL    HW1 9842   2.950   1.851   1.964  1.1399 -0.9099 -1.6532
 2981SOL    HW2 9843   3.083   1.801   2.044  0.0387 -0.8768  0.2604
 2982SOL     OW 9844   3.939   2.168   0.621  0.2169 -0.1421 -0.4442
 2982SOL    HW1 9845   3.923   2.081   0.573  1.3261 -0.3490 -0.4572
 2982SOL    HW2 9846   3.898   2.164   0.712 -0.7992 -0.2166 -0.8921
 2983SOL     OW 9847   6.606   4.040   5.893 -0.9014  0.5008 -0.2587
 2983SOL    HW1 9848   6.559   3.952   5.895 -0.5412  0.2784 -1.2531
 2983SOL    HW2 9849   6.680   4.039   5.961  0.0751 -0.5412 -1.2826
 2984SOL     OW 9850   6.684   5.256   1.140  0.3962 -0.0212  0.1823
 2984SOL    HW1 9851   6.773   5.238   1.183 -0.0658  0.7593  1.5379
 2984SOL    HW2 9852   6.674   5.199   1.059  2.1768 -0.0479 -0.0597
 2985SOL     OW 9853   5.108   0.682   5.562  0.1158 -0.2594  0.2626
 2985SOL    HW1 9854   5.126   0.775   5.531  0.3905 -0.5333 -0.4169
 2985SOL    HW2 9855   5.028   0.682   5.621  0.5381  0.5163  0.8627
 2986SOL     OW 9856   3.296   3.069   3.182 -0.6891 -0.3737 -0.4534
 2986SOL    HW1 9857   3.350   2.995   3.221  0.9609  0.3187 -1.3356
 2986SOL    HW2 9858   3.354   3.127   3.125 -1.4210  2.7453  1.6578
 2987SOL     OW 9859   3.200   4.788   5.264  0.0539  0.0419  0.0834
 2987SOL    HW1 9860   3.200   4.779   5.165  0.3402 -1.1012  0.1764
 2987SOL    HW2 9861   3.222   4.700   5.306  0.6211  0.6688  1.1509
 2988SOL     OW 9862   1.420   2.736   0.983  0.0552 -0.1121  0.0953
 2988SOL    HW1 9863   1.457   2.819   0.943  2.0636 -0.7389  0.5418
 2988SOL    HW2 9864   1.377   2.681   0.912 -0.2333  0.7436 -0.4070
 2989SOL     OW 9865   5.188   2.885   5.072 -0.1178  0.4651 -0.6404
 2989SOL    HW1 9866   5.108   2.826   5.062  0.3202 -0.3642  0.4847
 2989SOL    HW2 9867   5.244   2.881   4.989  0.0661 -0.9876 -0.4800
 2990SOL     OW 9868   3.709   0.614   6.447 -0.1889 -0.1510  0.1540
 2990SOL    HW1 9869   3.650   0.543   6.485 -1.7465  0.8491 -0.2713
 2990SOL    HW2 9870   3.759   0.659   6.521 -0.8007 -0.3066  0.6744
 2991SOL     OW 9871   6.596   2.551   6.842 -0.7167 -0.1173 -0.2360
 2991SOL    HW1 9872   6.639   2.512   6.923 -1.0217 -0.7728 -0.3784
 2991SOL    HW2 9873   6.666   2.569   6.773 -0.3844  0.9921  0.3812
 2992SOL     OW 9874   0.507   4.337   6.199 -0.0189  0.6795  0.7999
 2992SOL    HW1 9875   0.542   4.419   6.246  0.6764  1.2757 -0.6847
 2992SOL    HW2 9876   0.584   4.281   6.168 -0.4733 -1.3621  3.0649
 2993SOL     OW 9877   2.331   5.677   6.333  0.2536  0.2635  0.1638
 2993SOL    HW1 9878   2.372   5.623   6.260 -2.5934 -1.2482 -0.4509
 2993SOL    HW2 9879   2.374   5.768   6.336  2.0467 -0.4479 -1.7820
 2994SOL     OW 9880   6.905   4.598   5.710  0.0221 -0.1497  0.0477
 2994SOL    HW1 9881   6.811   4.629   5.696 -0.1321 -1.2511 -1.5799
 2994SOL    HW2 9882   6.966   4.643   5.644  0.4208 -0.4606  0.1986
 2995SOL     OW 9883   5.714   6.250   3.515  0.2343 -0.2341 -0.0467
 2995SOL    HW1 9884   5.627   6.206   3.493 -0.2639  0.9782 -0.5915
 2995SOL    HW2 9885   5.771   6.187   3.568 -1.6337 -0.4897  1.7845
 2996SOL     OW 9886   2.596   1.000   3.421 -0.0742  0.1874 -0.4492
 2996SOL    HW1 9887   2.660   0.927   3.396 -0.7650  0.0782 -2.0190
 2996SOL    HW2 9888   2.642   1.065   3.481  0.9945 -0.7608 -0.2069
 2997SOL     OW 9889   5.278   6.524   3.829 -0.2029 -0.2047 -0.0303
 2997SOL    HW1 9890   5.215   6.516   3.752 -0.0952 -0.6796 -0.0747
 2997SOL    HW2 9891   5.242   6.590   3.895 -1.3022 -1.2599  0.4675
 2998SOL     OW 9892   1.885   5.798   2.277  0.3553  0.1137 -0.1194
 2998SOL    HW1 9893   1.852   5.824   2.367  0.2612  0.1429 -0.1621
 2998SOL    HW2 9894   1.825   5.837   2.207  0.7605  0.5808 -0.2135
 2999SOL     OW 9895   2.240   4.386   0.208  0.1671  0.3421 -0.2778
 2999SOL    HW1 9896   2.235   4.308   0.146 -0.9187  0.6179 -0.5584
 2999SOL    HW2 9897   2.263   4.355   0.300  1.7951 -0.0701 -0.8048
 3000SOL     OW 9898   1.633   3.279   5.322  0.4082 -0.0969  0.0651
 3000SOL    HW1 9899   1.715   3.225   5.302  1.1521  1.3460 -1.0101
 3000SOL    HW2 9900   1.658   3.376   5.329 -1.4073  0.5901 -1.8746
 3001SOL     OW 9901   2.637   0.550   5.796 -0.1318  0.2525  0.3122
 3001SOL    HW1 9902   2.546   0.591   5.795 -0.7070 -0.9047  2.0401
 3001SOL    HW2 9903   2.674   0.550   5.703 -2.4303 -0.3931 -0.6770
 3002SOL     OW 9904   1.399   0.723   2.691 -0.0598  0.2324  0.2731
 3002SOL    HW1 9905   1.380   0.797   2.627 -0.5633  0.0329  0.1861
 3002SOL    HW2 9906   1.313   0.689   2.728  0.1383 -0.5674  0.0133
 3003SOL     OW 9907   1.074   6.475   6.937  0.4790  0.1406  0.3983
 3003SOL    HW1 9908   1.076   6.516   6.846  1.3293  2.0064  1.2070
 3003SOL    HW2 9909   1.151   6.509   6.991  0.3785 -1.4442  1.6166
 3004SOL     OW 9910   5.115   7.022   3.445 -0.2636  0.3480 -0.3741
 3004SOL    HW1 9911   5.207   7.056   3.424 -0.4690  2.4372  1.6054
 3004SOL    HW2 9912   5.048   7.095   3.430 -1.0371  0.2260  1.9386
 3005SOL     OW 9913   4.030   1.397   1.870 -0.1958  0.3066 -0.0589
 3005SOL    HW1 9914   4.116   1.351   1.850 -1.2137 -1.5421 -0.3637
 3005SOL    HW2 9915   4.043   1.496   1.860  1.8581  0.0753 -0.1400
 3006SOL     OW 9916   3.819   0.017   0.200  0.0948 -0.0978  0.4273
 3006SOL    HW1 9917   3.860   0.107   0.181  0.3341 -0.0758  1.0263
 3006SOL    HW2 9918   3.838  -0.045   0.124 -0.9463  0.6444 -0.4595
 3007SOL     OW 9919   0.611   4.789   5.878  0.3564  0.2706  0.0431
 3007SOL    HW1 9920   0.667   4.815   5.957  0.9771 -2.1258  0.4669
 3007SOL    HW2 9921   0.669   4.772   5.799  0.1091 -0.5857  0.0256
 3008SOL     OW 9922   4.186   2.128   6.433 -0.1728  0.3157 -0.7907
 3008SOL    HW1 9923   4.199   2.183   6.516 -0.1295  0.3906 -0.8477
 3008SOL    HW2 9924   4.203   2.185   6.353  0.6065  0.0231 -0.8386
 3009SOL     OW 9925   0.159   2.156   2.110 -0.6771 -0.1577 -0.2429
 3009SOL    HW1 9926   0.244   2.106   2.091 -0.3255 -0.0260  0.9610
 3009SOL    HW2 9927   0.177   2.254   2.110 -0.4795 -0.1733  1.5983
 3010SOL     OW 9928   4.345   4.796   1.343 -0.3460  0.2966  0.4226
 3010SOL    HW1 9929   4.414   4.867   1.329  0.4557 -0.1305  2.0183
 3010SOL    HW2 9930   4.390   4.708   1.355 -1.3192 -0.4871 -1.2430
 3011SOL     OW 9931   6.599   2.631   0.957  0.4523 -0.2729 -0.1777
 3011SOL    HW1 9932   6.611   2.710   0.896  0.5479  0.0023  0.1980
 3011SOL    HW2 9933   6.685   2.612   1.005  0.1706 -0.0211  0.4355
 3012SOL     OW 9934   5.032   1.909   5.640 -0.0821  0.1052  0.8759
 3012SOL    HW1 9935   5.111   1.870   5.593  0.8278  1.4549  1.2069
 3012SOL    HW2 9936   4.948   1.863   5.610  0.6451 -0.2384 -0.7454
 3013SOL     OW 9937   0.712   6.803   5.491 -0.0393  0.2314  0.2193
 3013SOL    HW1 9938   0.783   6.758   5.436  0.4041  0.9835  0.1601
 3013SOL    HW2 9939   0.698   6.896   5.458  1.4993  1.3510  2.4136
 3014SOL     OW 9940   3.709   6.122   4.769 -0.1316 -0.2888  0.7559
 3014SOL    HW1 9941   3.730   6.215   4.797 -0.7545 -0.1770  0.8594
 3014SOL    HW2 9942   3.617   6.118   4.732  0.2149 -0.6940 -0.0830
 3015SOL     OW 9943   3.763   0.043   4.887 -0.5345  0.4136  0.0776
 3015SOL    HW1 9944   3.807   0.004   4.968  1.1575  2.6029  0.2920
 3015SOL    HW2 9945   3.819   0.024   4.806  0.2215  2.1524  0.1583
 3016SOL     OW 9946   3.051   6.512   5.854  0.3385  0.1171 -0.0383
 3016SOL    HW1 9947   3.128   6.572   5.875 -0.7970  1.4349  0.4568
 3016SOL    HW2 9948   3.040   6.505   5.755 -1.4982  3.4448 -0.2017
 3017SOL     OW 9949   1.521   0.224   1.647 -0.7349  0.1086 -0.1785
 3017SOL    HW1 9950   1.481   0.306   1.605  0.5400  0.3252 -0.9973
 3017SOL    HW2 9951   1.612   0.245   1.682 -1.9647  0.1315  3.4183
 3018SOL     OW 9952   1.842   1.653   1.273 -0.0398 -0.2592  0.0106
 3018SOL    HW1 9953   1.892   1.720   1.217  0.5136 -0.5427  0.1605
 3018SOL    HW2 9954   1.892   1.566   1.273 -0.9072 -0.7771 -0.4358
 3019SOL     OW 9955   2.133   0.852   3.754  0.4864  0.4999 -0.5870
 3019SOL    HW1 9956   2.209   0.788   3.765 -0.6872 -0.9208 -0.4723
 3019SOL    HW2 9957   2.169   0.944   3.740  2.2240  0.3711  2.2630
 3020SOL     OW 9958   4.180   3.699   1.354  0.0473  0.0804  0.6566
 3020SOL    HW1 9959   4.165   3.716   1.451 -0.2113 -1.1159  0.8382
 3020SOL    HW2 9960   4.233   3.616   1.342 -1.8249 -1.0674 -0.2563
 3021SOL     OW 9961   5.636   6.712   4.491 -0.6387  0.5231  0.3280
 3021SOL    HW1 9962   5.612   6.809   4.489  0.5163  0.8211 -0.2244
 3021SOL    HW2 9963   5.721   6.698   4.440 -2.0209 -1.1443 -1.6996
 3022SOL     OW 9964   3.917   6.082   3.228  0.0429 -0.0381  0.1159
 3022SOL    HW1 9965   3.954   6.171   3.203  0.2255 -0.2396 -0.3425
 3022SOL    HW2 9966   3.850   6.053   3.159  1.3168 -1.0765 -0.7280
 3023SOL     OW 9967   5.276   4.233   4.296 -0.8804 -0.6539 -0.7917
 3023SOL    HW1 9968   5.360   4.187   4.324 -0.6667  0.6639  0.8878
 3023SOL    HW2 9969   5.297   4.305   4.230 -0.7662 -0.7378 -0.8453
 3024SOL     OW 9970   4.908   3.429   0.156  0.0422  0.5849  0.0701
 3024SOL    HW1 9971   4.864   3.389   0.236  0.6420  0.5950  0.4123
 3024SOL    HW2 9972   4.982   3.369   0.125 -1.5725 -0.5491 -1.8344
 3025SOL     OW 9973   4.448   6.760   1.775  0.4761 -0.5567  0.1053
 3025SOL    HW1 9974   4.377   6.745   1.707  1.5534 -2.2174 -0.7307
 3025SOL    HW2 9975   4.463   6.858   1.786 -0.5282 -0.2229 -1.1955
 3026SOL     OW 9976   1.699   5.826   2.490 -0.2548 -0.2349 -0.0698
 3026SOL    HW1 9977   1.642   5.847   2.569 -0.9685 -1.3435 -0.2650
 3026SOL    HW2 9978   1.739   5.735   2.501  1.9997  0.7360  0.3440
 3027SOL     OW 9979   5.340   0.518   1.359  0.1815 -0.0235 -0.6448
 3027SOL    HW1 9980   5.378   0.610   1.365  2.5116 -0.8593 -1.6215
 3027SOL    HW2 9981   5.350   0.471   1.446 -0.3699  0.3788 -0.3549
 3028SOL     OW 9982   3.921   3.892   4.168  0.2493  0.6727 -0.0254
 3028SOL    HW1 9983   3.848   3.954   4.198  0.9927  1.0818  0.9768
 3028SOL    HW2 9984   3.926   3.893   4.068 -1.7905 -0.1531 -0.1902
 3029SOL     OW 9985   0.472   2.972   3.611  0.0913 -0.0861  0.3042
 3029SOL    HW1 9986   0.534   2.945   3.538  0.1367 -2.8693  1.2621
 3029SOL    HW2 9987   0.521   3.027   3.679  1.1222 -0.9043  0.2409
 3030SOL     OW 9988   0.160   2.188   4.628 -0.0962 -0.3254  0.1496
 3030SOL    HW1 9989   0.129   2.163   4.536 -2.0639 -1.4771  1.0649
 3030SOL    HW2 9990   0.139   2.284   4.645 -0.8217 -0.4080 -0.2161
 3031SOL     OW 9991   0.061   3.153   6.409  0.0319  0.1893  0.5719
 3031SOL    HW1 9992  -0.032   3.122   6.392  0.6388 -0.8171 -1.0945
 3031SOL    HW2 9993   0.114   3.149   6.325  1.8186 -0.0437  1.6528
 3032SOL     OW 9994   5.282   6.241   2.190  0.2180  1.2425 -0.0168
 3032SOL    HW1 9995   5.228   6.219   2.110 -0.0368 -0.6474  0.6118
 3032SOL    HW2 9996   5.336   6.323   2.173 -0.6222  1.4796 -1.7096
 3033SOL     OW 9997   3.180   6.605   6.198 -0.0698  0.7894 -0.4025
 3033SOL    HW1 9998   3.223   6.656   6.123  0.3895  2.2280  0.7995
 3033SOL    HW2 9999   3.081   6.601   6.183  0.2116 -1.3243 -2.4528
 3034SOL     OW10000   4.916   3.432   1.612 -0.0322  0.1770  0.0510
 3034SOL    HW110001   4.870   3.447   1.525 -2.7614  0.3247  1.4016
 3034SOL    HW210002   4.880   3.348   1.654  1.8148 -0.3311  0.7161
 3035SOL     OW10003   5.469   5.091   0.619  0.2379 -0.3017  0.5874
 3035SOL    HW110004   5.432   5.060   0.707  0.0918  0.4038  0.7847
 3035SOL    HW210005   5.414   5.168   0.586  0.5520 -0.2916  0.0826
 3036SOL     OW10006   3.429   2.821   5.514  0.3028  0.0301  0.2068
 3036SOL    HW110007   3.394   2.848   5.424  0.1815 -1.9391 -0.3654
 3036SOL    HW210008   3.398   2.888   5.582 -0.0993  1.2335 -1.0920
 3037SOL     OW10009   1.220   5.711   4.267  0.1416 -0.4726 -0.2051
 3037SOL    HW110010   1.223   5.779   4.194  1.4265  2.5976  2.5009
 3037SOL    HW210011   1.297   5.648   4.256  0.9405  0.5860 -0.9072
 3038SOL     OW10012   6.087   3.558   4.499  0.2074 -0.0323  0.0568
 3038SOL    HW110013   6.184   3.581   4.512  0.4923  0.4418 -2.4487
 3038SOL    HW210014   6.039   3.565   4.586  1.8436  2.5384  0.8418
 3039SOL     OW10015   5.209   4.454   0.327  0.4909 -0.1968 -0.3325
 3039SOL    HW110016   5.273   4.511   0.378 -1.1543  1.2937  0.1599
 3039SOL    HW210017   5.241   4.444   0.233  1.9182 -0.3073  0.1369
 3040SOL     OW10018   4.430   5.815   6.449 -0.1618  0.5842  0.6905
 3040SOL    HW110019   4.343   5.775   6.420 -0.3020  0.9228  0.6403
 3040SOL    HW210020   4.444   5.795   6.546  1.1575 -2.1035  0.0608
 3041SOL     OW10021   1.143   6.875   7.012  0.4114  0.5540 -0.3790
 3041SOL    HW110022   1.095   6.942   6.956  1.0585  0.7842 -0.6660
 3041SOL    HW210023   1.077   6.815   7.057 -0.2870  2.2566  1.0154
 3042SOL     OW10024   6.571   5.316   4.328 -0.0549  0.0604  0.2859
 3042SOL    HW110025   6.585   5.221   4.298 -0.4062  0.7109 -2.1404
 3042SOL    HW210026   6.480   5.346   4.302  0.7709  1.6875 -0.9263
 3043SOL     OW10027   0.017   6.004   6.784  0.5943 -0.2885 -0.1255
 3043SOL    HW110028  -0.029   5.954   6.710 -1.7357  0.4378  0.7350
 3043SOL    HW210029   0.012   6.102   6.766 -0.2297 -0.0908  1.0876
 3044SOL     OW10030   4.532   3.275   5.604  0.5937 -0.0364 -0.3010
 3044SOL    HW110031   4.547   3.288   5.506  2.8030 -0.6788 -0.1024
 3044SOL    HW210032   4.477   3.192   5.619 -1.8219  1.3330 -1.0194
 3045SOL     OW10033   5.419   1.824   2.457  0.0337  0.5578  0.3290
 3045SOL    HW110034   5.436   1.750   2.392 -1.0982  1.4362 -1.0558
 3045SOL    HW210035   5.385   1.786   2.543  1.9279 -0.6638  0.5974
 3046SOL     OW10036   5.176   5.938   1.955 -0.2653 -0.0926  0.0680
 3046SOL    HW110037   5.080   5.960   1.938 -0.5642 -0.7561  0.8364
 3046SOL    HW210038   5.195   5.845   1.924  0.2241  0.1449 -0.3776
 3047SOL     OW10039   4.179   2.572   5.498  0.0616 -0.3094 -0.3139
 3047SOL    HW110040   4.230   2.633   5.559 -1.0906 -1.6589  2.1262
 3047SOL    HW210041   4.096   2.619   5.466 -0.0131 -0.0470  0.2581
 3048SOL     OW10042   6.335   5.206   2.580  0.2456  0.5193  0.0305
 3048SOL    HW110043   6.306   5.302   2.588  1.9905  1.0355  0.4575
 3048SOL    HW210044   6.383   5.178   2.662 -1.4209 -1.1962  0.4901
 3049SOL     OW10045   0.419   2.869   1.582 -0.3371 -0.6726  0.0001
 3049SOL    HW110046   0.387   2.960   1.555 -0.0741 -0.8074 -0.7984
 3049SOL    HW210047   0.444   2.817   1.500  3.2528 -0.0908  0.5262
 3050SOL     OW10048   3.101   2.892   5.545 -0.0162  0.4678 -0.0472
 3050SOL    HW110049   3.067   2.981   5.574 -1.2943 -0.2829  0.8585
 3050SOL    HW210050   3.085   2.881   5.447  0.8606  1.5208 -0.3256
 3051SOL     OW10051   1.991   4.103   6.051 -0.2507  0.0123 -0.1087
 3051SOL    HW110052   1.971   4.086   5.955  1.0684  1.7576 -0.7432
 3051SOL    HW210053   2.085   4.137   6.060 -0.6413  0.7295  1.7076
 3052SOL     OW10054   6.996   0.284   3.296  0.4039 -0.1273  0.5578
 3052SOL    HW110055   6.961   0.190   3.295 -1.9137  0.6563  1.1579
 3052SOL    HW210056   6.977   0.328   3.209  3.3694 -0.7671 -0.5193
 3053SOL     OW10057   0.720   5.508   6.564 -0.1970 -0.1312 -0.7154
 3053SOL    HW110058   0.673   5.591   6.534 -1.2404  0.2417  1.6880
 3053SOL    HW210059   0.706   5.435   6.497 -1.3082  0.9494 -1.7073
 3054SOL     OW10060   5.864   0.678   0.700 -0.6125 -0.6666 -0.2933
 3054SOL    HW110061   5.871   0.579   0.713 -1.5718 -0.7807 -0.5904
 3054SOL    HW210062   5.901   0.724   0.781 -1.0291 -1.2817  0.2623
 3055SOL     OW10063   4.982   0.138   0.056  0.0218 -0.1459  0.4411
 3055SOL    HW110064   5.022   0.120  -0.034 -0.6038 -1.3613  0.3882
 3055SOL    HW210065   4.976   0.237   0.070  3.8007  0.1543  0.8340
 3056SOL     OW10066   3.560   2.116   2.397  0.5102 -0.2325  0.0693
 3056SOL    HW110067   3.646   2.080   2.433 -0.5386 -2.0101  0.9229
 3056SOL    HW210068   3.569   2.133   2.299  2.4870  1.7791  0.5013
 3057SOL     OW10069   0.698   4.123   3.106  0.2965  0.0568 -0.9763
 3057SOL    HW110070   0.780   4.068   3.093  0.8781  1.0725 -1.8259
 3057SOL    HW210071   0.617   4.065   3.096  0.8791 -1.1610  0.8606
 3058SOL     OW10072   0.628   5.548   3.962  0.4140 -0.6550  0.6697
 3058SOL    HW110073   0.562   5.543   3.887  1.1762 -1.7216  0.0473
 3058SOL    HW210074   0.622   5.464   4.017  1.1343 -0.6813  0.7127
 3059SOL     OW10075   1.344   4.185   3.014 -0.2208 -0.0365 -0.0097
 3059SOL    HW110076   1.393   4.268   3.041 -0.3464  0.5645 -1.5582
 3059SOL    HW210077   1.362   4.165   2.918 -0.4350 -1.6552  0.2537
 3060SOL     OW10078   4.024   3.846   0.101  0.1003 -0.1527 -0.4236
 3060SOL    HW110079   4.017   3.758   0.149 -1.2731  0.3105  0.2741
 3060SOL    HW210080   3.974   3.840   0.015 -0.7656  0.2139  0.0483
 3061SOL     OW10081   5.471   0.847   2.801 -0.3568 -0.4822 -0.5921
 3061SOL    HW110082   5.524   0.828   2.884 -0.2300 -0.9185 -0.7743
 3061SOL    HW210083   5.376   0.818   2.815 -0.7325  0.9124 -0.0181
 3062SOL     OW10084   3.385   4.601   0.117  0.6145 -0.5126 -1.1300
 3062SOL    HW110085   3.423   4.535   0.182 -1.4020  0.3559  1.0849
 3062SOL    HW210086   3.287   4.610   0.133  0.1035  0.0624 -4.1079
 3063SOL     OW10087   5.034   6.355   1.504 -0.0005 -0.5557 -0.2031
 3063SOL    HW110088   5.024   6.418   1.581  1.3509 -1.1407  0.4754
 3063SOL    HW210089   5.131   6.342   1.484 -0.2157 -2.8714  0.0431
 3064SOL     OW10090   5.293   1.708   0.381 -0.0549 -0.1458  0.9673
 3064SOL    HW110091   5.262   1.707   0.476 -1.3023 -0.9183  0.5714
 3064SOL    HW210092   5.215   1.723   0.320  0.6407 -0.2109  0.0275
 3065SOL     OW10093   6.655   2.990   5.225 -1.0745 -0.0741  0.4960
 3065SOL    HW110094   6.573   3.017   5.174 -1.4191 -0.8889  0.5904
 3065SOL    HW210095   6.735   3.034   5.186 -1.3569 -0.5165 -0.6231
 3066SOL     OW10096   4.549   0.376   4.820  0.3232 -0.3790  0.3082
 3066SOL    HW110097   4.454   0.388   4.846  0.2674 -0.8093  0.3200
 3066SOL    HW210098   4.604   0.357   4.901  1.0054  3.0720  0.7925
 3067SOL     OW10099   1.560   2.233   4.479  0.4856 -0.6750 -0.1508
 3067SOL    HW110100   1.634   2.293   4.509 -1.9798  2.3614  0.2663
 3067SOL    HW210101   1.512   2.274   4.401 -1.0117 -2.3490 -0.1754
 3068SOL     OW10102   6.233   6.522   0.935 -0.1108  0.9025  0.6111
 3068SOL    HW110103   6.272   6.458   0.869 -1.8395  0.8470 -0.4025
 3068SOL    HW210104   6.300   6.541   1.006  1.6367  0.6133 -0.9008
 3069SOL     OW10105   6.088   6.275   2.744 -0.4024  0.0284  0.1470
 3069SOL    HW110106   6.042   6.290   2.831  0.2620  0.5756  0.4125
 3069SOL    HW210107   6.177   6.232   2.760 -0.9037 -1.2642 -0.3789
 3070SOL     OW10108   3.327   0.532   1.384  0.9647  0.3695 -0.2324
 3070SOL    HW110109   3.393   0.602   1.410 -0.5341  1.5150  0.6801
 3070SOL    HW210110   3.236   0.573   1.375 -0.1186 -1.5533  1.0107
 3071SOL     OW10111   5.557   3.296   5.632  0.0303 -0.4443  0.5856
 3071SOL    HW110112   5.620   3.338   5.567  0.2305 -1.4762  0.0926
 3071SOL    HW210113   5.469   3.344   5.628 -0.5702 -1.5875 -1.8175
 3072SOL     OW10114   2.860   5.285   4.876 -0.0669  0.8978 -0.4735
 3072SOL    HW110115   2.834   5.247   4.966  0.8589  1.8423  0.2106
 3072SOL    HW210116   2.783   5.336   4.838 -0.2378  1.0892  0.1156
 3073SOL     OW10117   6.636   6.954   1.690 -0.6667 -0.7100  0.1709
 3073SOL    HW110118   6.593   7.000   1.767 -0.1310 -2.1539  1.3720
 3073SOL    HW210119   6.654   6.858   1.713  0.3060 -0.9620 -1.4365
 3074SOL     OW10120   2.607   2.312   0.621 -0.4202  0.9221  0.1359
 3074SOL    HW110121   2.514   2.322   0.656 -0.3177 -1.2690  1.2122
 3074SOL    HW210122   2.605   2.302   0.521 -1.9412 -3.5408  0.3907
 3075SOL     OW10123   3.893   5.061   0.964 -0.4228  0.0805 -0.2235
 3075SOL    HW110124   3.818   5.121   0.992  1.6410  2.9618 -0.4559
 3075SOL    HW210125   3.919   5.082   0.870  0.6635 -0.8865 -0.1622
 3076SOL     OW10126   3.247   7.024   3.626  0.2776 -0.0248 -0.7621
 3076SOL    HW110127   3.258   7.102   3.564 -0.0850  0.6008 -0.0608
 3076SOL    HW210128   3.295   6.945   3.590 -0.0630  0.2847 -1.9193
 3077SOL     OW10129   0.322   3.119   2.175 -0.2362 -0.4483  0.2496
 3077SOL    HW110130   0.377   3.154   2.099  0.0040 -0.1453  0.5588
 3077SOL    HW210131   0.296   3.024   2.156  1.2267 -0.9334  0.5470
 3078SOL     OW10132   1.514   4.514   2.832  0.1793  0.0702  0.7266
 3078SOL    HW110133   1.572   4.588   2.797  1.9446 -1.8851 -0.7635
 3078SOL    HW210134   1.570   4.449   2.883 -2.0075  1.8122  5.9881
 3079SOL     OW10135   0.009   3.805   4.873 -0.1016 -0.0860 -0.0680
 3079SOL    HW110136  -0.027   3.790   4.965 -0.5817 -2.1342 -0.5381
 3079SOL    HW210137  -0.031   3.888   4.834 -1.4932 -0.3273  0.7952
 3080SOL     OW10138   3.777   5.780   2.262 -0.6163 -0.1848  0.2061
 3080SOL    HW110139   3.803   5.720   2.186 -2.0047 -0.3887 -0.1201
 3080SOL    HW210140   3.859   5.801   2.316  0.2413 -0.7387 -0.8308
 3081SOL     OW10141   1.491   1.275   5.442  0.8364 -0.0859  0.3179
 3081SOL    HW110142   1.504   1.368   5.476 -0.0602 -0.0451  0.5870
 3081SOL    HW210143   1.403   1.240   5.474  1.0882 -0.9682  0.0780
 3082SOL     OW10144   5.327   3.268   4.302  0.2228  0.2636 -0.4195
 3082SOL    HW110145   5.387   3.347   4.292 -1.0978  1.3783  0.1174
 3082SOL    HW210146   5.233   3.299   4.317 -0.3936 -1.4213 -0.5756
 3083SOL     OW10147   3.646   3.173   1.013 -0.0302  0.2138 -0.0935
 3083SOL    HW110148   3.551   3.169   0.982 -0.4598 -1.3201  1.2624
 3083SOL    HW210149   3.662   3.101   1.080  1.5856  1.6069  1.1237
 3084SOL     OW10150   5.643   5.095   4.135  0.0273  0.1431  0.5683
 3084SOL    HW110151   5.649   5.184   4.088 -0.7462  1.2720  2.5004
 3084SOL    HW210152   5.549   5.063   4.133  0.1026 -0.0910  0.8416
 3085SOL     OW10153   4.923   0.393   6.964  0.1362  0.1101 -0.2502
 3085SOL    HW110154   4.935   0.402   6.865  0.8389  1.4668 -0.0669
 3085SOL    HW210155   4.880   0.475   7.000  1.0401  0.1806  0.7348
 3086SOL     OW10156   5.522   6.125   5.501 -0.3374  0.0592  0.1274
 3086SOL    HW110157   5.441   6.156   5.450 -0.5453  0.1886  0.5335
 3086SOL    HW210158   5.571   6.057   5.447 -0.4448  0.3399 -0.3362
 3087SOL     OW10159   4.007   0.493   1.228  0.2778 -0.1006 -0.1546
 3087SOL    HW110160   3.977   0.546   1.149 -1.1670  0.0305  0.4445
 3087SOL    HW210161   4.083   0.540   1.272 -1.7806  2.2936  1.1286
 3088SOL     OW10162   2.086   2.838   3.695  0.0985 -0.2466  0.2551
 3088SOL    HW110163   2.169   2.888   3.719 -0.4317  0.5100  0.5443
 3088SOL    HW210164   2.021   2.899   3.651  0.1539 -1.1098 -1.0922
 3089SOL     OW10165   4.967   0.012   0.295 -0.1792  0.5878  0.7415
 3089SOL    HW110166   4.888   0.050   0.342 -0.5881  0.3772  0.2239
 3089SOL    HW210167   4.966   0.039   0.199  0.5008  0.7753  0.7765
 3090SOL     OW10168   2.924   3.093   1.859  0.6259  0.1729 -0.3410
 3090SOL    HW110169   2.870   3.170   1.824 -0.4165 -1.7331 -3.2914
 3090SOL    HW210170   2.894   3.071   1.952 -1.1013  1.5052 -0.5408
 3091SOL     OW10171   6.494   2.202   0.074 -0.3082  0.0665  0.3192
 3091SOL    HW110172   6.541   2.128   0.121  3.3634  0.6201 -2.1024
 3091SOL    HW210173   6.428   2.163   0.009  1.2629 -1.1885 -0.6155
 3092SOL     OW10174   6.492   1.903   2.283 -0.7874  0.3958  0.5914
 3092SOL    HW110175   6.564   1.944   2.227  2.1944 -3.3220  1.3309
 3092SOL    HW210176   6.448   1.829   2.233 -2.8886  1.4049  0.8446
 3093SOL     OW10177   5.700   6.097   5.703 -0.6125  0.3151 -0.2425
 3093SOL    HW110178   5.640   6.084   5.625  0.2290 -0.0865 -0.8364
 3093SOL    HW210179   5.742   6.009   5.728 -0.7590  0.4624  0.5752
 3094SOL     OW10180   1.922   1.164   1.298  0.1852  0.2748  0.3649
 3094SOL    HW110181   2.003   1.109   1.317  0.5738  0.4714 -0.6160
 3094SOL    HW210182   1.878   1.130   1.214 -0.4747  0.4634  0.6306
 3095SOL     OW10183   0.109   2.814   0.486  0.1547  0.0630  0.1664
 3095SOL    HW110184   0.206   2.828   0.502  0.7414 -2.2089 -0.9867
 3095SOL    HW210185   0.087   2.840   0.391 -0.0081 -0.8824 -0.0636
 3096SOL     OW10186   1.764   2.308   3.719  0.1584  0.2258 -0.2708
 3096SOL    HW110187   1.822   2.231   3.690 -1.4971 -1.3378  0.3803
 3096SOL    HW210188   1.747   2.302   3.817 -1.9669 -0.0156 -0.6121
 3097SOL     OW10189   6.014   3.077   5.925  0.2126 -0.1394 -0.0825
 3097SOL    HW110190   5.999   3.129   5.840  1.3259 -0.3199 -0.4151
 3097SOL    HW210191   5.953   3.110   5.996 -0.0382  0.7043 -0.6776
 3098SOL     OW10192   0.893   3.448   3.111  0.2224 -0.4126  0.3094
 3098SOL    HW110193   0.928   3.355   3.117  0.1949 -0.3582  1.4206
 3098SOL    HW210194   0.815   3.450   3.048  1.1198 -0.8506 -0.8535
 3099SOL     OW10195   0.030   5.672   5.144  0.1219  0.2824 -0.0244
 3099SOL    HW110196   0.066   5.765   5.140 -0.0945  0.4207  0.8629
 3099SOL    HW210197   0.024   5.634   5.052  1.9539  0.4662 -0.2491
 3100SOL     OW10198   5.648   4.391   4.200  0.1754  0.3832 -0.3592
 3100SOL    HW110199   5.679   4.461   4.137 -0.8524 -1.9390 -3.7206
 3100SOL    HW210200   5.548   4.392   4.204  0.2137  0.9170  1.9134
 3101SOL     OW10201   5.009   1.750   5.050 -0.0927 -0.0938  0.1545
 3101SOL    HW110202   4.943   1.793   5.112  0.2747  1.3518 -0.4096
 3101SOL    HW210203   5.099   1.749   5.092 -0.2363 -1.0305  0.4647
 3102SOL     OW10204   0.506   5.257   2.074  0.1668 -0.3316  0.4020
 3102SOL    HW110205   0.466   5.331   2.127 -1.5466 -0.5639 -0.5201
 3102SOL    HW210206   0.564   5.295   2.002  0.2770  0.0479  0.6872
 3103SOL     OW10207   2.149   0.406   1.605 -0.2140  0.3510 -0.1223
 3103SOL    HW110208   2.175   0.415   1.701 -0.0669  0.2154 -0.1503
 3103SOL    HW210209   2.056   0.369   1.599 -0.3366  0.6390 -0.0273
 3104SOL     OW10210   6.865   1.471   6.151 -0.3572 -0.1419 -0.1978
 3104SOL    HW110211   6.768   1.457   6.173 -0.6720  0.5089 -1.0721
 3104SOL    HW210212   6.878   1.460   6.052  0.2639  0.7436 -0.2243
 3105SOL     OW10213   4.903   5.935   6.541  0.3294  0.5480  0.7823
 3105SOL    HW110214   4.836   5.862   6.530 -1.1732  1.9649  0.2447
 3105SOL    HW210215   4.937   5.935   6.635 -0.6021 -0.0529  1.1325
 3106SOL     OW10216   3.768   0.769   5.772 -0.0135 -0.2039 -0.2714
 3106SOL    HW110217   3.771   0.802   5.867  0.4124 -0.9800 -0.0022
 3106SOL    HW210218   3.811   0.679   5.767  1.0314  0.3317 -1.4235
 3107SOL     OW10219   4.783   2.131   5.499  0.6297 -0.1352 -0.3400
 3107SOL    HW110220   4.876   2.162   5.478  1.1612 -0.5895  1.1971
 3107SOL    HW210221   4.773   2.121   5.598 -0.3244 -2.3030 -0.6014
 3108SOL     OW10222   1.633   4.178   2.710  0.4587 -0.7670 -0.5747
 3108SOL    HW110223   1.677   4.267   2.705  3.5908 -1.8442  2.7872
 3108SOL    HW210224   1.669   4.118   2.638  0.3309 -0.0761 -1.2160
 3109SOL     OW10225   1.236   6.214   3.924  0.2340 -0.6359  0.5551
 3109SOL    HW110226   1.152   6.202   3.975  0.7626 -0.3552  1.5161
 3109SOL    HW210227   1.307   6.153   3.961  0.4979 -0.7601 -0.1382
 3110SOL     OW10228   2.083   6.608   5.423  0.2292 -0.7738  0.2680
 3110SOL    HW110229   2.068   6.671   5.347  1.8031 -0.1929  0.4125
 3110SOL    HW210230   2.012   6.537   5.421 -0.6506  0.0897 -0.8206
 3111SOL     OW10231   0.328   2.770   3.521  0.8679  0.1508 -0.2391
 3111SOL    HW110232   0.367   2.845   3.574 -0.9749 -0.7834  2.7341
 3111SOL    HW210233   0.385   2.688   3.533 -0.1785 -0.3893  1.5145
 3112SOL     OW10234   2.452   6.565   1.191  0.6011  0.1685  0.2572
 3112SOL    HW110235   2.522   6.509   1.146  0.2088  0.8500 -1.2617
 3112SOL    HW210236   2.375   6.507   1.218  1.9823 -0.7244  2.6017
 3113SOL     OW10237   1.572   1.211   4.121 -0.2919  0.0287  0.4079
 3113SOL    HW110238   1.527   1.293   4.156 -1.3375 -1.2333  2.1875
 3113SOL    HW210239   1.507   1.160   4.063 -0.0716 -0.1667  0.3326
 3114SOL     OW10240   5.185   6.813   6.444  0.4797 -0.0942 -0.3743
 3114SOL    HW110241   5.260   6.813   6.511 -1.6451 -1.1380  2.1519
 3114SOL    HW210242   5.133   6.898   6.454 -0.1836 -0.5084 -0.3082
 3115SOL     OW10243   4.088   5.803   5.987 -0.6490 -0.0409  0.0024
 3115SOL    HW110244   4.078   5.856   6.071 -0.4448 -0.3012  0.1909
 3115SOL    HW210245   4.031   5.722   5.991 -0.3434 -0.2543  0.0529
 3116SOL     OW10246   5.935   3.209   6.368  0.1449  0.0694  0.0372
 3116SOL    HW110247   5.905   3.129   6.316 -1.1049  0.3222  0.3434
 3116SOL    HW210248   6.029   3.231   6.343  0.6198 -1.6645  0.1591
 3117SOL     OW10249   4.261   0.107   1.130  0.0232  0.1036  0.3723
 3117SOL    HW110250   4.311   0.157   1.200  0.9937 -2.4084  1.6007
 3117SOL    HW210251   4.174   0.074   1.168 -0.1203 -0.0500 -0.0782
 3118SOL     OW10252   0.631   2.546   2.719  0.0937  0.5677 -0.3021
 3118SOL    HW110253   0.672   2.636   2.703  0.2368  0.5248 -0.1760
 3118SOL    HW210254   0.584   2.516   2.636  0.1726  0.6933 -0.3930
 3119SOL     OW10255   6.225   6.457   1.256 -0.3734 -0.3067 -0.2776
 3119SOL    HW110256   6.170   6.500   1.327 -1.3230 -2.2651  0.2447
 3119SOL    HW210257   6.165   6.419   1.185  0.4650 -0.0576 -1.1505
 3120SOL     OW10258   3.473   6.129   0.666  0.2138  1.0337 -0.0500
 3120SOL    HW110259   3.394   6.190   0.659 -1.0698 -0.4643  0.7422
 3120SOL    HW210260   3.475   6.068   0.587  1.2763  1.7957 -0.6458
 3121SOL     OW10261   2.565   1.266   3.045  0.2167  0.1756  0.0385
 3121SOL    HW110262   2.546   1.338   3.112 -0.6367  1.0353 -1.0732
 3121SOL    HW210263   2.653   1.286   3.000 -0.2444  0.8348 -0.6086
 3122SOL     OW10264   4.517   4.415   5.439  0.0959 -0.0001  0.7031
 3122SOL    HW110265   4.549   4.392   5.347 -2.0066  0.0528 -0.1220
 3122SOL    HW210266   4.593   4.414   5.503  1.2716 -2.2731 -0.6135
 3123SOL     OW10267   1.066   2.413   3.848  0.2537 -0.0705 -0.5634
 3123SOL    HW110268   1.076   2.314   3.833  0.0454 -0.0007 -1.1843
 3123SOL    HW210269   1.064   2.460   3.760  0.1896  0.4742 -0.2743
 3124SOL     OW10270   6.822   0.078   3.264  0.5982 -0.7937 -0.0375
 3124SOL    HW110271   6.880   0.012   3.311  0.9556  1.2078  2.5367
 3124SOL    HW210272   6.726   0.053   3.277  0.6047  0.5203  3.2813
 3125SOL     OW10273   0.657   1.346   5.504  0.3510 -0.6177  0.9490
 3125SOL    HW110274   0.569   1.381   5.474 -0.5735 -3.1637  0.5066
 3125SOL    HW210275   0.728   1.376   5.440 -0.2973  0.7649  0.8473
 3126SOL     OW10276   3.817   3.541   4.749 -0.1615 -0.2048  0.7094
 3126SOL    HW110277   3.898   3.594   4.773 -2.0557  3.1870  0.2338
 3126SOL    HW210278   3.794   3.557   4.653 -0.9491 -1.8295  0.5899
 3127SOL     OW10279   6.951   3.243   3.686  0.1607 -0.3490 -0.3353
 3127SOL    HW110280   6.864   3.246   3.637 -1.2224 -1.2110  1.9171
 3127SOL    HW210281   7.001   3.161   3.660 -0.3498 -0.5706 -0.6327
 3128SOL     OW10282   3.341   6.655   6.891  0.1078  0.0004 -0.0562
 3128SOL    HW110283   3.284   6.732   6.922  0.9560  0.8821 -0.6473
 3128SOL    HW210284   3.282   6.577   6.869 -0.6791  0.0011  1.8422
 3129SOL     OW10285   5.117   4.098   6.707 -0.0106  0.3044 -0.0586
 3129SOL    HW110286   5.026   4.082   6.671  0.5121 -0.5089 -1.0812
 3129SOL    HW210287   5.179   4.123   6.633  0.6048  0.8691  0.6181
 3130SOL     OW10288   6.547   4.842   2.824  0.4887 -0.3303 -0.3076
 3130SOL    HW110289   6.526   4.933   2.860  0.8022 -0.2225 -0.3951
 3130SOL    HW210290   6.623   4.803   2.875  1.5245  0.1849 -1.3939
 3131SOL     OW10291   0.823   2.761   2.200  0.3478  0.5814 -0.5321
 3131SOL    HW110292   0.731   2.722   2.195  0.3885  0.4372 -0.2177
 3131SOL    HW210293   0.827   2.845   2.147  0.4690 -0.2456 -1.8732
 3132SOL     OW10294   3.646   2.584   1.138  0.4221 -0.5005 -0.1730
 3132SOL    HW110295   3.629   2.517   1.210  0.9176  0.0091  0.4287
 3132SOL    HW210296   3.572   2.582   1.072 -0.7183 -0.0556  1.0587
 3133SOL     OW10297   6.735   6.249   2.684 -0.4480  0.3769 -0.3712
 3133SOL    HW110298   6.707   6.309   2.609  0.4844  0.2455 -0.8389
 3133SOL    HW210299   6.684   6.164   2.680  0.2418 -0.0033 -1.4220
 3134SOL     OW10300   5.341   4.427   4.124  0.2769 -0.5814 -0.4196
 3134SOL    HW110301   5.258   4.475   4.154  1.6477  0.3014  2.2865
 3134SOL    HW210302   5.385   4.478   4.051 -1.5563 -1.1268 -1.9885
 3135SOL     OW10303   3.075   6.930   6.476 -0.1755  0.1032  0.3571
 3135SOL    HW110304   3.001   6.881   6.428 -0.6931  1.6795 -0.5230
 3135SOL    HW210305   3.099   7.012   6.424  2.7113 -0.7174  0.2403
 3136SOL     OW10306   0.119   1.117   2.879 -0.0896  0.2629  0.6661
 3136SOL    HW110307   0.151   1.203   2.840  2.7235 -0.6687  0.7488
 3136SOL    HW210308   0.085   1.134   2.972 -1.0515  1.4773  0.1286
 3137SOL     OW10309   4.549   5.550   6.774  0.2920  0.2916  0.1831
 3137SOL    HW110310   4.465   5.547   6.719  1.3894 -0.7556 -1.5284
 3137SOL    HW210311   4.581   5.645   6.779  0.0943  0.4316 -0.8970
 3138SOL     OW10312   0.163   1.301   3.845  0.3849  0.3905  0.4732
 3138SOL    HW110313   0.095   1.261   3.784 -0.0155  0.7560  0.6758
 3138SOL    HW210314   0.178   1.240   3.923 -0.7016  0.9170  1.1168
 3139SOL     OW10315   0.703   4.237   1.976 -0.9379  0.4368  0.0260
 3139SOL    HW110316   0.689   4.143   2.009  0.4081 -0.0490 -0.7008
 3139SOL    HW210317   0.782   4.277   2.023 -0.3704  0.5342 -0.9829
 3140SOL     OW10318   4.123   4.967   0.379 -0.0624  0.7626  0.2700
 3140SOL    HW110319   4.105   4.870   0.361  0.5923  0.9376 -1.5769
 3140SOL    HW210320   4.036   5.017   0.382 -0.6093 -0.1657  3.6223
 3141SOL     OW10321   6.566   1.298   1.994  0.1643  0.3978  0.0149
 3141SOL    HW110322   6.602   1.359   1.924 -1.2655 -0.0913 -1.2029
 3141SOL    HW210323   6.525   1.353   2.068 -2.0300  1.0016 -1.5518
 3142SOL     OW10324   4.202   1.737   3.669 -0.6112 -0.2198  0.7769
 3142SOL    HW110325   4.294   1.772   3.652 -1.7791  1.5337 -2.8999
 3142SOL    HW210326   4.207   1.640   3.693  2.1305 -0.5372 -0.7256
 3143SOL     OW10327   6.865   6.721   7.014  0.2247 -0.0600  0.1467
 3143SOL    HW110328   6.796   6.736   7.085 -0.4593 -0.9042 -0.3196
 3143SOL    HW210329   6.822   6.718   6.924  1.1511  1.4990 -0.3884
 3144SOL     OW10330   3.412   6.397   1.397 -0.0888 -0.1368 -0.2179
 3144SOL    HW110331   3.407   6.368   1.492 -1.3412  1.5171  0.2575
 3144SOL    HW210332   3.495   6.452   1.383 -0.2065  0.1145  0.0682
 3145SOL     OW10333   5.267   4.664   6.349 -0.3921  0.1112 -0.2552
 3145SOL    HW110334   5.172   4.664   6.382  0.0548 -3.1214  1.5571
 3145SOL    HW210335   5.327   4.700   6.421  0.0918 -2.0471  0.5065
 3146SOL     OW10336   5.584   1.843   3.226  0.4540  0.1524  0.4095
 3146SOL    HW110337   5.504   1.889   3.264  0.6963 -0.4354  1.6645
 3146SOL    HW210338   5.594   1.753   3.267  1.0931 -0.2672 -0.6135
 3147SOL     OW10339   0.603   6.910   2.062  0.0265  0.5462  0.0950
 3147SOL    HW110340   0.586   6.951   2.152 -0.4166  1.0757 -0.2287
 3147SOL    HW210341   0.518   6.874   2.026 -0.1604  1.8977 -0.8850
 3148SOL     OW10342   4.780   2.581   1.452 -0.4131 -0.3978  0.2643
 3148SOL    HW110343   4.687   2.545   1.450 -0.5321 -0.0657 -0.9678
 3148SOL    HW210344   4.830   2.540   1.528 -2.2930  1.3127  2.5997
 3149SOL     OW10345   2.391   1.434   6.855  0.6752 -0.1291  0.3601
 3149SOL    HW110346   2.400   1.497   6.778  0.4593 -1.1197 -0.5062
 3149SOL    HW210347   2.481   1.421   6.898  0.3918  2.2620  1.8207
 3150SOL     OW10348   5.559   1.728   5.047  0.2727 -0.1325  0.6851
 3150SOL    HW110349   5.551   1.629   5.053 -1.4821 -0.0473  0.1917
 3150SOL    HW210350   5.481   1.772   5.092 -0.0958  0.9585 -0.9098
 3151SOL     OW10351   6.262   0.758   6.453 -0.2014 -0.0316 -0.4024
 3151SOL    HW110352   6.339   0.796   6.401 -2.1139  2.6750 -1.5156
 3151SOL    HW210353   6.228   0.828   6.516 -0.7185 -1.7765  1.3350
 3152SOL     OW10354   4.223   1.997   4.628  0.1063  0.2916  0.4619
 3152SOL    HW110355   4.143   2.016   4.685  0.2440  1.2838  0.3400
 3152SOL    HW210356   4.247   1.900   4.635 -2.0812 -0.3895 -0.7879
 3153SOL     OW10357   5.601   6.078   1.465  0.4649  0.3457  0.3494
 3153SOL    HW110358   5.695   6.043   1.466  0.6594  0.7352 -1.0722
 3153SOL    HW210359   5.564   6.077   1.557  1.5854 -0.5719  0.8215
 3154SOL     OW10360   3.327   0.994   0.039 -0.4127  0.2847 -0.1809
 3154SOL    HW110361   3.379   0.953  -0.036 -0.3226  0.1384 -0.0413
 3154SOL    HW210362   3.339   1.093   0.038  0.0874  0.2291  0.0081
 3155SOL     OW10363   6.649   5.184   1.687 -0.0645  0.1932  0.5667
 3155SOL    HW110364   6.567   5.230   1.653 -0.2697 -0.4774  0.1321
 3155SOL    HW210365   6.707   5.158   1.609 -0.1605 -0.6672  0.7755
 3156SOL     OW10366   3.284   4.896   0.945  0.5637  0.3450  0.6087
 3156SOL    HW110367   3.312   4.801   0.961  0.3393 -0.6077 -3.5119
 3156SOL    HW210368   3.363   4.950   0.918  0.1433  0.4001 -0.5347
 3157SOL     OW10369   1.496   2.681   4.645 -0.4409 -0.2309 -0.2913
 3157SOL    HW110370   1.585   2.694   4.688 -1.2514  1.2185  1.0609
 3157SOL    HW210371   1.432   2.644   4.712 -1.5306  1.3165 -0.4137
 3158SOL     OW10372   2.106   0.012   6.390  0.0213  0.1217 -0.0919
 3158SOL    HW110373   2.134   0.022   6.485  2.0819  3.0085 -0.8576
 3158SOL    HW210374   2.181  -0.028   6.337 -0.2109  0.6944 -0.8778
 3159SOL     OW10375   4.251   5.853   1.638  0.1422 -0.9881  0.1176
 3159SOL    HW110376   4.272   5.800   1.721  0.7864 -1.9690 -0.6528
 3159SOL    HW210377   4.157   5.834   1.609  0.3468 -1.6435 -0.1122
 3160SOL     OW10378   2.602   2.448   4.317 -0.6224  0.4353 -0.4642
 3160SOL    HW110379   2.684   2.394   4.333 -2.2098 -2.1724 -0.5063
 3160SOL    HW210380   2.582   2.449   4.219 -0.8253  0.7801 -0.4204
 3161SOL     OW10381   0.938   3.726   0.598  0.1739  0.1972  0.6868
 3161SOL    HW110382   0.977   3.818   0.599 -2.3677  1.3609  1.7109
 3161SOL    HW210383   0.880   3.714   0.678 -1.3956 -1.4642 -0.6181
 3162SOL     OW10384   1.662   4.724   2.746 -0.6033  0.2225  0.1272
 3162SOL    HW110385   1.703   4.675   2.669  0.2468  0.2968  0.5258
 3162SOL    HW210386   1.689   4.821   2.742 -0.8657  0.3048  0.3094
 3163SOL     OW10387   5.396   4.514   2.347 -0.0168 -0.2296  0.1609
 3163SOL    HW110388   5.465   4.512   2.275 -0.4307  0.3764 -0.2596
 3163SOL    HW210389   5.431   4.566   2.425  0.2548 -0.4864  0.2101
 3164SOL     OW10390   3.093   0.201   4.430 -0.1987  0.4197 -0.5394
 3164SOL    HW110391   3.112   0.166   4.521 -2.1560  1.4471  0.3138
 3164SOL    HW210392   3.134   0.140   4.362  0.8781 -0.6335  0.9795
 3165SOL     OW10393   6.767   4.566   6.598 -0.0001 -0.0034  0.0091
 3165SOL    HW110394   6.840   4.507   6.563 -0.1160 -1.1824  1.6582
 3165SOL    HW210395   6.808   4.644   6.647  0.1359  0.0746 -0.2214
 3166SOL     OW10396   4.794   2.260   4.440 -0.1636  0.3450 -0.0624
 3166SOL    HW110397   4.708   2.280   4.486 -0.3523  0.4515 -0.4614
 3166SOL    HW210398   4.802   2.161   4.427  0.3122  0.2211  1.0088
 3167SOL     OW10399   0.776   2.855   3.792  0.1503  0.3600 -0.6345
 3167SOL    HW110400   0.858   2.819   3.749 -0.1773 -1.7450  0.4019
 3167SOL    HW210401   0.712   2.781   3.811  0.3471  1.0202  3.6114
 3168SOL     OW10402   6.127   2.192   2.523 -0.6492  0.4619 -0.5075
 3168SOL    HW110403   6.188   2.266   2.552 -0.8337  1.0461 -1.5628
 3168SOL    HW210404   6.181   2.111   2.500 -0.2932  0.8574 -1.0837
 3169SOL     OW10405   0.783   4.904   1.912 -0.3857 -0.7808  0.0766
 3169SOL    HW110406   0.824   4.995   1.905  1.5864 -1.5640  0.7654
 3169SOL    HW210407   0.706   4.906   1.975 -0.5107  0.4432 -0.0990
 3170SOL     OW10408   1.706   3.236   4.028 -0.3642 -0.8426 -0.1557
 3170SOL    HW110409   1.648   3.176   4.083 -0.6207 -1.3488 -0.9608
 3170SOL    HW210410   1.802   3.210   4.040 -0.4430 -1.1453 -0.1751
 3171SOL     OW10411   5.396   2.449   5.379 -0.2153 -0.1194 -1.2476
 3171SOL    HW110412   5.370   2.476   5.472  1.4530 -0.1855 -0.7326
 3171SOL    HW210413   5.375   2.524   5.316  0.2590  0.6510 -0.5209
 3172SOL     OW10414   6.303   3.753   2.428 -0.2396  0.0024  0.6354
 3172SOL    HW110415   6.214   3.711   2.445 -0.0666 -1.1933 -1.1361
 3172SOL    HW210416   6.367   3.725   2.499 -0.9620 -0.0344  1.2954
 3173SOL     OW10417   5.630   4.245   1.695  0.2343 -0.0816 -0.0523
 3173SOL    HW110418   5.605   4.183   1.770 -0.1930  0.7802  0.5494
 3173SOL    HW210419   5.698   4.202   1.636  1.7853 -0.2104  1.7338
 3174SOL     OW10420   3.858   2.131   5.956 -0.4955  0.2816  0.1142
 3174SOL    HW110421   3.949   2.089   5.955  0.1434  1.6251  0.1055
 3174SOL    HW210422   3.824   2.139   5.863 -0.1360  0.7907  0.0234
 3175SOL     OW10423   5.649   0.482   6.262  0.1528 -0.5006  0.3361
 3175SOL    HW110424   5.641   0.383   6.245  0.0577 -0.3703 -0.3875
 3175SOL    HW210425   5.744   0.509   6.251 -0.1462 -0.1209 -1.7046
 3176SOL     OW10426   1.907   5.179   4.952  0.0328 -0.4785  0.8819
 3176SOL    HW110427   1.886   5.086   4.922  3.2315 -0.9023 -0.4681
 3176SOL    HW210428   1.857   5.244   4.896 -1.7824 -1.3196  1.4450
 3177SOL     OW10429   6.045   4.088   2.220 -0.0733  0.0194 -0.0098
 3177SOL    HW110430   6.045   4.111   2.123  1.8451 -2.0849 -0.5819
 3177SOL    HW210431   5.997   4.002   2.234  1.4778 -0.7904  0.5506
 3178SOL     OW10432   1.611   7.014   3.630  0.7411  0.2218 -0.0591
 3178SOL    HW110433   1.652   7.070   3.701  2.5489  1.4268 -1.9585
 3178SOL    HW210434   1.679   6.995   3.559 -0.5471 -2.2597 -0.7385
 3179SOL     OW10435   1.404   4.865   2.860 -0.4096 -0.0540 -0.4629
 3179SOL    HW110436   1.489   4.830   2.820 -0.5979 -0.9613 -0.0873
 3179SOL    HW210437   1.327   4.842   2.801 -0.6975 -1.4652  0.4205
 3180SOL     OW10438   5.532   6.120   6.097  0.3450 -0.4436 -0.0054
 3180SOL    HW110439   5.611   6.059   6.095  0.0655 -0.8703  1.2214
 3180SOL    HW210440   5.548   6.196   6.033  1.5453 -0.7590 -0.1186
 3181SOL     OW10441   5.629   1.129   3.706  0.0136  0.2732  0.3395
 3181SOL    HW110442   5.544   1.181   3.705 -2.3290 -3.2028 -1.6631
 3181SOL    HW210443   5.645   1.093   3.798  1.0661  3.2515  1.4647
 3182SOL     OW10444   1.618   5.565   0.781 -0.3371 -0.2527 -0.1598
 3182SOL    HW110445   1.685   5.603   0.717 -1.3621  0.2378 -0.9736
 3182SOL    HW210446   1.530   5.553   0.734 -1.0348 -0.1560  1.0761
 3183SOL     OW10447   3.399   2.858   0.409 -0.6728 -0.1213  0.7154
 3183SOL    HW110448   3.351   2.936   0.448 -2.1381 -0.0156 -1.1793
 3183SOL    HW210449   3.386   2.856   0.310  2.7634 -0.4625  0.1423
 3184SOL     OW10450   6.235   2.852   4.365 -0.1310  0.0924  0.1610
 3184SOL    HW110451   6.171   2.794   4.414 -0.4228  0.7448  0.5676
 3184SOL    HW210452   6.239   2.824   4.269  0.8515 -1.5432  0.6372
 3185SOL     OW10453   6.549   0.463   5.907 -0.5932 -0.1498 -0.1770
 3185SOL    HW110454   6.477   0.529   5.884 -1.5261 -0.7511  0.9435
 3185SOL    HW210455   6.517   0.403   5.980  0.6875 -1.0867 -0.3609
 3186SOL     OW10456   6.396   3.482   5.976  0.0261  0.3756  0.6256
 3186SOL    HW110457   6.387   3.536   6.059 -0.3498  0.7421  0.3464
 3186SOL    HW210458   6.410   3.386   6.000  2.5383  0.8031  1.1729
 3187SOL     OW10459   5.746   1.068   2.484  0.3419  0.7962  0.3045
 3187SOL    HW110460   5.689   1.056   2.402 -0.5048  0.5880  0.9037
 3187SOL    HW210461   5.754   0.981   2.532  1.0953  0.8509  0.2881
 3188SOL     OW10462   1.134   0.347   2.157 -0.1601 -0.0589 -0.2382
 3188SOL    HW110463   1.168   0.278   2.093 -0.2079  0.5675 -0.9480
 3188SOL    HW210464   1.043   0.376   2.129 -0.2616  0.0805  0.2305
 3189SOL     OW10465   2.206   0.870   2.010 -0.6577 -0.3318  0.0126
 3189SOL    HW110466   2.130   0.805   2.011 -0.4415 -0.5821  0.6693
 3189SOL    HW210467   2.292   0.820   2.014 -0.4861 -0.0154  0.3287
 3190SOL     OW10468   5.890   6.421   3.916  0.4744 -0.1061  0.3192
 3190SOL    HW110469   5.808   6.371   3.944  0.7184  0.2422  1.7000
 3190SOL    HW210470   5.868   6.519   3.907  0.4204 -0.1914 -0.6954
 3191SOL     OW10471   1.981   4.157   2.205  0.2218  0.1202 -0.1040
 3191SOL    HW110472   1.967   4.192   2.113 -1.7655  1.9934  0.8292
 3191SOL    HW210473   2.052   4.211   2.251 -1.0792  1.3992  0.4919
 3192SOL     OW10474   5.329   1.628   2.088 -0.3299 -0.3235 -0.9817
 3192SOL    HW110475   5.241   1.598   2.125  0.1518 -0.0041  0.4911
 3192SOL    HW210476   5.386   1.662   2.163  0.6477  0.4703 -2.0682
 3193SOL     OW10477   1.956   3.948   4.689  0.1323  0.5604  0.1235
 3193SOL    HW110478   2.016   4.015   4.732  2.6496 -0.2530 -1.8684
 3193SOL    HW210479   1.968   3.952   4.590 -1.9880 -0.7458 -0.2408
 3194SOL     OW10480   4.402   6.504   3.558  0.6458 -0.0372  0.1940
 3194SOL    HW110481   4.316   6.520   3.607  1.3711  0.6591  1.2841
 3194SOL    HW210482   4.430   6.409   3.569 -0.3824 -0.4953 -0.8700
 3195SOL     OW10483   1.391   0.706   0.244  0.0470  0.9882  0.0662
 3195SOL    HW110484   1.446   0.699   0.328  0.8715 -3.1722 -0.6165
 3195SOL    HW210485   1.429   0.777   0.186  2.1600  1.0517  1.4040
 3196SOL     OW10486   5.483   1.570   2.345 -0.0283  0.3404  0.2975
 3196SOL    HW110487   5.536   1.552   2.262 -1.3846 -0.2730 -0.4731
 3196SOL    HW210488   5.502   1.499   2.413 -0.3419 -0.2445 -0.2187
 3197SOL     OW10489   2.785   1.010   0.756  0.0938 -0.4752  0.3520
 3197SOL    HW110490   2.737   0.954   0.823 -3.8031 -0.7068 -2.2799
 3197SOL    HW210491   2.877   0.972   0.740 -0.8160 -3.5563  1.7083
 3198SOL     OW10492   0.145   3.516   1.711  0.3233 -0.3466 -0.0840
 3198SOL    HW110493   0.079   3.590   1.701  0.0627 -0.7903 -1.9991
 3198SOL    HW210494   0.097   3.431   1.734  0.6220  0.0099  2.1215
 3199SOL     OW10495   5.339   4.079   1.391 -0.1043  0.4279  0.0163
 3199SOL    HW110496   5.265   4.146   1.384 -0.3685  0.4163  2.1022
 3199SOL    HW210497   5.302   3.992   1.424  0.0448 -1.1855 -3.6785
 3200SOL     OW10498   6.847   3.832   5.490 -0.2338  0.4082  0.6462
 3200SOL    HW110499   6.873   3.912   5.436 -1.7221 -1.3931 -3.1916
 3200SOL    HW210500   6.925   3.769   5.494  0.2583  1.0634  1.7453
 3201SOL     OW10501   0.335   4.620   0.906  0.0255 -0.0537  0.1375
 3201SOL    HW110502   0.331   4.708   0.859  0.8462 -0.5753 -0.9482
 3201SOL    HW210503   0.321   4.634   1.004 -2.8033  0.9394 -0.3097
 3202SOL     OW10504   1.870   6.534   5.975 -0.0072 -0.3276 -0.3795
 3202SOL    HW110505   1.944   6.522   5.908 -0.9347  3.0755 -2.2398
 3202SOL    HW210506   1.885   6.618   6.027 -2.0251 -0.0871 -0.0956
 3203SOL     OW10507   1.964   6.541   0.236  0.3937  0.6605 -0.5562
 3203SOL    HW110508   1.969   6.527   0.335  0.8987  0.0812 -0.6581
 3203SOL    HW210509   1.934   6.635   0.218  2.6188  1.5766  0.1562
 3204SOL     OW10510   2.634   1.859   3.600 -0.2867  0.6237 -0.0746
 3204SOL    HW110511   2.574   1.816   3.668  0.0912 -1.0674 -0.7628
 3204SOL    HW210512   2.587   1.861   3.511 -0.4371  2.0152  0.0098
 3205SOL     OW10513   4.610   1.585   5.123  0.1524  0.5102  0.0731
 3205SOL    HW110514   4.631   1.489   5.138  1.0196 -0.0515 -3.6248
 3205SOL    HW210515   4.520   1.607   5.161  0.1256 -1.6252  1.3507
 3206SOL     OW10516   3.489   4.985   0.731  0.0577 -0.2139  0.1374
 3206SOL    HW110517   3.448   4.913   0.675 -2.6527  0.3186  1.2810
 3206SOL    HW210518   3.466   5.074   0.693  1.8013  0.1246 -0.2139
 3207SOL     OW10519   2.820   6.547   3.703  0.1659  0.5128 -0.0260
 3207SOL    HW110520   2.893   6.615   3.705 -0.7293  1.5701 -1.7691
 3207SOL    HW210521   2.829   6.487   3.783  2.9981  0.5191 -0.2503
 3208SOL     OW10522   6.166   5.291   5.027 -0.2437  0.1706 -0.3724
 3208SOL    HW110523   6.148   5.347   4.946 -0.5495  0.1015 -0.3552
 3208SOL    HW210524   6.212   5.347   5.096  0.7625  0.0096 -0.8994
 3209SOL     OW10525   6.525   6.637   6.109 -0.2460  0.2253 -0.5155
 3209SOL    HW110526   6.587   6.610   6.035 -1.1290  0.7948 -1.4723
 3209SOL    HW210527   6.431   6.640   6.075 -0.7555 -0.1238  0.7970
 3210SOL     OW10528   0.169   5.773   2.905 -0.1443  0.1110 -0.1112
 3210SOL    HW110529   0.243   5.797   2.968 -0.7235  0.2040  0.5419
 3210SOL    HW210530   0.200   5.786   2.811  1.3426 -1.7871  0.0824
 3211SOL     OW10531   1.054   5.809   4.789  0.1050  0.0058  0.4400
 3211SOL    HW110532   0.978   5.760   4.747 -1.2628  0.6619  2.0526
 3211SOL    HW210533   1.115   5.744   4.833  1.2199 -0.6404 -1.8870
 3212SOL     OW10534   4.535   6.711   3.394  0.2680 -0.2671 -0.0016
 3212SOL    HW110535   4.504   6.618   3.414  0.8848 -0.7149 -1.0099
 3212SOL    HW210536   4.561   6.757   3.479  0.5278 -1.2337  0.4561
 3213SOL     OW10537   0.199   2.328   5.652 -0.0186 -0.1387  0.2191
 3213SOL    HW110538   0.216   2.419   5.689 -1.1366  0.2144 -0.0997
 3213SOL    HW210539   0.113   2.293   5.688 -0.3316 -0.4431 -0.7969
 3214SOL     OW10540   3.421   0.304   1.772  0.1356 -0.3823  0.4494
 3214SOL    HW110541   3.425   0.287   1.674 -0.9924  0.0865  0.3030
 3214SOL    HW210542   3.351   0.373   1.791  0.2660 -0.5426  1.5972
 3215SOL     OW10543   1.272   4.389   2.762  0.0810 -0.0428  0.3369
 3215SOL    HW110544   1.305   4.296   2.746  2.1359  0.8088 -0.8144
 3215SOL    HW210545   1.350   4.450   2.772 -1.2056  1.7622 -0.2312
 3216SOL     OW10546   4.933   4.674   2.370  0.3504 -0.3910 -0.3432
 3216SOL    HW110547   4.956   4.769   2.391  0.2441 -0.4967  0.2422
 3216SOL    HW210548   4.843   4.670   2.327  0.2615 -0.2529 -0.1665
 3217SOL     OW10549   1.690   6.383   4.658  0.2565 -0.4583  0.1675
 3217SOL    HW110550   1.671   6.373   4.561 -2.5124  0.3422  0.5401
 3217SOL    HW210551   1.743   6.467   4.673  1.2978 -0.9446 -0.6700
 3218SOL     OW10552   6.369   2.345   2.532 -0.0702 -0.3436  0.4753
 3218SOL    HW110553   6.390   2.435   2.496 -0.5106 -0.1930  0.5806
 3218SOL    HW210554   6.448   2.285   2.522  0.3028  0.1220  0.6166
 3219SOL     OW10555   5.613   1.812   6.014  0.7969  0.4071  0.4856
 3219SOL    HW110556   5.634   1.776   6.105  0.8582 -1.5007 -0.2428
 3219SOL    HW210557   5.697   1.818   5.960  0.7869  1.6948  0.5777
 3220SOL     OW10558   6.587   3.963   4.360  0.0450  0.2308  0.3866
 3220SOL    HW110559   6.488   3.972   4.362  0.0928  0.7713  2.3143
 3220SOL    HW210560   6.612   3.869   4.383 -0.0129  0.3305  0.8726
 3221SOL     OW10561   2.547   2.413   2.459  0.2793  0.2708  0.3018
 3221SOL    HW110562   2.496   2.496   2.435 -0.8789 -1.1509 -2.7386
 3221SOL    HW210563   2.634   2.413   2.411 -0.2886 -0.7908 -0.7827
 3222SOL     OW10564   4.248   0.289   3.083 -0.0342 -0.4118 -0.0587
 3222SOL    HW110565   4.310   0.323   3.013  0.9849 -0.3446  0.8545
 3222SOL    HW210566   4.187   0.363   3.112 -0.9089 -0.6150 -1.3196
 3223SOL     OW10567   0.600   6.287   0.206 -0.3235 -0.3435  0.7940
 3223SOL    HW110568   0.629   6.349   0.132  0.7863 -2.5334 -0.7115
 3223SOL    HW210569   0.676   6.275   0.270 -0.9544  0.7640  1.7853
 3224SOL     OW10570   4.537   2.525   5.433  0.4772  0.2255 -0.6449
 3224SOL    HW110571   4.622   2.576   5.418  0.4953  0.5415  0.4429
 3224SOL    HW210572   4.539   2.484   5.524 -0.2707 -0.3045 -0.8604
 3225SOL     OW10573   5.640   1.405   5.637  0.0796 -0.8502  0.0401
 3225SOL    HW110574   5.543   1.430   5.637  0.3249  0.1283  0.0987
 3225SOL    HW210575   5.682   1.433   5.550  1.0494  1.8150  1.2464
 3226SOL     OW10576   1.003   1.256   0.993  0.8226 -0.6968 -0.2920
 3226SOL    HW110577   0.919   1.269   1.047  0.6066 -0.2945 -0.7130
 3226SOL    HW210578   1.074   1.317   1.026  0.6890 -0.4478 -0.4607
 3227SOL     OW10579   5.576   4.233   4.546  0.4071  0.5363  0.4100
 3227SOL    HW110580   5.553   4.176   4.625  1.2410 -1.3161 -0.6155
 3227SOL    HW210581   5.664   4.204   4.510 -0.6270  0.2798 -2.0951
 3228SOL     OW10582   1.965   0.870   0.552 -0.1123  0.8956  0.1300
 3228SOL    HW110583   2.017   0.839   0.632  1.8742  1.6554 -0.8011
 3228SOL    HW210584   1.986   0.966   0.535  0.1065  0.5441 -1.7408
 3229SOL     OW10585   1.618   0.778   2.353  0.7161 -0.6862 -0.1209
 3229SOL    HW110586   1.634   0.685   2.388 -0.6690 -0.5294  1.0367
 3229SOL    HW210587   1.704   0.829   2.353  1.4730 -1.9305 -0.6657
 3230SOL     OW10588   2.927   4.884   5.142  0.8762  0.6456 -0.1253
 3230SOL    HW110589   2.945   4.883   5.240 -1.2867  1.0032  0.3348
 3230SOL    HW210590   2.911   4.790   5.110  0.8803  0.5898  0.0336
 3231SOL     OW10591   1.284   4.112   0.584 -0.1776  0.2009 -0.0318
 3231SOL    HW110592   1.290   4.199   0.535  1.7078  0.3141  0.3471
 3231SOL    HW210593   1.358   4.105   0.651 -0.8107 -1.3327  0.5732
 3232SOL     OW10594   2.108   6.484   3.835 -0.0629  0.0937 -0.2364
 3232SOL    HW110595   2.182   6.444   3.890  0.9720  2.3976  0.1305
 3232SOL    HW210596   2.102   6.435   3.748 -0.6630 -2.5762  1.2002
 3233SOL     OW10597   2.973   6.910   0.609  0.2818 -0.7706  0.6276
 3233SOL    HW110598   3.014   6.988   0.561 -0.9687  0.4507  1.4480
 3233SOL    HW210599   3.007   6.907   0.703 -0.8037 -0.2762  1.0495
 3234SOL     OW10600   2.918   3.345   0.312  0.0346 -0.1413  0.1557
 3234SOL    HW110601   2.918   3.416   0.242  0.6252 -0.9485 -0.6951
 3234SOL    HW210602   2.957   3.261   0.274  0.5264 -0.5526  1.5117
 3235SOL     OW10603   5.722   1.957   3.427  0.0683 -0.4208  0.4002
 3235SOL    HW110604   5.693   1.894   3.356 -1.0711 -0.1477  0.6063
 3235SOL    HW210605   5.815   1.935   3.456 -0.6839 -2.6969  1.2478
 3236SOL     OW10606   5.592   1.306   1.008 -0.1853  0.4478 -0.8926
 3236SOL    HW110607   5.546   1.347   1.087  0.1681 -1.2494  0.2470
 3236SOL    HW210608   5.688   1.334   1.007 -0.1062  0.1826 -0.5216
 3237SOL     OW10609   1.432   0.000   5.352 -0.4687  0.2021  0.1678
 3237SOL    HW110610   1.417   0.089   5.396  1.6773  0.9928 -0.5155
 3237SOL    HW210611   1.409  -0.073   5.415  0.2793  1.2823  1.7681
 3238SOL     OW10612   5.828   6.415   6.891  0.3287 -0.1770 -0.3059
 3238SOL    HW110613   5.886   6.350   6.843 -1.9729 -0.4432 -2.9956
 3238SOL    HW210614   5.803   6.378   6.980  1.0491 -1.8595 -0.7715
 3239SOL     OW10615   6.918   6.820   4.510  0.3163  0.5218  0.5912
 3239SOL    HW110616   6.921   6.905   4.458  0.9549  0.8053  1.0752
 3239SOL    HW210617   6.843   6.763   4.476  1.5819  0.0453 -1.6479
 3240SOL     OW10618   0.473   1.823   1.218 -0.5355  0.2226 -0.0543
 3240SOL    HW110619   0.502   1.835   1.313  1.5335 -0.8696 -0.5010
 3240SOL    HW210620   0.382   1.781   1.217 -0.8728  0.8336  1.4208
 3241SOL     OW10621   0.258   2.293   4.114 -0.0187 -0.0688  0.0645
 3241SOL    HW110622   0.322   2.349   4.061  0.8315 -0.4409  0.6666
 3241SOL    HW210623   0.258   2.200   4.078  1.4047 -0.6153  1.3435
 3242SOL     OW10624   5.734   3.598   3.471 -0.3668  0.1817 -0.5008
 3242SOL    HW110625   5.799   3.674   3.465  1.3864 -1.2064 -0.0337
 3242SOL    HW210626   5.649   3.622   3.425  0.9221  1.6075 -2.2365
 3243SOL     OW10627   6.061   5.390   1.292  0.3627  0.0569 -0.3991
 3243SOL    HW110628   5.990   5.394   1.362 -0.2283  2.0083 -1.0379
 3243SOL    HW210629   6.042   5.314   1.230  0.3033 -1.0362  0.9221
 3244SOL     OW10630   5.370   0.254   6.981 -0.3115 -0.4224  0.0288
 3244SOL    HW110631   5.350   0.249   7.079 -0.7774  0.8217  0.0105
 3244SOL    HW210632   5.376   0.161   6.944  1.3970 -0.9852  1.5248
 3245SOL     OW10633   3.592   6.344   2.912  0.0550  0.4080  0.4049
 3245SOL    HW110634   3.663   6.403   2.873  0.9864 -0.3658  0.8851
 3245SOL    HW210635   3.607   6.250   2.882 -1.3230  0.3742 -0.2154
 3246SOL     OW10636   6.248   4.921   3.886  0.0502 -0.2146  0.2736
 3246SOL    HW110637   6.339   4.895   3.916  0.9408  0.5369 -1.6060
 3246SOL    HW210638   6.227   4.875   3.799 -0.3125  1.5033 -0.5956
 3247SOL     OW10639   0.511   3.557   5.418 -0.5756 -0.2964 -0.6566
 3247SOL    HW110640   0.486   3.631   5.355 -1.7289 -0.5778 -0.5568
 3247SOL    HW210641   0.587   3.586   5.475 -1.4593  1.0966 -0.1314
 3248SOL     OW10642   6.472   3.093   2.376 -0.1094  0.1809  0.2809
 3248SOL    HW110643   6.539   3.165   2.394 -0.4101  0.2197  1.3123
 3248SOL    HW210644   6.420   3.074   2.459  0.9096 -2.2020  0.4702
 3249SOL     OW10645   3.324   3.452   3.881  0.0227 -0.4160  0.1475
 3249SOL    HW110646   3.304   3.358   3.909  2.3950 -1.3739 -1.0265
 3249SOL    HW210647   3.255   3.484   3.816 -1.4874 -0.8459  1.4894
 3250SOL     OW10648   4.093   6.114   3.745  0.1240 -0.4404  0.3213
 3250SOL    HW110649   4.178   6.114   3.798  1.0781 -0.5152 -1.1437
 3250SOL    HW210650   4.087   6.030   3.691 -1.6269 -1.1237  1.4930
 3251SOL     OW10651   2.994   0.514   1.714  0.7413  0.2081  0.0928
 3251SOL    HW110652   2.994   0.449   1.638  2.5994  0.1787  0.0682
 3251SOL    HW210653   2.971   0.605   1.680  1.1704  0.1246 -0.4362
 3252SOL     OW10654   2.770   1.605   3.489  0.0742 -0.0350  0.0694
 3252SOL    HW110655   2.828   1.659   3.551  0.2678  0.5893 -0.6429
 3252SOL    HW210656   2.756   1.656   3.404  0.6628 -1.3263 -0.8151
 3253SOL     OW10657   5.582   2.677   0.121 -0.0152 -0.2245  0.0468
 3253SOL    HW110658   5.577   2.577   0.131  0.3962 -0.2837 -0.3507
 3253SOL    HW210659   5.490   2.713   0.102 -0.0221 -0.6234 -0.7051
 3254SOL     OW10660   6.576   0.576   0.693  0.5937 -0.0898  0.3065
 3254SOL    HW110661   6.548   0.672   0.692 -0.9773 -0.5304 -0.6120
 3254SOL    HW210662   6.581   0.545   0.788 -2.1704  0.0353  0.5911
 3255SOL     OW10663   2.676   6.412   1.433  0.7621 -0.2048 -0.0272
 3255SOL    HW110664   2.746   6.452   1.374  1.9103 -0.0373  1.3989
 3255SOL    HW210665   2.675   6.461   1.520  0.0860 -1.3584  0.6212
 3256SOL     OW10666   5.383   3.046   3.355  0.3264 -0.0755 -0.0481
 3256SOL    HW110667   5.357   3.023   3.261 -4.5287  0.3695  0.9046
 3256SOL    HW210668   5.377   2.964   3.412 -0.1734  0.2612  0.4005
 3257SOL     OW10669   1.626   1.151   4.853  0.4826  0.2177  0.0020
 3257SOL    HW110670   1.705   1.206   4.827  1.2055 -0.1477  1.3514
 3257SOL    HW210671   1.598   1.173   4.946 -1.6950  1.0916 -0.8004
 3258SOL     OW10672   0.633   5.320   4.102 -0.2381  0.3681  0.0512
 3258SOL    HW110673   0.683   5.256   4.045  0.9266 -0.1668  1.6154
 3258SOL    HW210674   0.671   5.320   4.194 -3.2427 -0.2407  1.4264
 3259SOL     OW10675   5.030   4.473   5.502 -0.1945 -0.3811 -0.3216
 3259SOL    HW110676   5.036   4.373   5.509 -0.7100 -0.4609 -0.9532
 3259SOL    HW210677   4.949   4.498   5.448 -2.0477  0.4628  2.5859
 3260SOL     OW10678   1.458   5.916   2.284  0.5553 -0.2030  0.2501
 3260SOL    HW110679   1.428   5.842   2.344 -1.3424 -0.2501 -0.6857
 3260SOL    HW210680   1.459   6.002   2.335 -0.0455 -0.4111  0.6216
 3261SOL     OW10681   6.771   6.197   4.187  0.3041  0.0853  0.1914
 3261SOL    HW110682   6.671   6.199   4.182  0.3515 -0.1737 -1.2808
 3261SOL    HW210683   6.809   6.257   4.116  1.1894 -1.8012 -1.0227
 3262SOL     OW10684   2.338   2.063   3.981 -0.2437  0.2643 -0.0817
 3262SOL    HW110685   2.405   2.005   4.028 -0.9532  0.4058  1.1675
 3262SOL    HW210686   2.316   2.141   4.040 -2.3532 -0.3949  0.0756
 3263SOL     OW10687   6.474   1.183   6.935 -0.3225  0.1433  0.4567
 3263SOL    HW110688   6.461   1.170   6.837  1.4158  1.2084  0.0569
 3263SOL    HW210689   6.398   1.237   6.972 -0.6078  0.3555 -0.4228
 3264SOL     OW10690   2.364   6.484   2.038  0.1330 -0.2029  0.0394
 3264SOL    HW110691   2.380   6.577   2.004  0.4116  0.2179  1.2721
 3264SOL    HW210692   2.440   6.425   2.012 -0.0213 -0.0778 -0.7065
 3265SOL     OW10693   5.620   1.238   0.080  0.4021 -0.0514 -0.2167
 3265SOL    HW110694   5.698   1.273   0.028 -0.1977  0.3279 -0.8757
 3265SOL    HW210695   5.536   1.283   0.049 -0.2821 -1.4911 -0.5304
 3266SOL     OW10696   2.982   3.744   5.410  0.4806 -0.1458 -0.3194
 3266SOL    HW110697   3.076   3.726   5.437  0.2283  1.3997  1.8973
 3266SOL    HW210698   2.945   3.664   5.361  1.7665 -2.3637  2.0519
 3267SOL     OW10699   2.754   5.148   0.197 -0.2668  0.1289  0.3457
 3267SOL    HW110700   2.823   5.158   0.124 -0.2461 -0.1743  0.3238
 3267SOL    HW210701   2.743   5.051   0.219 -1.4219  0.0870 -0.3558
 3268SOL     OW10702   5.182   3.554   6.479  0.1854 -0.3749 -0.3052
 3268SOL    HW110703   5.269   3.573   6.525  0.7292  1.0617 -1.8193
 3268SOL    HW210704   5.175   3.456   6.461  1.7202 -0.4771 -0.5541
 3269SOL     OW10705   2.127   5.512   0.910 -0.1520 -0.2396  0.0301
 3269SOL    HW110706   2.068   5.490   0.832 -0.8682  0.0957  0.4647
 3269SOL    HW210707   2.193   5.582   0.882 -0.0442 -0.5204 -0.4275
 3270SOL     OW10708   1.712   2.354   6.771  0.6868 -0.1105  0.1205
 3270SOL    HW110709   1.640   2.340   6.703  1.7144  1.1671 -1.3014
 3270SOL    HW210710   1.731   2.267   6.817 -0.4124 -0.8995 -0.8421
 3271SOL     OW10711   6.918   4.336   5.767 -0.3621 -0.2439  0.5752
 3271SOL    HW110712   6.861   4.340   5.849 -0.3052  0.8678  0.5730
 3271SOL    HW210713   6.907   4.420   5.714  1.4629  0.1204  0.7038
 3272SOL     OW10714   4.867   1.037   5.936 -0.7488 -0.0574 -0.3660
 3272SOL    HW110715   4.926   1.033   6.017  0.4070 -0.1708 -1.1813
 3272SOL    HW210716   4.812   0.954   5.930  0.6712 -1.0288 -0.7613
 3273SOL     OW10717   2.689   4.039   6.544 -0.0626  0.5848  0.4040
 3273SOL    HW110718   2.631   4.017   6.465 -1.0266  0.3468  1.1563
 3273SOL    HW210719   2.782   4.056   6.513 -0.7419  2.0330 -0.9863
 3274SOL     OW10720   6.665   6.766   3.197  0.0345  0.1307 -0.0934
 3274SOL    HW110721   6.585   6.817   3.230 -1.6398 -3.0473  1.3048
 3274SOL    HW210722   6.654   6.747   3.100 -1.0325 -0.3660  0.1038
 3275SOL     OW10723   0.937   0.735   2.060  0.0241 -0.0419 -0.3544
 3275SOL    HW110724   1.014   0.757   2.000  0.7186 -2.0263 -0.2409
 3275SOL    HW210725   0.948   0.784   2.146  0.9203  0.0670 -0.5135
 3276SOL     OW10726   0.016   6.831   5.349  0.0820  0.4322 -0.0549
 3276SOL    HW110727  -0.035   6.915   5.367 -1.9658 -0.6832 -0.3527
 3276SOL    HW210728   0.113   6.847   5.363 -0.3398  2.6260  0.6675
 3277SOL     OW10729   2.777   0.950   5.118  0.0140 -0.1111 -0.5546
 3277SOL    HW110730   2.847   0.887   5.152 -0.2687 -0.3054 -0.3234
 3277SOL    HW210731   2.812   0.999   5.039  0.9410  0.8329  0.4087
 3278SOL     OW10732   3.887   5.658   6.218 -0.1590  0.2922  0.5792
 3278SOL    HW110733   3.870   5.713   6.137 -1.9395  1.3199  1.5807
 3278SOL    HW210734   3.823   5.581   6.220 -2.1865  1.9136  2.3922
 3279SOL     OW10735   5.560   1.683   2.974 -0.0182  0.6911 -0.0391
 3279SOL    HW110736   5.528   1.591   2.997  0.9983 -0.1959 -1.9578
 3279SOL    HW210737   5.592   1.729   3.057  1.3577 -1.4467  0.6964
 3280SOL     OW10738   6.681   4.440   3.944 -0.3827  0.2116 -0.4802
 3280SOL    HW110739   6.664   4.359   3.887 -0.6943 -0.1830  0.1579
 3280SOL    HW210740   6.708   4.517   3.886 -0.8012 -0.1509 -1.1673
 3281SOL     OW10741   5.081   1.574   2.190 -0.4229  0.3932  0.1291
 3281SOL    HW110742   4.996   1.559   2.140 -0.6517  1.5933  0.1433
 3281SOL    HW210743   5.063   1.628   2.272  0.2853  0.2544  0.3843
 3282SOL     OW10744   5.643   4.391   4.963  0.6611  0.3017  0.1326
 3282SOL    HW110745   5.562   4.392   5.022  0.2410  1.0333 -0.4333
 3282SOL    HW210746   5.639   4.311   4.903 -0.2849  0.9807 -0.7376
 3283SOL     OW10747   3.032   1.854   5.208 -0.4234  0.1239 -0.2101
 3283SOL    HW110748   2.951   1.801   5.232 -0.7988  0.4638 -0.7246
 3283SOL    HW210749   3.066   1.901   5.290 -1.3024  0.7389 -0.1904
 3284SOL     OW10750   3.493   0.606   3.521 -0.0056 -0.3023 -0.1474
 3284SOL    HW110751   3.546   0.577   3.601 -1.1697  0.4225  0.9263
 3284SOL    HW210752   3.469   0.525   3.467  1.7029 -0.6939 -0.3766
 3285SOL     OW10753   4.331   1.810   3.378  0.3411  0.2828 -0.0154
 3285SOL    HW110754   4.252   1.781   3.323  0.5639  0.7206 -0.5766
 3285SOL    HW210755   4.310   1.897   3.423  0.8924  0.9725 -1.0565
 3286SOL     OW10756   1.810   4.099   1.220 -0.7941 -0.0780  0.3558
 3286SOL    HW110757   1.773   4.050   1.298 -1.3704  0.5620  0.4914
 3286SOL    HW210758   1.823   4.195   1.243 -0.2183 -0.0386 -0.0860
 3287SOL     OW10759   3.751   0.119   1.139 -0.0751 -0.2421 -0.0010
 3287SOL    HW110760   3.767   0.169   1.224 -3.2110 -1.5870  1.5717
 3287SOL    HW210761   3.784   0.172   1.062 -1.6633  3.5145  1.6761
 3288SOL     OW10762   2.953   6.273   1.839 -0.4187 -0.2328 -0.0652
 3288SOL    HW110763   2.921   6.196   1.784  1.0622 -0.6520 -0.3815
 3288SOL    HW210764   3.005   6.239   1.917  2.5802  0.3889 -1.6312
 3289SOL     OW10765   5.064   1.176   0.496 -0.1760 -0.8700  0.5626
 3289SOL    HW110766   5.135   1.214   0.436 -0.4594  0.3332  0.9659
 3289SOL    HW210767   4.975   1.213   0.470 -0.1694  0.5934  2.4106
 3290SOL     OW10768   0.582   4.708   0.169 -0.5162 -0.0135  0.2797
 3290SOL    HW110769   0.499   4.652   0.165  0.2152 -1.1040 -0.0346
 3290SOL    HW210770   0.662   4.648   0.174  0.2459  1.0242  0.8743
 3291SOL     OW10771   5.107   4.770   3.827 -0.0465  0.1840 -0.4019
 3291SOL    HW110772   5.085   4.674   3.841 -1.1509  0.6844  1.8957
 3291SOL    HW210773   5.023   4.824   3.828  0.6588  1.3135 -0.1384
 3292SOL     OW10774   6.422   2.974   1.290  0.1180  0.2477 -0.4047
 3292SOL    HW110775   6.354   2.933   1.229 -1.1952  1.3250  0.2957
 3292SOL    HW210776   6.420   2.928   1.378 -0.8349  1.2670  0.1342
 3293SOL     OW10777   6.681   3.623   2.694 -0.0209 -0.1870  0.2880
 3293SOL    HW110778   6.642   3.589   2.780 -0.5930 -0.5554 -0.1033
 3293SOL    HW210779   6.735   3.551   2.651  2.4008  0.7621  1.5365
 3294SOL     OW10780   3.023   4.265   7.024  0.7348 -0.4837 -0.3433
 3294SOL    HW110781   2.985   4.218   6.944 -0.4869 -1.6347  0.8643
 3294SOL    HW210782   3.112   4.225   7.047  1.3997  0.2889 -1.4788
 3295SOL     OW10783   1.353   3.950   3.572  0.1403 -0.0410  0.3265
 3295SOL    HW110784   1.271   4.007   3.561  0.3022  0.1423  0.0559
 3295SOL    HW210785   1.414   3.964   3.494 -0.2683 -1.3271 -0.2554
 3296SOL     OW10786   2.669   6.731   0.995 -0.5526 -0.3867  0.1447
 3296SOL    HW110787   2.574   6.728   1.026 -1.2845 -0.3356 -1.9122
 3296SOL    HW210788   2.676   6.794   0.918  1.3947  0.4467  0.9469
 3297SOL     OW10789   5.153   0.184   5.804 -0.5769  0.1389  0.2146
 3297SOL    HW110790   5.084   0.256   5.806 -1.2683 -0.4713  2.5166
 3297SOL    HW210791   5.112   0.098   5.836  1.0188 -0.4618  0.7626
 3298SOL     OW10792   3.012   4.737   6.511  0.7010  0.5949  0.0169
 3298SOL    HW110793   2.994   4.644   6.479  1.0039  0.4132  0.3733
 3298SOL    HW210794   2.941   4.799   6.475 -0.6009 -0.0877  1.2968
 3299SOL     OW10795   3.038   6.670   4.160  0.2222  0.5408  0.2162
 3299SOL    HW110796   3.018   6.572   4.162  1.5750  0.2494  0.9831
 3299SOL    HW210797   2.955   6.722   4.180 -1.0285 -0.3211 -2.3277
 3300SOL     OW10798   1.606   2.052   3.922 -0.3049 -0.0436  0.3549
 3300SOL    HW110799   1.644   2.142   3.941  0.0200 -0.0269 -0.3474
 3300SOL    HW210800   1.508   2.060   3.904  0.2565  0.7049 -3.0364
 3301SOL     OW10801   2.065   3.268   2.125  0.2942  0.0993 -0.0801
 3301SOL    HW110802   2.102   3.360   2.115 -1.6088  0.7546 -1.6137
 3301SOL    HW210803   2.078   3.217   2.040  1.4880 -1.1653  0.8069
 3302SOL     OW10804   0.093   4.526   0.239  0.4912  0.1313 -0.3128
 3302SOL    HW110805   0.169   4.589   0.226  0.9718 -0.1603  1.0212
 3302SOL    HW210806   0.121   4.450   0.296 -0.8028  0.0144  0.2048
 3303SOL     OW10807   3.157   2.352   6.501 -0.1305 -0.1626  0.6302
 3303SOL    HW110808   3.247   2.310   6.515  0.5933  0.9577 -0.4706
 3303SOL    HW210809   3.133   2.349   6.404 -0.4806  1.0861  0.6518
 3304SOL     OW10810   2.207   4.319   1.278 -0.3021  0.1280 -1.2194
 3304SOL    HW110811   2.167   4.326   1.186 -2.6739 -0.2785 -0.2950
 3304SOL    HW210812   2.179   4.397   1.333 -0.2834 -0.4562 -0.3566
 3305SOL     OW10813   2.711   1.100   0.294 -0.0886 -0.2886  0.3048
 3305SOL    HW110814   2.761   1.136   0.373 -0.3190  1.0361 -0.1137
 3305SOL    HW210815   2.616   1.083   0.320 -0.1611  0.1355  0.3376
 3306SOL     OW10816   0.867   0.238   1.213  0.5093 -0.0645 -0.0804
 3306SOL    HW110817   0.853   0.157   1.156  1.6795 -0.0307 -0.4375
 3306SOL    HW210818   0.889   0.209   1.307  1.3544 -0.1794 -0.3080
 3307SOL     OW10819   1.006   5.078   4.494 -0.1017  0.4525  0.0369
 3307SOL    HW110820   1.094   5.070   4.540  0.0057 -1.3938 -0.3961
 3307SOL    HW210821   0.933   5.086   4.562  0.4837  4.3555  0.3988
 3308SOL     OW10822   3.598   5.215   2.035 -0.2921 -0.0208  0.7755
 3308SOL    HW110823   3.500   5.217   2.016 -0.3387 -2.1599  0.5504
 3308SOL    HW210824   3.615   5.259   2.123 -1.3990  0.7403  0.6264
 3309SOL     OW10825   3.310   5.315   4.447  0.2350  0.2197  0.6666
 3309SOL    HW110826   3.380   5.385   4.440 -0.5354  1.3231  2.9028
 3309SOL    HW210827   3.344   5.239   4.503  0.0182  0.2701  0.8702
 3310SOL     OW10828   5.777   6.057   0.522  0.0733 -0.1115 -0.2382
 3310SOL    HW110829   5.717   6.060   0.441 -0.1756 -0.5185 -0.0710
 3310SOL    HW210830   5.871   6.044   0.492 -0.2874 -3.2269 -0.4007
 3311SOL     OW10831   1.653   3.479   0.077  0.0688  0.5307 -0.0276
 3311SOL    HW110832   1.582   3.455   0.144  0.8012  1.1806  1.0042
 3311SOL    HW210833   1.733   3.422   0.091 -0.5086 -0.7968 -1.7485
 3312SOL     OW10834   4.330   3.459   1.336 -0.0419  0.4829 -1.1273
 3312SOL    HW110835   4.400   3.438   1.267  0.3050  0.2097 -0.6965
 3312SOL    HW210836   4.356   3.418   1.423  0.4328  2.3081 -0.3696
 3313SOL     OW10837   2.204   0.353   3.261 -0.6874  0.4197  0.3267
 3313SOL    HW110838   2.286   0.296   3.265 -0.1092  0.8669 -2.8246
 3313SOL    HW210839   2.136   0.319   3.326  0.7624 -1.9815  0.6797
 3314SOL     OW10840   3.521   6.683   1.536  0.4140  0.2740 -0.1520
 3314SOL    HW110841   3.508   6.760   1.473 -0.2610 -1.2788 -1.9956
 3314SOL    HW210842   3.443   6.676   1.597  0.1518  0.6266 -0.4423
 3315SOL     OW10843   1.784   5.774   3.535 -0.0935 -0.6016  0.3987
 3315SOL    HW110844   1.727   5.820   3.467  1.5647 -0.3963 -0.9091
 3315SOL    HW210845   1.835   5.843   3.587  1.4185 -0.8500 -0.6904
 3316SOL     OW10846   3.415   6.671   6.624  0.5132 -0.1574 -0.1083
 3316SOL    HW110847   3.426   6.763   6.588  2.3026 -0.6255 -0.8548
 3316SOL    HW210848   3.395   6.676   6.722 -0.9900  1.0302 -0.4366
 3317SOL     OW10849   1.685   1.325   2.208 -0.5280 -0.8429  0.1388
 3317SOL    HW110850   1.600   1.279   2.183 -0.3852 -2.0126  1.5923
 3317SOL    HW210851   1.698   1.318   2.307  0.4213  0.8268  0.1678
 3318SOL     OW10852   2.387   1.165   5.074  0.1712 -0.0742  0.2531
 3318SOL    HW110853   2.484   1.151   5.091  0.0615 -2.3442 -0.5809
 3318SOL    HW210854   2.341   1.187   5.160  1.2676 -0.1151  0.8600
 3319SOL     OW10855   1.206   0.104   5.752  0.1481  0.3371 -0.0727
 3319SOL    HW110856   1.112   0.111   5.719  0.5035 -1.0954 -1.5041
 3319SOL    HW210857   1.218   0.017   5.801  0.8643  0.2531 -0.3880
 3320SOL     OW10858   5.959   0.835   0.891 -0.2852 -0.0743 -0.7672
 3320SOL    HW110859   5.938   0.923   0.847 -0.1721  0.6135  0.4825
 3320SOL    HW210860   6.045   0.844   0.942 -0.6971 -0.6553  0.0422
 3321SOL     OW10861   4.182   0.652   0.029 -0.1758  0.0770 -0.0897
 3321SOL    HW110862   4.269   0.686   0.065 -0.2855 -0.1365  0.3879
 3321SOL    HW210863   4.195   0.620  -0.065 -0.1577  1.8378 -0.7252
 3322SOL     OW10864   5.323   2.228   2.617 -0.2883 -0.1309  0.2167
 3322SOL    HW110865   5.316   2.234   2.517 -0.4367 -1.2474  0.1457
 3322SOL    HW210866   5.346   2.318   2.654 -0.5041  0.3616 -0.7971
 3323SOL     OW10867   1.492   2.643   1.447 -0.3618  0.3317  0.0126
 3323SOL    HW110868   1.441   2.591   1.515  1.5217 -2.4036 -0.5085
 3323SOL    HW210869   1.431   2.671   1.373 -1.6192 -0.3389  0.7745
 3324SOL     OW10870   6.884   6.436   4.354  0.2650  0.0763 -0.4930
 3324SOL    HW110871   6.871   6.485   4.440  1.8682 -0.3543  0.0385
 3324SOL    HW210872   6.908   6.341   4.373  1.5628  0.1986 -1.3553
 3325SOL     OW10873   3.646   5.602   5.083  0.5272 -0.6386 -0.4013
 3325SOL    HW110874   3.711   5.582   5.011  0.1794 -0.5248 -0.7521
 3325SOL    HW210875   3.626   5.700   5.085  0.8300 -0.5818  0.1063
 3326SOL     OW10876   3.444   2.935   1.689  0.0785  0.0341 -0.2072
 3326SOL    HW110877   3.398   2.906   1.773 -0.8096  1.0663 -0.3177
 3326SOL    HW210878   3.543   2.940   1.705  0.2345 -2.4417 -0.0304
 3327SOL     OW10879   1.112   4.906   6.759 -0.3293 -0.3090  0.3471
 3327SOL    HW110880   1.168   4.832   6.796 -0.0641 -0.9824 -1.3378
 3327SOL    HW210881   1.016   4.876   6.754 -0.1574 -0.7110 -0.7241
 3328SOL     OW10882   4.949   2.341   6.543 -0.2844 -0.1386 -0.0711
 3328SOL    HW110883   4.876   2.401   6.511 -1.1385 -1.0983  0.0334
 3328SOL    HW210884   4.915   2.284   6.618  0.0972 -1.6904 -1.0306
 3329SOL     OW10885   2.219   0.775   4.243 -0.0696  0.1980  0.6894
 3329SOL    HW110886   2.310   0.810   4.224 -0.6626  0.8140 -1.2692
 3329SOL    HW210887   2.160   0.791   4.163 -2.5581  2.0020  2.7189
 3330SOL     OW10888   7.018   4.693   0.974 -0.1788 -0.6373 -0.5334
 3330SOL    HW110889   7.097   4.736   0.931 -2.2819  1.3150 -2.7579
 3330SOL    HW210890   6.985   4.618   0.916 -0.0635 -1.3541  0.3093
 3331SOL     OW10891   2.221   2.952   5.600 -0.1092 -0.6389 -0.6199
 3331SOL    HW110892   2.154   2.949   5.674 -0.6905 -0.3407 -1.1279
 3331SOL    HW210893   2.313   2.961   5.639 -0.2771 -1.8486  0.1123
 3332SOL     OW10894   6.036   2.789   5.496  0.0977  0.4305 -0.2830
 3332SOL    HW110895   6.075   2.732   5.568  1.6655  1.1619 -0.5212
 3332SOL    HW210896   5.969   2.736   5.444  0.8268 -0.8987  0.0894
 3333SOL     OW10897   1.647   5.901   0.332  0.8250  0.6741  0.0747
 3333SOL    HW110898   1.680   5.945   0.249  1.3574 -0.6280 -0.4327
 3333SOL    HW210899   1.647   5.968   0.407  2.5063  1.3051 -0.4304
 3334SOL     OW10900   2.006   4.240   2.691  0.2791  0.2879 -0.0891
 3334SOL    HW110901   2.104   4.233   2.669 -0.3498 -2.2377 -2.6923
 3334SOL    HW210902   1.996   4.282   2.781  3.8252 -0.6269  0.9265
 3335SOL     OW10903   5.416   4.948   4.441  0.0777 -0.5179  0.3303
 3335SOL    HW110904   5.378   4.881   4.505 -3.1607  0.4620 -0.3561
 3335SOL    HW210905   5.449   4.901   4.359 -2.1505 -1.3802 -0.1452
 3336SOL     OW10906   4.220   6.152   5.658  0.0512  0.3086  0.2783
 3336SOL    HW110907   4.264   6.209   5.727  0.5596 -0.7919  0.8920
 3336SOL    HW210908   4.267   6.164   5.570  0.3809  0.5654  0.4876
 3337SOL     OW10909   3.165   6.300   0.888  0.1439  0.1756  0.4334
 3337SOL    HW110910   3.194   6.231   0.954 -2.6138 -1.3316  0.2108
 3337SOL    HW210911   3.179   6.265   0.795  1.6934  1.2815  0.2082
 3338SOL     OW10912   5.815   4.826   0.376  0.2393  0.2810 -0.1071
 3338SOL    HW110913   5.816   4.809   0.474  0.0824 -0.3791 -0.2130
 3338SOL    HW210914   5.748   4.766   0.332 -2.7896  3.3614 -0.1350
 3339SOL     OW10915   6.449   4.653   0.187 -0.3266  0.0021 -0.6070
 3339SOL    HW110916   6.446   4.676   0.090  0.6935  2.2011 -0.1846
 3339SOL    HW210917   6.532   4.691   0.228 -0.5865 -1.1330  1.0796
 3340SOL     OW10918   5.164   0.311   0.924  0.3416  0.5821  0.0025
 3340SOL    HW110919   5.228   0.365   0.979  1.1412 -0.8715  0.5711
 3340SOL    HW210920   5.085   0.366   0.901  0.7426  1.7321  1.2540
 3341SOL     OW10921   0.477   4.857   5.583 -0.2097 -0.5289 -0.2267
 3341SOL    HW110922   0.489   4.766   5.624 -1.1184 -1.2055 -1.4118
 3341SOL    HW210923   0.418   4.912   5.643  1.4186 -0.2107  1.1734
 3342SOL     OW10924   2.849   0.605   5.500  0.1772  0.1892  0.3440
 3342SOL    HW110925   2.921   0.661   5.462  0.9891 -1.1350 -0.1209
 3342SOL    HW210926   2.770   0.604   5.438  0.6771 -0.2663 -0.2849
 3343SOL     OW10927   6.717   4.271   1.979 -0.2609 -0.9057 -0.3086
 3343SOL    HW110928   6.653   4.266   1.903  2.7138  0.2842 -3.1032
 3343SOL    HW210929   6.717   4.364   2.016  0.4691 -0.6567 -0.9212
 3344SOL     OW10930   6.055   1.846   5.445  0.3344 -0.1735 -0.3331
 3344SOL    HW110931   5.975   1.835   5.503 -1.2854  2.4696 -1.8776
 3344SOL    HW210932   6.077   1.944   5.436  2.0332 -0.6537 -2.1888
 3345SOL     OW10933   1.007   4.585   4.731  0.4675 -0.5738  0.1486
 3345SOL    HW110934   1.099   4.550   4.710  1.1683  2.0745 -1.7298
 3345SOL    HW210935   1.012   4.683   4.750 -1.9965 -0.3309 -0.1356
 3346SOL     OW10936   4.201   6.378   2.718 -0.6054 -0.1361  0.1227
 3346SOL    HW110937   4.209   6.296   2.774 -3.2207  0.0426  0.8904
 3346SOL    HW210938   4.206   6.354   2.621  3.1332 -0.5570  0.2860
 3347SOL     OW10939   1.516   3.945   3.320 -0.4333  0.2260 -0.1253
 3347SOL    HW110940   1.585   3.975   3.255 -0.6214  0.2216 -0.3274
 3347SOL    HW210941   1.425   3.960   3.282 -0.5976  1.8465  0.8160
 3348SOL     OW10942   3.429   3.373   2.015  0.2060 -0.1361 -0.4373
 3348SOL    HW110943   3.373   3.456   2.018  0.5662  0.0744  1.0997
 3348SOL    HW210944   3.382   3.299   2.063  1.2504  0.0744  0.9739
 3349SOL     OW10945   4.052   0.858   0.957  0.7354  0.0788 -0.3488
 3349SOL    HW110946   4.143   0.886   0.988 -0.7010  2.4878  2.1380
 3349SOL    HW210947   4.048   0.758   0.950  3.5112 -0.1066 -0.5662
 3350SOL     OW10948   6.425   5.194   1.276 -0.0077 -0.2987 -0.0142
 3350SOL    HW110949   6.387   5.104   1.297  0.4571 -0.6314 -0.5680
 3350SOL    HW210950   6.516   5.184   1.238 -0.1391  0.3841 -0.5344
 3351SOL     OW10951   4.414   3.346   7.004  0.0406 -0.0277 -0.0523
 3351SOL    HW110952   4.476   3.274   6.975 -0.5085 -1.4882  2.1380
 3351SOL    HW210953   4.325   3.334   6.960 -0.0629 -0.7530  0.3383
 3352SOL     OW10954   1.274   3.807   1.101 -0.2839  0.1532 -0.2985
 3352SOL    HW110955   1.241   3.778   1.191  0.4663 -1.7891 -0.5941
 3352SOL    HW210956   1.356   3.864   1.113 -0.3883  0.1972  0.2539
 3353SOL     OW10957   2.221   1.038   0.001 -0.1229  0.3046 -0.3941
 3353SOL    HW110958   2.243   1.094  -0.078 -0.0676  0.6934 -0.1073
 3353SOL    HW210959   2.304   0.993   0.035 -0.5189 -1.8305 -2.0142
 3354SOL     OW10960   0.723   0.098   2.439  0.2818 -0.1996 -0.1670
 3354SOL    HW110961   0.689   0.132   2.526 -0.6942  1.1798 -1.0458
 3354SOL    HW210962   0.745   0.175   2.379 -0.6466 -1.0816 -1.7186
 3355SOL     OW10963   5.442   2.490   3.031 -0.0836 -0.1970 -0.3805
 3355SOL    HW110964   5.354   2.520   3.066  0.7100  1.6120  0.1769
 3355SOL    HW210965   5.472   2.409   3.081 -1.3985 -0.8438 -0.5842
 3356SOL     OW10966   1.250   3.681   6.185 -0.2573  0.2181 -0.0964
 3356SOL    HW110967   1.222   3.757   6.126 -2.3596 -0.0008  0.5467
 3356SOL    HW210968   1.277   3.716   6.274 -2.5783  0.1829  0.6792
 3357SOL     OW10969   2.752   5.709   1.035 -0.3123 -0.6052 -0.0586
 3357SOL    HW110970   2.652   5.711   1.036 -0.3035  0.8847  1.1168
 3357SOL    HW210971   2.784   5.623   1.076 -1.1315 -0.0189  1.9188
 3358SOL     OW10972   6.833   4.474   5.018 -0.2881  0.7169 -0.7561
 3358SOL    HW110973   6.860   4.378   5.029 -0.3235  0.8741  0.9006
 3358SOL    HW210974   6.746   4.489   5.065  0.5807  1.9381  0.5426
 3359SOL     OW10975   2.098   0.873   1.151  0.2230  0.1984  0.5173
 3359SOL    HW110976   2.192   0.886   1.119  0.8080 -1.0193  1.6375
 3359SOL    HW210977   2.079   0.775   1.159 -0.5272  0.4354  2.0130
 3360SOL     OW10978   0.992   1.032   6.024  0.7938 -0.1911  0.4133
 3360SOL    HW110979   0.951   1.031   5.933  0.6668  0.3817  0.4643
 3360SOL    HW210980   0.951   0.959   6.079  0.1684  0.0816  0.3167
 3361SOL     OW10981   4.619   1.850   3.988 -0.1956  0.1131 -0.2104
 3361SOL    HW110982   4.597   1.933   3.937 -1.3980 -0.6847 -1.0382
 3361SOL    HW210983   4.578   1.855   4.079  0.8581  0.9744  0.2412
 3362SOL     OW10984   2.154   1.903   2.737  0.1767 -0.2784  0.0048
 3362SOL    HW110985   2.056   1.914   2.721  0.1203  0.8655  0.9683
 3362SOL    HW210986   2.204   1.925   2.653 -0.3847 -1.0424 -0.5446
 3363SOL     OW10987   6.391   1.297   0.693 -0.0186  0.2653 -0.6339
 3363SOL    HW110988   6.443   1.247   0.762  0.3374  0.1021 -1.0144
 3363SOL    HW210989   6.438   1.383   0.673 -0.8514  0.9556  0.3254
 3364SOL     OW10990   1.652   4.606   5.535  0.1189 -0.2087  0.2036
 3364SOL    HW110991   1.576   4.632   5.477  0.1536  0.9062  0.6336
 3364SOL    HW210992   1.734   4.595   5.479 -0.1491 -0.4926 -0.1374
 3365SOL     OW10993   5.772   3.332   4.787 -0.5717  0.0312 -0.0220
 3365SOL    HW110994   5.849   3.268   4.787 -0.6707 -0.1120 -1.5114
 3365SOL    HW210995   5.701   3.298   4.848 -0.1408 -0.6725  0.0956
 3366SOL     OW10996   4.681   0.730   0.628  0.0274 -0.5624 -0.9478
 3366SOL    HW110997   4.729   0.746   0.714 -0.6530 -2.0357 -0.2523
 3366SOL    HW210998   4.703   0.802   0.563 -0.5310  1.3857  0.9133
 3367SOL     OW10999   1.023   6.299   2.930  0.0408 -0.3969 -0.0280
 3367SOL    HW111000   0.929   6.326   2.911 -0.1023 -0.6664  0.2851
 3367SOL    HW211001   1.024   6.210   2.975  0.1463  1.3978  3.9242
 3368SOL     OW11002   6.140   2.561   6.412  0.2670 -0.1359  0.2546
 3368SOL    HW111003   6.229   2.606   6.399 -0.2610  1.0220  0.5013
 3368SOL    HW211004   6.074   2.628   6.446 -0.4939 -1.1797  0.8797
 3369SOL     OW11005   4.902   6.571   5.251 -0.3806  0.6695 -0.1385
 3369SOL    HW111006   4.866   6.502   5.188  2.0514 -2.0332  1.1898
 3369SOL    HW211007   4.933   6.651   5.200 -0.2160 -0.6135 -2.1394
 3370SOL     OW11008   6.845   0.017   6.315  0.1107  0.0162  0.0097
 3370SOL    HW111009   6.895  -0.063   6.284  0.5010 -0.4409  1.6853
 3370SOL    HW211010   6.910   0.088   6.344 -0.2221  1.1289 -1.7912
 3371SOL     OW11011   0.237   3.133   0.873 -0.6650 -0.0278 -0.3600
 3371SOL    HW111012   0.224   3.214   0.816 -1.3747 -1.4076 -2.2848
 3371SOL    HW211013   0.149   3.100   0.906 -0.6030 -0.9892 -1.0858
 3372SOL     OW11014   0.627   1.908   2.740 -0.4620 -0.8602  0.0761
 3372SOL    HW111015   0.680   1.863   2.812  0.6379  0.9293  0.4256
 3372SOL    HW211016   0.534   1.925   2.773  0.3734  1.0970  1.6360
 3373SOL     OW11017   6.053   1.722   6.753  0.1061 -0.1101  0.3696
 3373SOL    HW111018   6.010   1.801   6.795 -0.4075 -0.6809  0.9515
 3373SOL    HW211019   6.110   1.675   6.821  1.0037  0.1692 -0.1688
 3374SOL     OW11020   3.005   5.493   5.104 -0.6258 -0.3663  0.9693
 3374SOL    HW111021   2.993   5.399   5.074 -0.1187 -0.5749  1.4103
 3374SOL    HW211022   3.084   5.499   5.165 -0.3052  0.4427  0.4878
 3375SOL     OW11023   3.090   3.157   4.227 -0.3750 -0.3584 -0.2645
 3375SOL    HW111024   3.048   3.211   4.154 -1.8373  0.2432  0.9917
 3375SOL    HW211025   3.136   3.078   4.186  2.7323  2.2206 -2.2959
 3376SOL     OW11026   4.033   3.236   2.470 -0.2614 -0.1527 -0.8018
 3376SOL    HW111027   4.038   3.272   2.563 -2.1701  0.4719 -0.9070
 3376SOL    HW211028   4.032   3.136   2.473 -0.7303 -0.1302 -0.1177
 3377SOL     OW11029   1.817   3.510   4.787 -0.2449 -0.9518 -0.7607
 3377SOL    HW111030   1.834   3.545   4.695  0.1123  0.3242 -0.2248
 3377SOL    HW211031   1.732   3.457   4.787 -2.1580  1.8779 -1.1543
 3378SOL     OW11032   1.577   6.918   1.767  0.0113 -0.0141 -0.0288
 3378SOL    HW111033   1.482   6.886   1.774 -0.0616  0.6161  3.9076
 3378SOL    HW211034   1.581   7.015   1.793  1.7200  0.0128 -0.2995
 3379SOL     OW11035   6.555   5.273   6.819 -0.1224 -0.2360 -0.1020
 3379SOL    HW111036   6.494   5.199   6.790 -0.5221  0.0844 -0.0671
 3379SOL    HW211037   6.552   5.282   6.918  2.3647 -2.3448  0.3072
 3380SOL     OW11038   1.015   6.246   4.705  0.3075 -0.3132 -0.1275
 3380SOL    HW111039   1.058   6.290   4.784  2.7191  0.8162 -1.9258
 3380SOL    HW211040   0.991   6.152   4.728 -0.7857  0.5223  2.4654
 3381SOL     OW11041   4.461   3.115   1.685  0.3189  0.0349 -0.2521
 3381SOL    HW111042   4.496   3.067   1.605  1.8661  2.3308 -1.0358
 3381SOL    HW211043   4.517   3.093   1.764  1.9269  1.5412 -0.9151
 3382SOL     OW11044   0.434   6.808   5.675 -0.0767  0.1253 -0.3091
 3382SOL    HW111045   0.511   6.747   5.693 -1.2724 -1.0793  0.8812
 3382SOL    HW211046   0.419   6.868   5.754  2.0294  3.1833 -1.9881
 3383SOL     OW11047   1.816   2.206   3.060 -0.4327 -0.0635 -0.7556
 3383SOL    HW111048   1.828   2.206   3.160  0.3613 -0.4416 -0.8479
 3383SOL    HW211049   1.888   2.262   3.018  0.6047 -1.7136 -1.2653
 3384SOL     OW11050   2.964   3.735   3.033 -0.2880  0.0657  0.1053
 3384SOL    HW111051   2.957   3.651   2.979  2.4723  0.3146 -0.7790
 3384SOL    HW211052   2.969   3.814   2.971 -3.2685  1.0284  0.9249
 3385SOL     OW11053   1.002   3.480   4.721 -0.3650 -0.1587  0.3589
 3385SOL    HW111054   1.027   3.568   4.761 -1.1425  1.2364 -2.0238
 3385SOL    HW211055   1.075   3.414   4.737  1.0316  1.3970  0.7338
 3386SOL     OW11056   6.086   4.455   5.672 -0.1978 -0.2177 -0.1418
 3386SOL    HW111057   6.022   4.401   5.617 -1.4145  0.7033  0.3201
 3386SOL    HW211058   6.092   4.547   5.634  1.7334 -0.5816 -0.8279
 3387SOL     OW11059   2.337   1.751   3.085  0.2754 -0.2394 -0.0525
 3387SOL    HW111060   2.421   1.777   3.037  1.3459 -1.6702  0.9499
 3387SOL    HW211061   2.271   1.715   3.019  0.0266  1.7667 -0.9818
 3388SOL     OW11062   5.908   2.116   3.686 -0.0624 -0.3588  0.1542
 3388SOL    HW111063   5.859   2.047   3.740  1.0810 -0.0432  1.6597
 3388SOL    HW211064   5.958   2.070   3.612 -1.2405 -0.8554 -0.3599
 3389SOL     OW11065   0.151   3.555   2.699 -0.1930  0.1374 -0.4258
 3389SOL    HW111066   0.161   3.502   2.783 -0.0138 -1.2133 -1.2699
 3389SOL    HW211067   0.093   3.634   2.716  1.8700  1.3406  1.5838
 3390SOL     OW11068   2.745   2.138   7.006  0.5773 -0.1679  0.0734
 3390SOL    HW111069   2.652   2.162   6.978 -0.3906 -1.2667  2.1865
 3390SOL    HW211070   2.783   2.072   6.940 -1.5098 -2.4436  0.9919
 3391SOL     OW11071   3.566   1.058   2.319  0.4492 -0.0139 -0.2780
 3391SOL    HW111072   3.498   1.131   2.328  1.4301  0.7328  1.5489
 3391SOL    HW211073   3.653   1.089   2.358  1.0376 -1.9813  0.0594
 3392SOL     OW11074   4.602   6.366   1.583  0.3438  0.2826  0.2288
 3392SOL    HW111075   4.632   6.437   1.519 -1.3721  0.9464  0.1039
 3392SOL    HW211076   4.533   6.309   1.539 -0.4526  0.4048  1.2768
 3393SOL     OW11077   6.687   0.172   0.088 -0.1862  0.3449  0.5632
 3393SOL    HW111078   6.590   0.190   0.072 -0.0588 -0.2843 -1.1686
 3393SOL    HW211079   6.731   0.254   0.123 -1.2017  0.8408  0.7252
 3394SOL     OW11080   4.566   2.019   2.519  0.0898  0.3178  0.7086
 3394SOL    HW111081   4.596   2.111   2.493  2.6157 -0.8734 -1.0440
 3394SOL    HW211082   4.609   1.993   2.605  1.4840 -0.0961 -0.0729
 3395SOL     OW11083   1.415   4.486   6.330 -0.0910  0.0090 -0.6693
 3395SOL    HW111084   1.316   4.470   6.338 -0.8722  4.3073  1.7481
 3395SOL    HW211085   1.461   4.453   6.412 -0.4983  2.4732  0.6627
 3396SOL     OW11086   5.904   2.081   4.335  0.3210  0.0484  0.2568
 3396SOL    HW111087   5.896   2.168   4.287  0.9603 -0.0292 -0.0016
 3396SOL    HW211088   6.000   2.063   4.356  0.2219 -0.7081  0.0960
 3397SOL     OW11089   4.593   5.001   5.604 -0.3578  0.9015 -0.5385
 3397SOL    HW111090   4.575   5.077   5.667  1.6753  1.2832 -0.3423
 3397SOL    HW211091   4.661   5.029   5.536 -1.3623 -0.0039 -1.9666
 3398SOL     OW11092   0.053   6.575   2.665  0.0821  0.3485  0.1401
 3398SOL    HW111093   0.088   6.487   2.698 -0.8330 -0.8256 -1.8043
 3398SOL    HW211094   0.053   6.641   2.739 -1.5116 -1.9979  2.4071
 3399SOL     OW11095   4.501   4.782   5.000  0.5954 -0.4058  0.2400
 3399SOL    HW111096   4.451   4.695   4.998 -1.3683  0.6722 -1.1648
 3399SOL    HW211097   4.441   4.854   5.036  1.9178  0.5399  0.6173
 3400SOL     OW11098   4.950   1.510   0.288  0.0481  0.5654  0.2363
 3400SOL    HW111099   4.957   1.493   0.386  0.6635  1.4831  0.3625
 3400SOL    HW211100   4.864   1.471   0.254 -0.4505  0.7422  1.2475
 3401SOL     OW11101   6.000   4.845   5.217  0.7460 -0.3376 -0.4026
 3401SOL    HW111102   5.960   4.922   5.266 -0.3826 -1.6132  0.7868
 3401SOL    HW211103   5.939   4.818   5.142  0.4663 -0.8995  0.0224
 3402SOL     OW11104   0.199   6.123   4.526  0.5566 -0.3457  0.4603
 3402SOL    HW111105   0.100   6.129   4.517  0.4123 -0.8821  1.5294
 3402SOL    HW211106   0.223   6.108   4.622  1.7530  1.1981  0.4292
 3403SOL     OW11107   2.711   0.019   5.710  0.0850  0.8124  0.1523
 3403SOL    HW111108   2.653  -0.024   5.778 -0.4090  1.9617  0.4910
 3403SOL    HW211109   2.732   0.112   5.738  1.6724  0.5919 -0.2311
 3404SOL     OW11110   3.906   5.976   1.780  0.5068 -0.1949 -1.3068
 3404SOL    HW111111   3.816   6.008   1.749  0.3801  0.6901 -0.0819
 3404SOL    HW211112   3.915   5.878   1.760 -0.6128 -0.2404 -1.6788
 3405SOL     OW11113   5.718   3.753   6.982 -0.4003  0.5393 -0.3753
 3405SOL    HW111114   5.629   3.794   7.003 -1.0308 -0.8142 -0.2978
 3405SOL    HW211115   5.783   3.773   7.055 -0.8704  0.8565 -0.0429
 3406SOL     OW11116   6.640   5.045   2.412  0.3104 -0.1975  0.3104
 3406SOL    HW111117   6.574   4.977   2.380  1.5434 -1.2676 -0.0471
 3406SOL    HW211118   6.667   5.024   2.506 -0.6224  0.8660  0.8500
 3407SOL     OW11119   0.223   4.407   2.896  0.3225  0.4307 -0.0134
 3407SOL    HW111120   0.267   4.358   2.971  0.9443  0.2337 -0.5007
 3407SOL    HW211121   0.192   4.497   2.929 -0.1340  0.0317  0.6785
 3408SOL     OW11122   4.634   6.046   2.092 -0.2292 -0.4978 -0.3261
 3408SOL    HW111123   4.650   6.144   2.106 -0.3495 -0.5930  0.5156
 3408SOL    HW211124   4.689   5.994   2.157 -0.6374 -0.9724 -0.3545
 3409SOL     OW11125   3.335   6.974   5.900 -0.0160  0.6823 -0.1297
 3409SOL    HW111126   3.256   6.969   5.838 -1.1042 -2.6098  1.2892
 3409SOL    HW211127   3.320   7.045   5.968 -0.6442  1.6422 -1.2314
 3410SOL     OW11128   6.860   6.555   6.448  0.1042  0.3636 -0.0177
 3410SOL    HW111129   6.939   6.570   6.506  0.5726 -0.0068 -0.5494
 3410SOL    HW211130   6.788   6.510   6.500 -0.0387  1.3442  0.6617
 3411SOL     OW11131   1.872   1.895   2.714  0.3166 -0.0181  0.1692
 3411SOL    HW111132   1.837   1.818   2.660 -1.4163 -1.1775  2.7554
 3411SOL    HW211133   1.814   1.975   2.698 -1.5299 -0.9459  1.7581
 3412SOL     OW11134   5.012   0.688   6.035  0.5357 -0.3711  0.0110
 3412SOL    HW111135   4.940   0.650   6.093 -0.7109  0.9954 -0.5638
 3412SOL    HW211136   5.024   0.785   6.056  0.6791 -0.0629 -1.3866
 3413SOL     OW11137   5.450   0.551   1.873 -0.4109 -0.1924 -0.2721
 3413SOL    HW111138   5.524   0.522   1.934  0.7923  0.6175 -1.2968
 3413SOL    HW211139   5.411   0.636   1.906 -0.9462 -0.6464  0.2983
 3414SOL     OW11140   3.269   0.468   5.494 -0.0796 -0.1641  0.0078
 3414SOL    HW111141   3.323   0.384   5.506  0.1607  0.2641  2.4308
 3414SOL    HW211142   3.210   0.481   5.574  0.3664  2.3253 -0.0137
 3415SOL     OW11143   0.593   4.943   2.608  0.3423 -0.4372 -0.5156
 3415SOL    HW111144   0.503   4.952   2.651  0.3461  0.3789 -0.6586
 3415SOL    HW211145   0.594   4.864   2.548 -0.2895 -0.4416 -0.5232
 3416SOL     OW11146   1.440   4.622   5.340  0.3960 -0.4068 -0.1064
 3416SOL    HW111147   1.459   4.541   5.284  0.3324 -0.0297 -0.6753
 3416SOL    HW211148   1.345   4.649   5.329  0.4297 -0.2236  0.0444
 3417SOL     OW11149   6.581   2.428   1.443  0.6879  0.3181 -0.2780
 3417SOL    HW111150   6.508   2.409   1.377  0.7201  0.3555 -0.3249
 3417SOL    HW211151   6.668   2.398   1.405  0.4134 -2.0832  0.7816
 3418SOL     OW11152   2.080   2.603   5.807  0.5634  0.0199  0.0458
 3418SOL    HW111153   2.055   2.699   5.825  2.0774  0.3175  0.7382
 3418SOL    HW211154   2.040   2.574   5.721  1.1187  1.6933 -0.8249
 3419SOL     OW11155   3.814   1.856   0.148 -0.5548 -0.4989  0.3444
 3419SOL    HW111156   3.899   1.881   0.101 -0.8614  1.2247  0.6583
 3419SOL    HW211157   3.737   1.865   0.085 -0.8993  1.2881  0.9776
 3420SOL     OW11158   2.537   2.101   2.260 -0.0253 -0.3727  0.1742
 3420SOL    HW111159   2.570   2.189   2.295 -0.6534 -0.7615  1.8157
 3420SOL    HW211160   2.493   2.115   2.171 -0.8612  1.1152  0.7942
 3421SOL     OW11161   0.169   6.122   3.120 -0.0751  0.3113 -0.1116
 3421SOL    HW111162   0.210   6.119   3.029 -1.5095  1.0968 -0.8132
 3421SOL    HW211163   0.148   6.029   3.150  1.2493 -0.0241 -0.1673
 3422SOL     OW11164   3.693   0.623   2.821  0.3101  0.2857 -0.7844
 3422SOL    HW111165   3.753   0.547   2.800 -1.5179 -1.5842  0.3892
 3422SOL    HW211166   3.611   0.590   2.869 -0.6607  2.9616 -0.3741
 3423SOL     OW11167   3.250   6.116   2.546 -0.3002  0.3519  0.0648
 3423SOL    HW111168   3.191   6.178   2.496  0.6353  1.4776  0.3174
 3423SOL    HW211169   3.291   6.164   2.624 -0.8019 -1.0261  1.2117
 3424SOL     OW11170   5.647   0.706   1.673 -0.1242  0.3013  0.6370
 3424SOL    HW111171   5.737   0.664   1.679 -0.1967 -0.1650 -1.0136
 3424SOL    HW211172   5.583   0.658   1.733  0.3618 -0.3669  0.6253
 3425SOL     OW11173   4.111   5.071   2.652 -0.0473 -0.3073 -0.5834
 3425SOL    HW111174   4.086   4.976   2.634  1.3869 -0.7139 -0.5497
 3425SOL    HW211175   4.082   5.129   2.576  0.7808 -1.0810 -1.5055
 3426SOL     OW11176   2.681   2.614   0.235  0.5354  0.6830 -0.2380
 3426SOL    HW111177   2.708   2.703   0.273  1.2116  0.8212 -1.0199
 3426SOL    HW211178   2.746   2.587   0.164 -0.0446 -0.1289 -0.4719
 3427SOL     OW11179   1.706   0.650   2.043  0.6529  0.5133 -0.2592
 3427SOL    HW111180   1.720   0.617   2.136 -0.7474 -1.2117 -0.6074
 3427SOL    HW211181   1.693   0.749   2.044 -0.3818  0.3926  1.5230
 3428SOL     OW11182   3.210   5.413   3.302  0.8238 -0.4330  0.0351
 3428SOL    HW111183   3.247   5.348   3.236  0.9661 -0.9315  0.5915
 3428SOL    HW211184   3.144   5.472   3.257  0.6983 -0.9602 -0.4887
 3429SOL     OW11185   0.698   3.734   0.016  0.4124  0.0334 -0.3953
 3429SOL    HW111186   0.654   3.674  -0.051  1.5283  0.2203 -1.3290
 3429SOL    HW211187   0.792   3.704   0.031  0.0574 -0.2659  1.4457
 3430SOL     OW11188   0.904   4.946   1.584  0.3824 -0.2751  0.2781
 3430SOL    HW111189   0.962   5.022   1.612 -2.0141  0.6776  3.2599
 3430SOL    HW211190   0.927   4.865   1.638  0.2214 -0.4682  0.0598
 3431SOL     OW11191   1.341   0.409   5.535  0.3147 -0.1391  0.5711
 3431SOL    HW111192   1.381   0.323   5.565 -1.6115 -1.9021 -1.5406
 3431SOL    HW211193   1.388   0.441   5.453 -1.2137 -1.2248 -0.8080
 3432SOL     OW11194   4.612   0.524   0.090  0.7723  0.0863 -0.0977
 3432SOL    HW111195   4.702   0.567   0.091  1.3165 -0.9617 -1.2670
 3432SOL    HW211196   4.620   0.428   0.117  0.3768 -0.6033 -2.2257
 3433SOL     OW11197   5.483   0.597   3.154  0.5422 -0.2304 -0.2695
 3433SOL    HW111198   5.422   0.542   3.096  1.9523 -1.0945 -1.0006
 3433SOL    HW211199   5.446   0.600   3.247 -0.6095 -0.7152 -0.6828
 3434SOL     OW11200   3.324   1.442   2.068  0.5883 -0.0324 -0.3527
 3434SOL    HW111201   3.335   1.446   1.969  0.5288  2.5557 -0.3057
 3434SOL    HW211202   3.399   1.489   2.113 -0.0017 -0.1308  0.7879
 3435SOL     OW11203   1.032   1.313   6.233 -0.2302 -0.2920  0.1141
 3435SOL    HW111204   1.128   1.286   6.230 -0.2735 -0.6147  1.3327
 3435SOL    HW211205   0.986   1.266   6.308 -0.9706  1.0514  0.5351
 3436SOL     OW11206   4.479   0.485   3.397  0.1866 -0.7496  0.6762
 3436SOL    HW111207   4.474   0.526   3.488 -0.3823  0.7149  0.0052
 3436SOL    HW211208   4.387   0.460   3.367  0.1452  0.4760 -0.2480
 3437SOL     OW11209   5.047   1.106   0.013 -0.6403  0.3255  0.2286
 3437SOL    HW111210   4.993   1.081  -0.068 -0.7316 -1.0135  0.6831
 3437SOL    HW211211   5.099   1.027   0.044  0.4822  1.1984  0.6725
 3438SOL     OW11212   1.321   5.332   6.387 -0.2496  0.4061 -0.0081
 3438SOL    HW111213   1.306   5.234   6.397  0.6599  0.2225 -0.3525
 3438SOL    HW211214   1.413   5.355   6.418 -0.2043  1.0340 -0.5964
 3439SOL     OW11215   4.201   6.704   6.100 -0.0494 -0.2951 -0.3637
 3439SOL    HW111216   4.176   6.748   6.185  2.4523  0.2592  0.1754
 3439SOL    HW211217   4.121   6.697   6.040 -1.3506  1.3992  1.0877
 3440SOL     OW11218   2.632   2.135   0.978  0.0957 -0.2176  0.4222
 3440SOL    HW111219   2.718   2.184   0.981 -0.3527  0.6275 -0.0848
 3440SOL    HW211220   2.558   2.195   1.010 -0.3165 -0.8965  0.7666
 3441SOL     OW11221   4.896   0.502   4.960 -0.1611  0.1937  0.2302
 3441SOL    HW111222   4.904   0.465   4.868  2.5550  0.3083  0.3347
 3441SOL    HW211223   4.801   0.494   4.991 -0.5273 -3.0000 -1.2441
 3442SOL     OW11224   0.939   3.733   5.055  0.0618  0.0293 -0.6120
 3442SOL    HW111225   0.877   3.705   5.128 -0.0070  1.5034 -0.0598
 3442SOL    HW211226   0.990   3.814   5.084  0.0123  0.6809 -2.2076
 3443SOL     OW11227   0.617   5.819   3.974  0.5458  0.4938 -0.0623
 3443SOL    HW111228   0.607   5.720   3.977  3.5244  0.0498 -0.9951
 3443SOL    HW211229   0.592   5.858   4.062  0.7482 -1.2707  0.8250
 3444SOL     OW11230   4.362   3.804   6.717 -0.0401  0.2035  0.5190
 3444SOL    HW111231   4.310   3.720   6.699  0.8189 -0.4204  0.9222
 3444SOL    HW211232   4.403   3.799   6.808 -0.8946  1.5460  1.0042
 3445SOL     OW11233   5.456   5.409   4.888 -0.1218  0.1274 -0.4902
 3445SOL    HW111234   5.416   5.343   4.824  0.7103  2.1541 -3.3194
 3445SOL    HW211235   5.394   5.487   4.898 -0.3938 -0.3066  1.5428
 3446SOL     OW11236   4.375   0.189   4.153 -0.6087 -0.4906  0.2983
 3446SOL    HW111237   4.343   0.279   4.124 -0.2952 -0.2752  0.6120
 3446SOL    HW211238   4.310   0.119   4.122  0.1198 -0.3673 -1.6526
 3447SOL     OW11239   6.519   5.863   5.222 -0.0752 -0.0253  0.5226
 3447SOL    HW111240   6.464   5.914   5.156 -1.3798 -1.5469  0.3591
 3447SOL    HW211241   6.497   5.892   5.314 -0.9226 -0.3666  0.4364
 3448SOL     OW11242   3.144   2.500   1.145 -0.3102  0.1965  0.0737
 3448SOL    HW111243   3.202   2.519   1.066  1.2638  1.0331  1.3742
 3448SOL    HW211244   3.163   2.407   1.179  0.9221  0.7505  0.9781
 3449SOL     OW11245   0.407   6.641   2.726  0.8596  0.3248  0.0240
 3449SOL    HW111246   0.358   6.708   2.783  0.0356 -0.0806 -0.1862
 3449SOL    HW211247   0.365   6.638   2.635  2.3515  1.1838 -0.7361
 3450SOL     OW11248   2.154   1.655   1.124 -0.3129 -0.4974 -0.3387
 3450SOL    HW111249   2.231   1.708   1.087 -1.3242 -0.0596 -1.9384
 3450SOL    HW211250   2.076   1.716   1.137 -1.1192 -1.3467 -1.0464
 3451SOL     OW11251   1.675   4.146   5.077  0.2169 -0.5401 -0.8723
 3451SOL    HW111252   1.703   4.075   5.012  0.0150 -1.1240 -0.3294
 3451SOL    HW211253   1.660   4.105   5.166  1.6625  0.4489 -0.1356
 3452SOL     OW11254   6.155   2.785   1.468 -0.3886 -0.2562  0.2141
 3452SOL    HW111255   6.131   2.843   1.546  0.9630  1.9207 -0.8777
 3452SOL    HW211256   6.080   2.723   1.448 -0.6129 -1.2430  3.4856
 3453SOL     OW11257   4.884   0.669   7.015 -0.0597  0.0213 -0.8273
 3453SOL    HW111258   4.938   0.740   7.060  1.1795 -0.9608 -0.6865
 3453SOL    HW211259   4.888   0.682   6.916 -0.2299  0.4240 -0.7802
 3454SOL     OW11260   1.467   1.859   1.272 -0.0905 -0.1163 -0.2025
 3454SOL    HW111261   1.436   1.774   1.314 -1.6819 -0.0691 -1.2128
 3454SOL    HW211262   1.546   1.894   1.322 -0.1843 -1.5227  0.9848
 3455SOL     OW11263   1.845   3.229   2.899 -0.1545 -0.6427 -0.0908
 3455SOL    HW111264   1.856   3.182   2.987 -0.3518  0.7220  0.6977
 3455SOL    HW211265   1.925   3.287   2.882 -0.6049 -0.0692 -0.2795
 3456SOL     OW11266   6.931   1.498   1.327 -0.3825  0.4342 -0.5037
 3456SOL    HW111267   6.982   1.419   1.294  1.5245  1.9701 -1.3947
 3456SOL    HW211268   6.887   1.545   1.250 -0.3637  1.0043 -0.1790
 3457SOL     OW11269   2.166   6.055   4.267  0.1275 -0.4499 -0.6219
 3457SOL    HW111270   2.122   6.122   4.207  0.8866 -1.4600 -2.3885
 3457SOL    HW211271   2.235   6.101   4.323 -1.3579  0.7049  0.3498
 3458SOL     OW11272   5.140   3.761   0.034 -0.3969  0.2952 -0.0614
 3458SOL    HW111273   5.073   3.835   0.031  0.3849  0.9886 -1.2473
 3458SOL    HW211274   5.230   3.797   0.059 -0.1489 -0.3728  0.0402
 3459SOL     OW11275   0.467   5.726   3.631  0.0911  0.0053  0.0441
 3459SOL    HW111276   0.444   5.733   3.728 -0.0072 -0.8211  0.0865
 3459SOL    HW211277   0.385   5.740   3.576  0.2561  1.0931  0.0441
 3460SOL     OW11278   1.696   2.417   5.030 -0.1478  0.0457 -0.0660
 3460SOL    HW111279   1.720   2.348   4.961  0.2492  0.1844 -0.0740
 3460SOL    HW211280   1.613   2.390   5.078  0.0846 -0.5055  0.0264
 3461SOL     OW11281   1.879   6.234   2.445  0.2589 -0.4762  0.3902
 3461SOL    HW111282   1.829   6.276   2.369  0.6780  1.9794  1.3885
 3461SOL    HW211283   1.963   6.193   2.410  0.5962  0.8876 -0.4814
 3462SOL     OW11284   5.359   3.541   1.828  0.0965  0.5877  0.2346
 3462SOL    HW111285   5.315   3.452   1.825  0.2730  0.4398  1.4572
 3462SOL    HW211286   5.455   3.532   1.801 -0.3789  0.7787 -1.6583
 3463SOL     OW11287   3.152   1.722   1.574  0.1121 -0.2257  0.2996
 3463SOL    HW111288   3.065   1.760   1.604 -0.6361 -1.3714 -0.3648
 3463SOL    HW211289   3.226   1.783   1.602 -0.8798  0.6956  0.9931
 3464SOL     OW11290   3.549   0.343   0.177  0.4218  0.0093  0.9011
 3464SOL    HW111291   3.548   0.431   0.129  2.0724  0.4431  1.5879
 3464SOL    HW211292   3.557   0.359   0.275  2.2533 -0.8860  0.9423
 3465SOL     OW11293   0.596   4.818   1.018 -0.0343 -0.2878  0.3704
 3465SOL    HW111294   0.548   4.905   1.026 -0.1701 -0.3990  0.7633
 3465SOL    HW211295   0.664   4.810   1.091  1.5492  0.4646 -0.9676
 3466SOL     OW11296   6.429   4.244   4.174 -0.4627  0.0141  0.2675
 3466SOL    HW111297   6.472   4.164   4.131 -1.1814 -1.3779  2.0238
 3466SOL    HW211298   6.413   4.314   4.104  2.3203 -0.3719 -0.9111
 3467SOL     OW11299   2.848   1.627   0.183 -0.5896  0.8292 -0.0123
 3467SOL    HW111300   2.895   1.543   0.210 -1.9349 -0.9769 -2.7621
 3467SOL    HW211301   2.904   1.676   0.117 -0.9458  0.6350 -0.4658
 3468SOL     OW11302   2.827   2.323   1.693  0.0650 -0.8635  0.0372
 3468SOL    HW111303   2.876   2.370   1.766  1.7903 -2.9434  0.2971
 3468SOL    HW211304   2.803   2.389   1.621  0.3990  0.7791  1.3716
 3469SOL     OW11305   5.047   0.059   6.806  0.2775 -0.1076  0.0546
 3469SOL    HW111306   5.002  -0.027   6.829  0.0862  0.2662  1.1155
 3469SOL    HW211307   5.146   0.047   6.811  0.2553 -0.3026  0.0514
 3470SOL     OW11308   2.287   2.244   6.863  0.3077 -0.3842  0.7101
 3470SOL    HW111309   2.189   2.246   6.845  0.0527 -1.1720  1.8746
 3470SOL    HW211310   2.324   2.337   6.855 -0.3155 -0.2372 -0.7464
 3471SOL     OW11311   5.656   1.732   5.441 -0.1553  0.2434  0.1242
 3471SOL    HW111312   5.616   1.809   5.393  1.9942  0.8756 -0.7751
 3471SOL    HW211313   5.603   1.713   5.524 -1.9924  1.2501 -0.7649
 3472SOL     OW11314   0.786   1.566   4.322 -0.6081 -0.1216 -0.1759
 3472SOL    HW111315   0.767   1.512   4.241 -0.6253 -0.6329  0.1677
 3472SOL    HW211316   0.880   1.549   4.353 -0.5664  0.1496 -0.1450
 3473SOL     OW11317   4.619   0.041   3.190 -0.2160  0.4617 -0.0239
 3473SOL    HW111318   4.685  -0.028   3.163  0.8008  0.2923  2.6360
 3473SOL    HW211319   4.527   0.001   3.191  0.1773 -0.4498  0.1330
 3474SOL     OW11320   4.928   4.350   4.053  0.3165  0.3729 -0.0358
 3474SOL    HW111321   4.848   4.386   4.004  0.3751 -0.9841 -1.2002
 3474SOL    HW211322   4.997   4.321   3.987  2.2612  2.4264  0.9503
 3475SOL     OW11323   1.001   4.458   5.195  0.7057  0.9525 -0.3407
 3475SOL    HW111324   0.947   4.491   5.117 -0.3787  0.6629  0.2706
 3475SOL    HW211325   0.953   4.382   5.238  2.2666 -0.2139 -0.5892
 3476SOL     OW11326   0.878   0.462   2.089  0.4572 -0.3770 -0.0694
 3476SOL    HW111327   0.831   0.446   2.002 -0.2117 -1.5875  0.4898
 3476SOL    HW211328   0.904   0.559   2.096 -2.6333  0.5477 -0.0813
 3477SOL     OW11329   1.924   5.740   0.759 -0.7596  0.3175 -0.0015
 3477SOL    HW111330   1.950   5.814   0.697  1.8257 -0.5634 -0.0873
 3477SOL    HW211331   1.939   5.652   0.714 -2.4742 -0.3219  0.5888
 3478SOL     OW11332   2.852   5.844   2.167  0.2244 -0.7082 -0.3604
 3478SOL    HW111333   2.788   5.774   2.136 -0.4451 -0.2407 -0.0652
 3478SOL    HW211334   2.855   5.843   2.267 -0.5901  0.3622 -0.3032
 3479SOL     OW11335   0.755   3.014   4.763 -0.0274 -0.0369  0.3013
 3479SOL    HW111336   0.735   3.012   4.861 -1.8706 -0.5555 -0.0382
 3479SOL    HW211337   0.746   3.108   4.729 -0.0371  0.0410  0.5159
 3480SOL     OW11338   2.252   4.650   6.567 -0.6749 -0.3279 -0.0757
 3480SOL    HW111339   2.169   4.636   6.513 -1.4540  0.5553  0.8538
 3480SOL    HW211340   2.227   4.674   6.661  0.5676  2.2005 -0.3039
 3481SOL     OW11341   6.848   1.484   4.828  0.3841  0.3825 -0.6360
 3481SOL    HW111342   6.888   1.557   4.772 -0.6790  0.7640 -0.9075
 3481SOL    HW211343   6.885   1.396   4.798 -0.7414  0.4886 -2.4806
 3482SOL     OW11344   6.534   2.134   0.626 -0.4167  0.0655 -0.0328
 3482SOL    HW111345   6.509   2.152   0.721 -0.8656 -0.5288 -0.0239
 3482SOL    HW211346   6.595   2.205   0.592  0.3175 -0.1012  0.9216
 3483SOL     OW11347   3.758   3.974   5.518  0.1730 -0.5975 -0.3715
 3483SOL    HW111348   3.827   3.937   5.582  0.4600  0.6625  0.0722
 3483SOL    HW211349   3.707   3.898   5.478  1.9781 -1.5959 -0.9011
 3484SOL     OW11350   0.703   3.429   4.961 -0.3244  0.3562 -0.0798
 3484SOL    HW111351   0.750   3.516   4.973  1.3284 -0.6139  0.9019
 3484SOL    HW211352   0.606   3.439   4.983 -0.1856  1.9462 -0.0913
 3485SOL     OW11353   6.971   3.452   6.507  0.2020 -0.6913  0.3859
 3485SOL    HW111354   7.069   3.437   6.522 -0.0742 -2.5745  0.5180
 3485SOL    HW211355   6.920   3.417   6.586 -0.5486  1.4525  0.9286
 3486SOL     OW11356   3.249   4.945   3.343  0.4700  0.0866  0.1644
 3486SOL    HW111357   3.322   4.881   3.320  0.6552  0.5283 -0.4916
 3486SOL    HW211358   3.250   5.022   3.279 -2.3474 -1.2818 -1.7674
 3487SOL     OW11359   4.256   0.865   1.753  0.1923 -0.0373 -0.6394
 3487SOL    HW111360   4.242   0.769   1.776 -0.1670  0.3597  0.8687
 3487SOL    HW211361   4.201   0.922   1.813 -0.8173  1.0810 -2.5183
 3488SOL     OW11362   4.795   0.267   6.243 -0.5519 -0.4656 -0.0670
 3488SOL    HW111363   4.801   0.168   6.249  0.3387 -0.4928 -1.1573
 3488SOL    HW211364   4.700   0.296   6.260 -0.8432 -1.5025  0.1229
 3489SOL     OW11365   2.796   6.073   3.346  0.0140 -0.3307 -0.1398
 3489SOL    HW111366   2.732   6.021   3.402 -0.0038  0.0306  0.1768
 3489SOL    HW211367   2.889   6.043   3.366  0.0160 -0.1267  0.1656
 3490SOL     OW11368   2.559   6.590   0.009 -0.7723  0.2003  0.0940
 3490SOL    HW111369   2.460   6.578   0.022 -0.8086  1.2068  0.9023
 3490SOL    HW211370   2.589   6.536  -0.070 -1.9472 -0.1858 -0.1153
 3491SOL     OW11371   4.511   5.064   4.573  0.3936  0.0580 -0.2657
 3491SOL    HW111372   4.596   5.015   4.558  1.6327  1.9944  0.0313
 3491SOL    HW211373   4.439   5.000   4.601  1.8899 -1.5426  0.0539
 3492SOL     OW11374   5.557   4.961   2.650  0.3876 -0.8130 -0.1950
 3492SOL    HW111375   5.584   5.051   2.616 -0.7213  0.3937  1.8947
 3492SOL    HW211376   5.480   4.926   2.597  0.7919 -0.5269 -0.9856
 3493SOL     OW11377   6.344   3.043   4.805  0.3087 -0.1173 -0.4086
 3493SOL    HW111378   6.347   3.027   4.707 -1.1560 -0.8511 -0.3513
 3493SOL    HW211379   6.287   3.123   4.825 -2.3008 -1.9820  0.0022
 3494SOL     OW11380   3.341   1.223   2.314 -0.4880  0.0121  0.5291
 3494SOL    HW111381   3.355   1.268   2.225 -1.0014 -0.1227  0.3724
 3494SOL    HW211382   3.246   1.191   2.320 -0.3884 -0.1983  1.0291
 3495SOL     OW11383   1.676   3.372   2.185 -0.4829 -0.3486 -0.1283
 3495SOL    HW111384   1.728   3.452   2.215 -0.9640 -0.4891  1.1513
 3495SOL    HW211385   1.735   3.292   2.183 -0.1117 -0.0680 -0.9598
 3496SOL     OW11386   5.364   4.764   2.188  0.4895 -0.0465 -0.3882
 3496SOL    HW111387   5.409   4.835   2.242 -2.4586  1.5230  0.2410
 3496SOL    HW211388   5.368   4.677   2.237  3.0121 -0.0931 -0.5407
 3497SOL     OW11389   2.705   6.728   2.896 -1.0137  0.2894  0.1000
 3497SOL    HW111390   2.766   6.664   2.943 -0.7217  0.0290 -0.6254
 3497SOL    HW211391   2.757   6.783   2.831 -1.3268  1.0222  0.4479
 3498SOL     OW11392   6.783   1.845   5.996  0.0109  0.0609  0.5779
 3498SOL    HW111393   6.848   1.855   5.920 -0.0452  0.9676  0.6353
 3498SOL    HW211394   6.727   1.927   6.002 -1.0004 -0.6271  0.6739
 3499SOL     OW11395   5.189   5.730   3.294  0.2208 -0.2879 -0.5003
 3499SOL    HW111396   5.092   5.705   3.303 -0.0419  0.4753 -1.0342
 3499SOL    HW211397   5.197   5.830   3.301  1.1487 -0.4475  0.9966
 3500SOL     OW11398   1.562   1.961   4.376  0.4107 -0.0284  0.0326
 3500SOL    HW111399   1.552   2.041   4.436 -1.7371  0.1873 -0.5272
 3500SOL    HW211400   1.595   1.990   4.287  1.2923 -0.0264  0.3478
 3501SOL     OW11401   1.557   1.163   5.726  0.1572 -0.3026 -0.2509
 3501SOL    HW111402   1.529   1.193   5.634  2.9887 -1.9018 -1.7846
 3501SOL    HW211403   1.656   1.176   5.737 -0.1915  0.4652  2.8958
 3502SOL     OW11404   5.655   2.567   2.829  0.3946  0.0051 -0.3264
 3502SOL    HW111405   5.601   2.625   2.890  1.6972 -1.1627  2.0824
 3502SOL    HW211406   5.631   2.471   2.846  1.8616 -0.4200 -0.5700
 3503SOL     OW11407   0.637   5.758   6.458  0.2004 -0.1032  0.3411
 3503SOL    HW111408   0.691   5.842   6.462  1.1658 -0.7357  1.0432
 3503SOL    HW211409   0.541   5.781   6.445  0.5014  1.0919  0.1013
 3504SOL     OW11410   1.191   0.412   6.726  0.7779  0.4510  0.2023
 3504SOL    HW111411   1.205   0.463   6.811  0.0342  1.1669 -0.0924
 3504SOL    HW211412   1.164   0.318   6.746  0.5495  0.6351  0.7486
 3505SOL     OW11413   4.338   2.785   6.028  0.0495 -0.1400  0.4544
 3505SOL    HW111414   4.257   2.735   5.998  1.0325 -0.9445 -1.0103
 3505SOL    HW211415   4.338   2.876   5.987 -0.5849  0.2262  1.2479
 3506SOL     OW11416   4.865   5.454   3.069  0.2360  0.4405  0.3416
 3506SOL    HW111417   4.849   5.406   3.156 -0.4183  0.8585  0.4538
 3506SOL    HW211418   4.935   5.405   3.017 -0.7149 -0.8824  0.2714
 3507SOL     OW11419   3.777   0.265   0.911  0.1193  0.7051  0.0925
 3507SOL    HW111420   3.748   0.251   0.816 -0.5503  1.1246  0.2261
 3507SOL    HW211421   3.877   0.268   0.916  0.1998 -0.5301 -0.4241
 3508SOL     OW11422   3.958   0.652   4.506  0.2717 -0.7627 -0.1804
 3508SOL    HW111423   3.958   0.602   4.593  0.2411  1.6145  1.2957
 3508SOL    HW211424   3.871   0.701   4.497 -0.0995 -1.7054 -2.0565
 3509SOL     OW11425   3.351   5.649   0.742  0.4631  0.1665 -0.3421
 3509SOL    HW111426   3.273   5.710   0.756  0.5929  0.4488 -0.8197
 3509SOL    HW211427   3.414   5.656   0.819 -0.5947 -1.0102  0.6770
 3510SOL     OW11428   2.465   1.809   6.570  0.3018 -0.4431  0.4938
 3510SOL    HW111429   2.402   1.887   6.573  0.0545 -0.6683  2.0932
 3510SOL    HW211430   2.525   1.818   6.491 -0.8732  0.4577 -0.3289
 3511SOL     OW11431   1.646   4.981   1.973  0.1199  0.0071 -0.2781
 3511SOL    HW111432   1.657   4.905   2.037 -1.9730  0.6074  0.9135
 3511SOL    HW211433   1.735   5.008   1.936  1.0286 -2.2464  0.1441
 3512SOL     OW11434   0.040   0.558   0.098  0.1538 -0.0564  0.2243
 3512SOL    HW111435   0.133   0.592   0.106  0.3049 -0.5790  0.7592
 3512SOL    HW211436  -0.000   0.548   0.189 -0.3125 -0.1452  0.0135
 3513SOL     OW11437   0.921   2.838   1.863 -0.0150  0.5097 -0.3825
 3513SOL    HW111438   1.016   2.846   1.833  0.4847 -0.5660  0.8579
 3513SOL    HW211439   0.904   2.902   1.938 -0.3559  0.8829 -0.7701
 3514SOL     OW11440   1.446   1.401   3.392  0.1749  0.7800  0.0204
 3514SOL    HW111441   1.445   1.482   3.451 -2.7702  1.4336 -0.7541
 3514SOL    HW211442   1.431   1.320   3.448  2.2043  0.8231  0.6902
 3515SOL     OW11443   6.508   4.714   3.140  0.3768  0.5505  0.1547
 3515SOL    HW111444   6.463   4.679   3.058 -3.9211  1.4816  1.8764
 3515SOL    HW211445   6.491   4.812   3.148 -0.2884  0.2867  2.6766
 3516SOL     OW11446   5.201   1.940   3.000  0.3191  0.1348  0.0868
 3516SOL    HW111447   5.103   1.956   2.989  0.2518 -0.7077 -0.6765
 3516SOL    HW211448   5.216   1.849   3.038  0.7978  0.4563  0.6873
 3517SOL     OW11449   4.358   2.442   6.843 -0.0952 -0.5839 -0.4798
 3517SOL    HW111450   4.292   2.442   6.918  0.4152 -1.4204 -0.0144
 3517SOL    HW211451   4.438   2.496   6.869 -0.6638  0.5932 -1.1197
 3518SOL     OW11452   6.035   0.915   3.276  0.5274  0.2034 -0.5806
 3518SOL    HW111453   5.989   0.842   3.226 -1.5771  0.7763  0.3791
 3518SOL    HW211454   6.108   0.877   3.333 -0.7646 -1.2246  0.1826
 3519SOL     OW11455   3.600   4.507   0.547 -0.2154 -0.4725 -0.2296
 3519SOL    HW111456   3.645   4.435   0.495  0.8312 -1.0811  1.4574
 3519SOL    HW211457   3.521   4.540   0.496  2.3754  1.0679 -3.6523
 3520SOL     OW11458   1.946   5.966   3.687 -0.0558 -0.1012 -0.8627
 3520SOL    HW111459   1.913   6.039   3.747 -1.5457 -0.8415 -0.7473
 3520SOL    HW211460   2.007   5.906   3.739 -0.9379 -0.4513 -0.1985
 3521SOL     OW11461   1.865   3.226   4.305 -0.3238  1.1777 -0.8303
 3521SOL    HW111462   1.774   3.264   4.323 -0.0852  1.6690 -0.6552
 3521SOL    HW211463   1.933   3.274   4.360  0.0151  0.6521 -0.7837
 3522SOL     OW11464   0.178   6.035   5.478  0.4662 -0.3229 -0.0466
 3522SOL    HW111465   0.223   6.124   5.469  1.6952 -0.8229  0.8380
 3522SOL    HW211466   0.239   5.963   5.443  0.3255 -1.0109  1.0596
 3523SOL     OW11467   1.592   4.770   6.920 -0.0408 -0.4391  0.1471
 3523SOL    HW111468   1.630   4.705   6.985  0.2016 -0.8451 -0.3921
 3523SOL    HW211469   1.542   4.842   6.969  0.9273 -0.2174  0.8310
 3524SOL     OW11470   4.905   2.441   4.923  0.2167  0.0945  0.1239
 3524SOL    HW111471   4.984   2.385   4.948 -0.8466 -1.5654 -0.0496
 3524SOL    HW211472   4.825   2.409   4.973 -0.6896  0.6506 -0.9317
 3525SOL     OW11473   6.379   3.396   3.565  0.3972 -0.3142 -0.0270
 3525SOL    HW111474   6.317   3.320   3.583 -0.2972 -0.0731 -1.3000
 3525SOL    HW211475   6.327   3.473   3.528  1.6789 -0.8064 -3.1812
 3526SOL     OW11476   1.517   6.344   2.625 -0.6866  0.6508 -0.2316
 3526SOL    HW111477   1.534   6.438   2.594 -0.4026  0.7746  0.2783
 3526SOL    HW211478   1.429   6.341   2.674 -1.8077  0.1755 -2.1807
 3527SOL     OW11479   6.180   3.370   4.112 -0.0268 -0.4496  0.0941
 3527SOL    HW111480   6.237   3.289   4.099  0.9330 -0.0048  1.4073
 3527SOL    HW211481   6.100   3.346   4.167 -0.1388 -0.6488 -0.1478
 3528SOL     OW11482   1.897   5.631   2.892  0.0086 -0.3035 -0.2672
 3528SOL    HW111483   1.897   5.609   2.990  0.0993  1.6534  0.2196
 3528SOL    HW211484   1.899   5.730   2.881 -0.8120 -0.4723 -2.2737
 3529SOL     OW11485   5.785   6.415   3.329  0.3481  0.4794 -0.0030
 3529SOL    HW111486   5.711   6.437   3.265 -0.2583  1.1391  0.8927
 3529SOL    HW211487   5.752   6.350   3.397  0.6228  0.6734  0.3212
 3530SOL     OW11488   5.447   1.367   0.484  0.2300  0.3248 -0.5493
 3530SOL    HW111489   5.450   1.322   0.573 -2.0628  0.2508 -0.4570
 3530SOL    HW211490   5.517   1.438   0.480 -0.2655  1.0093  1.7075
 3531SOL     OW11491   3.930   2.782   0.325 -0.0430 -0.0777  0.1602
 3531SOL    HW111492   3.833   2.802   0.340  0.0692  0.7394 -0.1428
 3531SOL    HW211493   3.982   2.804   0.407  0.2005  1.8261 -0.4393
 3532SOL     OW11494   2.772   0.371   2.957  0.5510 -0.4748  0.5051
 3532SOL    HW111495   2.725   0.451   2.994  1.0023 -1.1413  2.6581
 3532SOL    HW211496   2.748   0.291   3.012  1.8261 -1.3884 -0.2379
 3533SOL     OW11497   1.387   1.647   2.556 -0.1530 -0.7302 -0.0500
 3533SOL    HW111498   1.387   1.744   2.532  1.9052 -0.5824  0.3563
 3533SOL    HW211499   1.443   1.597   2.491 -1.7377 -1.8098 -0.6500
 3534SOL     OW11500   0.759   2.220   0.563 -0.1609 -0.1817 -0.0076
 3534SOL    HW111501   0.695   2.297   0.561  0.1343  0.1180  1.2434
 3534SOL    HW211502   0.842   2.244   0.512 -1.4486 -1.0198 -2.7357
 3535SOL     OW11503   3.794   5.544   4.506 -0.0528  0.1392 -0.0564
 3535SOL    HW111504   3.750   5.501   4.586 -1.7035 -0.1969 -1.0943
 3535SOL    HW211505   3.730   5.544   4.429  1.7574 -0.2380 -1.6307
 3536SOL     OW11506   3.676   1.358   2.536 -0.0023  0.2950 -0.3659
 3536SOL    HW111507   3.577   1.349   2.527  0.2408 -2.3963 -1.3311
 3536SOL    HW211508   3.698   1.379   2.632 -1.4687  0.5075 -0.0394
 3537SOL     OW11509   4.113   6.714   2.545 -0.5497  0.5455 -0.0356
 3537SOL    HW111510   4.068   6.786   2.492 -0.7052  0.5605  0.1158
 3537SOL    HW211511   4.198   6.688   2.500 -0.2105  1.2123  0.1971
 3538SOL     OW11512   4.358   5.658   4.178  0.0403  0.7246 -0.4033
 3538SOL    HW111513   4.396   5.591   4.242  0.5999  0.1367 -1.3343
 3538SOL    HW211514   4.383   5.633   4.085 -1.4813  1.1020 -0.9348
 3539SOL     OW11515   3.581   4.924   4.734  0.9629 -0.7917  0.6422
 3539SOL    HW111516   3.618   4.831   4.731  0.4379 -1.0103  0.8263
 3539SOL    HW211517   3.517   4.932   4.810  1.5619 -0.0606  1.0751
 3540SOL     OW11518   2.259   1.679   0.517  0.0266  0.0402  0.1255
 3540SOL    HW111519   2.294   1.773   0.508 -0.3056  0.2015  0.5103
 3540SOL    HW211520   2.263   1.634   0.428 -0.5612  0.6832 -0.2378
 3541SOL     OW11521   3.485   3.686   1.907 -0.1396 -0.4879 -0.1341
 3541SOL    HW111522   3.395   3.693   1.949 -0.1888 -0.1324 -0.2970
 3541SOL    HW211523   3.540   3.765   1.933 -0.3364 -0.0071 -1.1349
 3542SOL     OW11524   5.944   6.153   1.833 -0.2763 -0.6641  0.1792
 3542SOL    HW111525   5.959   6.231   1.895 -0.0478  1.0677 -1.9388
 3542SOL    HW211526   6.028   6.134   1.782 -1.0008 -0.7472 -1.0090
 3543SOL     OW11527   4.710   4.463   3.424 -0.3110  0.1171  0.3779
 3543SOL    HW111528   4.672   4.522   3.352  1.2937  1.2409  0.4110
 3543SOL    HW211529   4.657   4.475   3.508  0.3520  2.0079  0.5655
 3544SOL     OW11530   6.684   6.301   6.561 -0.6527 -0.6314 -0.7919
 3544SOL    HW111531   6.769   6.304   6.509  0.3931 -0.8411  0.8328
 3544SOL    HW211532   6.677   6.214   6.609 -0.8555  0.1174  0.5736
 3545SOL     OW11533   2.680   5.639   2.127 -0.7206  0.5075  0.4335
 3545SOL    HW111534   2.620   5.650   2.207 -3.3382 -2.2364 -0.9724
 3545SOL    HW211535   2.747   5.567   2.145 -1.8459 -0.6993 -0.0426
 3546SOL     OW11536   7.012   4.857   3.764  0.1367  0.5279 -0.6503
 3546SOL    HW111537   6.974   4.766   3.749  1.9826 -0.3923 -0.0510
 3546SOL    HW211538   7.030   4.900   3.675 -0.9810  0.4297 -0.9355
 3547SOL     OW11539   5.547   3.451   4.629  0.2229  0.4441 -0.5422
 3547SOL    HW111540   5.628   3.461   4.686 -0.6626  1.8070  0.5482
 3547SOL    HW211541   5.489   3.532   4.638 -0.0233  0.6870 -3.3438
 3548SOL     OW11542   6.214   3.226   5.157  0.3968  0.3817 -0.3988
 3548SOL    HW111543   6.220   3.279   5.072  1.1628  0.0839 -0.5395
 3548SOL    HW211544   6.142   3.157   5.149  0.5076  0.3124 -0.8351
 3549SOL     OW11545   6.959   4.061   2.438  0.7640  0.3222  0.0029
 3549SOL    HW111546   7.026   3.987   2.431  0.9497  0.2631  2.0023
 3549SOL    HW211547   6.939   4.095   2.346  3.4707  0.3052 -0.6872
 3550SOL     OW11548   4.473   0.830   5.741  0.2673 -0.6055 -0.0466
 3550SOL    HW111549   4.441   0.740   5.774 -1.4045  0.4760  1.4819
 3550SOL    HW211550   4.440   0.844   5.648  0.5971 -1.5795 -0.3312
 3551SOL     OW11551   4.313   5.958   3.230 -0.2074  0.1759 -0.3588
 3551SOL    HW111552   4.252   5.979   3.153 -0.6323 -1.2501 -0.4540
 3551SOL    HW211553   4.265   5.898   3.295 -0.1821  2.0985  1.5396
 3552SOL     OW11554   4.836   3.312   3.977 -0.0764  0.1528 -0.0517
 3552SOL    HW111555   4.814   3.407   3.999 -0.0665  0.2935 -0.6373
 3552SOL    HW211556   4.833   3.299   3.878  1.0220 -0.1793 -0.0549
 3553SOL     OW11557   6.925   1.228   2.499  0.1027 -0.4123  0.1410
 3553SOL    HW111558   7.009   1.270   2.533 -1.4760  1.0180  2.6384
 3553SOL    HW211559   6.921   1.133   2.528  0.6252 -0.3474  0.4366
 3554SOL     OW11560   5.017   6.147   1.715 -0.0645  0.0368  0.1279
 3554SOL    HW111561   4.920   6.133   1.738 -0.0429 -0.0442  0.1695
 3554SOL    HW211562   5.024   6.209   1.637 -0.1182  0.7747  0.7083
 3555SOL     OW11563   5.915   1.057   3.864 -0.4079  0.4478 -0.2361
 3555SOL    HW111564   5.878   0.964   3.851 -1.8020  1.0482 -0.7971
 3555SOL    HW211565   5.920   1.103   3.776  0.5798  0.8174 -0.0004
 3556SOL     OW11566   3.547   1.615   5.819  0.5025 -0.2524  0.2784
 3556SOL    HW111567   3.473   1.627   5.754  1.7412  0.9315 -0.9821
 3556SOL    HW211568   3.589   1.703   5.839  0.7793 -0.7275  1.9554
 3557SOL     OW11569   6.769   1.090   3.980  0.0145 -0.2833  0.0742
 3557SOL    HW111570   6.686   1.137   4.011 -0.2766 -0.4303 -0.4702
 3557SOL    HW211571   6.848   1.149   3.994 -0.2582  0.0917  0.0399
 3558SOL     OW11572   1.784   4.082   3.539  0.3425  0.2701  0.9031
 3558SOL    HW111573   1.864   4.050   3.589  1.1976  2.1279  0.8008
 3558SOL    HW211574   1.718   4.120   3.603 -0.1442 -0.5467  0.9086
 3559SOL     OW11575   1.331   2.077   5.130 -0.2406  0.4974  0.0763
 3559SOL    HW111576   1.378   1.989   5.118  0.1234  0.7589 -0.4338
 3559SOL    HW211577   1.264   2.069   5.204  0.0238 -0.1156  0.2540
 3560SOL     OW11578   0.108   0.449   1.230  0.2971  0.5693  0.1789
 3560SOL    HW111579   0.153   0.533   1.262  0.5460  0.1090  1.0642
 3560SOL    HW211580   0.174   0.395   1.178  0.0729  1.0197 -0.5875
 3561SOL     OW11581   3.841   5.283   2.787 -0.0569  0.1497 -0.0870
 3561SOL    HW111582   3.790   5.313   2.707 -0.0319 -0.3138 -0.2804
 3561SOL    HW211583   3.928   5.333   2.792 -0.2555  0.4997 -0.0970
 3562SOL     OW11584   4.780   2.951   3.153 -0.3706  0.3397 -0.2446
 3562SOL    HW111585   4.820   3.042   3.157 -0.3053  0.3839 -1.4671
 3562SOL    HW211586   4.689   2.953   3.193  0.5893  0.3549  2.0636
 3563SOL     OW11587   1.223   6.404   2.347 -0.7132 -0.5914 -0.2496
 3563SOL    HW111588   1.157   6.436   2.415  0.0419  0.6871 -0.0751
 3563SOL    HW211589   1.282   6.335   2.388 -0.8218 -0.4586  0.1429
 3564SOL     OW11590   0.362   5.411   2.256  0.1571 -0.4143 -0.4330
 3564SOL    HW111591   0.404   5.499   2.278  0.4531 -0.5962 -0.2628
 3564SOL    HW211592   0.276   5.427   2.208  0.0254 -0.0231 -0.0804
 3565SOL     OW11593   2.262   1.202   5.332  0.3887  0.2647 -0.2289
 3565SOL    HW111594   2.321   1.246   5.400  1.0122 -0.8022 -0.0591
 3565SOL    HW211595   2.166   1.222   5.354  0.5657 -0.2651  1.1142
 3566SOL     OW11596   1.923   5.993   6.086  0.4686  0.4165  0.3960
 3566SOL    HW111597   2.012   6.026   6.116  0.4276 -0.1408  1.1558
 3566SOL    HW211598   1.931   5.898   6.056  0.2714  0.5960 -0.2368
 3567SOL     OW11599   1.480   4.381   1.968  0.0606  0.3852 -0.0020
 3567SOL    HW111600   1.540   4.335   2.033 -0.5033  0.8254  0.8445
 3567SOL    HW211601   1.488   4.337   1.878  0.3389 -0.6624  0.5247
 3568SOL     OW11602   4.982   5.360   3.727  0.4730 -0.0461  0.6664
 3568SOL    HW111603   4.901   5.418   3.717 -0.0670 -0.8650  0.1991
 3568SOL    HW211604   5.037   5.365   3.643 -0.1996 -1.1233  0.1382
 3569SOL     OW11605   3.224   3.230   4.463 -0.1054  0.2134  0.2151
 3569SOL    HW111606   3.175   3.207   4.379  1.4970  1.0217 -1.0084
 3569SOL    HW211607   3.217   3.155   4.528 -0.2618 -1.0078 -1.1693
 3570SOL     OW11608   0.402   2.221   5.365 -0.9032 -0.1084  0.6552
 3570SOL    HW111609   0.438   2.274   5.442 -0.9749 -1.4725  1.6454
 3570SOL    HW211610   0.444   2.254   5.280  0.8608 -0.0543  1.5149
 3571SOL     OW11611   3.916   0.338   3.575  0.1916 -0.2709  0.4455
 3571SOL    HW111612   3.934   0.343   3.673  1.0541 -1.7906  0.3881
 3571SOL    HW211613   3.994   0.377   3.525  0.3141 -0.6398  0.3456
 3572SOL     OW11614   5.784   4.046   2.484 -0.1430  0.7122  0.2458
 3572SOL    HW111615   5.689   4.043   2.452  0.2271  1.4334 -0.9853
 3572SOL    HW211616   5.787   4.088   2.575 -0.8023  2.8366 -0.6526
 3573SOL     OW11617   1.276   5.167   4.327  0.0298  0.0991 -0.0062
 3573SOL    HW111618   1.275   5.068   4.340 -2.3756  0.0702 -0.0486
 3573SOL    HW211619   1.216   5.192   4.251  0.8224  1.5890 -0.1895
 3574SOL     OW11620   1.473   1.879   0.989 -0.0186  0.3763 -0.5432
 3574SOL    HW111621   1.376   1.858   0.979  0.0977  0.3855 -1.8808
 3574SOL    HW211622   1.499   1.872   1.085 -0.5837 -3.0664 -0.4880
 3575SOL     OW11623   4.037   0.561   0.277  0.8812 -0.5694  0.0472
 3575SOL    HW111624   4.100   0.595   0.207  0.7654  0.3894  0.3919
 3575SOL    HW211625   4.055   0.464   0.294  0.8450 -0.8400 -1.3721
 3576SOL     OW11626   6.427   3.385   6.306 -0.1201  0.3042  0.1284
 3576SOL    HW111627   6.517   3.344   6.288  0.6229  0.3893  3.0711
 3576SOL    HW211628   6.431   3.483   6.288  0.1593  0.2024 -0.3935
 3577SOL     OW11629   0.316   2.611   5.747  0.3848 -0.6176 -0.0259
 3577SOL    HW111630   0.378   2.617   5.668 -0.3800 -1.6953 -0.7451
 3577SOL    HW211631   0.227   2.650   5.723  1.0656  1.9633  1.3725
 3578SOL     OW11632   3.801   1.295   0.492 -0.5569 -0.6699  0.3345
 3578SOL    HW111633   3.775   1.293   0.395  0.3877 -1.7097  0.0827
 3578SOL    HW211634   3.882   1.352   0.504 -0.3700 -0.9581  0.4376
 3579SOL     OW11635   1.255   3.047   2.873  0.2768  0.4928 -0.4239
 3579SOL    HW111636   1.180   3.026   2.810  0.1965  1.3847 -0.6319
 3579SOL    HW211637   1.229   3.122   2.934  0.6786  0.2226  0.0967
 3580SOL     OW11638   1.381   5.135   0.359 -0.5183  0.1737  0.5627
 3580SOL    HW111639   1.465   5.083   0.345 -0.8187 -0.2629  0.3715
 3580SOL    HW211640   1.355   5.132   0.455 -0.3887  0.1934  0.5979
 3581SOL     OW11641   2.510   0.328   2.613 -0.4149 -0.3135 -0.0025
 3581SOL    HW111642   2.469   0.411   2.576 -0.1218  0.0097  0.3960
 3581SOL    HW211643   2.439   0.258   2.626 -0.5766 -0.3076 -0.8273
 3582SOL     OW11644   3.925   5.388   0.748 -0.2562  0.2065  0.4246
 3582SOL    HW111645   3.989   5.339   0.808 -0.7018 -1.3539 -0.3249
 3582SOL    HW211646   3.904   5.478   0.788 -0.3087 -0.6489  2.4438
 3583SOL     OW11647   0.737   5.230   0.881 -0.4536 -0.1013  0.6993
 3583SOL    HW111648   0.788   5.313   0.904  2.1137 -1.7135  1.2536
 3583SOL    HW211649   0.653   5.227   0.935 -0.7187  2.1839  0.5287
 3584SOL     OW11650   5.026   5.142   5.548  0.3755  0.7081 -0.1270
 3584SOL    HW111651   5.009   5.052   5.586 -0.5932  1.4962  1.4082
 3584SOL    HW211652   5.108   5.140   5.491  1.1384 -0.8113  0.9723
 3585SOL     OW11653   3.347   2.118   5.202 -0.0228  0.2295  0.6041
 3585SOL    HW111654   3.345   2.165   5.291  0.1997  1.0554  0.1753
 3585SOL    HW211655   3.282   2.162   5.140 -2.2739 -2.0527  1.1851
 3586SOL     OW11656   5.676   1.907   4.893  0.2378 -0.2998 -0.1351
 3586SOL    HW111657   5.623   1.851   4.956 -1.1201  1.0042 -0.0628
 3586SOL    HW211658   5.696   1.854   4.811 -0.2033 -1.1756  0.2999
 3587SOL     OW11659   3.960   1.688   3.983  0.6670  0.4131  0.5929
 3587SOL    HW111660   4.025   1.614   3.998  2.3039  1.4301 -0.9908
 3587SOL    HW211661   3.947   1.702   3.884 -0.9107  1.1478  0.8719
 3588SOL     OW11662   6.065   4.681   5.513  0.3992 -0.8342 -0.7571
 3588SOL    HW111663   6.040   4.690   5.416  1.1408 -0.6610 -0.9385
 3588SOL    HW211664   5.983   4.694   5.569  0.0552 -0.4158 -1.3379
 3589SOL     OW11665   3.246   6.364   5.363 -0.0912  0.3063  0.1287
 3589SOL    HW111666   3.223   6.388   5.269  1.4964 -0.0838 -0.3956
 3589SOL    HW211667   3.337   6.400   5.385 -1.2370  2.1035  2.1967
 3590SOL     OW11668   1.260   6.289   5.594 -0.1515 -0.2205 -0.1479
 3590SOL    HW111669   1.346   6.269   5.548  1.1694  0.2381  1.9566
 3590SOL    HW211670   1.188   6.229   5.559  1.1830 -1.1212 -1.4599
 3591SOL     OW11671   4.333   0.315   0.109 -0.1713  0.4217  0.4423
 3591SOL    HW111672   4.295   0.327   0.017  0.5582 -0.9795 -0.0809
 3591SOL    HW211673   4.270   0.354   0.177 -0.9741  1.0068 -0.6078
 3592SOL     OW11674   1.356   6.110   2.086  0.1911 -0.2595  0.4573
 3592SOL    HW111675   1.376   6.014   2.100  0.0686 -0.2576  0.6534
 3592SOL    HW211676   1.262   6.120   2.052  0.2425 -0.2157  0.3249
 3593SOL     OW11677   3.366   3.878   4.655 -0.1723  0.2413  0.3096
 3593SOL    HW111678   3.356   3.877   4.755  1.6158  0.7728  0.5350
 3593SOL    HW211679   3.463   3.869   4.632 -0.1840  3.1198 -1.2682
 3594SOL     OW11680   4.998   5.502   3.450 -0.2006 -0.1001 -0.1215
 3594SOL    HW111681   4.905   5.466   3.443  0.3622 -1.6113 -0.0688
 3594SOL    HW211682   5.062   5.439   3.405  0.8085  0.9274 -0.1780
 3595SOL     OW11683   0.513   4.663   4.382 -0.0671 -0.1704  0.8473
 3595SOL    HW111684   0.546   4.646   4.475 -0.3276 -0.5071  0.8804
 3595SOL    HW211685   0.566   4.608   4.318 -0.1947 -0.2890  0.8438
 3596SOL     OW11686   3.892   0.765   4.118  0.0364  0.0194 -0.1849
 3596SOL    HW111687   3.965   0.826   4.149  1.7141 -2.1638  0.4370
 3596SOL    HW211688   3.811   0.819   4.096  0.6486  2.2553  2.4696
 3597SOL     OW11689   2.523   4.327   6.685  0.8748  0.5168 -0.2791
 3597SOL    HW111690   2.465   4.248   6.665  1.9745  0.1019 -2.0533
 3597SOL    HW211691   2.598   4.299   6.744  1.5125  0.1084 -1.2652
 3598SOL     OW11692   0.427   6.264   3.867  0.6936  0.5622 -0.4974
 3598SOL    HW111693   0.422   6.342   3.804 -0.6473  0.9862  0.0958
 3598SOL    HW211694   0.482   6.289   3.946 -0.5793  1.2998  0.1829
 3599SOL     OW11695   2.960   1.192   4.212 -0.0816 -0.5201 -0.2879
 3599SOL    HW111696   3.014   1.274   4.229  1.1067 -0.6816 -2.8423
 3599SOL    HW211697   2.863   1.214   4.221  0.2570  0.8679  0.2107
 3600SOL     OW11698   2.437   2.764   5.207  0.4150 -0.7097 -0.4208
 3600SOL    HW111699   2.474   2.855   5.190  0.4458 -0.0506  2.6426
 3600SOL    HW211700   2.367   2.743   5.139 -1.0071  2.4428 -0.0765
 3601SOL     OW11701   6.140   0.695   6.795  0.1800  0.2083 -0.0338
 3601SOL    HW111702   6.122   0.710   6.892  0.1917  2.4370 -0.3353
 3601SOL    HW211703   6.057   0.661   6.750  0.5242 -2.1161  0.9294
 3602SOL     OW11704   1.932   2.883   0.884  0.0976  0.0795 -0.2254
 3602SOL    HW111705   1.966   2.850   0.972  3.7613  0.0470 -1.4581
 3602SOL    HW211706   1.977   2.970   0.862  0.3207 -0.5724 -2.6023
 3603SOL     OW11707   2.687   2.355   5.703  0.0306 -0.6601  0.2298
 3603SOL    HW111708   2.601   2.325   5.745 -0.0964  1.9449  2.0591
 3603SOL    HW211709   2.764   2.314   5.751 -0.1468 -1.9718 -0.5700
 3604SOL     OW11710   1.685   0.797   4.314 -0.0383  0.3625  0.0209
 3604SOL    HW111711   1.763   0.739   4.337 -0.3994  0.4793  1.6627
 3604SOL    HW211712   1.717   0.881   4.271  0.9526  1.3093  2.4854
 3605SOL     OW11713   6.497   0.531   4.807 -0.0614  0.4050  0.4521
 3605SOL    HW111714   6.490   0.573   4.716  1.9643  0.9756  0.5239
 3605SOL    HW211715   6.522   0.435   4.797 -2.2922 -0.2268  0.3748
 3606SOL     OW11716   3.445   0.984   2.727 -0.3930 -0.4337 -0.1139
 3606SOL    HW111717   3.345   0.995   2.730 -0.2714  3.4906 -2.8232
 3606SOL    HW211718   3.470   0.921   2.653 -0.7738 -2.1445  1.1497
 3607SOL     OW11719   0.440   0.953   4.433 -0.4781  0.0986  0.1712
 3607SOL    HW111720   0.461   0.919   4.341 -0.3779 -0.0702  0.2549
 3607SOL    HW211721   0.342   0.971   4.441 -0.3888  0.7536 -0.1795
 3608SOL     OW11722   4.688   2.266   3.716 -0.1383 -0.7206 -0.1137
 3608SOL    HW111723   4.760   2.336   3.723 -0.8538 -0.0816  1.1814
 3608SOL    HW211724   4.606   2.307   3.676 -0.0424 -1.2657 -0.8987
 3609SOL     OW11725   1.985   1.789   5.638  0.0210  0.5005  0.2602
 3609SOL    HW111726   1.995   1.691   5.654 -1.9676  0.3063  0.4934
 3609SOL    HW211727   2.018   1.811   5.546  1.8867 -0.0907  0.7314
 3610SOL     OW11728   1.215   1.883   5.625 -0.2021  0.0114 -0.0216
 3610SOL    HW111729   1.234   1.951   5.555  1.4192  0.2965  0.6270
 3610SOL    HW211730   1.299   1.866   5.677 -1.4402  0.1711  2.1481
 3611SOL     OW11731   6.677   3.302   2.813 -0.6406  0.5671 -0.4373
 3611SOL    HW111732   6.775   3.319   2.798 -0.4167 -0.8450 -0.7380
 3611SOL    HW211733   6.651   3.339   2.902  0.3505  0.3095 -0.0192
 3612SOL     OW11734   4.343   2.285   2.314 -0.2467  0.0467  0.2071
 3612SOL    HW111735   4.381   2.276   2.222 -2.4803  3.1286 -1.1850
 3612SOL    HW211736   4.272   2.215   2.327  0.6692 -0.9509 -0.0413
 3613SOL     OW11737   3.805   6.793   2.260  0.1770  0.0278  0.5550
 3613SOL    HW111738   3.808   6.768   2.163 -0.2724  1.5072  0.1268
 3613SOL    HW211739   3.882   6.854   2.281 -1.4235  2.2546  0.3146
 3614SOL     OW11740   1.792   5.177   5.927 -0.1908  0.0842 -0.5299
 3614SOL    HW111741   1.693   5.178   5.909  0.1521 -0.8736 -2.8224
 3614SOL    HW211742   1.816   5.094   5.976 -0.6393  0.9100  1.1773
 3615SOL     OW11743   4.219   1.157   1.096 -0.2029  0.4554  0.0327
 3615SOL    HW111744   4.260   1.087   1.154 -0.5023 -0.4131 -0.7637
 3615SOL    HW211745   4.286   1.187   1.028  0.7426  2.7893  1.8950
 3616SOL     OW11746   6.069   4.853   0.275  0.2292  0.0297 -0.4027
 3616SOL    HW111747   6.124   4.929   0.308  0.5636  0.0689 -1.0459
 3616SOL    HW211748   5.973   4.868   0.301  0.2068  0.9223 -0.9570
 3617SOL     OW11749   3.617   4.563   5.340  0.0954 -0.1960 -0.1637
 3617SOL    HW111750   3.703   4.520   5.313 -0.6358 -0.7378 -1.7584
 3617SOL    HW211751   3.636   4.642   5.398  1.5343 -1.7175  1.5822
 3618SOL     OW11752   0.444   4.149   3.997 -0.0019 -0.5189  0.4324
 3618SOL    HW111753   0.402   4.095   3.924 -1.4761  0.6372  0.3807
 3618SOL    HW211754   0.390   4.140   4.080 -0.4698  1.1151  0.3298
 3619SOL     OW11755   5.947   1.811   3.785 -0.3705 -0.2045  0.0916
 3619SOL    HW111756   5.849   1.813   3.804  0.0586 -1.8631  2.9474
 3619SOL    HW211757   5.996   1.857   3.858  1.0450  0.5363 -1.2665
 3620SOL     OW11758   6.911   6.589   6.151  0.1034 -0.2506  0.0898
 3620SOL    HW111759   6.862   6.522   6.207 -0.8292  0.5002  0.1854
 3620SOL    HW211760   6.944   6.545   6.067  0.1396 -0.9955  0.4815
 3621SOL     OW11761   3.687   3.258   2.843  0.6630 -0.3869 -0.0720
 3621SOL    HW111762   3.769   3.238   2.895  1.3315 -1.0074 -1.3004
 3621SOL    HW211763   3.690   3.208   2.756 -0.4449  0.5266 -0.6666
 3622SOL     OW11764   2.765   5.354   0.429  0.1287  0.4166 -0.1882
 3622SOL    HW111765   2.816   5.439   0.438 -2.2133  2.0320 -1.1387
 3622SOL    HW211766   2.768   5.323   0.334 -2.9663  2.2435 -1.0375
 3623SOL     OW11767   0.712   4.068   0.096 -0.4173 -0.0308  0.0127
 3623SOL    HW111768   0.681   4.163   0.100  0.9055  0.3933  0.9306
 3623SOL    HW211769   0.654   4.012   0.156 -0.4756  0.4184  0.3847
 3624SOL     OW11770   1.343   2.972   1.709  0.4215 -0.7934 -0.2917
 3624SOL    HW111771   1.259   2.960   1.656  1.4150 -0.0941 -2.0905
 3624SOL    HW211772   1.418   2.922   1.666  1.5891  0.9895 -0.4147
 3625SOL     OW11773   0.332   0.942   2.855  0.7193  0.1470 -0.0448
 3625SOL    HW111774   0.408   0.995   2.818  1.2782 -0.2546  0.5029
 3625SOL    HW211775   0.260   1.004   2.887  2.4677  0.8250  3.0575
 3626SOL     OW11776   0.826   0.947   4.743  0.0192  0.2360 -0.1201
 3626SOL    HW111777   0.918   0.933   4.780  0.5968 -0.0938 -1.6138
 3626SOL    HW211778   0.762   0.964   4.818  1.2754  0.3827  0.9533
 3627SOL     OW11779   4.740   0.451   3.509  0.0368  0.1596 -0.4935
 3627SOL    HW111780   4.672   0.475   3.440 -0.7679  0.5702  0.4214
 3627SOL    HW211781   4.694   0.414   3.590  0.7431  1.6748  0.6682
 3628SOL     OW11782   1.194   3.425   6.753  0.1970  0.2259  0.2104
 3628SOL    HW111783   1.197   3.333   6.713 -0.6067 -0.0511  0.7673
 3628SOL    HW211784   1.213   3.420   6.851 -3.1158  0.1553  0.9708
 3629SOL     OW11785   1.973   0.217   4.856 -0.1324  0.4445  0.4350
 3629SOL    HW111786   1.966   0.167   4.770 -0.0483  1.0613  0.0640
 3629SOL    HW211787   1.962   0.315   4.839  0.8007  0.6648  0.9926
 3630SOL     OW11788   6.649   3.418   1.703  0.5607  0.3413  0.5216
 3630SOL    HW111789   6.558   3.380   1.687  0.9034 -1.7355  2.8670
 3630SOL    HW211790   6.643   3.518   1.709 -1.2800  0.3611 -0.7541
 3631SOL     OW11791   2.927   0.720   1.116  0.5521  0.0032  0.5737
 3631SOL    HW111792   2.993   0.755   1.050  1.0058 -0.7205  0.6286
 3631SOL    HW211793   2.835   0.751   1.091  0.9408  1.2642  0.6675
 3632SOL     OW11794   5.285   3.359   2.173 -0.4998 -0.3766  0.2672
 3632SOL    HW111795   5.382   3.335   2.178 -0.1916 -0.3407 -3.2973
 3632SOL    HW211796   5.274   3.456   2.198  0.5865 -0.0520 -0.4409
 3633SOL     OW11797   3.086   3.941   0.524 -0.0961  0.1483  0.1106
 3633SOL    HW111798   3.132   3.966   0.610  0.7120  0.5535 -0.4326
 3633SOL    HW211799   3.100   4.013   0.456 -1.4517  0.2284 -0.1097
 3634SOL     OW11800   3.968   1.066   6.724  0.5995 -0.4135 -0.4687
 3634SOL    HW111801   3.932   1.090   6.634 -0.2256 -1.6044 -0.4752
 3634SOL    HW211802   3.989   1.150   6.775 -2.4712  0.3937 -0.3563
 3635SOL     OW11803   1.360   4.273   3.517  0.4319  0.0176 -0.0009
 3635SOL    HW111804   1.457   4.289   3.500  0.1824  1.5755 -0.0399
 3635SOL    HW211805   1.328   4.333   3.590 -0.8944  0.8051 -1.1851
 3636SOL     OW11806   0.122   5.497   6.538  0.2924  0.0052  0.2614
 3636SOL    HW111807   0.098   5.435   6.464  3.1614 -0.5512 -0.3359
 3636SOL    HW211808   0.049   5.563   6.552 -0.7571 -0.4694 -2.4079
 3637SOL     OW11809   6.957   1.715   0.340  0.2981  0.2221 -0.0853
 3637SOL    HW111810   6.996   1.640   0.285  1.3902  0.7296 -0.0424
 3637SOL    HW211811   7.031   1.762   0.389 -0.5040  0.6319  0.7636
 3638SOL     OW11812   1.492   3.525   3.947  0.0889 -0.7285  0.3333
 3638SOL    HW111813   1.533   3.445   3.904 -0.9568 -2.2476  2.0533
 3638SOL    HW211814   1.398   3.535   3.918  0.1346 -0.2759  0.3294
 3639SOL     OW11815   3.457   3.220   3.020 -0.0483 -0.4606  0.1258
 3639SOL    HW111816   3.451   3.282   3.099  0.3465 -1.5932  1.0800
 3639SOL    HW211817   3.546   3.232   2.976 -0.3028  0.2384 -0.2133
 3640SOL     OW11818   3.948   0.478   2.485 -0.1359  0.3877  0.1920
 3640SOL    HW111819   4.002   0.550   2.527  2.9519 -1.8224  0.3160
 3640SOL    HW211820   3.870   0.519   2.438  1.0958  3.7047  0.7393
 3641SOL     OW11821   6.848   4.583   2.477  0.1238 -0.0853 -0.1111
 3641SOL    HW111822   6.921   4.651   2.469  0.3785 -0.2875  0.4772
 3641SOL    HW211823   6.771   4.622   2.526  0.9074 -0.7155  1.6805
 3642SOL     OW11824   3.964   2.552   6.844 -0.1911  0.4306  0.5971
 3642SOL    HW111825   4.015   2.631   6.811 -0.4957  1.0813  1.6331
 3642SOL    HW211826   3.882   2.583   6.892  0.9872 -0.3566  3.2933
 3643SOL     OW11827   4.133   4.462   6.346 -0.0826 -0.3953  0.4479
 3643SOL    HW111828   4.060   4.397   6.325  0.9926 -1.4114 -0.2506
 3643SOL    HW211829   4.103   4.554   6.324 -1.8676 -0.5293  2.0160
 3644SOL     OW11830   3.055   0.906   1.653 -0.4327 -0.5791 -0.0938
 3644SOL    HW111831   3.039   0.917   1.751 -1.7141 -0.2004 -0.3157
 3644SOL    HW211832   2.991   0.839   1.616  0.5235 -1.2561 -0.5557
 3645SOL     OW11833   1.983   4.189   4.343 -0.0566 -0.0643 -0.5178
 3645SOL    HW111834   1.984   4.249   4.422 -0.9248 -1.7199  0.8009
 3645SOL    HW211835   1.920   4.225   4.274 -2.5679 -0.6952  1.3069
 3646SOL     OW11836   2.777   6.146   0.469 -0.5043 -0.4588 -0.1897
 3646SOL    HW111837   2.711   6.203   0.420 -1.8837 -0.5108  1.4938
 3646SOL    HW211838   2.730   6.067   0.508  0.4401 -0.2758  1.4323
 3647SOL     OW11839   2.956   0.322   2.177  0.0763 -0.0536  0.7377
 3647SOL    HW111840   2.995   0.236   2.144 -0.3164  0.1409 -0.2854
 3647SOL    HW211841   2.947   0.319   2.277  1.1597 -0.7261  0.8252
 3648SOL     OW11842   3.625   5.132   2.363 -0.3266  0.4162 -0.2615
 3648SOL    HW111843   3.602   5.059   2.428 -1.4026  0.1784 -0.8920
 3648SOL    HW211844   3.723   5.151   2.368 -0.1492 -0.5950  0.3998
 3649SOL     OW11845   4.859   3.385   0.748 -0.1968  0.1539 -0.0902
 3649SOL    HW111846   4.898   3.319   0.813 -0.5531 -1.6170 -1.6025
 3649SOL    HW211847   4.864   3.477   0.788  1.9607 -0.4981  1.3595
 3650SOL     OW11848   6.365   4.739   6.269 -0.2861 -0.7424 -0.0791
 3650SOL    HW111849   6.366   4.668   6.198  1.1956 -0.0853 -0.7533
 3650SOL    HW211850   6.442   4.725   6.331 -0.9919 -0.7191  0.8098
 3651SOL     OW11851   1.592   2.703   6.362 -0.3009  0.8190 -0.5655
 3651SOL    HW111852   1.603   2.615   6.316  1.4670  0.4477  0.4663
 3651SOL    HW211853   1.571   2.773   6.294 -1.9480 -0.3852 -1.3913
 3652SOL     OW11854   4.978   2.193   2.949 -0.4271  0.0269 -0.1029
 3652SOL    HW111855   4.931   2.249   2.880 -1.9931 -1.3438 -0.2169
 3652SOL    HW211856   4.974   2.239   3.037  0.3434  1.1399 -0.6232
 3653SOL     OW11857   1.392   6.731   1.182  0.3566  0.0683  0.1085
 3653SOL    HW111858   1.303   6.703   1.218 -0.0144 -1.1032 -1.6093
 3653SOL    HW211859   1.449   6.765   1.257 -1.4389  0.6348  1.2697
 3654SOL     OW11860   5.264   0.373   2.269 -0.7010 -0.6068  0.0089
 3654SOL    HW111861   5.292   0.466   2.246  1.2525 -0.7076  1.7340
 3654SOL    HW211862   5.181   0.376   2.326 -0.5125  0.0844  0.2527
 3655SOL     OW11863   1.837   6.525   2.830 -0.1858 -0.6301  0.0166
 3655SOL    HW111864   1.847   6.441   2.776  0.6014 -1.3858  1.2959
 3655SOL    HW211865   1.740   6.541   2.848 -0.2680 -2.3077  1.2915
 3656SOL     OW11866   1.654   0.253   1.066 -0.0440 -0.4919 -0.4022
 3656SOL    HW111867   1.652   0.264   0.967 -1.9253  2.4792 -0.1727
 3656SOL    HW211868   1.721   0.316   1.105 -0.6665 -0.2456  0.3006
 3657SOL     OW11869   4.707   6.434   5.719 -0.0815  0.1433 -0.0394
 3657SOL    HW111870   4.721   6.335   5.710  0.2362  0.0989  0.8533
 3657SOL    HW211871   4.614   6.452   5.752 -1.1077  0.2900 -2.7477
 3658SOL     OW11872   2.230   4.807   4.881  0.2831  0.4413  0.1053
 3658SOL    HW111873   2.323   4.836   4.903  0.3476  0.6101 -0.3725
 3658SOL    HW211874   2.230   4.756   4.795 -0.1822  1.2075 -0.3645
 3659SOL     OW11875   0.608   1.581   1.118  0.6617 -0.4073  0.2454
 3659SOL    HW111876   0.584   1.674   1.145  0.0664 -0.1010 -1.2527
 3659SOL    HW211877   0.528   1.521   1.130 -0.0021 -0.0180 -1.8658
 3660SOL     OW11878   3.743   6.880   3.635  0.1634  0.6072 -0.2296
 3660SOL    HW111879   3.672   6.944   3.606 -0.3679 -0.0134 -0.3471
 3660SOL    HW211880   3.793   6.846   3.555  0.5987  1.0501 -0.1459
 3661SOL     OW11881   1.477   1.953   5.381  0.0323 -0.0019  0.3443
 3661SOL    HW111882   1.411   2.026   5.361 -0.2424 -0.0192  1.1647
 3661SOL    HW211883   1.500   1.955   5.478  1.9613  0.5907 -0.0884
 3662SOL     OW11884   4.108   3.222   5.083 -0.0106 -0.3796 -0.4729
 3662SOL    HW111885   4.119   3.136   5.034  1.7747 -0.4188 -0.0661
 3662SOL    HW211886   4.118   3.206   5.182  1.4447  0.4177 -0.4534
 3663SOL     OW11887   2.045   1.815   0.196  0.4515  0.4457  0.3025
 3663SOL    HW111888   1.983   1.749   0.153  0.3547 -0.3865  1.6795
 3663SOL    HW211889   2.122   1.832   0.134  0.0899 -0.3772 -0.4028
 3664SOL     OW11890   2.233   3.007   0.003 -0.1599 -0.0146  0.5887
 3664SOL    HW111891   2.331   2.992  -0.002 -0.0290  0.6463  1.0596
 3664SOL    HW211892   2.200   2.985   0.095 -0.3926  0.1131  0.5380
 3665SOL     OW11893   0.170   6.405   4.192  0.3205 -0.3494 -0.4214
 3665SOL    HW111894   0.205   6.487   4.146  0.6258 -0.4983 -0.4638
 3665SOL    HW211895   0.111   6.431   4.268  2.7752 -0.0021  1.5000
 3666SOL     OW11896   1.960   4.467   4.788  0.3671  0.1976  0.7166
 3666SOL    HW111897   1.922   4.396   4.847  0.7458  0.6593  1.5343
 3666SOL    HW211898   1.887   4.527   4.756  0.2935  0.6030  1.6244
 3667SOL     OW11899   2.344   0.647   2.220  0.3743  0.7130 -0.3460
 3667SOL    HW111900   2.329   0.734   2.173  1.1782  1.0501 -0.0054
 3667SOL    HW211901   2.442   0.626   2.220  0.2684  0.1813  0.2418
 3668SOL     OW11902   4.115   0.740   5.941 -0.5366 -0.1053  0.2662
 3668SOL    HW111903   4.071   0.823   5.974  1.1770  1.5298 -1.3387
 3668SOL    HW211904   4.045   0.671   5.921 -2.1617  1.5964 -0.1483
 3669SOL     OW11905   4.790   1.115   1.539  0.2967  0.4169 -0.3117
 3669SOL    HW111906   4.886   1.134   1.555 -0.4130  2.4399  2.2585
 3669SOL    HW211907   4.766   1.027   1.580  0.4860  1.3628  2.0146
 3670SOL     OW11908   1.866   7.023   2.059  0.1702  0.1341  0.3250
 3670SOL    HW111909   1.907   7.019   2.150 -0.0324 -0.2976  0.4012
 3670SOL    HW211910   1.850   6.930   2.026 -1.1140  0.2862  0.4622
 3671SOL     OW11911   5.338   1.968   4.446 -0.0703 -0.2052  0.7089
 3671SOL    HW111912   5.251   1.989   4.489 -0.8053  1.3588 -1.3932
 3671SOL    HW211913   5.409   2.028   4.481 -0.3557  0.1068  0.7533
 3672SOL     OW11914   5.563   6.893   2.193  0.5768  0.4139 -0.0494
 3672SOL    HW111915   5.574   6.873   2.095 -1.9583 -0.0486 -0.3152
 3672SOL    HW211916   5.546   6.991   2.205  1.7319  0.6104  0.0329
 3673SOL     OW11917   4.485   6.617   0.655 -0.2792  0.1609 -0.5893
 3673SOL    HW111918   4.385   6.609   0.660 -0.5152  1.6390 -1.9831
 3673SOL    HW211919   4.510   6.713   0.642  1.3262 -0.2123 -0.4389
 3674SOL     OW11920   2.613   4.854   5.285  0.2900 -0.1453  0.3722
 3674SOL    HW111921   2.573   4.875   5.374 -0.1046  2.3311 -0.3124
 3674SOL    HW211922   2.576   4.918   5.216  0.2560 -2.2341 -1.6675
 3675SOL     OW11923   7.005   1.831   5.244  0.3063 -0.6748 -0.4444
 3675SOL    HW111924   7.047   1.769   5.310 -0.8267  1.3234  2.3539
 3675SOL    HW211925   7.066   1.909   5.228  0.1102 -0.6142 -0.9185
 3676SOL     OW11926   2.362   0.397   5.762  0.2143 -0.3866  0.8083
 3676SOL    HW111927   2.384   0.453   5.683 -1.8499  0.8785  1.0501
 3676SOL    HW211928   2.397   0.304   5.749 -0.0663 -0.2071 -1.5753
 3677SOL     OW11929   0.538   2.577   5.245  0.4593  1.0732  0.3647
 3677SOL    HW111930   0.447   2.558   5.209  1.2306  0.9872 -1.6732
 3677SOL    HW211931   0.592   2.493   5.246  0.7926  1.2849  0.7485
 3678SOL     OW11932   2.652   0.567   4.702  0.3364  0.5892 -0.2089
 3678SOL    HW111933   2.662   0.470   4.682  1.0965  0.7732 -0.7741
 3678SOL    HW211934   2.656   0.581   4.801 -0.0081  0.0247 -0.1105
 3679SOL     OW11935   3.543   0.716   0.398 -0.0542 -0.2373 -0.4187
 3679SOL    HW111936   3.583   0.695   0.487  0.1816 -0.9927 -0.6905
 3679SOL    HW211937   3.472   0.648   0.377 -1.1469  0.7940 -0.1649
 3680SOL     OW11938   3.010   2.350   5.808 -0.3460  0.4042  0.3629
 3680SOL    HW111939   2.935   2.370   5.871 -0.0103  1.2855  0.4976
 3680SOL    HW211940   3.005   2.411   5.729  0.8128  1.2042  0.8793
 3681SOL     OW11941   3.049   5.766   4.470 -0.1789 -0.2926  0.0874
 3681SOL    HW111942   3.056   5.734   4.565 -1.0049  0.2918  0.3500
 3681SOL    HW211943   3.136   5.806   4.443  0.2570 -0.9967  0.3949
 3682SOL     OW11944   4.710   2.576   1.020  0.0580 -0.4253  0.6568
 3682SOL    HW111945   4.799   2.599   1.060  1.2455  0.0923 -2.0643
 3682SOL    HW211946   4.683   2.484   1.050  0.8239 -0.0955  2.5481
 3683SOL     OW11947   6.794   2.845   1.714 -0.3157  0.8518  0.3019
 3683SOL    HW111948   6.775   2.918   1.648 -0.1973  1.6401  1.1248
 3683SOL    HW211949   6.742   2.764   1.689  1.2005  0.4775 -1.8719
 3684SOL     OW11950   4.529   6.622   5.265 -0.8281  0.2140  0.6318
 3684SOL    HW111951   4.506   6.707   5.311  1.0373  1.9681 -1.4434
 3684SOL    HW211952   4.610   6.582   5.306 -0.7284  0.3335  0.5512
 3685SOL     OW11953   5.666   2.222   3.765 -0.6047  0.2744  0.9741
 3685SOL    HW111954   5.763   2.220   3.742 -0.4045 -0.7903  1.8045
 3685SOL    HW211955   5.620   2.145   3.722 -0.7313 -0.2060  1.9256
 3686SOL     OW11956   0.277   3.816   6.772  0.3746  0.8652  0.5538
 3686SOL    HW111957   0.274   3.798   6.674  0.2597  1.0182  0.5288
 3686SOL    HW211958   0.199   3.772   6.817 -0.5266  2.1799  0.3421
 3687SOL     OW11959   4.604   5.052   2.486 -0.7641 -0.5038 -0.1896
 3687SOL    HW111960   4.651   5.007   2.562  0.0501 -0.1734 -0.4862
 3687SOL    HW211961   4.517   5.005   2.468 -0.6307 -1.0190  0.4816
 3688SOL     OW11962   6.029   5.055   1.170 -0.2743  0.3321 -0.0183
 3688SOL    HW111963   6.084   5.050   1.253 -1.0833 -1.2855  0.4660
 3688SOL    HW211964   5.932   5.045   1.194 -0.6282  1.1089 -1.0452
 3689SOL     OW11965   6.925   1.945   3.433  0.6613  0.4227 -0.7668
 3689SOL    HW111966   6.891   1.929   3.340 -0.8662 -0.8497 -0.0551
 3689SOL    HW211967   6.863   2.007   3.481  1.6082  1.3155 -0.6699
 3690SOL     OW11968   5.364   4.833   1.686 -0.8233 -0.3461 -0.0434
 3690SOL    HW111969   5.275   4.856   1.725 -0.1748  2.0321  0.1809
 3690SOL    HW211970   5.385   4.897   1.612  1.4215  0.2627  1.0524
 3691SOL     OW11971   0.023   3.638   1.131 -0.2111 -0.5725 -0.1000
 3691SOL    HW111972  -0.062   3.610   1.087  0.2857  1.2471 -2.4228
 3691SOL    HW211973   0.003   3.702   1.205 -0.8990 -0.5679 -0.2842
 3692SOL     OW11974   6.838   3.309   4.919 -0.2517 -0.1227 -0.0153
 3692SOL    HW111975   6.927   3.355   4.918 -0.7006  0.8288  1.1770
 3692SOL    HW211976   6.846   3.222   4.967 -0.1200  0.3347  0.8106
 3693SOL     OW11977   6.497   0.523   1.446 -0.4437 -0.1009  0.3106
 3693SOL    HW111978   6.588   0.516   1.406 -0.0402  0.1708  1.1347
 3693SOL    HW211979   6.492   0.465   1.528 -1.5090 -1.2893 -0.5609
 3694SOL     OW11980   0.413   6.584   1.276  0.1114 -1.1917 -0.3371
 3694SOL    HW111981   0.491   6.534   1.238  0.2821 -0.2369 -1.3006
 3694SOL    HW211982   0.440   6.678   1.294 -0.5272 -1.1318  0.3414
 3695SOL     OW11983   6.757   2.691   3.915  0.0140  0.0853 -0.2538
 3695SOL    HW111984   6.737   2.745   3.997 -0.0056 -0.5907  0.2008
 3695SOL    HW211985   6.691   2.616   3.907  1.9841 -1.9326  1.0544
 3696SOL     OW11986   5.678   0.066   1.413 -0.0061  0.0322 -0.3292
 3696SOL    HW111987   5.698   0.164   1.409  0.9796 -0.1584 -0.2465
 3696SOL    HW211988   5.755   0.014   1.375 -1.0519 -0.6662 -1.5473
 3697SOL     OW11989   6.091   0.763   2.479 -0.3295 -0.0300  0.0199
 3697SOL    HW111990   6.114   0.673   2.515 -1.3368 -1.2672 -2.2237
 3697SOL    HW211991   6.161   0.792   2.414 -0.8005  0.0746 -0.4451
 3698SOL     OW11992   2.478   6.345   4.998  0.3775  0.2141 -0.2272
 3698SOL    HW111993   2.475   6.314   5.093 -0.5551 -2.5556 -1.0357
 3698SOL    HW211994   2.572   6.367   4.973  1.2008 -2.0525  0.5528
 3699SOL     OW11995   3.113   1.276   2.740 -0.8970 -0.0137  0.3167
 3699SOL    HW111996   3.045   1.338   2.700  1.7987  1.3645 -2.5310
 3699SOL    HW211997   3.176   1.329   2.797  2.7651  0.6590 -3.8748
 3700SOL     OW11998   1.242   4.609   5.072  0.8472 -0.1627  0.0883
 3700SOL    HW111999   1.169   4.635   5.135  3.1345  1.8893  2.1066
 3700SOL    HW212000   1.206   4.546   5.003 -2.3380 -0.6860  2.0313
 3701SOL     OW12001   6.978   2.613   1.975 -0.1547 -0.4336 -0.2083
 3701SOL    HW112002   6.980   2.569   1.885 -0.5009 -0.3228 -0.2744
 3701SOL    HW212003   6.916   2.692   1.971  1.6268  1.0284 -0.5311
 3702SOL     OW12004   6.307   4.487   3.734 -0.3238 -0.0666  0.3045
 3702SOL    HW112005   6.300   4.446   3.643 -4.8090  0.7595  0.0136
 3702SOL    HW212006   6.344   4.579   3.726 -0.2728 -0.1572 -0.6412
 3703SOL     OW12007   2.035   0.839   4.011  0.0097 -0.1108  0.1152
 3703SOL    HW112008   2.082   0.818   3.926 -2.3380  0.0390 -1.3262
 3703SOL    HW212009   1.973   0.916   3.997 -0.6608 -0.2688  1.8887
 3704SOL     OW12010   6.771   0.170   6.650 -0.2169  0.3303 -0.5229
 3704SOL    HW112011   6.803   0.083   6.688 -3.1766  0.0945  1.8552
 3704SOL    HW212012   6.840   0.240   6.665  0.4830 -0.7174  1.5995
 3705SOL     OW12013   6.511   3.939   3.660 -0.3524  0.0484 -0.3876
 3705SOL    HW112014   6.572   3.999   3.711 -1.1626  1.3743 -0.9181
 3705SOL    HW212015   6.507   3.850   3.705 -0.6319  0.9924  1.5680
 3706SOL     OW12016   1.766   4.238   6.139  0.0936  0.3726 -0.1373
 3706SOL    HW112017   1.726   4.237   6.048 -0.0533 -0.1507 -0.0703
 3706SOL    HW212018   1.864   4.220   6.134 -0.1837 -1.3326 -0.0740
 3707SOL     OW12019   1.974   3.581   1.935 -0.4856 -0.1152  0.4818
 3707SOL    HW112020   2.034   3.549   2.008 -0.1937  1.2886  0.8945
 3707SOL    HW212021   2.025   3.645   1.876 -0.3611 -2.0540 -1.6513
 3708SOL     OW12022   6.485   4.971   0.357  0.3148 -0.1180 -0.1305
 3708SOL    HW112023   6.506   4.961   0.259  1.7001 -0.4307  0.1746
 3708SOL    HW212024   6.386   4.977   0.369  0.1022 -0.3509 -1.5309
 3709SOL     OW12025   6.905   2.526   2.699  0.0741 -0.2600 -0.8433
 3709SOL    HW112026   6.843   2.582   2.754 -0.0798  0.2728 -1.5413
 3709SOL    HW212027   6.868   2.434   2.689  0.6193 -0.6882  0.8191
 3710SOL     OW12028   2.456   4.636   5.745  0.3489  0.5541 -0.1867
 3710SOL    HW112029   2.540   4.663   5.698 -0.4140  0.6573 -1.5508
 3710SOL    HW212030   2.434   4.704   5.816  0.9881  0.9397 -0.3542
 3711SOL     OW12031   2.596   6.544   4.564 -0.3566 -0.2229 -0.1757
 3711SOL    HW112032   2.681   6.556   4.512  0.3202 -3.3160  0.0172
 3711SOL    HW212033   2.600   6.600   4.647  2.0406 -1.0643  0.3705
 3712SOL     OW12034   0.134   4.508   3.885  0.5972  0.6650  0.0689
 3712SOL    HW112035   0.099   4.567   3.958 -1.1886  0.6989 -0.7648
 3712SOL    HW212036   0.183   4.564   3.818  1.5527  0.7389  0.8002
 3713SOL     OW12037   6.539   6.955   4.609 -0.4927  0.8130 -0.0698
 3713SOL    HW112038   6.470   6.901   4.562 -0.2028  1.1673 -0.9105
 3713SOL    HW212039   6.556   6.916   4.700 -1.8078  0.7421  0.1648
 3714SOL     OW12040   2.213   4.734   5.935 -0.3670  0.5737  0.4027
 3714SOL    HW112041   2.167   4.816   5.900 -1.7217  0.0733  0.9350
 3714SOL    HW212042   2.147   4.658   5.938  0.3747 -0.0364  1.6641
 3715SOL     OW12043   6.474   5.347   3.160 -0.4111  0.0834 -0.0385
 3715SOL    HW112044   6.523   5.268   3.197  0.4502  0.1987 -0.9047
 3715SOL    HW212045   6.516   5.375   3.074 -0.5007  1.6999  0.4197
 3716SOL     OW12046   0.994   6.876   4.096 -0.2163  0.2386 -0.1179
 3716SOL    HW112047   1.015   6.780   4.076  1.0300  0.1579  1.3908
 3716SOL    HW212048   0.895   6.889   4.101 -0.4234 -0.7572 -1.2574
 3717SOL     OW12049   5.172   1.316   1.962 -0.2488  0.5877  0.0990
 3717SOL    HW112050   5.152   1.230   1.916 -0.9823 -0.6722  2.5978
 3717SOL    HW212051   5.118   1.322   2.046  2.8880  1.4743  2.2367
 3718SOL     OW12052   5.749   0.454   5.378  0.1846 -0.0150 -0.0851
 3718SOL    HW112053   5.722   0.524   5.312  0.4226  0.4874  0.3418
 3718SOL    HW212054   5.805   0.495   5.449 -0.1575 -0.5305  0.4935
 3719SOL     OW12055   0.182   4.514   0.670  0.0175  0.5553  0.3285
 3719SOL    HW112056   0.249   4.571   0.718  0.9096 -0.4608  0.3441
 3719SOL    HW212057   0.229   4.435   0.629 -1.2115 -0.3381  0.5784
 3720SOL     OW12058   6.669   3.254   1.194 -0.1254  0.2708 -0.5573
 3720SOL    HW112059   6.671   3.327   1.262 -1.5414 -1.2807  1.2572
 3720SOL    HW212060   6.584   3.260   1.141  0.9895  1.4972 -2.2986
 3721SOL     OW12061   6.959   0.297   0.644  0.3579  0.8781 -0.1539
 3721SOL    HW112062   6.891   0.224   0.628 -0.4292  1.7032 -0.6720
 3721SOL    HW212063   6.917   0.386   0.626  1.5608  1.4188 -0.3669
 3722SOL     OW12064   5.437   5.590   2.650  0.3695  0.0326  0.1230
 3722SOL    HW112065   5.450   5.613   2.554  0.0181 -0.3884 -0.0262
 3722SOL    HW212066   5.435   5.675   2.704  0.9895  0.2443 -0.1825
 3723SOL     OW12067   3.873   4.242   5.974 -0.3194 -0.2920 -0.0914
 3723SOL    HW112068   3.799   4.197   5.924 -0.8225  0.8324 -0.3794
 3723SOL    HW212069   3.911   4.315   5.918  0.3264 -0.1946  0.4685
 3724SOL     OW12070   0.107   3.041   3.796  0.7384 -0.0684 -0.2138
 3724SOL    HW112071   0.143   3.056   3.704 -0.0661 -0.4195 -0.5980
 3724SOL    HW212072   0.114   2.944   3.819 -1.1720 -0.4078 -0.8510
 3725SOL     OW12073   1.581   0.917   1.213 -0.0630 -0.1552 -0.2441
 3725SOL    HW112074   1.640   0.962   1.146  0.5635  0.0111  0.4086
 3725SOL    HW212075   1.615   0.935   1.305 -1.1414 -0.0618  0.1443
 3726SOL     OW12076   4.922   3.894   5.809  0.2508  0.0787  0.4615
 3726SOL    HW112077   4.860   3.907   5.886  0.8278 -0.8488  1.1080
 3726SOL    HW212078   4.870   3.866   5.729 -0.2017 -0.3855  0.9115
 3727SOL     OW12079   6.901   2.228   5.774  0.0147 -0.0289 -0.2509
 3727SOL    HW112080   6.810   2.212   5.735  0.2260 -1.7477 -0.1265
 3727SOL    HW212081   6.931   2.321   5.752 -0.8655 -0.1486 -2.1668
 3728SOL     OW12082   1.488   4.370   0.018  0.1935 -0.4032  0.3165
 3728SOL    HW112083   1.495   4.335  -0.076 -0.9071 -2.9601  1.0934
 3728SOL    HW212084   1.545   4.314   0.078  0.1319  0.6040  1.3397
 3729SOL     OW12085   6.272   5.512   1.484  0.0464 -0.1293  0.1711
 3729SOL    HW112086   6.248   5.541   1.577 -2.0728  2.5032 -1.0688
 3729SOL    HW212087   6.207   5.444   1.452  1.2254 -1.6114  0.8120
 3730SOL     OW12088   5.179   3.860   4.003  0.4515  0.0715 -0.1031
 3730SOL    HW112089   5.146   3.826   4.091  1.5698 -2.1636 -0.4742
 3730SOL    HW212090   5.105   3.859   3.936  0.1410 -0.3762  0.2476
 3731SOL     OW12091   2.779   0.458   0.996  0.1036  0.2820  0.4135
 3731SOL    HW112092   2.811   0.365   0.980 -0.0502  0.5598 -1.8296
 3731SOL    HW212093   2.847   0.523   0.961 -1.3131  0.9284 -1.2822
 3732SOL     OW12094   3.756   3.777   5.747  0.1118  0.2325 -0.6785
 3732SOL    HW112095   3.747   3.712   5.823 -0.3316  1.2044  0.1195
 3732SOL    HW212096   3.807   3.733   5.672  0.7923 -0.6618  0.2702
 3733SOL     OW12097   1.300   2.067   3.986 -0.4671 -0.4114  0.4545
 3733SOL    HW112098   1.262   2.098   4.073 -0.1756 -2.0944  1.2213
 3733SOL    HW212099   1.255   2.116   3.910 -1.8168 -0.0062  1.4732
 3734SOL     OW12100   1.985   1.463   2.330  0.3149  0.4293 -0.1796
 3734SOL    HW112101   2.085   1.463   2.334  0.4232 -1.6699 -1.3565
 3734SOL    HW212102   1.955   1.458   2.235 -0.9498  1.1539  0.1477
 3735SOL     OW12103   4.124   1.188   2.433 -0.2384 -0.1554  0.6570
 3735SOL    HW112104   4.052   1.215   2.498 -0.0793  1.1762  0.3121
 3735SOL    HW212105   4.100   1.222   2.342  1.4794  1.5883  0.7914
 3736SOL     OW12106   0.281   2.552   5.157  0.3765 -0.2478  0.5093
 3736SOL    HW112107   0.205   2.560   5.222  0.5691  0.0553  0.7027
 3736SOL    HW212108   0.257   2.599   5.072  0.0739 -0.7547  0.3108
 3737SOL     OW12109   5.200   2.276   4.484 -0.6037  0.3535 -0.3094
 3737SOL    HW112110   5.158   2.209   4.546  0.3361  0.3348  0.3211
 3737SOL    HW212111   5.179   2.368   4.516  0.6657  0.3427  0.5939
 3738SOL     OW12112   1.306   4.114   1.433  0.3443  0.1600 -0.2288
 3738SOL    HW112113   1.364   4.093   1.354  0.3063 -0.6247 -0.0595
 3738SOL    HW212114   1.327   4.050   1.507 -1.4226 -0.7854 -0.4999
 3739SOL     OW12115   2.856   4.931   6.368  0.2483 -0.2117  0.2019
 3739SOL    HW112116   2.882   5.027   6.378  0.7415 -0.3931  0.6744
 3739SOL    HW212117   2.758   4.921   6.389 -0.2496  0.4710 -1.5761
 3740SOL     OW12118   5.215   6.064   0.376  0.1078  0.0670  0.3178
 3740SOL    HW112119   5.138   6.098   0.431  0.7535 -2.1460  2.7979
 3740SOL    HW212120   5.183   6.045   0.283 -2.2531 -0.2784  1.1228
 3741SOL     OW12121   5.610   0.586   6.740  0.1566 -0.0905  0.0330
 3741SOL    HW112122   5.684   0.552   6.797  0.8756  0.1105 -0.7542
 3741SOL    HW212123   5.589   0.519   6.668  1.4498  0.9717 -1.4057
 3742SOL     OW12124   4.978   5.154   2.027 -0.2022  0.5118  0.0162
 3742SOL    HW112125   5.034   5.235   2.042  0.1899  0.2197  0.1365
 3742SOL    HW212126   4.936   5.159   1.937 -1.8935  1.8726  0.8145
 3743SOL     OW12127   1.256   4.341   0.438 -0.2958 -0.0802 -0.6223
 3743SOL    HW112128   1.278   4.341   0.341  0.9416  0.3067 -0.3591
 3743SOL    HW212129   1.215   4.429   0.463  2.6072  1.2903 -0.1643
 3744SOL     OW12130   6.665   4.226   3.793  0.5438  0.1066 -0.1733
 3744SOL    HW112131   6.640   4.281   3.713 -0.5296  4.3938  2.7806
 3744SOL    HW212132   6.757   4.189   3.780 -0.2355 -0.9327 -3.9862
 3745SOL     OW12133   5.776   5.064   1.321  0.7438 -0.0843 -0.2277
 3745SOL    HW112134   5.730   4.978   1.343 -0.3383  0.7133  0.7422
 3745SOL    HW212135   5.708   5.133   1.294  1.1483  1.4875  2.4092
 3746SOL     OW12136   4.228   6.590   4.037 -0.5229 -0.1446  0.3799
 3746SOL    HW112137   4.131   6.615   4.029 -0.0567  2.0942  1.3430
 3746SOL    HW212138   4.241   6.500   3.995 -2.6011  0.4591 -1.8225
 3747SOL     OW12139   2.182   4.661   4.422 -0.5531  0.1069  0.0562
 3747SOL    HW112140   2.225   4.571   4.428 -1.5179 -0.2782  2.3467
 3747SOL    HW212141   2.250   4.732   4.438  0.0252 -0.2534 -0.7616
 3748SOL     OW12142   5.367   3.232   2.870  0.2942  0.0974  0.0137
 3748SOL    HW112143   5.353   3.160   2.802  0.2739 -0.5473  0.6837
 3748SOL    HW212144   5.296   3.226   2.940  1.8954 -1.1018  1.6531
 3749SOL     OW12145   0.431   1.274   0.397  0.4742  0.4998  0.1090
 3749SOL    HW112146   0.388   1.236   0.315  1.2473  0.7756 -0.4314
 3749SOL    HW212147   0.506   1.335   0.371 -0.2298  1.7943  0.9763
 3750SOL     OW12148   6.315   1.891   0.282  0.5826 -0.0693 -0.2956
 3750SOL    HW112149   6.270   1.872   0.369  1.7391 -3.5648 -0.2937
 3750SOL    HW212150   6.384   1.962   0.295  1.9123 -1.6562  2.1237
 3751SOL     OW12151   6.952   1.770   1.962  0.5634  0.2791  0.3869
 3751SOL    HW112152   6.981   1.692   2.016  2.4023 -0.2244 -1.2254
 3751SOL    HW212153   6.955   1.853   2.018  2.2979 -0.2296  1.0952
 3752SOL     OW12154   1.348   0.178   6.979 -0.1463 -0.0356  0.0386
 3752SOL    HW112155   1.306   0.187   6.888  2.2400  0.6196 -1.0929
 3752SOL    HW212156   1.397   0.263   7.001 -1.0276 -0.0298  2.1646
 3753SOL     OW12157   0.792   6.708   6.279  0.0174  0.0970  0.2392
 3753SOL    HW112158   0.726   6.642   6.243  1.2464 -1.1263  0.1514
 3753SOL    HW212159   0.749   6.798   6.284 -1.5713 -0.6096 -0.0360
 3754SOL     OW12160   0.087   5.494   1.555  0.1409 -0.9828  0.2128
 3754SOL    HW112161   0.098   5.568   1.488  2.2352 -1.3871  0.0654
 3754SOL    HW212162  -0.003   5.452   1.543 -0.7552  0.9527 -0.2739
 3755SOL     OW12163   3.872   1.642   2.904  0.7096 -0.4165  0.1277
 3755SOL    HW112164   3.902   1.721   2.851 -1.0344  0.3239  0.1888
 3755SOL    HW212165   3.870   1.666   3.001  1.3105 -0.9405  0.2863
 3756SOL     OW12166   4.970   5.142   0.092 -0.0749 -0.7258 -0.0338
 3756SOL    HW112167   4.927   5.117   0.179  1.8895 -3.6185  0.2433
 3756SOL    HW212168   5.026   5.223   0.105  0.0540 -1.0095  1.4006
 3757SOL     OW12169   3.206   4.222   5.565 -0.1436 -0.2544  0.5829
 3757SOL    HW112170   3.213   4.274   5.480  1.0691 -1.7654 -0.3001
 3757SOL    HW212171   3.292   4.229   5.616 -0.1780 -0.9248  0.7369
 3758SOL     OW12172   6.324   1.729   2.872  0.3141  0.3238 -0.4169
 3758SOL    HW112173   6.386   1.666   2.825  1.8775  0.5575  1.2382
 3758SOL    HW212174   6.234   1.725   2.829  0.9089 -1.5506 -1.6056
 3759SOL     OW12175   5.118   4.672   6.810 -0.0589 -0.0012  0.0721
 3759SOL    HW112176   5.079   4.750   6.859 -1.6271 -1.7733  1.8357
 3759SOL    HW212177   5.067   4.590   6.834 -0.2785 -1.1945 -3.8199
 3760SOL     OW12178   2.459   1.195   5.787 -0.2634 -0.3665  0.2775
 3760SOL    HW112179   2.376   1.159   5.745 -0.4101 -0.5404  0.7117
 3760SOL    HW212180   2.458   1.295   5.781 -0.9148 -0.3151  1.0260
 3761SOL     OW12181   6.423   6.472   2.845 -0.0982 -0.3431  0.7375
 3761SOL    HW112182   6.409   6.409   2.769 -0.1345 -1.0177  1.2964
 3761SOL    HW212183   6.443   6.420   2.928  1.4319  0.4234  0.8842
 3762SOL     OW12184   1.575   4.323   0.968 -0.3707  0.6408 -0.3260
 3762SOL    HW112185   1.600   4.352   1.060 -2.1714 -0.2180  0.4744
 3762SOL    HW212186   1.601   4.395   0.903 -1.2028  2.3582  1.1363
 3763SOL     OW12187   0.998   2.283   5.163 -0.1879  0.3164 -0.1666
 3763SOL    HW112188   0.937   2.362   5.173 -0.7685  0.0838 -1.5928
 3763SOL    HW212189   1.020   2.270   5.066 -0.4991 -1.5676 -0.0175
 3764SOL     OW12190   3.709   5.582   3.784 -0.5500 -0.1717  0.1627
 3764SOL    HW112191   3.736   5.513   3.717  2.1416 -0.6274  1.5530
 3764SOL    HW212192   3.638   5.545   3.844 -1.0330 -0.7288 -0.7345
 3765SOL     OW12193   4.458   1.098   3.307 -0.2508  0.3891  0.1117
 3765SOL    HW112194   4.449   1.188   3.264  1.0942 -0.6591 -2.6252
 3765SOL    HW212195   4.548   1.061   3.287  0.9208  0.0691  4.7649
 3766SOL     OW12196   3.252   6.947   5.426  0.3288  0.5079  0.8275
 3766SOL    HW112197   3.292   6.899   5.348 -0.1641  1.4716 -0.0443
 3766SOL    HW212198   3.160   6.979   5.402  1.3022  3.4521  0.6844
 3767SOL     OW12199   0.053   5.483   6.963 -0.5903 -0.1054 -0.3290
 3767SOL    HW112200   0.129   5.479   6.898  1.1081  0.3314  1.5655
 3767SOL    HW212201   0.044   5.395   7.010 -0.4942  0.2055  0.2805
 3768SOL     OW12202   3.188   5.864   2.506 -0.0707 -0.1879  0.0062
 3768SOL    HW112203   3.266   5.818   2.548 -0.7582 -1.2981  0.1074
 3768SOL    HW212204   3.193   5.962   2.525  1.1847 -0.2662  0.1731
 3769SOL     OW12205   4.960   5.709   3.613 -0.6310  0.4581 -0.0846
 3769SOL    HW112206   4.963   5.632   3.549 -1.4399  0.0318  0.3695
 3769SOL    HW212207   5.038   5.705   3.675 -1.0766 -0.4512  0.4344
 3770SOL     OW12208   1.039   3.952   0.634  0.0607  0.2448 -0.6152
 3770SOL    HW112209   1.045   3.950   0.733 -0.9636 -0.1757 -0.5519
 3770SOL    HW212210   1.104   4.020   0.598 -2.1831  3.2537  0.5798
 3771SOL     OW12211   4.681   0.723   6.382 -0.1208 -0.1357  0.3312
 3771SOL    HW112212   4.732   0.809   6.387 -1.5248  0.6880  1.3581
 3771SOL    HW212213   4.722   0.657   6.444 -0.0956  0.4093  0.9082
 3772SOL     OW12214   0.161   6.776   4.497  0.3964 -0.6275 -0.0103
 3772SOL    HW112215   0.136   6.691   4.543  1.3951 -1.0349 -0.1890
 3772SOL    HW212216   0.079   6.821   4.462 -0.3445 -0.4574  1.8816
 3773SOL     OW12217   5.402   3.024   0.919 -0.4847 -0.1876 -0.4977
 3773SOL    HW112218   5.334   3.062   0.981 -1.0412  1.0013 -1.7906
 3773SOL    HW212219   5.493   3.036   0.959 -0.8615  0.1459  0.2810
 3774SOL     OW12220   0.037   2.263   6.875 -0.2878 -0.2962  0.0057
 3774SOL    HW112221  -0.062   2.271   6.884 -0.2792  1.4936 -1.0441
 3774SOL    HW212222   0.081   2.306   6.954 -0.3553  0.2753 -0.2594
 3775SOL     OW12223   5.743   2.723   4.933 -0.0323 -0.0739 -0.3381
 3775SOL    HW112224   5.718   2.626   4.933  1.4319 -0.5618  2.5094
 3775SOL    HW212225   5.662   2.778   4.914 -1.5376 -1.7853  0.7413
 3776SOL     OW12226   1.335   1.725   6.773 -0.4862 -0.2153 -0.0101
 3776SOL    HW112227   1.375   1.637   6.797  2.3924  0.5252 -1.6381
 3776SOL    HW212228   1.305   1.723   6.678  0.1983  0.7147 -0.2598
 3777SOL     OW12229   0.938   4.917   2.215 -0.0721 -0.1888 -0.6276
 3777SOL    HW112230   0.923   4.935   2.118  0.0365 -1.9907 -1.0196
 3777SOL    HW212231   0.911   4.823   2.236 -1.1088  0.4929  1.3330
 3778SOL     OW12232   2.320   6.949   0.800  0.0202  0.2167  0.3854
 3778SOL    HW112233   2.292   7.042   0.825 -1.4006 -0.3040  0.8080
 3778SOL    HW212234   2.348   6.899   0.881  0.4554  0.1521  0.2013
 3779SOL     OW12235   2.292   3.276   6.792 -0.3851 -0.2818 -0.6482
 3779SOL    HW112236   2.299   3.202   6.725  2.7364 -1.0197  0.3180
 3779SOL    HW212237   2.379   3.284   6.841 -1.8871  1.5824  1.9084
 3780SOL     OW12238   3.925   7.017   4.663 -0.0099  0.6142 -0.0943
 3780SOL    HW112239   3.886   6.946   4.605  1.0307 -0.4466  0.4742
 3780SOL    HW212240   4.024   7.005   4.668  0.2783  2.5154 -0.5182
 3781SOL     OW12241   2.950   5.544   5.595  0.4031 -0.6778  0.3044
 3781SOL    HW112242   2.887   5.473   5.626 -2.4223  1.0580 -0.9940
 3781SOL    HW212243   3.044   5.508   5.594 -0.8576 -4.3605 -0.3565
 3782SOL     OW12244   1.847   0.292   1.593  0.8412  0.7481  0.4648
 3782SOL    HW112245   1.883   0.207   1.632  1.7846  0.6353 -0.6056
 3782SOL    HW212246   1.851   0.287   1.493  2.5727  2.7187  0.3728
 3783SOL     OW12247   5.875   4.774   6.104  0.3909 -0.3539 -0.0305
 3783SOL    HW112248   5.862   4.680   6.071  1.8604  0.0954 -2.0792
 3783SOL    HW212249   5.840   4.782   6.197  0.4873 -3.0034  0.3010
 3784SOL     OW12250   6.121   3.746   4.837  0.7739  0.4588 -0.2234
 3784SOL    HW112251   6.216   3.721   4.854 -0.0524 -3.0714 -0.0468
 3784SOL    HW212252   6.081   3.781   4.922  0.9996 -1.5723  0.7917
 3785SOL     OW12253   2.717   0.827   3.190 -0.5492  0.6541 -0.1648
 3785SOL    HW112254   2.677   0.737   3.172 -1.7542  0.5885  2.4117
 3785SOL    HW212255   2.661   0.898   3.146 -0.4321  0.2398 -0.9892
 3786SOL     OW12256   2.348   5.803   2.086  0.5168 -0.1553  0.5434
 3786SOL    HW112257   2.282   5.870   2.120  0.5246  0.7864 -1.1998
 3786SOL    HW212258   2.440   5.828   2.119  0.4034  0.2192  0.5812
 3787SOL     OW12259   5.264   0.491   5.655  0.5821  0.2717  0.1183
 3787SOL    HW112260   5.198   0.565   5.646 -0.1708 -0.1904  1.5697
 3787SOL    HW212261   5.357   0.528   5.650  0.2156  1.3072  0.7480
 3788SOL     OW12262   1.624   4.285   2.950 -0.4363 -0.1436 -0.0083
 3788SOL    HW112263   1.714   4.281   2.993 -0.2320  0.6577 -0.3417
 3788SOL    HW212264   1.620   4.218   2.876 -0.9730 -1.9092  1.5311
 3789SOL     OW12265   1.168   5.104   3.313  0.4397 -0.2218  0.1197
 3789SOL    HW112266   1.146   5.138   3.221 -0.8394 -1.7724 -0.1995
 3789SOL    HW212267   1.100   5.137   3.378 -0.2290 -1.2881 -0.0120
 3790SOL     OW12268   1.778   2.482   3.511  0.0149  0.8215  0.0799
 3790SOL    HW112269   1.767   2.427   3.594  0.3266  0.9192  0.1885
 3790SOL    HW212270   1.869   2.465   3.472  0.1800  1.3903  0.2130
 3791SOL     OW12271   0.251   6.325   2.551  0.1319  0.4346 -0.2626
 3791SOL    HW112272   0.191   6.319   2.471  0.0881  0.5243 -0.2372
 3791SOL    HW212273   0.202   6.290   2.631 -0.1632  1.2105 -0.0936
 3792SOL     OW12274   1.845   6.276   0.138  0.2003  0.3571 -0.1645
 3792SOL    HW112275   1.827   6.178   0.148  1.5748  0.0743 -0.2686
 3792SOL    HW212276   1.846   6.319   0.228  3.1006 -0.4235  0.2867
 3793SOL     OW12277   0.641   5.594   3.222  0.5357  0.3627 -0.2049
 3793SOL    HW112278   0.730   5.549   3.230 -0.2863 -1.7762 -1.9373
 3793SOL    HW212279   0.620   5.610   3.125 -0.8665  1.0501  0.1825
 3794SOL     OW12280   5.450   6.914   5.601  0.5056  0.0361 -0.6523
 3794SOL    HW112281   5.433   6.994   5.542 -1.5000 -0.3624 -0.6826
 3794SOL    HW212282   5.479   6.945   5.691 -0.9400  0.8625 -0.4389
 3795SOL     OW12283   5.359   0.641   6.654 -0.1050 -0.3079  0.3199
 3795SOL    HW112284   5.276   0.629   6.708  0.7847  1.9240  2.4091
 3795SOL    HW212285   5.439   0.627   6.713  0.9200  1.3787 -0.5735
 3796SOL     OW12286   0.333   1.707   0.415 -0.0756  0.5952  0.4178
 3796SOL    HW112287   0.309   1.657   0.331 -1.3799 -1.6853  2.0204
 3796SOL    HW212288   0.256   1.765   0.442  0.0677  0.7962  0.3906
 3797SOL     OW12289   0.398   6.904   2.496 -0.4125 -0.0312 -0.2016
 3797SOL    HW112290   0.308   6.861   2.496 -0.3912 -0.0836  0.1123
 3797SOL    HW212291   0.399   6.980   2.562 -0.2326 -0.0246 -0.2102
 3798SOL     OW12292   1.437   4.959   1.525  0.0485  0.2251 -0.0930
 3798SOL    HW112293   1.363   4.908   1.570 -0.0517  1.2474  0.9372
 3798SOL    HW212294   1.408   4.986   1.433  0.6505 -2.8329 -1.3137
 3799SOL     OW12295   4.164   5.361   5.561  0.7257  0.7456 -0.5530
 3799SOL    HW112296   4.159   5.429   5.488 -0.5783  1.1062 -0.1518
 3799SOL    HW212297   4.239   5.298   5.542 -0.5765 -0.1725 -3.0594
 3800SOL     OW12298   4.415   3.013   5.651  0.5080  0.6164  0.6007
 3800SOL    HW112299   4.480   3.018   5.575  2.0623  1.0752  1.8957
 3800SOL    HW212300   4.332   2.966   5.621  0.4865  1.9988 -1.7419
 3801SOL     OW12301   6.710   0.717   6.410 -0.2315 -0.0296 -0.1094
 3801SOL    HW112302   6.700   0.798   6.352 -0.6477  0.5275  0.7156
 3801SOL    HW212303   6.657   0.731   6.494 -1.0949 -1.5499 -0.3729
 3802SOL     OW12304   3.702   3.298   5.789  0.3455  0.1333 -0.3622
 3802SOL    HW112305   3.738   3.258   5.873 -2.0506  1.4705  1.4007
 3802SOL    HW212306   3.603   3.283   5.784  0.7023 -2.3502 -4.3995
 3803SOL     OW12307   3.845   0.821   2.916 -0.7355  0.3390  0.4391
 3803SOL    HW112308   3.797   0.737   2.888  0.5208 -0.4445  0.5602
 3803SOL    HW212309   3.855   0.881   2.836  0.4597 -0.6932 -0.2179
 3804SOL     OW12310   5.492   3.051   5.085  0.0338 -0.0264 -0.2480
 3804SOL    HW112311   5.501   3.076   5.182 -1.2014  1.0231 -0.3705
 3804SOL    HW212312   5.512   3.131   5.029 -0.7787 -0.2049 -0.7999
 3805SOL     OW12313   1.478   4.005   2.032  0.2127  0.9120  0.3072
 3805SOL    HW112314   1.484   3.934   1.962 -1.8385 -0.7220  1.6590
 3805SOL    HW212315   1.432   4.085   1.994 -0.2219  0.3359 -0.4224
 3806SOL     OW12316   5.672   0.819   2.102  0.2480  0.1289  0.3995
 3806SOL    HW112317   5.746   0.887   2.102  0.0004  0.4943  3.1606
 3806SOL    HW212318   5.705   0.734   2.144 -0.6992  0.0637  1.0391
 3807SOL     OW12319   2.204   6.526   4.281 -0.1155  0.1795  0.4429
 3807SOL    HW112320   2.194   6.472   4.364  2.8723  1.2491  1.6425
 3807SOL    HW212321   2.122   6.517   4.225 -0.8959 -3.2335  1.8986
 3808SOL     OW12322   2.186   6.658   0.142 -0.4620  0.7866 -0.1511
 3808SOL    HW112323   2.248   6.687   0.215  0.3869 -2.0138  0.3424
 3808SOL    HW212324   2.099   6.628   0.183 -0.6999  1.0178 -0.4850
 3809SOL     OW12325   4.755   0.662   4.705 -0.6356 -0.7223 -0.2717
 3809SOL    HW112326   4.722   0.738   4.761  0.5959 -0.1247 -0.3148
 3809SOL    HW212327   4.709   0.578   4.733 -0.6024 -0.3097  1.1298
 3810SOL     OW12328   0.538   2.453   6.196  0.4652  0.4354  0.1204
 3810SOL    HW112329   0.477   2.438   6.118 -0.6817  1.5170  0.7740
 3810SOL    HW212330   0.509   2.395   6.272  1.1549 -0.0935  0.0015
 3811SOL     OW12331   6.746   2.399   5.076  0.5819 -0.0252 -0.0331
 3811SOL    HW112332   6.667   2.459   5.060  0.2216 -0.7543 -1.1427
 3811SOL    HW212333   6.715   2.307   5.096  1.1449  0.0275  1.1963
 3812SOL     OW12334   4.912   0.651   5.758  0.5013  0.0665  0.1127
 3812SOL    HW112335   4.979   0.663   5.831 -0.9027  1.9671  1.1767
 3812SOL    HW212336   4.831   0.706   5.778  1.3253  3.5607 -4.5241
 3813SOL     OW12337   3.436   5.366   2.321  0.6022  0.3122 -0.3569
 3813SOL    HW112338   3.453   5.439   2.256  0.7357 -2.0313 -3.1274
 3813SOL    HW212339   3.459   5.278   2.280 -2.0010 -1.5623  1.8284
 3814SOL     OW12340   2.167   1.098   2.193 -0.2420  0.2947  0.1783
 3814SOL    HW112341   2.248   1.148   2.224 -0.8312  1.3699  0.0435
 3814SOL    HW212342   2.193   1.031   2.124  0.8541 -0.9915  1.7701
 3815SOL     OW12343   5.905   2.341   4.256  0.4814  0.5196 -0.7073
 3815SOL    HW112344   5.831   2.407   4.270  0.8807  0.3236  3.3841
 3815SOL    HW212345   5.987   2.372   4.303  1.5048 -1.5953 -0.9896
 3816SOL     OW12346   0.092   7.021   0.603  0.3468  0.2704  0.0477
 3816SOL    HW112347   0.024   7.011   0.531 -0.1304 -0.2447  0.5601
 3816SOL    HW212348   0.152   7.098   0.582  0.1896  0.1492 -0.8730
 3817SOL     OW12349   3.663   1.881   5.934 -0.0583  0.4816 -0.0738
 3817SOL    HW112350   3.724   1.832   5.996 -1.0664 -0.0696  0.5199
 3817SOL    HW212351   3.710   1.960   5.895  1.1366 -0.1339  0.0712
 3818SOL     OW12352   5.510   6.997   3.842  0.4886 -0.1936  0.5030
 3818SOL    HW112353   5.518   7.096   3.856 -1.5804  0.0661  0.2568
 3818SOL    HW212354   5.431   6.979   3.782  0.0406 -2.0537  1.5850
 3819SOL     OW12355   0.130   3.261   5.784  0.1954 -0.0818  0.5691
 3819SOL    HW112356   0.075   3.326   5.731  1.1740  1.2541  1.1183
 3819SOL    HW212357   0.221   3.254   5.742 -0.6180 -3.0998 -0.9898
 3820SOL     OW12358   3.662   6.828   2.685  0.0275  0.7667  0.0137
 3820SOL    HW112359   3.661   6.907   2.623  0.0341  1.9919  1.5016
 3820SOL    HW212360   3.740   6.837   2.748 -0.0965 -0.3173  0.3336
 3821SOL     OW12361   6.753   4.198   6.599  0.3270 -0.1739 -0.3704
 3821SOL    HW112362   6.669   4.246   6.625  0.8310 -0.2965  1.6293
 3821SOL    HW212363   6.816   4.262   6.555 -0.5330  0.0616 -1.3074
 3822SOL     OW12364   1.215   5.163   1.822  0.2188  0.5914  0.1244
 3822SOL    HW112365   1.249   5.072   1.845 -0.4734  0.6048  1.2313
 3822SOL    HW212366   1.123   5.176   1.859  0.4300  1.8600  0.2765
 3823SOL     OW12367   2.173   3.416   4.752 -0.1273 -0.0192 -0.0791
 3823SOL    HW112368   2.154   3.395   4.848  0.3798 -1.8408 -0.3407
 3823SOL    HW212369   2.229   3.498   4.747  0.5379 -0.3605  1.2358
 3824SOL     OW12370   6.871   1.486   5.887 -0.2694  0.1266  0.0987
 3824SOL    HW112371   6.831   1.395   5.894 -0.6130 -0.1731 -3.8297
 3824SOL    HW212372   6.798   1.555   5.887 -0.2030  0.1991  0.4354
 3825SOL     OW12373   0.874   6.557   0.920  0.3092 -0.3168 -0.0051
 3825SOL    HW112374   0.958   6.601   0.888  0.7099  0.4608  2.0023
 3825SOL    HW212375   0.842   6.602   1.003  0.1825 -3.1811  1.6150
 3826SOL     OW12376   0.243   1.108   0.864  0.3801  0.2085  0.7398
 3826SOL    HW112377   0.267   1.015   0.837 -0.9982  0.6104 -2.2006
 3826SOL    HW212378   0.300   1.174   0.816 -2.1149  0.9614 -1.4257
 3827SOL     OW12379   6.442   6.693   4.268 -0.1379 -0.3542  0.0947
 3827SOL    HW112380   6.388   6.612   4.247 -1.3015  0.5474 -0.5786
 3827SOL    HW212381   6.497   6.718   4.188 -1.9360  1.0931 -0.7754
 3828SOL     OW12382   5.069   0.831   0.076  0.1175  0.5285 -0.1681
 3828SOL    HW112383   5.120   0.892   0.136  0.5312 -1.5033  1.6591
 3828SOL    HW212384   5.119   0.821  -0.011  0.5629  1.9002 -0.0950
 3829SOL     OW12385   1.068   6.021   3.024 -0.5832 -0.1800  0.3507
 3829SOL    HW112386   1.027   5.930   3.018 -1.1044  0.0370  0.5055
 3829SOL    HW212387   1.133   6.034   2.949 -0.3371 -0.7632  0.4668
 3830SOL     OW12388   6.314   0.578   5.057 -0.5535 -0.1752 -0.2337
 3830SOL    HW112389   6.385   0.542   4.997 -0.2746  0.0588 -0.0517
 3830SOL    HW212390   6.276   0.504   5.113 -1.4694 -0.5655 -1.3481
 3831SOL     OW12391   6.676   3.260   2.189  0.0933 -0.5428 -0.8951
 3831SOL    HW112392   6.654   3.279   2.093  0.4803  0.4910 -0.7952
 3831SOL    HW212393   6.732   3.177   2.194  1.7003  0.4395 -1.7733
 3832SOL     OW12394   6.805   0.502   4.219 -0.1470 -0.3125 -0.1595
 3832SOL    HW112395   6.772   0.543   4.304 -1.1838  1.4814 -1.3793
 3832SOL    HW212396   6.904   0.517   4.212  0.0264 -0.8286  0.8841
 3833SOL     OW12397   1.675   6.705   3.146 -0.5109 -0.1374 -0.0735
 3833SOL    HW112398   1.639   6.798   3.148 -0.8444 -0.2500  2.0743
 3833SOL    HW212399   1.645   6.659   3.063 -1.2162  1.3439 -0.6643
 3834SOL     OW12400   3.583   1.548   5.425  0.1315 -0.1511  0.5477
 3834SOL    HW112401   3.595   1.473   5.360  0.3600  0.7450 -0.4575
 3834SOL    HW212402   3.671   1.568   5.469  0.1277 -0.2799  0.6166
 3835SOL     OW12403   2.911   4.756   4.135 -0.0843  0.3360  0.2156
 3835SOL    HW112404   2.938   4.660   4.137  1.1680  0.6647 -0.3374
 3835SOL    HW212405   2.814   4.763   4.159  0.2682 -0.8788  2.2083
 3836SOL     OW12406   0.490   3.002   6.803 -0.3623 -0.0073 -0.3905
 3836SOL    HW112407   0.474   2.938   6.879  2.0210  1.5736  1.6063
 3836SOL    HW212408   0.576   2.979   6.757 -0.0420  1.0497 -0.3611
 3837SOL     OW12409   3.145   3.189   1.069  0.1360  0.1273 -0.7545
 3837SOL    HW112410   3.221   3.124   1.067 -0.7449 -0.9292 -0.4959
 3837SOL    HW212411   3.078   3.160   1.138  0.3924  2.0736  0.4113
 3838SOL     OW12412   5.182   2.413   3.674 -0.0523  0.4213 -0.6972
 3838SOL    HW112413   5.157   2.333   3.729  1.6292  0.6837  0.5278
 3838SOL    HW212414   5.228   2.382   3.590 -0.8038  0.0834 -0.9995
 3839SOL     OW12415   1.145   0.798   6.881  0.3959  0.1343  0.3922
 3839SOL    HW112416   1.186   0.867   6.941  0.2704 -0.3165  1.0041
 3839SOL    HW212417   1.125   0.716   6.934  2.2120 -1.0727 -0.6928
 3840SOL     OW12418   2.930   0.865   2.367  0.2342 -0.0309  0.0271
 3840SOL    HW112419   3.005   0.801   2.350 -0.3134 -0.5752 -0.3762
 3840SOL    HW212420   2.909   0.915   2.283 -0.1299 -0.1818  0.0270
 3841SOL     OW12421   2.588   6.862   4.688  0.5661 -0.0509 -0.0040
 3841SOL    HW112422   2.533   6.856   4.604 -1.2744 -0.1556  1.1448
 3841SOL    HW212423   2.534   6.829   4.766  3.0877 -2.3672  0.9046
 3842SOL     OW12424   3.679   4.330   6.347  0.5404 -1.0627  0.1223
 3842SOL    HW112425   3.690   4.427   6.371 -0.0254 -0.9545 -0.0386
 3842SOL    HW212426   3.627   4.323   6.262  0.3800 -1.5179  0.2574
 3843SOL     OW12427   4.983   3.619   1.805 -0.0415  0.0978  0.4891
 3843SOL    HW112428   4.963   3.550   1.735  0.9599 -0.7926  1.0459
 3843SOL    HW212429   5.020   3.575   1.886  2.9628  1.4124  0.0031
 3844SOL     OW12430   3.297   5.848   4.389 -0.2089 -0.3936 -0.1589
 3844SOL    HW112431   3.372   5.791   4.421  1.2407  1.0381 -0.8786
 3844SOL    HW212432   3.313   5.943   4.415 -1.7908 -0.0437 -0.3277
 3845SOL     OW12433   3.933   3.863   3.885 -0.0868 -0.3808 -0.2088
 3845SOL    HW112434   3.882   3.777   3.880  0.5816 -0.7692 -0.5494
 3845SOL    HW212435   3.891   3.930   3.824  0.0718 -0.8385 -0.8267
 3846SOL     OW12436   1.751   5.898   4.678 -0.3740  0.1779  0.3658
 3846SOL    HW112437   1.764   5.992   4.710 -0.7789  0.3375  0.0587
 3846SOL    HW212438   1.806   5.836   4.735  1.1327  0.7586 -0.3995
 3847SOL     OW12439   0.875   6.824   1.969  0.0838 -0.3574 -0.1060
 3847SOL    HW112440   0.938   6.893   2.005  0.5924 -1.1687  0.6191
 3847SOL    HW212441   0.784   6.838   2.009 -0.1898  0.7529 -1.0737
 3848SOL     OW12442   4.703   0.049   2.231 -0.2763  0.8843  0.4351
 3848SOL    HW112443   4.793   0.077   2.263  0.4695 -2.3896  1.5428
 3848SOL    HW212444   4.713  -0.020   2.160 -1.9469  1.2662 -0.2157
 3849SOL     OW12445   1.254   1.015   1.633 -0.2386  0.6820  0.5088
 3849SOL    HW112446   1.257   1.115   1.628  1.6246  0.6061 -0.5981
 3849SOL    HW212447   1.343   0.980   1.663 -0.3283 -0.7296 -0.7737
 3850SOL     OW12448   0.960   2.777   0.940 -0.2723  0.6526 -0.6571
 3850SOL    HW112449   1.018   2.735   0.871 -1.1359 -0.8833 -0.4923
 3850SOL    HW212450   0.873   2.804   0.899 -0.4254  0.5933 -0.3776
 3851SOL     OW12451   2.858   1.767   1.641 -0.4440  0.4785  0.0150
 3851SOL    HW112452   2.848   1.673   1.673 -2.6331  0.9662  0.9406
 3851SOL    HW212453   2.919   1.817   1.703  0.6178 -0.2426 -0.4015
 3852SOL     OW12454   5.319   1.982   6.091  0.7032 -0.2434  0.2365
 3852SOL    HW112455   5.326   2.018   5.998  0.3225 -0.7591  0.0055
 3852SOL    HW212456   5.229   2.005   6.129  0.3426 -1.1847 -0.0201
 3853SOL     OW12457   1.417   4.080   1.182 -0.2544  0.3189 -0.2314
 3853SOL    HW112458   1.352   4.144   1.142  0.4922 -0.0914 -2.1859
 3853SOL    HW212459   1.497   4.072   1.123  0.9292 -0.3012  1.3876
 3854SOL     OW12460   1.224   4.216   4.015 -0.2869  0.0811  0.1358
 3854SOL    HW112461   1.266   4.126   4.001  1.6434  0.7125  1.4751
 3854SOL    HW212462   1.173   4.241   3.933  1.1512 -1.2029 -1.2432
 3855SOL     OW12463   1.187   2.232   7.007  0.2573  0.2743 -0.2065
 3855SOL    HW112464   1.270   2.178   7.015 -0.4451 -0.7619  0.2799
 3855SOL    HW212465   1.125   2.189   6.941 -0.1648  0.6861 -0.0889
 3856SOL     OW12466   3.182   5.406   6.194 -0.0537 -0.5426 -0.1611
 3856SOL    HW112467   3.224   5.476   6.136 -0.3261  2.3800  2.8418
 3856SOL    HW212468   3.250   5.371   6.258 -0.9727  0.6786  1.5620
 3857SOL     OW12469   0.968   0.375   4.906  0.0693  0.3821 -0.6334
 3857SOL    HW112470   0.928   0.370   4.815 -0.6126 -0.2299 -0.3155
 3857SOL    HW212471   1.033   0.451   4.911 -0.0987  0.5898 -1.5373
 3858SOL     OW12472   3.163   3.955   6.251  0.4335  0.1006  0.3402
 3858SOL    HW112473   3.113   3.933   6.167  0.9579  0.1710  0.0066
 3858SOL    HW212474   3.228   3.882   6.271  0.2675  0.0536  0.7223
 3859SOL     OW12475   1.116   5.140   1.530 -0.3372  0.2304  0.9487
 3859SOL    HW112476   1.154   5.064   1.477 -1.2272  0.2428  0.2787
 3859SOL    HW212477   1.191   5.197   1.564  0.2568  0.3338 -0.4599
 3860SOL     OW12478   1.906   6.992   5.240 -0.2133  0.8251  0.6378
 3860SOL    HW112479   1.814   6.961   5.264  0.4137 -0.6480  1.3196
 3860SOL    HW212480   1.952   7.025   5.323  0.6302 -0.6198  0.7877
 3861SOL     OW12481   4.219   1.769   6.687  0.6399 -0.0850  0.0025
 3861SOL    HW112482   4.301   1.822   6.665 -0.0573  0.5600 -1.1513
 3861SOL    HW212483   4.138   1.826   6.672 -0.0155 -0.3877  2.0545
 3862SOL     OW12484   6.204   6.238   0.524 -0.1777 -0.3281  0.1773
 3862SOL    HW112485   6.159   6.275   0.605  2.4369 -0.7268  1.9217
 3862SOL    HW212486   6.219   6.311   0.457  0.1897  0.6608  1.3067
 3863SOL     OW12487   4.203   2.275   6.677 -0.0715  0.0840 -0.8669
 3863SOL    HW112488   4.106   2.296   6.683 -0.0440 -0.0262  3.2904
 3863SOL    HW212489   4.255   2.343   6.730  1.8275 -1.2040 -0.9661
 3864SOL     OW12490   2.505   2.351   1.285 -0.4488  0.4195  0.3325
 3864SOL    HW112491   2.442   2.338   1.361  0.5004 -1.2538  0.8921
 3864SOL    HW212492   2.454   2.349   1.199 -1.5863  2.7277  0.8724
 3865SOL     OW12493   4.616   1.761   2.433 -0.5028 -0.1613  0.2250
 3865SOL    HW112494   4.707   1.749   2.393 -1.0231 -1.0798 -0.7470
 3865SOL    HW212495   4.599   1.858   2.451  0.4731  0.0628 -0.0335
 3866SOL     OW12496   3.041   5.742   6.589 -0.0474  0.5515  1.0654
 3866SOL    HW112497   3.105   5.781   6.523 -1.7303  2.2449  0.3207
 3866SOL    HW212498   2.995   5.816   6.638 -2.3735 -0.5004  0.6122
 3867SOL     OW12499   1.985   3.176   4.053  0.0299 -0.2329  0.5989
 3867SOL    HW112500   2.077   3.204   4.022  0.2164 -0.9831  0.4417
 3867SOL    HW212501   1.969   3.211   4.145  0.8481 -0.8548  0.9963
 3868SOL     OW12502   1.088   5.698   2.272 -0.4868  0.1469 -0.2033
 3868SOL    HW112503   1.047   5.624   2.219 -0.1834  0.5302 -0.9924
 3868SOL    HW212504   1.184   5.709   2.246 -0.4066  0.5177  0.2364
 3869SOL     OW12505   6.247   1.545   4.422  0.7476 -0.3447 -0.2479
 3869SOL    HW112506   6.339   1.551   4.381  0.5675 -2.0401 -0.9956
 3869SOL    HW212507   6.218   1.449   4.425  0.0901 -0.1535  2.4924
 3870SOL     OW12508   3.276   1.955   6.915 -0.1643  0.2848  0.3542
 3870SOL    HW112509   3.300   1.866   6.875  0.5171  0.6902 -0.1509
 3870SOL    HW212510   3.317   2.028   6.862 -2.8753  1.0846 -0.8217
 3871SOL     OW12511   2.383   1.548   6.620  0.6904  0.0311 -0.4399
 3871SOL    HW112512   2.387   1.506   6.530  1.3717 -0.1530 -0.3252
 3871SOL    HW212513   2.419   1.642   6.615  1.5743 -0.2811 -0.1930
 3872SOL     OW12514   5.052   4.679   1.303 -0.7073 -0.1026  0.2421
 3872SOL    HW112515   5.040   4.737   1.384 -0.4610 -0.3745  0.4772
 3872SOL    HW212516   4.966   4.633   1.283 -0.2614 -1.6113  1.5793
 3873SOL     OW12517   5.354   5.102   2.120 -0.0068  1.0198  0.4604
 3873SOL    HW112518   5.300   5.125   2.201 -1.0089  0.0512  0.1000
 3873SOL    HW212519   5.431   5.044   2.147  0.0451  1.2412  0.8005
 3874SOL     OW12520   4.361   5.906   5.822 -0.1774 -0.1207 -0.1840
 3874SOL    HW112521   4.414   5.943   5.746  0.1270 -0.8215 -0.3245
 3874SOL    HW212522   4.417   5.904   5.905 -1.0296  2.2617  0.5405
 3875SOL     OW12523   3.307   4.006   6.647  0.0884  0.1615  0.1748
 3875SOL    HW112524   3.233   3.951   6.609 -0.5693  0.7892  0.5141
 3875SOL    HW212525   3.360   4.047   6.573 -0.6705  0.7043 -0.0815
 3876SOL     OW12526   6.786   4.775   2.953  0.4270 -0.0269  0.3280
 3876SOL    HW112527   6.866   4.835   2.950 -0.1729  0.7508 -0.5182
 3876SOL    HW212528   6.800   4.704   3.023  2.0609 -0.2087 -0.1462
 3877SOL     OW12529   5.017   1.812   2.671  0.2498  0.0912 -0.0245
 3877SOL    HW112530   5.078   1.753   2.723  1.6384 -0.1365 -1.8264
 3877SOL    HW212531   4.958   1.863   2.734  2.6345  0.7174  1.8606
 3878SOL     OW12532   5.824   6.045   3.691 -0.0189  0.5959 -0.2056
 3878SOL    HW112533   5.737   6.037   3.738 -0.1032  0.6352 -0.3547
 3878SOL    HW212534   5.897   6.005   3.747  0.0199  1.4453  0.3629
 3879SOL     OW12535   3.302   6.816   0.757  0.5511 -0.0900  0.1804
 3879SOL    HW112536   3.338   6.726   0.783  0.7549 -0.2344 -0.5782
 3879SOL    HW212537   3.224   6.838   0.815  0.1272 -1.0196 -0.0101
 3880SOL     OW12538   0.311   1.808   4.779  0.6370 -0.1216  0.0394
 3880SOL    HW112539   0.263   1.777   4.697 -1.9718  1.0683  0.9876
 3880SOL    HW212540   0.386   1.868   4.753 -0.4076  0.5804 -1.5049
 3881SOL     OW12541   6.374   6.353   6.072 -0.2691 -0.2456  0.0291
 3881SOL    HW112542   6.471   6.340   6.055 -0.4700  0.3300 -1.8126
 3881SOL    HW212543   6.334   6.409   5.999 -1.7825  0.4224  1.2973
 3882SOL     OW12544   1.229   5.758   0.590 -0.0071 -0.5853 -0.9627
 3882SOL    HW112545   1.240   5.681   0.527  0.6044 -0.1464 -1.4131
 3882SOL    HW212546   1.141   5.802   0.574 -0.1782 -0.9385 -0.9941
 3883SOL     OW12547   3.820   0.245   6.562  0.4009 -0.3413  0.3445
 3883SOL    HW112548   3.818   0.145   6.551  0.2354 -0.3429  0.3862
 3883SOL    HW212549   3.914   0.277   6.557  0.4328 -0.4728  0.0834
 3884SOL     OW12550   3.770   5.812   4.532  0.0575  0.4974  0.3003
 3884SOL    HW112551   3.747   5.846   4.441  2.1224  3.4231  0.7248
 3884SOL    HW212552   3.808   5.719   4.525  1.9974  1.3758 -2.1283
 3885SOL     OW12553   0.611   6.772   5.074 -0.3239  0.2288  0.5890
 3885SOL    HW112554   0.575   6.718   5.150 -0.9722  0.0722  0.1852
 3885SOL    HW212555   0.680   6.718   5.025 -0.8901 -0.1939  0.2536
 3886SOL     OW12556   1.074   0.209   5.077  0.3874 -0.1243  0.4111
 3886SOL    HW112557   1.009   0.160   5.136 -0.7423  0.0456 -0.6630
 3886SOL    HW212558   1.024   0.259   5.007  1.6665  0.5131 -0.0729
 3887SOL     OW12559   6.184   3.625   4.244  0.0595 -0.7822 -0.0479
 3887SOL    HW112560   6.182   3.535   4.201  0.5596 -1.0221  0.4138
 3887SOL    HW212561   6.154   3.617   4.340 -1.8205 -0.1349 -0.5254
 3888SOL     OW12562   4.125   1.509   2.836 -0.0612  0.1432 -0.9155
 3888SOL    HW112563   4.128   1.477   2.741 -2.4541 -1.7626 -0.4458
 3888SOL    HW212564   4.030   1.529   2.862  0.5787  0.9725  0.9696
 3889SOL     OW12565   3.680   4.701   5.638 -0.0211  0.3162 -0.4547
 3889SOL    HW112566   3.747   4.715   5.565 -0.0314 -0.0232 -0.5324
 3889SOL    HW212567   3.627   4.619   5.619  1.1336 -0.7715  0.7778
 3890SOL     OW12568   0.445   3.521   2.741  0.4868  0.5862 -0.5496
 3890SOL    HW112569   0.347   3.504   2.728  0.1820  1.1860  0.7657
 3890SOL    HW212570   0.498   3.463   2.679 -0.6924 -0.1527 -0.8883
 3891SOL     OW12571   3.950   3.756   6.573 -0.4552 -0.3828 -0.7121
 3891SOL    HW112572   3.872   3.801   6.616 -0.5157  0.9541 -2.1238
 3891SOL    HW212573   4.023   3.822   6.558  0.4464 -1.3284 -0.6087
 3892SOL     OW12574   6.289   5.736   3.990  0.5833  0.1885 -0.3972
 3892SOL    HW112575   6.278   5.814   4.051 -0.4294 -0.0744 -0.2294
 3892SOL    HW212576   6.296   5.652   4.045 -0.1667 -0.0312 -0.6329
 3893SOL     OW12577   4.278   5.746   5.255  0.0280 -0.1733 -0.1339
 3893SOL    HW112578   4.345   5.818   5.236  0.4749 -0.8154 -1.0982
 3893SOL    HW212579   4.185   5.782   5.241  0.1783  0.6290  0.8915
 3894SOL     OW12580   5.962   6.721   0.355 -0.2402 -0.2748  0.2957
 3894SOL    HW112581   5.999   6.781   0.425  0.9825 -0.0578 -0.5149
 3894SOL    HW212582   5.972   6.625   0.383 -0.1804 -0.1707  0.6212
 3895SOL     OW12583   1.758   0.498   6.303 -0.7759  0.2395 -0.0621
 3895SOL    HW112584   1.815   0.423   6.269  0.0129  0.7202  0.1662
 3895SOL    HW212585   1.769   0.578   6.244 -1.4093  0.2649 -0.1555
 3896SOL     OW12586   6.358   3.590   0.570  0.0002 -0.0937  0.1815
 3896SOL    HW112587   6.296   3.516   0.543  0.4742  0.2462 -2.0150
 3896SOL    HW212588   6.344   3.669   0.510 -0.1084  1.4368  2.1300
 3897SOL     OW12589   1.580   5.825   4.929 -0.5171 -0.0168 -0.4484
 3897SOL    HW112590   1.540   5.789   4.845  0.1400  2.2875 -1.8472
 3897SOL    HW212591   1.555   5.921   4.938  2.5033  0.8131 -0.0269
 3898SOL     OW12592   3.756   3.827   3.030  0.0980  0.0011  0.5023
 3898SOL    HW112593   3.842   3.834   2.979 -0.3093  1.0477 -0.0676
 3898SOL    HW212594   3.713   3.738   3.011  0.1148  0.2426 -0.7311
 3899SOL     OW12595   6.086   3.409   6.798 -0.4446  0.4586 -0.1511
 3899SOL    HW112596   6.011   3.361   6.751 -1.0765  0.5088  0.7838
 3899SOL    HW212597   6.057   3.432   6.891  0.1017  2.0371 -0.3538
 3900SOL     OW12598   0.509   2.267   3.786 -0.0656 -0.0229 -0.3801
 3900SOL    HW112599   0.498   2.211   3.704 -1.9357 -1.0749  0.5306
 3900SOL    HW212600   0.554   2.214   3.858  1.2401  0.7815 -0.5647
 3901SOL     OW12601   4.885   4.430   4.551 -0.3829  0.1189  0.2282
 3901SOL    HW112602   4.791   4.464   4.552  1.0377  4.9023 -1.4890
 3901SOL    HW212603   4.913   4.415   4.456  0.9404  0.0247  0.6249
 3902SOL     OW12604   3.421   5.800   3.646 -0.2194 -0.0675 -0.1581
 3902SOL    HW112605   3.498   5.791   3.582 -0.6138  0.7917 -0.7664
 3902SOL    HW212606   3.359   5.722   3.635  0.2881 -0.5000 -0.0246
 3903SOL     OW12607   2.293   0.834   6.296  0.2726  0.8207 -0.0038
 3903SOL    HW112608   2.365   0.779   6.339  1.1729  0.5925 -1.7278
 3903SOL    HW212609   2.320   0.858   6.203 -0.8937  2.6930  0.0920
 3904SOL     OW12610   0.342   0.135   2.094 -0.2395  0.1501 -0.4175
 3904SOL    HW112611   0.398   0.095   2.166 -0.7132  0.9485  0.4184
 3904SOL    HW212612   0.400   0.159   2.016 -0.0528 -2.8904 -1.3358
 3905SOL     OW12613   3.459   0.040   4.592 -0.0766  0.0593 -0.5867
 3905SOL    HW112614   3.452   0.068   4.496  1.6270  0.0051 -0.7480
 3905SOL    HW212615   3.533   0.090   4.636  0.4385 -1.3328  0.1768
 3906SOL     OW12616   6.669   5.667   3.091 -0.0052  0.0796 -0.1857
 3906SOL    HW112617   6.663   5.589   3.152  1.8667 -0.3201 -0.4450
 3906SOL    HW212618   6.628   5.644   3.003  1.4552 -1.0566 -0.6240
 3907SOL     OW12619   0.926   0.993   3.434  0.4858  0.2433 -0.3728
 3907SOL    HW112620   0.859   0.920   3.419  2.6871 -1.7697 -1.0978
 3907SOL    HW212621   0.886   1.081   3.411 -1.2881 -1.0629 -2.6999
 3908SOL     OW12622   1.792   1.260   3.947  0.1902  0.1527  0.2493
 3908SOL    HW112623   1.707   1.234   3.992  1.1801 -1.3330  1.3394
 3908SOL    HW212624   1.777   1.269   3.848 -1.8609  2.7753  0.7036
 3909SOL     OW12625   5.843   2.850   3.821  0.1504 -0.3012 -0.2345
 3909SOL    HW112626   5.760   2.884   3.865  0.7495  0.0831  0.6232
 3909SOL    HW212627   5.859   2.755   3.849  0.9306  0.1741  1.0020
 3910SOL     OW12628   0.530   5.971   0.397  0.3267  0.1113  0.2544
 3910SOL    HW112629   0.490   6.051   0.442  0.4368  0.2555  0.0947
 3910SOL    HW212630   0.562   5.907   0.467 -3.0353 -1.5178  0.5106
 3911SOL     OW12631   7.007   0.812   0.665  0.0078 -0.6080 -0.3374
 3911SOL    HW112632   7.036   0.863   0.746  2.1226  0.9665 -1.9738
 3911SOL    HW212633   7.087   0.786   0.610 -1.2560 -2.7629 -1.3238
 3912SOL     OW12634   5.434   6.458   0.023 -0.3565  0.6919 -0.1115
 3912SOL    HW112635   5.431   6.558   0.028  2.1207  0.8121  0.5485
 3912SOL    HW212636   5.444   6.420   0.115  0.4942 -0.0296 -0.4819
 3913SOL     OW12637   3.098   3.585   6.735 -0.0783  0.4291  0.0584
 3913SOL    HW112638   3.165   3.522   6.696 -0.2965  0.8169 -0.9927
 3913SOL    HW212639   3.006   3.554   6.712 -0.1781  1.4996 -1.1531
 3914SOL     OW12640   0.122   1.027   1.805 -0.5856  0.1899 -0.1476
 3914SOL    HW112641   0.212   1.068   1.821 -0.6879  0.1756  0.4798
 3914SOL    HW212642   0.059   1.054   1.877 -0.2978 -2.1266  1.0775
 3915SOL     OW12643   5.616   0.492   4.799 -0.5054  0.5996  0.2412
 3915SOL    HW112644   5.648   0.438   4.876  0.4855 -0.0471 -0.5967
 3915SOL    HW212645   5.592   0.584   4.830 -1.7600 -0.1420  1.6081
 3916SOL     OW12646   2.658   0.633   2.380 -0.3642  0.1323 -0.9961
 3916SOL    HW112647   2.578   0.638   2.441  0.6540 -0.1301  0.4219
 3916SOL    HW212648   2.672   0.539   2.351  1.3818 -0.4889  1.5682
 3917SOL     OW12649   3.921   4.883   1.851  0.4875  0.4184  0.5002
 3917SOL    HW112650   3.852   4.914   1.916 -0.4820  0.2425 -0.4256
 3917SOL    HW212651   3.883   4.813   1.791  1.8942 -0.7118  0.8658
 3918SOL     OW12652   4.084   5.846   3.365  0.5489  0.1197  0.1937
 3918SOL    HW112653   4.049   5.752   3.356  1.1173 -0.0373 -0.4622
 3918SOL    HW212654   4.008   5.910   3.354  0.4361 -0.2144 -1.2461
 3919SOL     OW12655   4.918   4.917   2.841  0.3086  0.1226  0.1933
 3919SOL    HW112656   4.951   4.889   2.931  5.3527  2.8102 -0.4361
 3919SOL    HW212657   4.944   4.848   2.773 -1.1884 -0.6752  0.3800
 3920SOL     OW12658   4.243   1.194   6.843 -0.4734  0.1264 -0.3162
 3920SOL    HW112659   4.301   1.268   6.877  0.7073 -0.8735 -0.0593
 3920SOL    HW212660   4.256   1.184   6.744  0.7525 -0.8480 -0.0905
 3921SOL     OW12661   5.545   2.735   5.467 -0.0575 -0.1182 -0.2008
 3921SOL    HW112662   5.595   2.648   5.476  0.1326 -0.0279 -0.3900
 3921SOL    HW212663   5.555   2.770   5.374 -1.6986 -0.8436 -0.6836
 3922SOL     OW12664   6.771   2.300   2.642  0.0104  0.0537  0.1226
 3922SOL    HW112665   6.824   2.280   2.560 -0.4263  1.4455 -0.5229
 3922SOL    HW212666   6.730   2.215   2.677  2.3431 -1.0049  0.4535
 3923SOL     OW12667   6.262   1.496   1.881  0.3067  0.3888  0.1667
 3923SOL    HW112668   6.279   1.564   1.810  0.5662 -0.7738 -0.9393
 3923SOL    HW212669   6.270   1.538   1.971  1.4503  1.5875 -0.4620
 3924SOL     OW12670   4.355   5.127   2.060 -0.1404 -0.6527 -0.1319
 3924SOL    HW112671   4.337   5.163   2.152  1.1539  0.9172 -0.4286
 3924SOL    HW212672   4.285   5.061   2.035 -2.1827  1.0248  0.8511
 3925SOL     OW12673   2.880   4.832   1.908  0.4951 -0.5658 -0.4692
 3925SOL    HW112674   2.935   4.859   1.987 -0.8812  0.2411  0.2475
 3925SOL    HW212675   2.866   4.733   1.909 -2.4890 -0.2757  2.4160
 3926SOL     OW12676   2.775   6.403   0.875 -0.4733 -0.3999  1.4846
 3926SOL    HW112677   2.820   6.409   0.964 -0.8324  0.5774  1.6145
 3926SOL    HW212678   2.801   6.482   0.819 -0.8456 -0.6052  1.0115
 3927SOL     OW12679   6.949   0.924   6.895 -0.3684  0.2880 -0.1313
 3927SOL    HW112680   6.982   0.897   6.986  0.1030  0.7829 -0.1488
 3927SOL    HW212681   6.850   0.912   6.890 -0.3679  0.0560  0.3779
 3928SOL     OW12682   3.778   4.696   0.388 -0.0827 -0.4592 -0.6692
 3928SOL    HW112683   3.771   4.775   0.327  0.7806 -0.2719 -0.5440
 3928SOL    HW212684   3.709   4.627   0.363 -0.2415 -0.0538 -1.3541
 3929SOL     OW12685   0.697   1.164   5.713 -0.1223 -0.3982 -0.3556
 3929SOL    HW112686   0.610   1.194   5.753  0.8234  2.6300 -0.2637
 3929SOL    HW212687   0.713   1.214   5.628  2.0623  0.1278  0.2878
 3930SOL     OW12688   1.826   4.682   4.504 -0.5505 -0.3867  0.0062
 3930SOL    HW112689   1.781   4.762   4.544  0.8406 -0.0326  0.9018
 3930SOL    HW212690   1.760   4.632   4.448 -1.7074  0.8300  0.2306
 3931SOL     OW12691   0.049   1.485   0.201 -0.0460 -0.0418  0.1637
 3931SOL    HW112692   0.044   1.473   0.102  0.7234  1.4432 -0.0876
 3931SOL    HW212693   0.074   1.399   0.244  2.1339 -0.1597 -1.1856
 3932SOL     OW12694   1.259   3.279   2.467 -0.2132 -0.2058  0.2981
 3932SOL    HW112695   1.355   3.250   2.469  0.8520  2.9182  0.7177
 3932SOL    HW212696   1.234   3.318   2.556 -1.8081 -0.7319  0.1100
 3933SOL     OW12697   2.520   6.703   1.391  0.1542  0.5967 -0.3300
 3933SOL    HW112698   2.498   6.648   1.311  0.5593 -0.2907  0.1502
 3933SOL    HW212699   2.615   6.687   1.417 -0.0739  0.5918  0.5394
 3934SOL     OW12700   1.993   5.250   2.604 -0.7272 -0.2530  0.2698
 3934SOL    HW112701   2.020   5.332   2.553 -1.0275 -0.7687 -0.7575
 3934SOL    HW212702   1.919   5.272   2.668 -0.5097  0.3618  0.3126
 3935SOL     OW12703   0.073   1.637   6.080  0.1893  0.5446 -0.1620
 3935SOL    HW112704  -0.010   1.580   6.083 -0.8649  1.8068 -2.2754
 3935SOL    HW212705   0.100   1.650   5.984  0.2805  3.6540  0.1960
 3936SOL     OW12706   5.491   3.489   4.281  0.1807 -0.0681 -0.0073
 3936SOL    HW112707   5.560   3.444   4.338  0.8903 -0.2075 -0.9403
 3936SOL    HW212708   5.494   3.587   4.295  0.2831 -0.1094  0.2612
 3937SOL     OW12709   1.451   5.375   6.881 -0.3811  0.4685 -0.1242
 3937SOL    HW112710   1.364   5.326   6.891 -0.8560  1.1036 -0.9829
 3937SOL    HW212711   1.525   5.322   6.922 -0.8205 -1.1379 -1.3374
 3938SOL     OW12712   6.927   2.939   6.267 -0.0917  0.2135  0.1422
 3938SOL    HW112713   7.019   2.928   6.303 -0.0317  1.0613  0.2769
 3938SOL    HW212714   6.918   2.889   6.180  1.3018  2.1654 -1.2184
 3939SOL     OW12715   2.635   5.451   4.306 -0.3285  0.3466  0.0536
 3939SOL    HW112716   2.579   5.528   4.274  1.1179  0.7643 -1.5842
 3939SOL    HW212717   2.721   5.485   4.343  0.4926 -0.4739 -1.0422
 3940SOL     OW12718   2.857   6.455   0.523 -0.4825  0.5024 -0.2660
 3940SOL    HW112719   2.943   6.456   0.574 -0.5870 -0.3573 -0.0443
 3940SOL    HW212720   2.817   6.363   0.529 -0.4169  0.3259 -2.0300
 3941SOL     OW12721   5.909   5.157   3.567 -0.3645 -0.0118 -0.0906
 3941SOL    HW112722   5.983   5.221   3.586 -0.1442 -0.4850  0.6937
 3941SOL    HW212723   5.909   5.085   3.636 -1.0103 -0.5026 -0.5926
 3942SOL     OW12724   0.267   0.926   6.332 -0.1969  0.7995 -0.1151
 3942SOL    HW112725   0.301   1.007   6.284  0.7495 -0.3790 -1.5511
 3942SOL    HW212726   0.328   0.905   6.409  0.4280  0.6491 -0.6310
 3943SOL     OW12727   0.341   4.314   2.665 -0.7376 -0.3625 -0.1234
 3943SOL    HW112728   0.325   4.399   2.616  0.2798  0.0062  0.1496
 3943SOL    HW212729   0.291   4.315   2.751  0.3505  0.5876  0.5335
 3944SOL     OW12730   5.383   4.255   2.027  0.1483 -0.2429  0.3509
 3944SOL    HW112731   5.295   4.218   2.055  0.6110  0.7421  3.5694
 3944SOL    HW212732   5.371   4.349   1.993 -0.1882 -0.6499 -0.6703
 3945SOL     OW12733   6.669   1.313   2.400 -0.3082  0.6087 -0.1453
 3945SOL    HW112734   6.762   1.302   2.436 -0.1116  0.1091 -0.7843
 3945SOL    HW212735   6.604   1.310   2.476 -0.1120 -2.9079  0.0221
 3946SOL     OW12736   6.865   2.772   1.314  0.0076 -0.3346  0.0934
 3946SOL    HW112737   6.892   2.787   1.218 -0.4237  0.3745  0.0707
 3946SOL    HW212738   6.765   2.760   1.318 -0.6309  3.7287  0.8240
 3947SOL     OW12739   5.659   6.671   1.125  0.1513 -0.6984  0.2091
 3947SOL    HW112740   5.689   6.766   1.130  0.0570 -0.6807  0.4333
 3947SOL    HW212741   5.734   6.613   1.092 -0.0767 -0.4042 -0.8723
 3948SOL     OW12742   1.991   1.414   1.338  0.2429  0.1383  0.1820
 3948SOL    HW112743   1.966   1.318   1.321  1.0120 -0.5664  2.5556
 3948SOL    HW212744   2.021   1.424   1.433 -0.3408  2.8740  0.1715
 3949SOL     OW12745   1.346   0.024   1.586 -1.1126 -0.3777 -0.0719
 3949SOL    HW112746   1.415   0.095   1.594 -2.2139  0.9631 -1.8383
 3949SOL    HW212747   1.363  -0.046   1.655  2.1845 -0.3186 -0.6573
 3950SOL     OW12748   0.957   4.293   0.721 -0.1649  0.6352 -0.5742
 3950SOL    HW112749   0.932   4.227   0.650  0.6318 -0.4946  0.1529
 3950SOL    HW212750   0.930   4.257   0.811  1.2580  0.7819 -0.0637
 3951SOL     OW12751   6.079   1.279   5.125  0.6197 -0.5119 -0.1296
 3951SOL    HW112752   6.087   1.331   5.211  1.8036 -0.8663 -0.0114
 3951SOL    HW212753   6.066   1.343   5.049  2.3614  0.0313 -0.0244
 3952SOL     OW12754   5.333   4.983   0.818 -0.2051  0.7349  0.3776
 3952SOL    HW112755   5.265   4.956   0.750  0.6129  1.1396 -0.6275
 3952SOL    HW212756   5.319   4.931   0.902 -0.9239 -0.1464 -0.2734
 3953SOL     OW12757   2.986   3.756   4.384  0.0814 -0.3543  0.9010
 3953SOL    HW112758   3.074   3.720   4.416 -0.4212 -1.9091  0.6547
 3953SOL    HW212759   2.923   3.762   4.462  0.0067 -0.5264  0.8550
 3954SOL     OW12760   0.809   5.517   5.857  0.3485  0.4543  0.0672
 3954SOL    HW112761   0.829   5.610   5.825  0.9118  1.0286  1.9152
 3954SOL    HW212762   0.750   5.522   5.938  0.8098 -0.7551  0.5074
 3955SOL     OW12763   4.490   4.823   6.559  0.3242  0.2881 -0.0273
 3955SOL    HW112764   4.496   4.744   6.499  0.6029 -0.4340  0.9184
 3955SOL    HW212765   4.491   4.907   6.505  1.9490 -0.2836 -0.9486
 3956SOL     OW12766   6.958   2.548   5.170  0.3393 -0.9761  0.4438
 3956SOL    HW112767   6.916   2.637   5.150  0.8118 -0.9074 -0.2669
 3956SOL    HW212768   6.886   2.479   5.181 -0.0727 -0.3874  1.7023
 3957SOL     OW12769   1.517   3.609   1.379 -0.2150 -0.3563 -0.4354
 3957SOL    HW112770   1.417   3.610   1.383 -0.3754 -1.3180 -2.6277
 3957SOL    HW212771   1.547   3.662   1.300  0.9968 -0.2154  0.1102
 3958SOL     OW12772   5.735   6.930   1.049  0.1548  0.2208  0.4470
 3958SOL    HW112773   5.695   7.021   1.046  0.1888  0.2318  0.3454
 3958SOL    HW212774   5.710   6.880   0.966 -1.5425 -0.5659  1.3589
 3959SOL     OW12775   1.203   6.013   1.228  0.0966 -0.3353 -0.0292
 3959SOL    HW112776   1.155   6.099   1.206 -0.7510 -0.3197  1.6450
 3959SOL    HW212777   1.300   6.023   1.210 -0.2519  0.3130 -1.6842
 3960SOL     OW12778   5.392   2.718   1.177  0.1603  0.0536 -0.3233
 3960SOL    HW112779   5.446   2.635   1.164  0.4448  0.3999 -1.4678
 3960SOL    HW212780   5.454   2.797   1.183 -0.0168  0.0594  2.1585
 3961SOL     OW12781   0.458   1.732   1.656  0.4381 -0.6613 -0.0448
 3961SOL    HW112782   0.460   1.649   1.600  2.3280 -2.2460  2.2144
 3961SOL    HW212783   0.395   1.719   1.733 -0.7605  0.8166 -0.7090
 3962SOL     OW12784   1.529   6.976   5.979 -0.0553 -0.5808  0.2507
 3962SOL    HW112785   1.436   6.947   5.960 -0.1382 -0.5444  0.5914
 3962SOL    HW212786   1.528   7.051   6.045  0.2467 -1.0676  0.8209
 3963SOL     OW12787   5.137   3.260   5.803 -0.4257 -0.1199  0.2839
 3963SOL    HW112788   5.214   3.298   5.854 -0.0030  0.5395 -0.7935
 3963SOL    HW212789   5.053   3.307   5.830 -0.9222 -2.3984  3.1644
 3964SOL     OW12790   3.803   4.197   5.642  0.3125 -0.1593  0.2512
 3964SOL    HW112791   3.783   4.108   5.602  1.6935 -1.1006  1.5161
 3964SOL    HW212792   3.899   4.220   5.626  0.1695  0.7358  0.6224
 3965SOL     OW12793   2.375   3.289   0.411  0.3993  0.1327  0.3259
 3965SOL    HW112794   2.310   3.286   0.335 -0.0961 -1.7191  0.7811
 3965SOL    HW212795   2.365   3.374   0.461 -1.4398  0.0238  0.1847
 3966SOL     OW12796   0.814   1.791   5.246 -0.0690 -0.0309 -0.4403
 3966SOL    HW112797   0.765   1.871   5.281  0.5792 -0.1816  0.8697
 3966SOL    HW212798   0.756   1.742   5.182 -1.7948 -0.4316  1.3494
 3967SOL     OW12799   1.678   6.764   6.154  0.1530  0.2387 -0.1916
 3967SOL    HW112800   1.625   6.846   6.132 -0.1528 -0.0675 -0.6273
 3967SOL    HW212801   1.680   6.751   6.253 -0.7971  0.1272 -0.1748
 3968SOL     OW12802   4.974   3.257   1.247  0.5323 -0.5010 -0.0702
 3968SOL    HW112803   4.881   3.257   1.210  0.2334 -0.7009  0.6686
 3968SOL    HW212804   5.017   3.346   1.230 -0.3999  0.1948  1.0811
 3969SOL     OW12805   0.628   6.449   1.121 -1.0229 -0.1013 -0.4184
 3969SOL    HW112806   0.669   6.433   1.032  0.4169 -0.4213  0.2653
 3969SOL    HW212807   0.663   6.535   1.159 -2.1174  0.3619 -0.4245
 3970SOL     OW12808   4.800   5.739   5.356 -0.5445 -0.1373  0.4972
 3970SOL    HW112809   4.881   5.789   5.387  0.5280  1.2125 -3.8634
 3970SOL    HW212810   4.724   5.803   5.344 -1.3158 -0.8456  1.3845
 3971SOL     OW12811   0.309   0.617   4.435  0.4998 -0.0078 -0.0498
 3971SOL    HW112812   0.377   0.547   4.458  0.6097  0.2792  0.5066
 3971SOL    HW212813   0.338   0.706   4.471 -1.6518 -0.3943  3.0450
 3972SOL     OW12814   1.819   6.900   0.458 -0.4863 -0.1683 -0.2830
 3972SOL    HW112815   1.788   6.993   0.436 -1.2587 -0.8838 -2.5159
 3972SOL    HW212816   1.919   6.900   0.470 -0.4809  0.9437 -0.2543
 3973SOL     OW12817   3.008   3.419   3.036 -0.4620  0.0333  0.0823
 3973SOL    HW112818   2.911   3.440   3.050 -0.1152  1.9980 -0.2188
 3973SOL    HW212819   3.026   3.324   3.065 -2.0792  0.2253  1.9601
 3974SOL     OW12820   5.333   1.509   5.977 -0.0277 -0.1326  0.3986
 3974SOL    HW112821   5.428   1.478   5.982 -0.2869 -1.4132 -1.5979
 3974SOL    HW212822   5.318   1.582   6.044  2.0980 -0.5262  1.3859
 3975SOL     OW12823   0.568   5.281   6.003 -0.0134 -0.1497  0.4057
 3975SOL    HW112824   0.510   5.218   6.055  0.1186 -0.6353 -0.0251
 3975SOL    HW212825   0.664   5.261   6.023  0.0229  0.4543  0.8846
 3976SOL     OW12826   0.859   2.703   3.018  0.6393  0.0353 -0.1847
 3976SOL    HW112827   0.768   2.736   3.043  0.5105 -0.3280 -0.1686
 3976SOL    HW212828   0.866   2.697   2.918  0.4672 -0.4218 -0.1738
 3977SOL     OW12829   2.783   4.465   5.890 -0.6219  0.0220  0.2030
 3977SOL    HW112830   2.881   4.456   5.905 -0.1545  1.6154 -1.4403
 3977SOL    HW212831   2.752   4.554   5.923 -1.0763  0.3577 -1.0441
 3978SOL     OW12832   4.067   1.579   6.852 -0.1608 -0.5389 -0.1410
 3978SOL    HW112833   4.164   1.587   6.829 -0.0859 -0.2784  0.2511
 3978SOL    HW212834   4.052   1.494   6.903 -0.8100 -2.7094 -3.5527
 3979SOL     OW12835   4.025   6.496   2.317  0.6418 -0.2275 -0.5614
 3979SOL    HW112836   4.124   6.490   2.310  0.5747  0.3772 -4.1698
 3979SOL    HW212837   3.999   6.585   2.356  1.4764 -0.5036  0.6630
 3980SOL     OW12838   4.876   3.791   4.926 -0.2602 -0.2891 -0.3257
 3980SOL    HW112839   4.855   3.703   4.968 -0.7512  0.4092  0.9518
 3980SOL    HW212840   4.879   3.781   4.827 -0.1811 -1.7590 -0.1981
 3981SOL     OW12841   0.940   1.987   5.807  0.2168  0.3086 -0.9210
 3981SOL    HW112842   0.895   2.008   5.894 -0.0676 -1.0833 -0.7142
 3981SOL    HW212843   0.926   2.063   5.743 -0.5944  0.8249 -0.1537
 3982SOL     OW12844   1.040   2.999   4.789 -0.0988 -0.2757  0.3699
 3982SOL    HW112845   1.091   3.014   4.704 -0.6529  1.6381  0.3200
 3982SOL    HW212846   0.942   3.000   4.770 -0.2181 -0.5454  0.9380
 3983SOL     OW12847   4.867   1.684   4.806 -0.2028 -0.0582  0.1311
 3983SOL    HW112848   4.933   1.687   4.882  1.2625  1.5971 -1.1128
 3983SOL    HW212849   4.880   1.765   4.748 -2.7787 -0.1402 -0.6754
 3984SOL     OW12850   3.546   6.629   3.566 -0.1666  0.2576  0.6195
 3984SOL    HW112851   3.591   6.550   3.525 -1.1044  0.2333 -0.4023
 3984SOL    HW212852   3.585   6.646   3.657  0.7079 -0.7840  0.4574
 3985SOL     OW12853   0.005   5.203   0.852 -0.7585 -0.0747 -0.0725
 3985SOL    HW112854  -0.013   5.118   0.900 -0.7580 -0.0436 -0.0172
 3985SOL    HW212855   0.103   5.223   0.852 -0.7802  0.0394  0.1091
 3986SOL     OW12856   0.237   2.864   2.121  1.0646  0.2535 -0.5216
 3986SOL    HW112857   0.239   2.886   2.023  0.4571  1.0337 -0.3638
 3986SOL    HW212858   0.166   2.796   2.138 -0.2482  1.6391 -0.3327
 3987SOL     OW12859   0.233   3.510   5.420  0.3139 -0.2879  0.3903
 3987SOL    HW112860   0.297   3.433   5.418 -0.0706 -0.6036 -0.0523
 3987SOL    HW212861   0.281   3.593   5.448  1.2685 -0.1926 -1.3818
 3988SOL     OW12862   5.889   1.149   1.108  0.3168 -0.0137 -0.4885
 3988SOL    HW112863   5.877   1.241   1.071 -0.2185  0.4010  0.6770
 3988SOL    HW212864   5.923   1.155   1.202 -0.2329 -0.9923 -0.2163
 3989SOL     OW12865   4.271   5.574   4.974  0.3696 -0.9358  0.5796
 3989SOL    HW112866   4.354   5.528   5.005  0.4724  0.5347  2.8054
 3989SOL    HW212867   4.257   5.657   5.030 -2.2621 -0.8190 -0.1272
 3990SOL     OW12868   5.887   6.536   5.326 -0.5750  0.0783 -0.4796
 3990SOL    HW112869   5.866   6.578   5.414  0.5923 -1.8952  0.8175
 3990SOL    HW212870   5.844   6.446   5.321 -0.2187 -0.0448 -1.7211
 3991SOL     OW12871   6.994   1.960   2.147 -0.0592  0.2354  0.4314
 3991SOL    HW112872   7.056   2.037   2.136  0.3948 -0.3239 -1.1932
 3991SOL    HW212873   7.035   1.893   2.210  0.5388  0.3246  0.1407
 3992SOL     OW12874   6.953   3.455   4.370 -0.1474  0.2225 -0.1091
 3992SOL    HW112875   6.885   3.514   4.413  0.8775  0.5658  1.0908
 3992SOL    HW212876   7.045   3.487   4.394  0.4344 -1.5756  0.1991
 3993SOL     OW12877   2.543   1.643   4.601 -0.5066 -0.1607 -0.3518
 3993SOL    HW112878   2.459   1.603   4.638 -1.5280  1.5004 -0.7575
 3993SOL    HW212879   2.606   1.664   4.676 -0.7956 -0.6634  0.0355
 3994SOL     OW12880   3.550   1.511   3.728 -0.3587  0.5812 -0.1313
 3994SOL    HW112881   3.496   1.427   3.734 -0.0917  0.2451 -1.9367
 3994SOL    HW212882   3.512   1.580   3.790  0.5350 -1.4076  2.7999
 3995SOL     OW12883   0.006   3.346   2.876 -0.3045 -0.6917 -0.1743
 3995SOL    HW112884  -0.005   3.328   2.778 -2.0567  0.6474 -0.2706
 3995SOL    HW212885   0.065   3.276   2.916  1.0835 -0.8276 -2.3143
 3996SOL     OW12886   6.987   0.363   6.132  0.2607 -0.2972 -0.3147
 3996SOL    HW112887   6.933   0.445   6.113  1.1864  1.2397  2.9957
 3996SOL    HW212888   7.084   0.384   6.119  0.5592 -0.5926  1.2134
 3997SOL     OW12889   5.866   4.055   5.517 -0.0478 -0.3038 -0.5095
 3997SOL    HW112890   5.787   4.034   5.574 -1.1562  1.9164 -1.0991
 3997SOL    HW212891   5.836   4.103   5.434  1.7391 -1.2715 -1.8068
 3998SOL     OW12892   0.493   0.457   5.650  0.0467 -0.4796 -0.1225
 3998SOL    HW112893   0.449   0.396   5.584  1.2653  0.3031 -1.7266
 3998SOL    HW212894   0.423   0.504   5.704 -0.9582 -1.5614 -0.4410
 3999SOL     OW12895   5.558   3.161   1.648 -0.3114 -0.0620 -0.3642
 3999SOL    HW112896   5.485   3.213   1.604 -0.4461 -1.0049 -1.2839
 3999SOL    HW212897   5.521   3.075   1.684  0.0718  0.0867  0.4097
 4000SOL     OW12898   2.321   5.140   3.053  0.2649 -0.5202  0.4597
 4000SOL    HW112899   2.370   5.054   3.065 -0.4498 -0.7843  1.5786
 4000SOL    HW212900   2.237   5.125   3.001  1.0321 -0.1654 -0.9423
 4001SOL     OW12901   1.123   5.119   4.981  0.1571  0.4342 -0.2112
 4001SOL    HW112902   1.084   5.046   5.037 -1.0474  1.0789 -0.1885
 4001SOL    HW212903   1.058   5.194   4.973  1.4579  1.6135 -0.0671
 4002SOL     OW12904   2.555   3.589   5.456  0.3362 -0.3662 -0.1614
 4002SOL    HW112905   2.563   3.563   5.552  2.9897  0.5519 -0.0693
 4002SOL    HW212906   2.518   3.513   5.404  0.4304 -1.4647  1.3139
 4003SOL     OW12907   4.844   0.147   4.905  0.3247 -0.2320 -0.2478
 4003SOL    HW112908   4.859   0.221   4.840  1.0528 -0.2774 -0.1349
 4003SOL    HW212909   4.931   0.118   4.944  0.2452 -2.1279 -1.3497
 4004SOL     OW12910   2.171   4.177   5.411 -0.4542  0.2416  0.3127
 4004SOL    HW112911   2.175   4.085   5.448 -0.5363  0.1174  0.0174
 4004SOL    HW212912   2.262   4.205   5.379 -0.9094 -0.7891 -2.1000
 4005SOL     OW12913   6.274   4.510   1.404  0.4422 -0.2940  0.2720
 4005SOL    HW112914   6.365   4.547   1.424  0.7831 -1.1389  0.3446
 4005SOL    HW212915   6.207   4.584   1.401  1.3280  0.4874 -0.9470
 4006SOL     OW12916   6.438   6.893   1.110 -0.4100 -0.0884 -0.9178
 4006SOL    HW112917   6.523   6.941   1.131 -0.5907  0.4491 -1.3948
 4006SOL    HW212918   6.373   6.905   1.185  0.0701 -0.8549 -0.3557
 4007SOL     OW12919   0.857   0.096   1.460  0.2269 -0.0530  0.0078
 4007SOL    HW112920   0.779   0.092   1.522 -0.0334 -0.7137 -0.3456
 4007SOL    HW212921   0.864   0.009   1.410 -0.0369  0.7354 -1.4447
 4008SOL     OW12922   4.768   1.688   1.743 -0.3061  0.0253  0.1728
 4008SOL    HW112923   4.711   1.770   1.751 -1.3314 -0.7646  1.2309
 4008SOL    HW212924   4.787   1.671   1.646 -2.8411 -0.2985 -0.3569
 4009SOL     OW12925   3.721   1.474   1.775  0.0041  0.0209  0.3618
 4009SOL    HW112926   3.762   1.495   1.864  0.2205 -0.1956  0.3125
 4009SOL    HW212927   3.662   1.393   1.784  1.7712 -1.3921 -0.1664
 4010SOL     OW12928   1.415   5.179   0.687 -0.1537  0.6384 -0.2603
 4010SOL    HW112929   1.366   5.260   0.717  1.8687  1.9161 -0.2269
 4010SOL    HW212930   1.491   5.160   0.750 -2.0341 -2.8600  1.2688
 4011SOL     OW12931   6.744   0.129   0.566 -0.2628 -0.0040 -0.1483
 4011SOL    HW112932   6.711   0.140   0.660 -0.7532  2.0343 -0.5217
 4011SOL    HW212933   6.666   0.114   0.505  0.0103 -0.7848 -0.3163
 4012SOL     OW12934   4.543   5.831   6.752  0.1542  0.2133 -0.1192
 4012SOL    HW112935   4.642   5.823   6.734  0.4965  0.8246  1.3883
 4012SOL    HW212936   4.529   5.877   6.839 -1.3748 -3.8868  2.0380
 4013SOL     OW12937   0.065   1.330   6.428  0.0800  0.1985  0.1198
 4013SOL    HW112938   0.104   1.312   6.337 -2.7307  0.0552 -1.1472
 4013SOL    HW212939   0.046   1.244   6.474 -0.0197  0.2453  0.1657
 4014SOL     OW12940   3.612   5.053   4.131  0.0640  0.1734  0.2359
 4014SOL    HW112941   3.649   5.138   4.170 -0.3033 -0.2328  1.5333
 4014SOL    HW212942   3.670   5.024   4.055  1.3011  0.5816  0.9818
 4015SOL     OW12943   6.318   6.575   6.514  0.1790  0.4610  0.0987
 4015SOL    HW112944   6.364   6.511   6.453 -0.8271  0.0667 -0.2582
 4015SOL    HW212945   6.298   6.530   6.601  1.0100  0.8225  0.4919
 4016SOL     OW12946   6.169   5.159   5.698  0.2482  0.4358  0.3910
 4016SOL    HW112947   6.077   5.119   5.698  1.0540 -1.5108  0.0777
 4016SOL    HW212948   6.206   5.157   5.791  0.0688  1.0147  0.4779
 4017SOL     OW12949   1.972   5.795   1.806  0.3981 -0.5010 -0.3075
 4017SOL    HW112950   1.976   5.857   1.884 -2.9592 -0.8030  0.2978
 4017SOL    HW212951   2.044   5.726   1.814  1.4036  0.6747  1.4076
 4018SOL     OW12952   3.513   6.366   1.655  0.2054  0.2220 -0.0767
 4018SOL    HW112953   3.571   6.420   1.716  0.4068  0.4016 -0.4225
 4018SOL    HW212954   3.417   6.378   1.682  0.1925  1.2342 -0.5004
 4019SOL     OW12955   6.774   3.613   4.485  0.3531 -0.1747  0.1947
 4019SOL    HW112956   6.820   3.697   4.454 -0.6638  1.0013  1.6991
 4019SOL    HW212957   6.819   3.580   4.568  1.3712 -1.7337 -0.9371
 4020SOL     OW12958   7.010   4.460   4.342  0.1910 -0.4342  0.5316
 4020SOL    HW112959   6.932   4.523   4.348  0.3213 -0.4053  2.5295
 4020SOL    HW212960   6.976   4.366   4.344  0.1962 -0.4282  2.0042
 4021SOL     OW12961   4.174   3.615   6.626  0.2503  0.0904 -0.3925
 4021SOL    HW112962   4.136   3.523   6.632 -0.8519  0.5570  0.0582
 4021SOL    HW212963   4.101   3.680   6.610  0.8952  0.9933  0.2228
 4022SOL     OW12964   4.107   0.535   0.689  0.2527 -0.4230  0.3799
 4022SOL    HW112965   4.074   0.629   0.700  1.1028 -0.1481  0.7096
 4022SOL    HW212966   4.113   0.513   0.592  1.6101  0.4606  0.2324
 4023SOL     OW12967   6.983   2.125   4.810 -0.2376 -0.1585  0.7784
 4023SOL    HW112968   7.042   2.139   4.730  1.3101 -3.1568  1.2465
 4023SOL    HW212969   7.025   2.166   4.891 -0.9108  1.2867  0.4310
 4024SOL     OW12970   1.870   6.459   1.015  0.2912  0.9707 -0.5516
 4024SOL    HW112971   1.946   6.437   0.954  1.3128  0.3254  0.8948
 4024SOL    HW212972   1.860   6.559   1.022  1.7266  1.0922  0.0669
 4025SOL     OW12973   0.035   5.530   5.384 -0.3045 -0.3810 -0.5113
 4025SOL    HW112974  -0.058   5.503   5.411 -0.9879  2.3928  0.2803
 4025SOL    HW212975   0.031   5.575   5.294  0.7272 -2.4318 -1.6535
 4026SOL     OW12976   0.637   0.146   3.975  0.4637 -0.1748  0.1852
 4026SOL    HW112977   0.668   0.241   3.985 -0.4438  0.1911 -0.3912
 4026SOL    HW212978   0.689   0.088   4.038  0.0265  0.9315  1.6460
 4027SOL     OW12979   2.095   6.761   5.656  0.1209  0.2296 -0.1400
 4027SOL    HW112980   2.140   6.786   5.571  0.1192  1.1258  0.1083
 4027SOL    HW212981   2.092   6.661   5.665 -1.4847  0.0452 -2.0468
 4028SOL     OW12982   3.201   1.032   4.143  0.1882  0.2790  0.2152
 4028SOL    HW112983   3.133   1.105   4.149 -1.1385 -0.7776 -1.2504
 4028SOL    HW212984   3.180   0.962   4.211 -0.4764 -0.2397 -0.5015
 4029SOL     OW12985   0.942   6.559   5.747  0.3264  0.3470  0.2718
 4029SOL    HW112986   0.946   6.519   5.656 -0.1405 -1.0924  0.8577
 4029SOL    HW212987   0.932   6.659   5.739 -1.4799  0.1073 -1.2882
 4030SOL     OW12988   0.553   0.906   2.610  0.0122  0.1487  0.3316
 4030SOL    HW112989   0.625   0.972   2.628 -0.2429 -0.0819  2.6030
 4030SOL    HW212990   0.512   0.877   2.697  0.1987 -3.0940 -0.5130
 4031SOL     OW12991   5.252   6.820   1.177 -0.0040  0.3295 -0.0831
 4031SOL    HW112992   5.279   6.842   1.083 -1.2466 -0.0270 -0.5437
 4031SOL    HW212993   5.246   6.721   1.188 -0.6146  0.3905  0.1464
 4032SOL     OW12994   0.457   1.192   3.617 -0.3126  0.4353  0.3135
 4032SOL    HW112995   0.469   1.285   3.582 -2.5002  0.2992 -0.9746
 4032SOL    HW212996   0.371   1.154   3.582  0.1739 -1.8213  1.3969
 4033SOL     OW12997   2.496   2.129   2.839 -0.0012 -0.2833 -0.0702
 4033SOL    HW112998   2.484   2.223   2.807 -0.1381 -0.5533 -0.8359
 4033SOL    HW212999   2.437   2.113   2.918  1.7209  0.9594  1.5775
 4034SOL     OW13000   1.374   2.968   3.183  0.1746 -0.4131 -0.0524
 4034SOL    HW113001   1.348   2.984   3.088 -0.8681 -0.8112  0.1417
 4034SOL    HW213002   1.330   3.036   3.241  0.0507 -0.7324  0.2330
 4035SOL     OW13003   3.706   1.545   0.264  0.1795  0.0817 -0.1179
 4035SOL    HW113004   3.751   1.619   0.315  1.9174 -1.0721  0.1144
 4035SOL    HW213005   3.768   1.511   0.194  0.2941 -2.5226  1.1379
 4036SOL     OW13006   3.084   6.207   3.797 -0.5100  0.4067 -0.5770
 4036SOL    HW113007   3.005   6.146   3.802 -0.7699  0.7700 -0.2103
 4036SOL    HW213008   3.073   6.272   3.722  0.5409 -1.0599 -2.0645
 4037SOL     OW13009   1.565   1.781   5.188 -0.1016 -0.0360  0.4903
 4037SOL    HW113010   1.524   1.815   5.104  0.9987  2.0513  0.7408
 4037SOL    HW213011   1.537   1.839   5.264  0.0835 -1.0318  1.3495
 4038SOL     OW13012   3.787   4.861   6.826  0.4881  0.0932  0.0470
 4038SOL    HW113013   3.856   4.802   6.867  1.0721  0.0392 -1.0042
 4038SOL    HW213014   3.717   4.805   6.782  1.3119  0.1683 -1.3936
 4039SOL     OW13015   6.377   5.587   2.657 -0.3280 -0.3687  0.2202
 4039SOL    HW113016   6.289   5.540   2.647  0.1368 -1.1474 -0.2451
 4039SOL    HW213017   6.422   5.593   2.568  0.2020 -0.1860  0.4995
 4040SOL     OW13018   4.259   0.027   2.551 -0.1765  0.3523 -0.3103
 4040SOL    HW113019   4.267   0.126   2.558 -1.9206  0.5339 -0.4680
 4040SOL    HW213020   4.234   0.002   2.457  0.3784 -0.2569 -0.3069
 4041SOL     OW13021   2.990   5.670   1.727  0.0649  0.3192 -0.1293
 4041SOL    HW113022   2.947   5.584   1.756  2.4211 -0.5829  0.9321
 4041SOL    HW213023   3.075   5.650   1.679  0.1871  2.0609 -0.7000
 4042SOL     OW13024   6.676   3.820   1.961  0.4278 -0.0693 -0.4082
 4042SOL    HW113025   6.704   3.735   2.005  1.3533  1.7074  2.7304
 4042SOL    HW213026   6.756   3.873   1.935 -0.1016  0.8678 -0.1785
 4043SOL     OW13027   3.655   1.326   5.264  0.0456 -0.7043  0.9248
 4043SOL    HW113028   3.594   1.282   5.198  1.1777 -0.4334 -0.3411
 4043SOL    HW213029   3.708   1.256   5.312 -0.8082 -0.9046  1.6024
 4044SOL     OW13030   3.159   5.967   3.073 -0.4336  0.8554  0.0318
 4044SOL    HW113031   3.239   5.906   3.075 -0.4788  0.8056  0.3571
 4044SOL    HW213032   3.126   5.975   2.979 -2.0052 -1.7186  0.2712
 4045SOL     OW13033   4.638   1.314   5.471 -0.1044  0.0855 -0.3150
 4045SOL    HW113034   4.583   1.247   5.521  0.5712  0.5487  1.1002
 4045SOL    HW213035   4.626   1.404   5.513 -0.4155  0.7313 -1.7300
 4046SOL     OW13036   5.287   1.300   4.740 -0.0584 -0.2291  0.2179
 4046SOL    HW113037   5.386   1.294   4.725 -0.0769  1.0674 -0.5604
 4046SOL    HW213038   5.241   1.311   4.651 -0.8930 -0.6704  0.5857
 4047SOL     OW13039   2.969   1.360   5.575  0.3197 -0.1476 -0.0930
 4047SOL    HW113040   2.964   1.427   5.501 -1.4506 -0.4114 -0.2395
 4047SOL    HW213041   2.881   1.315   5.587  0.4937  0.0119  2.3195
 4048SOL     OW13042   5.848   2.572   3.905  0.0890 -0.6217  0.6293
 4048SOL    HW113043   5.753   2.549   3.922 -0.1393 -0.9703 -0.9772
 4048SOL    HW213044   5.885   2.513   3.833  1.0271  0.5959  0.0633
 4049SOL     OW13045   2.916   2.593   6.830 -0.2712  0.2629  0.3243
 4049SOL    HW113046   2.853   2.620   6.757  0.7396  1.2371 -0.2046
 4049SOL    HW213047   2.963   2.509   6.805  0.5596  0.9427 -0.4726
 4050SOL     OW13048   0.437   6.164   1.945  0.0376  0.2012  0.0897
 4050SOL    HW113049   0.429   6.211   2.033 -0.2674 -2.3870  1.5671
 4050SOL    HW213050   0.533   6.155   1.920  0.0724  2.5054 -0.8245
 4051SOL     OW13051   6.053   1.310   3.216  0.3588  0.4945  0.0486
 4051SOL    HW113052   6.058   1.218   3.178 -1.9884  0.1429  0.4416
 4051SOL    HW213053   6.145   1.346   3.228  1.3668 -2.0873  0.6346
 4052SOL     OW13054   3.456   2.134   3.339  0.2720  0.0877  0.3604
 4052SOL    HW113055   3.543   2.174   3.367  1.0063 -1.8864  1.0445
 4052SOL    HW213056   3.410   2.196   3.275  1.2936  2.0058  1.4130
 4053SOL     OW13057   6.912   4.579   3.742  0.1393 -0.1316  0.8755
 4053SOL    HW113058   6.865   4.532   3.668  0.2599 -0.1141  0.7864
 4053SOL    HW213059   6.990   4.524   3.772  1.6208  0.9715 -0.7092
 4054SOL     OW13060   5.132   4.294   1.528 -0.0739 -0.3527  0.1926
 4054SOL    HW113061   5.070   4.263   1.456 -0.4100  2.0736 -0.6420
 4054SOL    HW213062   5.106   4.385   1.559  2.4297  0.3385  0.5544
 4055SOL     OW13063   6.728   4.692   0.017  0.3615  0.2008 -0.2947
 4055SOL    HW113064   6.653   4.669  -0.046  1.0359 -1.6842 -0.4715
 4055SOL    HW213065   6.811   4.645  -0.012  0.5235 -1.3414  2.4154
 4056SOL     OW13066   6.461   3.432   0.976 -0.5822  0.5777 -0.2419
 4056SOL    HW113067   6.393   3.483   0.923 -0.1701  0.9904 -0.3814
 4056SOL    HW213068   6.436   3.434   1.073 -1.5887 -0.5711 -0.4580
 4057SOL     OW13069   0.293   4.362   5.312  0.4133  0.4834 -0.3686
 4057SOL    HW113070   0.367   4.421   5.281 -0.8408  1.4364 -1.6727
 4057SOL    HW213071   0.221   4.359   5.242 -0.0929 -1.6557  0.1733
 4058SOL     OW13072   3.109   5.894   3.674 -0.1222 -0.3397 -0.5110
 4058SOL    HW113073   3.103   5.794   3.676  0.1715 -0.3622 -0.6442
 4058SOL    HW213074   3.205   5.922   3.682 -0.3521  0.0003  1.6351
 4059SOL     OW13075   1.806   0.635   3.456  0.5241  0.2582  0.3464
 4059SOL    HW113076   1.883   0.597   3.507  0.8336  1.7974  1.0544
 4059SOL    HW213077   1.758   0.560   3.409  3.9805 -0.5288 -2.3779
 4060SOL     OW13078   0.759   0.428   4.637  0.0744 -0.0048  0.3787
 4060SOL    HW113079   0.824   0.425   4.561  0.8656 -0.2379  1.0452
 4060SOL    HW213080   0.738   0.336   4.668 -0.4405  0.0774  0.2890
 4061SOL     OW13081   1.516   5.213   1.357  0.1396  0.2979 -0.1270
 4061SOL    HW113082   1.607   5.235   1.323  0.4471  0.4014  0.7374
 4061SOL    HW213083   1.455   5.195   1.280  0.6926  0.9901 -0.7366
 4062SOL     OW13084   3.203   2.627   6.127  0.2801 -0.7139 -0.9306
 4062SOL    HW113085   3.235   2.545   6.079 -0.8023 -1.5946 -0.1974
 4062SOL    HW213086   3.104   2.624   6.135  0.2194  0.6758 -0.8590
 4063SOL     OW13087   3.126   5.805   0.371  0.2074 -0.3743 -0.4504
 4063SOL    HW113088   3.146   5.903   0.362  0.3823 -0.4995 -1.4518
 4063SOL    HW213089   3.208   5.757   0.400 -0.0740 -0.1291  0.8189
 4064SOL     OW13090   1.804   0.150   7.004  0.0015 -0.0718 -0.5492
 4064SOL    HW113091   1.738   0.082   6.973 -0.5823  0.2935 -0.1328
 4064SOL    HW213092   1.769   0.197   7.085  0.7561  0.1572 -0.3375
 4065SOL     OW13093   0.704   0.764   3.066  0.2295 -0.6436  0.0306
 4065SOL    HW113094   0.692   0.696   3.138 -0.3847 -0.7645 -0.1786
 4065SOL    HW213095   0.615   0.784   3.024  0.3706  0.4333  0.2158
 4066SOL     OW13096   6.973   4.832   5.924  0.0445  0.3042 -0.0087
 4066SOL    HW113097   6.953   4.914   5.977  2.1558  0.6522  0.3373
 4066SOL    HW213098   6.914   4.757   5.955 -0.1291  1.0241  1.4792
 4067SOL     OW13099   5.499   4.463   6.900 -0.1606 -0.1886 -0.5562
 4067SOL    HW113100   5.592   4.500   6.906 -0.3071  0.1603 -0.4343
 4067SOL    HW213101   5.465   4.474   6.806 -0.2209  0.0325 -0.5097
 4068SOL     OW13102   1.794   2.663   5.913 -0.1550 -0.6286 -0.6233
 4068SOL    HW113103   1.702   2.644   5.880  0.0277 -1.2309 -0.7979
 4068SOL    HW213104   1.804   2.631   6.007 -0.1040 -0.6260 -0.6275
 4069SOL     OW13105   3.903   6.630   6.112  0.3488 -0.0681  0.2828
 4069SOL    HW113106   3.911   6.667   6.204  1.2425  3.0093 -0.8942
 4069SOL    HW213107   3.858   6.697   6.053  0.1094 -1.7929 -1.6113
 4070SOL     OW13108   0.019   3.195   1.950  0.3321 -1.0427 -0.1409
 4070SOL    HW113109  -0.014   3.105   1.919 -0.7675 -0.2746 -1.2993
 4070SOL    HW213110   0.017   3.199   2.049 -1.3126 -1.7130 -0.1149
 4071SOL     OW13111   2.915   6.543   5.141  1.1101  0.3903  0.3158
 4071SOL    HW113112   3.003   6.497   5.149 -0.9488 -4.3680 -0.8383
 4071SOL    HW213113   2.907   6.584   5.050  1.8613  0.2651  0.1856
 4072SOL     OW13114   1.547   6.932   3.190 -0.0010 -0.1742 -0.1903
 4072SOL    HW113115   1.620   6.939   3.258  0.4254 -1.0530 -0.5526
 4072SOL    HW213116   1.464   6.896   3.233 -0.0367  0.2115  0.0731
 4073SOL     OW13117   3.093   3.078   0.739  0.0236  0.7149  0.1121
 4073SOL    HW113118   3.051   3.121   0.819 -0.1093  2.8606 -1.0560
 4073SOL    HW213119   3.056   3.118   0.655  1.3137 -0.3428 -1.0164
 4074SOL     OW13120   1.267   5.105   2.915  0.3599 -0.1831  0.9420
 4074SOL    HW113121   1.268   5.023   2.973  0.8554 -1.0639 -0.2725
 4074SOL    HW213122   1.244   5.079   2.821  1.4380  0.9321  0.3376
 4075SOL     OW13123   6.992   0.484   0.852 -0.4143  0.1760  0.4668
 4075SOL    HW113124   7.075   0.509   0.901  1.0670  2.0384 -2.6772
 4075SOL    HW213125   7.005   0.393   0.810  1.0625  1.3323 -1.7889
 4076SOL     OW13126   0.739   5.764   5.148  0.2609  0.0321  0.1208
 4076SOL    HW113127   0.828   5.806   5.161 -0.3472  1.5676 -0.4234
 4076SOL    HW213128   0.696   5.801   5.066 -1.2335 -0.0324  0.8263
 4077SOL     OW13129   2.457   2.008   0.226 -0.2815  0.0472  0.5317
 4077SOL    HW113130   2.511   1.971   0.302  2.0150  0.9610 -0.5600
 4077SOL    HW213131   2.491   1.972   0.140 -1.7487  0.3259 -0.2005
 4078SOL     OW13132   2.790   5.136   0.634  0.6037 -0.1607 -0.3034
 4078SOL    HW113133   2.771   5.200   0.560  1.1009  0.7463  0.3270
 4078SOL    HW213134   2.878   5.159   0.675 -0.3012  0.2820  1.4999
 4079SOL     OW13135   1.069   2.463   3.577 -0.1339 -0.3032  0.3267
 4079SOL    HW113136   1.156   2.433   3.537  0.2035  0.8233  0.1883
 4079SOL    HW213137   1.040   2.548   3.533  0.4228  1.2024  2.6868
 4080SOL     OW13138   0.121   1.209   5.861  0.1328 -0.3042 -0.1059
 4080SOL    HW113139   0.086   1.143   5.794  0.7340 -2.4529  1.6091
 4080SOL    HW213140   0.152   1.161   5.943  3.0406  1.8561  0.2286
 4081SOL     OW13141   1.582   4.090   4.449  0.3753 -0.5514 -0.1768
 4081SOL    HW113142   1.671   4.048   4.433 -0.0734 -1.0194 -1.6211
 4081SOL    HW213143   1.509   4.025   4.426 -0.3287  0.5618 -1.2392
 4082SOL     OW13144   0.175   4.924   6.298 -0.5912 -0.1238 -0.1919
 4082SOL    HW113145   0.138   4.984   6.227  1.6226  1.8209  0.1925
 4082SOL    HW213146   0.201   4.836   6.258 -1.6435  0.0208 -1.2507
 4083SOL     OW13147   6.440   3.085   5.082 -0.0755 -0.0475  0.4770
 4083SOL    HW113148   6.354   3.129   5.108 -1.2036 -0.9466 -1.5478
 4083SOL    HW213149   6.499   3.152   5.036 -0.8197 -0.0298 -0.4928
 4084SOL     OW13150   0.658   0.012   5.139  0.1108 -0.1128  0.1970
 4084SOL    HW113151   0.658   0.068   5.057 -1.6869  1.0027  0.8919
 4084SOL    HW213152   0.628  -0.081   5.117  0.2875 -0.0057 -0.5033
 4085SOL     OW13153   1.701   3.334   1.097 -0.1487  0.2922 -0.4593
 4085SOL    HW113154   1.669   3.347   1.004  1.6868  2.4084 -0.8745
 4085SOL    HW213155   1.753   3.249   1.104 -0.4253  0.0522 -1.3291
 4086SOL     OW13156   1.515   3.049   0.387 -0.0455  0.2257 -0.8256
 4086SOL    HW113157   1.554   2.957   0.386 -1.4875 -0.4201 -0.1759
 4086SOL    HW213158   1.478   3.070   0.296 -1.8897 -0.8446 -0.3709
 4087SOL     OW13159   2.470   1.865   2.738 -0.2884 -0.3193  0.1010
 4087SOL    HW113160   2.407   1.849   2.662  0.3469  0.6984 -0.6573
 4087SOL    HW213161   2.456   1.957   2.775  1.2611  0.2420 -0.6096
 4088SOL     OW13162   5.754   3.262   0.461 -0.1514 -0.1248  0.3428
 4088SOL    HW113163   5.743   3.228   0.368 -1.5331 -0.0190  0.4430
 4088SOL    HW213164   5.762   3.186   0.525  1.3784 -0.1982  0.1043
 4089SOL     OW13165   6.501   1.200   4.929  0.0065  0.3501  0.2130
 4089SOL    HW113166   6.542   1.114   4.960  2.0001  1.2006  0.1048
 4089SOL    HW213167   6.455   1.244   5.005 -0.9125 -0.7271  0.3059
 4090SOL     OW13168   4.208   4.431   6.794 -0.5489 -0.5230  0.6452
 4090SOL    HW113169   4.179   4.450   6.888  0.3361  0.3589  0.7583
 4090SOL    HW213170   4.307   4.435   6.789 -0.5903 -0.5658 -0.3401
 4091SOL     OW13171   4.487   6.227   1.065  0.0066 -0.9678  0.3168
 4091SOL    HW113172   4.415   6.293   1.084  1.0236 -0.0586  1.1500
 4091SOL    HW213173   4.449   6.150   1.013 -1.3788 -0.1571  0.0841
 4092SOL     OW13174   6.634   0.511   2.957  0.1566  0.2655 -0.1257
 4092SOL    HW113175   6.572   0.522   2.880  0.7643 -0.3139 -0.7112
 4092SOL    HW213176   6.588   0.536   3.041 -0.7392  0.2316 -0.5998
 4093SOL     OW13177   6.542   0.954   3.612  0.8506  0.4435  0.1642
 4093SOL    HW113178   6.509   1.021   3.545  0.3547  0.4786  0.4344
 4093SOL    HW213179   6.478   0.950   3.689  0.0518 -1.4399 -0.5343
 4094SOL     OW13180   2.801   3.603   5.239 -0.6123 -0.1802  0.1564
 4094SOL    HW113181   2.707   3.628   5.259 -0.6645  0.8213 -1.2257
 4094SOL    HW213182   2.828   3.641   5.151  1.5166  0.6435  1.1056
 4095SOL     OW13183   2.166   2.065   6.002 -0.5448 -0.1940 -0.3728
 4095SOL    HW113184   2.118   2.004   6.065 -0.0955  0.0543  0.2184
 4095SOL    HW213185   2.143   2.160   6.023 -0.6671 -0.1282 -0.8098
 4096SOL     OW13186   4.609   3.843   0.566 -0.4820 -0.2970  0.1601
 4096SOL    HW113187   4.566   3.867   0.479 -0.1174  0.5313  0.1910
 4096SOL    HW213188   4.539   3.825   0.635 -0.8467  2.2024  0.5295
 4097SOL     OW13189   3.350   3.284   4.937  0.3500 -0.3591 -0.1701
 4097SOL    HW113190   3.298   3.351   4.884  1.3135  0.7860  0.3004
 4097SOL    HW213191   3.436   3.264   4.891  0.9713  0.2725  0.6693
 4098SOL     OW13192   0.471   4.280   1.168 -0.7534  0.5363  0.2007
 4098SOL    HW113193   0.376   4.274   1.200 -1.4266  0.1621 -1.7497
 4098SOL    HW213194   0.532   4.290   1.247 -2.2496 -0.9083  1.6087
 4099SOL     OW13195   1.497   4.706   3.744  0.0879 -0.4494 -0.1991
 4099SOL    HW113196   1.417   4.754   3.780  0.5232 -0.6869  1.1500
 4099SOL    HW213197   1.544   4.659   3.819  0.2400 -2.1655 -1.3246
 4100SOL     OW13198   3.330   0.440   3.341  0.2165  0.1399 -0.0150
 4100SOL    HW113199   3.258   0.507   3.324  0.5789  0.7144  0.6839
 4100SOL    HW213200   3.397   0.443   3.267  0.3967  0.7689  0.1701
 4101SOL     OW13201   4.750   2.178   0.113  0.0856  0.4255 -0.3966
 4101SOL    HW113202   4.778   2.209   0.204 -2.1028 -0.9576  0.8258
 4101SOL    HW213203   4.720   2.257   0.059  0.8270  1.1944  0.2748
 4102SOL     OW13204   4.601   1.363   1.539 -0.0629  0.1657  0.0361
 4102SOL    HW113205   4.578   1.410   1.625 -2.5258 -3.3564  1.5714
 4102SOL    HW213206   4.673   1.295   1.556  0.7076  0.6541 -1.1631
 4103SOL     OW13207   0.581   6.122   4.369 -0.3428  0.2642  0.5767
 4103SOL    HW113208   0.489   6.161   4.373 -0.4920 -0.1487  1.8634
 4103SOL    HW213209   0.609   6.093   4.461 -0.5319 -3.2629 -0.3159
 4104SOL     OW13210   1.387   4.328   1.630 -0.1332 -0.0570 -0.1857
 4104SOL    HW113211   1.355   4.399   1.567  1.3496  1.7140  0.9219
 4104SOL    HW213212   1.487   4.333   1.637 -0.2844  0.4855  2.9825
 4105SOL     OW13213   6.265   4.137   6.310 -0.4871 -0.6963 -0.3202
 4105SOL    HW113214   6.322   4.119   6.390 -0.5948  1.6834  0.3811
 4105SOL    HW213215   6.169   4.132   6.337 -0.5216  0.4580 -0.1647
 4106SOL     OW13216   6.689   4.197   5.684  0.0999  0.1753 -0.7412
 4106SOL    HW113217   6.645   4.160   5.766 -0.3119 -0.0771 -1.0706
 4106SOL    HW213218   6.785   4.216   5.703 -0.0406  0.3121 -0.1395
 4107SOL     OW13219   6.889   0.016   0.045 -0.2193  0.4685 -0.0385
 4107SOL    HW113220   6.806   0.066   0.068 -1.5752 -2.1216  1.1832
 4107SOL    HW213221   6.965   0.049   0.102 -0.1708  3.2236 -1.5429
 4108SOL     OW13222   5.396   4.515   6.132 -0.0029  0.0026 -0.5683
 4108SOL    HW113223   5.339   4.470   6.063 -0.0387 -0.8188 -0.0191
 4108SOL    HW213224   5.338   4.573   6.189 -0.0343  0.3843 -0.9823
 4109SOL     OW13225   3.349   5.965   1.651 -0.0514 -0.3026  0.1114
 4109SOL    HW113226   3.292   5.996   1.728 -0.5222 -0.5343 -0.1371
 4109SOL    HW213227   3.443   5.953   1.682 -0.2432 -0.4204  0.6671
 4110SOL     OW13228   4.229   2.856   5.400  0.3454 -0.7757  0.0047
 4110SOL    HW113229   4.160   2.905   5.454  2.1034  1.6736  0.1921
 4110SOL    HW213230   4.184   2.810   5.323 -1.5337  0.5813  0.2132
 4111SOL     OW13231   2.922   1.400   6.999  0.1420  0.1197  0.0376
 4111SOL    HW113232   2.962   1.409   6.907 -0.1986 -1.4029 -0.2805
 4111SOL    HW213233   2.928   1.305   7.029  0.5659  0.6668  1.7654
 4112SOL     OW13234   4.102   0.220   6.038  0.2637 -0.0782  0.2029
 4112SOL    HW113235   4.056   0.228   6.127 -0.3632 -1.0112 -0.0318
 4112SOL    HW213236   4.176   0.154   6.044 -0.7860 -1.3420 -0.3554
 4113SOL     OW13237   5.457   4.607   5.668 -0.5619 -0.4605  0.3509
 4113SOL    HW113238   5.384   4.539   5.677 -2.0000  0.9012 -0.7063
 4113SOL    HW213239   5.468   4.656   5.755  0.1354 -1.6306  0.9596
 4114SOL     OW13240   3.461   1.115   3.453  0.1718  0.4849  0.5844
 4114SOL    HW113241   3.522   1.075   3.385  1.3791  1.3896  1.0852
 4114SOL    HW213242   3.416   1.043   3.506  1.8177 -0.2271  1.0675
 4115SOL     OW13243   3.801   5.044   3.139 -0.2761 -0.1371  0.2120
 4115SOL    HW113244   3.795   5.037   3.039 -1.8817 -0.9229  0.3221
 4115SOL    HW213245   3.860   4.971   3.173 -1.3826 -1.2051 -0.0556
 4116SOL     OW13246   3.119   6.171   1.583 -0.2208  0.2286  0.1989
 4116SOL    HW113247   3.146   6.265   1.562  0.9533 -0.0800  0.2318
 4116SOL    HW213248   3.128   6.156   1.682 -2.6342  0.7395  0.5455
 4117SOL     OW13249   6.371   6.230   2.173 -0.5799 -0.4563 -0.2704
 4117SOL    HW113250   6.364   6.200   2.078  0.3692 -1.4153 -0.0595
 4117SOL    HW213251   6.437   6.304   2.180 -1.4296  0.3334 -0.5022
 4118SOL     OW13252   3.567   7.019   5.736 -0.0551  0.0881  0.2858
 4118SOL    HW113253   3.570   7.090   5.665 -0.7127 -0.4189 -0.2567
 4118SOL    HW213254   3.481   7.027   5.786  0.1004 -0.0028  0.5652
 4119SOL     OW13255   3.952   2.191   3.349 -0.6346  0.5659 -0.3104
 4119SOL    HW113256   3.871   2.216   3.403 -1.4499 -2.7180  0.1822
 4119SOL    HW213257   3.924   2.168   3.256 -0.5205 -1.4611  0.1008
 4120SOL     OW13258   5.660   2.204   0.962  0.6169  0.3951 -0.4030
 4120SOL    HW113259   5.701   2.154   0.885 -1.6360 -0.5417 -1.0986
 4120SOL    HW213260   5.593   2.145   1.008  0.0441  1.8067  0.6560
 4121SOL     OW13261   0.235   3.548   3.893 -0.5662 -0.3535 -0.4364
 4121SOL    HW113262   0.186   3.512   3.972 -0.4925  0.4401 -0.0142
 4121SOL    HW213263   0.273   3.473   3.839 -1.6802 -0.9540 -0.4071
 4122SOL     OW13264   2.012   6.390   6.955 -0.0079  0.1145 -0.1636
 4122SOL    HW113265   1.972   6.374   7.045 -0.6210 -0.6545 -0.5606
 4122SOL    HW213266   1.990   6.482   6.925  0.3601  0.4447  0.5457
 4123SOL     OW13267   2.781   6.428   0.125  0.2210  0.0583 -0.0757
 4123SOL    HW113268   2.805   6.382   0.040 -2.0431 -1.6777  0.1487
 4123SOL    HW213269   2.739   6.517   0.105  1.0045  0.3134 -0.6613
 4124SOL     OW13270   5.177   5.487   5.303  0.3478  0.0234  0.3042
 4124SOL    HW113271   5.156   5.394   5.331  0.0499  0.4270  1.4636
 4124SOL    HW213272   5.182   5.492   5.203 -1.1890 -0.8973  0.1628
 4125SOL     OW13273   4.928   1.406   6.991 -0.4963 -0.4227  0.1398
 4125SOL    HW113274   4.958   1.424   6.897  1.5354  3.0005  1.2288
 4125SOL    HW213275   5.007   1.381   7.047 -1.2952 -0.3968  1.3106
 4126SOL     OW13276   0.603   4.900   4.549 -0.8904 -0.1851  0.2684
 4126SOL    HW113277   0.535   4.954   4.502 -1.2018 -1.3823 -0.7161
 4126SOL    HW213278   0.652   4.842   4.483 -0.1924 -0.6936  1.1939
 4127SOL     OW13279   6.944   1.493   3.723 -0.0868 -0.3956 -0.0205
 4127SOL    HW113280   7.008   1.472   3.797  0.7843  1.2517 -0.2471
 4127SOL    HW213281   6.851   1.467   3.750  0.3782 -0.8898  1.1649
 4128SOL     OW13282   0.382   2.402   2.187  0.1722 -0.5852 -0.1461
 4128SOL    HW113283   0.444   2.379   2.111  0.0534  0.2738 -0.5069
 4128SOL    HW213284   0.292   2.426   2.151  0.5360  1.3179  0.1370
 4129SOL     OW13285   5.451   2.059   5.479 -0.5134  0.2104  0.0589
 4129SOL    HW113286   5.485   2.027   5.391  1.6689 -0.4097  1.0653
 4129SOL    HW213287   5.516   2.123   5.519 -0.5099 -0.9493  2.0504
 4130SOL     OW13288   5.690   2.269   0.333  0.1931  0.3510 -0.8246
 4130SOL    HW113289   5.635   2.188   0.319  0.2750  0.6879 -3.8291
 4130SOL    HW213290   5.682   2.300   0.428  0.2733 -3.1632  0.4635
 4131SOL     OW13291   2.371   4.431   4.405  0.8962 -0.4154  0.1503
 4131SOL    HW113292   2.371   4.371   4.485  1.3984  1.2615  1.4691
 4131SOL    HW213293   2.447   4.496   4.412 -0.9400  1.8776 -0.0223
 4132SOL     OW13294   5.231   1.513   2.568  0.0986  0.2111 -0.2761
 4132SOL    HW113295   5.260   1.421   2.595 -0.9159 -0.4793 -1.4224
 4132SOL    HW213296   5.250   1.577   2.642 -1.0168 -1.2859  1.4023
 4133SOL     OW13297   1.050   3.165   0.102  0.0091  0.1735 -0.4504
 4133SOL    HW113298   0.981   3.224   0.060 -0.9453 -0.5499  0.0670
 4133SOL    HW213299   1.107   3.219   0.164  0.1332  0.8460 -1.1461
 4134SOL     OW13300   1.788   1.576   1.848 -0.7007  0.5143 -0.4021
 4134SOL    HW113301   1.691   1.563   1.826 -1.2976  2.2347  0.9526
 4134SOL    HW213302   1.800   1.664   1.894  1.6511  0.6893 -1.2321
 4135SOL     OW13303   1.914   1.438   2.061  0.0442  0.4949 -0.1380
 4135SOL    HW113304   1.832   1.411   2.111  0.7613 -2.4630 -0.3951
 4135SOL    HW213305   1.889   1.491   1.980 -1.4765  0.8100  0.5114
 4136SOL     OW13306   2.119   0.735   2.709 -0.2432  0.3020 -0.3839
 4136SOL    HW113307   2.021   0.719   2.716 -0.2621  0.9121  1.1688
 4136SOL    HW213308   2.168   0.649   2.722 -0.5218  0.4086  1.6907
 4137SOL     OW13309   3.459   4.974   5.502  0.3046 -0.4367 -0.5417
 4137SOL    HW113310   3.539   4.940   5.453  0.3218 -2.2550  0.6646
 4137SOL    HW213311   3.377   4.961   5.447  0.6904  0.5369 -1.3793
 4138SOL     OW13312   3.504   5.144   2.950 -0.0482 -0.2702 -0.3535
 4138SOL    HW113313   3.591   5.114   2.911  0.2967  0.2292  0.0227
 4138SOL    HW213314   3.450   5.191   2.880  1.1995  1.9648  0.0737
 4139SOL     OW13315   0.857   1.552   1.046 -0.2010  0.2969 -0.3051
 4139SOL    HW113316   0.927   1.516   1.108  0.8888  0.4975 -1.3853
 4139SOL    HW213317   0.767   1.540   1.088  0.5529  1.3981  1.7828
 4140SOL     OW13318   2.576   2.002   4.896  0.0604  0.0603 -0.0814
 4140SOL    HW113319   2.613   2.088   4.930  1.3559 -0.4093 -0.2514
 4140SOL    HW213320   2.552   2.011   4.800 -0.8156  0.5236  0.1666
 4141SOL     OW13321   5.650   0.294   0.007 -0.3826 -0.4421  0.1638
 4141SOL    HW113322   5.712   0.351  -0.047  1.0773 -2.3658 -0.3091
 4141SOL    HW213323   5.561   0.289  -0.038 -0.2137  0.6389 -0.3070
 4142SOL     OW13324   5.247   3.292   6.782 -0.1777 -0.1963  0.3123
 4142SOL    HW113325   5.236   3.291   6.882  0.4541  0.1996  0.3859
 4142SOL    HW213326   5.280   3.381   6.753  2.2623 -1.1246  0.0355
 4143SOL     OW13327   0.525   0.807   1.779  0.7888  0.3596  0.4944
 4143SOL    HW113328   0.590   0.769   1.713  0.6248 -0.5436  0.8440
 4143SOL    HW213329   0.557   0.788   1.872  0.3706  0.5171  0.6721
 4144SOL     OW13330   4.234   0.204   2.099  0.2497 -0.5595 -0.0919
 4144SOL    HW113331   4.229   0.188   2.198 -1.1100  1.1304  0.1760
 4144SOL    HW213332   4.320   0.249   2.077  0.5626 -0.9485  0.3131
 4145SOL     OW13333   2.628   1.264   2.722  0.5044  0.0192 -0.3024
 4145SOL    HW113334   2.627   1.363   2.705 -1.7423  0.4891  1.9667
 4145SOL    HW213335   2.688   1.244   2.799 -0.0796 -0.1910  0.1025
 4146SOL     OW13336   4.355   6.439   0.921 -0.9764 -0.0480 -0.7191
 4146SOL    HW113337   4.321   6.471   0.832  0.1274  0.2100 -1.0686
 4146SOL    HW213338   4.390   6.517   0.973 -1.5609 -0.2102 -0.0818
 4147SOL     OW13339   2.635   2.657   5.892  0.5578  0.2806  0.5870
 4147SOL    HW113340   2.686   2.612   5.819 -1.6745  0.3578 -1.1301
 4147SOL    HW213341   2.672   2.748   5.908  0.4398  0.6728 -1.2170
 4148SOL     OW13342   0.373   6.813   1.933 -0.2066 -1.1227 -0.1910
 4148SOL    HW113343   0.403   6.802   1.838 -0.2649 -2.6757 -0.0547
 4148SOL    HW213344   0.306   6.887   1.938  1.0519  0.1380 -1.0555
 4149SOL     OW13345   4.814   5.509   2.456  0.2266 -0.2440 -0.1763
 4149SOL    HW113346   4.850   5.568   2.383 -0.3365  0.5490  0.1820
 4149SOL    HW213347   4.762   5.435   2.415  0.7406 -0.3721 -0.6201
 4150SOL     OW13348   3.902   1.662   5.210 -0.0114  0.1199  0.6711
 4150SOL    HW113349   3.900   1.628   5.304 -2.2951 -0.3144  0.5138
 4150SOL    HW213350   3.969   1.609   5.157  1.2650  0.3438  2.0115
 4151SOL     OW13351   0.288   6.423   4.485 -0.5446 -0.0481  0.2134
 4151SOL    HW113352   0.340   6.432   4.400 -0.7739  1.2969  0.2030
 4151SOL    HW213353   0.312   6.336   4.529  0.7622 -0.0469 -0.4353
 4152SOL     OW13354   2.979   2.886   1.686 -0.0819  0.2748 -0.1324
 4152SOL    HW113355   3.061   2.852   1.730 -0.3080  0.2155  0.2461
 4152SOL    HW213356   2.939   2.960   1.740 -1.4221 -1.0665  0.8005
 4153SOL     OW13357   6.027   6.028   6.179 -0.7482  0.6428  0.0248
 4153SOL    HW113358   5.990   6.098   6.240  0.6179  1.0867  0.3661
 4153SOL    HW213359   6.048   5.946   6.232  0.2934  0.9749  0.1370
 4154SOL     OW13360   4.473   1.658   6.834  0.3345 -0.6960 -0.1312
 4154SOL    HW113361   4.426   1.718   6.769  0.7483 -1.1848 -0.9053
 4154SOL    HW213362   4.564   1.695   6.854  0.2107 -0.5507  0.1654
 4155SOL     OW13363   1.446   3.665   0.116  0.6641  0.3048  0.2353
 4155SOL    HW113364   1.443   3.651   0.215  0.5926 -1.0403  0.0595
 4155SOL    HW213365   1.500   3.593   0.073 -0.2475  0.2182 -0.8147
 4156SOL     OW13366   5.636   1.718   4.667  0.7806 -0.1791  0.7829
 4156SOL    HW113367   5.640   1.733   4.568  0.9756 -1.4298  0.5768
 4156SOL    HW213368   5.547   1.681   4.691  0.2944  1.2707  1.2687
 4157SOL     OW13369   5.152   6.947   3.126 -0.3082 -0.0636 -0.3844
 4157SOL    HW113370   5.248   6.968   3.107 -0.5333  0.2295 -1.2332
 4157SOL    HW213371   5.126   6.989   3.213  0.4143 -0.4087  0.0068
 4158SOL     OW13372   1.430   5.553   1.274 -0.3063  0.8228 -0.2608
 4158SOL    HW113373   1.457   5.574   1.368 -0.8460  0.7073 -0.0818
 4158SOL    HW213374   1.466   5.624   1.213  1.0566  0.2823 -0.1284
 4159SOL     OW13375   1.213   4.011   4.855 -1.0050 -0.5883  0.1695
 4159SOL    HW113376   1.169   4.088   4.901 -0.2846  0.3624 -0.6832
 4159SOL    HW213377   1.292   3.981   4.907  1.6163  2.4107 -1.7147
 4160SOL     OW13378   0.856   0.731   7.024  0.2185  0.6689  0.1227
 4160SOL    HW113379   0.763   0.698   7.006 -0.2031  1.4568  0.7774
 4160SOL    HW213380   0.916   0.653   7.040 -0.3393  0.1521 -0.2447
 4161SOL     OW13381   5.019   1.517   1.160 -0.1181  0.2269 -0.2772
 4161SOL    HW113382   4.928   1.488   1.130 -0.7596  0.1743  1.6111
 4161SOL    HW213383   5.014   1.607   1.202  0.7709  0.3489 -0.3940
 4162SOL     OW13384   1.285   0.776   5.078  0.1477  0.2436 -0.0369
 4162SOL    HW113385   1.349   0.831   5.024  0.3825 -1.2368 -1.3294
 4162SOL    HW213386   1.331   0.744   5.161  0.3571  1.0401  0.1647
 4163SOL     OW13387   6.202   1.706   5.616  0.1279 -0.6130 -0.2623
 4163SOL    HW113388   6.302   1.713   5.617  0.3508 -2.8411  0.0042
 4163SOL    HW213389   6.165   1.763   5.543  1.3240  2.2569  1.2077
 4164SOL     OW13390   3.186   6.450   6.820 -0.1076 -0.1907  0.1905
 4164SOL    HW113391   3.187   6.357   6.857 -0.8917 -0.2364  0.1206
 4164SOL    HW213392   3.137   6.451   6.733 -0.6341  0.3868  0.4843
 4165SOL     OW13393   0.980   5.508   3.039 -0.2478 -0.1606  0.4619
 4165SOL    HW113394   1.054   5.575   3.046  0.1592 -0.6614  1.1285
 4165SOL    HW213395   0.906   5.546   2.984 -0.2790  1.0694  1.3028
 4166SOL     OW13396   0.549   2.781   2.543  0.1253  0.1005 -0.1734
 4166SOL    HW113397   0.576   2.877   2.551  1.6419 -0.4006  1.4376
 4166SOL    HW213398   0.628   2.727   2.512  0.0758 -0.9412  1.3752
 4167SOL     OW13399   2.204   3.290   0.183 -0.6175 -0.3552  0.3323
 4167SOL    HW113400   2.233   3.209   0.133  2.1163  1.0240 -0.5113
 4167SOL    HW213401   2.175   3.360   0.118 -1.2105 -0.0159  0.9494
 4168SOL     OW13402   1.107   6.683   0.845  0.1854 -0.3925 -0.0876
 4168SOL    HW113403   1.168   6.747   0.892  1.0107 -0.6468 -0.7983
 4168SOL    HW213404   1.137   6.671   0.751 -1.7492  0.5041 -0.8587
 4169SOL     OW13405   4.768   3.749   6.681 -0.0836  0.1443 -0.2680
 4169SOL    HW113406   4.708   3.670   6.695  0.5685 -0.0835  1.4663
 4169SOL    HW213407   4.863   3.720   6.687  0.2003  0.7492 -1.5574
 4170SOL     OW13408   4.874   6.154   3.676  0.3017 -0.2386  0.1517
 4170SOL    HW113409   4.875   6.244   3.631 -2.9611  0.4747  1.2393
 4170SOL    HW213410   4.900   6.165   3.772 -0.3816 -0.3773  0.3586
 4171SOL     OW13411   6.301   3.955   6.800 -0.1111 -0.1598  0.7720
 4171SOL    HW113412   6.399   3.943   6.788 -0.2248  0.0500 -0.5474
 4171SOL    HW213413   6.279   3.964   6.897  1.3898  1.6165  0.9895
 4172SOL     OW13414   3.395   0.869   6.703  0.0621  0.0256 -0.0016
 4172SOL    HW113415   3.445   0.953   6.725  0.5609 -0.7196  1.8775
 4172SOL    HW213416   3.325   0.852   6.772 -1.7218  0.1395 -1.6811
 4173SOL     OW13417   4.347   0.972   0.586 -0.0945 -0.2716  0.6316
 4173SOL    HW113418   4.251   1.000   0.588  0.2781  1.2580 -0.8189
 4173SOL    HW213419   4.352   0.874   0.563 -1.2915 -0.2137  0.0356
 4174SOL     OW13420   5.598   0.570   4.047  0.2801  0.6559 -0.4271
 4174SOL    HW113421   5.512   0.536   4.010 -0.1246  0.3636  0.7304
 4174SOL    HW213422   5.627   0.511   4.123  2.7086 -0.6535 -2.2117
 4175SOL     OW13423   2.670   0.352   2.367 -0.2739 -0.0289 -0.5392
 4175SOL    HW113424   2.596   0.312   2.421 -0.5907  0.0032 -0.9531
 4175SOL    HW213425   2.758   0.330   2.410 -0.5883  1.3544  0.8840
 4176SOL     OW13426   5.230   6.240   3.687 -0.3424  0.1496  0.8244
 4176SOL    HW113427   5.276   6.151   3.684  1.0218  0.8204  1.0290
 4176SOL    HW213428   5.256   6.288   3.772  0.5787  1.5590 -0.2060
 4177SOL     OW13429   6.985   5.846   3.516  0.4766  0.2683 -0.5194
 4177SOL    HW113430   6.907   5.798   3.476  1.2055  0.4339 -2.2277
 4177SOL    HW213431   6.966   5.867   3.612  1.1667 -5.9527  1.4498
 4178SOL     OW13432   5.412   1.213   5.257 -0.1915 -0.2388 -0.3383
 4178SOL    HW113433   5.348   1.215   5.334 -0.7937 -2.1736 -0.7410
 4178SOL    HW213434   5.501   1.248   5.287 -0.7200  0.0986  0.9177
 4179SOL     OW13435   5.021   4.234   5.729 -0.5864  0.4613  0.1750
 4179SOL    HW113436   5.070   4.153   5.762 -0.3408 -0.0998 -1.4523
 4179SOL    HW213437   5.017   4.232   5.629 -2.2395  1.5089  0.1811
 4180SOL     OW13438   3.847   3.648   2.117 -0.2995 -0.0948 -0.0022
 4180SOL    HW113439   3.792   3.575   2.077 -0.1514 -1.4851  2.2168
 4180SOL    HW213440   3.942   3.639   2.087 -0.5089 -0.0465 -0.7043
 4181SOL     OW13441   0.128   0.811   1.510  0.1268 -0.3418  0.2225
 4181SOL    HW113442   0.159   0.782   1.600 -0.2805 -0.2166  0.4040
 4181SOL    HW213443   0.181   0.890   1.480 -0.7786  0.6010  1.0389
 4182SOL     OW13444   6.451   0.144   4.884  0.2246 -0.4020 -0.7307
 4182SOL    HW113445   6.369   0.094   4.858  0.6115 -1.5971  0.2414
 4182SOL    HW213446   6.494   0.182   4.802 -1.9124  1.2990 -1.1463
 4183SOL     OW13447   3.666   1.897   1.648 -0.1334  0.0355 -0.1264
 4183SOL    HW113448   3.751   1.848   1.630 -1.7466 -3.8183  1.5824
 4183SOL    HW213449   3.672   1.941   1.738  0.0505 -0.1645 -0.0394
 4184SOL     OW13450   3.665   4.831   0.871 -0.7083 -0.3239  1.1529
 4184SOL    HW113451   3.609   4.905   0.833 -0.3604 -0.4230  0.4293
 4184SOL    HW213452   3.735   4.870   0.930 -1.1165 -0.1496  1.5308
 4185SOL     OW13453   1.783   1.350   4.777  0.0205 -0.2092 -0.0095
 4185SOL    HW113454   1.876   1.327   4.804 -0.0704 -0.2502  0.2800
 4185SOL    HW213455   1.764   1.446   4.801 -0.0190 -0.2086 -0.0424
 4186SOL     OW13456   3.543   4.419   1.662  0.3200  0.3789  0.3267
 4186SOL    HW113457   3.542   4.502   1.717  0.7471  1.1454 -0.7764
 4186SOL    HW213458   3.449   4.388   1.647  0.1196  0.9870  0.2851
 4187SOL     OW13459   4.447   0.221   6.570  0.6602 -0.6905 -0.1544
 4187SOL    HW113460   4.362   0.197   6.617 -1.0820 -0.3709 -2.8962
 4187SOL    HW213461   4.462   0.320   6.577 -1.1675 -0.1689 -2.4945
 4188SOL     OW13462   5.266   1.029   4.628  0.4446  0.1271 -0.4365
 4188SOL    HW113463   5.299   1.034   4.722  0.6983  1.1771 -0.5721
 4188SOL    HW213464   5.176   1.072   4.621 -0.4221 -1.5861 -0.3257
 4189SOL     OW13465   0.351   3.506   1.471  0.3058 -0.5934  0.4891
 4189SOL    HW113466   0.290   3.510   1.550 -0.4314 -1.7974  0.0055
 4189SOL    HW213467   0.297   3.505   1.387  1.0234  5.4644 -0.4719
 4190SOL     OW13468   1.206   0.164   1.974 -0.1447  0.3718  0.0495
 4190SOL    HW113469   1.225   0.240   1.912  0.8246 -0.8935 -1.2813
 4190SOL    HW213470   1.292   0.125   2.007 -0.5710 -0.7604 -0.1025
 4191SOL     OW13471   0.551   6.607   3.793 -0.0633  0.2483  0.9443
 4191SOL    HW113472   0.452   6.618   3.799 -0.0539 -0.4649  2.7567
 4191SOL    HW213473   0.589   6.685   3.744 -1.4206  1.0406  1.0903
 4192SOL     OW13474   6.592   1.978   3.791  0.1968  0.0526 -0.3118
 4192SOL    HW113475   6.566   1.914   3.718  1.1957 -1.3773  0.5248
 4192SOL    HW213476   6.577   1.934   3.879  0.8468  1.0119  0.2895
 4193SOL     OW13477   2.129   6.133   2.441 -0.4825  0.2318  0.2416
 4193SOL    HW113478   2.135   6.042   2.400 -0.4754  1.1796 -1.9753
 4193SOL    HW213479   2.216   6.181   2.431 -0.9974  1.1107 -0.1921
 4194SOL     OW13480   4.697   0.914   3.276 -0.2955 -0.5016 -0.1368
 4194SOL    HW113481   4.697   0.830   3.221 -1.8777 -0.7666  0.2069
 4194SOL    HW213482   4.776   0.969   3.253  0.4526 -1.8103 -0.8163
 4195SOL     OW13483   5.556   1.261   3.236 -0.3266  0.4395  0.8510
 4195SOL    HW113484   5.588   1.255   3.331 -1.2644 -0.3350  1.1476
 4195SOL    HW213485   5.613   1.203   3.178 -1.3936 -1.3110  1.4515
 4196SOL     OW13486   5.900   3.303   3.813  0.5705  0.0905  0.2404
 4196SOL    HW113487   5.986   3.351   3.802  1.9091 -2.6424 -2.8310
 4196SOL    HW213488   5.889   3.275   3.909  2.0926  2.1114  1.0571
 4197SOL     OW13489   5.517   3.705   5.646  0.1103  0.5156  0.0145
 4197SOL    HW113490   5.455   3.709   5.725  1.2469 -0.6272  1.0073
 4197SOL    HW213491   5.470   3.663   5.569 -0.3712 -0.3746  0.7652
 4198SOL     OW13492   5.921   2.352   6.622 -0.1769  0.4780  0.1627
 4198SOL    HW113493   5.961   2.364   6.532  0.8907 -0.8844  0.4249
 4198SOL    HW213494   5.849   2.282   6.618  0.6746 -0.4511  0.5545
 4199SOL     OW13495   2.886   3.772   6.106 -0.0243 -0.3048  0.3167
 4199SOL    HW113496   2.856   3.867   6.106 -1.1067 -0.6286  0.1718
 4199SOL    HW213497   2.947   3.756   6.028  1.5821  0.6634  1.3078
 4200SOL     OW13498   3.006   5.532   0.361 -0.5441  0.2288  0.3555
 4200SOL    HW113499   3.044   5.505   0.449  2.3166  0.3338 -0.7480
 4200SOL    HW213500   3.031   5.627   0.342 -1.7804  0.4494 -0.2818
 4201SOL     OW13501   4.879   6.591   4.714 -0.4137 -0.3612 -0.5049
 4201SOL    HW113502   4.907   6.687   4.708 -1.3200 -0.1079 -0.7980
 4201SOL    HW213503   4.814   6.579   4.789  0.9200 -1.0643  0.5709
 4202SOL     OW13504   5.242   2.825   4.518  0.5932  0.4974 -0.5963
 4202SOL    HW113505   5.282   2.862   4.434 -1.3416  1.5452 -1.1100
 4202SOL    HW213506   5.167   2.763   4.495  0.6638  0.0238  0.3729
 4203SOL     OW13507   2.753   5.674   3.538 -0.5952 -0.6772  0.8573
 4203SOL    HW113508   2.820   5.689   3.465  2.0405 -0.4795  3.1304
 4203SOL    HW213509   2.661   5.670   3.499  0.3523  2.1626 -2.1375
 4204SOL     OW13510   0.590   3.517   6.259 -1.1067 -0.4105  0.0813
 4204SOL    HW113511   0.636   3.562   6.336 -2.0281 -0.9974  0.9988
 4204SOL    HW213512   0.554   3.586   6.197  0.9280  0.0708 -0.6388
 4205SOL     OW13513   1.975   4.449   3.578  0.7316 -0.8941 -0.2431
 4205SOL    HW113514   1.942   4.384   3.647 -0.1961 -0.7682 -0.5494
 4205SOL    HW213515   2.068   4.477   3.600 -0.0617  0.3149  1.8128
 4206SOL     OW13516   6.407   0.518   4.305  0.4619 -0.2406  0.6439
 4206SOL    HW113517   6.465   0.599   4.317  0.4158  0.0032 -0.6409
 4206SOL    HW213518   6.319   0.546   4.266  0.1192 -0.8211  0.9839
 4207SOL     OW13519   1.422   1.157   1.393  0.6588  0.3625  0.6375
 4207SOL    HW113520   1.462   1.066   1.395 -0.8539 -0.3530 -0.1306
 4207SOL    HW213521   1.478   1.218   1.337  0.8433 -0.5184 -0.1449
 4208SOL     OW13522   0.047   3.174   1.600 -0.8021  0.6203 -0.3670
 4208SOL    HW113523  -0.052   3.167   1.608 -0.8799 -1.9878 -2.2836
 4208SOL    HW213524   0.087   3.082   1.608  1.5289  1.6428  0.6742
 4209SOL     OW13525   4.360   6.377   3.874  0.1846  0.5127  0.3965
 4209SOL    HW113526   4.377   6.311   3.948  3.0160  1.9206  1.1113
 4209SOL    HW213527   4.394   6.340   3.788 -3.0472 -1.0953 -0.3684
 4210SOL     OW13528   3.882   1.778   6.803 -0.2686 -0.1093 -0.7055
 4210SOL    HW113529   3.946   1.855   6.807  0.5229 -0.7676  3.5631
 4210SOL    HW213530   3.933   1.692   6.809 -1.3880 -0.7521 -0.0792
 4211SOL     OW13531   4.648   4.397   4.032  0.2316 -0.1667 -0.4225
 4211SOL    HW113532   4.610   4.389   4.125  1.7155 -0.3361  0.1891
 4211SOL    HW213533   4.643   4.492   4.003  0.0635 -0.0519 -0.0306
 4212SOL     OW13534   0.493   0.725   2.878  0.3464  0.1419  0.4778
 4212SOL    HW113535   0.465   0.636   2.914  1.6442 -0.9675 -1.0883
 4212SOL    HW213536   0.423   0.793   2.899 -0.8491 -1.3136  1.4155
 4213SOL     OW13537   0.719   6.226   3.531 -0.4647 -0.0985 -0.4994
 4213SOL    HW113538   0.763   6.156   3.587 -0.1045  0.0189 -0.6366
 4213SOL    HW213539   0.733   6.205   3.434  0.3053  0.5743 -0.5447
 4214SOL     OW13540   2.100   4.320   4.085 -0.0765  0.5428  0.6015
 4214SOL    HW113541   2.183   4.374   4.073  0.3489 -0.1436  0.3824
 4214SOL    HW213542   2.106   4.269   4.171  0.3098 -0.4826 -0.0071
 4215SOL     OW13543   2.570   4.388   6.178 -0.1129 -0.0525 -0.2143
 4215SOL    HW113544   2.565   4.377   6.277 -1.4066  0.1257 -0.2441
 4215SOL    HW213545   2.592   4.483   6.156  1.6570 -0.3931 -0.1046
 4216SOL     OW13546   1.637   2.205   4.804  0.4416  0.8503  0.1298
 4216SOL    HW113547   1.589   2.285   4.768  0.1928  0.9145  0.5980
 4216SOL    HW213548   1.658   2.142   4.729 -0.2797  0.8698 -0.0910
 4217SOL     OW13549   5.427   1.692   4.402 -0.5872 -0.5097  0.4142
 4217SOL    HW113550   5.508   1.683   4.344 -1.8183 -0.9783 -1.3444
 4217SOL    HW213551   5.403   1.789   4.412 -0.4847 -0.4337 -0.0605
 4218SOL     OW13552   4.358   5.301   1.165 -0.0507 -0.1745 -0.1825
 4218SOL    HW113553   4.418   5.312   1.087  0.6882 -1.0736  0.2383
 4218SOL    HW213554   4.328   5.390   1.197  2.1738  0.4092  0.4479
 4219SOL     OW13555   5.379   1.996   2.780 -0.2599 -0.4200  0.4123
 4219SOL    HW113556   5.340   2.054   2.709 -2.1408 -2.0092  0.0595
 4219SOL    HW213557   5.337   2.018   2.868  0.9321  0.4822  0.7810
 4220SOL     OW13558   5.645   4.396   3.324 -0.0831  0.0019 -0.5538
 4220SOL    HW113559   5.546   4.413   3.325 -0.0842  0.0671  1.4378
 4220SOL    HW213560   5.693   4.473   3.366  0.9831  0.6233 -2.7593
 4221SOL     OW13561   5.425   6.844   6.561  0.3930  0.1631  0.5559
 4221SOL    HW113562   5.512   6.879   6.528  1.0089  1.1632  2.9986
 4221SOL    HW213563   5.440   6.785   6.640 -1.0962 -0.3196  0.5156
 4222SOL     OW13564   2.937   2.868   6.694 -0.1421 -0.1116  0.1470
 4222SOL    HW113565   2.977   2.780   6.718 -0.9023  0.0047  2.0278
 4222SOL    HW213566   2.997   2.942   6.724 -1.5764  0.0658  3.0386
 4223SOL     OW13567   3.187   4.062   2.642  0.1330 -0.2271  0.1592
 4223SOL    HW113568   3.219   4.080   2.549 -0.2103  1.1240  0.2755
 4223SOL    HW213569   3.258   4.090   2.708  0.4616 -1.3769  0.3129
 4224SOL     OW13570   4.435   0.644   3.898  0.5774 -0.1690  0.2624
 4224SOL    HW113571   4.533   0.648   3.920  0.6480 -0.3450 -0.0109
 4224SOL    HW213572   4.385   0.704   3.959  0.7525 -0.7709  1.0173
 4225SOL     OW13573   5.441   5.997   4.467  0.1866 -0.1450 -0.4367
 4225SOL    HW113574   5.457   6.090   4.497 -2.0083  0.6163 -1.3847
 4225SOL    HW213575   5.425   5.938   4.546 -0.5399  0.7531  0.0960
 4226SOL     OW13576   3.280   0.577   1.800  0.2023 -0.9350  0.3269
 4226SOL    HW113577   3.203   0.533   1.754  0.4323 -0.4438 -0.5362
 4226SOL    HW213578   3.253   0.600   1.894 -1.0162  0.0069 -0.2109
 4227SOL     OW13579   2.938   3.157   6.553  0.4631 -0.3260 -0.2957
 4227SOL    HW113580   2.959   3.226   6.484  2.9413 -0.9586 -0.2503
 4227SOL    HW213581   2.991   3.074   6.534  0.9715 -0.6342  2.1699
 4228SOL     OW13582   4.538   5.819   2.548 -0.1391 -0.0313  0.4818
 4228SOL    HW113583   4.623   5.854   2.510 -0.5471  0.4312 -0.0270
 4228SOL    HW213584   4.555   5.733   2.595  0.5507 -0.1050  0.1055
 4229SOL     OW13585   4.729   4.224   4.966  0.5026 -0.5947  0.9336
 4229SOL    HW113586   4.781   4.285   4.907 -1.7103 -1.4203 -2.0801
 4229SOL    HW213587   4.644   4.270   4.995  1.3605 -0.3456  3.2916
 4230SOL     OW13588   2.897   6.840   2.734 -0.0516 -0.3403  0.1891
 4230SOL    HW113589   2.986   6.878   2.708 -1.4436  1.7699 -1.8857
 4230SOL    HW213590   2.874   6.764   2.673  0.4708 -1.2099  1.0345
 4231SOL     OW13591   4.285   5.163   6.689 -0.0883  0.2136 -0.0473
 4231SOL    HW113592   4.319   5.218   6.612  1.1736  2.1834  1.7905
 4231SOL    HW213593   4.207   5.109   6.660  1.0808 -0.0466 -3.0053
 4232SOL     OW13594   2.087   4.608   0.662 -0.1223 -0.6416  0.1136
 4232SOL    HW113595   2.028   4.530   0.642  0.3862 -1.2157  0.7985
 4232SOL    HW213596   2.141   4.630   0.581 -1.1934 -0.1618 -0.4963
 4233SOL     OW13597   6.458   0.712   0.145  0.4698  0.0286  0.3625
 4233SOL    HW113598   6.408   0.784   0.098  2.9738  1.0278 -0.9978
 4233SOL    HW213599   6.485   0.745   0.236 -2.1847 -0.9563  1.6031
 4234SOL     OW13600   4.874   2.875   6.774  0.3823  0.3604  0.3454
 4234SOL    HW113601   4.845   2.969   6.793 -2.0852 -0.2204 -0.2309
 4234SOL    HW213602   4.902   2.831   6.859 -0.3786  1.0087  0.9533
 4235SOL     OW13603   0.579   3.806   5.693 -0.3026  0.0019 -0.3025
 4235SOL    HW113604   0.666   3.852   5.704 -0.7486  1.2255 -1.5252
 4235SOL    HW213605   0.514   3.839   5.762  0.0007 -0.4148  0.1859
 4236SOL     OW13606   1.199   3.247   3.769  0.1759  0.6392  0.0389
 4236SOL    HW113607   1.284   3.197   3.785  0.8421  1.9249  0.6799
 4236SOL    HW213608   1.130   3.216   3.835  0.7795  0.9904  0.8619
 4237SOL     OW13609   6.838   4.920   5.674 -0.3930 -0.5670  1.0771
 4237SOL    HW113610   6.902   4.925   5.751 -0.2916  1.2082  0.9154
 4237SOL    HW213611   6.745   4.903   5.709 -0.5514  1.4516  1.7347
 4238SOL     OW13612   5.571   4.196   5.700  0.2480  0.1348 -0.1876
 4238SOL    HW113613   5.603   4.104   5.677  2.1666  0.8154 -0.4381
 4238SOL    HW213614   5.536   4.241   5.618  1.1949  0.3196 -0.5062
 4239SOL     OW13615   6.206   6.205   6.361  1.1855  0.3435  0.0766
 4239SOL    HW113616   6.235   6.126   6.416  1.4333  1.9409  2.3875
 4239SOL    HW213617   6.280   6.271   6.356  0.8225  0.6619 -1.4330
 4240SOL     OW13618   1.973   5.463   4.959 -0.8772  0.5242 -0.1989
 4240SOL    HW113619   2.052   5.500   5.009  0.0840  0.5523 -1.6708
 4240SOL    HW213620   1.942   5.379   5.003  1.0856 -0.4338 -0.5311
 4241SOL     OW13621   2.874   2.498   1.134 -0.1243 -0.0569 -0.6566
 4241SOL    HW113622   2.861   2.404   1.104 -0.4423 -0.2254 -0.0091
 4241SOL    HW213623   2.972   2.515   1.150 -0.0122 -0.1229 -1.2408
 4242SOL     OW13624   3.085   1.111   3.406 -0.0332  0.1536  0.3226
 4242SOL    HW113625   3.086   1.087   3.309 -1.9876 -1.8713  0.7322
 4242SOL    HW213626   2.996   1.149   3.431  0.3768  0.4815  1.3776
 4243SOL     OW13627   1.763   0.934   3.538 -0.6396 -0.2111 -0.2076
 4243SOL    HW113628   1.792   0.853   3.487  3.5610  0.4689  0.7358
 4243SOL    HW213629   1.728   1.003   3.474  2.3498 -0.2154 -2.0351
 4244SOL     OW13630   3.925   0.965   1.672  0.2480 -0.6295 -0.2008
 4244SOL    HW113631   3.844   1.023   1.664  0.3454 -0.4627  0.0080
 4244SOL    HW213632   3.899   0.876   1.708  0.3149 -0.1894  0.9835
 4245SOL     OW13633   2.621   0.284   1.753  0.2582 -0.4462 -0.1213
 4245SOL    HW113634   2.656   0.302   1.846 -3.3451 -1.9000  1.6986
 4245SOL    HW213635   2.578   0.195   1.750 -1.0905  0.1936 -2.8263
 4246SOL     OW13636   4.848   2.842   4.050  0.4139  0.2308  0.1650
 4246SOL    HW113637   4.820   2.932   4.085 -2.5163 -0.7911  0.7378
 4246SOL    HW213638   4.843   2.775   4.124  0.1194 -0.8352 -0.7972
 4247SOL     OW13639   2.835   5.384   5.963 -0.8430 -0.4425  0.0687
 4247SOL    HW113640   2.934   5.397   5.954 -1.0816  1.2624 -0.4713
 4247SOL    HW213641   2.793   5.469   5.994 -2.5486  0.0563 -3.1643
 4248SOL     OW13642   2.539   5.676   5.109  0.2484  0.2856  0.1140
 4248SOL    HW113643   2.536   5.606   5.181  0.1591 -0.3920 -0.5336
 4248SOL    HW213644   2.627   5.673   5.063 -0.4635 -0.8041 -1.2595
 4249SOL     OW13645   3.748   2.138   5.400  0.5553  0.4162 -0.3975
 4249SOL    HW113646   3.776   2.094   5.315  1.7770  0.0846  0.1554
 4249SOL    HW213647   3.747   2.238   5.387  0.1697  0.3380 -0.9632
 4250SOL     OW13648   0.224   5.055   5.695 -0.1457  0.0942 -0.3508
 4250SOL    HW113649   0.206   4.965   5.735  1.2614 -0.2641 -0.4708
 4250SOL    HW213650   0.257   5.117   5.766 -1.1001  0.5143 -0.2716
 4251SOL     OW13651   3.601   3.118   5.333  0.5268  0.0455  0.0845
 4251SOL    HW113652   3.560   3.032   5.306  3.2844 -0.4254 -3.4012
 4251SOL    HW213653   3.599   3.182   5.256  0.4079  2.4169  1.9083
 4252SOL     OW13654   6.387   1.166   6.375 -0.2520 -0.0899 -0.5467
 4252SOL    HW113655   6.287   1.161   6.378 -0.2307  0.1257  1.1429
 4252SOL    HW213656   6.423   1.082   6.332 -1.1530  0.1171 -1.7769
 4253SOL     OW13657   4.317   0.283   2.426  0.3190  0.0204 -0.4747
 4253SOL    HW113658   4.370   0.289   2.342 -2.1637 -1.0111 -2.2330
 4253SOL    HW213659   4.261   0.366   2.436  1.0938  0.4391  0.5584
 4254SOL     OW13660   6.516   0.948   5.879  0.1322 -0.4350 -0.5839
 4254SOL    HW113661   6.502   1.007   5.958 -0.0432 -0.2579 -0.7463
 4254SOL    HW213662   6.451   0.872   5.882 -0.3980 -0.0080 -0.9585
 4255SOL     OW13663   6.572   2.973   1.929 -1.0728  0.1728  0.1208
 4255SOL    HW113664   6.650   2.911   1.919  0.0713  1.6088 -0.2003
 4255SOL    HW213665   6.522   2.978   1.842 -1.8782 -1.1791  0.4879
 4256SOL     OW13666   6.057   6.746   0.954  0.4396  0.9104 -0.5821
 4256SOL    HW113667   6.120   6.671   0.939 -1.1067 -0.8955  1.3931
 4256SOL    HW213668   6.108   6.827   0.983  1.8911 -0.5571  1.2683
 4257SOL     OW13669   5.763   1.223   4.140 -0.1219 -0.8790  0.6579
 4257SOL    HW113670   5.777   1.229   4.239 -2.1748 -0.5093  0.9707
 4257SOL    HW213671   5.800   1.137   4.106  1.5238 -0.5685  1.5461
 4258SOL     OW13672   1.850   6.763   1.923  0.1303  0.2285 -0.1502
 4258SOL    HW113673   1.819   6.712   2.003  0.2921 -1.4918 -1.1472
 4258SOL    HW213674   1.771   6.783   1.864  0.2600 -0.0726 -0.4268
 4259SOL     OW13675   0.929   6.849   5.777  0.1840  0.2966 -0.3731
 4259SOL    HW113676   0.921   6.927   5.715  0.2368  0.7994  0.2360
 4259SOL    HW213677   0.926   6.882   5.872 -0.9393 -0.5501 -0.0913
 4260SOL     OW13678   1.605   1.970   4.965 -0.3510  0.1848  0.1290
 4260SOL    HW113679   1.626   2.052   4.912  0.4176  0.5811  1.0202
 4260SOL    HW213680   1.505   1.962   4.975 -0.6573 -0.9257 -2.8984
 4261SOL     OW13681   3.332   6.543   3.132  0.0002  0.2563  0.1269
 4261SOL    HW113682   3.419   6.511   3.167  0.1470 -0.0612 -0.5166
 4261SOL    HW213683   3.283   6.593   3.204  0.2131 -0.5304  0.8239
 4262SOL     OW13684   2.743   4.905   5.901  0.0324 -0.3623  0.3135
 4262SOL    HW113685   2.820   4.970   5.904  0.4736 -0.8404 -0.3482
 4262SOL    HW213686   2.664   4.950   5.859  0.1465 -0.0665  0.4084
 4263SOL     OW13687   2.805   1.579   2.015  0.8372  0.1554 -0.7899
 4263SOL    HW113688   2.717   1.601   2.056  0.8927 -2.6382  1.1615
 4263SOL    HW213689   2.865   1.659   2.018 -0.0882  0.8697  2.2890
 4264SOL     OW13690   5.373   0.196   6.004  0.1796 -0.1166  0.4920
 4264SOL    HW113691   5.366   0.260   6.080 -0.0712  1.3200 -0.7000
 4264SOL    HW213692   5.289   0.198   5.950  1.4061  1.0883 -1.4769
 4265SOL     OW13693   5.030   0.336   6.112 -0.0034  0.1857  0.6880
 4265SOL    HW113694   4.943   0.312   6.155 -0.3793 -1.5039 -0.8663
 4265SOL    HW213695   5.092   0.258   6.117 -1.0692 -1.3313 -4.0961
 4266SOL     OW13696   1.947   6.742   2.666  0.5840  0.8657  0.3683
 4266SOL    HW113697   2.019   6.673   2.661  0.4248  0.7786 -1.0659
 4266SOL    HW213698   1.881   6.716   2.737  0.6839 -0.3017  0.0499
 4267SOL     OW13699   1.855   2.908   3.398 -0.0418  0.4472 -0.3100
 4267SOL    HW113700   1.780   2.848   3.425  0.0604  1.3304  2.2066
 4267SOL    HW213701   1.837   3.001   3.430  1.9527  0.7430  0.1094
 4268SOL     OW13702   1.968   5.303   6.501  0.3705  0.2968 -0.1729
 4268SOL    HW113703   2.014   5.369   6.443 -0.2816  1.2991  0.4195
 4268SOL    HW213704   2.033   5.264   6.566  1.1339 -0.9295 -1.6028
 4269SOL     OW13705   2.198   2.028   2.986  0.0496 -0.2913 -0.2913
 4269SOL    HW113706   2.184   1.966   2.909  2.3728 -2.7480  1.0891
 4269SOL    HW213707   2.180   1.979   3.072  3.2251  0.4627  0.9314
 4270SOL     OW13708   2.876   1.947   0.190 -0.5942  0.1603 -0.4240
 4270SOL    HW113709   2.807   1.928   0.120 -0.1280 -0.4088 -0.7464
 4270SOL    HW213710   2.860   2.037   0.230 -1.9712 -0.2734  0.0554
 4271SOL     OW13711   4.983   0.523   0.856  0.3303 -0.1822 -0.5903
 4271SOL    HW113712   4.981   0.622   0.837 -2.5631  0.4219  2.0267
 4271SOL    HW213713   4.959   0.508   0.952  1.2891 -3.4554 -0.7770
 4272SOL     OW13714   5.679   1.187   0.343  0.7343  0.0989 -0.3873
 4272SOL    HW113715   5.660   1.201   0.246 -0.0162  1.7661 -0.0332
 4272SOL    HW213716   5.596   1.202   0.396  1.3615  0.2050  0.5987
 4273SOL     OW13717   2.893   5.058   2.871 -0.0194  0.5581 -0.2675
 4273SOL    HW113718   2.887   5.014   2.961 -0.9467 -1.2053 -1.1332
 4273SOL    HW213719   2.834   5.138   2.869 -0.6316  0.1396  0.4497
 4274SOL     OW13720   6.770   6.898   1.289  0.4631 -0.2832  0.5685
 4274SOL    HW113721   6.839   6.872   1.221  0.6724 -2.1616  1.4296
 4274SOL    HW213722   6.737   6.816   1.336 -2.0275  0.6281  0.5295
 4275SOL     OW13723   5.011   2.849   3.680  0.0793 -0.1077 -0.0634
 4275SOL    HW113724   5.001   2.789   3.600 -0.7344 -0.9627  0.6506
 4275SOL    HW213725   4.924   2.856   3.728  0.3849  0.9570  0.3656
 4276SOL     OW13726   0.974   6.021   2.666 -0.1301  0.4613 -0.0237
 4276SOL    HW113727   1.041   6.010   2.740  1.0344  1.8570 -0.8297
 4276SOL    HW213728   0.958   6.118   2.649  0.6054  0.2380 -2.4233
 4277SOL     OW13729   0.655   0.240   0.941  0.1352  0.3930  0.6450
 4277SOL    HW113730   0.656   0.192   1.029 -1.7257 -2.0073 -0.5333
 4277SOL    HW213731   0.602   0.324   0.949 -2.7622 -1.3734  1.1741
 4278SOL     OW13732   0.084   6.776   6.838 -0.4933  0.8372 -0.0439
 4278SOL    HW113733   0.091   6.700   6.902  3.5233  0.8911 -0.1405
 4278SOL    HW213734   0.079   6.862   6.888 -0.3096  0.7347  0.1513
 4279SOL     OW13735   0.469   4.045   4.693  0.5496  0.4017 -0.4754
 4279SOL    HW113736   0.504   4.124   4.744  3.8768 -0.2385 -1.5203
 4279SOL    HW213737   0.371   4.055   4.679  0.5977  3.6030  0.6677
 4280SOL     OW13738   4.203   4.486   0.056  0.2443  0.3215 -0.3394
 4280SOL    HW113739   4.198   4.583   0.079  0.3147  0.2620 -0.0691
 4280SOL    HW213740   4.287   4.448   0.095  0.4053  0.2378 -0.7631
 4281SOL     OW13741   1.131   0.605   3.310 -0.2624  0.8556  0.1145
 4281SOL    HW113742   1.210   0.663   3.293 -0.0428  0.2591 -1.0060
 4281SOL    HW213743   1.141   0.560   3.399  0.7237  0.6870 -0.0724
 4282SOL     OW13744   3.994   5.328   6.675 -0.3636 -0.6595  0.2909
 4282SOL    HW113745   3.991   5.368   6.766  3.0804 -0.4887  0.4696
 4282SOL    HW213746   4.033   5.236   6.680 -1.0944 -1.0687 -0.9437
 4283SOL     OW13747   6.348   0.888   3.978 -0.2729 -0.2905  0.0526
 4283SOL    HW113748   6.295   0.967   3.947 -0.0425 -0.1649 -0.0272
 4283SOL    HW213749   6.286   0.812   3.998 -0.6696  0.4636  1.8579
 4284SOL     OW13750   5.655   4.860   6.640 -0.6528 -0.3301  0.0235
 4284SOL    HW113751   5.711   4.819   6.711  0.4918  1.1912  0.0578
 4284SOL    HW213752   5.695   4.947   6.611 -0.8339 -1.0612 -2.7939
 4285SOL     OW13753   2.497   6.697   1.932 -0.1450 -0.0998 -0.1326
 4285SOL    HW113754   2.563   6.766   1.963  1.1023 -1.7351  1.0727
 4285SOL    HW213755   2.479   6.710   1.834 -1.1822  2.8370  0.3354
 4286SOL     OW13756   4.522   4.703   0.049 -0.2066 -0.2753 -0.3853
 4286SOL    HW113757   4.501   4.727  -0.045  0.7598  3.7946  0.2775
 4286SOL    HW213758   4.441   4.717   0.106  0.0087  0.1514 -0.1818
 4287SOL     OW13759   4.182   0.405   3.527  0.1742  0.1863 -0.3815
 4287SOL    HW113760   4.213   0.332   3.467 -2.0620 -2.4225  1.4223
 4287SOL    HW213761   4.256   0.432   3.588  0.3736 -2.5503  0.7154
 4288SOL     OW13762   1.059   6.623   3.988 -0.4544 -0.4253 -0.3285
 4288SOL    HW113763   1.142   6.591   3.943 -0.3093  2.8661 -2.8058
 4288SOL    HW213764   0.982   6.563   3.962 -0.0821  0.4118 -3.9773
 4289SOL     OW13765   2.152   4.724   6.244  0.1345 -0.3804  0.5004
 4289SOL    HW113766   2.066   4.675   6.236  0.4085 -0.6697 -0.9422
 4289SOL    HW213767   2.228   4.661   6.234  0.5114  0.0281  0.7348
 4290SOL     OW13768   6.483   1.522   3.943 -0.0067  0.6376 -0.5149
 4290SOL    HW113769   6.434   1.593   3.893  1.7233  0.6645 -2.2897
 4290SOL    HW213770   6.534   1.564   4.018 -0.5488  0.9780 -0.3300
 4291SOL     OW13771   3.412   4.388   0.314  0.4832  0.3753 -0.4766
 4291SOL    HW113772   3.347   4.343   0.375  1.5026  0.4518  0.7112
 4291SOL    HW213773   3.478   4.321   0.279  2.0624  0.8649  1.3707
 4292SOL     OW13774   0.063   1.409   0.792  0.1707  0.1409  0.0407
 4292SOL    HW113775   0.032   1.315   0.802 -1.0906  0.4503 -0.6165
 4292SOL    HW213776   0.114   1.419   0.706 -1.7737  0.4933 -1.1650
 4293SOL     OW13777   5.352   2.032   6.889  0.3172  0.1501 -0.3424
 4293SOL    HW113778   5.289   1.972   6.840  1.2061 -0.1811 -1.1093
 4293SOL    HW213779   5.320   2.127   6.882 -1.5441 -0.2617  1.5613
 4294SOL     OW13780   1.893   2.256   6.019 -0.0503 -0.1513 -0.1665
 4294SOL    HW113781   1.948   2.281   6.099 -0.8631 -0.2848  0.4482
 4294SOL    HW213782   1.951   2.258   5.938  0.1841  2.7994 -0.0486
 4295SOL     OW13783   0.475   5.817   1.512 -0.1252 -0.1744  0.0475
 4295SOL    HW113784   0.378   5.831   1.529  0.2850  0.7405  1.9117
 4295SOL    HW213785   0.516   5.766   1.589  0.7598 -1.0944 -0.9942
 4296SOL     OW13786   2.506   4.866   2.720  0.5229  0.0364 -0.1277
 4296SOL    HW113787   2.511   4.868   2.820 -0.7306  2.9743 -0.0207
 4296SOL    HW213788   2.571   4.798   2.684 -0.1647 -2.3106  2.6813
 4297SOL     OW13789   5.052   4.273   1.844 -0.6292 -0.0845 -0.4178
 4297SOL    HW113790   5.056   4.173   1.833  0.0104 -0.2717  1.1790
 4297SOL    HW213791   5.145   4.309   1.847 -0.8583  0.5748 -0.9236
 4298SOL     OW13792   1.096   1.914   1.478  0.5162  0.4170 -0.0309
 4298SOL    HW113793   1.143   1.984   1.424  0.4304 -1.2154 -2.3417
 4298SOL    HW213794   1.005   1.897   1.439  0.4330 -0.7946  0.6465
 4299SOL     OW13795   6.506   4.173   4.851  0.1307 -0.3028 -0.0109
 4299SOL    HW113796   6.493   4.251   4.912 -0.6122  0.1280 -0.7033
 4299SOL    HW213797   6.428   4.165   4.789  0.8926 -0.6898 -0.9491
 4300SOL     OW13798   4.065   0.021   1.289 -0.0743 -0.1269 -0.3612
 4300SOL    HW113799   3.993  -0.039   1.254 -0.7159  0.7070 -0.4850
 4300SOL    HW213800   4.089  -0.007   1.382 -0.5518 -0.4101 -0.3191
 4301SOL     OW13801   2.501   4.866   5.523 -1.0378 -0.8243  0.3665
 4301SOL    HW113802   2.435   4.893   5.593 -1.1973  0.4102 -0.2328
 4301SOL    HW213803   2.585   4.835   5.567 -0.0846  2.5209  1.1888
 4302SOL     OW13804   4.095   4.141   1.483 -0.2506 -0.1604 -0.3849
 4302SOL    HW113805   4.151   4.072   1.438  0.6226  0.8953 -0.9781
 4302SOL    HW213806   3.999   4.127   1.460  0.0115 -0.6283 -1.2293
 4303SOL     OW13807   5.085   5.093   4.218 -0.4904  0.1337 -0.3316
 4303SOL    HW113808   5.048   5.148   4.144  0.8691  1.3641 -0.1429
 4303SOL    HW213809   5.178   5.064   4.194 -1.3462 -2.6858 -0.7076
 4304SOL     OW13810   2.127   3.045   1.928 -0.0253 -0.0559  0.1952
 4304SOL    HW113811   2.107   2.948   1.912  0.6168 -0.0447 -0.7229
 4304SOL    HW213812   2.172   3.084   1.848 -1.9476  1.4932 -0.1966
 4305SOL     OW13813   1.562   0.871   5.785  0.8280  0.2786 -0.6219
 4305SOL    HW113814   1.506   0.802   5.739 -1.9372  0.8158  1.6399
 4305SOL    HW213815   1.528   0.962   5.762  0.3669  0.5998  1.2004
 4306SOL     OW13816   0.291   2.782   4.266  0.7982  0.0706  0.2344
 4306SOL    HW113817   0.329   2.792   4.174 -0.4220  1.5058 -0.1299
 4306SOL    HW213818   0.365   2.793   4.333  1.3149  1.3272 -0.5009
 4307SOL     OW13819   6.804   1.929   5.364  0.3603 -0.3127 -0.1085
 4307SOL    HW113820   6.798   2.022   5.328  0.7428  0.2652  1.2501
 4307SOL    HW213821   6.881   1.882   5.322 -0.2059 -0.2450 -1.2616
 4308SOL     OW13822   4.628   5.362   5.542  0.1986  0.3519 -0.0013
 4308SOL    HW113823   4.646   5.419   5.622 -1.1419  0.9437 -0.0891
 4308SOL    HW213824   4.692   5.386   5.469 -0.1090  1.4997  0.0859
 4309SOL     OW13825   2.898   1.142   6.367  0.5705 -0.0171  0.0665
 4309SOL    HW113826   2.875   1.216   6.304  0.9809  0.4089  0.4110
 4309SOL    HW213827   2.872   1.054   6.327  0.1924  0.3044 -0.3963
 4310SOL     OW13828   5.370   2.878   3.598  0.3415 -0.4709  0.0856
 4310SOL    HW113829   5.350   2.794   3.649  1.7135 -1.4216 -0.8596
 4310SOL    HW213830   5.455   2.918   3.633  0.5706 -0.4014 -0.5365
 4311SOL     OW13831   1.438   6.131   0.940  0.1424 -0.4408  0.4354
 4311SOL    HW113832   1.501   6.208   0.938 -2.3113  1.7668  1.6332
 4311SOL    HW213833   1.462   6.071   1.017  1.0750  0.0637  0.5520
 4312SOL     OW13834   0.592   4.725   2.468  0.2670 -0.2263 -0.2876
 4312SOL    HW113835   0.686   4.696   2.488  0.5139  0.6735 -0.1388
 4312SOL    HW213836   0.573   4.709   2.371  0.7534  0.0893 -0.4370
 4313SOL     OW13837   5.651   2.185   0.011 -0.1419 -0.2229  0.1778
 4313SOL    HW113838   5.625   2.100  -0.034 -0.7176  0.9298 -1.8289
 4313SOL    HW213839   5.582   2.209   0.079  0.1334 -1.4359  0.9039
 4314SOL     OW13840   1.897   1.577   3.336  0.0284  0.1057 -0.0301
 4314SOL    HW113841   1.834   1.512   3.379 -0.3550 -0.6988 -1.7536
 4314SOL    HW213842   1.926   1.645   3.404  0.4855 -1.8735  1.8478
 4315SOL     OW13843   2.737   0.329   7.022 -0.6238 -0.1799 -0.5769
 4315SOL    HW113844   2.716   0.418   7.063  0.2567 -1.1987  2.4151
 4315SOL    HW213845   2.827   0.299   7.054 -1.3738 -2.6215 -0.5192
 4316SOL     OW13846   5.150   6.283   1.113  0.0455  0.1458  0.0701
 4316SOL    HW113847   5.211   6.343   1.166 -1.1824  1.4116  0.1377
 4316SOL    HW213848   5.192   6.193   1.102  1.3113  0.5532  1.2694
 4317SOL     OW13849   4.476   1.393   4.851  0.2017  0.5865  0.0080
 4317SOL    HW113850   4.561   1.362   4.808  0.4921  2.6430 -1.0503
 4317SOL    HW213851   4.482   1.491   4.869  0.2611 -0.1057  5.2831
 4318SOL     OW13852   5.736   4.648   3.821 -0.3347 -0.0825 -0.2148
 4318SOL    HW113853   5.731   4.739   3.779  1.7747 -0.9311 -2.6202
 4318SOL    HW213854   5.832   4.624   3.835 -0.7577 -2.4382 -0.9557
 4319SOL     OW13855   1.063   4.597   1.440 -0.3448 -0.6733  0.0506
 4319SOL    HW113856   1.008   4.657   1.382 -2.2800 -1.0982  1.3331
 4319SOL    HW213857   1.050   4.502   1.410 -0.4614 -0.7877  0.4586
 4320SOL     OW13858   4.609   1.235   6.579 -0.3342  0.0420  0.1487
 4320SOL    HW113859   4.614   1.225   6.679  1.8347 -0.0261  0.0883
 4320SOL    HW213860   4.580   1.327   6.556  2.2518  1.1623  0.9442
 4321SOL     OW13861   6.881   5.200   3.418 -0.0084  0.2936 -0.1575
 4321SOL    HW113862   6.832   5.139   3.355  1.1821 -2.5450  1.4806
 4321SOL    HW213863   6.817   5.233   3.487 -0.5983  0.6548 -0.8554
 4322SOL     OW13864   1.887   2.585   3.830 -0.1478  0.1468  0.0794
 4322SOL    HW113865   1.882   2.654   3.757 -0.7035 -0.2206 -0.2399
 4322SOL    HW213866   1.934   2.504   3.796 -1.3656 -0.4514 -0.2394
 4323SOL     OW13867   4.777   4.494   1.983 -0.2276  0.1454  0.1662
 4323SOL    HW113868   4.714   4.544   2.042 -2.7738 -2.9536  0.4105
 4323SOL    HW213869   4.827   4.426   2.037 -0.2314 -0.5962 -0.7299
 4324SOL     OW13870   4.896   3.927   6.317 -0.1268  0.6270 -0.3249
 4324SOL    HW113871   4.842   3.862   6.262  1.5699 -0.0819 -1.2318
 4324SOL    HW213872   4.866   4.020   6.296  1.0573  0.4622 -3.2776
 4325SOL     OW13873   0.164   0.979   6.792  0.2942 -0.0946 -0.0699
 4325SOL    HW113874   0.173   1.002   6.889 -0.4341 -0.2303  0.0372
 4325SOL    HW213875   0.114   0.893   6.783  0.2971 -0.0462 -0.5722
 4326SOL     OW13876   4.772   4.062   2.364  0.1721  0.2646  0.2308
 4326SOL    HW113877   4.780   3.983   2.304 -0.3735  0.6122 -0.3094
 4326SOL    HW213878   4.735   4.139   2.312 -2.7472 -0.1076  1.6156
 4327SOL     OW13879   3.375   0.072   3.344  0.4300  0.2950  0.4197
 4327SOL    HW113880   3.445   0.070   3.272 -0.3150  0.6203 -0.3192
 4327SOL    HW213881   3.289   0.106   3.306 -0.2429 -0.4791  1.2298
 4328SOL     OW13882   4.624   1.329   2.354  0.2564 -0.2253 -0.4656
 4328SOL    HW113883   4.541   1.292   2.395  0.1745  1.4910  1.0860
 4328SOL    HW213884   4.602   1.415   2.306  1.3329  1.3108  1.6151
 4329SOL     OW13885   5.998   4.678   0.976  0.2935  0.5940 -0.0279
 4329SOL    HW113886   5.950   4.696   0.891 -0.4922  0.0023  0.2776
 4329SOL    HW213887   6.086   4.725   0.975  0.6167  0.0086 -1.4736
 4330SOL     OW13888   2.144   6.104   6.999 -1.1080 -1.0257  0.3272
 4330SOL    HW113889   2.082   6.086   6.923 -0.1572  0.6865 -0.9188
 4330SOL    HW213890   2.238   6.088   6.969 -0.7601 -0.9864  1.3690
 4331SOL     OW13891   6.388   2.316   3.352  0.2935  0.1353  0.3603
 4331SOL    HW113892   6.356   2.344   3.262 -2.8068 -0.9914  0.9934
 4331SOL    HW213893   6.417   2.220   3.348 -1.9789 -0.6477  0.9054
 4332SOL     OW13894   0.280   5.479   6.764 -0.3822 -0.4187  0.0007
 4332SOL    HW113895   0.322   5.388   6.764  2.3741  0.7313 -1.0241
 4332SOL    HW213896   0.240   5.498   6.674  0.2228 -0.1749 -0.2280
 4333SOL     OW13897   3.394   2.997   6.364  0.2938 -0.3070  0.4478
 4333SOL    HW113898   3.468   2.946   6.320  0.1576 -0.8977  0.8945
 4333SOL    HW213899   3.391   3.090   6.326 -1.3602 -1.4718 -2.6569
 4334SOL     OW13900   0.397   1.203   2.764  0.0289 -0.6322 -0.2181
 4334SOL    HW113901   0.391   1.293   2.721 -2.1986 -0.6090  0.0171
 4334SOL    HW213902   0.475   1.201   2.827  0.7114  0.7724 -0.9700
 4335SOL     OW13903   2.038   5.078   2.899 -0.2365 -0.7173  0.2267
 4335SOL    HW113904   2.024   5.005   2.831  0.8299 -0.7139 -0.0179
 4335SOL    HW213905   1.954   5.090   2.953 -0.7964 -1.3549 -0.4723
 4336SOL     OW13906   2.334   4.693   5.382  0.6218 -0.4641  0.0294
 4336SOL    HW113907   2.397   4.765   5.410 -1.0537  0.8195  0.6499
 4336SOL    HW213908   2.374   4.603   5.402  1.8906  0.3218  1.1505
 4337SOL     OW13909   4.641   2.160   3.185 -0.1811 -0.1064  0.0185
 4337SOL    HW113910   4.693   2.079   3.160 -1.7271 -1.4343  0.8980
 4337SOL    HW213911   4.640   2.169   3.285 -0.5082  0.6705 -0.0465
 4338SOL     OW13912   2.706   2.383   5.437  0.0634 -0.5370 -0.1850
 4338SOL    HW113913   2.707   2.397   5.536 -1.1101  2.8861 -0.5229
 4338SOL    HW213914   2.798   2.397   5.400  0.1442  0.1349  0.2523
 4339SOL     OW13915   4.920   4.868   5.641 -0.1351 -0.5605 -0.1068
 4339SOL    HW113916   4.865   4.858   5.724 -0.8048  2.3376 -0.0839
 4339SOL    HW213917   4.866   4.841   5.561 -0.8911  0.2565  0.1088
 4340SOL     OW13918   5.218   5.033   0.055  0.4285  0.4710  0.2499
 4340SOL    HW113919   5.127   5.055   0.089  0.3748  0.2938  0.2184
 4340SOL    HW213920   5.235   4.935   0.065  0.7993  0.5741  0.7046
 4341SOL     OW13921   0.079   3.700   2.492  0.2686 -0.3607  0.3062
 4341SOL    HW113922   0.148   3.765   2.460  0.1518 -1.2284 -1.8511
 4341SOL    HW213923   0.124   3.627   2.544  0.5435  0.7006  1.6311
 4342SOL     OW13924   3.972   4.805   3.494 -0.3855 -0.0824 -0.7753
 4342SOL    HW113925   4.013   4.731   3.548 -1.8811  0.4218  1.1771
 4342SOL    HW213926   3.981   4.785   3.397  1.1997 -1.7256 -0.3307
 4343SOL     OW13927   3.784   5.781   6.902  0.3041 -0.3403 -0.2311
 4343SOL    HW113928   3.868   5.729   6.918 -0.5180 -1.2838  1.3118
 4343SOL    HW213929   3.711   5.718   6.876 -0.5652  0.0764  1.0714
 4344SOL     OW13930   6.000   3.408   2.721 -0.2750  0.1935  0.1102
 4344SOL    HW113931   6.046   3.440   2.804  0.1491 -0.4975  0.1479
 4344SOL    HW213932   5.914   3.364   2.747 -1.1393  1.7328  0.0191
 4345SOL     OW13933   3.478   2.904   3.282 -0.8298 -0.0313  0.3172
 4345SOL    HW113934   3.556   2.936   3.337 -0.7977  1.4110 -0.5188
 4345SOL    HW213935   3.442   2.820   3.322  0.0481  0.2289  1.7466
 4346SOL     OW13936   0.829   3.726   2.429 -0.0644  0.1691  0.0906
 4346SOL    HW113937   0.820   3.821   2.401 -0.9979  0.7973  2.2882
 4346SOL    HW213938   0.755   3.672   2.389 -1.2706  0.9918  1.1489
 4347SOL     OW13939   4.542   5.741   0.099  0.4768  0.6198 -0.1106
 4347SOL    HW113940   4.549   5.761   0.197 -0.5414  2.4062 -0.3676
 4347SOL    HW213941   4.629   5.764   0.054  0.6875  0.5392  0.2488
 4348SOL     OW13942   5.011   3.665   6.701  0.2062  0.2462 -0.5536
 4348SOL    HW113943   5.056   3.636   6.616  2.6096 -0.5190  0.8738
 4348SOL    HW213944   5.075   3.719   6.756 -0.8129 -0.3739  1.3413
 4349SOL     OW13945   0.422   2.793   6.136 -0.1349 -0.2825  0.3991
 4349SOL    HW113946   0.492   2.757   6.075  0.6576  0.4964  0.8404
 4349SOL    HW213947   0.364   2.717   6.169  1.0534 -1.0655  0.7463
 4350SOL     OW13948   4.840   1.167   3.992  0.5963  0.2611 -0.3376
 4350SOL    HW113949   4.903   1.099   4.030 -1.1106 -0.1379  1.9771
 4350SOL    HW213950   4.854   1.255   4.037  2.2662  1.3736 -2.7857
 4351SOL     OW13951   6.666   5.817   6.955 -0.0761  0.6842  0.4924
 4351SOL    HW113952   6.689   5.811   6.857 -0.1064 -0.1784  0.5336
 4351SOL    HW213953   6.666   5.913   6.983 -0.9772  1.0193 -0.5779
 4352SOL     OW13954   2.868   3.802   1.820  0.2763 -0.7355  0.1789
 4352SOL    HW113955   2.775   3.807   1.784 -0.1679  0.6235  1.3865
 4352SOL    HW213956   2.934   3.809   1.745 -0.6098 -0.0466 -0.5569
 4353SOL     OW13957   2.304   4.293   0.695 -0.7339 -0.1796  0.1819
 4353SOL    HW113958   2.220   4.263   0.739 -0.4775  0.4399  1.1222
 4353SOL    HW213959   2.379   4.234   0.724 -0.7971 -0.5959 -0.4842
 4354SOL     OW13960   0.314   4.557   2.532 -0.1129 -0.3472  0.2316
 4354SOL    HW113961   0.241   4.546   2.465 -0.9550  2.0931  0.6475
 4354SOL    HW213962   0.387   4.613   2.494 -0.1151  0.1914  0.9879
 4355SOL     OW13963   0.662   2.964   3.416  0.0158 -0.7347 -0.3577
 4355SOL    HW113964   0.686   2.902   3.341  0.0334 -2.0452  0.6996
 4355SOL    HW213965   0.744   2.986   3.468 -0.2650 -1.2720  0.3280
 4356SOL     OW13966   5.095   1.280   3.672  0.1861  0.4988 -0.4334
 4356SOL    HW113967   4.997   1.263   3.679  0.3820 -0.0221  1.6855
 4356SOL    HW213968   5.143   1.232   3.746  2.1847 -0.2107 -2.0985
 4357SOL     OW13969   4.715   4.594   2.625 -0.2923 -0.6406 -0.3932
 4357SOL    HW113970   4.690   4.556   2.535 -3.2575  2.5489 -1.1553
 4357SOL    HW213971   4.663   4.548   2.696 -2.1777  0.3775 -1.0425
 4358SOL     OW13972   2.486   0.556   1.380  0.4106 -0.4783  0.1753
 4358SOL    HW113973   2.429   0.607   1.444 -2.0377 -1.1291 -1.3497
 4358SOL    HW213974   2.564   0.516   1.429 -1.2590 -0.8444  2.7312
 4359SOL     OW13975   3.423   2.196   1.023 -0.1855  0.0545  0.1974
 4359SOL    HW113976   3.430   2.112   1.077  0.2486 -0.5190 -0.7255
 4359SOL    HW213977   3.334   2.240   1.040 -0.0579 -0.1078  1.3602
 4360SOL     OW13978   2.380   6.436   3.904  0.1936  0.0299 -0.1553
 4360SOL    HW113979   2.448   6.509   3.895  0.7269 -0.4753 -0.2661
 4360SOL    HW213980   2.390   6.372   3.828 -0.4255 -0.0431 -0.1833
 4361SOL     OW13981   6.960   0.707   5.763 -0.2914 -0.3466 -0.9055
 4361SOL    HW113982   7.034   0.716   5.829 -0.5245 -1.8940 -0.3913
 4361SOL    HW213983   6.892   0.780   5.778 -0.0135 -0.2930  0.1190
 4362SOL     OW13984   1.044   6.194   3.273 -0.1992  0.2608  0.3053
 4362SOL    HW113985   1.045   6.294   3.266  1.4550  0.2632  0.2250
 4362SOL    HW213986   1.039   6.154   3.181  1.3894  0.2992  0.1700
 4363SOL     OW13987   4.063   6.297   4.801 -0.3189 -0.6283 -0.3543
 4363SOL    HW113988   4.033   6.207   4.834 -1.1029 -0.3792 -0.3700
 4363SOL    HW213989   4.100   6.287   4.708 -2.0965 -0.6762 -1.0984
 4364SOL     OW13990   3.713   3.981   3.761  0.3126 -0.1931 -0.1357
 4364SOL    HW113991   3.720   3.949   3.666  1.2838  0.9972 -0.4823
 4364SOL    HW213992   3.668   3.910   3.816 -0.5587 -0.7722 -1.5330
 4365SOL     OW13993   2.983   6.774   1.667 -0.2953 -0.1439 -0.3448
 4365SOL    HW113994   2.960   6.678   1.680  1.4849 -0.5230  0.2445
 4365SOL    HW213995   2.970   6.824   1.752  1.1435 -0.4109  0.0640
 4366SOL     OW13996   5.681   5.896   2.344 -0.3285 -0.7018 -0.6587
 4366SOL    HW113997   5.762   5.942   2.308 -1.5563  1.3347 -0.9391
 4366SOL    HW213998   5.622   5.869   2.269 -0.1744 -1.7390 -0.4259
 4367SOL     OW13999   3.026   6.645   2.503 -0.1268 -0.4700  0.1364
 4367SOL    HW114000   2.937   6.599   2.508 -0.1144 -0.3797  3.6288
 4367SOL    HW214001   3.099   6.579   2.522  0.0799  0.3708  2.6029
 4368SOL     OW14002   4.076   1.884   3.481  0.1760 -0.1405  0.8341
 4368SOL    HW114003   4.046   1.956   3.543 -0.3692 -0.5522  1.0579
 4368SOL    HW214004   4.116   1.809   3.534  1.4561  0.3150  0.5551
 4369SOL     OW14005   5.503   4.105   3.985  0.0093  0.0970 -0.5579
 4369SOL    HW114006   5.493   4.183   3.924  0.5095  0.5187 -0.1067
 4369SOL    HW214007   5.589   4.112   4.036 -0.8729  0.3017  0.9703
 4370SOL     OW14008   3.794   4.073   0.792  0.0191 -0.3846 -0.4658
 4370SOL    HW114009   3.759   3.981   0.773  1.5179 -1.0025 -0.4006
 4370SOL    HW214010   3.728   4.123   0.848 -0.5710 -1.6237 -0.0217
 4371SOL     OW14011   3.812   0.016   1.730  0.0553 -0.6862  0.0308
 4371SOL    HW114012   3.807   0.065   1.643 -1.6251 -1.7629 -0.5247
 4371SOL    HW214013   3.796  -0.082   1.714  1.0162 -1.1078  1.4069
 4372SOL     OW14014   1.788   4.882   5.986 -0.0117  0.7382  0.0719
 4372SOL    HW114015   1.720   4.841   6.047 -1.0513  0.1994 -1.3777
 4372SOL    HW214016   1.759   4.868   5.891  1.1525  2.2291 -0.5321
 4373SOL     OW14017   2.883   6.443   1.260  0.1037  0.2126  0.1646
 4373SOL    HW114018   2.846   6.351   1.243 -1.6553  1.1137 -1.2175
 4373SOL    HW214019   2.917   6.482   1.175  2.9906  0.0358  1.1394
 4374SOL     OW14020   2.699   5.801   6.530 -0.1308 -0.2311  0.9391
 4374SOL    HW114021   2.740   5.881   6.486  1.1056 -2.2152 -1.8181
 4374SOL    HW214022   2.769   5.731   6.545 -1.5549 -1.7147  1.0237
 4375SOL     OW14023   2.616   1.442   5.083 -0.8865  0.0547  0.0168
 4375SOL    HW114024   2.640   1.357   5.129  0.2291 -0.1986 -0.9963
 4375SOL    HW214025   2.680   1.459   5.008 -3.4553 -0.2737 -2.3822
 4376SOL     OW14026   2.563   4.955   6.470  0.1901 -0.0905  0.5732
 4376SOL    HW114027   2.596   5.050   6.476 -0.9238  0.2999  0.9100
 4376SOL    HW214028   2.473   4.955   6.426  0.7380 -1.1478 -0.5941
 4377SOL     OW14029   6.024   6.084   0.362  0.2237 -0.7451 -0.0727
 4377SOL    HW114030   6.090   6.053   0.293 -0.5867 -0.8447 -0.8118
 4377SOL    HW214031   6.072   6.138   0.431  0.5605  2.4951 -2.5952
 4378SOL     OW14032   4.624   0.016   1.398 -0.2594  0.9234  0.1231
 4378SOL    HW114033   4.581   0.083   1.457 -0.1652  1.3030 -0.2309
 4378SOL    HW214034   4.670  -0.053   1.453 -0.4237  1.1068  0.4903
 4379SOL     OW14035   5.284   4.491   1.904 -0.0117  0.3706 -0.3846
 4379SOL    HW114036   5.196   4.533   1.884  0.2627  0.4446 -1.4871
 4379SOL    HW214037   5.335   4.478   1.819  0.3052 -1.3245  0.0387
 4380SOL     OW14038   1.642   3.980   5.277  0.0128 -0.3400  0.2681
 4380SOL    HW114039   1.587   3.937   5.349  1.0959 -0.6951  0.9117
 4380SOL    HW214040   1.721   3.923   5.257 -0.4548 -0.4222 -1.4942
 4381SOL     OW14041   3.581   6.133   4.395 -0.0465 -0.4664 -0.6592
 4381SOL    HW114042   3.626   6.061   4.343  1.2781  0.7979 -1.3509
 4381SOL    HW214043   3.542   6.200   4.332  1.1559  0.8344 -0.0952
 4382SOL     OW14044   5.602   4.935   3.022 -0.0517 -0.3255  0.1325
 4382SOL    HW114045   5.654   4.868   3.075 -1.6404 -2.0742 -0.3900
 4382SOL    HW214046   5.628   4.927   2.925  0.9364  1.0068  0.2650
 4383SOL     OW14047   1.440   0.076   6.483  0.3182  0.0067 -0.0631
 4383SOL    HW114048   1.367   0.035   6.537  0.3254 -0.2704 -0.2610
 4383SOL    HW214049   1.428   0.175   6.481  0.6489  0.0770  0.9270
 4384SOL     OW14050   4.687   0.713   1.293  0.3290  0.1209 -0.0169
 4384SOL    HW114051   4.616   0.731   1.362  0.7862 -0.3173  0.5833
 4384SOL    HW214052   4.724   0.621   1.307  0.3057 -0.0350 -0.9685
 4385SOL     OW14053   6.064   1.575   2.262  0.1249 -0.8287  0.1102
 4385SOL    HW114054   6.038   1.487   2.300 -2.0378  0.3012  1.4137
 4385SOL    HW214055   5.985   1.636   2.261  1.4411  0.9691 -1.2137
 4386SOL     OW14056   2.550   5.054   6.116 -0.3221  0.2008 -0.5217
 4386SOL    HW114057   2.531   4.957   6.110 -2.1956  0.1634  3.1934
 4386SOL    HW214058   2.646   5.068   6.139 -0.7834 -1.1200  2.6499
 4387SOL     OW14059   1.458   0.886   0.934  0.1116 -0.0795  0.2280
 4387SOL    HW114060   1.552   0.888   0.898 -0.0085 -1.1872 -0.1957
 4387SOL    HW214061   1.460   0.895   1.033  0.9246 -2.7464  0.5479
 4388SOL     OW14062   5.627   1.968   5.278  0.1298 -0.2261 -0.0196
 4388SOL    HW114063   5.712   2.021   5.278 -0.2403  0.4158  1.3576
 4388SOL    HW214064   5.575   1.988   5.195 -0.1326  1.8268  0.5850
 4389SOL     OW14065   6.813   2.828   2.078  0.6968  0.6419 -0.1809
 4389SOL    HW114066   6.753   2.768   2.025  1.5248 -0.3516 -0.0279
 4389SOL    HW214067   6.783   2.830   2.173  1.2934 -0.4250  0.0494
 4390SOL     OW14068   5.101   3.497   7.005 -0.7896  0.6738  0.4310
 4390SOL    HW114069   5.135   3.591   7.010 -3.0524  1.5098  1.0328
 4390SOL    HW214070   5.026   3.491   6.938 -2.0037 -0.2402  1.8081
 4391SOL     OW14071   1.776   5.413   0.026  0.3038 -0.2107  0.1225
 4391SOL    HW114072   1.724   5.329   0.018 -0.6245  0.3722 -0.1240
 4391SOL    HW214073   1.769   5.465  -0.059  2.2657 -0.6483 -0.3525
 4392SOL     OW14074   5.672   5.162   4.605  0.8386  0.4990  0.3610
 4392SOL    HW114075   5.646   5.253   4.635 -1.3659 -0.2789  0.9692
 4392SOL    HW214076   5.703   5.108   4.683  1.7353  0.5786  0.0719
 4393SOL     OW14077   5.075   0.018   2.777 -0.0567  0.1620 -0.3739
 4393SOL    HW114078   5.164   0.031   2.823  0.1360 -0.1616 -0.6545
 4393SOL    HW214079   5.048  -0.078   2.783 -0.8111  0.4059  0.4653
 4394SOL     OW14080   5.455   0.165   1.578 -0.0739  0.1655 -0.3048
 4394SOL    HW114081   5.513   0.155   1.497  1.7190 -0.1739  0.9908
 4394SOL    HW214082   5.422   0.075   1.607  2.2305 -0.2057  1.3983
 4395SOL     OW14083   4.197   2.279   0.811 -0.1412 -0.0216 -0.1080
 4395SOL    HW114084   4.154   2.336   0.741 -0.0813  1.6298  1.1610
 4395SOL    HW214085   4.142   2.197   0.825 -2.4522  1.5810  0.8064
 4396SOL     OW14086   1.447   2.473   2.349 -0.1174  0.3919  0.3764
 4396SOL    HW114087   1.520   2.467   2.417 -1.3025 -0.4649  1.6269
 4396SOL    HW214088   1.470   2.418   2.269  1.4462  1.6712 -0.0987
 4397SOL     OW14089   3.726   0.945   5.525  0.0774  0.3201 -0.7134
 4397SOL    HW114090   3.626   0.936   5.526 -0.0721  1.6525 -1.6094
 4397SOL    HW214091   3.765   0.887   5.597 -1.3312 -0.1810 -0.3123
 4398SOL     OW14092   0.814   4.780   5.186 -0.1105  0.0916 -0.3608
 4398SOL    HW114093   0.776   4.689   5.171 -0.4607  0.5108 -2.3811
 4398SOL    HW214094   0.758   4.830   5.253 -0.6118 -0.7601 -0.1366
 4399SOL     OW14095   2.532   6.660   2.700  0.2477  0.1032 -0.2708
 4399SOL    HW114096   2.457   6.605   2.737  0.1930  0.0009 -0.5285
 4399SOL    HW214097   2.597   6.682   2.772 -0.1784  0.4372  0.0191
 4400SOL     OW14098   2.057   5.287   3.217  0.3551  0.4069  0.1000
 4400SOL    HW114099   1.974   5.245   3.255 -0.6421  0.9927 -1.3675
 4400SOL    HW214100   2.049   5.295   3.118  1.1336  2.6723  0.1603
 4401SOL     OW14101   0.172   0.438   5.052  0.0202  0.2475 -0.4807
 4401SOL    HW114102   0.216   0.417   4.964  1.5925 -1.4668  0.6381
 4401SOL    HW214103   0.190   0.364   5.116  0.3748  2.2142  1.8211
 4402SOL     OW14104   5.484   6.200   1.010 -0.3880 -0.1341 -0.0551
 4402SOL    HW114105   5.426   6.129   1.051 -1.0632  0.3234 -0.1918
 4402SOL    HW214106   5.536   6.161   0.934 -1.1177 -0.3822 -0.4352
 4403SOL     OW14107   6.359   1.902   1.778 -0.1962  0.0075 -0.8539
 4403SOL    HW114108   6.459   1.894   1.779  0.0277  2.1119 -1.1034
 4403SOL    HW214109   6.329   1.958   1.855 -1.1325 -0.0870 -1.1383
 4404SOL     OW14110   1.517   3.890   2.530  0.2364  0.3962 -0.4535
 4404SOL    HW114111   1.503   3.885   2.431 -0.5117 -3.5474 -0.2893
 4404SOL    HW214112   1.607   3.931   2.549  1.0434 -0.1138 -2.8220
 4405SOL     OW14113   3.785   2.464   6.400  0.1361 -0.0778  0.0338
 4405SOL    HW114114   3.738   2.549   6.422  1.1119  1.1686 -2.3442
 4405SOL    HW214115   3.872   2.484   6.355 -0.7127 -2.2506 -2.9463
 4406SOL     OW14116   6.619   2.107   1.606 -0.3346 -0.2931 -0.0178
 4406SOL    HW114117   6.608   2.121   1.508  0.3566 -0.3531 -0.1061
 4406SOL    HW214118   6.656   2.189   1.648 -1.1676 -0.0646  0.2916
 4407SOL     OW14119   1.490   1.581   5.442  0.0319  0.4211  0.0735
 4407SOL    HW114120   1.512   1.648   5.513  2.7079 -1.9327  1.6754
 4407SOL    HW214121   1.522   1.615   5.354  0.2513  1.7483  0.6354
 4408SOL     OW14122   3.840   0.273   2.655  0.4464 -0.3133  0.2462
 4408SOL    HW114123   3.921   0.230   2.693  0.5686 -0.5868 -0.3191
 4408SOL    HW214124   3.866   0.354   2.603  0.3296 -0.2513  0.2819
 4409SOL     OW14125   3.047   1.605   2.452 -0.6859  0.1373 -0.5777
 4409SOL    HW114126   3.134   1.591   2.498 -0.2978 -0.3921 -1.4482
 4409SOL    HW214127   2.982   1.534   2.481 -1.2805  1.3050  1.0861
 4410SOL     OW14128   1.496   4.526   0.641 -0.0494 -0.2339  0.0303
 4410SOL    HW114129   1.539   4.523   0.731 -0.4731  0.3974  0.2603
 4410SOL    HW214130   1.397   4.511   0.650 -0.2560  0.8908 -0.1977
 4411SOL     OW14131   4.566   3.657   1.346 -1.0175 -0.0824  0.0587
 4411SOL    HW114132   4.554   3.750   1.311 -2.5243 -0.4819 -0.5544
 4411SOL    HW214133   4.482   3.605   1.332 -1.2153 -0.7179  2.9118
 4412SOL     OW14134   3.200   0.820   6.172 -0.2833  0.1162 -1.2812
 4412SOL    HW114135   3.223   0.845   6.266  0.5278 -0.0615 -1.4175
 4412SOL    HW214136   3.177   0.722   6.168 -2.1870  0.5144 -0.9647
 4413SOL     OW14137   5.200   3.150   4.879 -0.2762 -0.2147  0.4626
 4413SOL    HW114138   5.212   3.099   4.793  1.0549 -1.1550  1.1701
 4413SOL    HW214139   5.210   3.087   4.956 -0.2982  0.8276  1.3272
 4414SOL     OW14140   2.002   4.973   2.650  0.0226  0.1849 -0.4990
 4414SOL    HW114141   2.031   5.064   2.620  0.1936 -0.4688 -2.4558
 4414SOL    HW214142   1.902   4.971   2.656  0.0113  0.4786 -0.5580
 4415SOL     OW14143   4.926   2.366   1.906  0.3926  0.4877  0.5455
 4415SOL    HW114144   4.941   2.284   1.962 -0.7407  0.6383  1.0988
 4415SOL    HW214145   4.948   2.447   1.960  1.8009  0.5630 -0.1001
 4416SOL     OW14146   2.847   1.842   5.680 -0.1159  0.3728 -0.1294
 4416SOL    HW114147   2.843   1.763   5.741 -3.8867 -0.7689 -1.5874
 4416SOL    HW214148   2.933   1.840   5.629 -0.8064 -4.0369 -1.5213
 4417SOL     OW14149   5.513   5.298   2.391  0.3977  0.5390  0.1745
 4417SOL    HW114150   5.430   5.243   2.389  1.2922 -0.9012  0.9256
 4417SOL    HW214151   5.501   5.379   2.334 -1.3121  0.0875 -0.1596
 4418SOL     OW14152   2.434   1.649   3.716 -0.1855  0.5895 -0.2643
 4418SOL    HW114153   2.352   1.693   3.679  1.0527  1.8223 -1.6783
 4418SOL    HW214154   2.439   1.665   3.814 -0.6824  2.1247 -0.4588
 4419SOL     OW14155   5.045   6.758   5.069  0.3610  0.4040  0.2461
 4419SOL    HW114156   4.976   6.754   4.997 -1.0251  0.0010  1.5318
 4419SOL    HW214157   5.134   6.732   5.032 -0.5951 -1.3541 -0.9732
 4420SOL     OW14158   3.439   6.824   0.493  0.1633  0.2256 -0.4731
 4420SOL    HW114159   3.363   6.840   0.556 -0.1451  1.3360 -1.0901
 4420SOL    HW214160   3.523   6.860   0.533  1.0228 -3.4750  1.4706
 4421SOL     OW14161   1.832   2.056   1.737  0.0379  0.0415  0.1448
 4421SOL    HW114162   1.844   2.124   1.664  0.4226  0.1165  0.2791
 4421SOL    HW214163   1.851   1.965   1.701 -2.7504 -0.3193 -0.6982
 4422SOL     OW14164   2.577   3.227   0.220  0.5247  0.7872 -0.4128
 4422SOL    HW114165   2.514   3.217   0.298  0.1944  0.2415 -0.7426
 4422SOL    HW214166   2.664   3.263   0.252  1.0387 -1.1600  0.5239
 4423SOL     OW14167   6.012   1.427   6.355 -0.2712  0.1123  0.3623
 4423SOL    HW114168   6.046   1.334   6.370  1.0164  0.5278  0.2169
 4423SOL    HW214169   5.961   1.458   6.435  0.1983 -0.3413  0.8475
 4424SOL     OW14170   1.934   3.663   3.559  0.3950 -0.3394  0.2412
 4424SOL    HW114171   1.846   3.675   3.515  0.1950 -2.6781 -0.1202
 4424SOL    HW214172   1.922   3.662   3.659  0.3673  1.4987  0.2919
 4425SOL     OW14173   4.340   6.426   1.853 -0.5069 -0.2812  0.4317
 4425SOL    HW114174   4.403   6.401   1.779  0.2651  1.2080  0.5620
 4425SOL    HW214175   4.253   6.456   1.814 -0.5432 -0.7013  0.1842
 4426SOL     OW14176   0.796   0.790   5.896  0.2797  0.1613 -0.0341
 4426SOL    HW114177   0.704   0.773   5.858  1.1952 -0.6698 -2.0568
 4426SOL    HW214178   0.804   0.745   5.984 -0.7913 -1.0640 -0.5268
 4427SOL     OW14179   6.769   5.054   4.856 -0.4504 -0.2147  0.2622
 4427SOL    HW114180   6.712   4.996   4.914 -0.4714 -0.6151 -0.1541
 4427SOL    HW214181   6.855   5.075   4.902  0.9160 -3.0923 -0.7342
 4428SOL     OW14182   2.738   6.927   3.089  0.1241 -0.1883  0.0245
 4428SOL    HW114183   2.706   6.874   3.010  0.8634 -0.6104 -0.0095
 4428SOL    HW214184   2.750   6.866   3.167  1.1331 -0.1194 -0.0607
 4429SOL     OW14185   3.879   1.173   2.953  0.5039  0.8370  0.2783
 4429SOL    HW114186   3.883   1.171   3.053 -1.1327  2.9547  0.4626
 4429SOL    HW214187   3.793   1.132   2.922  0.0690  1.9875 -0.0931
 4430SOL     OW14188   0.957   6.896   1.703 -0.1221  0.0097 -0.6259
 4430SOL    HW114189   1.023   6.970   1.691  0.4886 -0.4294 -0.0626
 4430SOL    HW214190   0.935   6.887   1.800 -0.0047 -0.7026 -0.6598
 4431SOL     OW14191   2.097   2.751   4.004 -0.4891 -0.6796  0.8080
 4431SOL    HW114192   2.044   2.670   4.031  0.4195 -2.1895 -1.5826
 4431SOL    HW214193   2.106   2.753   3.905  0.4147  1.8356  0.8855
 4432SOL     OW14194   3.417   2.859   4.758 -0.3722 -0.3959 -0.0214
 4432SOL    HW114195   3.498   2.888   4.706 -0.5572  2.0296  0.9396
 4432SOL    HW214196   3.415   2.759   4.761  1.8770 -0.5589 -1.1591
 4433SOL     OW14197   6.420   2.809   1.532 -0.2776  0.1744  0.9105
 4433SOL    HW114198   6.326   2.786   1.510 -0.1824  1.0654 -0.5583
 4433SOL    HW214199   6.422   2.891   1.589 -0.3789  0.9720 -0.1951
 4434SOL     OW14200   6.661   1.003   4.717  0.2854  0.5111  0.3555
 4434SOL    HW114201   6.701   0.936   4.779  1.0097 -0.2842 -0.9447
 4434SOL    HW214202   6.725   1.079   4.704  0.2397  0.5520  0.3666
 4435SOL     OW14203   3.599   2.897   2.393  0.6252 -0.6435 -0.3009
 4435SOL    HW114204   3.612   2.995   2.383 -0.8432 -0.4827 -0.9276
 4435SOL    HW214205   3.610   2.871   2.489 -1.4097  0.5735  0.3302
 4436SOL     OW14206   5.417   6.696   6.805 -0.0381 -0.7632  0.2955
 4436SOL    HW114207   5.344   6.627   6.808 -0.3470 -0.4236  0.9922
 4436SOL    HW214208   5.438   6.726   6.899  0.9336 -0.7830  0.0899
 4437SOL     OW14209   3.047   0.153   5.506  0.2375  0.3125 -0.7254
 4437SOL    HW114210   3.069   0.224   5.439  0.0191 -0.1152 -1.2581
 4437SOL    HW214211   3.000   0.078   5.460 -0.7375  0.4201  0.0781
 4438SOL     OW14212   3.279   1.833   5.744 -0.4201 -0.4819  0.2749
 4438SOL    HW114213   3.309   1.821   5.650  1.0327  1.4052  0.4409
 4438SOL    HW214214   3.230   1.920   5.753 -1.1368 -0.9576  1.1397
 4439SOL     OW14215   2.307   4.196   2.353 -0.3857 -0.1759  0.1364
 4439SOL    HW114216   2.401   4.187   2.318 -0.6124  0.2189 -0.5973
 4439SOL    HW214217   2.275   4.107   2.386  0.1598 -0.3673  0.1606
 4440SOL     OW14218   6.552   0.766   0.392  0.3443 -0.0028  0.2478
 4440SOL    HW114219   6.639   0.815   0.377  0.2562  0.6134  1.6567
 4440SOL    HW214220   6.571   0.669   0.407  0.7098 -0.0217 -0.2729
 4441SOL     OW14221   0.255   0.034   4.524  0.1060 -0.2385  0.0909
 4441SOL    HW114222   0.303  -0.053   4.509 -0.3419 -0.2293 -1.6282
 4441SOL    HW214223   0.226   0.071   4.436  2.9892  3.2241  0.3971
 4442SOL     OW14224   1.018   6.664   2.949 -0.2214  0.0701 -0.0020
 4442SOL    HW114225   0.946   6.726   2.979 -0.4306  0.7885 -1.8961
 4442SOL    HW214226   1.107   6.706   2.968 -0.3362  0.2944  0.0475
 4443SOL     OW14227   0.277   1.020   1.381  0.1599 -0.6888  0.1799
 4443SOL    HW114228   0.291   1.060   1.290 -1.1901  0.4909  0.4498
 4443SOL    HW214229   0.309   1.084   1.451 -0.7046 -0.6773  0.5767
 4444SOL     OW14230   5.294   1.529   3.444 -0.4201  0.2456  0.1403
 4444SOL    HW114231   5.278   1.431   3.449 -2.1346  0.5699  2.5387
 4444SOL    HW214232   5.367   1.555   3.507 -0.5613  0.6177  0.1552
 4445SOL     OW14233   5.921   6.868   0.099  0.1306 -0.4444  0.8802
 4445SOL    HW114234   5.936   6.811   0.180  1.4015 -1.2797  0.0992
 4445SOL    HW214235   6.009   6.893   0.060 -0.4654  0.2888 -0.0277
 4446SOL     OW14236   5.120   3.728   3.624 -0.4693  0.1057 -0.1086
 4446SOL    HW114237   5.118   3.657   3.694  0.0112  2.2946  2.3056
 4446SOL    HW214238   5.192   3.795   3.647 -0.5304  1.1107 -2.5441
 4447SOL     OW14239   6.585   4.876   5.804 -0.1238  0.5021 -0.2414
 4447SOL    HW114240   6.577   4.785   5.845  1.7767 -0.6210 -2.1722
 4447SOL    HW214241   6.494   4.908   5.778 -1.0130 -0.1322  1.8041
 4448SOL     OW14242   0.499   2.359   0.365  0.2123  0.6349 -0.2534
 4448SOL    HW114243   0.559   2.380   0.288  1.0590  0.8117  0.4433
 4448SOL    HW214244   0.465   2.444   0.405  0.9680  0.6040  0.4835
 4449SOL     OW14245   5.492   1.263   0.741  0.1839  1.3678 -0.1666
 4449SOL    HW114246   5.519   1.167   0.747  2.3595  1.9296  0.0738
 4449SOL    HW214247   5.508   1.308   0.828 -0.2040  2.0906 -0.4602
 4450SOL     OW14248   3.728   3.423   3.274 -0.1543 -0.1511  0.2088
 4450SOL    HW114249   3.757   3.518   3.266 -1.6090  0.2067 -1.4681
 4450SOL    HW214250   3.628   3.419   3.275 -0.2708 -1.7698 -3.1609
 4451SOL     OW14251   6.818   3.530   0.261  0.2348 -0.9365  0.4130
 4451SOL    HW114252   6.750   3.541   0.334  1.8589  0.5404  1.8001
 4451SOL    HW214253   6.833   3.618   0.216 -0.6691 -1.8064 -1.7240
 4452SOL     OW14254   5.670   1.812   6.282 -0.2634  0.3987  0.2174
 4452SOL    HW114255   5.637   1.905   6.263  0.0486  0.0518 -2.4540
 4452SOL    HW214256   5.752   1.816   6.338 -0.1492  1.7552 -0.0147
 4453SOL     OW14257   5.670   1.260   6.393  0.0361 -0.0899  1.0566
 4453SOL    HW114258   5.639   1.355   6.383 -0.1979 -0.1870  0.8470
 4453SOL    HW214259   5.590   1.199   6.394  0.2205 -0.3481  0.4667
 4454SOL     OW14260   5.153   2.985   0.574 -0.2499 -0.0913  0.1151
 4454SOL    HW114261   5.252   2.996   0.586 -0.1507 -1.6337  1.0599
 4454SOL    HW214262   5.105   3.056   0.625  0.3540  1.0745 -0.8865
 4455SOL     OW14263   3.532   1.752   3.010 -0.5431 -0.4825  0.1261
 4455SOL    HW114264   3.602   1.699   3.059 -0.6315 -0.7010  0.0146
 4455SOL    HW214265   3.476   1.801   3.076 -0.6224 -0.7298  0.2454
 4456SOL     OW14266   1.979   4.997   4.071  0.4170 -0.1257 -0.3256
 4456SOL    HW114267   1.953   4.922   4.133 -1.3004  1.9675  1.7025
 4456SOL    HW214268   1.900   5.024   4.016  0.5646  1.0884  0.0157
 4457SOL     OW14269   3.684   1.494   2.060  0.4443 -0.1604 -0.5325
 4457SOL    HW114270   3.665   1.504   2.158 -1.7050 -1.0838 -0.8065
 4457SOL    HW214271   3.711   1.400   2.040  2.0375  0.2972 -0.6998
 4458SOL     OW14272   4.386   6.590   1.462 -0.1693 -0.0209  0.1654
 4458SOL    HW114273   4.314   6.627   1.521 -0.8281  0.0906 -0.6889
 4458SOL    HW214274   4.400   6.652   1.384 -0.1883 -0.7941 -0.4568
 4459SOL     OW14275   0.914   0.435   5.229  0.1226  0.3262  0.1864
 4459SOL    HW114276   0.922   0.525   5.185 -0.2654  0.1657 -0.2183
 4459SOL    HW214277   0.991   0.378   5.201  0.9416  0.8587  1.2516
 4460SOL     OW14278   0.673   1.483   1.939 -0.1691  0.0414  0.3545
 4460SOL    HW114279   0.657   1.430   2.022  2.6145  0.0833  1.0385
 4460SOL    HW214280   0.712   1.572   1.964 -0.3633  0.5089 -0.9524
 4461SOL     OW14281   1.466   6.449   4.114  0.4508 -0.1764 -0.8083
 4461SOL    HW114282   1.454   6.532   4.168  0.1880 -0.8263  0.1550
 4461SOL    HW214283   1.457   6.369   4.173  5.4565 -0.9377 -0.6400
 4462SOL     OW14284   0.130   3.768   0.915 -0.2184  0.0325  0.0784
 4462SOL    HW114285   0.173   3.680   0.898  0.0101  0.3977 -1.3973
 4462SOL    HW214286   0.082   3.766   1.003 -0.1607 -1.5272  0.0968
 4463SOL     OW14287   1.145   4.452   6.284 -0.8798  0.1217 -0.0589
 4463SOL    HW114288   1.140   4.494   6.193 -0.4612  1.3019  0.4320
 4463SOL    HW214289   1.054   4.454   6.326 -0.8903  0.4463 -0.0907
 4464SOL     OW14290   6.322   3.168   0.884 -0.3021 -0.2903  0.0358
 4464SOL    HW114291   6.289   3.236   0.950  1.0380 -0.0310  0.4760
 4464SOL    HW214292   6.316   3.205   0.792  4.0600  2.2020  0.4542
 4465SOL     OW14293   6.426   4.280   6.137  0.0816 -0.2273  0.8235
 4465SOL    HW114294   6.526   4.278   6.139  0.1391  1.0283 -0.0579
 4465SOL    HW214295   6.390   4.226   6.213  1.3648 -4.4036 -1.2117
 4466SOL     OW14296   6.112   2.985   2.241 -0.1308  0.2070  0.2729
 4466SOL    HW114297   6.179   2.932   2.189 -1.1388 -1.4572  0.5715
 4466SOL    HW214298   6.064   3.047   2.179  0.1786 -0.1911 -0.3782
 4467SOL     OW14299   1.237   1.219   4.020  0.0414  0.4553  0.5553
 4467SOL    HW114300   1.277   1.129   4.035 -1.9370 -0.1368  2.8357
 4467SOL    HW214301   1.224   1.234   3.922 -2.7944 -3.3056  0.1324
 4468SOL     OW14302   1.374   3.927   0.148 -0.3432  0.3116 -0.5191
 4468SOL    HW114303   1.411   3.956   0.237 -0.8077  0.6643 -0.4382
 4468SOL    HW214304   1.412   3.837   0.125 -1.9076 -0.8643  1.1231
 4469SOL     OW14305   4.476   6.647   1.060 -0.0508  0.2385 -0.2695
 4469SOL    HW114306   4.555   6.641   1.121 -0.1848  0.7130 -0.0495
 4469SOL    HW214307   4.429   6.734   1.074 -0.6689 -0.0818 -0.3353
 4470SOL     OW14308   4.161   4.156   6.889 -0.4618  0.2997  0.3912
 4470SOL    HW114309   4.171   4.247   6.848  0.0707  0.8920  1.7490
 4470SOL    HW214310   4.096   4.161   6.965  0.4931 -0.1523  1.2700
 4471SOL     OW14311   6.682   4.379   1.486  0.1473 -0.4685  0.0410
 4471SOL    HW114312   6.712   4.401   1.579  0.8152  0.0768 -0.2911
 4471SOL    HW214313   6.762   4.361   1.428 -0.1327  0.9605 -0.8504
 4472SOL     OW14314   1.180   5.748   2.749  0.5899  0.8744  0.6010
 4472SOL    HW114315   1.234   5.664   2.746  0.8164  1.0262  0.4234
 4472SOL    HW214316   1.110   5.745   2.678  1.1864  1.2325 -0.0148
 4473SOL     OW14317   6.317   1.376   0.443 -0.1562 -0.0013  0.3920
 4473SOL    HW114318   6.271   1.297   0.403  2.0184 -1.4864  0.6870
 4473SOL    HW214319   6.348   1.355   0.536  2.6218  0.2345 -0.3771
 4474SOL     OW14320   6.882   1.392   2.083  0.0477  0.2221 -0.0686
 4474SOL    HW114321   6.832   1.343   2.011 -0.2953  1.3799 -0.6339
 4474SOL    HW214322   6.824   1.463   2.121 -0.0567 -0.8802  1.9295
 4475SOL     OW14323   0.098   2.539   5.382 -0.4021 -0.0239  0.0185
 4475SOL    HW114324   0.027   2.575   5.321 -0.2602 -1.1620 -0.8626
 4475SOL    HW214325   0.060   2.531   5.475 -0.7088  1.4621  0.0501
 4476SOL     OW14326   2.819   0.962   2.801 -0.1302 -0.2349  0.0758
 4476SOL    HW114327   2.867   0.895   2.858  1.4506  1.1888  0.5061
 4476SOL    HW214328   2.810   0.926   2.708  3.4439  0.0527 -0.5345
 4477SOL     OW14329   0.800   2.702   6.622 -0.8401 -0.3400 -0.5822
 4477SOL    HW114330   0.855   2.739   6.548 -0.1128 -0.3008 -0.0393
 4477SOL    HW214331   0.836   2.613   6.649 -0.0221  0.3780  0.8319
 4478SOL     OW14332   0.080   5.511   0.716  0.5324  0.4794 -0.3637
 4478SOL    HW114333  -0.014   5.480   0.706  0.4424  0.7520 -0.3485
 4478SOL    HW214334   0.094   5.596   0.666  0.8171  0.3506 -0.5118
 4479SOL     OW14335   2.380   6.867   4.488 -0.1350  0.8178  0.9257
 4479SOL    HW114336   2.297   6.852   4.541  0.1793  0.7101  1.3963
 4479SOL    HW214337   2.370   6.825   4.397  0.0985 -0.8089  1.6222
 4480SOL     OW14338   1.753   4.422   2.657 -0.4357  0.1913 -0.0383
 4480SOL    HW114339   1.798   4.425   2.746  0.4180 -0.5058 -0.4317
 4480SOL    HW214340   1.811   4.373   2.592 -0.8218  1.1101 -1.1085
 4481SOL     OW14341   5.813   0.384   5.685  0.4030 -0.0678  0.3296
 4481SOL    HW114342   5.738   0.345   5.738 -2.4656  0.6986 -2.8444
 4481SOL    HW214343   5.880   0.312   5.664 -0.3947 -1.2339  1.6020
 4482SOL     OW14344   6.900   3.686   2.969  0.6699 -0.0054  0.0379
 4482SOL    HW114345   6.959   3.665   2.892 -1.4705  1.7306 -2.2415
 4482SOL    HW214346   6.955   3.719   3.046  2.7575 -0.0853 -1.3500
 4483SOL     OW14347   1.203   3.228   1.416  0.4045  0.0493 -0.7629
 4483SOL    HW114348   1.299   3.202   1.428  0.9072  2.5406  1.8559
 4483SOL    HW214349   1.196   3.292   1.339  0.9191  0.1006 -0.7740
 4484SOL     OW14350   3.154   1.554   5.372 -0.0262 -0.1483  0.4515
 4484SOL    HW114351   3.221   1.604   5.425 -1.1610 -0.0634  1.8590
 4484SOL    HW214352   3.194   1.527   5.284  1.8384 -0.1336  1.2522
 4485SOL     OW14353   5.875   0.736   5.028  0.0579  0.1305  0.3765
 4485SOL    HW114354   5.966   0.694   5.024  0.4322  0.4756  3.0288
 4485SOL    HW214355   5.825   0.699   5.107 -0.9632  2.0421  0.6920
 4486SOL     OW14356   6.075   3.845   4.065 -0.1222 -0.1191  0.0086
 4486SOL    HW114357   5.987   3.802   4.046  0.5539 -1.6056  0.0591
 4486SOL    HW214358   6.127   3.788   4.129 -0.1115  1.9867  2.0497
 4487SOL     OW14359   2.982   3.155   4.873  0.1306  0.1969 -0.4980
 4487SOL    HW114360   2.884   3.135   4.871  0.3116 -0.7168 -1.2947
 4487SOL    HW214361   3.019   3.134   4.963 -0.2880 -0.1021 -0.3953
 4488SOL     OW14362   6.248   2.204   1.145 -0.0130 -0.3242  0.2246
 4488SOL    HW114363   6.288   2.164   1.063  0.3047 -0.2391  0.3347
 4488SOL    HW214364   6.159   2.244   1.124 -0.8912 -2.1302  0.3527
 4489SOL     OW14365   0.536   0.279   1.932 -0.2586  0.2553  0.3931
 4489SOL    HW114366   0.608   0.341   1.900 -0.2833  0.4937  0.8035
 4489SOL    HW214367   0.479   0.325   2.000 -0.1202 -0.2987  0.8928
 4490SOL     OW14368   6.489   1.616   4.324 -0.3318 -0.1823 -0.0330
 4490SOL    HW114369   6.552   1.622   4.246 -0.1970 -0.8794  0.0123
 4490SOL    HW214370   6.541   1.592   4.406 -0.8256 -2.3318 -0.2865
 4491SOL     OW14371   2.545   3.765   1.169  0.0153  0.2166 -0.3205
 4491SOL    HW114372   2.553   3.837   1.100  1.6148  1.6580  1.2853
 4491SOL    HW214373   2.466   3.708   1.148 -0.8249  1.9193 -2.1107
 4492SOL     OW14374   5.062   4.717   6.549 -0.5845  0.0028  0.5800
 4492SOL    HW114375   5.090   4.723   6.645  1.0213  1.2507  0.0991
 4492SOL    HW214376   5.008   4.635   6.534 -0.2946 -0.5596  2.4179
 4493SOL     OW14377   6.225   3.903   3.154 -0.0038 -0.5661 -0.7749
 4493SOL    HW114378   6.278   3.913   3.238  0.5831 -2.4114 -0.8792
 4493SOL    HW214379   6.128   3.909   3.176  0.1630 -0.0641 -0.1244
 4494SOL     OW14380   6.310   4.380   3.223 -0.0451 -0.4906  0.2424
 4494SOL    HW114381   6.270   4.429   3.145 -1.5025 -1.5524  0.2754
 4494SOL    HW214382   6.345   4.292   3.193 -1.7139 -1.4414  0.9447
 4495SOL     OW14383   0.313   6.451   1.920  0.1244  0.7745 -0.3136
 4495SOL    HW114384   0.400   6.491   1.950  1.1320 -3.0718  2.8330
 4495SOL    HW214385   0.320   6.424   1.824  3.5777 -1.6388  0.4152
 4496SOL     OW14386   0.546   4.093   5.381  0.5368  0.0944 -0.3090
 4496SOL    HW114387   0.588   4.138   5.459  1.3651 -0.3197 -0.5071
 4496SOL    HW214388   0.553   4.151   5.300 -2.2042  1.4825  0.3263
 4497SOL     OW14389   6.501   4.625   6.896  0.3275 -0.5581  0.1872
 4497SOL    HW114390   6.404   4.626   6.873  0.0558 -1.4676  1.2742
 4497SOL    HW214391   6.548   4.554   6.843  0.8950  1.3409 -2.0822
 4498SOL     OW14392   2.688   3.564   6.959 -0.1946  0.2249 -0.1010
 4498SOL    HW114393   2.694   3.500   6.883 -1.6118 -2.8770  2.1431
 4498SOL    HW214394   2.774   3.563   7.010  0.0647  0.7628 -0.5219
 4499SOL     OW14395   6.188   5.053   0.049 -0.5509  0.4820  0.8828
 4499SOL    HW114396   6.245   4.993  -0.008  0.2225  1.0113  1.0775
 4499SOL    HW214397   6.103   5.073   0.001 -1.3682 -1.7036  1.3044
 4500SOL     OW14398   3.673   3.852   2.330  0.0375 -0.3327 -0.6248
 4500SOL    HW114399   3.645   3.825   2.422 -2.5184  2.2914 -0.4724
 4500SOL    HW214400   3.659   3.775   2.267 -0.5966 -1.3951  0.7529
 4501SOL     OW14401   2.017   3.632   5.885 -0.0239 -0.4390  0.3391
 4501SOL    HW114402   2.117   3.642   5.883 -0.0028 -0.7239 -0.5508
 4501SOL    HW214403   1.977   3.708   5.937  0.7367 -1.1299  2.0052
 4502SOL     OW14404   3.956   0.890   0.343 -0.0661  0.1952 -0.0243
 4502SOL    HW114405   4.034   0.953   0.342  0.6774 -0.6968  0.5843
 4502SOL    HW214406   3.946   0.850   0.434  0.0526 -1.2839 -0.6369
 4503SOL     OW14407   1.768   3.974   2.568 -0.3305  0.1831  0.2537
 4503SOL    HW114408   1.815   3.953   2.482 -0.8074  0.0346  0.0251
 4503SOL    HW214409   1.829   3.952   2.645 -0.4038 -1.0247 -0.0045
 4504SOL     OW14410   4.320   1.848   2.801 -0.5793 -0.4782  0.2629
 4504SOL    HW114411   4.307   1.929   2.857 -3.7672 -0.4678 -0.3200
 4504SOL    HW214412   4.312   1.766   2.858 -1.3590 -0.4262  0.2356
 4505SOL     OW14413   1.921   5.946   0.587 -0.0678  0.4665  0.3626
 4505SOL    HW114414   1.831   5.975   0.557  0.2508  0.0893 -1.0410
 4505SOL    HW214415   1.964   6.019   0.639 -0.3438  1.4995 -0.8047
 4506SOL     OW14416   5.139   6.059   5.710 -0.1638 -0.6680  0.4189
 4506SOL    HW114417   5.054   6.048   5.762  0.5572  1.0914  2.1007
 4506SOL    HW214418   5.191   5.974   5.713 -0.2674 -0.7132  2.4762
 4507SOL     OW14419   6.054   2.918   3.258 -0.7333 -0.2929 -0.1766
 4507SOL    HW114420   6.027   2.930   3.162  0.7422 -1.1195 -0.7261
 4507SOL    HW214421   6.039   2.824   3.286 -0.7091 -0.1704  0.2548
 4508SOL     OW14422   3.058   4.703   6.966 -0.2595  0.2090  0.4855
 4508SOL    HW114423   3.092   4.687   7.059 -2.3083 -2.7420  0.8321
 4508SOL    HW214424   3.080   4.625   6.908 -2.1204  0.3706 -0.5182
 4509SOL     OW14425   6.181   2.676   3.466  0.2523 -0.7798 -0.3924
 4509SOL    HW114426   6.256   2.693   3.402  0.3430  2.2188  0.3498
 4509SOL    HW214427   6.164   2.759   3.519 -2.1305 -2.0901  1.0435
 4510SOL     OW14428   3.441   0.294   6.242  0.4940  0.1821  0.4754
 4510SOL    HW114429   3.526   0.333   6.207  0.7407 -0.0536  0.8075
 4510SOL    HW214430   3.385   0.262   6.165  0.9758 -0.2185  0.2863
 4511SOL     OW14431   6.175   3.552   6.574  0.0981 -0.5215  0.4422
 4511SOL    HW114432   6.156   3.483   6.644  1.0019 -1.4973 -0.2349
 4511SOL    HW214433   6.259   3.527   6.525  0.0910  0.7340 -0.2482
 4512SOL     OW14434   2.875   3.547   0.134  0.2967 -0.3035 -0.8242
 4512SOL    HW114435   2.821   3.591   0.206 -1.0824 -0.3381 -1.7993
 4512SOL    HW214436   2.950   3.607   0.108 -1.2738  1.3687 -1.7993
 4513SOL     OW14437   6.870   0.705   2.206  0.2796 -0.6004  0.3056
 4513SOL    HW114438   6.815   0.787   2.221 -0.2975 -1.2498  2.0070
 4513SOL    HW214439   6.916   0.711   2.117  1.6365  2.3731  1.0593
 4514SOL     OW14440   1.935   5.416   6.025  0.5727  0.0810 -0.0751
 4514SOL    HW114441   1.912   5.319   6.023 -1.7918  0.5029  1.6773
 4514SOL    HW214442   1.876   5.465   5.961  0.3993  0.5594  0.4406
 4515SOL     OW14443   0.009   4.196   0.638  0.3391  0.2598 -0.6901
 4515SOL    HW114444   0.065   4.197   0.721  0.6792  1.9124 -0.9039
 4515SOL    HW214445  -0.085   4.173   0.662  0.3010  1.3170  0.2815
 4516SOL     OW14446   2.878   6.336   3.129  0.6579 -0.5407 -0.8190
 4516SOL    HW114447   2.958   6.319   3.186 -0.0152 -1.0448 -0.0133
 4516SOL    HW214448   2.838   6.249   3.100  0.3252 -0.2967 -1.1086
 4517SOL     OW14449   1.624   0.007   1.453  0.3610  0.6552 -0.2870
 4517SOL    HW114450   1.630   0.017   1.353  1.7356  1.2754 -0.1591
 4517SOL    HW214451   1.596   0.094   1.493 -1.0278  0.1807 -0.1691
 4518SOL     OW14452   3.461   5.651   4.773 -0.1221  0.3956  0.6581
 4518SOL    HW114453   3.460   5.557   4.807  0.3083  0.4464  0.8114
 4518SOL    HW214454   3.396   5.706   4.825 -1.3082 -0.0949 -0.2489
 4519SOL     OW14455   0.005   1.949   3.988  0.6131 -0.9234 -0.8271
 4519SOL    HW114456   0.047   1.876   3.934  0.7751  0.1939 -2.2421
 4519SOL    HW214457  -0.046   2.010   3.928 -1.2598 -1.0096  0.5909
 4520SOL     OW14458   0.506   3.323   4.665  0.2032  0.3758  0.1998
 4520SOL    HW114459   0.450   3.406   4.660  2.2459  1.8108 -0.2559
 4520SOL    HW214460   0.467   3.261   4.732 -1.3438  1.7341  0.6435
 4521SOL     OW14461   4.782   2.652   0.015 -0.4908  0.2024 -0.6638
 4521SOL    HW114462   4.746   2.608   0.097 -0.7004  0.1367 -0.7903
 4521SOL    HW214463   4.839   2.729   0.041  1.7975 -1.5121 -0.3462
 4522SOL     OW14464   6.329   1.608   2.518  0.2061 -0.1982  0.6210
 4522SOL    HW114465   6.378   1.692   2.541 -0.3922 -0.1843  1.9079
 4522SOL    HW214466   6.232   1.628   2.506 -0.0446 -0.7986  1.5684
 4523SOL     OW14467   3.523   1.157   5.806  0.5138 -0.3474 -0.6077
 4523SOL    HW114468   3.556   1.107   5.886  0.9878  1.2090  0.2217
 4523SOL    HW214469   3.563   1.249   5.806  0.4283 -0.2615 -2.5804
 4524SOL     OW14470   5.085   1.082   4.371  0.0740 -0.1765  0.0002
 4524SOL    HW114471   4.996   1.080   4.418  0.5389  2.1686  1.1251
 4524SOL    HW214472   5.139   1.159   4.405  2.2419 -1.0547 -1.2595
 4525SOL     OW14473   5.073   2.269   3.886 -0.6377 -0.6234  0.3110
 4525SOL    HW114474   5.116   2.326   3.956  0.6604 -0.0957 -0.8829
 4525SOL    HW214475   4.994   2.222   3.926  1.2616 -1.9881  2.7524
 4526SOL     OW14476   4.239   0.772   0.350 -0.4308 -0.5407 -0.1264
 4526SOL    HW114477   4.300   0.734   0.420 -0.5851 -2.4387 -0.9585
 4526SOL    HW214478   4.152   0.723   0.352 -0.5249 -0.4639 -1.4593
 4527SOL     OW14479   5.566   0.873   3.321  0.0398  0.0982  0.5069
 4527SOL    HW114480   5.562   0.776   3.299  1.5404 -0.1197  1.0763
 4527SOL    HW214481   5.482   0.918   3.292  0.0134 -1.0484 -1.3105
 4528SOL     OW14482   5.007   1.395   5.596  0.5179 -0.3509 -0.1698
 4528SOL    HW114483   4.955   1.311   5.581 -2.0736  0.3763  3.3628
 4528SOL    HW214484   4.984   1.433   5.686  3.2066  3.0469 -0.6858
 4529SOL     OW14485   4.906   0.883   1.939  0.4688 -0.5103 -0.1984
 4529SOL    HW114486   4.819   0.834   1.935  1.1946 -2.0469  1.3835
 4529SOL    HW214487   4.933   0.895   2.034  2.3398 -0.7657 -0.6606
 4530SOL     OW14488   1.055   3.078   3.378 -0.7407  0.4970 -0.1919
 4530SOL    HW114489   1.146   3.117   3.395 -0.4164 -0.4541  0.3710
 4530SOL    HW214490   1.000   3.086   3.461 -0.9431  0.4810 -0.3253
 4531SOL     OW14491   0.631   3.767   4.104  0.0135 -0.3984  0.0800
 4531SOL    HW114492   0.539   3.806   4.112  1.0796  1.9758  2.0337
 4531SOL    HW214493   0.656   3.759   4.007 -0.7460  2.8568 -0.4975
 4532SOL     OW14494   1.965   1.385   5.912 -0.3894 -0.5718 -0.0181
 4532SOL    HW114495   1.871   1.388   5.944 -1.8056 -0.2759 -3.7308
 4532SOL    HW214496   1.986   1.468   5.860  1.7068 -0.9218  0.1650
 4533SOL     OW14497   5.037   6.512   2.346 -0.4075 -0.4281  0.3486
 4533SOL    HW114498   4.961   6.546   2.400 -0.9192 -0.5015 -0.3098
 4533SOL    HW214499   5.017   6.523   2.249  0.4203 -0.4527  0.1639
 4534SOL     OW14500   4.910   6.013   5.835  0.6503 -0.0415  0.5509
 4534SOL    HW114501   4.913   6.064   5.921  0.2659 -0.8868  1.0803
 4534SOL    HW214502   4.885   5.918   5.854 -0.7249  0.0606 -0.6179
 4535SOL     OW14503   5.587   1.269   4.848 -0.0760  0.3449 -0.0609
 4535SOL    HW114504   5.581   1.326   4.929  1.5529 -0.6882  0.8236
 4535SOL    HW214505   5.612   1.326   4.769  1.6898  0.8759  0.8279
 4536SOL     OW14506   0.003   0.871   2.897  0.6528  0.3506  0.3023
 4536SOL    HW114507   0.036   0.961   2.869  0.8353  0.6713  1.5318
 4536SOL    HW214508   0.019   0.806   2.822  2.0450  0.9692  0.0195
 4537SOL     OW14509   4.881   4.545   5.799  1.1342  0.1795 -0.4424
 4537SOL    HW114510   4.882   4.511   5.893 -2.1061 -0.4811 -0.5196
 4537SOL    HW214511   4.917   4.474   5.737 -0.8251 -1.2066 -0.0804
 4538SOL     OW14512   4.220   0.669   1.405  0.3257 -0.2654 -0.1543
 4538SOL    HW114513   4.175   0.707   1.486 -0.8220 -1.4493 -0.1944
 4538SOL    HW214514   4.242   0.742   1.341 -3.7005  0.2943 -1.1965
 4539SOL     OW14515   4.137   3.105   5.869 -0.6843 -0.3447  0.1441
 4539SOL    HW114516   4.078   3.039   5.917 -1.8175 -0.2687 -1.0789
 4539SOL    HW214517   4.231   3.072   5.871 -1.1520 -1.7989 -0.0660
 4540SOL     OW14518   3.116   4.050   5.972  0.3932  0.0894  0.2727
 4540SOL    HW114519   3.048   3.987   5.934  0.8164  0.0907 -0.5137
 4540SOL    HW214520   3.085   4.144   5.959 -0.0263  0.0581  1.0334
 4541SOL     OW14521   5.215   0.329   1.905 -0.3196 -0.4220 -0.7180
 4541SOL    HW114522   5.314   0.336   1.923 -0.4474 -0.5681  0.0850
 4541SOL    HW214523   5.187   0.402   1.844  0.3072 -0.4338 -1.0269
 4542SOL     OW14524   5.562   6.306   3.934 -0.1376  0.3734  0.1241
 4542SOL    HW114525   5.569   6.382   3.869  1.7565  0.1041 -0.0643
 4542SOL    HW214526   5.516   6.336   4.017  0.2615  1.6345 -0.0941
 4543SOL     OW14527   6.301   2.972   3.109 -1.0028  0.0980 -0.0302
 4543SOL    HW114528   6.244   2.983   3.028 -1.1316  0.2040  0.0725
 4543SOL    HW214529   6.247   2.995   3.190 -0.4245  1.5277 -0.0205
 4544SOL     OW14530   5.056   5.184   0.574 -0.0209  0.6729  0.2134
 4544SOL    HW114531   5.152   5.210   0.578 -0.3785  2.0630  0.1933
 4544SOL    HW214532   4.999   5.263   0.595 -1.1818  0.0508 -0.4876
 4545SOL     OW14533   4.003   3.331   5.765 -0.2713  0.3653  0.4344
 4545SOL    HW114534   3.960   3.281   5.690  0.2593  0.6119 -0.0466
 4545SOL    HW214535   4.042   3.266   5.831  1.1081  0.1113 -0.5887
 4546SOL     OW14536   0.243   6.008   0.522  0.4142 -0.0628  0.1015
 4546SOL    HW114537   0.303   6.010   0.602  0.4943  0.4222  0.0343
 4546SOL    HW214538   0.189   6.092   0.518 -0.0888 -0.3832  0.0187
 4547SOL     OW14539   5.276   1.598   0.865 -0.2688 -0.2009  0.0436
 4547SOL    HW114540   5.372   1.626   0.867 -0.4516  0.9586 -2.6751
 4547SOL    HW214541   5.271   1.499   0.862  0.8083 -0.2967  0.7023
 4548SOL     OW14542   6.594   3.901   3.398  0.6730  0.1246  0.0349
 4548SOL    HW114543   6.580   3.916   3.496  1.6930  0.7441  0.0988
 4548SOL    HW214544   6.543   3.971   3.346 -0.8620 -0.9330  0.0572
 4549SOL     OW14545   6.349   0.760   2.997  0.3787 -0.1560 -0.0716
 4549SOL    HW114546   6.339   0.828   2.924 -0.3155 -0.6340 -0.4316
 4549SOL    HW214547   6.438   0.773   3.042  1.0401 -0.1586 -1.3280
 4550SOL     OW14548   2.818   5.136   6.046  0.5829 -0.3554 -0.1247
 4550SOL    HW114549   2.785   5.225   6.017 -1.2615 -0.8401  0.3367
 4550SOL    HW214550   2.885   5.147   6.118  1.1757  0.6765 -0.8143
 4551SOL     OW14551   6.277   3.812   0.427  0.6102  0.4295  0.4171
 4551SOL    HW114552   6.280   3.847   0.521 -2.1086  1.9016  0.0361
 4551SOL    HW214553   6.257   3.886   0.364  0.8862 -0.8096 -1.1904
 4552SOL     OW14554   5.554   2.915   4.865 -0.4064  0.1103  0.3820
 4552SOL    HW114555   5.528   2.981   4.936 -0.0743  0.9825 -0.2852
 4552SOL    HW214556   5.596   2.964   4.789  0.5785 -0.9695  0.2142
 4553SOL     OW14557   4.591   3.147   6.040 -0.1968  0.2263 -0.8349
 4553SOL    HW114558   4.593   3.220   6.109 -1.4990 -2.0846  1.8000
 4553SOL    HW214559   4.669   3.159   5.978  0.4985  2.9723  0.4010
 4554SOL     OW14560   6.603   0.704   3.544 -0.0061 -0.3695  0.7164
 4554SOL    HW114561   6.544   0.636   3.587  0.2927 -0.9808  0.1785
 4554SOL    HW214562   6.560   0.794   3.550 -0.5731 -0.6600  1.1140
 4555SOL     OW14563   2.764   0.955   6.186 -0.2061  0.1607  0.4032
 4555SOL    HW114564   2.673   0.992   6.204 -0.0857  0.9687 -0.6084
 4555SOL    HW214565   2.777   0.942   6.088  0.3445 -1.0943  0.6130
 4556SOL     OW14566   4.053   0.976   6.074 -0.7217 -0.2391  0.2431
 4556SOL    HW114567   3.971   0.967   6.131 -0.5952 -2.1725  0.2106
 4556SOL    HW214568   4.123   1.027   6.123 -1.2259 -0.3833  1.1239
 4557SOL     OW14569   0.191   5.815   2.621 -0.4115  0.7081 -0.0353
 4557SOL    HW114570   0.270   5.837   2.564 -0.2312  0.5081  0.1350
 4557SOL    HW214571   0.139   5.898   2.641 -0.0246  0.8968  0.1821
 4558SOL     OW14572   4.370   1.509   5.875  0.6896  0.0323  0.7161
 4558SOL    HW114573   4.363   1.481   5.971 -1.4932  2.4111  1.3802
 4558SOL    HW214574   4.279   1.509   5.834  1.3887  0.5417 -0.8918
 4559SOL     OW14575   1.543   0.469   1.934  0.0698  0.5509  0.0002
 4559SOL    HW114576   1.597   0.385   1.948  0.2342  0.1348 -2.7326
 4559SOL    HW214577   1.596   0.547   1.967 -0.3399 -0.3475  3.2175
 4560SOL     OW14578   6.384   3.338   1.702 -0.0499  0.0375 -0.0881
 4560SOL    HW114579   6.344   3.394   1.630 -2.0806 -2.4086 -1.0078
 4560SOL    HW214580   6.324   3.338   1.782  0.9221  0.6672  0.6780
 4561SOL     OW14581   2.030   1.733   6.379 -0.3559  0.1553  0.2795
 4561SOL    HW114582   1.973   1.657   6.411  1.6542 -1.8640 -0.6774
 4561SOL    HW214583   2.085   1.768   6.454 -0.8038  0.2451  0.5709
 4562SOL     OW14584   0.925   5.620   6.716 -0.3028 -0.1117  0.4148
 4562SOL    HW114585   0.839   5.614   6.665  0.3675 -1.2527 -0.6450
 4562SOL    HW214586   0.943   5.715   6.739  0.1582  0.7546 -2.9683
 4563SOL     OW14587   6.498   1.635   0.304 -0.2573 -0.6778  0.0080
 4563SOL    HW114588   6.404   1.667   0.297 -0.2957 -0.9833 -1.0835
 4563SOL    HW214589   6.503   1.539   0.279  0.0605 -1.2181  1.9943
 4564SOL     OW14590   6.180   0.048   6.103  0.1280  0.2006 -0.2908
 4564SOL    HW114591   6.115  -0.006   6.156  0.3368 -0.6979 -0.9286
 4564SOL    HW214592   6.223   0.116   6.162 -0.2709 -0.2125  0.4884
 4565SOL     OW14593   3.555   1.767   3.575  0.1688  0.5875  0.4655
 4565SOL    HW114594   3.537   1.692   3.638  0.3126  0.4593  0.3561
 4565SOL    HW214595   3.473   1.824   3.566 -0.1648  0.0431  0.0097
 4566SOL     OW14596   0.692   1.875   2.336  0.0061 -0.3324 -0.0970
 4566SOL    HW114597   0.601   1.836   2.327  0.2084 -0.8131 -0.0811
 4566SOL    HW214598   0.693   1.967   2.297 -0.2176 -0.7359 -1.0652
 4567SOL     OW14599   6.208   0.486   0.744  0.4376  0.1327  0.4028
 4567SOL    HW114600   6.132   0.421   0.740  0.5032  0.1004 -0.5830
 4567SOL    HW214601   6.291   0.443   0.708  0.6291  0.5651  0.3151
 4568SOL     OW14602   5.290   6.491   2.427  0.7453  0.2827  0.4992
 4568SOL    HW114603   5.299   6.447   2.516 -0.6387 -1.4844 -0.1703
 4568SOL    HW214604   5.195   6.484   2.396  1.0984  1.3061 -0.9088
 4569SOL     OW14605   2.742   2.314   2.289  0.7175 -0.1085  0.2667
 4569SOL    HW114606   2.790   2.229   2.312  2.7966  1.3691  1.6752
 4569SOL    HW214607   2.784   2.355   2.208 -0.6293 -0.6393 -0.7368
 4570SOL     OW14608   5.414   4.597   3.891  0.1638 -0.3633 -1.4906
 4570SOL    HW114609   5.469   4.680   3.890  0.5076 -0.5695 -0.5893
 4570SOL    HW214610   5.317   4.621   3.898  0.3925 -0.0008  2.9620
 4571SOL     OW14611   3.589   3.296   4.465  0.0303  0.3913 -0.1701
 4571SOL    HW114612   3.510   3.358   4.475 -1.8435 -1.8522 -0.1366
 4571SOL    HW214613   3.592   3.260   4.372  2.4862  2.1581 -0.8802
 4572SOL     OW14614   2.417   5.325   3.222 -0.5593 -0.1521  0.4552
 4572SOL    HW114615   2.393   5.272   3.141 -1.5663  1.1143 -0.1076
 4572SOL    HW214616   2.337   5.376   3.253  0.7193  2.2630  0.0311
 4573SOL     OW14617   3.082   0.580   6.223  0.2233 -0.5719 -0.0511
 4573SOL    HW114618   3.025   0.529   6.158  0.1335 -0.1872 -0.2818
 4573SOL    HW214619   3.129   0.516   6.284  2.3720 -1.1682 -2.1448
 4574SOL     OW14620   6.137   4.966   1.764  0.1679  0.4139 -0.5438
 4574SOL    HW114621   6.155   4.894   1.697  0.3234  0.7810 -0.9074
 4574SOL    HW214622   6.159   4.934   1.856 -1.6511 -0.6735 -0.4511
 4575SOL     OW14623   6.851   6.115   1.353 -0.5358 -0.2411 -0.2585
 4575SOL    HW114624   6.852   6.073   1.262 -0.4930 -0.6350 -0.0787
 4575SOL    HW214625   6.776   6.182   1.358 -0.1969  0.1821 -0.7588
 4576SOL     OW14626   2.616   6.274   4.653  0.1117  0.7084  0.2199
 4576SOL    HW114627   2.636   6.295   4.749  1.1060  2.9268 -0.4000
 4576SOL    HW214628   2.584   6.357   4.607  0.9410  0.0146 -1.6952
 4577SOL     OW14629   1.058   3.249   5.178 -0.5805  0.1857 -0.5506
 4577SOL    HW114630   1.095   3.167   5.135 -0.0571 -1.2573  2.4562
 4577SOL    HW214631   0.958   3.248   5.172 -0.6042 -0.9468 -0.1073
 4578SOL     OW14632   0.294   5.685   4.969  0.0624 -0.1907 -0.1204
 4578SOL    HW114633   0.324   5.762   5.026  1.8825 -0.2220 -0.9762
 4578SOL    HW214634   0.292   5.602   5.025  0.0292  0.1082  0.3316
 4579SOL     OW14635   4.777   2.773   4.721 -0.5532  0.0936 -0.1983
 4579SOL    HW114636   4.782   2.819   4.810  0.0125  1.5551 -0.9426
 4579SOL    HW214637   4.722   2.690   4.729  0.2939 -0.3286  1.7187
 4580SOL     OW14638   1.218   0.010   0.316 -0.5860  0.1018 -0.0516
 4580SOL    HW114639   1.305   0.008   0.266 -1.3289  0.9999 -1.4303
 4580SOL    HW214640   1.227   0.070   0.396 -0.2364  1.1093 -0.8221
 4581SOL     OW14641   3.964   6.671   4.040 -0.4291  0.0799  0.2367
 4581SOL    HW114642   3.936   6.763   4.010 -0.6648  0.5219  1.7414
 4581SOL    HW214643   3.884   6.612   4.045 -0.2738 -0.2340 -0.7551
 4582SOL     OW14644   4.944   0.115   2.376 -0.1534  0.5507  0.2098
 4582SOL    HW114645   4.983   0.183   2.314  0.1632 -0.3026 -0.5541
 4582SOL    HW214646   4.959   0.144   2.471  2.4999  0.2123 -0.0421
 4583SOL     OW14647   3.710   0.378   4.290 -0.6282 -0.2034 -0.4064
 4583SOL    HW114648   3.621   0.423   4.280 -0.7702 -0.6534 -1.2303
 4583SOL    HW214649   3.783   0.447   4.287 -1.0293  0.6627  3.8024
 4584SOL     OW14650   0.071   4.414   5.166 -0.0543  0.3191 -0.7598
 4584SOL    HW114651  -0.003   4.414   5.233  1.1386 -1.1934  0.6273
 4584SOL    HW214652   0.095   4.509   5.143 -0.7241  0.8651  0.6923
 4585SOL     OW14653   4.709   6.870   2.819 -0.1226 -0.0940  0.2961
 4585SOL    HW114654   4.747   6.931   2.889  2.5392 -0.3909 -0.7891
 4585SOL    HW214655   4.720   6.775   2.848 -0.3193 -0.1798  0.0920
 4586SOL     OW14656   2.115   6.659   1.153  0.4536 -0.2500 -0.1814
 4586SOL    HW114657   2.029   6.693   1.191  0.9931  1.4131 -0.3759
 4586SOL    HW214658   2.096   6.583   1.091 -1.0257  0.9454 -1.2583
 4587SOL     OW14659   3.804   5.961   6.633 -0.2894 -0.1405 -0.0742
 4587SOL    HW114660   3.851   6.002   6.712 -1.5240  2.6976 -0.6693
 4587SOL    HW214661   3.708   5.949   6.655 -0.1694 -1.7457 -0.3427
 4588SOL     OW14662   3.389   4.914   6.816  0.4342  0.6013  0.3611
 4588SOL    HW114663   3.441   4.839   6.773  0.7274  0.2449  1.3135
 4588SOL    HW214664   3.295   4.912   6.783  1.0541  1.3881 -1.5614
 4589SOL     OW14665   2.217   0.603   5.063 -0.3150  0.0416 -0.0778
 4589SOL    HW114666   2.204   0.562   5.154 -1.4726 -1.3204 -0.8191
 4589SOL    HW214667   2.208   0.702   5.070 -0.4375 -0.0464  1.2948
 4590SOL     OW14668   3.090   5.451   3.029  0.6173  0.2667  0.0671
 4590SOL    HW114669   2.998   5.488   3.030 -0.1951 -1.6067  0.6084
 4590SOL    HW214670   3.085   5.351   3.034  2.6264 -0.0138 -2.0330
 4591SOL     OW14671   5.822   6.644   4.792 -0.1754 -0.4165  0.0237
 4591SOL    HW114672   5.790   6.680   4.704  1.3080  1.8056  0.3350
 4591SOL    HW214673   5.845   6.547   4.781  0.5364 -0.0571 -2.2020
 4592SOL     OW14674   3.662   2.382   5.673  0.5779  0.3871  0.1704
 4592SOL    HW114675   3.642   2.301   5.728 -0.5771 -0.8024 -1.8754
 4592SOL    HW214676   3.576   2.424   5.643  1.1758  1.4618 -0.1008
 4593SOL     OW14677   5.670   6.463   1.476  1.1708  0.4333 -0.0160
 4593SOL    HW114678   5.650   6.395   1.547  3.5118 -0.1148  0.1702
 4593SOL    HW214679   5.654   6.422   1.386 -0.1316  0.5813  0.1225
 4594SOL     OW14680   2.371   1.254   2.649  0.3296 -0.2525  0.6745
 4594SOL    HW114681   2.465   1.236   2.677  0.1005 -0.5223  1.3034
 4594SOL    HW214682   2.354   1.353   2.650 -0.2708 -0.2908  3.6640
 4595SOL     OW14683   4.653   1.041   6.378  0.2329 -0.0514 -0.6038
 4595SOL    HW114684   4.648   1.104   6.455  0.5409 -0.5265 -0.1871
 4595SOL    HW214685   4.648   1.092   6.292 -0.0211  0.4884 -0.2713
 4596SOL     OW14686   4.247   6.969   1.947 -0.8820 -0.0658  0.2189
 4596SOL    HW114687   4.234   7.042   2.014  0.7881  0.5323 -0.0565
 4596SOL    HW214688   4.317   6.997   1.881 -2.3728 -0.6859 -1.7313
 4597SOL     OW14689   4.946   5.989   4.228  0.3468  0.4846  0.5752
 4597SOL    HW114690   4.888   5.957   4.154  0.0903  1.3805  0.3735
 4597SOL    HW214691   4.966   6.086   4.215 -1.0822  1.1196  2.5285
 4598SOL     OW14692   1.611   5.324   6.484  0.2289 -0.4710  0.4392
 4598SOL    HW114693   1.636   5.281   6.397  2.5425  0.8137  0.3735
 4598SOL    HW214694   1.591   5.253   6.552 -2.1396 -1.4969 -1.2004
 4599SOL     OW14695   2.889   5.497   1.207  0.1596 -0.5533 -0.3332
 4599SOL    HW114696   2.911   5.544   1.292  1.2472  0.0307 -0.9246
 4599SOL    HW214697   2.918   5.402   1.213  0.3903 -0.4698 -0.1144
 4600SOL     OW14698   2.741   4.505   1.001  0.2756 -0.6635  0.2669
 4600SOL    HW114699   2.837   4.490   0.981 -0.3485 -1.4357 -2.5534
 4600SOL    HW214700   2.715   4.598   0.974 -0.0627 -0.8912 -0.1902
 4601SOL     OW14701   3.585   6.809   3.354  0.4171  0.1990 -0.2724
 4601SOL    HW114702   3.542   6.899   3.356 -0.4538 -0.0817 -2.9603
 4601SOL    HW214703   3.568   6.763   3.442 -1.8959  1.4252  0.0078
 4602SOL     OW14704   1.321   1.582   1.094  0.6191  0.4714  0.3456
 4602SOL    HW114705   1.331   1.490   1.055 -0.7070  0.6178 -0.3945
 4602SOL    HW214706   1.407   1.632   1.083  0.7243  0.0192 -1.1306
 4603SOL     OW14707   3.303   2.358   1.398 -0.3102  0.0391  0.3626
 4603SOL    HW114708   3.271   2.443   1.438 -1.5590  0.9505 -2.3179
 4603SOL    HW214709   3.252   2.281   1.437 -3.0196  1.0952 -0.8427
 4604SOL     OW14710   2.339   6.629   5.537  0.2179  0.5310 -0.0373
 4604SOL    HW114711   2.405   6.680   5.481 -1.2322  0.3365 -2.0275
 4604SOL    HW214712   2.267   6.592   5.479 -2.4296  1.8377  2.1462
 4605SOL     OW14713   4.773   6.899   6.538  0.6013  0.4754 -0.2176
 4605SOL    HW114714   4.854   6.935   6.492  0.3699  0.0821 -0.9583
 4605SOL    HW214715   4.735   6.823   6.484 -0.6680  1.1144 -0.2693
 4606SOL     OW14716   0.423   5.042   3.886 -0.0855 -0.3220  0.7889
 4606SOL    HW114717   0.386   5.135   3.884 -0.2126 -0.3416 -1.6839
 4606SOL    HW214718   0.499   5.035   3.822  0.3117 -1.7914  1.3772
 4607SOL     OW14719   3.747   5.246   6.535 -0.1149 -0.4041 -0.2681
 4607SOL    HW114720   3.764   5.174   6.468  0.7075 -0.6439  0.1720
 4607SOL    HW214721   3.821   5.245   6.604 -1.7900 -1.2961  1.6281
 4608SOL     OW14722   1.394   4.239   5.368 -0.3803  0.4882 -0.3913
 4608SOL    HW114723   1.390   4.307   5.295  1.9757 -0.5137 -1.5737
 4608SOL    HW214724   1.483   4.243   5.412 -0.7308 -0.8525  0.4920
 4609SOL     OW14725   2.679   0.821   0.940 -0.1920 -0.2435  0.2981
 4609SOL    HW114726   2.628   0.822   1.026 -0.4899 -0.6385  0.1270
 4609SOL    HW214727   2.627   0.771   0.871 -0.0457  0.2404 -0.1699
 4610SOL     OW14728   5.172   2.947   6.212 -0.2208 -0.0002 -0.2375
 4610SOL    HW114729   5.171   2.881   6.138 -0.0671 -1.0965  0.7161
 4610SOL    HW214730   5.224   2.911   6.289 -0.6050  0.9948  0.5140
 4611SOL     OW14731   6.290   4.195   6.677  0.0391 -0.3022  0.5651
 4611SOL    HW114732   6.205   4.246   6.689 -0.7262 -0.4827 -2.9457
 4611SOL    HW214733   6.281   4.105   6.719 -0.9420  0.1972  1.4662
 4612SOL     OW14734   3.668   5.987   5.473 -0.4733 -0.2331  0.7011
 4612SOL    HW114735   3.673   5.992   5.573  1.1708  0.0274  0.6400
 4612SOL    HW214736   3.668   6.080   5.435  3.2894 -0.2161  0.3854
 4613SOL     OW14737   2.415   3.986   0.345  0.3054 -0.4298 -0.5980
 4613SOL    HW114738   2.406   4.072   0.294  1.3801 -2.0633 -3.8819
 4613SOL    HW214739   2.330   3.933   0.336 -0.4320  0.3058  1.5892
 4614SOL     OW14740   0.134   4.200   6.725  0.1293  0.2523  0.0089
 4614SOL    HW114741   0.215   4.180   6.780  0.4699  1.8173  0.1147
 4614SOL    HW214742   0.058   4.143   6.756  1.0410 -0.8961  0.2276
 4615SOL     OW14743   6.763   2.775   6.074 -0.1833  0.4924 -0.1802
 4615SOL    HW114744   6.682   2.768   6.132 -0.4521  1.5446 -0.4057
 4615SOL    HW214745   6.761   2.862   6.025  0.5024  0.0131 -1.0792
 4616SOL     OW14746   4.189   0.916   5.200  0.1857  0.3191 -0.1028
 4616SOL    HW114747   4.131   0.877   5.128 -0.3987 -2.5768  1.7633
 4616SOL    HW214748   4.133   0.938   5.279  0.8720  3.1555 -0.3091
 4617SOL     OW14749   6.951   4.909   1.547  0.7426  0.2650  0.3393
 4617SOL    HW114750   6.974   4.904   1.645  0.5074 -0.3091  0.3715
 4617SOL    HW214751   7.012   4.974   1.502  1.2830  0.0579  0.7512
 4618SOL     OW14752   6.629   2.971   5.658 -0.7885  0.1623  0.1646
 4618SOL    HW114753   6.705   3.008   5.605 -0.4550 -0.4684  0.1869
 4618SOL    HW214754   6.621   2.873   5.641 -0.1331 -0.2332  1.9016
 4619SOL     OW14755   3.722   1.443   2.805  0.6715 -0.1787  0.6524
 4619SOL    HW114756   3.734   1.355   2.851  1.3994  0.0788  0.9632
 4619SOL    HW214757   3.781   1.511   2.848 -1.7218  1.1170  2.1113
 4620SOL     OW14758   3.577   4.957   5.745 -0.8343 -0.2757  0.2211
 4620SOL    HW114759   3.506   4.974   5.676 -0.3666 -0.2844 -0.2662
 4620SOL    HW214760   3.623   4.871   5.725 -0.6311 -0.2291  0.4870
 4621SOL     OW14761   1.953   0.423   6.974  0.3733  0.1943  0.1190
 4621SOL    HW114762   1.860   0.459   6.979  0.2238  0.4674 -2.8413
 4621SOL    HW214763   1.950   0.327   6.949  0.8656  0.3900 -0.7374
 4622SOL     OW14764   2.629   2.674   0.604  0.3593 -0.0840 -0.6959
 4622SOL    HW114765   2.665   2.617   0.676 -1.3851 -0.7054 -0.2609
 4622SOL    HW214766   2.535   2.646   0.583 -0.9445  3.1263  0.1723
 4623SOL     OW14767   6.972   4.142   3.092 -0.3675  0.0682  0.4669
 4623SOL    HW114768   6.888   4.161   3.042 -0.5159 -0.1466  0.6371
 4623SOL    HW214769   7.008   4.227   3.130  0.0626  0.3311 -0.5024
 4624SOL     OW14770   4.714   0.163   6.977 -0.3503 -0.3159  0.0141
 4624SOL    HW114771   4.810   0.154   7.003 -0.6251  2.4321  2.4899
 4624SOL    HW214772   4.708   0.179   6.878  1.8226  0.4052 -0.0617
 4625SOL     OW14773   0.008   3.004   0.672 -0.0890 -0.3374 -0.3936
 4625SOL    HW114774   0.059   3.085   0.646  0.6131 -0.7610 -0.3478
 4625SOL    HW214775   0.049   2.923   0.629  0.2081 -0.8756  0.8496
 4626SOL     OW14776   6.490   5.893   1.187 -0.4446 -0.2486 -0.1271
 4626SOL    HW114777   6.520   5.890   1.092  1.1735  0.3562  0.3308
 4626SOL    HW214778   6.502   5.803   1.229 -1.8674 -0.7183 -0.6678
 4627SOL     OW14779   2.503   5.869   3.284 -0.2510 -0.2573 -0.0351
 4627SOL    HW114780   2.530   5.924   3.363  0.1426 -0.7765  0.2018
 4627SOL    HW214781   2.404   5.867   3.277 -0.3157 -0.7887  0.8789
 4628SOL     OW14782   6.691   3.694   1.650  0.2909 -0.9002 -0.0011
 4628SOL    HW114783   6.609   3.705   1.594  0.7161 -1.4132 -0.7583
 4628SOL    HW214784   6.734   3.783   1.665 -0.3637 -0.6363  0.3555
 4629SOL     OW14785   5.277   6.258   3.271 -0.0504  0.3281 -0.0196
 4629SOL    HW114786   5.182   6.276   3.296 -0.0685 -1.1086  1.1081
 4629SOL    HW214787   5.306   6.322   3.200 -0.8355  2.8813  1.8447
 4630SOL     OW14788   2.089   0.908   3.165 -0.2001 -0.4519  0.0562
 4630SOL    HW114789   2.161   0.872   3.223  2.4283  1.0996 -2.0080
 4630SOL    HW214790   2.117   0.901   3.069 -3.0361 -0.2038 -0.8890
 4631SOL     OW14791   3.098   0.166   4.008  0.0209 -0.2796  0.3223
 4631SOL    HW114792   3.147   0.114   4.077 -0.7561 -2.7104 -0.8317
 4631SOL    HW214793   3.044   0.103   3.951 -2.3297  1.9828 -0.1262
 4632SOL     OW14794   4.644   4.567   6.088 -0.7830 -0.1770  0.8881
 4632SOL    HW114795   4.659   4.627   6.009  0.0120  3.3654  3.4572
 4632SOL    HW214796   4.545   4.555   6.102 -0.9643  0.4410  0.2138
 4633SOL     OW14797   4.254   2.571   6.593  0.1124  0.2903 -0.2075
 4633SOL    HW114798   4.172   2.629   6.591 -1.3804 -1.6133  1.6033
 4633SOL    HW214799   4.285   2.560   6.688  1.3787 -0.5100 -0.6850
 4634SOL     OW14800   2.950   3.323   6.107 -0.0409  0.0973  0.2738
 4634SOL    HW114801   2.923   3.360   6.018  0.0217  0.9682  0.6143
 4634SOL    HW214802   3.000   3.237   6.093 -0.7016 -0.1767 -0.4844
 4635SOL     OW14803   0.590   4.316   1.430 -0.1670 -0.3073  0.2458
 4635SOL    HW114804   0.581   4.403   1.479  0.3790 -0.5696  0.8358
 4635SOL    HW214805   0.675   4.271   1.458  0.0855 -0.5433 -0.8443
 4636SOL     OW14806   1.106   0.090   1.734 -0.0524  0.1079 -0.4997
 4636SOL    HW114807   1.175   0.067   1.665  0.0858 -0.3984 -0.1958
 4636SOL    HW214808   1.145   0.082   1.825  0.3400  2.6524 -0.3650
 4637SOL     OW14809   1.332   0.174   4.917 -0.4381 -0.1998  0.4305
 4637SOL    HW114810   1.407   0.127   4.963  0.2597 -0.5082 -0.9412
 4637SOL    HW214811   1.250   0.169   4.973  0.4432 -0.2751  1.7498
 4638SOL     OW14812   4.097   3.503   4.769  0.0733  0.1549  0.6016
 4638SOL    HW114813   4.140   3.425   4.724  0.8598  1.4252 -0.9383
 4638SOL    HW214814   4.130   3.509   4.864  0.9523 -0.6649  0.3614
 4639SOL     OW14815   6.516   2.088   4.826 -0.2718  0.5780  0.0503
 4639SOL    HW114816   6.453   2.155   4.865  0.8077  0.6637  1.7524
 4639SOL    HW214817   6.505   2.001   4.873  2.2025  1.1253  1.8307
 4640SOL     OW14818   5.807   3.854   2.063  0.0548 -0.6923 -0.3014
 4640SOL    HW114819   5.845   3.855   2.155 -1.2425  0.0886  0.2589
 4640SOL    HW214820   5.761   3.766   2.047 -2.2720  0.2035  0.9530
 4641SOL     OW14821   2.941   4.710   6.174  0.6085  0.2225 -0.7803
 4641SOL    HW114822   2.891   4.794   6.196  0.9009  0.2602 -0.2376
 4641SOL    HW214823   2.908   4.635   6.232 -0.3282 -0.2833 -1.9263
 4642SOL     OW14824   4.752   5.188   3.240  0.8796  0.3547  0.9700
 4642SOL    HW114825   4.711   5.161   3.153  0.2689  1.9968  0.7088
 4642SOL    HW214826   4.828   5.127   3.262  1.1361 -0.0099 -0.7859
 4643SOL     OW14827   4.144   4.516   1.268 -0.2320  0.2359  0.1676
 4643SOL    HW114828   4.047   4.538   1.281 -0.3383  0.0025 -0.2158
 4643SOL    HW214829   4.152   4.423   1.232  0.1519  0.1395  0.4958
 4644SOL     OW14830   2.898   4.291   6.240  0.2536 -0.3338 -0.0540
 4644SOL    HW114831   2.955   4.313   6.161  1.2016  0.5499  0.8516
 4644SOL    HW214832   2.832   4.220   6.215  0.1557  0.3446 -1.7792
 4645SOL     OW14833   1.300   5.127   3.772 -0.7130  0.0230 -0.0925
 4645SOL    HW114834   1.364   5.067   3.723  0.0472  0.7016  0.0442
 4645SOL    HW214835   1.318   5.222   3.747 -0.5728  0.3526  1.1994
 4646SOL     OW14836   2.624   5.675   1.331 -0.2974  0.0710  0.3500
 4646SOL    HW114837   2.709   5.624   1.344 -0.0695  0.3210 -0.1350
 4646SOL    HW214838   2.643   5.773   1.335 -0.5155  0.1333 -0.0282
 4647SOL     OW14839   6.805   2.279   4.090 -0.1007  0.2868 -0.3738
 4647SOL    HW114840   6.727   2.264   4.151 -0.0830  0.7490 -0.2343
 4647SOL    HW214841   6.849   2.365   4.113  0.8804 -0.3046  0.0105
 4648SOL     OW14842   1.647   4.534   4.082 -0.1466 -0.8714  0.1173
 4648SOL    HW114843   1.650   4.614   4.023 -2.5282  0.7170  1.9757
 4648SOL    HW214844   1.563   4.483   4.066 -0.6185 -0.6707  1.7457
 4649SOL     OW14845   6.342   1.129   4.191 -0.1121  0.5162  0.3414
 4649SOL    HW114846   6.247   1.151   4.169  0.1774  1.3528 -0.1202
 4649SOL    HW214847   6.366   1.041   4.150 -0.1008  1.2412 -1.3074
 4650SOL     OW14848   0.363   4.370   0.302 -0.3613 -0.0630  0.4653
 4650SOL    HW114849   0.462   4.372   0.310 -0.4332  0.7138  1.2491
 4650SOL    HW214850   0.338   4.356   0.206  0.4983  0.3682  0.1689
 4651SOL     OW14851   6.906   1.195   0.846 -0.4856 -0.1756  0.3606
 4651SOL    HW114852   6.846   1.229   0.919 -0.9211  1.1471 -0.5835
 4651SOL    HW214853   6.850   1.170   0.767  0.2025  1.4826 -0.6898
 4652SOL     OW14854   6.972   1.183   5.070  0.1387  0.3566 -0.1184
 4652SOL    HW114855   6.940   1.092   5.096  0.3082  0.6413  1.1675
 4652SOL    HW214856   6.988   1.186   4.972 -2.5571 -0.1641 -0.6386
 4653SOL     OW14857   1.116   4.007   6.394 -0.0679  0.0956 -0.4232
 4653SOL    HW114858   1.136   3.910   6.383 -0.7093  0.0097 -0.8925
 4653SOL    HW214859   1.055   4.037   6.321  1.1742  1.1641 -1.0821
 4654SOL     OW14860   6.374   2.430   0.139  0.0270  0.0304 -0.2038
 4654SOL    HW114861   6.448   2.371   0.107  0.4855  0.8218 -0.6106
 4654SOL    HW214862   6.291   2.411   0.086 -0.3088 -1.4079  0.7645
 4655SOL     OW14863   1.382   5.562   4.537 -0.1315  0.3678 -0.5583
 4655SOL    HW114864   1.315   5.493   4.567  0.1536  0.7070  0.9265
 4655SOL    HW214865   1.366   5.584   4.441 -1.2894 -0.5533 -0.5991
 4656SOL     OW14866   2.316   0.192   2.115  0.6150  0.2200 -0.5936
 4656SOL    HW114867   2.366   0.132   2.053  1.7178  0.2810  0.2138
 4656SOL    HW214868   2.278   0.138   2.190  2.4320  0.5983  0.6661
 4657SOL     OW14869   4.596   2.009   7.006  0.9757  0.1890  0.0179
 4657SOL    HW114870   4.542   1.983   7.087  0.7422  1.6771  0.3696
 4657SOL    HW214871   4.664   2.078   7.032  1.0975  0.4609 -0.9931
 4658SOL     OW14872   3.940   6.196   4.405 -0.5885 -0.3204  0.2611
 4658SOL    HW114873   3.938   6.186   4.305  1.1318 -2.1545  0.3379
 4658SOL    HW214874   3.862   6.250   4.435 -0.8199  0.8027 -2.1293
 4659SOL     OW14875   1.269   2.786   4.532  0.2613 -0.4520 -0.3027
 4659SOL    HW114876   1.182   2.741   4.555 -0.3700  0.5663 -0.6502
 4659SOL    HW214877   1.345   2.728   4.562 -0.5279 -0.7815  1.1924
 4660SOL     OW14878   5.974   1.865   3.488 -0.0819  0.5258  0.2187
 4660SOL    HW114879   6.017   1.848   3.576 -1.0746 -1.6109  0.3645
 4660SOL    HW214880   6.039   1.910   3.427  0.4016  2.7061  2.2005
 4661SOL     OW14881   3.557   2.887   2.995 -0.1317 -0.3976 -0.9308
 4661SOL    HW114882   3.536   2.895   3.092  2.6178  0.9393 -0.3288
 4661SOL    HW214883   3.479   2.919   2.941 -0.5047  2.1754  0.9481
 4662SOL     OW14884   6.320   6.927   3.206  0.3087  0.1815 -0.1862
 4662SOL    HW114885   6.314   6.940   3.107 -1.9781 -0.9668 -0.2617
 4662SOL    HW214886   6.255   6.988   3.252  0.0531 -0.5554  0.4563
 4663SOL     OW14887   1.402   1.629   2.031  0.1548  0.1406  0.7173
 4663SOL    HW114888   1.304   1.649   2.031 -0.3341 -1.8813  2.6947
 4663SOL    HW214889   1.440   1.650   2.121  1.8537  2.0109 -0.3581
 4664SOL     OW14890   3.325   2.875   1.917 -0.4751  0.0388  0.3728
 4664SOL    HW114891   3.300   2.971   1.907  1.1767  0.3166 -1.7180
 4664SOL    HW214892   3.378   2.863   2.001 -0.3629  1.0259  0.4534
 4665SOL     OW14893   5.251   0.171   5.167  0.0510 -0.1051  1.3432
 4665SOL    HW114894   5.286   0.157   5.259  1.8614  2.0757  1.0737
 4665SOL    HW214895   5.172   0.232   5.170 -0.0830 -0.2844  1.4700
 4666SOL     OW14896   2.171   6.290   1.479  0.1158  0.1577  0.1665
 4666SOL    HW114897   2.112   6.307   1.400  1.5694 -1.5450 -1.3776
 4666SOL    HW214898   2.264   6.272   1.448  0.3508 -2.5523  2.0908
 4667SOL     OW14899   1.382   5.546   5.910 -0.6436  0.4100  0.0178
 4667SOL    HW114900   1.366   5.484   5.986  1.7277  1.0604  1.1416
 4667SOL    HW214901   1.390   5.493   5.825 -1.7597 -0.4680  0.4363
 4668SOL     OW14902   5.283   6.229   5.076 -0.1672 -0.5777  0.0487
 4668SOL    HW114903   5.287   6.156   5.009 -0.4284 -1.4418  0.9463
 4668SOL    HW214904   5.214   6.296   5.049  0.9463  0.0163 -1.4164
 4669SOL     OW14905   3.301   0.388   2.079  0.4165 -0.0986 -0.1703
 4669SOL    HW114906   3.227   0.434   2.030  0.4268  0.2991  0.1821
 4669SOL    HW214907   3.388   0.405   2.033  0.1216 -1.8158 -1.4649
 4670SOL     OW14908   1.803   1.085   4.560  1.0927  0.2650 -0.3170
 4670SOL    HW114909   1.903   1.072   4.558  1.1725  0.7213  0.3709
 4670SOL    HW214910   1.764   1.055   4.473  1.8101 -0.0813 -0.5303
 4671SOL     OW14911   6.972   3.170   2.252 -0.5210  0.5233  0.6242
 4671SOL    HW114912   6.950   3.073   2.265 -1.3706  0.3930 -1.4735
 4671SOL    HW214913   7.048   3.194   2.312  1.6028 -2.1616 -0.7557
 4672SOL     OW14914   1.032   2.769   3.721  0.5203  0.3449  0.1196
 4672SOL    HW114915   1.096   2.714   3.776  0.8389  1.9299  1.4287
 4672SOL    HW214916   1.052   2.756   3.624  2.6742  0.5615  0.4835
 4673SOL     OW14917   4.834   6.959   3.794  0.0921 -0.2055 -0.3303
 4673SOL    HW114918   4.796   6.866   3.801  0.2980 -0.4095 -1.6940
 4673SOL    HW214919   4.856   6.992   3.886 -1.5211 -0.8496  0.3455
 4674SOL     OW14920   5.622   5.803   6.693  0.3316  0.0367  0.0767
 4674SOL    HW114921   5.556   5.742   6.735 -0.0926 -1.0502 -2.0106
 4674SOL    HW214922   5.579   5.892   6.677 -0.3029 -0.3189 -0.2574
 4675SOL     OW14923   6.767   3.310   5.411 -0.0994 -0.3566 -0.0302
 4675SOL    HW114924   6.667   3.314   5.410 -0.0920  0.2363  0.7562
 4675SOL    HW214925   6.804   3.377   5.348 -0.1968 -1.2658 -1.0840
 4676SOL     OW14926   1.789   3.944   4.355 -0.5139 -0.2024 -0.0078
 4676SOL    HW114927   1.838   3.859   4.375 -0.5764 -0.1895  0.1968
 4676SOL    HW214928   1.856   4.017   4.338 -0.4344  0.2489  2.0480
 4677SOL     OW14929   1.400   2.933   1.347  0.1393  0.0865  0.2462
 4677SOL    HW114930   1.436   2.918   1.439 -0.3879  0.1381  0.4623
 4677SOL    HW214931   1.473   2.919   1.280  0.7434  0.8770  0.7209
 4678SOL     OW14932   0.672   4.434   2.372 -0.4140  0.4073 -0.3126
 4678SOL    HW114933   0.591   4.477   2.333 -2.4829 -2.5733  0.3475
 4678SOL    HW214934   0.713   4.371   2.306 -1.0293 -1.0155  0.6140
 4679SOL     OW14935   4.619   4.391   1.520  0.2311 -0.3181 -0.4425
 4679SOL    HW114936   4.527   4.405   1.485  0.2178 -1.9300 -1.1249
 4679SOL    HW214937   4.685   4.430   1.456  0.0733 -0.1545 -0.5064
 4680SOL     OW14938   3.999   5.957   4.600 -0.3344  0.2207 -0.4319
 4680SOL    HW114939   3.980   6.033   4.537 -1.3115  0.6033  0.2999
 4680SOL    HW214940   3.935   5.883   4.584  0.4106 -0.3339 -0.9204
 4681SOL     OW14941   6.680   6.251   3.721  0.0876 -0.1265 -0.1999
 4681SOL    HW114942   6.778   6.267   3.730  0.0192  1.6809 -1.8428
 4681SOL    HW214943   6.634   6.272   3.807  1.1820 -1.7480  0.8271
 4682SOL     OW14944   3.751   2.545   0.234  0.6811 -0.2024 -0.1057
 4682SOL    HW114945   3.815   2.621   0.220  1.0385 -0.5345 -0.2753
 4682SOL    HW214946   3.770   2.502   0.322 -0.9857  1.3190  1.0654
 4683SOL     OW14947   1.453   4.381   4.493 -0.7153 -0.0788  0.5012
 4683SOL    HW114948   1.358   4.357   4.474 -0.8283  0.2970  0.5866
 4683SOL    HW214949   1.511   4.299   4.483 -0.8399 -0.0120 -0.9830
 4684SOL     OW14950   4.663   0.046   1.073 -0.3351  0.6225  0.1163
 4684SOL    HW114951   4.650   0.114   1.001 -0.6425  0.6363  0.1833
 4684SOL    HW214952   4.580   0.039   1.128 -0.6083 -0.3936 -0.4056
 4685SOL     OW14953   3.309   3.168   3.972 -0.1071  0.4324 -0.1429
 4685SOL    HW114954   3.361   3.157   4.056  0.0426  0.0405 -0.2826
 4685SOL    HW214955   3.212   3.176   3.993 -0.0533  0.5013  0.0771
 4686SOL     OW14956   1.007   5.890   0.504 -0.2192  0.0847 -0.1502
 4686SOL    HW114957   1.026   5.884   0.407 -0.4389  0.6637 -0.2355
 4686SOL    HW214958   1.026   5.983   0.536 -0.9578  0.1301  0.1782
 4687SOL     OW14959   1.407   1.712   2.826 -0.4333  0.4989  0.1394
 4687SOL    HW114960   1.442   1.805   2.840  0.6171  0.0639  0.4629
 4687SOL    HW214961   1.398   1.695   2.727  0.2972  0.6033  0.0541
 4688SOL     OW14962   4.669   2.892   6.078 -0.4237  0.5086 -0.0955
 4688SOL    HW114963   4.612   2.971   6.098 -1.6250 -0.8189  2.1398
 4688SOL    HW214964   4.723   2.869   6.159  0.8497 -0.2346 -1.1112
 4689SOL     OW14965   4.480   1.214   1.299  0.7828 -0.5731  0.8865
 4689SOL    HW114966   4.570   1.178   1.276  0.8189 -0.2639  0.5390
 4689SOL    HW214967   4.481   1.251   1.392  1.6308  1.4597  0.1092
 4690SOL     OW14968   2.815   2.364   5.983  0.2923 -0.4155  0.4786
 4690SOL    HW114969   2.841   2.450   6.024 -0.6384  0.5377 -0.8193
 4690SOL    HW214970   2.734   2.328   6.029  1.2769 -1.1541  1.6858
 4691SOL     OW14971   6.529   4.003   0.315 -0.5755 -0.0161  0.1858
 4691SOL    HW114972   6.610   4.046   0.274  0.1650 -0.8038  0.7688
 4691SOL    HW214973   6.463   3.980   0.243 -1.0325  2.1000 -0.1466
 4692SOL     OW14974   4.181   0.728   3.475 -0.3746  0.1000 -0.2868
 4692SOL    HW114975   4.206   0.818   3.439  0.9692  0.9546  2.5092
 4692SOL    HW214976   4.094   0.735   3.523  0.3303  0.2619  1.0089
 4693SOL     OW14977   2.040   1.235   3.404 -0.1719 -0.2432 -0.0982
 4693SOL    HW114978   2.073   1.182   3.326  0.1516 -0.7697  0.3893
 4693SOL    HW214979   2.087   1.323   3.407 -2.4340  1.1952 -2.3557
 4694SOL     OW14980   1.860   0.251   6.180 -0.5547  0.3804 -0.1731
 4694SOL    HW114981   1.796   0.246   6.103 -0.5350 -0.0134 -0.1646
 4694SOL    HW214982   1.853   0.168   6.235 -1.7623  1.3665  1.2218
 4695SOL     OW14983   0.978   3.901   4.299 -0.0988 -0.1068 -0.2274
 4695SOL    HW114984   0.991   3.998   4.279  2.5583 -0.5757 -1.2627
 4695SOL    HW214985   0.962   3.888   4.397  0.6069  1.3173  0.0922
 4696SOL     OW14986   1.352   0.239   5.951 -0.2107 -0.1904  0.1163
 4696SOL    HW114987   1.362   0.334   5.923  0.7865 -0.4338 -0.3892
 4696SOL    HW214988   1.301   0.188   5.882  2.6300 -0.8935 -1.5784
 4697SOL     OW14989   0.277   5.306   2.524 -0.6998  0.3972  0.2684
 4697SOL    HW114990   0.308   5.372   2.592 -0.8069 -1.1234  1.8351
 4697SOL    HW214991   0.323   5.324   2.437  1.9196  0.3866  1.5781
 4698SOL     OW14992   6.249   6.497   5.358  0.0653 -0.3501  0.2414
 4698SOL    HW114993   6.208   6.575   5.311  1.7104  0.7312  0.5329
 4698SOL    HW214994   6.198   6.478   5.442 -0.9818 -0.2833 -0.3584
 4699SOL     OW14995   3.660   0.704   1.651 -0.1973  0.6219 -0.0491
 4699SOL    HW114996   3.637   0.608   1.638  1.0648  0.2635  0.2143
 4699SOL    HW214997   3.578   0.755   1.676 -0.8900 -0.3668 -0.2491
 4700SOL     OW14998   5.196   2.663   2.773 -0.7055 -0.2294  0.2585
 4700SOL    HW114999   5.174   2.711   2.688 -0.8965 -0.3260  0.2537
 4700SOL    HW215000   5.258   2.587   2.753  0.5534  0.7168  0.4177
 4701SOL     OW15001   3.363   1.855   1.679  0.3487  0.2067  0.1686
 4701SOL    HW115002   3.400   1.815   1.763 -0.5882  0.1443  0.5704
 4701SOL    HW215003   3.438   1.883   1.619  1.0268 -0.3860  0.7225
 4702SOL     OW15004   2.247   6.231   2.076  0.4966  0.2661 -0.1170
 4702SOL    HW115005   2.155   6.200   2.053  0.3415 -2.0854  3.0254
 4702SOL    HW215006   2.256   6.328   2.055 -2.3343  0.3459 -1.3673
 4703SOL     OW15007   0.447   2.858   4.864 -0.1016  0.3069  0.1686
 4703SOL    HW115008   0.487   2.877   4.775 -1.9382  2.0711 -0.3553
 4703SOL    HW215009   0.496   2.782   4.908  1.5336  0.1369 -1.8339
 4704SOL     OW15010   1.907   4.619   6.207  0.0850  0.1848  0.4380
 4704SOL    HW115011   1.938   4.637   6.114  0.3936 -1.6669  0.1304
 4704SOL    HW215012   1.817   4.574   6.204 -0.0209  0.3462  1.0481
 4705SOL     OW15013   4.345   2.692   0.126 -0.6758  0.7556 -0.1973
 4705SOL    HW115014   4.372   2.687   0.029 -0.6894  1.5285 -0.2485
 4705SOL    HW215015   4.388   2.617   0.176  0.1261  0.9097 -0.6257
 4706SOL     OW15016   2.174   0.451   2.713 -0.8995 -0.5757 -0.2151
 4706SOL    HW115017   2.166   0.354   2.689  1.4172 -1.1743  1.1208
 4706SOL    HW215018   2.183   0.460   2.812 -0.1625  0.9170 -0.3897
 4707SOL     OW15019   0.630   4.659   0.811 -0.1350 -0.8463 -0.1628
 4707SOL    HW115020   0.629   4.724   0.736  1.1568 -0.2922  0.2751
 4707SOL    HW215021   0.618   4.707   0.898 -0.6118 -1.3693  0.0742
 4708SOL     OW15022   1.124   2.420   0.180 -0.3605  0.1071 -1.1701
 4708SOL    HW115023   1.143   2.358   0.103  1.5944 -1.6338  0.6095
 4708SOL    HW215024   1.046   2.478   0.156  0.1134 -0.3708 -4.4335
 4709SOL     OW15025   5.482   0.048   6.323  0.0308  0.2178  0.2673
 4709SOL    HW115026   5.443  -0.035   6.281  1.2144  0.4955 -1.5212
 4709SOL    HW215027   5.552   0.021   6.389  0.2296 -0.2410 -0.1150
 4710SOL     OW15028   1.572   0.378   5.083  0.2496  0.1826  0.4600
 4710SOL    HW115029   1.598   0.430   5.001 -1.5484  0.1510 -0.1753
 4710SOL    HW215030   1.559   0.282   5.058 -1.9633  0.4647  0.3568
 4711SOL     OW15031   5.539   3.528   2.284 -0.6951  0.0459 -0.3296
 4711SOL    HW115032   5.561   3.616   2.324  0.8199 -0.6501  0.4914
 4711SOL    HW215033   5.539   3.458   2.355  0.2282 -0.9230 -1.2311
 4712SOL     OW15034   4.720   3.182   5.794 -0.2921 -0.4914  0.0847
 4712SOL    HW115035   4.760   3.099   5.756  0.4651  0.0866 -0.4210
 4712SOL    HW215036   4.645   3.213   5.737 -0.7370 -0.9582  0.4104
 4713SOL     OW15037   4.977   5.731   1.457 -0.4358 -0.1551  0.1839
 4713SOL    HW115038   4.920   5.768   1.384 -0.2190 -2.8232 -1.4493
 4713SOL    HW215039   4.936   5.648   1.494  2.4487 -2.4861 -1.4120
 4714SOL     OW15040   5.653   3.746   1.000 -0.6164 -0.3116  0.0208
 4714SOL    HW115041   5.568   3.791   1.028 -0.8189  0.1208 -1.2507
 4714SOL    HW215042   5.690   3.792   0.919  0.1994 -1.2406 -0.1428
 4715SOL     OW15043   0.451   1.445   1.783  0.5268 -0.3417 -0.1710
 4715SOL    HW115044   0.385   1.493   1.841  2.0837  0.1084  1.3018
 4715SOL    HW215045   0.544   1.464   1.815  1.4423 -0.4946 -2.5143
 4716SOL     OW15046   2.238   3.306   5.876 -0.3065 -0.1344  0.1757
 4716SOL    HW115047   2.301   3.382   5.889  1.0415 -1.1205 -0.2995
 4716SOL    HW215048   2.166   3.310   5.945 -0.0936  1.3812  0.3407
 4717SOL     OW15049   3.595   4.078   6.137 -0.1581 -0.2038  0.0990
 4717SOL    HW115050   3.654   4.025   6.198 -0.3169 -0.8911 -0.3389
 4717SOL    HW215051   3.639   4.087   6.048 -0.2360  0.2117  0.1008
 4718SOL     OW15052   5.432   3.314   1.410 -0.4901  0.2141  0.6245
 4718SOL    HW115053   5.390   3.400   1.381 -0.1639  0.2872  0.3623
 4718SOL    HW215054   5.361   3.250   1.437 -0.6935  1.0033  2.0737
 4719SOL     OW15055   6.641   4.601   4.580 -0.0813  0.0090  0.2047
 4719SOL    HW115056   6.701   4.590   4.501 -1.4138 -0.5688 -0.7603
 4719SOL    HW215057   6.672   4.679   4.635  0.2834  1.0622 -1.4246
 4720SOL     OW15058   1.638   1.675   0.140  0.1700 -0.0615 -0.1311
 4720SOL    HW115059   1.712   1.645   0.080 -0.6119  0.9382 -1.6349
 4720SOL    HW215060   1.677   1.727   0.216  1.0153  0.5485 -0.9599
 4721SOL     OW15061   2.228   3.074   3.633  0.2479 -0.2246 -0.4738
 4721SOL    HW115062   2.256   3.019   3.555 -1.1494 -1.1306 -0.3753
 4721SOL    HW215063   2.140   3.117   3.614 -0.8851 -1.7092  1.1402
 4722SOL     OW15064   0.282   6.353   1.228 -0.1780  0.5877 -0.0787
 4722SOL    HW115065   0.322   6.292   1.297  0.6436  2.1494  0.8967
 4722SOL    HW215066   0.317   6.446   1.242 -3.4277  1.8709  0.2010
 4723SOL     OW15067   2.049   4.340   6.515  0.4062  0.5828 -0.1436
 4723SOL    HW115068   1.988   4.262   6.526  0.2559  0.4978 -1.3948
 4723SOL    HW215069   2.096   4.334   6.426  0.3554  1.9239 -0.2877
 4724SOL     OW15070   1.837   6.619   4.799 -0.4964 -0.1582  0.5556
 4724SOL    HW115071   1.824   6.550   4.870  0.7469  0.8124  1.7761
 4724SOL    HW215072   1.896   6.692   4.833 -1.9836  1.6811 -0.6032
 4725SOL     OW15073   5.303   4.512   1.006 -0.2430 -0.0410 -0.2819
 4725SOL    HW115074   5.345   4.439   0.952 -0.0366 -0.2195  0.1150
 4725SOL    HW215075   5.214   4.535   0.966 -1.6113 -2.4358  1.1328
 4726SOL     OW15076   2.222   2.178   0.452  0.1745 -0.5812 -0.5792
 4726SOL    HW115077   2.256   2.262   0.409 -1.5248  1.1054  1.1783
 4726SOL    HW215078   2.129   2.159   0.418  0.3993 -1.5573 -0.6703
 4727SOL     OW15079   0.628   4.378   3.236  0.4324 -0.0553  0.1339
 4727SOL    HW115080   0.670   4.312   3.173 -0.6978 -1.1945  0.5380
 4727SOL    HW215081   0.685   4.386   3.318  0.5046 -0.6584  0.1522
 4728SOL     OW15082   6.271   1.677   1.664 -0.6522  0.6099 -0.1215
 4728SOL    HW115083   6.266   1.673   1.564 -2.2920  1.7779 -0.1276
 4728SOL    HW215084   6.311   1.764   1.691 -2.1207  1.2034  0.2278
 4729SOL     OW15085   5.736   2.588   1.166  0.4375  0.0018  0.2713
 4729SOL    HW115086   5.783   2.652   1.105  1.6133 -0.0288  1.1105
 4729SOL    HW215087   5.751   2.615   1.261  0.3608 -1.1161  0.6195
 4730SOL     OW15088   3.272   2.112   2.844  0.5235  0.0258 -0.2520
 4730SOL    HW115089   3.336   2.157   2.782 -0.4887 -0.5421 -1.7999
 4730SOL    HW215090   3.220   2.043   2.793  1.3646 -2.2722  1.7985
 4731SOL     OW15091   3.832   5.970   0.995  0.2593  0.0817 -0.7340
 4731SOL    HW115092   3.778   5.947   0.915  0.9530  1.3560 -1.5975
 4731SOL    HW215093   3.777   6.026   1.058  0.9242  2.6774 -2.3068
 4732SOL     OW15094   5.803   5.686   3.815 -0.0151  0.2763 -0.0559
 4732SOL    HW115095   5.760   5.597   3.805  0.5048  0.0667 -0.4438
 4732SOL    HW215096   5.902   5.678   3.803  0.2379  0.6363  1.5231
 4733SOL     OW15097   0.685   5.079   1.437 -0.2080  0.5082  0.2235
 4733SOL    HW115098   0.724   5.046   1.351 -0.3639  1.3518 -0.1779
 4733SOL    HW215099   0.713   5.019   1.512 -0.9458 -0.8670 -0.5664
 4734SOL     OW15100   1.602   1.887   0.730 -0.3514 -0.0072  0.0015
 4734SOL    HW115101   1.572   1.886   0.825 -0.6064 -0.5061 -0.0813
 4734SOL    HW215102   1.568   1.805   0.683  2.3629 -1.4101  0.2966
 4735SOL     OW15103   0.432   1.114   4.124  0.2739  0.2558 -0.0442
 4735SOL    HW115104   0.461   1.147   4.034  1.0448 -0.5242 -0.0951
 4735SOL    HW215105   0.467   1.021   4.138 -0.9258 -0.1237  0.5361
 4736SOL     OW15106   0.636   1.369   4.768 -0.2276  0.1603 -0.3128
 4736SOL    HW115107   0.591   1.287   4.733 -0.0426 -0.7361  1.4196
 4736SOL    HW215108   0.567   1.440   4.786 -0.2840  0.7755 -2.7111
 4737SOL     OW15109   0.628   4.979   0.135 -0.1474 -0.1653  0.0260
 4737SOL    HW115110   0.631   4.988   0.036 -1.1429  0.6867  0.0495
 4737SOL    HW215111   0.607   4.885   0.160  4.2592 -1.4595 -0.4325
 4738SOL     OW15112   5.940   5.498   3.528  0.5933  0.0656  0.6330
 4738SOL    HW115113   6.004   5.441   3.580  0.5104 -0.5978  0.0298
 4738SOL    HW215114   5.847   5.475   3.553  0.4499 -1.9398 -1.4222
 4739SOL     OW15115   6.724   5.076   3.239  0.0118  0.1421  0.1418
 4739SOL    HW115116   6.640   5.031   3.208  0.9722 -1.9533  0.3913
 4739SOL    HW215117   6.747   5.150   3.177  0.1024 -1.8052 -2.3071
 4740SOL     OW15118   2.529   5.212   1.172  0.3418 -0.0051 -0.1686
 4740SOL    HW115119   2.613   5.222   1.119  1.1055  2.1567  1.3240
 4740SOL    HW215120   2.469   5.291   1.155 -0.6149 -0.6412  0.1468
 4741SOL     OW15121   4.852   4.953   0.719 -0.2243  0.1821 -0.3046
 4741SOL    HW115122   4.791   4.997   0.654 -0.5175  0.5688  0.2189
 4741SOL    HW215123   4.847   4.854   0.709 -1.6431  0.1662  0.3461
 4742SOL     OW15124   5.924   6.299   2.972  0.4875  0.2946  0.0810
 4742SOL    HW115125   5.888   6.391   2.956 -0.3296  0.4866  2.6178
 4742SOL    HW215126   5.968   6.296   3.062 -0.4097 -2.0203  0.4976
 4743SOL     OW15127   2.472   3.326   7.012 -0.5437 -0.1350 -0.1547
 4743SOL    HW115128   2.495   3.304   7.107 -1.7696 -1.1456 -0.0698
 4743SOL    HW215129   2.476   3.425   6.998  2.0711 -0.1097  0.2855
 4744SOL     OW15130   0.675   3.014   5.451 -0.1995  0.3296 -0.0728
 4744SOL    HW115131   0.664   3.108   5.419  1.8046  0.6073 -0.0524
 4744SOL    HW215132   0.732   2.963   5.386  1.2967  0.0124  1.4144
 4745SOL     OW15133   4.253   5.368   5.297 -0.1181  0.2420  0.1090
 4745SOL    HW115134   4.335   5.417   5.327  2.0388 -1.0969 -3.0618
 4745SOL    HW215135   4.270   5.270   5.300 -1.8414 -0.1006 -0.1477
 4746SOL     OW15136   6.206   0.565   1.541  0.1447 -0.1788  0.3761
 4746SOL    HW115137   6.290   0.527   1.502  1.3777  0.8868  1.8283
 4746SOL    HW215138   6.158   0.619   1.472  1.6579  0.7183 -0.0255
 4747SOL     OW15139   0.613   3.906   0.969 -0.2730  0.1247 -0.0655
 4747SOL    HW115140   0.594   3.997   0.931  1.9065 -0.0915 -1.9092
 4747SOL    HW215141   0.576   3.900   1.061 -1.2191  2.5709 -0.2085
 4748SOL     OW15142   1.907   0.109   1.162 -0.6933 -0.1364 -0.5934
 4748SOL    HW115143   1.926   0.020   1.203 -0.4014 -0.5448 -1.5805
 4748SOL    HW215144   1.910   0.180   1.232 -0.4575 -0.8430  0.1215
 4749SOL     OW15145   5.581   0.677   0.736  0.0231 -0.0362 -0.2609
 4749SOL    HW115146   5.515   0.683   0.662 -1.8876  0.2665  1.3706
 4749SOL    HW215147   5.673   0.689   0.700 -0.8807  0.7965 -2.4611
 4750SOL     OW15148   6.568   0.722   1.789  0.2554  0.1644  0.4516
 4750SOL    HW115149   6.584   0.820   1.783 -2.5046  0.6157 -1.7799
 4750SOL    HW215150   6.617   0.675   1.716 -2.2342  0.6365 -1.6918
 4751SOL     OW15151   6.825   3.563   6.325 -0.1531  0.4954  0.0732
 4751SOL    HW115152   6.866   3.642   6.279 -1.2154  1.4685  0.7583
 4751SOL    HW215153   6.892   3.523   6.389  0.5103  0.5963 -0.5419
 4752SOL     OW15154   2.441   0.751   1.974 -0.5167 -0.7855 -0.6425
 4752SOL    HW115155   2.454   0.813   1.896  0.3054 -0.1426 -0.0101
 4752SOL    HW215156   2.525   0.698   1.988  0.3836  1.0284  1.4399
 4753SOL     OW15157   1.395   6.855   4.852  0.1130  0.3198  0.1809
 4753SOL    HW115158   1.457   6.927   4.821 -0.9218  0.6701 -1.1651
 4753SOL    HW215159   1.341   6.888   4.930 -0.3365  1.0030 -0.4153
 4754SOL     OW15160   0.275   1.189   6.217 -0.0167  0.0354 -0.0275
 4754SOL    HW115161   0.183   1.149   6.216 -0.1000  0.0711  2.1741
 4754SOL    HW215162   0.268   1.288   6.230  0.3087 -0.1824  2.2551
 4755SOL     OW15163   2.603   0.593   3.040 -0.7925 -0.4582 -0.0225
 4755SOL    HW115164   2.524   0.568   3.097 -1.0295  0.8272  0.2462
 4755SOL    HW215165   2.584   0.679   2.993  0.6419  0.1397  0.4384
 4756SOL     OW15166   5.917   0.305   0.242  0.5618 -0.6515 -0.5233
 4756SOL    HW115167   5.866   0.390   0.248 -0.0493 -0.8283 -2.5053
 4756SOL    HW215168   5.858   0.233   0.206  2.3848 -0.5764 -4.1286
 4757SOL     OW15169   1.676   0.701   1.706 -0.2665 -0.3723  0.0033
 4757SOL    HW115170   1.742   0.662   1.769 -2.1077 -1.1005  1.5890
 4757SOL    HW215171   1.652   0.634   1.636 -2.0025 -1.5279  1.6064
 4758SOL     OW15172   4.026   2.900   6.044  0.2559  0.2329 -0.6773
 4758SOL    HW115173   4.038   2.827   5.977 -1.3195  0.4895 -1.2912
 4758SOL    HW215174   3.973   2.867   6.122 -0.0656  0.5842 -0.7419
 4759SOL     OW15175   6.454   5.418   4.879  0.3377 -0.2546 -0.0565
 4759SOL    HW115176   6.494   5.373   4.959  2.2994  0.2845 -0.6701
 4759SOL    HW215177   6.500   5.386   4.797 -1.5501 -0.6901 -0.9988
 4760SOL     OW15178   2.482   2.567   6.139 -0.2641 -0.1353  0.3173
 4760SOL    HW115179   2.433   2.653   6.138 -0.7613 -0.4124 -0.4377
 4760SOL    HW215180   2.515   2.547   6.046  1.0725 -0.0697  0.7593
 4761SOL     OW15181   1.614   5.001   0.305  0.4537 -0.2529  0.3436
 4761SOL    HW115182   1.690   5.023   0.244  0.8676 -1.6412  0.3239
 4761SOL    HW215183   1.650   4.974   0.395 -0.0225 -0.6913  0.4088
 4762SOL     OW15184   3.546   0.445   1.973 -0.3743  1.0215 -0.4469
 4762SOL    HW115185   3.547   0.364   1.914  2.0443  1.3095 -0.9025
 4762SOL    HW215186   3.639   0.475   1.990 -0.9407  1.1893  3.2753
 4763SOL     OW15187   0.669   5.811   4.887  0.3041  0.2969 -0.4065
 4763SOL    HW115188   0.690   5.732   4.830  0.9873  0.3556 -0.2510
 4763SOL    HW215189   0.597   5.865   4.844 -0.8975 -0.9402 -0.0090
 4764SOL     OW15190   3.407   4.137   2.803 -0.2270  0.4424  0.2254
 4764SOL    HW115191   3.441   4.109   2.892 -0.1865  0.8018  0.3241
 4764SOL    HW215192   3.482   4.138   2.737 -0.3027 -0.0649  0.1237
 4765SOL     OW15193   6.322   5.491   6.989 -0.7035 -0.2190 -0.6058
 4765SOL    HW115194   6.386   5.568   6.978  2.3850 -2.5242 -0.3432
 4765SOL    HW215195   6.297   5.481   7.085  2.4745 -1.9643  0.1935
 4766SOL     OW15196   2.637   0.679   3.872 -0.0505  0.0031 -0.2243
 4766SOL    HW115197   2.579   0.598   3.867 -1.0619  0.5935  1.1999
 4766SOL    HW215198   2.695   0.684   3.791  0.1273 -2.1868 -0.2790
 4767SOL     OW15199   5.451   1.050   6.741  0.3818  0.3890  0.3353
 4767SOL    HW115200   5.374   0.994   6.710 -0.4174 -0.5446  3.6772
 4767SOL    HW215201   5.425   1.100   6.824  3.4529 -0.1645  1.7652
 4768SOL     OW15202   1.858   1.816   5.012  0.7126 -0.0385  0.3574
 4768SOL    HW115203   1.788   1.887   5.005  1.4060  0.4827 -2.6845
 4768SOL    HW215204   1.948   1.858   5.015  1.0956 -0.7409 -0.6190
 4769SOL     OW15205   4.608   0.643   2.803  0.0194 -0.6673  0.2612
 4769SOL    HW115206   4.643   0.551   2.783 -1.3591 -1.2971  0.6591
 4769SOL    HW215207   4.530   0.636   2.865 -0.3929  0.7612 -0.0737
 4770SOL     OW15208   3.500   1.633   2.767  0.4344  0.0129 -0.6593
 4770SOL    HW115209   3.585   1.580   2.761  1.6197  1.9321 -2.1602
 4770SOL    HW215210   3.491   1.671   2.859  0.7926 -0.8213 -0.2662
 4771SOL     OW15211   4.452   4.026   5.397  0.1857  0.1204  0.0409
 4771SOL    HW115212   4.361   4.057   5.369 -0.5634 -0.9270  1.2004
 4771SOL    HW215213   4.457   3.926   5.387  1.1909  0.1618  0.0667
 4772SOL     OW15214   0.710   2.557   0.986 -0.4761  0.0569  0.3870
 4772SOL    HW115215   0.753   2.558   1.076 -0.2553 -0.3774  0.2882
 4772SOL    HW215216   0.612   2.545   0.996 -0.7467  2.1100  0.6729
 4773SOL     OW15217   0.070   6.104   5.024 -0.1711  0.1045  0.0119
 4773SOL    HW115218   0.114   6.095   5.113 -1.5497  2.1088  0.9522
 4773SOL    HW215219  -0.027   6.080   5.032 -0.7377  2.0573 -0.4759
 4774SOL     OW15220   6.983   4.576   0.498 -0.2912  0.0277 -0.6538
 4774SOL    HW115221   7.065   4.558   0.551  0.0764  0.3331 -1.1150
 4774SOL    HW215222   6.979   4.515   0.419 -0.7195 -0.2705 -0.4040
 4775SOL     OW15223   1.764   3.039   1.116  0.3052  0.0602 -0.0770
 4775SOL    HW115224   1.766   3.039   1.016 -0.9933  0.8023 -0.1271
 4775SOL    HW215225   1.718   2.956   1.148  1.9379 -0.8660 -0.0202
 4776SOL     OW15226   4.535   5.750   3.801  0.1767  0.3738  0.1069
 4776SOL    HW115227   4.623   5.792   3.779  1.0341 -0.1390  2.3250
 4776SOL    HW215228   4.463   5.793   3.747  1.4349  2.5531  0.0624
 4777SOL     OW15229   1.622   4.049   1.013  1.0411 -0.5699 -0.1347
 4777SOL    HW115230   1.696   4.082   1.071 -0.1079 -0.4633  1.3490
 4777SOL    HW215231   1.607   4.114   0.938  2.3526 -0.5531 -0.4051
 4778SOL     OW15232   5.264   2.579   4.281  0.4044 -0.1687  0.6275
 4778SOL    HW115233   5.353   2.622   4.291  0.8472 -1.1781  1.1743
 4778SOL    HW215234   5.235   2.540   4.369  0.6476 -2.1474 -0.1165
 4779SOL     OW15235   4.083   1.960   2.156  0.7874 -0.1425  0.3605
 4779SOL    HW115236   4.069   1.873   2.109  0.1878  0.8193 -1.3306
 4779SOL    HW215237   3.994   2.005   2.167  1.1818  0.5844  0.5642
 4780SOL     OW15238   4.008   1.906   5.248  0.2533  0.1189  0.1786
 4780SOL    HW115239   3.980   1.959   5.168 -2.5286 -0.0626  0.9367
 4780SOL    HW215240   3.987   1.809   5.233  2.8439 -0.4541 -0.1412
 4781SOL     OW15241   1.992   4.372   4.543  0.2051  0.1778  0.4376
 4781SOL    HW115242   1.960   4.451   4.490 -1.0649  0.4079  1.5006
 4781SOL    HW215243   1.984   4.393   4.640  0.2443 -1.1153  0.7296
 4782SOL     OW15244   5.234   0.985   0.607  0.2615 -0.0575 -0.2657
 4782SOL    HW115245   5.164   0.925   0.644  0.8777 -0.3141  0.5104
 4782SOL    HW215246   5.191   1.057   0.552 -0.4588 -1.5741 -1.7964
 4783SOL     OW15247   5.555   2.385   2.051 -0.1905 -0.0236  0.2985
 4783SOL    HW115248   5.501   2.445   2.110 -1.2320 -0.1917 -0.4460
 4783SOL    HW215249   5.537   2.290   2.076 -0.0100 -0.0690  0.2521
 4784SOL     OW15250   5.776   4.733   6.378  0.0097 -0.0280  0.2136
 4784SOL    HW115251   5.789   4.775   6.468  0.5199 -2.2245  1.2208
 4784SOL    HW215252   5.684   4.754   6.344  0.3591  2.1404  0.4791
 4785SOL     OW15253   6.320   6.639   2.184  0.6207  0.1388 -0.3970
 4785SOL    HW115254   6.321   6.666   2.280 -0.7520 -1.8529  0.2478
 4785SOL    HW215255   6.362   6.548   2.175 -2.4181 -1.3358 -1.0283
 4786SOL     OW15256   2.426   3.421   1.674  0.0743  0.0497 -0.6258
 4786SOL    HW115257   2.364   3.448   1.601  0.6396 -3.2364 -2.5531
 4786SOL    HW215258   2.377   3.421   1.762 -2.1805 -0.7993 -1.8086
 4787SOL     OW15259   6.458   1.132   3.433 -0.4024 -0.7270  0.1422
 4787SOL    HW115260   6.420   1.108   3.343  2.0015  0.2928 -1.2420
 4787SOL    HW215261   6.405   1.207   3.472 -0.7816 -0.3801 -0.9862
 4788SOL     OW15262   2.409   6.483   5.757 -0.3035 -0.0950 -0.1641
 4788SOL    HW115263   2.386   6.523   5.668 -0.9144 -2.1295 -0.9647
 4788SOL    HW215264   2.348   6.407   5.777  0.4886 -0.3419  1.5406
 4789SOL     OW15265   5.833   5.973   1.449 -0.2070  0.1229 -0.7087
 4789SOL    HW115266   5.863   5.949   1.357  0.4528  0.7596 -0.6675
 4789SOL    HW215267   5.866   5.904   1.514 -0.6630 -0.3192 -0.9392
 4790SOL     OW15268   5.176   6.844   0.050 -0.2702 -0.2755 -0.3455
 4790SOL    HW115269   5.238   6.921   0.066 -2.0632  1.0489  0.5787
 4790SOL    HW215270   5.163   6.793   0.135 -0.6605 -0.3587 -0.4526
 4791SOL     OW15271   5.794   2.531   2.235  0.0918 -0.5421 -0.6297
 4791SOL    HW115272   5.785   2.513   2.137  0.4051  1.2546 -1.0217
 4791SOL    HW215273   5.860   2.468   2.274  2.0391  0.4475 -2.1545
 4792SOL     OW15274   2.729   2.639   6.665  0.2389 -0.4731  0.1489
 4792SOL    HW115275   2.701   2.712   6.603 -0.4087 -0.4993  0.3976
 4792SOL    HW215276   2.677   2.556   6.644 -0.6720 -0.2303  1.2963
 4793SOL     OW15277   6.404   5.760   6.983 -0.2066  0.5105  0.3446
 4793SOL    HW115278   6.376   5.847   6.942  0.9966  0.1759 -1.2803
 4793SOL    HW215279   6.504   5.754   6.984 -0.2084  0.1399  2.6388
 4794SOL     OW15280   4.786   0.205   0.446  0.4137 -0.4615  0.8110
 4794SOL    HW115281   4.723   0.273   0.407  0.2039 -1.5765 -0.9213
 4794SOL    HW215282   4.879   0.241   0.441  0.4927 -0.8189 -1.5129
 4795SOL     OW15283   6.314   4.187   0.948  0.1608  0.1082 -0.1510
 4795SOL    HW115284   6.276   4.230   0.866 -0.5782 -0.4764 -0.1334
 4795SOL    HW215285   6.411   4.210   0.957 -0.0772  1.2551 -0.4598
 4796SOL     OW15286   6.686   3.311   7.010 -0.3502 -0.6124  0.4561
 4796SOL    HW115287   6.731   3.291   7.097 -1.2528  0.8449  1.2966
 4796SOL    HW215288   6.588   3.327   7.026 -0.5747 -0.5458 -0.8659
 4797SOL     OW15289   2.209   6.396   4.533  0.0365  0.0026  0.1419
 4797SOL    HW115290   2.238   6.444   4.615 -0.0451 -0.0890  0.2244
 4797SOL    HW215291   2.268   6.316   4.519 -0.3541 -0.3445  0.4661
 4798SOL     OW15292   5.233   0.176   6.294  0.2068 -0.3461  0.1503
 4798SOL    HW115293   5.323   0.132   6.302 -0.1440 -0.9802  0.6455
 4798SOL    HW215294   5.230   0.256   6.354 -0.3426 -1.6507  1.9364
 4799SOL     OW15295   6.120   6.404   5.595  0.3504  0.1281  0.5278
 4799SOL    HW115296   6.178   6.342   5.649 -0.9742 -0.2975  1.4992
 4799SOL    HW215297   6.030   6.364   5.582  0.4724  0.4455 -1.6385
 4800SOL     OW15298   2.429   2.616   3.491  0.1035 -0.0865  0.9227
 4800SOL    HW115299   2.408   2.650   3.583 -1.2903  0.9167  0.2676
 4800SOL    HW215300   2.355   2.556   3.461  1.7703 -2.5849  1.4280
 4801SOL     OW15301   0.307   3.563   2.139  0.2100  0.3784  0.3898
 4801SOL    HW115302   0.306   3.663   2.136 -0.8015  0.3627 -1.2561
 4801SOL    HW215303   0.327   3.528   2.048  2.9922 -0.9604  1.4275
 4802SOL     OW15304   0.601   6.853   0.908 -0.1557 -0.4426 -0.4188
 4802SOL    HW115305   0.586   6.924   0.840  1.4607 -0.5236 -0.9153
 4802SOL    HW215306   0.673   6.791   0.875  0.3689 -0.7239  1.1801
 4803SOL     OW15307   1.027   1.631   0.570 -0.0663 -0.3758  0.1948
 4803SOL    HW115308   0.960   1.652   0.641 -0.5018 -0.6879 -0.1136
 4803SOL    HW215309   0.998   1.548   0.521  1.7839 -1.9971  1.6569
 4804SOL     OW15310   5.487   0.769   6.932  0.0314  0.8859  0.2512
 4804SOL    HW115311   5.472   0.696   6.999  0.2745  0.5018 -0.1115
 4804SOL    HW215312   5.536   0.733   6.854  0.3420  1.4922  0.1622
 4805SOL     OW15313   0.464   6.937   1.129  0.1817 -0.3159 -0.1374
 4805SOL    HW115314   0.517   6.914   1.047 -0.3037  2.3908 -1.3053
 4805SOL    HW215315   0.511   7.011   1.178 -1.0227  0.0832  0.4307
 4806SOL     OW15316   0.386   2.795   3.990  0.0661  0.5112  0.3206
 4806SOL    HW115317   0.303   2.811   3.936  0.7573  2.0869 -0.3266
 4806SOL    HW215318   0.460   2.765   3.929  0.1334 -0.3843  0.8216
 4807SOL     OW15319   6.841   6.479   2.069  0.0939  0.5890  0.4236
 4807SOL    HW115320   6.921   6.539   2.068 -0.1804  0.9555  0.1605
 4807SOL    HW215321   6.798   6.480   1.979 -0.6024  0.9381  0.7529
 4808SOL     OW15322   4.902   4.452   0.757 -0.0080  0.0862 -0.0210
 4808SOL    HW115323   4.943   4.469   0.847  0.5269 -0.2612 -0.1938
 4808SOL    HW215324   4.918   4.357   0.730  0.3805  0.3499 -0.7544
 4809SOL     OW15325   4.496   6.404   6.174  0.1308 -0.1818 -0.4298
 4809SOL    HW115326   4.439   6.473   6.130  1.8592  0.7039 -1.3916
 4809SOL    HW215327   4.591   6.434   6.173  0.8541 -2.3159 -0.3125
 4810SOL     OW15328   3.231   6.631   1.176 -0.0115  0.2210  0.0770
 4810SOL    HW115329   3.188   6.572   1.107  1.0267  0.2673 -0.6347
 4810SOL    HW215330   3.324   6.599   1.193 -0.1875  0.3368  1.3310
 4811SOL     OW15331   4.710   4.814   4.015  0.7207 -0.0680 -0.3200
 4811SOL    HW115332   4.641   4.785   4.081 -1.0163  0.7142 -1.7043
 4811SOL    HW215333   4.732   4.738   3.954 -0.2205  0.1340 -0.9332
 4812SOL     OW15334   6.131   5.344   3.653  0.5571  0.2256  0.1399
 4812SOL    HW115335   6.182   5.285   3.591  0.3412 -0.0347  0.2083
 4812SOL    HW215336   6.181   5.352   3.739  0.4202 -0.1395  0.2561
 4813SOL     OW15337   6.752   4.478   2.221 -0.2725 -0.0798 -0.6385
 4813SOL    HW115338   6.653   4.484   2.212 -0.1752  1.2714 -1.0385
 4813SOL    HW215339   6.779   4.503   2.314 -0.3910 -2.0216 -0.0324
 4814SOL     OW15340   6.622   3.178   6.575 -0.0743 -0.8908 -0.1139
 4814SOL    HW115341   6.657   3.141   6.489 -0.6115 -1.0604 -0.2674
 4814SOL    HW215342   6.651   3.121   6.651  0.7565 -0.5031 -0.1357
 4815SOL     OW15343   3.616   6.479   3.179  0.1946  0.8512  0.1284
 4815SOL    HW115344   3.638   6.572   3.147  2.1928  0.0923 -0.8242
 4815SOL    HW215345   3.609   6.418   3.100  1.6246 -0.3407  0.8999
 4816SOL     OW15346   5.396   3.804   4.232  0.0529 -0.4714 -0.2213
 4816SOL    HW115347   5.348   3.783   4.317  0.1774 -1.9054 -0.4785
 4816SOL    HW215348   5.484   3.846   4.252  0.6587 -1.9880  0.4334
 4817SOL     OW15349   4.649   1.375   0.594  0.3486 -0.3024  0.2524
 4817SOL    HW115350   4.741   1.406   0.621  0.2306 -0.1701  0.5125
 4817SOL    HW215351   4.621   1.422   0.511 -0.1080  0.8302  1.0177
 4818SOL     OW15352   6.114   6.563   2.642 -0.6420  0.3185  0.0783
 4818SOL    HW115353   6.058   6.606   2.572 -0.2716 -0.1691 -0.5246
 4818SOL    HW215354   6.131   6.468   2.617  0.7951  0.5741  0.0530
 4819SOL     OW15355   2.986   2.991   1.210  0.2217  0.4463 -0.7640
 4819SOL    HW115356   2.966   2.977   1.308  1.1282 -1.0948 -0.7745
 4819SOL    HW215357   3.047   2.919   1.178  0.3625  1.2447 -2.3611
 4820SOL     OW15358   5.921   3.439   3.174 -0.1602  0.0421 -0.1240
 4820SOL    HW115359   5.861   3.359   3.183 -0.1830  0.1287  0.5822
 4820SOL    HW215360   5.879   3.516   3.222 -0.4281  0.6502 -1.3028
 4821SOL     OW15361   7.012   5.190   4.240  0.2566 -0.3300  0.0755
 4821SOL    HW115362   7.089   5.173   4.301  0.1598  2.2823  1.0589
 4821SOL    HW215363   6.946   5.115   4.246  2.3875 -2.3490 -0.3671
 4822SOL     OW15364   2.862   4.753   3.265 -0.0642 -0.4359  0.1403
 4822SOL    HW115365   2.763   4.738   3.262 -0.3269  1.2319 -0.5917
 4822SOL    HW215366   2.893   4.748   3.360 -1.0087 -0.1393  0.4807
 4823SOL     OW15367   7.008   2.257   0.618  0.2436  0.0162 -0.3337
 4823SOL    HW115368   7.079   2.323   0.642 -0.0884  0.4219 -0.4592
 4823SOL    HW215369   6.956   2.233   0.700  0.3151 -0.0286 -0.3019
 4824SOL     OW15370   6.579   1.362   1.336  0.5046 -0.3636 -0.1550
 4824SOL    HW115371   6.615   1.443   1.382 -1.3065 -0.3796  1.4417
 4824SOL    HW215372   6.645   1.288   1.343  1.6730  0.6184 -0.5532
 4825SOL     OW15373   1.316   5.881   3.225  0.2229 -0.0170 -0.2121
 4825SOL    HW115374   1.226   5.901   3.187 -0.5303 -0.3574  1.2998
 4825SOL    HW215375   1.367   5.967   3.236  0.7952  0.0108 -2.6660
 4826SOL     OW15376   4.775   5.783   1.276 -0.1543  0.0481 -0.2003
 4826SOL    HW115377   4.755   5.872   1.235 -1.0118  0.7062  1.5133
 4826SOL    HW215378   4.725   5.711   1.228 -2.3979  0.9851  0.5940
 4827SOL     OW15379   0.384   0.266   1.408  0.1310 -0.3493 -0.0474
 4827SOL    HW115380   0.323   0.235   1.481  1.0878 -1.7301  0.2189
 4827SOL    HW215381   0.420   0.356   1.430  0.8983 -1.0045  1.5428
 4828SOL     OW15382   5.035   0.359   5.136  0.4310  0.1235 -0.2927
 4828SOL    HW115383   5.041   0.440   5.193  0.3639  0.3556 -0.6135
 4828SOL    HW215384   4.997   0.383   5.047  0.7760 -0.1883 -0.5277
 4829SOL     OW15385   3.312   0.278   5.993 -0.1700  0.4893 -0.2663
 4829SOL    HW115386   3.220   0.241   5.980  0.4471 -1.6214  0.8835
 4829SOL    HW215387   3.321   0.364   5.942 -2.4824  0.3233 -1.0780
 4830SOL     OW15388   2.412   4.480   2.931  0.5610  0.5492 -0.2008
 4830SOL    HW115389   2.415   4.429   3.017  0.1665  1.4208  0.3506
 4830SOL    HW215390   2.370   4.569   2.948 -1.6577 -0.1275 -1.7462
 4831SOL     OW15391   3.957   3.543   5.156 -0.1704  0.2949  0.3529
 4831SOL    HW115392   4.007   3.604   5.096  1.8310 -1.9964 -0.4735
 4831SOL    HW215393   4.020   3.479   5.200 -1.9036  0.0963  2.7764
 4832SOL     OW15394   3.858   5.331   5.243 -0.1481  0.6501 -0.5952
 4832SOL    HW115395   3.927   5.345   5.172  0.5286 -0.6682 -0.2280
 4832SOL    HW215396   3.878   5.247   5.292  0.8921  2.7351  2.8588
 4833SOL     OW15397   5.429   2.626   5.929  0.4258  0.3995  0.5520
 4833SOL    HW115398   5.453   2.569   6.008 -1.9152 -0.2584  0.8513
 4833SOL    HW215399   5.427   2.722   5.956 -0.4746  0.1682  1.3600
 4834SOL     OW15400   0.549   5.192   1.682  0.4479  0.3116 -0.2173
 4834SOL    HW115401   0.457   5.228   1.666 -0.1429 -1.6800 -1.6730
 4834SOL    HW215402   0.594   5.177   1.594  0.9686 -1.6049  0.3388
 4835SOL     OW15403   6.905   3.824   5.134  0.4071  0.1170  0.1127
 4835SOL    HW115404   6.861   3.913   5.122  1.5898  0.6886 -0.0962
 4835SOL    HW215405   6.988   3.835   5.189 -0.0853 -1.0600  1.1475
 4836SOL     OW15406   5.862   2.627   5.316 -0.1973  0.5620 -0.2255
 4836SOL    HW115407   5.881   2.553   5.252  0.8796  0.8186 -0.2115
 4836SOL    HW215408   5.822   2.704   5.266 -2.2894 -0.3518 -0.0948
 4837SOL     OW15409   1.664   3.917   4.128 -0.3272 -0.2348  0.4433
 4837SOL    HW115410   1.691   3.926   4.224  0.7420  0.9823  0.0581
 4837SOL    HW215411   1.674   3.822   4.099 -1.2906 -0.7506  1.6931
 4838SOL     OW15412   0.887   5.049   6.367 -0.5068 -0.5438 -0.3544
 4838SOL    HW115413   0.940   5.072   6.285 -1.7758 -2.2710 -1.7469
 4838SOL    HW215414   0.902   4.953   6.391  1.9316  0.5147  3.1519
 4839SOL     OW15415   3.523   0.582   0.066  0.0011 -0.2261 -0.7478
 4839SOL    HW115416   3.525   0.585  -0.034  0.5154  1.5751 -0.7229
 4839SOL    HW215417   3.459   0.650   0.100  0.0622 -0.6156  0.1710
 4840SOL     OW15418   5.897   3.217   4.078  0.0839 -0.6967 -0.2678
 4840SOL    HW115419   5.831   3.161   4.129  3.2668 -2.3158  2.5136
 4840SOL    HW215420   5.927   3.293   4.136 -1.1268  1.6095 -2.4825
 4841SOL     OW15421   1.760   5.337   4.790  0.1385  0.7873 -0.8536
 4841SOL    HW115422   1.676   5.338   4.845  1.1647 -1.8870  0.9835
 4841SOL    HW215423   1.747   5.280   4.709  0.2116  0.1443 -0.4241
 4842SOL     OW15424   5.663   6.184   2.154 -0.2656  0.1129  0.5620
 4842SOL    HW115425   5.644   6.241   2.233 -1.0494  0.7656 -0.0731
 4842SOL    HW215426   5.729   6.112   2.178 -2.1132 -1.0683  2.3786
 4843SOL     OW15427   5.279   3.129   1.518  0.5405  0.2358 -0.4075
 4843SOL    HW115428   5.224   3.091   1.443  0.0545  1.0218 -0.4609
 4843SOL    HW215429   5.290   3.059   1.589 -0.1543 -0.0806 -0.5985
 4844SOL     OW15430   1.477   2.975   6.377 -0.0354 -0.0965  0.0377
 4844SOL    HW115431   1.398   2.948   6.431  0.2768  1.6411  1.4829
 4844SOL    HW215432   1.446   3.010   6.288 -0.9037  0.5224  0.5682
 4845SOL     OW15433   5.274   3.706   4.477  0.0756 -0.2685 -0.3396
 4845SOL    HW115434   5.362   3.691   4.522 -1.0767 -0.8914  1.8676
 4845SOL    HW215435   5.205   3.728   4.546 -0.9121  3.4316 -2.2330
 4846SOL     OW15436   5.716   2.551   4.312  0.0605 -0.2345  0.2233
 4846SOL    HW115437   5.671   2.511   4.392 -1.4018 -0.4986 -0.6818
 4846SOL    HW215438   5.648   2.600   4.257  1.0012 -0.1944 -0.9504
 4847SOL     OW15439   2.821   5.698   0.696  0.1248 -0.0397  0.0175
 4847SOL    HW115440   2.808   5.599   0.699  2.0639 -0.2982  1.4158
 4847SOL    HW215441   2.805   5.737   0.787  0.9013  0.7027 -0.1477
 4848SOL     OW15442   5.823   0.822   2.595 -0.5813  0.6029 -0.2216
 4848SOL    HW115443   5.808   0.806   2.692  0.8475  2.5018  0.3676
 4848SOL    HW215444   5.920   0.807   2.573 -1.0334 -0.6411 -1.5718
 4849SOL     OW15445   0.050   6.161   2.107 -0.3989 -0.0937 -0.1672
 4849SOL    HW115446   0.063   6.191   2.013 -0.5132  1.3099  0.2410
 4849SOL    HW215447  -0.040   6.119   2.116 -1.4110  1.9603 -0.1914
 4850SOL     OW15448   3.090   4.862   2.791 -0.0151  0.5409 -0.4528
 4850SOL    HW115449   3.086   4.960   2.810  1.3500  1.5955 -4.5261
 4850SOL    HW215450   3.003   4.831   2.753 -1.0545 -0.3653  2.4484
 4851SOL     OW15451   3.003   3.761   5.879 -0.1984  0.2681  0.1086
 4851SOL    HW115452   2.936   3.741   5.807  0.1150 -1.4211  0.2472
 4851SOL    HW215453   3.093   3.727   5.852  0.2443  0.9650  0.6687
 4852SOL     OW15454   3.863   3.563   5.608  0.2582 -0.0565  0.6800
 4852SOL    HW115455   3.780   3.559   5.553  0.4360  0.2091  0.3860
 4852SOL    HW215456   3.870   3.480   5.664  0.9360 -1.2137 -1.0058
 4853SOL     OW15457   5.272   2.124   3.209 -0.1234 -0.4692 -0.5155
 4853SOL    HW115458   5.249   2.045   3.152  0.1589 -2.3531  1.8518
 4853SOL    HW215459   5.362   2.159   3.183 -0.7433 -0.1215 -2.3682
 4854SOL     OW15460   6.465   6.565   1.407 -0.0871  0.3890 -0.4664
 4854SOL    HW115461   6.398   6.639   1.409 -0.9359 -0.3726  0.5104
 4854SOL    HW215462   6.436   6.496   1.341  0.6137  0.8238 -1.2502
 4855SOL     OW15463   3.796   4.607   6.350 -0.2448 -0.2467 -0.3202
 4855SOL    HW115464   3.834   4.579   6.262  2.1698  3.3216 -0.6482
 4855SOL    HW215465   3.862   4.586   6.422 -0.4424  0.3775  0.0468
 4856SOL     OW15466   1.276   3.857   2.734 -0.2409 -0.1330 -0.0991
 4856SOL    HW115467   1.364   3.844   2.688 -1.2738  1.4883 -2.6943
 4856SOL    HW215468   1.202   3.852   2.668 -1.9270  1.1397  1.5896
 4857SOL     OW15469   1.243   2.467   5.272 -0.3182  0.1835  0.1189
 4857SOL    HW115470   1.159   2.435   5.228  0.1671  1.1803 -1.6105
 4857SOL    HW215471   1.240   2.443   5.370 -1.3062 -2.3739 -0.4419
 4858SOL     OW15472   1.040   5.454   4.237 -0.5466 -0.3115  0.2153
 4858SOL    HW115473   0.967   5.508   4.195 -0.4874 -0.2804  0.1517
 4858SOL    HW215474   1.128   5.493   4.213 -0.5247 -0.0921  0.6529
 4859SOL     OW15475   0.382   5.428   4.481 -0.3999  0.1661  0.1401
 4859SOL    HW115476   0.299   5.373   4.468  1.0209 -2.1719  0.3986
 4859SOL    HW215477   0.408   5.470   4.394 -0.1843 -1.6501 -0.7286
 4860SOL     OW15478   2.763   4.125   1.671 -0.0100  0.0515  0.2214
 4860SOL    HW115479   2.791   4.142   1.765 -1.4973 -0.4047  0.7736
 4860SOL    HW215480   2.735   4.029   1.661 -0.2968  0.2053 -0.5735
 4861SOL     OW15481   0.695   5.586   3.589 -0.0181  0.3323  0.1266
 4861SOL    HW115482   0.659   5.495   3.566  1.8227 -0.2117 -0.8090
 4861SOL    HW215483   0.621   5.653   3.586 -1.6071 -1.2497  1.7248
 4862SOL     OW15484   1.596   3.338   4.797 -0.3914  0.5391  0.4364
 4862SOL    HW115485   1.649   3.259   4.827 -1.1794  0.5836  2.0435
 4862SOL    HW215486   1.566   3.324   4.703  1.0160 -0.2328  0.0733
 4863SOL     OW15487   4.251   2.219   3.406 -0.0671  0.0256  0.3770
 4863SOL    HW115488   4.326   2.207   3.341 -1.4621 -0.6000 -1.1431
 4863SOL    HW215489   4.163   2.210   3.360 -1.1380  1.7603  1.9242
 4864SOL     OW15490   1.974   3.700   1.291 -0.5767 -0.2074 -0.0416
 4864SOL    HW115491   2.054   3.672   1.344 -0.3698 -0.8039 -0.6440
 4864SOL    HW215492   1.897   3.718   1.352 -0.4222 -1.1235  0.4387
 4865SOL     OW15493   5.041   4.355   4.327 -0.2585 -0.2839 -0.3416
 4865SOL    HW115494   5.004   4.341   4.235 -0.4215 -0.2301 -0.2840
 4865SOL    HW215495   5.120   4.295   4.340 -1.0290 -1.2832 -0.0520
 4866SOL     OW15496   0.141   4.531   2.338 -0.4545  0.7724 -0.2877
 4866SOL    HW115497   0.085   4.612   2.358 -0.2861  1.0306 -0.8383
 4866SOL    HW215498   0.177   4.538   2.245  1.0880  0.9703  0.2832
 4867SOL     OW15499   5.907   5.107   5.685  0.5219  0.2527 -0.2996
 4867SOL    HW115500   5.853   5.190   5.667 -0.1082 -0.0095  0.3222
 4867SOL    HW215501   5.873   5.033   5.627  0.3343  0.1409 -0.0514
 4868SOL     OW15502   1.729   7.016   3.365 -0.0413 -0.0140  0.3606
 4868SOL    HW115503   1.724   7.104   3.413  2.2725 -0.2110  1.0769
 4868SOL    HW215504   1.819   7.006   3.322 -0.9959 -1.1715 -1.4879
 4869SOL     OW15505   0.709   1.805   1.709 -0.0355 -0.2605 -0.2383
 4869SOL    HW115506   0.772   1.740   1.667  0.0615 -0.0113 -0.4807
 4869SOL    HW215507   0.616   1.770   1.704  0.2346 -1.3311  1.4440
 4870SOL     OW15508   0.430   2.161   2.552 -0.5629  0.0609 -0.3216
 4870SOL    HW115509   0.408   2.258   2.540  0.2655  0.2650 -0.2359
 4870SOL    HW215510   0.436   2.117   2.462  2.3451  0.8501 -0.6033
 4871SOL     OW15511   2.127   2.822   4.407 -0.0129  0.0569  0.4082
 4871SOL    HW115512   2.214   2.788   4.370  1.1768  2.5092  0.7177
 4871SOL    HW215513   2.052   2.766   4.373  1.1910  0.6084 -3.8233
 4872SOL     OW15514   1.117   1.380   1.906 -0.1100 -0.1566  0.5688
 4872SOL    HW115515   1.157   1.420   1.823 -0.9082  0.9480  0.6874
 4872SOL    HW215516   1.163   1.294   1.927  2.6989  1.3591  1.0763
 4873SOL     OW15517   1.586   0.638   5.579  0.1714 -0.0864  0.1157
 4873SOL    HW115518   1.605   0.548   5.541  1.4088 -0.2105  0.9655
 4873SOL    HW215519   1.532   0.691   5.514 -2.7926 -2.2780  0.6102
 4874SOL     OW15520   6.044   2.729   4.026 -0.1403 -0.9688 -0.0908
 4874SOL    HW115521   5.982   2.670   3.974  0.5804 -1.4670 -0.4139
 4874SOL    HW215522   6.131   2.737   3.977  0.5731 -1.4729  1.0454
 4875SOL     OW15523   6.536   0.625   2.051 -0.1221  0.0933 -0.1679
 4875SOL    HW115524   6.553   0.632   1.952 -3.1857 -0.1168 -0.8405
 4875SOL    HW215525   6.529   0.716   2.090  0.8226  0.1831 -0.2003
 4876SOL     OW15526   6.176   0.952   6.702 -0.3996  0.4778  0.8748
 4876SOL    HW115527   6.187   0.859   6.737  2.6448 -0.1211 -1.2995
 4876SOL    HW215528   6.092   0.957   6.647 -0.0103 -1.3334  0.0459
 4877SOL     OW15529   3.771   2.026   0.381  0.1685  0.1832  0.3096
 4877SOL    HW115530   3.728   2.115   0.366  0.9406  0.6370  0.7138
 4877SOL    HW215531   3.795   1.986   0.293 -0.4722  0.2236  0.1108
 4878SOL     OW15532   1.224   4.514   0.753  0.2330  0.3314  0.4515
 4878SOL    HW115533   1.241   4.572   0.833 -1.2892  1.8398 -0.2567
 4878SOL    HW215534   1.125   4.501   0.742  0.4585 -0.5086 -0.7446
 4879SOL     OW15535   4.808   5.625   4.568  0.7808  0.2137  0.3816
 4879SOL    HW115536   4.755   5.655   4.647 -0.9911  0.8532 -0.9852
 4879SOL    HW215537   4.837   5.530   4.581 -1.1441 -0.3360  0.9965
 4880SOL     OW15538   6.121   0.635   5.383  0.8391 -0.1386  0.1523
 4880SOL    HW115539   6.022   0.637   5.399  1.0994 -1.3657  2.3428
 4880SOL    HW215540   6.159   0.727   5.398 -0.1419  0.7714 -2.4826
 4881SOL     OW15541   3.453   4.599   6.124  0.1970  0.2853  0.2773
 4881SOL    HW115542   3.391   4.551   6.186  1.0403  0.1089  0.9943
 4881SOL    HW215543   3.519   4.534   6.086  0.9628  0.7471  0.7799
 4882SOL     OW15544   0.053   0.010   6.608 -0.5724 -0.1951  0.0061
 4882SOL    HW115545   0.105  -0.072   6.582 -2.2366 -0.8403 -1.5518
 4882SOL    HW215546  -0.022  -0.016   6.669 -0.7830  0.2505 -0.0580
 4883SOL     OW15547   5.925   5.345   6.334 -0.0737  0.0972  0.1268
 4883SOL    HW115548   5.931   5.296   6.247  0.4158 -0.0214  0.2285
 4883SOL    HW215549   5.829   5.350   6.362 -0.0806 -1.4220  0.4633
 4884SOL     OW15550   4.296   0.810   1.106  0.2917 -0.2411 -0.7260
 4884SOL    HW115551   4.286   0.869   1.186 -1.9520 -0.7635 -0.5631
 4884SOL    HW215552   4.340   0.861   1.032  0.3506  0.9373  0.0972
 4885SOL     OW15553   1.082   0.838   3.574 -0.1920 -0.2867  0.1382
 4885SOL    HW115554   1.010   0.793   3.627  0.4564  0.4155  1.6720
 4885SOL    HW215555   1.041   0.907   3.514 -0.7217  1.3813  2.2917
 4886SOL     OW15556   5.056   1.668   3.443 -0.1577 -0.0449  0.2775
 4886SOL    HW115557   4.994   1.609   3.391  1.2423  0.2564 -1.8878
 4886SOL    HW215558   5.138   1.615   3.466 -0.0524  0.3054  0.6942
 4887SOL     OW15559   0.335   3.736   4.959 -0.2984 -0.4268  0.2776
 4887SOL    HW115560   0.258   3.777   4.912  0.1811 -0.8153 -0.8690
 4887SOL    HW215561   0.302   3.683   5.038 -1.2842 -1.2906 -0.6850
 4888SOL     OW15562   5.794   5.515   0.662  0.5540  0.3050  0.1166
 4888SOL    HW115563   5.770   5.429   0.618  0.2886  0.6711 -0.4733
 4888SOL    HW215564   5.862   5.499   0.734  1.7942 -0.1865 -1.1235
 4889SOL     OW15565   0.354   4.082   6.820  0.1917 -0.2288  0.2168
 4889SOL    HW115566   0.323   3.987   6.808 -2.4553  0.4498  1.0192
 4889SOL    HW215567   0.450   4.082   6.848  0.4809 -2.6225 -0.4918
 4890SOL     OW15568   0.245   1.514   3.689  0.2542 -0.3335  0.3210
 4890SOL    HW115569   0.307   1.563   3.750  1.0183 -0.4613 -0.3353
 4890SOL    HW215570   0.220   1.426   3.731  0.9164 -0.5013  0.3789
 4891SOL     OW15571   0.059   4.957   0.115 -0.4148  0.7231 -0.4323
 4891SOL    HW115572   0.156   4.962   0.090 -0.6965  1.8541 -1.4061
 4891SOL    HW215573   0.050   4.946   0.214  0.7267 -1.9826 -0.5445
 4892SOL     OW15574   1.510   5.289   2.915 -0.3700 -0.1129  1.2573
 4892SOL    HW115575   1.483   5.193   2.922 -0.5255 -0.2644 -0.8419
 4892SOL    HW215576   1.444   5.338   2.858  0.3426  0.9798  1.3423
 4893SOL     OW15577   1.095   3.876   3.890 -0.3592 -0.4540 -0.1966
 4893SOL    HW115578   1.059   3.859   3.798 -1.6300 -0.2692  0.2464
 4893SOL    HW215579   1.096   3.791   3.941 -0.1716 -0.4604 -0.2135
 4894SOL     OW15580   2.918   6.651   6.449  0.4291 -0.7426  0.0218
 4894SOL    HW115581   2.895   6.665   6.353 -0.2107 -0.3424  0.2339
 4894SOL    HW215582   2.867   6.715   6.506  0.9815 -0.8167  0.6132
 4895SOL     OW15583   6.251   4.658   6.871 -0.2653 -0.4989  0.0340
 4895SOL    HW115584   6.181   4.677   6.940  0.3529  1.1295  0.2473
 4895SOL    HW215585   6.207   4.649   6.781 -0.8728 -0.6392  0.3419
 4896SOL     OW15586   4.917   4.961   3.874 -0.1429  0.0415 -0.5117
 4896SOL    HW115587   4.902   4.988   3.779 -1.9808  0.2253 -0.2113
 4896SOL    HW215588   4.835   4.915   3.908  0.0275  1.0427  1.3518
 4897SOL     OW15589   0.861   4.785   0.456  0.1052 -0.8764 -0.3590
 4897SOL    HW115590   0.854   4.705   0.516  0.4120 -0.0725  0.7747
 4897SOL    HW215591   0.952   4.825   0.465 -1.0089  1.4735  1.5554
 4898SOL     OW15592   5.685   1.909   4.410 -0.1784 -0.7372  0.2318
 4898SOL    HW115593   5.766   1.957   4.442 -1.3218  0.9602  0.6918
 4898SOL    HW215594   5.692   1.892   4.312  0.1354  0.6197  0.0075
 4899SOL     OW15595   4.494   5.304   4.104  0.2096 -0.3934  0.3502
 4899SOL    HW115596   4.556   5.253   4.045  2.2717  1.2827  0.9510
 4899SOL    HW215597   4.453   5.379   4.053 -1.6092 -1.6410 -0.1127
 4900SOL     OW15598   1.133   0.718   5.800  0.2825  0.3810 -0.0716
 4900SOL    HW115599   1.145   0.818   5.794  1.2762  0.3987  1.7472
 4900SOL    HW215600   1.078   0.696   5.880  1.4546 -0.6159  0.4871
 4901SOL     OW15601   6.621   0.063   1.160  0.3351 -0.4841  0.0672
 4901SOL    HW115602   6.693   0.003   1.197  0.4359 -0.4341 -0.0455
 4901SOL    HW215603   6.647   0.092   1.067  0.1866 -0.4359  0.0411
 4902SOL     OW15604   3.771   5.012   2.855 -0.0501  0.8269  0.2405
 4902SOL    HW115605   3.845   4.946   2.861 -0.3438  0.6618  2.9503
 4902SOL    HW215606   3.807   5.099   2.820  0.8230  0.0117 -1.0013
 4903SOL     OW15607   6.563   3.323   4.589  0.3502 -0.0524 -0.1309
 4903SOL    HW115608   6.503   3.319   4.669 -0.4489 -0.9489 -0.7442
 4903SOL    HW215609   6.590   3.417   4.571  1.2370  0.0919  1.6798
 4904SOL     OW15610   3.927   0.665   3.867 -0.9038  0.0752  0.6901
 4904SOL    HW115611   3.906   0.687   3.963  2.5976 -0.3290  1.6622
 4904SOL    HW215612   3.971   0.576   3.862  0.3784  0.7663 -1.1063
 4905SOL     OW15613   6.035   3.875   2.740 -0.1829 -0.2077 -1.0056
 4905SOL    HW115614   5.943   3.874   2.779 -0.6567 -1.6918 -2.0727
 4905SOL    HW215615   6.044   3.953   2.678 -0.7023 -0.0175 -0.8463
 4906SOL     OW15616   6.038   0.921   2.834  0.5038 -0.3878 -0.2992
 4906SOL    HW115617   5.987   1.001   2.803 -0.9341 -1.7383 -1.5765
 4906SOL    HW215618   5.977   0.859   2.883  0.7005 -2.2792 -2.3081
 4907SOL     OW15619   0.976   3.509   1.132 -0.7698  0.4433  0.0923
 4907SOL    HW115620   0.895   3.451   1.135 -0.6146  0.2297  2.8270
 4907SOL    HW215621   0.976   3.562   1.048 -2.9068 -0.7044 -0.7068
 4908SOL     OW15622   4.583   5.507   1.331  0.3100 -0.0254  0.2204
 4908SOL    HW115623   4.511   5.557   1.379 -0.4706  1.2386 -2.1307
 4908SOL    HW215624   4.670   5.555   1.342  0.2324  0.0227  0.6689
 4909SOL     OW15625   0.607   0.057   5.613 -0.4982 -0.1319 -0.2880
 4909SOL    HW115626   0.589   0.152   5.639  1.7511 -0.2387  1.9759
 4909SOL    HW215627   0.549  -0.004   5.667 -0.0360 -0.1522  0.1796
 4910SOL     OW15628   6.356   5.682   6.657  0.0942  0.2980  0.5246
 4910SOL    HW115629   6.298   5.740   6.599  1.4356  0.0813 -1.1044
 4910SOL    HW215630   6.315   5.591   6.664 -0.0734  0.3191 -0.1212
 4911SOL     OW15631   0.194   3.610   5.157  0.3775 -0.0609  0.4755
 4911SOL    HW115632   0.209   3.537   5.224 -0.9526 -0.2995  0.5429
 4911SOL    HW215633   0.132   3.679   5.196  1.9152  1.3233  0.5528
 4912SOL     OW15634   1.191   3.466   0.604 -0.4011 -0.2119 -1.0774
 4912SOL    HW115635   1.244   3.550   0.611 -0.9352 -0.0030  1.0269
 4912SOL    HW215636   1.242   3.400   0.548  0.7437  0.9625 -1.4740
 4913SOL     OW15637   1.415   1.988   1.650 -0.5740  0.6164 -0.2240
 4913SOL    HW115638   1.498   1.938   1.624 -1.8965 -0.4420 -2.7683
 4913SOL    HW215639   1.431   2.086   1.640  0.7139  0.5188  0.5529
 4914SOL     OW15640   0.802   4.791   3.621 -0.0098  0.0652 -0.6142
 4914SOL    HW115641   0.893   4.827   3.598  0.7143 -0.9644  0.5216
 4914SOL    HW215642   0.796   4.774   3.719 -0.8348 -1.4644 -0.8890
 4915SOL     OW15643   3.423   1.327   4.264 -0.4912 -0.0090  0.6046
 4915SOL    HW115644   3.419   1.427   4.270  1.4386  0.2532 -1.5759
 4915SOL    HW215645   3.461   1.300   4.176  2.7680 -2.5822  2.6083
 4916SOL     OW15646   1.155   2.045   2.828  0.4182 -0.0519  0.3244
 4916SOL    HW115647   1.246   2.007   2.841  1.4570  1.5790 -1.7063
 4916SOL    HW215648   1.161   2.144   2.817 -1.4727 -0.0279 -0.9897
 4917SOL     OW15649   2.240   4.445   6.252 -0.1303  0.6002 -0.3597
 4917SOL    HW115650   2.324   4.457   6.305 -0.6494 -0.1124  0.6653
 4917SOL    HW215651   2.258   4.465   6.155  1.4211 -0.3329 -0.2948
 4918SOL     OW15652   5.240   0.736   2.907  0.5276  0.2250  0.0322
 4918SOL    HW115653   5.149   0.699   2.927  0.8135 -0.4497  0.1144
 4918SOL    HW215654   5.257   0.816   2.963  0.2928 -0.1130  0.5917
 4919SOL     OW15655   2.686   1.838   0.060 -0.5570  0.3526  0.8155
 4919SOL    HW115656   2.658   1.803  -0.030  0.5018 -1.1000  1.0118
 4919SOL    HW215657   2.720   1.762   0.116  1.7115  1.6698  1.3345
 4920SOL     OW15658   2.321   1.518   0.944 -0.1138 -0.1002  0.1526
 4920SOL    HW115659   2.279   1.507   1.035 -1.7242 -0.6401 -0.6179
 4920SOL    HW215660   2.395   1.585   0.950 -0.4093  0.1375  1.7973
 4921SOL     OW15661   6.065   6.348   1.076  0.2001 -0.5392 -0.2467
 4921SOL    HW115662   6.133   6.387   1.014  2.2266 -0.9428  1.6396
 4921SOL    HW215663   6.024   6.267   1.032  2.1932 -1.3257 -0.7852
 4922SOL     OW15664   0.813   4.190   5.692 -0.6150  0.1063  0.3040
 4922SOL    HW115665   0.858   4.101   5.680 -0.0567  0.3578  0.5335
 4922SOL    HW215666   0.719   4.175   5.724 -0.4587 -0.4001  0.5411
 4923SOL     OW15667   2.627   1.534   6.059  0.1179 -0.2334  0.3704
 4923SOL    HW115668   2.605   1.458   5.998 -1.5831  0.6811 -0.2104
 4923SOL    HW215669   2.548   1.595   6.067  1.3182  1.3045  1.0996
 4924SOL     OW15670   1.369   3.273   4.151  0.3576 -0.3719 -0.4830
 4924SOL    HW115671   1.348   3.370   4.160 -1.2232 -0.6774 -0.5252
 4924SOL    HW215672   1.317   3.235   4.075 -0.1054 -1.5144  0.3692
 4925SOL     OW15673   5.244   5.904   6.801 -0.3542  0.8651  0.3406
 4925SOL    HW115674   5.279   5.993   6.772  0.9372 -0.5649 -3.0304
 4925SOL    HW215675   5.302   5.869   6.875  3.0817  0.3919 -2.3012
 4926SOL     OW15676   3.336   3.523   0.664  0.0250  0.0547  0.5011
 4926SOL    HW115677   3.248   3.536   0.711 -0.0641  0.6687  0.1832
 4926SOL    HW215678   3.409   3.560   0.721  0.1827 -1.1713  1.1220
 4927SOL     OW15679   3.214   3.857   1.781 -0.1242 -0.0399 -0.2855
 4927SOL    HW115680   3.279   3.916   1.733 -1.3846  0.4062 -1.4825
 4927SOL    HW215681   3.226   3.762   1.750  0.0511  0.0178 -0.3943
 4928SOL     OW15682   6.549   0.380   6.851  0.2598  0.0181  0.0986
 4928SOL    HW115683   6.514   0.459   6.802  2.2865 -0.0992 -1.6795
 4928SOL    HW215684   6.642   0.399   6.885  1.6123 -2.1342 -2.0803
 4929SOL     OW15685   5.226   2.587   4.812 -0.2002  0.1273  0.4851
 4929SOL    HW115686   5.187   2.513   4.867  0.0456 -0.2715  0.1359
 4929SOL    HW215687   5.230   2.671   4.866 -2.0588  0.3343  0.3525
 4930SOL     OW15688   6.667   2.976   1.102  0.2025 -0.0978  0.5225
 4930SOL    HW115689   6.582   2.936   1.134 -0.0365  0.0624  0.0962
 4930SOL    HW215690   6.668   3.074   1.122 -0.5810  0.3071 -1.1999
 4931SOL     OW15691   4.032   0.046   0.671  0.4441 -0.0115  0.0365
 4931SOL    HW115692   4.093   0.093   0.736 -0.4173  1.1371  0.0557
 4931SOL    HW215693   3.959   0.109   0.643  0.3064 -0.7611 -1.3961
 4932SOL     OW15694   4.618   2.520   2.161 -0.3375 -0.0565 -0.4944
 4932SOL    HW115695   4.670   2.459   2.101 -1.9817 -1.2919 -0.7416
 4932SOL    HW215696   4.520   2.506   2.146 -0.7766  2.1033  0.0315
 4933SOL     OW15697   5.378   6.860   4.874  0.3912 -0.1731 -0.0652
 4933SOL    HW115698   5.334   6.786   4.926 -0.7787  0.5993  0.0788
 4933SOL    HW215699   5.423   6.923   4.937  2.1922 -1.2122 -0.2348
 4934SOL     OW15700   1.048   5.375   0.249 -0.1991 -0.4628 -0.3983
 4934SOL    HW115701   1.057   5.474   0.248  1.4241 -0.5771  0.4375
 4934SOL    HW215702   1.026   5.344   0.342  0.9885 -0.9971 -0.2826
 4935SOL     OW15703   1.886   3.049   0.415  0.9918 -0.2452 -0.7479
 4935SOL    HW115704   1.918   2.971   0.468  0.7130  0.6034  0.7269
 4935SOL    HW215705   1.897   3.030   0.317  0.8141 -2.1546 -0.4311
 4936SOL     OW15706   4.980   4.832   1.526 -0.8408  0.3999  0.6050
 4936SOL    HW115707   5.016   4.912   1.574 -0.2098  0.8799 -0.6276
 4936SOL    HW215708   4.890   4.854   1.488 -0.2592  0.8627 -0.5436
 4937SOL     OW15709   5.730   3.352   6.509 -0.2022  0.6894  0.6236
 4937SOL    HW115710   5.648   3.376   6.457 -1.2140 -1.0298  1.3415
 4937SOL    HW215711   5.799   3.316   6.446 -0.5813  0.7017  0.1905
 4938SOL     OW15712   3.381   3.258   0.916  0.0590  0.4605 -0.2202
 4938SOL    HW115713   3.358   3.332   0.853 -0.1484 -0.0697 -0.7771
 4938SOL    HW215714   3.310   3.251   0.986  0.1359  0.8539 -0.0975
 4939SOL     OW15715   1.366   6.777   2.524  0.3211  0.3415 -0.1642
 4939SOL    HW115716   1.377   6.874   2.548  0.4557  0.6016 -1.2264
 4939SOL    HW215717   1.269   6.756   2.514  0.2122  0.0510  1.2431
 4940SOL     OW15718   2.186   1.539   6.170  0.2530 -0.3592 -1.0411
 4940SOL    HW115719   2.146   1.578   6.253 -1.2032  1.2123 -2.4122
 4940SOL    HW215720   2.178   1.440   6.173  0.6240 -0.3768  0.8636
 4941SOL     OW15721   3.958   2.376   5.314 -0.4698  0.4350  0.3801
 4941SOL    HW115722   4.012   2.460   5.306  0.8591 -0.5522 -1.5643
 4941SOL    HW215723   3.861   2.400   5.321  0.0319  2.2143  3.1023
 4942SOL     OW15724   0.716   1.790   3.235  0.3615  0.5666 -0.4771
 4942SOL    HW115725   0.774   1.854   3.185 -0.7728  0.9959 -1.2749
 4942SOL    HW215726   0.773   1.734   3.295  1.5530  1.2067 -0.9726
 4943SOL     OW15727   3.894   1.055   0.833  0.2627  0.3657  0.0531
 4943SOL    HW115728   3.895   1.139   0.888  0.9644 -0.5251  1.4611
 4943SOL    HW215729   3.952   0.986   0.876 -0.4229 -0.9128 -0.9926
 4944SOL     OW15730   6.662   4.843   6.152  0.2237  0.8413 -0.5001
 4944SOL    HW115731   6.739   4.902   6.176  0.3004  0.4805  0.1678
 4944SOL    HW215732   6.593   4.896   6.101  0.1074  1.6106  0.4400
 4945SOL     OW15733   3.077   0.801   4.620  0.5324  0.2186 -0.3706
 4945SOL    HW115734   3.106   0.723   4.565 -1.3056 -0.4289 -0.4919
 4945SOL    HW215735   3.040   0.873   4.559 -0.5989 -0.1000 -0.0864
 4946SOL     OW15736   4.186   6.286   1.216 -0.2923 -0.6447  0.6342
 4946SOL    HW115737   4.152   6.215   1.155 -2.6915 -0.8997  2.1382
 4946SOL    HW215738   4.169   6.376   1.176  1.1453 -0.8136 -0.4669
 4947SOL     OW15739   0.260   1.295   0.118  0.2698  0.3858 -0.1870
 4947SOL    HW115740   0.214   1.356   0.053 -1.2363 -0.8265 -0.3093
 4947SOL    HW215741   0.267   1.204   0.079 -1.2308 -0.5352  1.5453
 4948SOL     OW15742   1.460   2.256   3.197 -0.0448  0.1025 -0.5415
 4948SOL    HW115743   1.534   2.219   3.141  0.9659 -0.1600  0.9167
 4948SOL    HW215744   1.489   2.343   3.237  0.1608 -0.8040  1.3921
 4949SOL     OW15745   6.636   5.273   6.075 -0.1354  0.1490  0.1746
 4949SOL    HW115746   6.576   5.249   6.151 -2.5959  0.5237 -1.5490
 4949SOL    HW215747   6.634   5.372   6.060 -0.1179  0.0224 -0.7187
 4950SOL     OW15748   4.847   4.007   5.071 -0.1433 -0.0093 -0.0329
 4950SOL    HW115749   4.838   3.927   5.011  2.5643  0.5238 -1.2996
 4950SOL    HW215750   4.778   4.075   5.046  1.1123  0.3597 -2.9163
 4951SOL     OW15751   1.835   5.509   3.490 -0.6371 -0.2439  0.0095
 4951SOL    HW115752   1.807   5.601   3.518 -0.1123  0.5007 -1.7554
 4951SOL    HW215753   1.918   5.484   3.539 -0.4203  0.5046  0.0494
 4952SOL     OW15754   0.929   1.715   6.143 -0.0831 -0.3273 -0.4314
 4952SOL    HW115755   0.954   1.699   6.047  0.2730  0.2544 -0.4354
 4952SOL    HW215756   0.990   1.663   6.202 -1.1312 -1.7540 -0.5442
 4953SOL     OW15757   2.012   1.865   3.505  0.1909 -0.1536 -0.0410
 4953SOL    HW115758   2.107   1.896   3.507  0.7441 -1.6684 -1.1919
 4953SOL    HW215759   1.999   1.793   3.574  0.0777 -0.4674 -0.3882
 4954SOL     OW15760   2.935   3.834   6.520 -0.0383 -0.5185  0.0024
 4954SOL    HW115761   3.020   3.780   6.525 -0.3716 -0.9821  0.8419
 4954SOL    HW215762   2.953   3.919   6.472  0.0730 -2.2074 -3.2605
 4955SOL     OW15763   3.170   4.999   1.435 -0.4254  0.0263 -0.0915
 4955SOL    HW115764   3.112   4.925   1.469 -0.5650 -1.6313 -3.4734
 4955SOL    HW215765   3.266   4.972   1.444 -0.4484 -0.2187 -0.5268
 4956SOL     OW15766   1.804   2.657   5.183  0.9446 -0.3668  0.0453
 4956SOL    HW115767   1.779   2.743   5.139  1.3887 -0.6093 -0.6856
 4956SOL    HW215768   1.770   2.580   5.129  0.0188 -0.6635  1.0060
 4957SOL     OW15769   6.099   4.546   5.974 -0.0456 -0.1451 -0.1533
 4957SOL    HW115770   6.064   4.503   5.891  1.3625 -0.8072 -0.4266
 4957SOL    HW215771   6.067   4.495   6.054  0.3418 -0.8002 -0.4053
 4958SOL     OW15772   4.198   6.465   6.628  0.1748  0.0195 -0.1391
 4958SOL    HW115773   4.250   6.418   6.557 -1.1432  0.1522 -1.2419
 4958SOL    HW215774   4.102   6.437   6.622 -0.9635  3.7034 -1.6672
 4959SOL     OW15775   6.823   2.116   1.239  0.3156 -0.2579  0.1348
 4959SOL    HW115776   6.829   2.215   1.225 -0.0480 -0.3408 -0.6202
 4959SOL    HW215777   6.903   2.085   1.291  1.1657  0.2212 -0.8423
 4960SOL     OW15778   6.006   4.875   4.673  0.3096 -0.8653  0.2581
 4960SOL    HW115779   6.079   4.907   4.612  1.4492 -1.9425  0.9946
 4960SOL    HW215780   5.957   4.800   4.629 -0.0260 -0.4798 -0.0321
 4961SOL     OW15781   2.644   2.572   1.258  0.0645 -0.5260  0.5683
 4961SOL    HW115782   2.598   2.485   1.279  0.4443 -0.6061  1.0919
 4961SOL    HW215783   2.738   2.554   1.228  0.6918 -0.2439  2.2198
 4962SOL     OW15784   1.565   6.706   0.747  0.1595  0.0927  0.2529
 4962SOL    HW115785   1.652   6.675   0.709  0.5146  1.8544 -0.4710
 4962SOL    HW215786   1.492   6.691   0.680  0.2364  0.3387  0.1141
 4963SOL     OW15787   5.584   6.034   0.246  0.2530 -0.0241  0.0103
 4963SOL    HW115788   5.501   5.982   0.223  1.1627 -1.7452  0.4261
 4963SOL    HW215789   5.661   5.998   0.192  0.8542  1.1417  0.0723
 4964SOL     OW15790   1.193   3.282   3.007  0.2180  0.4053 -0.0615
 4964SOL    HW115791   1.211   3.380   3.009  2.6942  0.0031  0.4880
 4964SOL    HW215792   1.112   3.261   3.061 -0.4094  2.1314 -0.2836
 4965SOL     OW15793   2.999   0.338   3.729  0.2683  0.1909  0.2576
 4965SOL    HW115794   3.095   0.361   3.741  0.9598 -0.5095 -2.9259
 4965SOL    HW215795   2.988   0.238   3.731 -0.1398  0.2057 -0.7178
 4966SOL     OW15796   6.310   6.829   4.953 -0.1888 -0.3689  0.2148
 4966SOL    HW115797   6.242   6.891   4.914 -2.0239 -1.8110  0.9707
 4966SOL    HW215798   6.283   6.805   5.047  1.7023 -0.5416  0.7570
 4967SOL     OW15799   3.845   6.205   3.699  0.2006  0.3591 -0.0233
 4967SOL    HW115800   3.933   6.162   3.717 -0.0595 -0.3067 -0.3485
 4967SOL    HW215801   3.852   6.303   3.718  1.1849  0.4250 -0.6470
 4968SOL     OW15802   5.473   3.552   3.394 -0.5288  0.4909 -0.2584
 4968SOL    HW115803   5.454   3.470   3.447  1.5356  0.3779  0.3811
 4968SOL    HW215804   5.438   3.632   3.443  1.0638  0.3562  1.1875
 4969SOL     OW15805   0.800   0.910   4.282 -0.1284 -0.3617  0.3276
 4969SOL    HW115806   0.864   0.931   4.207 -0.9413 -0.9313 -0.5560
 4969SOL    HW215807   0.814   0.975   4.357  0.5371  0.3964 -0.4272
 4970SOL     OW15808   2.070   2.205   2.159  0.6726 -0.3261 -0.2234
 4970SOL    HW115809   2.154   2.223   2.210  2.0514 -2.0818 -1.7458
 4970SOL    HW215810   2.063   2.269   2.083  0.3569  0.1242  0.1760
 4971SOL     OW15811   6.917   5.916   3.760 -0.4949 -0.3420 -0.4589
 4971SOL    HW115812   6.938   5.840   3.822 -3.4696 -0.6330  0.3864
 4971SOL    HW215813   6.924   6.003   3.809  0.0277 -0.3104 -0.5831
 4972SOL     OW15814   6.724   5.497   1.231 -0.0233  0.4602 -0.1219
 4972SOL    HW115815   6.655   5.564   1.260 -0.4035  0.1033 -0.1914
 4972SOL    HW215816   6.680   5.408   1.217  0.3589  0.3605 -0.6967
 4973SOL     OW15817   6.455   3.043   6.946 -0.1217  0.0188  0.1379
 4973SOL    HW115818   6.367   3.001   6.969  0.4367 -0.7010  1.0397
 4973SOL    HW215819   6.439   3.128   6.894 -1.3362 -0.1003  0.2818
 4974SOL     OW15820   4.076   6.718   5.110  0.0990 -0.3331  0.1796
 4974SOL    HW115821   4.035   6.667   5.185  1.0305 -1.8235 -0.2763
 4974SOL    HW215822   4.163   6.676   5.085  0.2308  0.6639 -1.1513
 4975SOL     OW15823   6.413   3.910   1.774 -0.1879  0.0743 -0.5116
 4975SOL    HW115824   6.383   3.934   1.867 -1.8457 -0.0421 -0.9839
 4975SOL    HW215825   6.503   3.868   1.778  0.3565  1.3027  0.9090
 4976SOL     OW15826   3.217   6.832   4.313  0.4947 -0.1061  0.1273
 4976SOL    HW115827   3.157   6.755   4.293 -0.5524  0.2249  1.7878
 4976SOL    HW215828   3.301   6.799   4.357 -1.0117 -0.2154  3.1512
 4977SOL     OW15829   1.133   3.014   5.054 -0.7727  0.0977  0.1566
 4977SOL    HW115830   1.108   3.013   4.957  1.4279  0.0996 -0.4508
 4977SOL    HW215831   1.189   2.934   5.075 -0.8778  0.3111  1.3573
 4978SOL     OW15832   5.390   5.187   4.741  0.4242  0.1400  0.3863
 4978SOL    HW115833   5.457   5.120   4.771  0.6851  0.6599  0.9988
 4978SOL    HW215834   5.403   5.207   4.644  1.9548  1.1141  0.7507
 4979SOL     OW15835   1.740   0.517   1.174  0.2725  0.1935  0.1070
 4979SOL    HW115836   1.786   0.576   1.107  1.1172 -1.1417 -0.5346
 4979SOL    HW215837   1.653   0.557   1.199 -0.0230  0.8004 -1.7242
 4980SOL     OW15838   0.179   1.965   4.195 -0.5390 -0.1015  0.0868
 4980SOL    HW115839   0.230   1.879   4.200 -1.8254 -0.8359  1.1689
 4980SOL    HW215840   0.126   1.967   4.110  0.5482  0.2550 -0.5988
 4981SOL     OW15841   4.861   6.509   3.808 -0.2448 -0.3095 -0.5087
 4981SOL    HW115842   4.767   6.541   3.801 -0.6201 -1.4086 -0.7605
 4981SOL    HW215843   4.890   6.472   3.720  0.8876  1.1906 -0.8058
 4982SOL     OW15844   5.519   2.650   4.157 -0.6306 -0.3964 -0.2554
 4982SOL    HW115845   5.479   2.727   4.107 -0.4215  1.0131  1.6511
 4982SOL    HW215846   5.544   2.578   4.092 -0.6995  1.1751 -2.1172
 4983SOL     OW15847   6.575   4.299   3.543  0.4535 -0.4990 -0.2225
 4983SOL    HW115848   6.627   4.302   3.458  0.7846 -0.8651 -0.0288
 4983SOL    HW215849   6.479   4.280   3.522  1.0581 -4.1184 -0.3116
 4984SOL     OW15850   0.022   3.469   4.973  0.2846 -0.3674 -0.6418
 4984SOL    HW115851   0.087   3.515   5.033  1.0809 -0.6540 -1.2616
 4984SOL    HW215852  -0.071   3.499   4.994  0.5383 -0.5321  0.7810
 4985SOL     OW15853   4.679   1.682   2.916 -0.3680  0.1306  0.2616
 4985SOL    HW115854   4.697   1.711   2.822  1.7993  1.2954  0.9692
 4985SOL    HW215855   4.621   1.750   2.961 -2.0252 -0.7891 -0.3778
 4986SOL     OW15856   1.266   5.845   1.527 -0.8598 -0.1248 -0.4191
 4986SOL    HW115857   1.332   5.911   1.492  0.4044 -0.4223  1.2654
 4986SOL    HW215858   1.313   5.763   1.558 -2.0699 -0.5701  0.3394
 4987SOL     OW15859   2.197   3.945   2.448  0.3355 -0.1744 -0.8584
 4987SOL    HW115860   2.242   3.857   2.430 -0.2190 -0.5238 -0.5506
 4987SOL    HW215861   2.107   3.946   2.405  1.3899  1.2882 -3.1999
 4988SOL     OW15862   0.089   4.764   3.458  0.4378 -0.2651  0.0134
 4988SOL    HW115863   0.068   4.859   3.483 -0.2770 -0.5221  0.4081
 4988SOL    HW215864   0.126   4.717   3.538 -1.6458 -1.0293  0.5750
 4989SOL     OW15865   1.081   0.348   3.739  0.3925 -0.1665  0.0338
 4989SOL    HW115866   1.099   0.279   3.669 -0.1660 -0.7374  0.4433
 4989SOL    HW215867   0.991   0.389   3.723  1.1198  1.2062 -0.7988
 4990SOL     OW15868   6.576   1.358   6.267  0.5424 -0.8752 -0.0974
 4990SOL    HW115869   6.538   1.449   6.255  1.7920  0.0090  2.0833
 4990SOL    HW215870   6.503   1.295   6.297 -0.5614 -0.9610 -2.6446
 4991SOL     OW15871   1.671   5.639   0.440 -0.5076  0.5926 -0.0931
 4991SOL    HW115872   1.727   5.589   0.374 -2.1236 -0.2231 -0.9135
 4991SOL    HW215873   1.659   5.733   0.410 -2.5125 -0.1632 -1.8767
 4992SOL     OW15874   1.742   3.967   4.894  0.4519  0.4450 -0.2211
 4992SOL    HW115875   1.656   3.977   4.843  0.2370  0.1671  0.0865
 4992SOL    HW215876   1.818   3.958   4.829  0.4388  2.0565 -0.5215
 4993SOL     OW15877   4.237   5.305   4.803 -0.9204 -0.0622  0.0383
 4993SOL    HW115878   4.251   5.264   4.713  1.8808  2.6489 -0.9383
 4993SOL    HW215879   4.200   5.397   4.792 -2.0774 -0.2714  1.8168
 4994SOL     OW15880   3.007   6.147   5.270  0.0176 -0.2527  0.4361
 4994SOL    HW115881   3.061   6.230   5.257 -2.0105  1.0208 -0.4250
 4994SOL    HW215882   3.020   6.086   5.191  1.0626 -0.5186  0.7963
 4995SOL     OW15883   0.925   1.620   4.780 -0.1115 -0.1502  0.0891
 4995SOL    HW115884   0.892   1.526   4.792 -0.9113 -0.2353 -2.3348
 4995SOL    HW215885   1.021   1.619   4.752  0.2867 -0.1474  1.3789
 4996SOL     OW15886   6.449   1.389   2.625 -0.0435  0.1102  0.0286
 4996SOL    HW115887   6.405   1.363   2.711 -0.7468  1.5103  0.1178
 4996SOL    HW215888   6.401   1.467   2.585  2.4577  1.8363  0.1918
 4997SOL     OW15889   3.417   0.675   2.064  0.2001 -0.3362  0.2980
 4997SOL    HW115890   3.475   0.602   2.029  1.0346 -0.6836  2.2299
 4997SOL    HW215891   3.377   0.647   2.151 -1.4429  0.6119 -0.1122
 4998SOL     OW15892   0.865   4.887   5.781 -0.3481  0.3878  0.0848
 4998SOL    HW115893   0.869   4.957   5.710  0.9741  0.0811 -0.1727
 4998SOL    HW215894   0.928   4.910   5.855  0.4992 -0.7755 -0.2510
 4999SOL     OW15895   0.448   2.001   5.686  0.3447 -0.7019  0.4682
 4999SOL    HW115896   0.496   1.944   5.753  1.8602  0.7511  0.6843
 4999SOL    HW215897   0.432   1.947   5.603  1.9504 -1.4092  0.5639
 5000SOL     OW15898   0.792   5.397   4.334 -0.4016  0.4884  0.1238
 5000SOL    HW115899   0.890   5.417   4.343 -0.6449  1.3832  0.8826
 5000SOL    HW215900   0.759   5.356   4.418 -0.9065  1.1553  0.2521
 5001SOL     OW15901   1.013   5.238   5.464 -0.1620  0.0880 -0.3604
 5001SOL    HW115902   1.007   5.338   5.470 -0.6864  0.0850 -0.7057
 5001SOL    HW215903   0.930   5.198   5.505  0.4834 -0.2454  0.6579
 5002SOL     OW15904   0.802   4.273   4.499 -0.0456 -0.1796  0.3015
 5002SOL    HW115905   0.771   4.227   4.416 -1.6170  0.6546  0.3969
 5002SOL    HW215906   0.892   4.238   4.524  0.0755 -1.0764 -1.2497
 5003SOL     OW15907   2.991   6.758   2.253 -0.2646 -0.1666 -0.4648
 5003SOL    HW115908   2.979   6.735   2.349 -0.7264 -0.2162 -0.5290
 5003SOL    HW215909   3.088   6.763   2.231 -0.1572 -0.8103 -0.1503
 5004SOL     OW15910   5.243   0.046   0.205 -0.2514  0.1070 -0.3027
 5004SOL    HW115911   5.295   0.051   0.291 -0.2311  3.4668 -0.3684
 5004SOL    HW215912   5.147   0.029   0.226 -0.5154  2.2924  0.6439
 5005SOL     OW15913   1.836   2.306   0.628  0.3088  0.4378 -0.3082
 5005SOL    HW115914   1.823   2.209   0.649  1.4214  0.1095 -1.0370
 5005SOL    HW215915   1.815   2.323   0.531 -1.5021  1.2772  0.1832
 5006SOL     OW15916   5.407   1.276   3.662  0.3164 -0.3007 -0.5353
 5006SOL    HW115917   5.312   1.270   3.631 -0.6070 -0.7047  2.1119
 5006SOL    HW215918   5.420   1.360   3.716  1.2770 -0.5813 -0.3059
 5007SOL     OW15919   0.838   5.660   1.692 -0.1786  0.2298 -0.1082
 5007SOL    HW115920   0.868   5.621   1.779 -1.5725  1.7133  1.0935
 5007SOL    HW215921   0.839   5.589   1.622 -0.0484 -1.2666  1.3461
 5008SOL     OW15922   6.607   0.627   5.369  0.9216 -0.2620  0.2788
 5008SOL    HW115923   6.657   0.589   5.291 -0.8918  0.1886 -1.1851
 5008SOL    HW215924   6.578   0.552   5.429  0.8933 -0.8085 -0.3992
 5009SOL     OW15925   2.078   3.411   0.548 -0.6821  0.1773  0.2838
 5009SOL    HW115926   2.016   3.456   0.612 -2.1849 -3.2495  1.4525
 5009SOL    HW215927   2.026   3.367   0.475  0.8739  2.0915 -2.1337
 5010SOL     OW15928   5.218   3.316   1.723 -0.3900  0.2553  0.8132
 5010SOL    HW115929   5.284   3.276   1.660 -1.8320 -4.7635  2.0248
 5010SOL    HW215930   5.137   3.347   1.672  0.4154  0.8251 -0.1499
 5011SOL     OW15931   1.322   1.294   1.092 -0.5938 -0.0741 -0.1327
 5011SOL    HW115932   1.415   1.292   1.128 -0.3897 -0.5694 -0.6767
 5011SOL    HW215933   1.315   1.232   1.015 -0.9557  1.1557 -1.1310
 5012SOL     OW15934   6.539   2.795   6.227 -0.1825  0.6660 -0.1088
 5012SOL    HW115935   6.512   2.744   6.309 -2.0433  0.5804 -0.7103
 5012SOL    HW215936   6.456   2.822   6.177  0.9105 -0.5994 -2.7578
 5013SOL     OW15937   7.024   6.657   5.056 -0.1504  0.4549 -0.4745
 5013SOL    HW115938   7.027   6.699   4.965  1.9148  1.0151 -0.1932
 5013SOL    HW215939   7.026   6.728   5.126 -2.2469  0.0518  0.0664
 5014SOL     OW15940   0.254   4.727   4.312 -0.4505  0.2473  0.2440
 5014SOL    HW115941   0.235   4.690   4.402 -0.4222  0.9225  0.5322
 5014SOL    HW215942   0.352   4.717   4.292 -0.4412  0.1738  0.3284
 5015SOL     OW15943   5.619   4.910   6.228 -0.3309 -0.0024 -0.6509
 5015SOL    HW115944   5.526   4.879   6.248 -0.2866 -0.7299 -1.5199
 5015SOL    HW215945   5.633   4.912   6.129 -0.0244  1.9339 -0.6086
 5016SOL     OW15946   1.210   1.245   5.186 -0.1440 -0.0887  0.1273
 5016SOL    HW115947   1.188   1.311   5.257 -1.0742  0.3072 -0.5124
 5016SOL    HW215948   1.222   1.155   5.228 -1.8242 -0.0940  0.6896
 5017SOL     OW15949   1.503   3.574   2.125 -0.5452 -0.2953  0.2356
 5017SOL    HW115950   1.555   3.506   2.178  1.2907  0.5961 -0.3311
 5017SOL    HW215951   1.518   3.558   2.027 -3.4087 -1.5434 -0.0964
 5018SOL     OW15952   0.974   1.041   6.892 -0.0859  0.2067  0.6526
 5018SOL    HW115953   1.047   1.053   6.958 -0.3359  1.5560  0.7135
 5018SOL    HW215954   1.003   0.977   6.821  0.9999  0.4262  0.8835
 5019SOL     OW15955   0.762   3.316   3.714 -0.8304  0.2382 -0.0505
 5019SOL    HW115956   0.685   3.366   3.752  0.4339  2.0905  0.2016
 5019SOL    HW215957   0.791   3.360   3.629 -0.3644 -0.7586 -0.4249
 5020SOL     OW15958   3.076   0.569   3.354  0.3579 -0.5624  0.5831
 5020SOL    HW115959   3.140   0.617   3.414  0.0725  0.3314  0.1858
 5020SOL    HW215960   3.006   0.523   3.410  1.3759 -1.6145  1.0213
 5021SOL     OW15961   3.472   0.858   2.496  0.3291  0.0303 -0.2599
 5021SOL    HW115962   3.493   0.933   2.434  1.0134  0.9032  0.9999
 5021SOL    HW215963   3.553   0.800   2.506  0.6349  0.6124  0.7769
 5022SOL     OW15964   0.457   2.767   1.349  0.4682  0.1443  0.1062
 5022SOL    HW115965   0.526   2.706   1.309  0.5584  0.6442 -0.5028
 5022SOL    HW215966   0.427   2.833   1.280  1.0455  1.3872  1.0172
 5023SOL     OW15967   0.475   4.162   3.347 -0.0089  0.1882 -0.0621
 5023SOL    HW115968   0.477   4.259   3.323  0.4056  0.3807  0.7176
 5023SOL    HW215969   0.517   4.109   3.273  1.4025  0.7829  0.2752
 5024SOL     OW15970   4.036   3.610   0.233  0.0468 -0.2331  0.2609
 5024SOL    HW115971   3.988   3.523   0.247 -1.6953  0.7219  0.4246
 5024SOL    HW215972   4.103   3.623   0.306 -1.0209 -0.5514  1.3203
 5025SOL     OW15973   4.521   1.122   5.642  0.2456  0.2999  0.5129
 5025SOL    HW115974   4.465   1.134   5.724 -0.2364 -0.3281  0.2855
 5025SOL    HW215975   4.494   1.038   5.595  1.7540 -0.3179  0.6878
 5026SOL     OW15976   6.839   6.838   5.687 -0.1885 -0.3075 -0.2289
 5026SOL    HW115977   6.811   6.827   5.782 -1.9818 -4.6220 -1.0315
 5026SOL    HW215978   6.769   6.891   5.639 -1.1988 -1.2496  0.1547
 5027SOL     OW15979   4.712   0.873   1.650 -0.3926 -0.4645  0.0555
 5027SOL    HW115980   4.699   0.874   1.749 -2.2247 -0.2561 -0.1524
 5027SOL    HW215981   4.665   0.794   1.611 -1.3770  0.5271 -0.8281
 5028SOL     OW15982   1.804   1.989   3.357  0.2575 -0.5420  0.0168
 5028SOL    HW115983   1.837   1.956   3.446 -2.7884  0.2680  1.6021
 5028SOL    HW215984   1.761   1.914   3.308  3.0902 -1.3118 -1.5113
 5029SOL     OW15985   5.037   3.507   2.040  0.4131 -0.1793 -0.0665
 5029SOL    HW115986   5.004   3.543   2.127  0.6594  1.1646 -0.5080
 5029SOL    HW215987   5.056   3.410   2.050 -1.9123 -0.6224  0.6990
 5030SOL     OW15988   5.821   2.018   6.754 -0.0311  0.2159  0.1696
 5030SOL    HW115989   5.901   2.037   6.812 -0.3978 -1.2591  1.2167
 5030SOL    HW215990   5.809   2.093   6.689  1.9619  0.6683  0.2425
 5031SOL     OW15991   0.439   6.363   1.682  0.4148  0.4792 -0.0684
 5031SOL    HW115992   0.460   6.350   1.779 -1.9018  2.0217  0.7180
 5031SOL    HW215993   0.478   6.450   1.650 -1.0838  1.2947  0.2561
 5032SOL     OW15994   4.713   2.639   6.653  0.2440  0.2041 -0.1899
 5032SOL    HW115995   4.753   2.729   6.669  2.3332 -1.1555  3.1595
 5032SOL    HW215996   4.729   2.613   6.557  0.8733  2.7195 -0.8620
 5033SOL     OW15997   4.068   0.614   5.130 -0.2254  0.1350  0.8649
 5033SOL    HW115998   3.981   0.654   5.099  0.1836  0.0745 -0.4444
 5033SOL    HW215999   4.051   0.523   5.167 -0.4206 -1.2147 -2.2609
 5034SOL     OW16000   4.420   4.869   3.331  0.0793  0.4167 -0.5332
 5034SOL    HW116001   4.430   4.898   3.235  0.7167  0.7892 -0.3625
 5034SOL    HW216002   4.337   4.910   3.369 -0.9561 -0.8729 -1.3272
 5035SOL     OW16003   1.151   2.149   3.460  0.4218 -0.0615 -0.6973
 5035SOL    HW116004   1.188   2.230   3.507  1.7929 -0.8197 -0.4085
 5035SOL    HW216005   1.091   2.179   3.386  0.9139  1.2329 -0.6087
 5036SOL     OW16006   0.683   3.898   6.127  0.4810 -0.2617  0.1722
 5036SOL    HW116007   0.601   3.848   6.157  0.1034  0.0199 -0.3546
 5036SOL    HW216008   0.749   3.834   6.088 -0.2509 -0.3145 -1.0503
 5037SOL     OW16009   4.883   6.787   0.165 -0.3405 -0.0140 -0.3062
 5037SOL    HW116010   4.915   6.822   0.077  1.1595  2.3047  1.0863
 5037SOL    HW216011   4.817   6.851   0.204  1.9327  1.1124  1.9828
 5038SOL     OW16012   3.396   4.069   3.875  0.3067 -0.1060 -0.1921
 5038SOL    HW116013   3.397   4.098   3.779 -0.3673 -2.2961 -0.9129
 5038SOL    HW216014   3.305   4.082   3.913  0.8930  2.0398  0.6344
 5039SOL     OW16015   5.886   5.570   6.947  0.1895  0.1687 -0.4099
 5039SOL    HW116016   5.793   5.581   6.983  0.6372  0.8747  0.5590
 5039SOL    HW216017   5.938   5.510   7.007  0.4773  0.0667 -0.7556
 5040SOL     OW16018   6.225   0.264   5.027 -0.7959  0.6517 -0.3109
 5040SOL    HW116019   6.197   0.302   5.116  1.2117 -0.4079  0.8436
 5040SOL    HW216020   6.323   0.246   5.028 -0.9623 -0.6257 -2.2891
 5041SOL     OW16021   0.540   1.032   1.910 -0.1920 -0.6106  0.1500
 5041SOL    HW116022   0.492   1.091   1.845 -0.2484 -0.7674  0.0464
 5041SOL    HW216023   0.572   0.950   1.862  2.3992  0.6106 -0.3902
 5042SOL     OW16024   6.088   3.040   4.488  0.9111 -0.2372  0.1276
 5042SOL    HW116025   6.055   2.970   4.552 -0.1782 -0.6626 -0.8789
 5042SOL    HW216026   6.137   2.997   4.413  2.6242  0.3002  0.8798
 5043SOL     OW16027   4.945   6.588   2.068 -0.2800 -0.1839  0.0607
 5043SOL    HW116028   4.874   6.591   2.139  0.2612  1.9238  0.5767
 5043SOL    HW216029   4.922   6.653   1.996  1.5441  1.1703  0.6588
 5044SOL     OW16030   6.203   5.355   0.500  0.1197  0.7477  0.1837
 5044SOL    HW116031   6.262   5.281   0.534 -1.0149  0.5407  1.7744
 5044SOL    HW216032   6.221   5.439   0.551 -0.4426  0.8769  0.1788
 5045SOL     OW16033   0.358   2.195   1.092  0.8314 -0.4119  0.2292
 5045SOL    HW116034   0.422   2.118   1.103  0.1861 -0.9562  0.2584
 5045SOL    HW216035   0.287   2.169   1.027 -0.6664 -0.6999  1.8785
 5046SOL     OW16036   2.989   3.281   2.550 -0.0048  0.1298  0.1375
 5046SOL    HW116037   3.007   3.311   2.643 -2.0783  0.9815  0.3163
 5046SOL    HW216038   3.034   3.193   2.534  3.0756  1.4319  0.8408
 5047SOL     OW16039   1.578   2.803   5.053 -0.0487 -0.0544 -0.6173
 5047SOL    HW116040   1.484   2.771   5.060  0.1553 -0.2837  2.0686
 5047SOL    HW216041   1.585   2.896   5.090  0.5178  0.5949 -2.2874
 5048SOL     OW16042   2.228   6.351   0.652  0.2980 -0.0420  0.4107
 5048SOL    HW116043   2.237   6.270   0.710 -0.4058  0.2851  0.9758
 5048SOL    HW216044   2.273   6.429   0.695 -0.3959  0.2491  0.6299
 5049SOL     OW16045   3.562   1.188   5.034  0.0332 -0.1225  0.3665
 5049SOL    HW116046   3.517   1.239   4.960  0.1903 -0.9999 -0.3519
 5049SOL    HW216047   3.531   1.093   5.033  0.2561 -0.2159  1.2591
 5050SOL     OW16048   2.632   0.964   1.388 -0.3109 -0.1843 -0.7966
 5050SOL    HW116049   2.727   0.977   1.417 -0.7589  2.7678 -0.3080
 5050SOL    HW216050   2.572   0.961   1.468 -0.7623 -0.7008 -1.1425
 5051SOL     OW16051   3.859   4.420   1.359 -0.0895  0.4124 -0.7164
 5051SOL    HW116052   3.890   4.401   1.452  0.9204  2.5302 -0.5603
 5051SOL    HW216053   3.773   4.472   1.362  0.2347  0.9752 -0.9193
 5052SOL     OW16054   1.759   2.552   4.065  0.1814 -0.1134 -0.8606
 5052SOL    HW116055   1.804   2.598   4.142 -0.2768  1.2047 -1.3538
 5052SOL    HW216056   1.789   2.593   3.980 -1.8169  0.7322 -1.2170
 5053SOL     OW16057   6.605   2.707   1.291 -0.2267  0.2769  0.2392
 5053SOL    HW116058   6.533   2.671   1.230  0.2459  0.6952 -0.5751
 5053SOL    HW216059   6.568   2.716   1.384 -0.9933 -0.2565 -0.0021
 5054SOL     OW16060   4.687   4.195   4.375  0.3667 -0.1789 -0.1003
 5054SOL    HW116061   4.706   4.227   4.468 -0.3217 -1.5064  0.5275
 5054SOL    HW216062   4.738   4.111   4.357 -1.0358 -1.0393 -0.1739
 5055SOL     OW16063   6.060   4.845   4.106 -0.0638 -0.2173 -0.1904
 5055SOL    HW116064   6.116   4.779   4.157 -1.1617 -1.1161 -0.1091
 5055SOL    HW216065   6.117   4.891   4.039  1.2868  0.5233  1.3825
 5056SOL     OW16066   0.480   2.561   3.558  0.2915 -0.1947  0.3652
 5056SOL    HW116067   0.538   2.568   3.640  0.8350  0.6143 -0.0851
 5056SOL    HW216068   0.459   2.464   3.542  1.1780 -0.4690  0.7687
 5057SOL     OW16069   6.730   6.514   0.815 -0.0992 -0.0573  0.0716
 5057SOL    HW116070   6.765   6.488   0.725 -0.2963 -3.4033  0.8148
 5057SOL    HW216071   6.768   6.603   0.842  2.2001 -0.2900 -2.0973
 5058SOL     OW16072   1.963   4.417   0.064  0.4063 -0.5942  1.1043
 5058SOL    HW116073   2.041   4.418   0.001 -0.5952  0.0803 -0.1642
 5058SOL    HW216074   1.946   4.509   0.097 -0.4441 -0.5533  0.5951
 5059SOL     OW16075   0.479   2.362   1.369  0.3920  0.5851 -0.1662
 5059SOL    HW116076   0.393   2.402   1.401  0.3697 -0.7395  1.5522
 5059SOL    HW216077   0.464   2.320   1.279 -0.7994  0.2249  0.1788
 5060SOL     OW16078   6.025   3.832   6.063 -0.2279  0.1482  0.3748
 5060SOL    HW116079   6.092   3.797   5.999 -0.5538 -0.2238  0.2319
 5060SOL    HW216080   6.063   3.830   6.156  0.2115  0.6083  0.2068
 5061SOL     OW16081   3.945   1.695   0.326  0.6432  0.1341  0.3831
 5061SOL    HW116082   4.040   1.683   0.295  1.1170  3.9008 -0.1625
 5061SOL    HW216083   3.896   1.754   0.262 -1.7796 -0.8306  1.2376
 5062SOL     OW16084   0.235   0.808   1.043 -0.1173  0.5951  0.2874
 5062SOL    HW116085   0.149   0.841   1.006  0.0911 -1.1997 -1.9994
 5062SOL    HW216086   0.216   0.756   1.127 -1.0119  1.7907  0.8566
 5063SOL     OW16087   0.504   4.597   2.232 -0.3753  0.3945  0.7943
 5063SOL    HW116088   0.556   4.611   2.148  0.9893  0.8543  1.6799
 5063SOL    HW216089   0.410   4.573   2.210  0.6400 -2.3930 -0.8845
 5064SOL     OW16090   5.469   4.069   0.818 -0.3723 -0.0371 -0.2524
 5064SOL    HW116091   5.535   4.006   0.776 -2.0194 -1.3740 -0.9146
 5064SOL    HW216092   5.377   4.045   0.790 -1.1739  1.8896  0.5483
 5065SOL     OW16093   1.886   6.779   0.179 -0.6006 -0.3480  0.4973
 5065SOL    HW116094   1.962   6.837   0.150 -2.4391  1.1114 -1.7753
 5065SOL    HW216095   1.838   6.823   0.255 -0.3626 -0.2779  0.6083
 5066SOL     OW16096   3.797   4.666   0.686 -0.2736  0.0397  0.8797
 5066SOL    HW116097   3.721   4.628   0.633 -1.8785  3.0862  0.7265
 5066SOL    HW216098   3.760   4.719   0.762  1.8044  0.2365  1.8018
 5067SOL     OW16099   5.706   2.643   6.265  0.1725  0.3846 -0.4290
 5067SOL    HW116100   5.683   2.661   6.361 -0.5463  1.8272 -0.8461
 5067SOL    HW216101   5.802   2.617   6.258  0.2668  0.3828  0.6585
 5068SOL     OW16102   2.773   3.868   0.009 -0.4183  0.0322  0.0192
 5068SOL    HW116103   2.840   3.876  -0.065  0.0011  1.7605  0.5546
 5068SOL    HW216104   2.807   3.915   0.090 -0.3913 -2.6720  1.7261
 5069SOL     OW16105   4.755   4.630   3.814  0.4068  0.6700 -0.0821
 5069SOL    HW116106   4.729   4.558   3.750 -0.2613  0.4303  0.4453
 5069SOL    HW216107   4.790   4.709   3.763  1.1492 -0.0145 -0.6648
 5070SOL     OW16108   5.020   2.990   4.344  0.5171 -0.7080 -0.2755
 5070SOL    HW116109   4.966   3.006   4.261  0.9947 -1.7719 -0.8216
 5070SOL    HW216110   5.115   2.973   4.318  0.8395 -0.2309  0.5627
 5071SOL     OW16111   4.573   2.050   2.033  0.2329  0.0422  0.3606
 5071SOL    HW116112   4.539   2.009   2.117  0.1150  0.8240  0.7021
 5071SOL    HW216113   4.666   2.018   2.015  0.6660  0.6986  1.3706
 5072SOL     OW16114   0.221   4.594   1.423 -0.6360  0.2889  0.0570
 5072SOL    HW116115   0.126   4.622   1.411 -1.4095 -1.8784  0.6521
 5072SOL    HW216116   0.229   4.539   1.506  1.6893  2.6335  1.5480
 5073SOL     OW16117   3.498   2.087   2.693  0.4943 -0.1871  0.3459
 5073SOL    HW116118   3.566   2.121   2.629  0.9558  0.7806  1.3251
 5073SOL    HW216119   3.447   2.012   2.650  0.3263  0.8515 -1.4006
 5074SOL     OW16120   3.385   0.720   5.012  0.0623 -0.5938  0.2278
 5074SOL    HW116121   3.459   0.662   4.979 -1.0058 -1.7995 -0.1357
 5074SOL    HW216122   3.343   0.767   4.934  1.4211  1.3528  0.5926
 5075SOL     OW16123   0.860   6.453   3.942 -0.2280  0.2399 -0.0948
 5075SOL    HW116124   0.879   6.356   3.957  0.3381  0.3966  0.2508
 5075SOL    HW216125   0.820   6.466   3.851 -1.9432 -0.5143  0.5195
 5076SOL     OW16126   4.997   4.764   0.225 -0.1304  0.2989  0.2191
 5076SOL    HW116127   4.915   4.780   0.170  0.6656 -0.6703 -1.3016
 5076SOL    HW216128   4.972   4.714   0.307 -1.2763  1.3570  0.5568
 5077SOL     OW16129   0.427   3.189   2.752 -0.2710  0.2474 -0.4653
 5077SOL    HW116130   0.457   3.236   2.669  1.2192 -0.7097 -0.5070
 5077SOL    HW216131   0.485   3.109   2.768 -1.0421 -0.0448  1.0659
 5078SOL     OW16132   2.160   1.570   4.466  0.0050  0.0128  0.2247
 5078SOL    HW116133   2.212   1.640   4.418  2.3667 -2.2189 -0.6914
 5078SOL    HW216134   2.110   1.514   4.399 -1.0065  0.1341  0.8558
 5079SOL     OW16135   4.242   4.852   4.226 -0.2393 -0.1292 -0.6071
 5079SOL    HW116136   4.270   4.947   4.218  1.2393 -0.5737 -1.1037
 5079SOL    HW216137   4.199   4.837   4.316 -0.8929  1.0781 -0.6982
 5080SOL     OW16138   4.263   0.701   4.958  0.1465 -0.3999 -0.0662
 5080SOL    HW116139   4.178   0.680   5.005  0.9130 -0.3775  1.4024
 5080SOL    HW216140   4.245   0.763   4.882 -1.0990 -0.0787  0.4681
 5081SOL     OW16141   3.956   3.295   3.356  0.0373 -0.1584 -0.4226
 5081SOL    HW116142   4.020   3.372   3.368  0.1361 -0.2600 -0.2887
 5081SOL    HW216143   3.866   3.330   3.333  0.1851 -0.0193 -0.8121
 5082SOL     OW16144   0.884   1.084   0.838 -0.2060 -0.0666  0.1349
 5082SOL    HW116145   0.939   1.001   0.831  0.8564  0.6263  0.0547
 5082SOL    HW216146   0.931   1.151   0.896 -0.8406  0.6418 -0.1464
 5083SOL     OW16147   0.248   4.770   3.236  0.8321  0.7081  0.1334
 5083SOL    HW116148   0.176   4.778   3.304  1.4347  1.8934  0.6514
 5083SOL    HW216149   0.302   4.854   3.234  2.6073 -0.3741  0.2153
 5084SOL     OW16150   1.916   6.286   0.733  0.1702  0.3896 -0.1129
 5084SOL    HW116151   1.883   6.210   0.790  1.4581  1.1808  1.7861
 5084SOL    HW216152   2.013   6.271   0.711 -0.2364  0.2406 -1.9277
 5085SOL     OW16153   6.233   3.219   5.543  0.0866 -0.4937  0.2013
 5085SOL    HW116154   6.304   3.205   5.613  0.0134  0.1405  0.4063
 5085SOL    HW216155   6.228   3.138   5.485  0.3338 -0.9235  0.7674
 5086SOL     OW16156   1.478   6.259   0.315 -0.5355  0.1076 -0.1324
 5086SOL    HW116157   1.444   6.276   0.408 -0.4407 -0.9921  0.1115
 5086SOL    HW216158   1.577   6.246   0.318 -0.3075  1.5221 -0.6049
 5087SOL     OW16159   0.086   4.200   3.884  0.5078  0.5002 -0.0326
 5087SOL    HW116160   0.108   4.297   3.893  0.3677  0.4557  0.9348
 5087SOL    HW216161   0.152   4.146   3.938  1.3114 -0.0414 -1.5031
 5088SOL     OW16162   5.519   0.963   0.702 -0.4233 -0.5383 -0.2359
 5088SOL    HW116163   5.530   0.875   0.749 -0.8192 -0.2936  0.3220
 5088SOL    HW216164   5.425   0.972   0.671 -0.1852 -0.6619 -1.0209
 5089SOL     OW16165   5.184   1.782   3.701  0.4103  0.1376  0.4550
 5089SOL    HW116166   5.118   1.852   3.725 -0.7854 -1.1175  0.9600
 5089SOL    HW216167   5.166   1.749   3.608  0.2581 -0.2809  0.6320
 5090SOL     OW16168   0.050   5.933   0.827 -0.0959  0.4099 -0.2248
 5090SOL    HW116169   0.001   5.856   0.786 -0.4335  0.5354 -0.0616
 5090SOL    HW216170   0.092   5.904   0.913 -0.8627  0.6029  0.2213
 5091SOL     OW16171   0.462   1.856   3.142 -0.0742 -0.6448 -0.1557
 5091SOL    HW116172   0.537   1.829   3.203  1.0328  0.2144 -1.0831
 5091SOL    HW216173   0.488   1.940   3.093 -0.9926 -1.2261 -1.6999
 5092SOL     OW16174   3.237   2.035   0.651 -0.7219 -0.1432  0.2406
 5092SOL    HW116175   3.249   2.126   0.614  1.0198  0.0047  1.0644
 5092SOL    HW216176   3.247   1.967   0.578  0.6557  0.2321  0.0384
 5093SOL     OW16177   0.852   1.860   6.536  0.3201  0.0321  0.3825
 5093SOL    HW116178   0.937   1.902   6.568 -0.2226 -0.0897  2.0996
 5093SOL    HW216179   0.822   1.792   6.603 -0.0459 -1.4603 -1.2089
 5094SOL     OW16180   0.424   1.705   6.033 -0.2409  0.2618 -0.0801
 5094SOL    HW116181   0.494   1.776   6.036 -0.4377  0.4213  1.2666
 5094SOL    HW216182   0.423   1.655   6.119 -1.3715 -0.1476 -0.3061
 5095SOL     OW16183   2.640   6.437   5.296  0.0797  0.2374  0.1414
 5095SOL    HW116184   2.734   6.410   5.276  0.3566  1.4775 -0.3480
 5095SOL    HW216185   2.639   6.528   5.337 -0.9577  0.8553 -1.1472
 5096SOL     OW16186   4.927   6.516   2.704 -0.0609  0.1665  0.0016
 5096SOL    HW116187   4.994   6.559   2.764 -0.7960  1.7760 -0.2704
 5096SOL    HW216188   4.835   6.533   2.739 -0.3577 -2.5482  0.7175
 5097SOL     OW16189   1.270   7.004   6.165  0.1216  0.1031  0.8483
 5097SOL    HW116190   1.192   7.063   6.145 -0.1457 -0.9033 -1.3218
 5097SOL    HW216191   1.355   7.053   6.149 -0.0985 -0.0735 -1.0780
 5098SOL     OW16192   6.657   1.627   4.116 -0.3079  0.1830 -0.0618
 5098SOL    HW116193   6.650   1.725   4.096 -2.9079  0.3176  1.1238
 5098SOL    HW216194   6.754   1.600   4.118  0.4172  2.2802 -2.2444
 5099SOL     OW16195   0.363   0.467   3.788 -0.0169 -0.1093  0.2811
 5099SOL    HW116196   0.308   0.523   3.851 -0.6982  1.4711 -1.6095
 5099SOL    HW216197   0.430   0.525   3.742 -0.1618 -1.0021 -1.1137
 5100SOL     OW16198   5.368   0.179   5.614  0.1358  0.2777 -0.6556
 5100SOL    HW116199   5.334   0.224   5.531  0.9895  0.3578 -0.9782
 5100SOL    HW216200   5.296   0.178   5.683 -0.1387  1.5236 -0.8817
 5101SOL     OW16201   4.661   6.786   1.510 -0.5567  0.3363  0.1938
 5101SOL    HW116202   4.623   6.743   1.592  1.7498  0.0962  1.2148
 5101SOL    HW216203   4.705   6.717   1.453  0.6987  0.9216  0.4198
 5102SOL     OW16204   5.239   6.165   4.732  0.6934 -0.6182  0.1257
 5102SOL    HW116205   5.191   6.248   4.702  2.8893  1.6567  2.3427
 5102SOL    HW216206   5.335   6.170   4.705  0.6744 -3.0371 -0.6017
 5103SOL     OW16207   1.625   3.040   2.915  0.7176  0.2784  0.4397
 5103SOL    HW116208   1.699   3.102   2.888  0.9476  0.4653  1.4763
 5103SOL    HW216209   1.652   2.990   2.997 -0.3288  0.3648  0.8394
 5104SOL     OW16210   6.835   1.630   2.311  0.2660 -0.1470  0.0433
 5104SOL    HW116211   6.888   1.561   2.361 -0.3629 -0.2590  0.5710
 5104SOL    HW216212   6.764   1.668   2.371 -0.3957 -0.1601 -0.7116
 5105SOL     OW16213   7.018   4.210   4.994  0.0178  0.5088  0.2529
 5105SOL    HW116214   7.096   4.147   4.992  0.1346  0.6629 -0.2254
 5105SOL    HW216215   7.043   4.291   5.047 -0.2835 -0.0328  1.2445
 5106SOL     OW16216   0.589   0.119   1.239 -0.6080 -0.5245  0.2165
 5106SOL    HW116217   0.526   0.150   1.311  0.0577 -2.1531  1.5658
 5106SOL    HW216218   0.671   0.176   1.239 -0.7255 -0.3533  0.5639
 5107SOL     OW16219   2.849   5.985   6.356 -0.1059  0.6191 -0.3324
 5107SOL    HW116220   2.878   6.046   6.429 -1.0720 -1.3822  1.8743
 5107SOL    HW216221   2.926   5.964   6.296  1.3866  0.4301  1.5699
 5108SOL     OW16222   4.327   1.149   4.807  0.5693 -0.4971  0.1075
 5108SOL    HW116223   4.333   1.090   4.887  0.9069 -0.0577  0.4127
 5108SOL    HW216224   4.369   1.237   4.828  0.0485 -0.1388 -0.3364
 5109SOL     OW16225   0.086   0.623   3.021  0.1170  0.2485 -0.0029
 5109SOL    HW116226   0.055   0.718   3.026  0.5573  0.3442  1.5793
 5109SOL    HW216227   0.007   0.562   3.026 -0.1014  0.5306  0.0258
 5110SOL     OW16228   1.750   6.810   6.422  0.1730  0.4777 -0.9711
 5110SOL    HW116229   1.802   6.768   6.497 -0.1676 -1.3120 -1.6787
 5110SOL    HW216230   1.802   6.886   6.384  0.0219  1.9620  1.5511
 5111SOL     OW16231   2.559   6.942   6.955  0.2110  0.0441  0.0480
 5111SOL    HW116232   2.484   6.877   6.968  0.9008 -0.4910  1.6350
 5111SOL    HW216233   2.643   6.902   6.991  0.7805  1.5663  0.4613
 5112SOL     OW16234   1.050   5.829   4.442 -0.1395  0.1241  0.4674
 5112SOL    HW116235   1.100   5.768   4.380 -0.7952 -2.2991  2.1943
 5112SOL    HW216236   1.109   5.856   4.517 -0.2811  0.4646  0.4580
 5113SOL     OW16237   6.712   0.639   0.110  0.4569  0.1342  0.4122
 5113SOL    HW116238   6.744   0.727   0.075 -0.4529  0.6165  0.7510
 5113SOL    HW216239   6.613   0.640   0.117  0.5729  0.1464  3.1189
 5114SOL     OW16240   5.234   5.704   6.025  0.2557 -0.3146  0.1019
 5114SOL    HW116241   5.192   5.695   5.935  2.3342  0.3145 -0.9845
 5114SOL    HW216242   5.295   5.784   6.026  1.2974 -1.0800  1.6391
 5115SOL     OW16243   3.290   4.129   4.759 -0.2153 -0.4064  0.1030
 5115SOL    HW116244   3.347   4.198   4.714 -1.0974  0.0255 -0.3749
 5115SOL    HW216245   3.314   4.038   4.725  0.2637 -0.2396 -0.0086
 5116SOL     OW16246   4.935   3.827   2.855 -0.3960  0.0628 -0.1308
 5116SOL    HW116247   4.962   3.819   2.759  0.4262  0.6556  0.0333
 5116SOL    HW216248   4.918   3.737   2.893  1.5117 -0.3706 -0.2220
 5117SOL     OW16249   3.102   4.366   1.358 -0.1540 -1.0771  0.3711
 5117SOL    HW116250   3.033   4.437   1.343  2.9115  1.8171 -1.4787
 5117SOL    HW216251   3.077   4.312   1.438 -3.6654  0.7980  0.7605
 5118SOL     OW16252   5.974   1.203   1.354 -0.3099 -0.4709  0.3271
 5118SOL    HW116253   5.921   1.276   1.397  0.0988 -0.2702  0.4890
 5118SOL    HW216254   5.964   1.119   1.407 -0.8060 -0.5433  0.1227
 5119SOL     OW16255   5.460   0.262   2.039  0.1368 -0.0687 -0.1439
 5119SOL    HW116256   5.394   0.205   2.088 -0.0816 -1.7503 -2.2755
 5119SOL    HW216257   5.517   0.205   1.980  2.0544  1.6049 -0.0014
 5120SOL     OW16258   3.499   1.571   3.319 -0.4203  0.0727 -0.3601
 5120SOL    HW116259   3.474   1.545   3.226 -1.4587  0.1735 -0.1184
 5120SOL    HW216260   3.505   1.671   3.325  1.6559  0.0146 -0.8061
 5121SOL     OW16261   1.233   4.667   3.601  0.4638 -0.2698  0.2248
 5121SOL    HW116262   1.285   4.748   3.573  1.0383  0.1547  2.3157
 5121SOL    HW216263   1.165   4.694   3.670  1.6729 -1.7292  2.1006
 5122SOL     OW16264   1.641   4.220   2.138  0.3689 -0.1736 -0.3888
 5122SOL    HW116265   1.589   4.237   2.222 -0.8710 -0.4012 -1.0831
 5122SOL    HW216266   1.619   4.129   2.103 -0.5463  0.6080 -1.9296
 5123SOL     OW16267   6.196   3.179   1.181  0.0951 -0.2614  0.2579
 5123SOL    HW116268   6.281   3.168   1.232  0.5977  1.3213 -0.1761
 5123SOL    HW216269   6.152   3.265   1.208 -0.3773 -0.1256 -0.8955
 5124SOL     OW16270   0.640   6.876   0.027  0.3952  0.2141 -0.5242
 5124SOL    HW116271   0.706   6.885   0.101  1.3436  0.6419 -1.3994
 5124SOL    HW216272   0.582   6.958   0.023  2.3038  1.5827 -2.0750
 5125SOL     OW16273   5.853   1.790   1.113 -0.1266  0.3427  0.8634
 5125SOL    HW116274   5.906   1.847   1.050 -0.9316 -0.5981 -0.7251
 5125SOL    HW216275   5.756   1.811   1.105 -0.3162 -0.3524  1.2053
 5126SOL     OW16276   5.167   1.744   0.632  0.4316  0.3794  0.0309
 5126SOL    HW116277   5.173   1.683   0.711  0.3357 -0.4380 -0.5839
 5126SOL    HW216278   5.195   1.836   0.659 -0.1222  0.2396  1.1567
 5127SOL     OW16279   2.857   1.927   0.644 -0.4443 -0.4503 -0.6788
 5127SOL    HW116280   2.769   1.945   0.688 -0.2695  0.7008 -0.7820
 5127SOL    HW216281   2.884   2.006   0.589  1.1868 -0.3564  0.2125
 5128SOL     OW16282   6.764   0.399   0.257  0.1572  0.6687 -0.3817
 5128SOL    HW116283   6.712   0.423   0.340  0.2987  1.1247 -0.4210
 5128SOL    HW216284   6.759   0.475   0.192 -0.4509  0.0707 -1.0441
 5129SOL     OW16285   6.369   1.079   3.171 -0.0576 -0.5795  0.4829
 5129SOL    HW116286   6.282   1.057   3.215  0.7731 -1.9262  1.5123
 5129SOL    HW216287   6.352   1.120   3.081 -1.7367 -0.7456  0.7046
 5130SOL     OW16288   1.945   6.398   5.261 -0.3041 -0.2503 -0.0122
 5130SOL    HW116289   2.030   6.348   5.244  1.0546  1.1407  2.1588
 5130SOL    HW216290   1.912   6.439   5.176  1.7140 -0.0602 -0.7473
 5131SOL     OW16291   2.967   4.770   2.432 -0.1816  0.4511 -0.4211
 5131SOL    HW116292   2.982   4.684   2.481 -1.8818  0.5854  0.4040
 5131SOL    HW216293   2.882   4.764   2.379 -0.1312  1.4922 -0.6343
 5132SOL     OW16294   1.510   1.592   1.785  0.1279  0.0874 -0.1255
 5132SOL    HW116295   1.481   1.621   1.876 -3.1770 -0.2596 -0.9595
 5132SOL    HW216296   1.503   1.492   1.778  1.7082 -0.0337 -0.3867
 5133SOL     OW16297   3.835   4.953   5.985 -0.0910  0.3992  0.1318
 5133SOL    HW116298   3.742   4.936   6.016  0.6646  0.2608  2.5384
 5133SOL    HW216299   3.890   4.987   6.061  1.8759  0.3453 -1.1841
 5134SOL     OW16300   4.745   5.014   1.537 -0.2193 -0.2041  0.2074
 5134SOL    HW116301   4.777   5.078   1.607 -0.6978  0.2441  0.0208
 5134SOL    HW216302   4.669   4.960   1.574  0.7145 -1.2607  0.6471
 5135SOL     OW16303   6.990   3.811   6.563 -0.0962  1.0436 -0.3764
 5135SOL    HW116304   7.067   3.751   6.540 -0.3349  0.5146  0.1503
 5135SOL    HW216305   6.914   3.755   6.598 -0.2574  1.6740  0.3016
 5136SOL     OW16306   1.110   0.639   4.943  0.6151 -0.2176  0.1855
 5136SOL    HW116307   1.143   0.629   4.849 -2.1151  3.0906 -1.3747
 5136SOL    HW216308   1.179   0.687   4.997  0.5286  2.0921 -1.5634
 5137SOL     OW16309   4.486   2.467   3.283 -0.5687 -0.8484 -0.0523
 5137SOL    HW116310   4.543   2.477   3.202  0.6679 -0.4936  0.8174
 5137SOL    HW216311   4.439   2.553   3.301  0.8322 -0.2111  0.7727
 5138SOL     OW16312   3.656   2.964   3.498 -0.2167  0.0880 -0.1646
 5138SOL    HW116313   3.665   2.914   3.584  0.4062 -2.2467 -1.4927
 5138SOL    HW216314   3.745   3.001   3.472 -0.1631 -0.1649 -0.3431
 5139SOL     OW16315   1.052   6.566   5.108  0.3879  0.2208 -0.4811
 5139SOL    HW116316   0.991   6.599   5.180  0.2757 -1.1093  0.0512
 5139SOL    HW216317   1.081   6.644   5.052  0.8458  1.3630  1.2440
 5140SOL     OW16318   2.092   3.909   6.774 -0.0754 -0.4166 -0.1079
 5140SOL    HW116319   2.125   4.003   6.789  0.4965 -0.5668 -0.4064
 5140SOL    HW216320   1.993   3.911   6.757  0.1046  0.2541 -1.2026
 5141SOL     OW16321   1.310   2.750   6.880 -0.4681 -0.3005 -0.0424
 5141SOL    HW116322   1.392   2.761   6.825 -0.2308  0.8767  0.5293
 5141SOL    HW216323   1.286   2.653   6.885  1.6450 -0.8097  0.8794
 5142SOL     OW16324   1.094   5.402   3.488 -0.0740  0.0585  0.1325
 5142SOL    HW116325   1.017   5.466   3.489  0.6852  1.0612  2.3189
 5142SOL    HW216326   1.062   5.311   3.516 -0.3527  0.6835  1.9567
 5143SOL     OW16327   1.131   6.077   3.526 -0.2368  0.2019  0.8815
 5143SOL    HW116328   1.104   6.154   3.583 -1.3670  0.0389  0.5862
 5143SOL    HW216329   1.123   6.102   3.429 -0.8711 -0.3607  0.7804
 5144SOL     OW16330   2.507   2.028   4.623 -0.0483 -0.2940  0.3566
 5144SOL    HW116331   2.581   2.021   4.557  0.4743 -0.3760  0.9402
 5144SOL    HW216332   2.421   2.001   4.580  0.3773 -0.8937 -0.1265
 5145SOL     OW16333   3.801   5.852   6.054  0.0858 -0.2100 -0.2834
 5145SOL    HW116334   3.712   5.830   6.092  0.0574 -0.3030 -0.4030
 5145SOL    HW216335   3.811   5.952   6.046  0.9919 -0.0409  2.1530
 5146SOL     OW16336   5.926   0.526   6.240  0.3188  0.5845 -0.4276
 5146SOL    HW116337   5.985   0.528   6.321  1.4270  1.9129 -1.2310
 5146SOL    HW216338   5.964   0.463   6.173  0.2816  0.6896 -0.5473
 5147SOL     OW16339   5.310   0.657   4.699 -0.2901 -0.2792  0.0478
 5147SOL    HW116340   5.400   0.686   4.732  0.5255  1.4271 -3.3043
 5147SOL    HW216341   5.240   0.686   4.764  1.3413  0.7424  1.4293
 5148SOL     OW16342   3.232   1.458   0.870 -0.3635  0.1967 -0.1525
 5148SOL    HW116343   3.205   1.370   0.910 -1.1105 -0.3454 -1.7958
 5148SOL    HW216344   3.331   1.470   0.881  0.1960 -2.0336 -2.0794
 5149SOL     OW16345   3.821   5.557   4.846  0.2907 -0.2572  0.7468
 5149SOL    HW116346   3.801   5.654   4.829  0.5829 -0.2341  0.5201
 5149SOL    HW216347   3.753   5.501   4.799 -0.6319 -0.1513  1.9179
 5150SOL     OW16348   6.291   0.216   3.668 -0.1149 -0.1164  0.6396
 5150SOL    HW116349   6.278   0.128   3.623 -0.2455 -0.1122  0.6711
 5150SOL    HW216350   6.389   0.239   3.667 -0.3856  1.3777 -2.4862
 5151SOL     OW16351   4.193   5.696   6.392  0.4437  0.0190 -0.5065
 5151SOL    HW116352   4.131   5.627   6.431  1.2276 -1.5579 -1.9408
 5151SOL    HW216353   4.145   5.783   6.387 -1.8106 -1.1930 -1.8078
 5152SOL     OW16354   3.223   3.721   6.500  0.6001  0.1535 -0.3704
 5152SOL    HW116355   3.269   3.746   6.414  0.8018 -1.1978 -0.6715
 5152SOL    HW216356   3.206   3.623   6.501  0.0221  0.2551  0.8758
 5153SOL     OW16357   3.955   1.235   1.054 -0.7265  0.0323 -0.3495
 5153SOL    HW116358   3.920   1.227   1.147 -1.2267 -1.8996 -0.6708
 5153SOL    HW216359   4.053   1.212   1.053 -0.9764 -1.0691 -0.4570
 5154SOL     OW16360   0.551   3.891   0.221 -0.0872 -0.3889  0.1043
 5154SOL    HW116361   0.626   3.859   0.164 -0.3847  0.0119 -0.5328
 5154SOL    HW216362   0.506   3.813   0.265 -1.0770 -0.9208 -1.7568
 5155SOL     OW16363   6.931   0.915   6.104 -0.4910  0.3731  0.3286
 5155SOL    HW116364   6.977   0.870   6.027 -1.2950  0.2453 -0.0871
 5155SOL    HW216365   6.993   0.982   6.144  0.2453 -0.1530  0.1086
 5156SOL     OW16366   4.958   5.011   0.359  0.0363 -0.1831 -0.1698
 5156SOL    HW116367   5.025   5.062   0.413  0.0860 -2.2437  1.8141
 5156SOL    HW216368   4.988   4.916   0.349 -0.4832 -0.1290 -3.0317
 5157SOL     OW16369   3.469   0.873   1.773 -0.0703 -0.0799 -0.2880
 5157SOL    HW116370   3.412   0.797   1.742  3.5964 -3.2575 -0.0105
 5157SOL    HW216371   3.457   0.886   1.872  0.2980 -1.3555 -0.0578
 5158SOL     OW16372   1.747   1.287   1.039  0.4392  0.1217  0.3391
 5158SOL    HW116373   1.692   1.326   0.966  0.8142  1.8661  0.9377
 5158SOL    HW216374   1.841   1.321   1.032  0.4056  0.6016  1.8161
 5159SOL     OW16375   5.941   5.337   4.553  0.2893 -0.2680 -0.3160
 5159SOL    HW116376   5.901   5.403   4.616 -0.4905  1.1735 -2.2066
 5159SOL    HW216377   5.876   5.262   4.538  0.7839 -1.0176  1.1042
 5160SOL     OW16378   1.490   1.133   4.597  0.0498 -0.5055  0.3781
 5160SOL    HW116379   1.522   1.213   4.545 -2.9423  0.2701 -0.4846
 5160SOL    HW216380   1.512   1.145   4.694  2.1550 -0.0418 -0.1061
 5161SOL     OW16381   0.234   2.724   4.953  0.2708  0.2911  0.3959
 5161SOL    HW116382   0.150   2.760   4.914 -0.3912 -2.0041 -0.5106
 5161SOL    HW216383   0.310   2.784   4.929 -0.4864  0.2573 -2.4930
 5162SOL     OW16384   2.001   6.839   4.909  0.2790  0.0701 -0.1564
 5162SOL    HW116385   1.942   6.919   4.913 -1.3608 -1.1160  0.6765
 5162SOL    HW216386   2.050   6.828   4.995  1.4575  0.8373 -0.7098
 5163SOL     OW16387   3.920   0.175   1.537  0.1820 -0.5434 -0.2500
 5163SOL    HW116388   3.982   0.243   1.575  1.1120 -0.5377 -1.7109
 5163SOL    HW216389   3.876   0.212   1.455 -0.2879 -1.2452 -0.3235
 5164SOL     OW16390   2.221   3.870   6.538 -0.4964 -0.0670  0.2689
 5164SOL    HW116391   2.167   3.880   6.622 -0.3980  2.2190  0.1202
 5164SOL    HW216392   2.205   3.780   6.498 -1.7694 -0.5958  1.8908
 5165SOL     OW16393   1.074   5.134   6.187 -0.4595  0.0113  0.0018
 5165SOL    HW116394   1.151   5.114   6.247 -0.6501 -0.4721  0.0877
 5165SOL    HW216395   1.070   5.233   6.170  0.9377 -0.0761 -1.0270
 5166SOL     OW16396   5.996   0.166   5.353  0.1461 -0.0120 -0.1183
 5166SOL    HW116397   6.008   0.149   5.255 -2.0195 -0.2005 -0.3798
 5166SOL    HW216398   5.945   0.251   5.367  0.2079 -0.1188  0.8468
 5167SOL     OW16399   6.634   2.832   4.524 -0.2045 -0.1999  0.7112
 5167SOL    HW116400   6.553   2.890   4.521  0.8295  1.2663  0.3934
 5167SOL    HW216401   6.695   2.862   4.598 -0.1945 -1.6478  1.3293
 5168SOL     OW16402   5.247   2.676   3.797  0.9638  0.1589  0.1150
 5168SOL    HW116403   5.258   2.599   3.735  0.8011  2.4408 -2.9645
 5168SOL    HW216404   5.157   2.717   3.783  0.8406  0.6487  2.0626
 5169SOL     OW16405   5.264   6.756   2.380  0.3923  0.9575 -0.1939
 5169SOL    HW116406   5.259   6.663   2.419 -0.3991  1.6241  1.4157
 5169SOL    HW216407   5.224   6.756   2.289 -0.4736 -0.1162  0.1617
 5170SOL     OW16408   1.805   2.119   6.909 -0.0031 -0.2275 -0.1443
 5170SOL    HW116409   1.772   2.058   6.837  1.6308 -1.8603  0.4161
 5170SOL    HW216410   1.900   2.145   6.891 -0.4137  1.5906  0.0349
 5171SOL     OW16411   2.477   5.893   0.800 -0.3793 -0.7607 -0.1480
 5171SOL    HW116412   2.480   5.811   0.857 -1.0858  0.5037  1.8129
 5171SOL    HW216413   2.445   5.971   0.854  0.0701  0.7987 -1.9856
 5172SOL     OW16414   6.448   6.796   6.583  0.3826 -0.2531  0.0371
 5172SOL    HW116415   6.536   6.814   6.538 -0.7126  1.0160 -1.7060
 5172SOL    HW216416   6.399   6.725   6.534 -0.1458  0.0022  0.1876
 5173SOL     OW16417   2.994   5.903   4.036  1.0814 -0.4419 -0.4776
 5173SOL    HW116418   2.944   5.849   4.104  0.1405  1.8181  0.7218
 5173SOL    HW216419   3.088   5.917   4.068  1.2306 -1.0496 -0.6313
 5174SOL     OW16420   2.296   5.123   2.615  0.3675 -0.2858  0.4857
 5174SOL    HW116421   2.225   5.194   2.610  0.5552 -0.1093  0.2891
 5174SOL    HW216422   2.374   5.159   2.668  0.0581 -0.6963  1.2340
 5175SOL     OW16423   0.622   1.135   6.574 -0.2738 -0.2508  0.2700
 5175SOL    HW116424   0.656   1.217   6.529 -1.5252 -0.8290 -1.9015
 5175SOL    HW216425   0.523   1.130   6.564 -0.3290 -1.5448  1.2085
 5176SOL     OW16426   0.820   4.306   6.219 -0.4938  0.4522 -0.4474
 5176SOL    HW116427   0.827   4.333   6.315  0.3916 -0.1338 -0.3222
 5176SOL    HW216428   0.842   4.384   6.160 -0.3654  0.6406 -0.1533
 5177SOL     OW16429   5.263   4.137   6.463 -0.1708 -0.2192  0.0406
 5177SOL    HW116430   5.211   4.219   6.441 -0.0052 -0.5484 -1.7716
 5177SOL    HW216431   5.348   4.163   6.509 -0.2536  0.5976 -0.2485
 5178SOL     OW16432   2.133   4.047   1.408  0.2144 -0.6955  0.5573
 5178SOL    HW116433   2.110   4.079   1.500  1.9997  0.0838  0.7798
 5178SOL    HW216434   2.157   4.125   1.350  1.3828 -1.3475  0.1240
 5179SOL     OW16435   5.348   5.028   5.832 -0.0896  0.0086  0.0130
 5179SOL    HW116436   5.292   4.951   5.802  0.8514 -0.9047  0.5330
 5179SOL    HW216437   5.421   4.995   5.892  1.2925  1.0958 -1.0144
 5180SOL     OW16438   1.634   3.733   2.952  0.3404  0.3229  0.0802
 5180SOL    HW116439   1.624   3.700   2.859  0.2915 -0.9619  0.5289
 5180SOL    HW216440   1.547   3.772   2.983  0.6639  1.7905 -0.7751
 5181SOL     OW16441   4.605   1.497   5.721 -0.4611  0.1242 -0.8225
 5181SOL    HW116442   4.657   1.415   5.743  1.1982  0.3517 -3.3827
 5181SOL    HW216443   4.519   1.497   5.770  1.2011 -1.1138  2.3523
 5182SOL     OW16444   1.721   5.959   0.070  0.0539 -0.1680 -0.1130
 5182SOL    HW116445   1.772   5.882   0.033 -0.7462 -1.2276  0.8961
 5182SOL    HW216446   1.694   6.021  -0.004  1.2227 -0.5219 -0.8615
 5183SOL     OW16447   4.958   3.034   2.930 -0.0422  0.0634 -0.0465
 5183SOL    HW116448   4.878   2.999   2.977 -0.5618  1.4597  0.1376
 5183SOL    HW216449   5.016   3.085   2.994  0.7513 -0.5213 -0.2826
 5184SOL     OW16450   2.329   1.934   2.501 -0.4261  0.3562  0.8992
 5184SOL    HW116451   2.269   1.925   2.421 -1.1391 -0.3992  1.5039
 5184SOL    HW216452   2.375   2.022   2.498 -0.4573  0.3478 -0.3397
 5185SOL     OW16453   2.116   6.915   4.095 -0.2570  0.1265  0.0446
 5185SOL    HW116454   2.039   6.880   4.148 -0.2754  0.4889  0.2585
 5185SOL    HW216455   2.104   7.013   4.080 -0.1972  0.0495 -0.5382
 5186SOL     OW16456   5.324   3.159   0.323 -0.1183  0.2636 -0.2818
 5186SOL    HW116457   5.377   3.075   0.309  1.4358  1.2432 -0.4771
 5186SOL    HW216458   5.367   3.214   0.394 -2.2882  0.0031  1.3407
 5187SOL     OW16459   1.798   2.943   4.249 -0.4898 -0.2769 -0.2595
 5187SOL    HW116460   1.825   3.039   4.260 -0.2222 -0.2911 -0.7948
 5187SOL    HW216461   1.711   2.939   4.201 -1.2996 -0.2467  1.1430
 5188SOL     OW16462   6.786   6.717   1.684  0.1919  0.0003  0.0533
 5188SOL    HW116463   6.881   6.745   1.673 -0.2728  1.6228 -0.1521
 5188SOL    HW216464   6.756   6.670   1.601  0.6822 -0.1052 -0.0670
 5189SOL     OW16465   4.393   6.027   0.943  0.0293 -0.1616  0.2624
 5189SOL    HW116466   4.331   5.973   1.000  0.6444  0.0325  1.1313
 5189SOL    HW216467   4.409   5.979   0.857 -2.1413  0.2699 -0.4378
 5190SOL     OW16468   0.009   2.247   6.000  0.3125  0.0881  0.1195
 5190SOL    HW116469  -0.026   2.195   6.078  1.8150 -2.9378 -1.0359
 5190SOL    HW216470  -0.057   2.243   5.925  0.3676 -0.0136  0.0769
 5191SOL     OW16471   1.848   4.376   1.247 -0.0785 -0.2577  0.3201
 5191SOL    HW116472   1.754   4.409   1.231  0.4779  0.3860 -2.0914
 5191SOL    HW216473   1.910   4.424   1.185  1.9033 -0.5436  2.0001
 5192SOL     OW16474   6.775   4.556   3.114  0.0429 -0.1967 -0.0730
 5192SOL    HW116475   6.796   4.514   3.026 -0.0579 -2.1342  0.7836
 5192SOL    HW216476   6.676   4.572   3.120  0.1356  0.6238 -0.5807
 5193SOL     OW16477   4.717   0.723   3.513 -0.4561 -0.0132 -0.2991
 5193SOL    HW116478   4.623   0.739   3.541 -0.9557 -0.3587 -1.7107
 5193SOL    HW216479   4.730   0.625   3.498  0.1684  0.0190  0.0152
 5194SOL     OW16480   6.380   2.076   4.197 -0.7464 -0.0869 -0.2139
 5194SOL    HW116481   6.327   2.061   4.281 -1.6751  0.3964 -0.7022
 5194SOL    HW216482   6.329   2.136   4.136  1.1602  1.9848  0.0807
 5195SOL     OW16483   1.260   6.778   4.597 -0.1228 -0.3449 -0.2567
 5195SOL    HW116484   1.333   6.779   4.665 -0.9535 -2.1241  0.7440
 5195SOL    HW216485   1.208   6.693   4.606 -1.8350  0.5215 -1.4395
 5196SOL     OW16486   0.896   5.553   5.119 -0.3924 -0.2807  0.4712
 5196SOL    HW116487   0.824   5.622   5.120 -0.6113 -0.4786  2.7534
 5196SOL    HW216488   0.950   5.558   5.203  2.4854  0.0123 -1.2513
 5197SOL     OW16489   1.946   2.657   4.754 -0.1158 -0.2005 -0.2547
 5197SOL    HW116490   1.946   2.558   4.765 -0.6799 -0.0116  2.0149
 5197SOL    HW216491   1.855   2.692   4.775 -0.0534  0.7646 -1.5313
 5198SOL     OW16492   6.535   6.800   3.770  0.1118  0.4150  0.4567
 5198SOL    HW116493   6.502   6.730   3.707 -0.3662  1.7541 -0.8223
 5198SOL    HW216494   6.592   6.865   3.721  2.5608 -0.3487  2.0870
 5199SOL     OW16495   6.688   3.672   7.018 -0.5080  0.2950  0.0276
 5199SOL    HW116496   6.677   3.690   6.920 -2.2619  1.3625  0.3632
 5199SOL    HW216497   6.749   3.741   7.057 -0.2610  0.2111 -0.2039
 5200SOL     OW16498   7.017   5.765   4.181  0.1084  0.4103  0.0705
 5200SOL    HW116499   7.011   5.678   4.231  0.2029 -0.6718 -1.7375
 5200SOL    HW216500   7.106   5.807   4.200  0.0414  0.1697  1.0069
 5201SOL     OW16501   3.448   6.065   6.881 -0.3957  0.5798 -0.3319
 5201SOL    HW116502   3.354   6.040   6.860  0.3518 -1.3872 -1.5538
 5201SOL    HW216503   3.481   6.130   6.812 -0.0762 -0.7216 -1.4452
 5202SOL     OW16504   6.996   5.159   1.913  0.1769 -0.2693 -0.4393
 5202SOL    HW116505   6.987   5.073   1.864  0.1573 -0.9524  0.7305
 5202SOL    HW216506   6.920   5.220   1.889  1.3596  0.3297 -2.9651
 5203SOL     OW16507   6.140   3.196   0.258 -0.2618  0.0654 -0.4023
 5203SOL    HW116508   6.080   3.142   0.199 -2.5884 -0.6852  2.4156
 5203SOL    HW216509   6.203   3.135   0.306 -1.1457  0.1367  0.8756
 5204SOL     OW16510   4.730   3.987   0.863  0.1430  0.0259 -0.0306
 5204SOL    HW116511   4.830   3.992   0.861  0.1969  0.3383  1.5802
 5204SOL    HW216512   4.701   3.893   0.845  0.6462  0.1702 -1.7230
 5205SOL     OW16513   1.539   5.661   0.124 -0.0324  0.5955  0.4003
 5205SOL    HW116514   1.604   5.714   0.178  0.0431 -0.0840  0.9843
 5205SOL    HW216515   1.485   5.602   0.184 -1.0529  0.9938 -0.0998
 5206SOL     OW16516   1.193   2.837   4.282 -0.1112 -0.4411  0.5564
 5206SOL    HW116517   1.238   2.829   4.370 -0.9326  0.0940  1.0451
 5206SOL    HW216518   1.117   2.902   4.289  0.3010  0.2226 -0.7440
 5207SOL     OW16519   0.812   4.398   3.421 -0.5404 -0.2326  0.1441
 5207SOL    HW116520   0.809   4.373   3.518 -0.3637 -0.5559  0.0659
 5207SOL    HW216521   0.895   4.361   3.379  0.1907  1.2261  0.2265
 5208SOL     OW16522   4.688   2.207   0.550  0.7033 -0.1209 -0.2261
 5208SOL    HW116523   4.674   2.306   0.538 -1.4079 -0.5627 -1.9839
 5208SOL    HW216524   4.784   2.185   0.530  0.5509  1.2098 -2.9170
 5209SOL     OW16525   6.671   5.241   2.893  0.4705 -0.4197  0.0717
 5209SOL    HW116526   6.733   5.241   2.971  0.7323 -1.2620 -0.1290
 5209SOL    HW216527   6.707   5.304   2.823 -0.3847  1.2645  1.0756
 5210SOL     OW16528   5.731   6.544   2.726  0.2154  0.2633  0.5138
 5210SOL    HW116529   5.635   6.532   2.753  0.4701 -1.2839  0.8287
 5210SOL    HW216530   5.785   6.567   2.807  0.4525 -1.1675  0.8007
 5211SOL     OW16531   3.411   3.801   2.715 -0.8816  0.0840  0.1125
 5211SOL    HW116532   3.352   3.854   2.776 -0.3676  0.5814  0.1886
 5211SOL    HW216533   3.428   3.854   2.631 -0.3903  0.0309  0.1726
 5212SOL     OW16534   1.229   6.427   6.232  0.6205  0.6543 -0.0779
 5212SOL    HW116535   1.144   6.467   6.268 -0.1794 -1.4247  0.4791
 5212SOL    HW216536   1.224   6.328   6.239  1.3684  0.2154 -3.9757
 5213SOL     OW16537   4.213   3.774   5.198 -0.2561 -0.4012 -0.1935
 5213SOL    HW116538   4.139   3.823   5.244 -0.7057 -1.8811  0.7046
 5213SOL    HW216539   4.283   3.749   5.265  0.1763 -0.6320 -0.7193
 5214SOL     OW16540   3.304   0.285   6.991  0.7560  0.4649  0.0486
 5214SOL    HW116541   3.220   0.230   6.995  1.7060 -0.9920  0.6639
 5214SOL    HW216542   3.365   0.259   7.066  0.8981  2.9976  0.9185
 5215SOL     OW16543   6.997   5.960   2.305  0.8968  0.5668 -0.5566
 5215SOL    HW116544   6.949   5.950   2.392  0.1496  0.8876 -0.9196
 5215SOL    HW216545   7.094   5.973   2.322  1.1384 -1.7077  0.1436
 5216SOL     OW16546   5.506   0.123   2.351  0.1705  0.4382  0.2713
 5216SOL    HW116547   5.519   0.210   2.398  0.7918  0.1589  0.6336
 5216SOL    HW216548   5.426   0.129   2.291 -0.4714  0.8910  1.1463
 5217SOL     OW16549   1.938   3.175   3.591 -0.0329 -0.2518  0.0674
 5217SOL    HW116550   1.878   3.105   3.629 -0.1332  0.3810  1.1082
 5217SOL    HW216551   1.940   3.254   3.652  1.1563  0.1029 -0.4040
 5218SOL     OW16552   3.504   6.296   5.150 -0.4726  0.0087  0.0595
 5218SOL    HW116553   3.465   6.356   5.218  2.9495  1.9524  0.5562
 5218SOL    HW216554   3.575   6.239   5.192  0.6440  0.1425 -1.5472
 5219SOL     OW16555   2.507   0.712   0.766 -0.3570 -0.4332  0.4410
 5219SOL    HW116556   2.526   0.620   0.800  1.7386 -0.3340 -0.3547
 5219SOL    HW216557   2.483   0.707   0.669  0.1658 -0.1020  0.2941
 5220SOL     OW16558   1.261   5.384   0.715 -0.2885  0.2007  0.3210
 5220SOL    HW116559   1.188   5.446   0.745  1.2389  1.7277  1.0389
 5220SOL    HW216560   1.311   5.425   0.639  0.6758 -0.1908  0.7216
 5221SOL     OW16561   5.955   6.664   0.697 -0.1158 -0.0596  0.4609
 5221SOL    HW116562   6.027   6.663   0.628 -0.2598  2.0468  0.2027
 5221SOL    HW216563   5.986   6.718   0.776 -1.3597  0.8381  0.3700
 5222SOL     OW16564   0.185   0.173   2.924  0.3440 -0.5136 -0.4630
 5222SOL    HW116565   0.214   0.201   3.016 -0.7082  0.1485 -0.3159
 5222SOL    HW216566   0.136   0.086   2.930 -0.8875  0.1806 -0.1955
 5223SOL     OW16567   5.563   1.150   1.434 -0.1873  0.0738 -0.4123
 5223SOL    HW116568   5.612   1.064   1.419 -2.3353 -1.2805 -0.1639
 5223SOL    HW216569   5.476   1.148   1.384 -1.0176  1.4064  0.8974
 5224SOL     OW16570   0.792   3.075   4.054  0.1103  0.2394 -0.1691
 5224SOL    HW116571   0.700   3.103   4.025  0.2621  0.7215 -0.1943
 5224SOL    HW216572   0.793   2.976   4.068  0.2305 -0.1655 -2.5663
 5225SOL     OW16573   6.422   0.638   4.587  0.3127  0.1439  0.3218
 5225SOL    HW116574   6.367   0.598   4.514  0.7045 -0.9809  0.6203
 5225SOL    HW216575   6.430   0.737   4.573 -1.2700  0.2450 -0.0490
 5226SOL     OW16576   4.999   0.882   4.661  0.4249 -0.3161  0.1646
 5226SOL    HW116577   4.989   0.858   4.564  0.3262  0.8534 -0.1303
 5226SOL    HW216578   4.968   0.976   4.675  2.0741  0.1339  1.0092
 5227SOL     OW16579   5.780   4.220   4.359  0.0106  0.6363  0.5934
 5227SOL    HW116580   5.853   4.166   4.316  2.2086  1.0634  3.4605
 5227SOL    HW216581   5.755   4.296   4.299  0.8279 -0.4035 -1.1399
 5228SOL     OW16582   6.042   0.933   1.475  0.7785 -0.2230 -0.3633
 5228SOL    HW116583   6.047   0.843   1.432  0.1722 -1.9408  2.8401
 5228SOL    HW216584   5.954   0.943   1.522  1.1638  1.6986  0.0478
 5229SOL     OW16585   1.403   5.092   4.990  0.2038 -0.2181 -0.0261
 5229SOL    HW116586   1.311   5.125   5.010  0.2859 -0.0041  0.0048
 5229SOL    HW216587   1.402   4.992   4.984 -0.2067 -0.1663 -0.9603
 5230SOL     OW16588   2.359   1.067   4.581 -0.7367  0.4884 -0.4570
 5230SOL    HW116589   2.391   0.984   4.628 -0.6315  1.0138  0.4308
 5230SOL    HW216590   2.423   1.091   4.509  2.0765  2.5584  2.4358
 5231SOL     OW16591   3.309   3.499   4.452  0.3191  0.1581  0.3534
 5231SOL    HW116592   3.337   3.523   4.359  1.6996 -0.9932  0.4356
 5231SOL    HW216593   3.295   3.400   4.458  0.5582  0.1761  1.4382
 5232SOL     OW16594   4.955   1.038   6.369  0.2096  0.2293  0.1681
 5232SOL    HW116595   5.005   1.120   6.398  1.3937 -0.7912  1.1396
 5232SOL    HW216596   4.857   1.054   6.379  0.4496  1.1699  1.3939
 5233SOL     OW16597   1.380   0.021   2.623  0.3222 -0.2169  0.2914
 5233SOL    HW116598   1.291   0.057   2.595 -1.1100  0.1974  4.6064
 5233SOL    HW216599   1.444   0.097   2.638  1.1784 -0.4530 -1.8683
 5234SOL     OW16600   4.803   5.694   6.674 -0.0248  0.1403 -0.0962
 5234SOL    HW116601   4.770   5.602   6.698  1.7340 -0.2067  1.2983
 5234SOL    HW216602   4.902   5.698   6.693  0.2143  1.8778 -1.5589
 5235SOL     OW16603   6.796   3.626   2.083 -0.1513  0.5265 -0.1077
 5235SOL    HW116604   6.808   3.620   2.182 -2.0033  0.8859  0.1846
 5235SOL    HW216605   6.828   3.542   2.040  1.1598  0.5725  0.7310
 5236SOL     OW16606   6.887   4.185   0.962 -0.3487  0.4218  0.0915
 5236SOL    HW116607   6.976   4.159   0.924  0.0816  0.9613  0.7199
 5236SOL    HW216608   6.821   4.194   0.887 -0.4878 -2.2301 -0.2125
 5237SOL     OW16609   1.774   2.009   2.365  0.3830  0.7464 -0.0150
 5237SOL    HW116610   1.678   2.032   2.381  0.0348 -1.3041  1.2759
 5237SOL    HW216611   1.796   1.924   2.414  2.6966  0.8350 -0.7971
 5238SOL     OW16612   3.837   2.332   0.437 -0.0114 -0.2512  0.1538
 5238SOL    HW116613   3.751   2.371   0.472  0.0942  1.0040 -0.8837
 5238SOL    HW216614   3.876   2.271   0.505  0.3277  2.2720  2.3803
 5239SOL     OW16615   3.648   4.132   3.977 -0.2037 -0.1033  0.3231
 5239SOL    HW116616   3.682   4.104   3.888  0.0626  2.3420 -0.4062
 5239SOL    HW216617   3.549   4.116   3.982 -0.1632 -0.5780 -0.2396
 5240SOL     OW16618   2.496   1.169   6.199 -1.0532  0.9613  0.4509
 5240SOL    HW116619   2.403   1.137   6.181 -0.3534 -0.6122 -0.4956
 5240SOL    HW216620   2.537   1.203   6.115 -0.6745  1.4253  0.8160
 5241SOL     OW16621   3.243   4.566   5.614 -0.4338  0.2557  0.6382
 5241SOL    HW116622   3.155   4.532   5.582  0.0028  0.1611 -0.5231
 5241SOL    HW216623   3.236   4.593   5.710 -1.3257 -1.1646  1.0009
 5242SOL     OW16624   6.076   0.680   0.052  0.1677  0.1644 -0.0837
 5242SOL    HW116625   6.077   0.581   0.067 -0.1608  0.4316  2.0325
 5242SOL    HW216626   6.126   0.725   0.126 -1.7700  1.7057  0.3786
 5243SOL     OW16627   0.736   2.086   1.648 -0.0996  0.2078  0.6220
 5243SOL    HW116628   0.831   2.117   1.652  0.2055 -0.0682 -2.2393
 5243SOL    HW216629   0.728   1.997   1.693  1.3381 -0.4045 -0.2483
 5244SOL     OW16630   5.299   4.650   1.241 -0.0662  0.4992  0.8072
 5244SOL    HW116631   5.206   4.628   1.271  0.6364 -1.3666  1.7839
 5244SOL    HW216632   5.310   4.621   1.146  0.0447 -1.0988  1.2717
 5245SOL     OW16633   4.303   3.860   0.154 -0.1869  0.0798  0.4625
 5245SOL    HW116634   4.207   3.888   0.148 -0.4390 -0.8045  0.2082
 5245SOL    HW216635   4.311   3.763   0.131  0.7838  0.1636  0.3972
 5246SOL     OW16636   0.107   3.321   0.604  0.2894  0.1448  0.8038
 5246SOL    HW116637   0.026   3.379   0.610 -0.3528 -0.7374  0.8882
 5246SOL    HW216638   0.180   3.370   0.558 -0.5296  0.6972  0.0629
 5247SOL     OW16639   6.029   5.798   6.324  0.1128 -0.3827  0.6541
 5247SOL    HW116640   6.049   5.823   6.419  0.6938  1.1823  0.1703
 5247SOL    HW216641   5.953   5.734   6.320 -0.2937 -0.0194  2.1501
 5248SOL     OW16642   3.089   0.373   0.616 -0.0879 -0.2558  0.4067
 5248SOL    HW116643   3.075   0.462   0.659 -0.2407  0.3403 -0.8460
 5248SOL    HW216644   3.054   0.301   0.677  1.0310  0.4245  1.9178
 5249SOL     OW16645   2.297   0.094   0.321 -0.7246  0.5131  0.3320
 5249SOL    HW116646   2.383   0.145   0.324 -0.2441 -0.2761  0.1444
 5249SOL    HW216647   2.223   0.155   0.292  0.1865  0.6529 -1.8633
 5250SOL     OW16648   0.895   1.337   4.707  0.1788  0.0263 -0.4408
 5250SOL    HW116649   0.947   1.269   4.759  0.3689  1.1953  0.9877
 5250SOL    HW216650   0.799   1.333   4.732  0.0287 -0.3220 -1.0516
 5251SOL     OW16651   6.690   2.702   0.228 -0.6111 -0.7254  0.1615
 5251SOL    HW116652   6.755   2.690   0.304 -0.1827  0.4288 -0.0096
 5251SOL    HW216653   6.677   2.799   0.210 -0.8892 -0.9798 -1.1028
 5252SOL     OW16654   5.107   6.073   0.679 -0.1981 -0.0637 -0.6736
 5252SOL    HW116655   5.108   6.033   0.771  1.7821 -1.1862 -1.1119
 5252SOL    HW216656   5.072   6.005   0.615 -0.4442  0.2854 -0.9050
 5253SOL     OW16657   4.878   3.248   4.477 -0.6949 -0.4850 -0.4896
 5253SOL    HW116658   4.808   3.233   4.547 -1.2180 -0.1761 -0.9426
 5253SOL    HW216659   4.930   3.163   4.463 -2.4792 -1.4133 -1.7822
 5254SOL     OW16660   4.414   0.642   5.172 -0.0478  0.0563 -0.4097
 5254SOL    HW116661   4.374   0.625   5.262 -1.2296 -4.3824 -1.5199
 5254SOL    HW216662   4.343   0.678   5.111  0.2576  1.2327 -0.0992
 5255SOL     OW16663   3.648   6.582   1.313 -0.5164  0.4788  0.1048
 5255SOL    HW116664   3.722   6.521   1.341  0.7631  2.0636  0.3973
 5255SOL    HW216665   3.605   6.622   1.394 -1.4588 -0.1625 -0.0752
 5256SOL     OW16666   5.299   5.616   2.963  0.1366 -0.4130  0.3924
 5256SOL    HW116667   5.316   5.556   3.041  2.4800 -3.0932 -1.9495
 5256SOL    HW216668   5.369   5.601   2.893  0.8132  5.0322 -0.5756
 5257SOL     OW16669   3.647   1.963   2.892  0.0964 -0.1019  0.4434
 5257SOL    HW116670   3.615   1.870   2.909  0.5230 -0.5420 -0.9730
 5257SOL    HW216671   3.589   2.006   2.823  0.3331  0.4207  0.5633
 5258SOL     OW16672   5.405   3.246   3.722  0.0704 -0.7128  0.2384
 5258SOL    HW116673   5.334   3.208   3.662 -1.0985  0.7025  0.6684
 5258SOL    HW216674   5.470   3.299   3.668 -0.3649 -0.3372  0.0789
 5259SOL     OW16675   5.258   4.905   1.054  0.1278 -0.1526 -0.1333
 5259SOL    HW116676   5.170   4.863   1.076 -0.9604  2.3355  0.5794
 5259SOL    HW216677   5.323   4.885   1.127  0.1516 -1.8654 -0.5776
 5260SOL     OW16678   5.284   3.612   1.086 -0.0993 -0.3868  0.6481
 5260SOL    HW116679   5.203   3.564   1.118 -1.2946  0.3486 -1.1268
 5260SOL    HW216680   5.269   3.645   0.993  2.7113 -1.3370 -0.2543
 5261SOL     OW16681   0.951   2.559   5.200 -0.1831  0.1829  0.1410
 5261SOL    HW116682   0.985   2.575   5.293 -1.5438 -0.4284  0.7826
 5261SOL    HW216683   0.862   2.604   5.189 -0.5077 -0.5865 -0.5144
 5262SOL     OW16684   1.577   6.830   1.002 -0.0543 -0.5746  0.6605
 5262SOL    HW116685   1.515   6.793   1.070 -0.0586 -0.9853  0.4330
 5262SOL    HW216686   1.564   6.783   0.915 -0.7057  0.5686  0.1120
 5263SOL     OW16687   0.038   0.193   5.842  0.4437 -0.4655  0.7475
 5263SOL    HW116688  -0.007   0.281   5.828 -1.1257 -1.4113 -0.3551
 5263SOL    HW216689  -0.030   0.124   5.865  1.3295 -1.8905 -0.7083
 5264SOL     OW16690   1.776   1.273   1.493 -0.0997  0.0936  0.4617
 5264SOL    HW116691   1.728   1.360   1.477 -1.0700 -0.5715 -0.4139
 5264SOL    HW216692   1.811   1.239   1.406  2.1514  0.6213  1.1021
 5265SOL     OW16693   5.466   5.633   3.658 -0.2112 -0.4681 -0.3665
 5265SOL    HW116694   5.519   5.715   3.635  0.0115 -0.0541  1.4920
 5265SOL    HW216695   5.493   5.600   3.748 -2.0685 -1.1178 -0.0036
 5266SOL     OW16696   0.731   6.285   2.896  0.4482 -0.3710  0.2488
 5266SOL    HW116697   0.715   6.368   2.950  0.5838 -0.6321  0.6967
 5266SOL    HW216698   0.696   6.206   2.946  0.3024 -0.5816 -0.1866
 5267SOL     OW16699   4.993   3.098   5.510  0.2783 -0.1243  0.0847
 5267SOL    HW116700   5.007   3.105   5.609  0.1130 -0.5971  0.1411
 5267SOL    HW216701   4.972   3.189   5.474  0.6450  0.1052  0.4343
 5268SOL     OW16702   6.288   4.178   5.917  0.3887  0.0239  0.3328
 5268SOL    HW116703   6.325   4.202   6.007  3.1038  0.0778 -0.7080
 5268SOL    HW216704   6.358   4.192   5.847 -0.7232 -2.6683 -1.4818
 5269SOL     OW16705   2.076   4.520   1.678  0.0212  0.0871 -0.0711
 5269SOL    HW116706   2.157   4.575   1.701 -0.4481 -0.0541  2.1856
 5269SOL    HW216707   2.080   4.433   1.726 -1.3889  0.0193 -0.0335
 5270SOL     OW16708   0.174   1.923   2.890 -0.0177 -0.0299 -0.1844
 5270SOL    HW116709   0.262   1.969   2.899 -1.5919  3.0518  1.1480
 5270SOL    HW216710   0.135   1.942   2.799 -0.7931  1.6984  0.4639
 5271SOL     OW16711   5.278   2.831   6.479  0.2588  0.2762  0.4161
 5271SOL    HW116712   5.276   2.874   6.569  2.4261  1.0309  0.1710
 5271SOL    HW216713   5.195   2.776   6.466 -1.3484  2.2208  1.8022
 5272SOL     OW16714   2.270   1.348   4.129 -0.9195 -0.3792 -0.2735
 5272SOL    HW116715   2.280   1.388   4.038  1.5390  0.1634  0.1615
 5272SOL    HW216716   2.264   1.248   4.121  1.0816 -0.4896 -0.9953
 5273SOL     OW16717   6.821   2.769   5.198  0.1895  0.1779 -0.2027
 5273SOL    HW116718   6.902   2.821   5.225  0.7262 -0.2506 -0.9513
 5273SOL    HW216719   6.740   2.827   5.205 -0.0222 -0.2907  3.9097
 5274SOL     OW16720   2.055   5.684   5.729  0.3855  0.4278  0.5440
 5274SOL    HW116721   2.028   5.701   5.824  1.2423  3.0237  0.4158
 5274SOL    HW216722   2.137   5.738   5.709 -1.4126  2.3187 -2.4602
 5275SOL     OW16723   4.401   6.322   4.811 -0.4230  0.0956  0.1105
 5275SOL    HW116724   4.382   6.420   4.810 -0.0233  0.1729 -0.4376
 5275SOL    HW216725   4.358   6.279   4.731 -1.4469 -0.3498  0.8768
 5276SOL     OW16726   1.681   1.870   0.369 -0.3205  0.1906  0.0046
 5276SOL    HW116727   1.741   1.802   0.410 -0.6716  0.3389  0.7746
 5276SOL    HW216728   1.736   1.943   0.329  0.0374 -0.1995 -0.2269
 5277SOL     OW16729   2.841   5.034   2.585  0.1966 -0.3488 -0.2062
 5277SOL    HW116730   2.860   4.940   2.558  0.6341 -0.1162 -0.7273
 5277SOL    HW216731   2.871   5.048   2.680  1.1503 -0.4501 -0.4759
 5278SOL     OW16732   0.432   2.205   4.699  0.3593  0.5222 -0.3064
 5278SOL    HW116733   0.335   2.186   4.680 -0.4429  3.4175  0.4128
 5278SOL    HW216734   0.440   2.248   4.789  2.3524  0.2902 -0.3411
 5279SOL     OW16735   3.494   5.799   5.804  0.1153 -0.1860 -0.6420
 5279SOL    HW116736   3.446   5.828   5.722  0.3093 -1.4456 -1.2367
 5279SOL    HW216737   3.589   5.777   5.780  0.5449  0.6949  0.1897
 5280SOL     OW16738   5.352   5.386   4.098 -0.9890 -0.2532  0.0437
 5280SOL    HW116739   5.294   5.353   4.173  0.0120 -0.1200  0.8927
 5280SOL    HW216740   5.306   5.368   4.011 -1.5150 -1.7836  0.5962
 5281SOL     OW16741   1.480   5.424   3.170 -0.1172  0.4765  0.1948
 5281SOL    HW116742   1.383   5.443   3.183 -0.5876 -1.2833 -0.4901
 5281SOL    HW216743   1.494   5.379   3.082  1.0986 -0.7516  0.9747
 5282SOL     OW16744   0.726   6.640   0.356 -0.3487 -0.1105  0.2485
 5282SOL    HW116745   0.648   6.702   0.353 -0.4412 -0.2218 -2.0430
 5282SOL    HW216746   0.705   6.562   0.415 -1.3552  0.6055  0.8670
 5283SOL     OW16747   1.514   5.549   4.771 -0.1015 -0.7987 -0.2688
 5283SOL    HW116748   1.455   5.541   4.690  0.2401  0.5080 -0.6786
 5283SOL    HW216749   1.492   5.476   4.836 -0.3150 -1.9260 -1.5707
 5284SOL     OW16750   4.760   4.383   3.013  0.1855  0.1240  0.0653
 5284SOL    HW116751   4.710   4.466   3.038 -2.0279 -1.5110  1.4549
 5284SOL    HW216752   4.742   4.312   3.081  0.8238 -1.9530 -1.8389
 5285SOL     OW16753   1.052   3.019   2.694  0.6673 -0.2032  0.5415
 5285SOL    HW116754   0.969   3.005   2.748  1.2934 -0.6535  1.4157
 5285SOL    HW216755   1.062   2.946   2.627  0.7644 -0.5857  0.9705
 5286SOL     OW16756   6.942   3.491   6.988  0.2942  0.7371 -0.2916
 5286SOL    HW116757   6.842   3.488   6.983  0.3670 -1.8268 -2.0342
 5286SOL    HW216758   6.976   3.402   7.020  2.0428  1.4944  0.0572
 5287SOL     OW16759   1.270   6.908   0.934 -0.0862  0.3801 -0.1070
 5287SOL    HW116760   1.199   6.916   1.005 -0.9514  0.2312 -0.9460
 5287SOL    HW216761   1.354   6.873   0.976 -1.0807 -1.3833  0.5414
 5288SOL     OW16762   4.606   6.373   0.784  0.3908  0.4190  0.0196
 5288SOL    HW116763   4.598   6.440   0.709  1.8978  1.8243  1.0331
 5288SOL    HW216764   4.525   6.379   0.842 -0.2367  0.1820 -0.8050
 5289SOL     OW16765   2.570   3.513   6.264  0.1406  0.1138  0.4577
 5289SOL    HW116766   2.597   3.420   6.239  0.0055  0.1792  0.0642
 5289SOL    HW216767   2.644   3.557   6.314  0.6430  0.1760 -0.3203
 5290SOL     OW16768   2.488   4.482   3.528  0.2712  0.5401 -0.1947
 5290SOL    HW116769   2.553   4.557   3.537  2.4428 -1.2799  0.2169
 5290SOL    HW216770   2.475   4.438   3.616 -1.5058  0.7840 -0.2917
 5291SOL     OW16771   2.965   4.577   5.566  0.4511  0.1157 -0.0893
 5291SOL    HW116772   2.959   4.480   5.591  0.3212  0.3871  0.9453
 5291SOL    HW216773   2.908   4.594   5.485  0.9837 -0.7965 -0.6788
 5292SOL     OW16774   0.048   2.411   6.629 -0.8940  0.3877  0.3312
 5292SOL    HW116775   0.055   2.338   6.560 -1.3988  0.1627  0.5124
 5292SOL    HW216776   0.068   2.372   6.719  0.7709  0.8854  0.2210
 5293SOL     OW16777   5.162   0.647   3.533 -0.6770  0.0575 -0.0654
 5293SOL    HW116778   5.134   0.552   3.545 -2.2050  0.7186  2.1962
 5293SOL    HW216779   5.135   0.679   3.442 -0.7457 -1.4430 -0.6018
 5294SOL     OW16780   5.677   6.975   4.246 -0.3897 -0.5909 -0.2398
 5294SOL    HW116781   5.627   6.914   4.185  0.1896 -0.1614 -1.1801
 5294SOL    HW216782   5.773   6.978   4.219 -0.3385  0.4531  0.0016
 5295SOL     OW16783   6.768   1.296   6.632  0.1828 -0.6153  0.4220
 5295SOL    HW116784   6.803   1.288   6.725 -0.6265 -2.3673  0.5984
 5295SOL    HW216785   6.725   1.386   6.621  2.5264  0.6628  0.9026
 5296SOL     OW16786   4.253   5.141   0.733 -0.2835  0.1641 -0.0442
 5296SOL    HW116787   4.157   5.124   0.709 -0.6551  1.5471  0.3410
 5296SOL    HW216788   4.293   5.058   0.772 -1.6510 -0.1399  0.7741
 5297SOL     OW16789   4.017   5.905   5.066  0.7945 -0.0348 -0.7011
 5297SOL    HW116790   4.009   5.979   4.999 -0.4737 -0.0132 -0.5523
 5297SOL    HW216791   3.990   5.819   5.024 -0.7120  0.0951 -0.0425
 5298SOL     OW16792   1.607   3.478   6.386  0.5419 -0.5629 -0.1275
 5298SOL    HW116793   1.562   3.512   6.303 -1.9036  2.5416  2.2253
 5298SOL    HW216794   1.555   3.401   6.423 -0.2891  0.1552  0.2213
 5299SOL     OW16795   3.709   1.848   2.106 -0.0690  0.7213 -0.6241
 5299SOL    HW116796   3.683   1.757   2.076 -0.5974  0.5810  0.2245
 5299SOL    HW216797   3.688   1.914   2.034 -0.1514  0.2437 -1.0444
 5300SOL     OW16798   2.442   3.048   6.057  0.4720 -0.3998  0.4366
 5300SOL    HW116799   2.344   3.032   6.070 -0.0091  0.6202 -1.5364
 5300SOL    HW216800   2.483   3.077   6.143 -0.8118 -1.4534  1.4417
 5301SOL     OW16801   5.786   6.341   0.553 -0.0038 -0.7437 -0.1735
 5301SOL    HW116802   5.759   6.382   0.640 -0.7173 -1.9927  0.2193
 5301SOL    HW216803   5.738   6.253   0.541  1.7433 -1.6616 -0.7885
 5302SOL     OW16804   5.737   6.886   3.720  0.3492  0.1457  0.5152
 5302SOL    HW116805   5.797   6.952   3.674  1.5808 -0.1969  1.5548
 5302SOL    HW216806   5.674   6.935   3.780 -0.5411  0.5198 -0.6778
 5303SOL     OW16807   0.430   5.471   5.115  0.1933 -0.0560 -0.2135
 5303SOL    HW116808   0.515   5.426   5.089  0.5988  0.2528  0.5605
 5303SOL    HW216809   0.362   5.403   5.141 -0.5070 -0.4586 -2.7647
 5304SOL     OW16810   1.193   5.471   3.253 -0.5741 -0.0644  0.5463
 5304SOL    HW116811   1.148   5.390   3.216  1.4844 -1.3539  0.6574
 5304SOL    HW216812   1.186   5.469   3.353  1.4241 -1.4358  0.7217
 5305SOL     OW16813   6.560   3.547   4.926 -0.4118  0.1494 -0.0145
 5305SOL    HW116814   6.473   3.592   4.943  1.0951  3.3235  0.0621
 5305SOL    HW216815   6.605   3.591   4.848  1.1050 -1.4549 -0.1077
 5306SOL     OW16816   2.863   1.893   3.984  0.4438  0.5252 -0.5176
 5306SOL    HW116817   2.801   1.899   4.062 -1.7975 -3.0306 -1.7356
 5306SOL    HW216818   2.841   1.965   3.918 -0.4163  1.0970  0.3590
 5307SOL     OW16819   6.813   2.428   1.298  0.1617 -0.0198  0.1407
 5307SOL    HW116820   6.912   2.427   1.286  0.0445 -1.1239 -0.9247
 5307SOL    HW216821   6.775   2.510   1.256  0.4720 -0.4235 -0.9584
 5308SOL     OW16822   1.395   4.642   3.054 -0.6951 -0.5615  0.2190
 5308SOL    HW116823   1.457   4.582   3.002 -1.5250 -1.0035 -0.2886
 5308SOL    HW216824   1.394   4.733   3.013  1.2890  0.1083  1.5496
 5309SOL     OW16825   6.155   5.845   2.381 -0.3271 -0.0023 -0.6769
 5309SOL    HW116826   6.157   5.945   2.386 -0.5476  0.0043 -0.7000
 5309SOL    HW216827   6.220   5.806   2.447 -0.2920  0.1535 -0.6197
 5310SOL     OW16828   0.458   0.913   3.706  0.4464 -0.1660  0.0595
 5310SOL    HW116829   0.464   0.974   3.627  1.4050  1.8315  1.5791
 5310SOL    HW216830   0.402   0.955   3.777 -1.2852 -2.3916  0.1125
 5311SOL     OW16831   4.318   0.628   6.077  0.0463  0.2364 -0.3718
 5311SOL    HW116832   4.358   0.699   6.134  1.3374  0.5642 -1.6382
 5311SOL    HW216833   4.247   0.668   6.018 -0.0602  0.2406 -0.2406
 5312SOL     OW16834   6.328   0.481   0.203 -0.3991 -0.1777  0.2474
 5312SOL    HW116835   6.386   0.562   0.194 -0.7812  0.0545 -0.1435
 5312SOL    HW216836   6.310   0.464   0.300 -1.4511  1.0355  0.2960
 5313SOL     OW16837   3.311   0.335   3.986  0.6481  0.4145  0.4053
 5313SOL    HW116838   3.317   0.391   4.070  0.9205 -0.6918  1.1417
 5313SOL    HW216839   3.224   0.286   3.985  0.5042  0.6778 -0.1313
 5314SOL     OW16840   6.217   2.949   1.037 -0.4791 -0.0465 -0.2346
 5314SOL    HW116841   6.302   2.952   0.985 -0.2596 -0.5854  0.0819
 5314SOL    HW216842   6.209   3.032   1.093 -0.2127  0.0548 -0.3436
 5315SOL     OW16843   6.065   2.172   4.072  0.3899  0.1031  0.5362
 5315SOL    HW116844   6.154   2.216   4.058 -0.4185  1.2801 -1.3355
 5315SOL    HW216845   6.003   2.235   4.118 -0.8241  1.1672 -2.3042
 5316SOL     OW16846   6.311   1.773   3.844  0.1757  0.0198 -0.1469
 5316SOL    HW116847   6.242   1.785   3.916  0.3944  1.0766 -0.1017
 5316SOL    HW216848   6.305   1.848   3.779  0.2979 -0.6796 -0.9888
 5317SOL     OW16849   5.407   3.915   0.377  0.3362  0.1659  0.2938
 5317SOL    HW116850   5.424   3.834   0.433 -0.4531  0.0359  0.3636
 5317SOL    HW216851   5.312   3.945   0.390  0.4998  0.8542 -0.0516
 5318SOL     OW16852   1.646   4.050   6.866 -0.4261  0.0471  0.5195
 5318SOL    HW116853   1.552   4.070   6.839 -0.3535 -1.4534 -0.9275
 5318SOL    HW216854   1.698   4.135   6.870 -1.1083  0.6058 -1.5606
 5319SOL     OW16855   3.585   5.348   3.339 -0.4462  0.1739  0.6785
 5319SOL    HW116856   3.623   5.371   3.250  1.2028  0.5484  1.4429
 5319SOL    HW216857   3.525   5.268   3.331  0.9594 -0.8016 -0.4908
 5320SOL     OW16858   4.580   6.444   0.477  0.2598  0.0817  0.2941
 5320SOL    HW116859   4.519   6.365   0.487  0.3671  0.0371  0.6032
 5320SOL    HW216860   4.554   6.515   0.543  1.5343 -0.5729  1.5504
 5321SOL     OW16861   3.343   5.750   5.255 -0.0763 -0.5107  0.7890
 5321SOL    HW116862   3.302   5.658   5.257  0.3451 -0.6995  0.7308
 5321SOL    HW216863   3.442   5.743   5.264 -0.1547  0.0202  2.2722
 5322SOL     OW16864   5.774   0.549   3.865 -0.0396  0.1155  0.3647
 5322SOL    HW116865   5.847   0.503   3.915 -0.0000  3.1587  3.4689
 5322SOL    HW216866   5.698   0.569   3.926 -2.3206 -0.3867 -2.1031
 5323SOL     OW16867   5.149   0.994   5.567  0.2293  0.5914 -0.8586
 5323SOL    HW116868   5.217   0.966   5.636  0.2986  0.3937 -1.0053
 5323SOL    HW216869   5.059   0.997   5.609  0.3901  1.2698 -0.5568
 5324SOL     OW16870   1.484   2.581   0.569 -0.1769  0.4496  0.1739
 5324SOL    HW116871   1.402   2.637   0.563 -0.3841  0.3070  1.4874
 5324SOL    HW216872   1.459   2.486   0.586  0.2366  0.2325 -0.3795
 5325SOL     OW16873   2.158   3.019   4.883 -0.0430 -0.6739  0.2071
 5325SOL    HW116874   2.237   2.979   4.930  0.1041  0.0624  0.5996
 5325SOL    HW216875   2.143   2.971   4.796 -0.3125 -2.0418  0.9864
 5326SOL     OW16876   6.776   6.736   2.361 -0.1018 -0.2698 -0.3649
 5326SOL    HW116877   6.847   6.675   2.396  0.7364  0.9368  0.0850
 5326SOL    HW216878   6.818   6.804   2.299 -0.7202  0.9234  0.4949
 5327SOL     OW16879   5.631   2.307   5.207  0.0078 -0.1781  0.8952
 5327SOL    HW116880   5.711   2.258   5.243  0.8713  0.2156 -0.3877
 5327SOL    HW216881   5.583   2.353   5.282  0.6903 -0.8402  1.7593
 5328SOL     OW16882   4.625   5.458   0.833 -0.1109 -0.1168 -0.8268
 5328SOL    HW116883   4.619   5.403   0.916 -0.0083  1.1038  0.0329
 5328SOL    HW216884   4.550   5.436   0.771 -0.3187 -0.8842 -0.3065
 5329SOL     OW16885   1.424   6.937   6.906  0.2702  0.1338  0.0696
 5329SOL    HW116886   1.365   6.859   6.928  0.7984 -0.6111 -1.0803
 5329SOL    HW216887   1.375   7.022   6.926 -0.9510 -0.4709 -0.2417
 5330SOL     OW16888   2.146   4.093   1.676  0.0718 -0.2122  0.1260
 5330SOL    HW116889   2.097   4.015   1.715  0.2753 -0.7529 -0.6654
 5330SOL    HW216890   2.138   4.172   1.737 -2.7214  0.0702 -0.4904
 5331SOL     OW16891   3.936   2.044   6.465  0.4737  0.2865  0.3751
 5331SOL    HW116892   3.884   2.091   6.536  1.6073 -0.4759  1.7603
 5331SOL    HW216893   4.029   2.079   6.462  0.8843 -0.7482  0.3663
 5332SOL     OW16894   1.792   4.106   3.256  0.4900  0.2700  0.3490
 5332SOL    HW116895   1.783   4.088   3.354  0.5457 -1.5547  0.0523
 5332SOL    HW216896   1.818   4.022   3.209  0.0794  1.0246 -1.2899
 5333SOL     OW16897   2.260   6.439   4.809 -0.4094  0.4881 -0.3719
 5333SOL    HW116898   2.193   6.463   4.879 -0.0956  1.1641 -0.2945
 5333SOL    HW216899   2.321   6.368   4.844 -1.7962 -1.0071 -0.8555
 5334SOL     OW16900   3.371   6.972   6.564 -0.2380 -0.4756 -0.3971
 5334SOL    HW116901   3.421   7.010   6.487  1.3104 -0.6323  0.4887
 5334SOL    HW216902   3.274   6.963   6.540 -0.6709  3.5646 -0.8286
 5335SOL     OW16903   6.303   5.972   6.782  0.1146  0.0313  0.0113
 5335SOL    HW116904   6.367   6.047   6.769  1.5324 -1.2558 -0.7467
 5335SOL    HW216905   6.276   5.935   6.692 -1.8811  0.6675  0.2961
 5336SOL     OW16906   0.884   4.348   6.738 -0.3673 -0.3940  0.0020
 5336SOL    HW116907   0.929   4.260   6.720 -1.0075 -0.5788 -0.7537
 5336SOL    HW216908   0.881   4.365   6.837 -2.4838 -2.4360  0.3743
 5337SOL     OW16909   5.813   3.679   1.237 -0.0355  0.2221 -0.0820
 5337SOL    HW116910   5.745   3.689   1.165  0.2102  0.3700 -0.2948
 5337SOL    HW216911   5.905   3.690   1.199  0.1341 -0.4401  0.1133
 5338SOL     OW16912   5.988   1.536   2.562 -0.5245  0.0159  0.0044
 5338SOL    HW116913   5.889   1.552   2.563 -0.8467 -1.6018  2.1924
 5338SOL    HW216914   6.007   1.444   2.529  0.5174  1.1540 -2.8365
 5339SOL     OW16915   6.671   0.934   2.262  0.1787  0.1930  0.2444
 5339SOL    HW116916   6.701   1.014   2.315 -0.8322  1.2308 -0.6936
 5339SOL    HW216917   6.665   0.959   2.165 -0.8791 -0.8078  0.0343
 5340SOL     OW16918   5.839   2.127   5.282  0.7311 -0.5301 -0.8491
 5340SOL    HW116919   5.872   2.087   5.196 -0.0081 -2.2404 -0.3858
 5340SOL    HW216920   5.912   2.124   5.350  1.3328  0.8663 -1.3898
 5341SOL     OW16921   4.369   5.284   0.539  0.1191 -0.1896  0.1335
 5341SOL    HW116922   4.425   5.222   0.485  1.9957 -0.9378  2.7746
 5341SOL    HW216923   4.330   5.235   0.617  2.7654  2.0258  3.0937
 5342SOL     OW16924   2.815   5.671   6.014 -0.7901  0.2923 -0.3786
 5342SOL    HW116925   2.827   5.770   6.004  1.6690 -0.0091 -1.1884
 5342SOL    HW216926   2.874   5.637   6.087  0.4428 -0.8552 -1.8185
 5343SOL     OW16927   3.678   3.910   2.024 -0.2724 -0.1329 -0.2590
 5343SOL    HW116928   3.653   3.925   2.120 -0.1365  0.4787 -0.3153
 5343SOL    HW216929   3.775   3.928   2.012 -0.2805 -0.2505 -0.5060
 5344SOL     OW16930   2.191   2.457   3.133  0.2004 -0.6999  0.4703
 5344SOL    HW116931   2.248   2.531   3.095  0.4142 -1.7007 -1.2485
 5344SOL    HW216932   2.142   2.411   3.059 -4.5834  1.3805  1.9434
 5345SOL     OW16933   2.807   0.630   0.674 -0.7707 -0.3814  0.0348
 5345SOL    HW116934   2.782   0.690   0.598 -0.5648 -0.0069  0.2639
 5345SOL    HW216935   2.732   0.566   0.691 -1.6728  0.8527  0.8401
 5346SOL     OW16936   3.685   1.442   3.495  0.0916  0.7358  0.1554
 5346SOL    HW116937   3.630   1.462   3.576 -0.9716 -2.5380  0.3807
 5346SOL    HW216938   3.631   1.462   3.413 -0.8752 -0.8543  0.3640
 5347SOL     OW16939   1.536   0.658   1.259  0.3543  0.1607 -0.7110
 5347SOL    HW116940   1.438   0.639   1.263  0.1978  0.2455 -2.9004
 5347SOL    HW216941   1.550   0.756   1.246  0.7135  0.1198 -0.6431
 5348SOL     OW16942   0.226   5.980   1.829 -0.8809 -0.3329  1.0124
 5348SOL    HW116943   0.135   6.021   1.828 -0.3885  0.8822 -1.2336
 5348SOL    HW216944   0.292   6.046   1.865 -0.4376  0.0293 -0.4052
 5349SOL     OW16945   5.888   0.788   0.449  0.8088  0.1145  0.2796
 5349SOL    HW116946   5.815   0.856   0.436  0.7028 -0.2789 -1.6012
 5349SOL    HW216947   5.893   0.761   0.545  1.4305  3.3889  1.2953
 5350SOL     OW16948   1.590   0.623   0.710 -0.6683 -0.4162 -0.1698
 5350SOL    HW116949   1.595   0.538   0.658  1.2210 -0.0560 -0.6578
 5350SOL    HW216950   1.622   0.607   0.803 -0.1491 -0.2128 -0.3109
 5351SOL     OW16951   4.696   6.895   2.008  0.4800  0.4762  0.1469
 5351SOL    HW116952   4.763   6.856   1.944  0.5925 -0.2786  0.7153
 5351SOL    HW216953   4.636   6.958   1.958  1.1873  0.6535 -0.5032
 5352SOL     OW16954   3.135   6.772   3.261 -0.0380 -0.4352  0.4941
 5352SOL    HW116955   3.067   6.698   3.267  0.6558 -0.9940  1.8596
 5352SOL    HW216956   3.093   6.852   3.217 -1.5278 -0.8415  1.1037
 5353SOL     OW16957   6.592   6.928   4.883 -0.0449  0.0807 -0.2847
 5353SOL    HW116958   6.665   6.986   4.920 -0.4012 -0.3970  1.2420
 5353SOL    HW216959   6.503   6.969   4.904 -0.2433  0.3611 -1.6226
 5354SOL     OW16960   0.589   4.663   1.977  0.0063  0.0178  0.4134
 5354SOL    HW116961   0.550   4.752   2.002 -2.5448 -1.1900  0.9998
 5354SOL    HW216962   0.542   4.627   1.897  0.9401 -0.8904  0.2529
 5355SOL     OW16963   4.201   2.271   5.386 -0.1882 -0.5162 -0.4767
 5355SOL    HW116964   4.105   2.295   5.373 -0.0794 -0.1111 -0.5389
 5355SOL    HW216965   4.211   2.172   5.379 -0.7365 -0.6523  0.4218
 5356SOL     OW16966   4.382   1.948   0.181 -0.0837 -0.3633  0.0268
 5356SOL    HW116967   4.299   1.997   0.208  0.6618  0.0976  1.5886
 5356SOL    HW216968   4.421   1.902   0.261 -0.2209 -2.7389 -1.1829
 5357SOL     OW16969   3.879   5.358   1.675  0.2369  0.3102  0.1399
 5357SOL    HW116970   3.910   5.401   1.759  0.8764  1.2091 -0.5344
 5357SOL    HW216971   3.829   5.274   1.697 -2.2717  2.0476  1.5783
 5358SOL     OW16972   4.166   2.105   0.251 -0.2175  0.0583 -0.0572
 5358SOL    HW116973   4.140   2.085   0.346 -0.9677 -1.0687 -0.4776
 5358SOL    HW216974   4.135   2.197   0.227 -1.2572 -0.1614  0.3759
 5359SOL     OW16975   2.990   6.278   0.259  0.4912  0.3125  0.4421
 5359SOL    HW116976   2.946   6.211   0.200  3.3071 -0.8955 -0.4720
 5359SOL    HW216977   2.943   6.366   0.251 -0.1843 -0.2018 -2.4107
 5360SOL     OW16978   1.927   6.795   6.090 -0.4589 -0.3974 -0.6389
 5360SOL    HW116979   1.827   6.789   6.099 -0.4550 -1.4005 -1.1812
 5360SOL    HW216980   1.970   6.751   6.169 -0.4459 -0.2314 -0.5541
 5361SOL     OW16981   1.228   0.891   6.118 -0.1246  0.5379  0.0371
 5361SOL    HW116982   1.177   0.878   6.204 -0.5705 -1.5462 -0.4817
 5361SOL    HW216983   1.188   0.967   6.067  0.8881  2.5973  2.1651
 5362SOL     OW16984   3.988   5.720   3.030  0.5691 -0.8232 -0.3782
 5362SOL    HW116985   4.046   5.676   3.099  0.4065  0.2224  0.4526
 5362SOL    HW216986   3.959   5.652   2.963  0.0001 -2.0857  1.0780
 5363SOL     OW16987   6.627   5.831   5.826 -0.0403 -0.6854 -0.0877
 5363SOL    HW116988   6.713   5.865   5.863 -0.0668  0.2874 -0.8960
 5363SOL    HW216989   6.637   5.734   5.803  1.0283 -0.4488 -0.7153
 5364SOL     OW16990   2.466   5.060   0.365 -0.2313 -0.1029  0.3360
 5364SOL    HW116991   2.483   5.003   0.284  0.9373  0.6388  0.0290
 5364SOL    HW216992   2.438   5.151   0.336 -0.8377 -0.1359  0.8009
 5365SOL     OW16993   3.505   1.622   0.115 -0.5824  0.1277  0.0202
 5365SOL    HW116994   3.584   1.607   0.174  0.1272  0.2950 -0.8565
 5365SOL    HW216995   3.431   1.560   0.141  0.4280 -1.2200 -0.1908
 5366SOL     OW16996   4.029   5.038   6.226  0.4258  0.1096  0.5733
 5366SOL    HW116997   4.092   5.112   6.203  1.9121 -1.7292 -1.6593
 5366SOL    HW216998   4.061   4.991   6.308  0.2799  0.9849  1.1490
 5367SOL     OW16999   6.688   4.806   1.539 -0.2225  0.1219  0.2901
 5367SOL    HW117000   6.781   4.837   1.556 -0.5035  0.1892  1.7989
 5367SOL    HW217001   6.631   4.884   1.513 -0.2751  0.3934  1.2095
 5368SOL     OW17002   0.610   6.319   5.861 -0.3527  0.6895  0.2358
 5368SOL    HW117003   0.529   6.344   5.914  0.1384  0.6678  1.0126
 5368SOL    HW217004   0.601   6.224   5.831 -0.9729  0.9304 -0.3751
 5369SOL     OW17005   0.230   4.282   1.323  0.0931 -0.5984 -0.2584
 5369SOL    HW117006   0.136   4.280   1.357 -0.2259  2.0717 -0.7500
 5369SOL    HW217007   0.279   4.360   1.363  1.6019 -0.9897 -1.2353
 5370SOL     OW17008   3.774   1.817   0.799 -0.0722  0.0869 -0.0608
 5370SOL    HW117009   3.840   1.822   0.724 -1.3263  1.2495 -1.1523
 5370SOL    HW217010   3.696   1.762   0.770 -0.9384  1.2212  0.0762
 5371SOL     OW17011   1.913   3.140   6.251  0.5227  0.1437 -0.6048
 5371SOL    HW117012   1.953   3.212   6.193 -0.4066  0.6008 -0.7056
 5371SOL    HW217013   1.846   3.088   6.197  0.9664 -0.6104 -0.4427
 5372SOL     OW17014   2.580   5.758   1.661  0.2167  0.4309 -0.1342
 5372SOL    HW117015   2.591   5.671   1.709 -1.6624  0.4414  0.4052
 5372SOL    HW217016   2.663   5.813   1.671  0.5093 -0.2827  1.6386
 5373SOL     OW17017   2.157   3.770   5.180 -0.4136 -0.8682 -0.7709
 5373SOL    HW117018   2.134   3.763   5.083 -0.4046 -0.5174 -0.7997
 5373SOL    HW217019   2.225   3.842   5.193 -1.6947  0.2815 -0.2978
 5374SOL     OW17020   3.797   2.786   6.680 -0.0619 -0.6470 -0.0594
 5374SOL    HW117021   3.727   2.782   6.751  0.8232 -1.0028  0.8178
 5374SOL    HW217022   3.764   2.738   6.599 -0.9105 -0.6418  0.2700
 5375SOL     OW17023   6.524   3.177   3.851  0.2851 -0.2213  0.2980
 5375SOL    HW117024   6.548   3.222   3.765  0.0632  1.7803  1.2252
 5375SOL    HW217025   6.605   3.166   3.907  0.5185 -1.9922 -0.3304
 5376SOL     OW17026   2.191   4.152   6.782 -0.0536 -0.7677 -0.1135
 5376SOL    HW117027   2.186   4.251   6.767 -0.3181 -0.8019 -0.2499
 5376SOL    HW217028   2.274   4.116   6.739 -0.1626 -0.6680 -0.4095
 5377SOL     OW17029   6.107   6.887   2.427  0.5732 -0.2169  0.1805
 5377SOL    HW117030   6.093   6.904   2.330  1.1033 -1.0845 -0.0552
 5377SOL    HW217031   6.146   6.796   2.441  0.1573 -0.2532  1.2354
 5378SOL     OW17032   4.612   6.861   0.649 -0.3522 -0.0231  0.4640
 5378SOL    HW117033   4.666   6.849   0.566 -1.2332 -1.5858  0.0691
 5378SOL    HW217034   4.673   6.863   0.728  0.4084  0.2048 -0.1113
 5379SOL     OW17035   1.764   0.087   6.607 -0.1029 -0.2745 -0.4168
 5379SOL    HW117036   1.747   0.024   6.683 -0.6345  0.2133 -0.1213
 5379SOL    HW217037   1.685   0.090   6.547 -1.0668  1.8133  0.8266
 5380SOL     OW17038   3.000   1.983   3.007  0.5501 -0.3430 -0.3684
 5380SOL    HW117039   2.976   1.909   2.945 -0.8976 -0.5831  0.4459
 5380SOL    HW217040   2.965   2.070   2.972 -2.0675 -0.7492  1.0247
 5381SOL     OW17041   5.719   5.436   1.306  0.7076 -0.1227 -0.1494
 5381SOL    HW117042   5.757   5.527   1.289  0.5856 -0.0272  0.0852
 5381SOL    HW217043   5.675   5.403   1.223  0.8615 -0.0213 -0.2726
 5382SOL     OW17044   2.138   6.927   1.182 -0.8307 -0.5834 -0.1293
 5382SOL    HW117045   2.139   6.827   1.175 -1.9188 -0.6439  0.4569
 5382SOL    HW217046   2.120   6.966   1.092 -1.5435 -0.9487 -0.1460
 5383SOL     OW17047   0.905   0.980   3.016  0.3090  0.2801  0.3184
 5383SOL    HW117048   0.842   0.902   3.010  0.9734 -0.3702  1.4324
 5383SOL    HW217049   0.969   0.965   3.091 -0.6247  2.7206  1.6905
 5384SOL     OW17050   4.276   0.436   4.923 -0.5381 -0.3693 -0.2864
 5384SOL    HW117051   4.284   0.527   4.963  2.3594 -0.1794 -1.0292
 5384SOL    HW217052   4.209   0.382   4.974 -0.7714  1.4760  1.4825
 5385SOL     OW17053   3.457   2.910   3.993 -0.3384  0.5598 -0.5841
 5385SOL    HW117054   3.457   2.903   4.093  0.8303  1.3315 -0.5116
 5385SOL    HW217055   3.393   2.980   3.964 -1.5943 -0.4924 -0.4768
 5386SOL     OW17056   4.538   6.021   5.592  0.7899 -0.4137 -0.1285
 5386SOL    HW117057   4.491   6.090   5.537 -0.7613 -0.3186  1.2165
 5386SOL    HW217058   4.538   5.933   5.544  0.2711 -0.1219 -0.6654
 5387SOL     OW17059   2.876   4.530   1.340  0.1439 -0.1026  0.2822
 5387SOL    HW117060   2.829   4.528   1.428 -0.4937  0.6564 -0.0287
 5387SOL    HW217061   2.845   4.609   1.287 -0.3955 -1.1872 -1.1073
 5388SOL     OW17062   0.318   5.753   3.865 -0.1821 -0.1367 -0.2499
 5388SOL    HW117063   0.309   5.853   3.859  1.4932  0.2248  2.0377
 5388SOL    HW217064   0.263   5.719   3.942  0.2502 -0.7925 -0.2219
 5389SOL     OW17065   6.329   2.216   2.242  0.7178  0.0935  0.0019
 5389SOL    HW117066   6.284   2.305   2.248  1.7065  0.5066  2.0533
 5389SOL    HW217067   6.261   2.144   2.258  0.1214  0.5131 -0.5647
 5390SOL     OW17068   0.057   5.162   6.629 -0.8278  0.0933 -0.5346
 5390SOL    HW117069   0.043   5.195   6.536 -1.3474 -2.2273 -1.3439
 5390SOL    HW217070  -0.031   5.149   6.674 -0.5585  2.5505  0.8607
 5391SOL     OW17071   1.606   3.289   5.784 -0.2242  0.2192  0.2572
 5391SOL    HW117072   1.570   3.256   5.697 -1.1696 -1.4492  1.2364
 5391SOL    HW217073   1.704   3.306   5.775 -0.2914 -0.0207 -1.1048
 5392SOL     OW17074   5.878   4.330   0.846 -0.2747  0.1723 -0.1090
 5392SOL    HW117075   5.790   4.374   0.862  0.7376  2.4832 -0.5204
 5392SOL    HW217076   5.942   4.357   0.918  0.0184 -1.8385  0.4397
 5393SOL     OW17077   6.809   6.847   5.977  0.0325  0.5074  0.1024
 5393SOL    HW117078   6.837   6.766   6.028  1.1115  0.5893 -0.3411
 5393SOL    HW217079   6.732   6.891   6.024  0.5898  0.2276  1.3062
 5394SOL     OW17080   0.418   3.052   6.262  0.6100  0.4230 -0.3083
 5394SOL    HW117081   0.476   3.103   6.199 -0.5047 -0.2757 -1.9676
 5394SOL    HW217082   0.422   2.955   6.239  1.3916 -0.0666  1.7315
 5395SOL     OW17083   3.493   1.466   0.960 -0.0496  0.0885 -0.4758
 5395SOL    HW117084   3.508   1.552   1.008  1.0407 -0.0633 -0.5151
 5395SOL    HW217085   3.546   1.465   0.875  0.6502 -0.9522 -0.0556
 5396SOL     OW17086   3.221   2.038   1.785  0.1776  0.4420 -0.3837
 5396SOL    HW117087   3.275   1.969   1.737  0.4899  0.1451  0.3795
 5396SOL    HW217088   3.270   2.067   1.867 -0.8778  0.0788  0.3866
 5397SOL     OW17089   2.180   3.782   1.486  0.3470 -0.0080 -0.4274
 5397SOL    HW117090   2.145   3.861   1.437  0.1915 -0.1555 -0.5566
 5397SOL    HW217091   2.279   3.776   1.475  0.5657  1.0116  0.8105
 5398SOL     OW17092   3.245   4.140   2.405  0.4861 -0.0509  0.0066
 5398SOL    HW117093   3.165   4.108   2.354  0.7063 -0.5456 -0.0372
 5398SOL    HW217094   3.265   4.235   2.379 -0.7001  0.4350  0.7855
 5399SOL     OW17095   0.105   5.422   6.159  0.3082 -0.0253 -0.3395
 5399SOL    HW117096   0.022   5.435   6.104 -0.3984  0.6356  0.8251
 5399SOL    HW217097   0.185   5.450   6.107  0.0199 -2.2010 -2.1008
 5400SOL     OW17098   2.171   3.040   6.089  0.0609  0.1720 -0.1542
 5400SOL    HW117099   2.181   3.120   6.029  0.5780  0.9594  0.9369
 5400SOL    HW217100   2.080   3.002   6.080 -1.5852  3.1725  1.9866
 5401SOL     OW17101   0.524   2.663   2.182  0.3983  0.6002 -0.1892
 5401SOL    HW117102   0.444   2.618   2.223  0.7364  0.6681  0.5643
 5401SOL    HW217103   0.512   2.669   2.083 -0.3492  0.2470 -0.1262
 5402SOL     OW17104   1.623   6.086   4.222  0.4348 -0.5633 -0.1928
 5402SOL    HW117105   1.525   6.102   4.237  0.7970  3.3662 -0.8920
 5402SOL    HW217106   1.638   6.057   4.127 -0.1009 -2.8481  0.3706
 5403SOL     OW17107   4.007   4.390   5.765 -0.0203  0.1322 -0.1480
 5403SOL    HW117108   4.068   4.311   5.759 -0.8664 -0.4216 -3.0612
 5403SOL    HW217109   4.036   4.460   5.699 -1.7677  0.3939 -0.6819
 5404SOL     OW17110   0.674   3.656   1.126 -0.5571  0.3028  0.1175
 5404SOL    HW117111   0.644   3.701   1.042 -0.2599 -0.3846 -0.3618
 5404SOL    HW217112   0.646   3.559   1.124  2.0235 -0.5047 -0.5493
 5405SOL     OW17113   1.498   3.596   4.388  0.5129 -0.3791 -0.1416
 5405SOL    HW117114   1.427   3.554   4.444  0.3256 -0.0678 -0.1432
 5405SOL    HW217115   1.487   3.696   4.389  3.5695  0.1720  3.5804
 5406SOL     OW17116   2.133   2.384   4.545 -0.1457 -0.3494 -0.2269
 5406SOL    HW117117   2.104   2.428   4.630 -0.3600 -0.0886 -0.4319
 5406SOL    HW217118   2.232   2.393   4.534 -0.5340  3.8428 -2.2849
 5407SOL     OW17119   5.170   5.396   0.114 -0.5401 -0.4705 -0.2733
 5407SOL    HW117120   5.168   5.412   0.213  2.9315 -0.8254 -0.0116
 5407SOL    HW217121   5.156   5.483   0.066  0.8099  0.3010  0.6620
 5408SOL     OW17122   2.177   0.510   0.448  0.7652  0.1856 -0.1426
 5408SOL    HW117123   2.272   0.484   0.434  0.7189 -0.4618  0.6131
 5408SOL    HW217124   2.148   0.482   0.540  0.4172  2.1282  0.3831
 5409SOL     OW17125   4.430   1.297   2.857 -0.2718  0.1676 -0.1632
 5409SOL    HW117126   4.514   1.254   2.824 -0.6661 -0.3058 -0.5690
 5409SOL    HW217127   4.373   1.227   2.901 -0.6002  0.4189 -0.1908
 5410SOL     OW17128   0.750   1.059   1.504  0.0889  0.0652 -0.5553
 5410SOL    HW117129   0.717   0.977   1.458 -2.3758 -0.2684  1.5809
 5410SOL    HW217130   0.826   1.036   1.565  0.9419 -0.1525 -1.6715
 5411SOL     OW17131   6.922   5.050   5.101 -0.5101 -0.4450  0.4582
 5411SOL    HW117132   7.022   5.049   5.107 -0.5719 -0.9665  1.7134
 5411SOL    HW217133   6.885   4.966   5.140 -1.5066  0.5678  1.7976
 5412SOL     OW17134   5.937   1.804   1.618  0.2818 -0.6100 -0.8107
 5412SOL    HW117135   6.027   1.795   1.660 -0.2018 -0.0734  0.3866
 5412SOL    HW217136   5.947   1.814   1.519  1.7670  2.5464 -0.4679
 5413SOL     OW17137   2.542   0.167   4.117 -0.4292 -0.6584 -0.1787
 5413SOL    HW117138   2.507   0.215   4.198  1.7714 -2.7029  2.1714
 5413SOL    HW217139   2.471   0.106   4.081 -1.2801 -0.1097  0.5387
 5414SOL     OW17140   4.252   6.880   3.644  0.7243 -0.3294 -0.4991
 5414SOL    HW117141   4.209   6.800   3.688 -1.0909  1.8809  2.1290
 5414SOL    HW217142   4.187   6.923   3.582  0.7344  0.4547  0.0098
 5415SOL     OW17143   1.735   3.923   1.405 -0.1873  0.0751 -0.9743
 5415SOL    HW117144   1.667   3.866   1.359  0.1724  0.8655 -2.5471
 5415SOL    HW217145   1.695   3.961   1.489 -1.6762  0.4290 -1.8047
 5416SOL     OW17146   5.041   6.001   4.826  0.1158  0.5636 -0.2766
 5416SOL    HW117147   5.024   5.921   4.768 -1.2641  0.6167  0.0124
 5416SOL    HW217148   5.110   6.059   4.783  1.6790 -1.1082 -0.1490
 5417SOL     OW17149   3.762   0.862   4.527 -0.4128 -0.0844 -0.2542
 5417SOL    HW117150   3.683   0.884   4.584  0.2309  0.5628  0.3987
 5417SOL    HW217151   3.836   0.927   4.545  0.1516 -0.4771 -1.1029
 5418SOL     OW17152   4.682   0.709   3.979 -0.1096  0.3444 -0.3929
 5418SOL    HW117153   4.719   0.757   4.058  0.0442 -0.4534  0.0337
 5418SOL    HW217154   4.743   0.721   3.901 -0.8885  2.1719 -0.7578
 5419SOL     OW17155   5.547   3.868   6.167 -0.4018  0.6886 -0.3150
 5419SOL    HW117156   5.519   3.939   6.103 -0.2989 -0.5879 -1.8592
 5419SOL    HW217157   5.476   3.797   6.172  0.6931 -0.5223 -1.0910
 5420SOL     OW17158   6.187   1.978   4.428  0.1249  0.4764 -0.2017
 5420SOL    HW117159   6.217   2.067   4.461 -1.1322  0.4454  1.1282
 5420SOL    HW217160   6.229   1.906   4.484 -1.4599  0.3961  0.9701
 5421SOL     OW17161   1.365   3.074   6.137  0.4302 -0.3885 -0.1297
 5421SOL    HW117162   1.274   3.062   6.099  0.5953 -0.5287 -0.4927
 5421SOL    HW217163   1.399   3.166   6.116  0.7857 -0.6874 -0.9183
 5422SOL     OW17164   1.462   5.035   6.098  0.8237  0.5848  0.0632
 5422SOL    HW117165   1.385   5.061   6.157 -1.5620 -1.6764 -1.8493
 5422SOL    HW217166   1.475   4.936   6.102 -0.6555 -0.0087 -4.3586
 5423SOL     OW17167   3.587   1.058   6.073 -0.0801  0.4081 -0.3653
 5423SOL    HW117168   3.489   1.044   6.055  0.6118 -1.3131 -3.7306
 5423SOL    HW217169   3.628   0.972   6.102  0.2087  1.5815  3.1151
 5424SOL     OW17170   5.810   5.142   4.367  0.4094  0.0888  0.0573
 5424SOL    HW117171   5.762   5.145   4.279  1.4568  0.0879 -0.5440
 5424SOL    HW217172   5.744   5.143   4.442 -0.4933  0.7500 -0.7193
 5425SOL     OW17173   4.697   6.542   5.472  0.5005  0.2400 -0.4467
 5425SOL    HW117174   4.778   6.532   5.414  0.0026  0.2547 -1.1490
 5425SOL    HW217175   4.714   6.498   5.561  0.3367 -2.0806 -1.4996
 5426SOL     OW17176   2.347   6.195   4.396  0.2605  0.0943  0.0102
 5426SOL    HW117177   2.387   6.137   4.467  0.8914 -0.7824 -1.0240
 5426SOL    HW217178   2.421   6.239   4.345 -0.0984 -0.6458 -1.1934
 5427SOL     OW17179   5.024   6.382   6.135 -0.4303 -0.1160 -0.0476
 5427SOL    HW117180   5.057   6.375   6.041 -0.2202 -1.6440  0.1098
 5427SOL    HW217181   5.073   6.456   6.182  1.1857 -0.8762 -0.4708
 5428SOL     OW17182   2.426   0.675   0.188  0.1409 -0.9503 -0.2970
 5428SOL    HW117183   2.343   0.639   0.145 -0.8236  0.3290  0.4268
 5428SOL    HW217184   2.431   0.774   0.173  2.4406 -1.2095 -1.7720
 5429SOL     OW17185   6.863   1.218   5.574  0.1838 -0.4398 -0.1888
 5429SOL    HW117186   6.876   1.249   5.479 -1.0953 -1.2260 -0.6382
 5429SOL    HW217187   6.773   1.247   5.606  0.3417 -0.7678  0.5560
 5430SOL     OW17188   3.295   6.977   3.880  0.8655 -0.1950  0.1207
 5430SOL    HW117189   3.287   6.999   3.783 -0.3302  0.0832  0.2714
 5430SOL    HW217190   3.208   6.941   3.913  0.9970  0.5287  1.2988
 5431SOL     OW17191   4.541   5.352   3.723  0.0646 -0.1891  0.6631
 5431SOL    HW117192   4.600   5.318   3.796  1.9198  2.1015  0.3403
 5431SOL    HW217193   4.463   5.399   3.764  1.9455  2.5629  1.3734
 5432SOL     OW17194   5.265   6.015   1.100 -0.2309  0.3224 -0.2214
 5432SOL    HW117195   5.235   5.977   1.013  1.3748  1.4279 -1.3247
 5432SOL    HW217196   5.282   5.940   1.165  0.6474 -0.7129 -1.5798
 5433SOL     OW17197   0.104   3.855   5.282  0.3945 -0.3539 -1.0375
 5433SOL    HW117198   0.088   3.829   5.378  0.5865 -1.6274 -1.3313
 5433SOL    HW217199   0.152   3.942   5.279  0.0384 -0.0978  0.0152
 5434SOL     OW17200   3.093   0.334   5.272  0.0099 -0.1605 -0.0038
 5434SOL    HW117201   3.148   0.321   5.190 -0.1337 -0.5526 -0.0403
 5434SOL    HW217202   3.135   0.404   5.330  0.8149 -0.7948  0.1978
 5435SOL     OW17203   4.823   2.307   2.740 -0.1324  0.3341  0.0747
 5435SOL    HW117204   4.798   2.403   2.727 -0.6039  0.3821  1.1778
 5435SOL    HW217205   4.741   2.252   2.755  0.2289  0.1024  1.4069
 5436SOL     OW17206   4.367   4.552   2.367 -0.3765 -0.2835 -0.1813
 5436SOL    HW117207   4.351   4.518   2.274 -2.1970 -2.1236  0.7106
 5436SOL    HW217208   4.427   4.489   2.416 -0.2095  0.1618  0.1941
 5437SOL     OW17209   3.964   3.697   6.895 -0.1757 -0.4407  0.3043
 5437SOL    HW117210   3.950   3.598   6.905  1.5118 -0.6330  1.1804
 5437SOL    HW217211   4.056   3.714   6.860 -0.7706  0.8283 -0.7567
 5438SOL     OW17212   0.686   1.200   2.073 -0.6479  0.1717  0.1529
 5438SOL    HW117213   0.645   1.149   1.998 -1.0313 -0.2137  0.6117
 5438SOL    HW217214   0.772   1.157   2.100 -1.0362 -0.3328  0.6275
 5439SOL     OW17215   0.910   4.561   0.875 -0.0549 -0.2754  0.3347
 5439SOL    HW117216   0.909   4.476   0.928 -2.1052 -0.0600  0.7309
 5439SOL    HW217217   0.819   4.577   0.836  1.3318 -0.4371 -3.3489
 5440SOL     OW17218   6.701   0.873   7.018  0.5591  0.3989  0.4496
 5440SOL    HW117219   6.705   0.969   7.047 -0.8850  0.4767  0.4882
 5440SOL    HW217220   6.629   0.863   6.949  0.7645 -0.6469  0.3788
 5441SOL     OW17221   2.350   1.708   4.016 -0.1368 -0.1689  0.2960
 5441SOL    HW117222   2.413   1.700   4.094 -1.3749 -2.0242  1.1693
 5441SOL    HW217223   2.318   1.617   3.989  0.6384  0.3484 -2.7720
 5442SOL     OW17224   3.326   0.543   2.349  0.2152 -0.4659  0.2957
 5442SOL    HW117225   3.315   0.553   2.448  0.2194 -1.3183  0.3864
 5442SOL    HW217226   3.236   0.546   2.305  0.2270  0.0915  0.3027
 5443SOL     OW17227   2.692   1.207   5.205 -0.0730 -0.0247 -0.2581
 5443SOL    HW117228   2.731   1.116   5.219 -1.6867 -0.9840 -1.6022
 5443SOL    HW217229   2.734   1.272   5.269 -0.5984 -2.1858  2.4690
 5444SOL     OW17230   2.219   6.308   5.178 -0.5260 -0.0119  0.6375
 5444SOL    HW117231   2.311   6.279   5.206 -0.4986  1.4057  2.1712
 5444SOL    HW217232   2.223   6.398   5.135 -1.0501 -0.5656 -0.6186
 5445SOL     OW17233   5.039   4.129   3.261 -0.3638  0.4073  0.4287
 5445SOL    HW117234   5.090   4.091   3.184  1.0979 -1.7379  2.3320
 5445SOL    HW217235   4.947   4.089   3.263  0.1187 -0.7272  0.6411
 5446SOL     OW17236   6.472   0.259   4.074 -0.0735  0.2537 -0.3971
 5446SOL    HW117237   6.489   0.257   4.172 -0.5212 -2.1875 -0.2952
 5446SOL    HW217238   6.512   0.341   4.034  1.2023  0.6675  1.6197
 5447SOL     OW17239   1.456   3.135   0.860  0.2724  0.6836  0.1943
 5447SOL    HW117240   1.366   3.102   0.832 -0.3731  1.9246  0.7240
 5447SOL    HW217241   1.527   3.088   0.807 -0.6312 -0.8107  0.2356
 5448SOL     OW17242   5.853   2.736   0.981  0.0531  0.7345 -0.0546
 5448SOL    HW117243   5.889   2.800   1.049  0.9176 -0.9970  1.1908
 5448SOL    HW217244   5.919   2.724   0.907 -0.8573  2.5655 -1.2303
 5449SOL     OW17245   6.165   2.622   0.437  0.8715 -0.4923 -0.1748
 5449SOL    HW117246   6.066   2.636   0.431  1.0621  1.2811  0.2922
 5449SOL    HW217247   6.212   2.700   0.396  2.0532  0.3636  2.5889
 5450SOL     OW17248   2.739   0.233   6.713  0.3714 -0.0051  0.4768
 5450SOL    HW117249   2.760   0.278   6.800 -1.2066  1.7905 -0.0012
 5450SOL    HW217250   2.755   0.296   6.638  0.1662 -0.9969 -0.4210
 5451SOL     OW17251   1.899   5.620   3.189  0.0434 -0.3030  0.3414
 5451SOL    HW117252   1.998   5.608   3.194  0.2331  1.0894  0.4807
 5451SOL    HW217253   1.856   5.581   3.270  0.4832 -0.8863  0.2969
 5452SOL     OW17254   3.447   4.076   6.419  0.1134 -0.4709 -0.3977
 5452SOL    HW117255   3.378   4.114   6.357 -0.1017 -0.2457 -0.0277
 5452SOL    HW217256   3.514   4.024   6.366  1.5207  1.9567 -1.1998
 5453SOL     OW17257   0.494   1.828   4.323 -0.2116 -0.2799 -0.3459
 5453SOL    HW117258   0.574   1.821   4.264  0.1500 -1.7249  0.2838
 5453SOL    HW217259   0.485   1.923   4.355  0.1582  0.3045 -1.8739
 5454SOL     OW17260   0.651   5.987   4.589  0.1031 -0.3417  0.6463
 5454SOL    HW117261   0.608   6.010   4.676 -0.7071 -0.4954  0.3038
 5454SOL    HW217262   0.625   5.894   4.563 -0.3496 -0.0027 -0.1538
 5455SOL     OW17263   0.503   3.124   6.561  0.0821 -0.0094 -0.7503
 5455SOL    HW117264   0.499   3.088   6.654 -1.1940  0.0653 -0.7637
 5455SOL    HW217265   0.453   3.064   6.499 -2.9183  2.0996 -0.6208
 5456SOL     OW17266   3.457   0.093   0.232  0.5916 -0.0470 -0.1373
 5456SOL    HW117267   3.444   0.102   0.331  1.3948 -3.2915  0.3731
 5456SOL    HW217268   3.503   0.174   0.197 -0.6925  1.6728  1.8975
 5457SOL     OW17269   5.977   4.134   6.273  0.5478  0.1157  0.0089
 5457SOL    HW117270   5.996   4.039   6.298  0.5028 -0.2251 -1.1547
 5457SOL    HW217271   5.883   4.140   6.238  0.5451  0.5953  0.1010
 5458SOL     OW17272   2.512   4.952   6.900 -1.1001 -0.4108 -1.2684
 5458SOL    HW117273   2.479   4.929   6.809 -2.3857 -1.8308 -0.4945
 5458SOL    HW217274   2.600   4.910   6.916 -0.9125 -0.2321 -1.8106
 5459SOL     OW17275   2.636   5.081   5.113  0.6653  0.1802  0.1682
 5459SOL    HW117276   2.683   5.082   5.201  0.8221  1.0089  0.0808
 5459SOL    HW217277   2.700   5.056   5.041  0.5635 -0.3847  0.2678
 5460SOL     OW17278   4.595   1.453   3.861 -0.2991  0.1983 -0.8557
 5460SOL    HW117279   4.540   1.418   3.937 -1.2422  1.6372 -0.8387
 5460SOL    HW217280   4.564   1.410   3.776  0.9683 -1.6547 -0.4575
 5461SOL     OW17281   3.225   6.157   4.404 -0.3743  0.7026 -0.1957
 5461SOL    HW117282   3.142   6.123   4.360  1.3539 -2.3545 -1.4454
 5461SOL    HW217283   3.291   6.185   4.334  1.0600 -0.7392  0.5027
 5462SOL     OW17284   2.484   6.265   1.766  0.1976  0.1198 -0.3646
 5462SOL    HW117285   2.399   6.314   1.747  0.1528 -0.1029 -0.7419
 5462SOL    HW217286   2.469   6.203   1.844 -0.0417 -0.0519 -0.5440
 5463SOL     OW17287   6.868   5.354   0.706  0.5354 -0.1303  0.7935
 5463SOL    HW117288   6.908   5.357   0.614 -0.6706 -1.3054  0.1960
 5463SOL    HW217289   6.930   5.307   0.768  0.4747 -1.1995  0.0731
 5464SOL     OW17290   1.351   0.016   3.506 -0.8064  0.2583  0.4427
 5464SOL    HW117291   1.425   0.036   3.570  0.3883 -0.3021 -0.7191
 5464SOL    HW217292   1.364  -0.076   3.469 -0.1637  1.3671 -2.3022
 5465SOL     OW17293   3.586   5.397   6.894 -0.3279  0.5776  0.3134
 5465SOL    HW117294   3.661   5.332   6.906  0.1273  1.1985  0.8648
 5465SOL    HW217295   3.511   5.372   6.956 -0.2641  0.4202  0.3292
 5466SOL     OW17296   4.740   2.692   5.407 -0.5610 -0.2944 -0.5003
 5466SOL    HW117297   4.834   2.675   5.380 -0.5511 -1.9070  0.4189
 5466SOL    HW217298   4.738   2.756   5.484  0.0265 -2.3272  1.2875
 5467SOL     OW17299   5.502   2.543   2.294  0.0467 -0.3954 -0.0490
 5467SOL    HW117300   5.592   2.574   2.265  0.5446 -0.6514  1.1410
 5467SOL    HW217301   5.458   2.614   2.350 -0.5658 -0.2160 -0.7309
 5468SOL     OW17302   5.448   2.445   6.450  0.5465 -0.0192  0.0422
 5468SOL    HW117303   5.534   2.477   6.410  1.3610 -1.7951  0.2771
 5468SOL    HW217304   5.454   2.450   6.549 -0.1976  1.1854  0.0532
 5469SOL     OW17305   5.238   5.583   0.813 -0.0282  0.2757 -0.2623
 5469SOL    HW117306   5.314   5.526   0.784 -0.1563  0.7450 -1.5515
 5469SOL    HW217307   5.272   5.660   0.868  0.4870  0.7783 -1.2739
 5470SOL     OW17308   6.336   3.587   2.657  0.0210 -0.0053 -0.1420
 5470SOL    HW117309   6.411   3.529   2.688  0.8800  0.7232 -0.8287
 5470SOL    HW217310   6.302   3.641   2.734  0.1452 -0.3905  0.1871
 5471SOL     OW17311   6.774   5.892   4.143  0.5940  0.4212  0.5364
 5471SOL    HW117312   6.868   5.860   4.152  0.3970  0.1358  1.7189
 5471SOL    HW217313   6.772   5.992   4.140  0.8328  0.4951  2.1141
 5472SOL     OW17314   1.909   6.018   5.078  0.3023 -0.5318 -0.2540
 5472SOL    HW117315   1.825   6.064   5.050  0.8188  0.0096 -0.9472
 5472SOL    HW217316   1.886   5.927   5.114 -0.6355 -0.1125  0.2477
 5473SOL     OW17317   2.158   3.729   2.705  0.1422  0.0546 -0.5564
 5473SOL    HW117318   2.219   3.793   2.750 -0.5377 -0.3696  1.0480
 5473SOL    HW217319   2.063   3.756   2.721 -0.1820 -1.7349  0.8204
 5474SOL     OW17320   2.701   6.273   4.234 -0.0933 -0.0446  0.3132
 5474SOL    HW117321   2.605   6.273   4.206 -0.2405  0.1649  0.8113
 5474SOL    HW217322   2.715   6.208   4.308 -0.2122  1.1376  1.4218
 5475SOL     OW17323   4.113   1.661   1.833  0.2841  0.3470 -0.0629
 5475SOL    HW117324   4.115   1.741   1.773  2.2030  0.3508 -0.0386
 5475SOL    HW217325   4.089   1.689   1.925 -2.1946  0.4092 -0.6418
 5476SOL     OW17326   0.809   2.731   1.431  0.0872 -0.4413 -0.0905
 5476SOL    HW117327   0.882   2.696   1.373  0.2163  1.0016 -0.8565
 5476SOL    HW217328   0.839   2.816   1.476 -1.1557  0.2999 -0.5902
 5477SOL     OW17329   2.824   1.233   2.909  0.2226  0.2075 -0.8937
 5477SOL    HW117330   2.847   1.145   2.866  0.4201  0.3303 -1.0426
 5477SOL    HW217331   2.908   1.274   2.945 -0.2196 -0.9584  1.6493
 5478SOL     OW17332   6.370   6.817   5.803 -0.0264  0.1942  0.2594
 5478SOL    HW117333   6.423   6.795   5.720 -1.6046  2.0103 -1.3435
 5478SOL    HW217334   6.375   6.916   5.819  0.1733 -0.1110  2.3540
 5479SOL     OW17335   6.508   6.063   4.300 -0.0553 -0.2451  0.0902
 5479SOL    HW117336   6.516   6.090   4.396  0.5623 -0.0533 -0.0110
 5479SOL    HW217337   6.509   5.963   4.294 -1.6842 -0.3088  0.4063
 5480SOL     OW17338   1.560   1.225   5.102 -0.2786  0.3787  0.0715
 5480SOL    HW117339   1.530   1.156   5.169 -0.2104  0.6510  0.3800
 5480SOL    HW217340   1.593   1.306   5.150 -1.0868  0.9361 -0.2959
 5481SOL     OW17341   5.118   0.886   3.690 -0.2772  0.6397  0.3370
 5481SOL    HW117342   5.133   0.805   3.634 -0.8450  1.6008 -1.2635
 5481SOL    HW217343   5.020   0.908   3.692 -0.0547  1.6755  0.1816
 5482SOL     OW17344   2.318   6.508   2.817 -0.1067 -0.6343  0.1049
 5482SOL    HW117345   2.221   6.535   2.815 -0.1081 -0.6486 -0.1742
 5482SOL    HW217346   2.324   6.408   2.816 -0.1344 -0.7249  2.7750
 5483SOL     OW17347   5.944   6.833   4.975 -0.2294  0.2140 -0.3032
 5483SOL    HW117348   5.999   6.763   5.020  2.5316  1.6431 -1.2055
 5483SOL    HW217349   5.886   6.791   4.905 -0.1365 -1.3329  0.5119
 5484SOL     OW17350   6.368   5.675   3.114 -0.6634  0.4140  0.2182
 5484SOL    HW117351   6.416   5.752   3.156  0.5260  0.4164 -1.0705
 5484SOL    HW217352   6.338   5.612   3.186  1.5795  0.2520  1.0932
 5485SOL     OW17353   4.822   1.091   4.431 -0.5423  0.5308 -0.6959
 5485SOL    HW117354   4.772   1.083   4.345 -1.5761  0.0919 -0.0904
 5485SOL    HW217355   4.756   1.089   4.507  0.2454  2.0105  0.0690
 5486SOL     OW17356   4.702   5.183   3.918  0.3793  0.6813 -0.0276
 5486SOL    HW117357   4.698   5.120   3.840 -0.8085 -0.1079  0.6276
 5486SOL    HW217358   4.780   5.160   3.976 -0.5682 -0.8637  0.7123
 5487SOL     OW17359   5.389   0.325   4.080  0.4025  0.6036 -0.1612
 5487SOL    HW117360   5.342   0.401   4.125 -3.0740 -2.0755  1.2301
 5487SOL    HW217361   5.425   0.263   4.149 -0.7269 -1.1736 -1.1158
 5488SOL     OW17362   3.942   2.279   6.764 -0.9370  0.3016 -0.5231
 5488SOL    HW117363   3.861   2.249   6.714 -1.6024  1.1507  0.0123
 5488SOL    HW217364   3.925   2.369   6.803  0.3043  0.5207 -0.4637
 5489SOL     OW17365   0.325   3.516   4.675  0.3712 -0.0592  0.1262
 5489SOL    HW117366   0.390   3.586   4.645  2.4963 -2.3259 -0.9213
 5489SOL    HW217367   0.232   3.546   4.654  1.1866  2.4080 -0.2969
 5490SOL     OW17368   0.827   5.331   1.769 -0.1193 -0.4247  0.4848
 5490SOL    HW117369   0.920   5.342   1.733 -0.2711 -0.8716 -0.0515
 5490SOL    HW217370   0.761   5.338   1.695 -0.4334 -1.4271  0.6556
 5491SOL     OW17371   6.451   2.741   6.741  0.3536 -0.0330 -0.1670
 5491SOL    HW117372   6.486   2.659   6.786  0.0527 -0.9325 -1.5215
 5491SOL    HW217373   6.386   2.787   6.801  1.2415 -0.2386  0.9931
 5492SOL     OW17374   6.575   1.144   6.072  0.5769  0.4093 -0.3923
 5492SOL    HW117375   6.478   1.157   6.093  0.4981  0.3196 -0.6941
 5492SOL    HW217376   6.618   1.092   6.145  0.7017  1.6041  0.4087
 5493SOL     OW17377   4.050   2.868   0.590 -0.1599  0.1133  0.0295
 5493SOL    HW117378   4.135   2.856   0.538 -0.3624 -1.4353  0.0181
 5493SOL    HW217379   4.039   2.965   0.612  1.8912  0.3038  0.4993
 5494SOL     OW17380   6.455   3.200   6.031  0.2130  0.0426 -0.7132
 5494SOL    HW117381   6.539   3.246   6.060  0.8033 -0.5352 -1.4638
 5494SOL    HW217382   6.395   3.188   6.110  1.1200 -0.1210 -0.0343
 5495SOL     OW17383   4.058   6.755   5.800  0.0418  0.3991 -0.3821
 5495SOL    HW117384   4.068   6.658   5.780  1.5430  0.4012  0.2379
 5495SOL    HW217385   4.006   6.799   5.726 -1.1562 -0.9454 -0.3859
 5496SOL     OW17386   3.938   0.321   4.838  1.1135  0.2403  0.2831
 5496SOL    HW117387   3.985   0.268   4.908 -0.4258 -0.3371  0.9162
 5496SOL    HW217388   3.973   0.296   4.748  1.8730 -0.2995  0.7207
 5497SOL     OW17389   1.641   0.755   5.025  0.3043  0.0612  0.1119
 5497SOL    HW117390   1.709   0.810   5.074 -0.5504  0.1523  1.2219
 5497SOL    HW217391   1.560   0.811   5.006 -0.3143 -0.6293  0.6817
 5498SOL     OW17392   1.882   6.067   3.248 -0.0923 -0.0994  0.0194
 5498SOL    HW117393   1.850   5.982   3.204  0.2499 -0.1654 -0.1055
 5498SOL    HW217394   1.809   6.135   3.246  0.3290  0.3365 -1.8043
 5499SOL     OW17395   2.760   1.508   4.852 -0.1006  0.1322 -0.1948
 5499SOL    HW117396   2.848   1.485   4.894 -0.1704  0.9989  0.4669
 5499SOL    HW217397   2.757   1.607   4.833 -1.4497  0.3784  1.0913
 5500SOL     OW17398   1.866   6.722   1.023 -0.0183 -0.2750  0.1697
 5500SOL    HW117399   1.944   6.732   0.961  0.6433 -0.3943  0.9701
 5500SOL    HW217400   1.795   6.787   0.997  1.1143  1.2071  0.5672
 5501SOL     OW17401   3.558   4.492   6.966  0.2289 -0.0946 -1.2212
 5501SOL    HW117402   3.490   4.555   7.005  1.0472  0.3109 -0.4334
 5501SOL    HW217403   3.528   4.465   6.874  0.4235  2.3825 -2.1072
 5502SOL     OW17404   4.199   1.707   0.199  0.5676  0.3470  0.7368
 5502SOL    HW117405   4.288   1.731   0.237  2.3654 -1.7445 -1.7682
 5502SOL    HW217406   4.187   1.752   0.111  0.3229 -1.3002 -0.1077
 5503SOL     OW17407   5.660   3.469   0.921  0.3183  0.0024  0.3260
 5503SOL    HW117408   5.649   3.490   0.824  0.7051 -0.7603  0.1065
 5503SOL    HW217409   5.651   3.553   0.974 -0.3197  0.3688 -0.3287
 5504SOL     OW17410   2.172   0.219   1.083  0.2805 -0.1852  0.1335
 5504SOL    HW117411   2.219   0.259   1.161 -0.1065  2.4601 -0.9025
 5504SOL    HW217412   2.082   0.185   1.111  0.3612  0.2661  0.9506
 5505SOL     OW17413   2.451   4.454   3.830 -0.2382  0.0558 -0.3418
 5505SOL    HW117414   2.429   4.441   3.926 -0.9858 -2.2331 -0.7478
 5505SOL    HW217415   2.550   4.447   3.816  0.1446  2.8266  0.5207
 5506SOL     OW17416   4.853   3.562   5.662 -0.1216 -0.0438 -0.4058
 5506SOL    HW117417   4.919   3.620   5.710  1.1211 -1.9970  0.3777
 5506SOL    HW217418   4.814   3.612   5.585  1.8724  1.3542 -0.5722
 5507SOL     OW17419   2.874   5.616   1.452 -0.2261  0.5119  0.4689
 5507SOL    HW117420   2.808   5.560   1.503 -1.2674  0.2829 -1.0800
 5507SOL    HW217421   2.948   5.643   1.514  0.2964 -2.4882  1.3386
 5508SOL     OW17422   0.853   1.944   6.282 -0.1466  0.0866  0.1053
 5508SOL    HW117423   0.853   1.923   6.380  1.3983 -0.2328  0.0527
 5508SOL    HW217424   0.862   1.860   6.230  1.0297  0.4156 -0.2485
 5509SOL     OW17425   4.149   4.941   2.035  0.4693  0.9546  0.2273
 5509SOL    HW117426   4.085   4.909   1.965  0.4328 -0.3909  0.8386
 5509SOL    HW217427   4.097   4.974   2.114  0.4823 -0.3381  0.8113
 5510SOL     OW17428   4.834   3.901   0.107 -0.4233  0.4437  0.0184
 5510SOL    HW117429   4.910   3.930   0.048 -1.0210 -0.2968 -1.1665
 5510SOL    HW217430   4.748   3.937   0.070 -0.8209 -0.0927  0.4131
 5511SOL     OW17431   0.799   1.462   3.571  0.8575 -0.0443  0.6922
 5511SOL    HW117432   0.891   1.429   3.552  1.0828  1.3589 -0.8824
 5511SOL    HW217433   0.732   1.398   3.534  1.1048 -1.6657  2.8438
 5512SOL     OW17434   4.315   6.368   3.083  0.3326  0.0891  0.8683
 5512SOL    HW117435   4.309   6.307   3.004  0.9177  0.1409  0.7783
 5512SOL    HW217436   4.342   6.315   3.164 -1.2021 -0.1419  1.2626
 5513SOL     OW17437   2.897   4.393   0.213  0.5769  0.5216  0.6961
 5513SOL    HW117438   2.858   4.485   0.202 -0.1115  0.2213  0.5935
 5513SOL    HW217439   2.950   4.370   0.131 -0.2344  0.3589  0.2068
 5514SOL     OW17440   3.111   1.627   6.148  0.5901  0.2560 -0.4326
 5514SOL    HW117441   3.119   1.723   6.174  0.5494 -0.1444  1.1535
 5514SOL    HW217442   3.152   1.614   6.058 -0.0039  1.8713 -0.9786
 5515SOL     OW17443   3.408   6.078   3.575  0.0114  0.4537  0.2766
 5515SOL    HW117444   3.402   5.979   3.565 -0.8250  0.6481 -1.6542
 5515SOL    HW217445   3.441   6.101   3.666  2.2430 -1.6328  0.0803
 5516SOL     OW17446   1.445   2.332   5.942  0.0284 -0.5948  0.2751
 5516SOL    HW117447   1.371   2.275   5.980 -0.7811  0.4418  0.3123
 5516SOL    HW217448   1.436   2.335   5.842  0.5399 -1.1441  0.2059
 5517SOL     OW17449   0.802   0.313   2.286 -0.1451  0.2554  0.4815
 5517SOL    HW117450   0.829   0.364   2.205 -1.8142 -0.9070 -0.8983
 5517SOL    HW217451   0.737   0.367   2.339  0.5201  0.7997  0.7495
 5518SOL     OW17452   6.521   5.475   6.411 -0.2239  0.0937  0.3360
 5518SOL    HW117453   6.475   5.559   6.383  0.4674  0.2004 -0.5149
 5518SOL    HW217454   6.475   5.396   6.370  0.0967  0.1725 -0.1808
 5519SOL     OW17455   5.101   0.598   5.304 -0.3585 -0.1498  0.0755
 5519SOL    HW117456   5.008   0.631   5.289  0.0945  1.3205  0.3722
 5519SOL    HW217457   5.125   0.607   5.400 -0.0944 -1.0462  0.1001
 5520SOL     OW17458   6.307   0.917   0.404  0.0638 -0.1755  0.2297
 5520SOL    HW117459   6.400   0.887   0.385  0.1794 -0.5153  1.2666
 5520SOL    HW217460   6.290   0.914   0.502 -0.2847  2.1652  0.2992
 5521SOL     OW17461   4.254   4.739   2.530  0.1701  0.4424  0.1209
 5521SOL    HW117462   4.306   4.681   2.467 -1.4131 -0.6303 -0.2827
 5521SOL    HW217463   4.269   4.709   2.624 -0.8868 -0.9372 -0.1003
 5522SOL     OW17464   5.571   0.357   0.282 -0.1545 -0.2809 -0.5958
 5522SOL    HW117465   5.572   0.337   0.184 -0.0791  0.6873 -0.7984
 5522SOL    HW217466   5.619   0.443   0.299  0.2244 -0.6611  0.3466
 5523SOL     OW17467   3.006   1.707   0.565 -0.0642  0.3759  0.4874
 5523SOL    HW117468   2.936   1.774   0.589  0.1478  0.7372  0.1020
 5523SOL    HW217469   3.067   1.745   0.495  0.9400  0.3305  1.3161
 5524SOL     OW17470   2.634   2.201   3.544 -0.6817 -0.0869  0.1114
 5524SOL    HW117471   2.678   2.283   3.509 -0.7544 -0.6877 -1.4973
 5524SOL    HW217472   2.699   2.125   3.543  0.0276  0.3110  3.5262
 5525SOL     OW17473   0.400   3.823   2.085  0.3770  0.1838 -0.2909
 5525SOL    HW117474   0.370   3.817   1.990 -2.1057  0.1110  0.4184
 5525SOL    HW217475   0.383   3.916   2.119  0.8082  0.0798  0.2185
 5526SOL     OW17476   3.935   5.961   2.707 -0.0358 -0.0684 -0.2673
 5526SOL    HW117477   3.849   6.011   2.711 -0.4214 -0.6846 -0.5974
 5526SOL    HW217478   4.007   6.014   2.752 -0.4140  0.7958 -0.6483
 5527SOL     OW17479   6.900   0.950   2.562 -0.3110  0.4356 -0.2132
 5527SOL    HW117480   6.963   0.882   2.523 -0.5607  1.4886 -2.6987
 5527SOL    HW217481   6.817   0.906   2.593  0.4762 -0.6357  0.4296
 5528SOL     OW17482   2.471   0.573   5.571  0.3739 -0.2861 -0.3216
 5528SOL    HW117483   2.500   0.561   5.476  1.2540 -1.5823  0.0897
 5528SOL    HW217484   2.431   0.664   5.582 -1.6617 -0.8083 -2.4140
 5529SOL     OW17485   3.833   0.317   0.190  0.1713  0.1367 -0.7430
 5529SOL    HW117486   3.884   0.349   0.111  0.1885  0.4326 -0.6119
 5529SOL    HW217487   3.735   0.333   0.175  0.0550 -0.9412 -1.2364
 5530SOL     OW17488   1.187   2.794   0.291  0.1632 -0.0698  0.2150
 5530SOL    HW117489   1.101   2.820   0.246 -0.5023 -1.1521  0.8209
 5530SOL    HW217490   1.264   2.832   0.239 -0.6551  0.4523 -0.6575
 5531SOL     OW17491   1.186   4.787   1.169  0.2779 -0.1208  0.4495
 5531SOL    HW117492   1.139   4.778   1.081 -0.1974 -0.9608  0.7747
 5531SOL    HW217493   1.138   4.733   1.238  1.4701 -0.6630  0.8827
 5532SOL     OW17494   6.464   3.681   6.435 -0.1531 -0.1650  0.0726
 5532SOL    HW117495   6.507   3.758   6.482 -0.8953  0.2105  0.1599
 5532SOL    HW217496   6.400   3.716   6.367  1.3813 -0.6900 -1.7072
 5533SOL     OW17497   4.885   1.520   3.306  0.4025  0.0308  0.1574
 5533SOL    HW117498   4.788   1.511   3.330  0.4560  0.3190  0.4785
 5533SOL    HW217499   4.895   1.508   3.207 -0.1968  1.7829 -0.1451
 5534SOL     OW17500   1.475   6.087   2.963 -0.4557  0.3031  0.2753
 5534SOL    HW117501   1.469   6.024   3.040 -0.3341  0.0025  0.0411
 5534SOL    HW217502   1.571   6.107   2.943 -0.5096  1.6621  1.2298
 5535SOL     OW17503   0.644   0.743   1.545 -0.6602 -0.6961  0.3099
 5535SOL    HW117504   0.604   0.802   1.476  0.3019  3.2383  2.8010
 5535SOL    HW217505   0.730   0.705   1.510  0.0257  1.5326 -0.5605
 5536SOL     OW17506   5.309   6.719   3.272  0.1083 -0.2116 -0.3948
 5536SOL    HW117507   5.397   6.702   3.316 -0.0281 -0.1902 -0.1119
 5536SOL    HW217508   5.242   6.654   3.308 -0.0395 -0.0964 -0.4623
 5537SOL     OW17509   2.855   0.781   3.429 -0.0301  0.6121 -0.0238
 5537SOL    HW117510   2.810   0.807   3.343  0.5939  0.7755 -0.3073
 5537SOL    HW217511   2.940   0.732   3.409 -0.4282 -0.3306  0.5055
 5538SOL     OW17512   4.829   5.535   4.966 -0.0969 -0.0793  0.5006
 5538SOL    HW117513   4.864   5.613   5.019  0.0163  0.4011 -0.2734
 5538SOL    HW217514   4.792   5.567   4.879 -0.8648 -0.7913  0.5478
 5539SOL     OW17515   0.087   2.742   5.641  0.1535 -0.1822  0.6804
 5539SOL    HW117516   0.066   2.839   5.654  0.4523 -0.0518  0.2012
 5539SOL    HW217517   0.002   2.691   5.630  0.0421  0.3179 -1.0723
 5540SOL     OW17518   4.206   5.470   1.820 -0.2356 -0.2115  0.1570
 5540SOL    HW117519   4.243   5.398   1.762 -1.6464 -0.4494 -0.4758
 5540SOL    HW217520   4.269   5.549   1.820  0.3731 -0.6819 -0.6837
 5541SOL     OW17521   6.175   1.293   4.797  0.2893 -0.4477 -0.1479
 5541SOL    HW117522   6.098   1.351   4.772 -0.2436 -1.4129 -0.7923
 5541SOL    HW217523   6.240   1.288   4.722  0.8442  0.1118  0.2798
 5542SOL     OW17524   4.483   3.764   5.344 -0.7500  0.2332  0.1286
 5542SOL    HW117525   4.445   3.701   5.412  1.1270  0.5335  1.5206
 5542SOL    HW217526   4.551   3.716   5.289 -0.3289  0.6801  0.2537
 5543SOL     OW17527   1.324   1.424   4.507 -0.0750 -0.0645 -0.1235
 5543SOL    HW117528   1.372   1.443   4.421  0.5446  0.0576  0.2416
 5543SOL    HW217529   1.386   1.439   4.584 -0.2586 -1.3329  0.2979
 5544SOL     OW17530   4.688   0.796   0.290  0.1174  0.3180 -0.4110
 5544SOL    HW117531   4.735   0.832   0.371 -0.0996  0.2799 -0.2641
 5544SOL    HW217532   4.697   0.696   0.287 -2.6574 -0.1130  1.4372
 5545SOL     OW17533   1.574   2.883   1.580  0.0235 -0.6013 -0.1149
 5545SOL    HW117534   1.585   2.789   1.547  2.6718 -0.4296  0.0043
 5545SOL    HW217535   1.658   2.911   1.627 -1.9798  0.6996  2.9058
 5546SOL     OW17536   5.149   3.802   5.007 -0.6018 -1.0018 -0.0664
 5546SOL    HW117537   5.054   3.831   4.996 -0.4065  0.0895  0.9601
 5546SOL    HW217538   5.189   3.849   5.085  2.3221  2.6392 -3.3302
 5547SOL     OW17539   0.635   5.038   3.701  0.2990 -0.1089 -0.0158
 5547SOL    HW117540   0.667   5.068   3.611 -2.3078 -1.1988 -1.4210
 5547SOL    HW217541   0.653   4.940   3.712  0.7113  0.0401  0.7290
 5548SOL     OW17542   0.548   1.173   3.880  0.2965 -0.3212  0.8624
 5548SOL    HW117543   0.604   1.253   3.902  0.1857 -0.4952  1.8182
 5548SOL    HW217544   0.525   1.174   3.783  2.1377 -0.3614  0.3835
 5549SOL     OW17545   2.642   4.641   6.898 -0.1921  0.2984  0.3000
 5549SOL    HW117546   2.590   4.564   6.933  1.8554 -1.2227  0.1538
 5549SOL    HW217547   2.584   4.694   6.836 -2.0844 -0.2407  1.5129
 5550SOL     OW17548   1.560   0.880   2.845 -0.5221  0.5084  0.0043
 5550SOL    HW117549   1.529   0.808   2.783  0.0930  0.1317  0.1265
 5550SOL    HW217550   1.514   0.966   2.822  1.5293  1.0368 -2.6836
 5551SOL     OW17551   1.505   1.602   0.622 -0.1659 -0.7723 -0.4049
 5551SOL    HW117552   1.508   1.540   0.544  1.7987  1.3073 -2.1201
 5551SOL    HW217553   1.413   1.640   0.631 -0.3632 -0.8090 -1.9405
 5552SOL     OW17554   1.369   2.581   1.961  0.0527  0.0938  0.0701
 5552SOL    HW117555   1.368   2.672   2.001  0.9007 -0.2497  0.9177
 5552SOL    HW217556   1.306   2.522   2.011  2.5621 -0.8824  2.3837
 5553SOL     OW17557   4.474   6.963   5.596 -0.1082 -0.5363 -0.4215
 5553SOL    HW117558   4.446   6.918   5.681 -0.4023  1.6809  0.7370
 5553SOL    HW217559   4.567   6.998   5.606 -0.7399  1.2214 -0.3064
 5554SOL     OW17560   2.526   2.320   3.808  0.0936 -0.2477 -0.0447
 5554SOL    HW117561   2.558   2.312   3.713  0.3516 -0.6500  0.0754
 5554SOL    HW217562   2.427   2.333   3.808 -0.1868 -2.0831 -0.3267
 5555SOL     OW17563   0.837   5.382   0.057 -0.6085  0.3939 -0.4121
 5555SOL    HW117564   0.760   5.403  -0.004 -0.9155  1.8798  0.4408
 5555SOL    HW217565   0.805   5.380   0.152  0.0846 -0.7522 -0.1847
 5556SOL     OW17566   0.705   2.042   4.230  0.2790 -0.0290  0.2562
 5556SOL    HW117567   0.771   2.005   4.295 -0.1786 -1.0662  0.1543
 5556SOL    HW217568   0.682   1.972   4.163 -2.1603 -0.2821  1.2586
 5557SOL     OW17569   2.805   6.729   1.438 -0.0881 -0.5434  0.1544
 5557SOL    HW117570   2.836   6.776   1.354 -0.5835 -0.7540 -0.1490
 5557SOL    HW217571   2.840   6.778   1.518 -1.7404  1.2020 -0.1094
 5558SOL     OW17572   3.932   1.186   6.466 -0.3131  0.0592 -0.0675
 5558SOL    HW117573   3.933   1.273   6.515  0.9745 -0.4342  0.8158
 5558SOL    HW217574   4.012   1.180   6.407  0.2156 -0.9976  0.7365
 5559SOL     OW17575   2.391   1.219   2.021 -0.3708 -0.4071 -0.3251
 5559SOL    HW117576   2.360   1.142   1.966  1.6191 -1.5595  0.0792
 5559SOL    HW217577   2.324   1.293   2.016 -2.5524 -2.2811 -0.4098
 5560SOL     OW17578   0.560   0.957   4.961  0.5314  0.6182 -0.4476
 5560SOL    HW117579   0.577   0.858   4.964  1.1818  0.7450  0.4352
 5560SOL    HW217580   0.622   1.003   5.024 -1.9189  1.2994  1.5978
 5561SOL     OW17581   2.331   6.384   6.755  0.2096  0.4052 -0.8799
 5561SOL    HW117582   2.363   6.299   6.798 -1.0804 -0.3119 -1.2671
 5561SOL    HW217583   2.296   6.445   6.826 -1.5272 -0.6061 -0.8056
 5562SOL     OW17584   1.184   1.495   0.772  0.4363  0.0245 -0.1465
 5562SOL    HW117585   1.129   1.519   0.692 -0.1282  1.1261  0.5505
 5562SOL    HW217586   1.124   1.481   0.851  1.0506 -0.2933  0.2765
 5563SOL     OW17587   3.016   2.244   7.007  0.3797  0.1302  0.0837
 5563SOL    HW117588   2.933   2.197   7.035 -0.0372  0.5414 -0.4523
 5563SOL    HW217589   3.022   2.246   6.908 -1.2730  3.9486 -0.1101
 5564SOL     OW17590   5.968   1.234   2.479 -0.5960 -0.0385  0.5413
 5564SOL    HW117591   5.880   1.188   2.471  0.0907 -1.3001 -0.0134
 5564SOL    HW217592   6.026   1.210   2.402  0.2367  0.7959  0.8821
 5565SOL     OW17593   2.072   2.751   0.047 -0.2845  0.3835  0.5660
 5565SOL    HW117594   2.049   2.806  -0.033  0.8474  1.5234  0.9884
 5565SOL    HW217595   2.002   2.763   0.118 -0.8733 -0.0086  0.0645
 5566SOL     OW17596   3.216   5.191   1.244  0.4014 -0.2300  0.2307
 5566SOL    HW117597   3.300   5.188   1.191  1.4226 -1.1982  1.8106
 5566SOL    HW217598   3.215   5.116   1.310 -0.9461  0.7102  1.3549
 5567SOL     OW17599   1.392   4.368   5.899 -0.4398  0.0223 -0.2582
 5567SOL    HW117600   1.341   4.445   5.938  1.4138  0.2546  1.8913
 5567SOL    HW217601   1.425   4.393   5.808 -0.8614  1.3343 -0.0778
 5568SOL     OW17602   3.113   0.839   0.907  0.1279 -0.2121 -0.4594
 5568SOL    HW117603   3.164   0.882   0.833  2.4112  0.1596  1.2261
 5568SOL    HW217604   3.141   0.879   0.995 -2.3079 -0.7808  0.6836
 5569SOL     OW17605   3.950   0.767   0.632  0.1337 -0.3340 -0.1021
 5569SOL    HW117606   3.871   0.730   0.682  0.6049  0.0118  0.9182
 5569SOL    HW217607   3.946   0.866   0.633 -0.4009 -0.3092 -1.6735
 5570SOL     OW17608   6.660   2.084   6.201  0.5710 -0.2362  0.2910
 5570SOL    HW117609   6.568   2.051   6.179  0.4516 -0.7771  1.4938
 5570SOL    HW217610   6.663   2.183   6.193 -0.1076 -0.2164  0.2247
 5571SOL     OW17611   1.189   4.209   6.014 -0.3330  0.1819 -0.2822
 5571SOL    HW117612   1.273   4.246   5.976 -0.6289 -0.4360 -1.6019
 5571SOL    HW217613   1.115   4.276   6.005  0.2941  1.2984  2.1963
 5572SOL     OW17614   1.171   0.983   5.771  0.2056 -0.8936  0.2149
 5572SOL    HW117615   1.201   1.058   5.831 -0.7578 -0.7447  0.5174
 5572SOL    HW217616   1.074   0.992   5.751 -0.1072 -2.4842  0.8668
 5573SOL     OW17617   6.977   4.416   6.483 -0.1341 -0.2084  0.4648
 5573SOL    HW117618   7.043   4.346   6.456  0.0662 -0.4217  1.4776
 5573SOL    HW217619   6.988   4.496   6.423 -0.7506 -1.2276 -1.0628
 5574SOL     OW17620   2.662   0.185   3.139  0.3483 -0.7307  1.1455
 5574SOL    HW117621   2.576   0.194   3.190 -0.4305  0.0828 -0.2341
 5574SOL    HW217622   2.677   0.089   3.116  0.3626 -1.0157  2.2857
 5575SOL     OW17623   1.313   2.211   2.588 -0.5229 -0.2919  0.1706
 5575SOL    HW117624   1.359   2.147   2.526  0.6325 -1.5609  2.2008
 5575SOL    HW217625   1.360   2.299   2.586  1.3004 -1.1644  1.2185
 5576SOL     OW17626   5.164   6.648   0.542 -0.0721  0.0239  0.2036
 5576SOL    HW117627   5.220   6.621   0.620  0.2612 -2.7417 -0.8779
 5576SOL    HW217628   5.071   6.613   0.555 -0.1839  0.1197 -0.3167
 5577SOL     OW17629   0.867   1.619   3.379  0.2158 -0.5572  0.4765
 5577SOL    HW117630   0.907   1.557   3.311 -1.6537 -1.8588  0.4819
 5577SOL    HW217631   0.824   1.565   3.452 -0.7482  0.7570  0.9106
 5578SOL     OW17632   2.012   1.862   4.593 -0.6833  0.5302 -0.2252
 5578SOL    HW117633   1.945   1.860   4.519 -1.6735 -0.1099  0.6502
 5578SOL    HW217634   1.988   1.792   4.661  0.1711  1.1226  0.7115
 5579SOL     OW17635   4.454   4.849   2.818  0.0600 -0.4851 -0.6865
 5579SOL    HW117636   4.533   4.860   2.758  0.0116 -0.5818 -0.7674
 5579SOL    HW217637   4.395   4.929   2.810  0.7885  0.1794  0.3230
 5580SOL     OW17638   6.934   3.052   0.920  0.0233 -0.0385  0.3843
 5580SOL    HW117639   6.963   3.043   0.825  0.2027 -0.3143  0.4661
 5580SOL    HW217640   6.956   3.144   0.952 -2.0120  0.8456 -0.5115
 5581SOL     OW17641   2.531   3.030   6.328 -0.0398  0.0044 -0.1797
 5581SOL    HW117642   2.432   3.034   6.326 -0.0342  0.3533  0.1418
 5581SOL    HW217643   2.560   2.966   6.398 -0.0188  2.1801  1.9298
 5582SOL     OW17644   3.082   3.982   3.465  0.0011 -0.8534  0.1357
 5582SOL    HW117645   3.015   4.040   3.419 -1.1249 -1.4700  0.9437
 5582SOL    HW217646   3.089   3.894   3.417  1.1849 -0.3468 -0.6754
 5583SOL     OW17647   4.399   6.584   5.927 -0.3630  0.0952 -0.3671
 5583SOL    HW117648   4.384   6.492   5.892  1.2295 -0.2240 -0.2988
 5583SOL    HW217649   4.320   6.612   5.982 -2.0875 -0.1237 -2.5988
 5584SOL     OW17650   4.905   3.859   3.931 -0.2968 -0.0202 -0.0466
 5584SOL    HW117651   4.950   3.899   3.852 -2.2191  0.8493 -0.7608
 5584SOL    HW217652   4.873   3.931   3.993  1.0769 -0.6775  1.5224
 5585SOL     OW17653   3.061   6.946   5.044  0.3138 -0.9149  0.2282
 5585SOL    HW117654   2.998   6.989   5.109  1.5886 -0.7337  1.3798
 5585SOL    HW217655   3.016   6.868   5.000 -0.6662 -0.8489  1.0881
 5586SOL     OW17656   2.928   6.752   0.410  0.4388 -0.1613 -0.1719
 5586SOL    HW117657   2.954   6.819   0.480  1.3110 -2.9686  2.4073
 5586SOL    HW217658   2.910   6.664   0.454  0.5524 -1.9841 -3.4957
 5587SOL     OW17659   4.513   0.112   3.474  0.1063 -0.1848 -0.1886
 5587SOL    HW117660   4.612   0.110   3.487  0.0897  0.2515  0.0170
 5587SOL    HW217661   4.485   0.031   3.423  0.4280 -0.9253  0.7705
 5588SOL     OW17662   5.424   4.773   6.545  0.1707 -0.0747 -0.4641
 5588SOL    HW117663   5.371   4.857   6.543 -0.7171 -0.6300 -0.4623
 5588SOL    HW217664   5.520   4.794   6.567 -0.3194  0.7830  0.9386
 5589SOL     OW17665   0.345   3.159   5.366 -0.5674 -0.2781 -0.2134
 5589SOL    HW117666   0.372   3.190   5.457 -2.2398  0.2434  0.1399
 5589SOL    HW217667   0.288   3.077   5.374 -1.7020  0.4359 -0.6833
 5590SOL     OW17668   5.277   1.317   4.417  0.2088  0.1369 -0.3960
 5590SOL    HW117669   5.265   1.394   4.354  0.9200  0.2244 -0.4297
 5590SOL    HW217670   5.371   1.285   4.413  1.1106  1.9669  2.6447
 5591SOL     OW17671   5.811   0.106   6.755  0.2825  0.1049 -0.4893
 5591SOL    HW117672   5.893   0.056   6.729  0.7886  0.0671  1.0865
 5591SOL    HW217673   5.821   0.202   6.730 -0.2057 -0.3020 -2.4462
 5592SOL     OW17674   6.466   2.585   2.128  0.0303  0.4435  0.2749
 5592SOL    HW117675   6.497   2.629   2.212 -0.5147  2.8559 -0.6871
 5592SOL    HW217676   6.373   2.551   2.141  0.3882 -0.2927  0.9910
 5593SOL     OW17677   1.530   5.141   5.856 -0.4586  0.4753  0.3666
 5593SOL    HW117678   1.473   5.101   5.783  0.1087 -0.1781  0.2711
 5593SOL    HW217679   1.512   5.093   5.942  0.2906 -0.0645  0.2327
 5594SOL     OW17680   3.631   6.861   4.733 -0.0102 -0.1235 -0.2335
 5594SOL    HW117681   3.659   6.944   4.782 -1.0156  0.3783 -0.4649
 5594SOL    HW217682   3.561   6.885   4.665 -2.2266 -1.4883  1.4060
 5595SOL     OW17683   0.051   2.703   1.503  0.2986 -0.4552  0.2146
 5595SOL    HW117684   0.075   2.782   1.560 -0.6029 -0.0597  0.0737
 5595SOL    HW217685  -0.034   2.724   1.453  1.0434 -0.7939 -1.2446
 5596SOL     OW17686   4.298   2.307   4.958 -0.1912 -0.9250  0.2656
 5596SOL    HW117687   4.274   2.391   5.007  0.7208 -0.0024 -0.8034
 5596SOL    HW217688   4.274   2.228   5.014 -0.6765  0.0486  1.4875
 5597SOL     OW17689   6.224   2.775   0.713  0.0862 -0.1908  0.5223
 5597SOL    HW117690   6.124   2.763   0.710 -0.2421  1.8495  0.9852
 5597SOL    HW217691   6.269   2.690   0.688 -1.7652 -1.5684  1.5586
 5598SOL     OW17692   6.276   0.840   2.290  0.1379 -0.1845 -0.8404
 5598SOL    HW117693   6.313   0.933   2.299  0.0157 -0.2803  1.1528
 5598SOL    HW217694   6.221   0.834   2.206  0.9517  1.2428 -1.5102
 5599SOL     OW17695   5.285   4.863   2.620  0.7800  0.0847  0.4294
 5599SOL    HW117696   5.210   4.882   2.556  0.0926 -0.0023  1.1888
 5599SOL    HW217697   5.279   4.925   2.698  0.0332 -1.4944  1.6808
 5600SOL     OW17698   1.359   4.647   0.974  0.0796  0.0260 -0.7646
 5600SOL    HW117699   1.332   4.714   1.042 -1.7846 -0.8308 -0.5857
 5600SOL    HW217700   1.405   4.570   1.019  0.4309  0.2725 -0.7046
 5601SOL     OW17701   5.711   2.537   0.673  0.1451  0.1294  0.2048
 5601SOL    HW117702   5.694   2.508   0.767  1.1215 -1.0864  0.0266
 5601SOL    HW217703   5.666   2.474   0.610 -0.5493  0.9677 -0.1595
 5602SOL     OW17704   6.876   0.037   2.990  0.7910 -0.2333 -0.2903
 5602SOL    HW117705   6.875   0.031   3.090  3.7686  1.7133 -0.0036
 5602SOL    HW217706   6.794   0.085   2.959  0.6919  0.8095  1.4451
 5603SOL     OW17707   3.390   1.252   5.355  0.4334 -0.0176  0.2806
 5603SOL    HW117708   3.377   1.153   5.360 -0.5978  0.1424  1.0482
 5603SOL    HW217709   3.488   1.273   5.361  0.5562 -0.8827  2.8996
 5604SOL     OW17710   1.262   5.365   2.790  0.0480  0.0764 -0.0708
 5604SOL    HW117711   1.184   5.348   2.729 -0.0250  0.0220  0.0363
 5604SOL    HW217712   1.264   5.295   2.861  0.5509 -0.2742 -0.4268
 5605SOL     OW17713   5.109   6.707   2.964  0.0627 -0.1363  0.3963
 5605SOL    HW117714   5.115   6.787   3.023 -2.0591 -0.9720  1.8469
 5605SOL    HW217715   5.137   6.733   2.871 -0.2312  2.1851  0.8858
 5606SOL     OW17716   3.895   3.165   0.932  0.5358  0.1088  0.3944
 5606SOL    HW117717   3.799   3.175   0.958  0.2520 -0.7013 -0.2626
 5606SOL    HW217718   3.929   3.077   0.965  0.3794 -0.6084 -1.2569
 5607SOL     OW17719   2.017   1.479   1.745  0.3663  0.2685  0.0584
 5607SOL    HW117720   2.051   1.522   1.661 -0.3007 -0.1759 -0.4505
 5607SOL    HW217721   1.949   1.538   1.788  0.3228  0.2573  0.0046
 5608SOL     OW17722   0.382   6.529   2.414 -0.0971  0.4387  0.1008
 5608SOL    HW117723   0.478   6.540   2.389 -0.3041  0.8013 -0.5535
 5608SOL    HW217724   0.375   6.466   2.491  0.7269  1.0867  0.7248
 5609SOL     OW17725   4.637   0.498   0.461 -0.0928 -0.0010  0.4117
 5609SOL    HW117726   4.701   0.500   0.384 -1.9722  0.1449 -1.2404
 5609SOL    HW217727   4.642   0.584   0.511  0.5461  0.2513 -0.0707
 5610SOL     OW17728   4.949   5.901   6.827 -0.0888 -0.3357 -0.5612
 5610SOL    HW117729   5.048   5.890   6.819  0.0230  0.8876 -1.1268
 5610SOL    HW217730   4.925   5.924   6.922  0.4222  1.3724 -0.8029
 5611SOL     OW17731   1.145   4.596   2.940  0.4045  0.1986  0.0599
 5611SOL    HW117732   1.102   4.506   2.949 -1.0700  0.9477  0.9200
 5611SOL    HW217733   1.234   4.596   2.984  0.1646 -0.6766  0.5622
 5612SOL     OW17734   5.134   4.019   1.952  0.2727 -0.0793 -0.0346
 5612SOL    HW117735   5.052   3.963   1.944 -0.5890  1.1029  0.1236
 5612SOL    HW217736   5.186   3.992   2.033 -0.9769  0.3971  0.9615
 5613SOL     OW17737   0.679   6.717   5.803 -0.1183 -0.0423 -0.4694
 5613SOL    HW117738   0.710   6.795   5.748 -0.1744  0.4931  0.2484
 5613SOL    HW217739   0.755   6.654   5.818  0.8123  1.4719  1.6520
 5614SOL     OW17740   5.657   2.918   3.607 -0.0316  0.7223 -0.3018
 5614SOL    HW117741   5.711   2.917   3.523 -1.0520  0.4159 -0.9801
 5614SOL    HW217742   5.718   2.914   3.687  0.9412  0.8508 -1.0239
 5615SOL     OW17743   0.243   4.302   3.596 -0.0858 -0.0667  0.2642
 5615SOL    HW117744   0.143   4.313   3.599 -0.1660 -0.3323 -0.8067
 5615SOL    HW217745   0.276   4.270   3.685 -1.5535 -4.5779 -0.5536
 5616SOL     OW17746   1.918   3.832   0.513 -0.1492  0.5329  0.0410
 5616SOL    HW117747   1.978   3.790   0.445 -0.5056 -0.7012  0.4462
 5616SOL    HW217748   1.952   3.811   0.605 -0.1601  1.4332  0.2542
 5617SOL     OW17749   0.125   4.600   4.524 -0.3681  0.0699 -0.3628
 5617SOL    HW117750   0.146   4.551   4.609 -1.6241  1.4686  0.8279
 5617SOL    HW217751   0.083   4.538   4.458  0.1399 -0.9271  0.2331
 5618SOL     OW17752   4.440   0.684   3.603 -0.6419  0.8194 -0.6755
 5618SOL    HW117753   4.344   0.665   3.584 -0.8168  0.6151  0.3654
 5618SOL    HW217754   4.456   0.678   3.701  0.6137  0.0295 -0.9127
 5619SOL     OW17755   3.541   4.154   3.326 -0.1492 -0.0038 -0.2247
 5619SOL    HW117756   3.543   4.223   3.398 -1.4564 -0.3288  0.1375
 5619SOL    HW217757   3.453   4.157   3.279  0.4196 -0.2835 -1.3386
 5620SOL     OW17758   5.622   6.664   6.380  0.0444  0.0682 -0.0976
 5620SOL    HW117759   5.622   6.575   6.334 -0.3869  0.2754 -0.4975
 5620SOL    HW217760   5.642   6.650   6.477  1.9223 -0.2875 -0.4925
 5621SOL     OW17761   0.421   3.179   4.891 -0.1844 -0.2307  0.3832
 5621SOL    HW117762   0.321   3.180   4.887 -0.2100  0.1748  1.0552
 5621SOL    HW217763   0.453   3.088   4.916 -0.3262 -0.7197 -1.1165
 5622SOL     OW17764   5.675   5.813   4.425  0.0842 -0.4130 -0.3772
 5622SOL    HW117765   5.643   5.895   4.377 -2.1416 -0.9045  0.1400
 5622SOL    HW217766   5.691   5.835   4.521 -0.6957 -0.5901 -0.1961
 5623SOL     OW17767   5.349   6.413   4.092  0.3374  0.4323  0.1189
 5623SOL    HW117768   5.271   6.393   4.150  0.6191  1.6724  0.9775
 5623SOL    HW217769   5.319   6.427   3.998 -0.5713  1.4870  0.5477
 5624SOL     OW17770   1.718   4.898   2.406  0.3144  0.0004 -0.6654
 5624SOL    HW117771   1.700   4.989   2.369 -0.8361  0.1610  0.2092
 5624SOL    HW217772   1.639   4.839   2.389  0.1170 -0.1707  0.6929
 5625SOL     OW17773   2.680   5.657   6.889 -0.1323  0.4660 -0.8779
 5625SOL    HW117774   2.683   5.610   6.977  0.2686  0.7810 -0.7194
 5625SOL    HW217775   2.771   5.694   6.868 -0.4873  1.3726 -0.8760
 5626SOL     OW17776   1.849   4.913   1.142  0.0102 -0.3219 -0.7072
 5626SOL    HW117777   1.947   4.907   1.161 -0.1232  1.7249  0.8520
 5626SOL    HW217778   1.835   4.935   1.045  1.0845 -0.0957 -0.8185
 5627SOL     OW17779   1.063   5.424   1.599  0.2996  0.1475  0.5019
 5627SOL    HW117780   1.145   5.389   1.554 -0.0845  0.8075 -0.7571
 5627SOL    HW217781   0.984   5.414   1.539 -0.3363  0.5785  1.2352
 5628SOL     OW17782   1.181   2.996   0.843 -0.2091  0.6230 -0.4376
 5628SOL    HW117783   1.138   3.017   0.931  1.5919  1.6303  0.2448
 5628SOL    HW217784   1.200   2.898   0.838  1.4573  0.7997  1.1911
 5629SOL     OW17785   5.964   3.850   4.429 -0.5482 -0.0043 -0.1747
 5629SOL    HW117786   6.045   3.868   4.485  0.9286 -1.4824 -1.7310
 5629SOL    HW217787   5.957   3.921   4.359  1.6201 -1.7565 -2.3381
 5630SOL     OW17788   0.358   5.006   1.112 -0.5487  0.6515 -0.0550
 5630SOL    HW117789   0.367   4.934   1.181  0.1091  0.7058 -0.0770
 5630SOL    HW217790   0.282   5.066   1.137  0.4784  1.4417  1.3432
 5631SOL     OW17791   5.217   1.642   4.577 -0.1023 -0.0592  0.5218
 5631SOL    HW117792   5.289   1.629   4.509  0.2137 -0.8274  0.9926
 5631SOL    HW217793   5.135   1.680   4.532  1.1882  2.7310  0.2929
 5632SOL     OW17794   3.560   1.302   6.226 -0.3087  0.5983 -0.6725
 5632SOL    HW117795   3.551   1.220   6.170  1.5873  0.2205 -0.5014
 5632SOL    HW217796   3.534   1.282   6.320  2.0263 -0.4434 -0.1738
 5633SOL     OW17797   6.815   4.932   0.082  0.2073  0.3284 -0.1641
 5633SOL    HW117798   6.915   4.928   0.085  0.1702  0.0369  1.4898
 5633SOL    HW217799   6.779   4.839   0.067  0.1815  0.4605 -0.9434
 5634SOL     OW17800   1.714   0.120   1.869  0.4613  0.3889 -0.1861
 5634SOL    HW117801   1.770   0.080   1.942 -1.0206 -0.6518  0.4341
 5634SOL    HW217802   1.753   0.096   1.780  0.8046 -0.6058  0.2193
 5635SOL     OW17803   4.215   0.112   0.864 -0.5034 -0.8099 -0.5360
 5635SOL    HW117804   4.206   0.127   0.962 -1.3881 -1.2358 -0.5378
 5635SOL    HW217805   4.312   0.109   0.839 -0.2769 -0.1304  0.2272
 5636SOL     OW17806   5.899   6.507   6.329  0.0009 -0.2635 -0.4465
 5636SOL    HW117807   5.994   6.535   6.343 -0.2978  0.4605  0.2263
 5636SOL    HW217808   5.851   6.577   6.276  0.2227 -1.3594 -2.1663
 5637SOL     OW17809   0.283   6.809   5.445  0.3852 -0.5093  0.0641
 5637SOL    HW117810   0.329   6.825   5.532 -0.6099 -0.9970  0.7025
 5637SOL    HW217811   0.351   6.793   5.374  1.2032 -0.8830  0.9074
 5638SOL     OW17812   6.603   4.726   6.400  0.0133 -0.1119 -0.0158
 5638SOL    HW117813   6.653   4.645   6.429  0.9240  1.1843  2.2908
 5638SOL    HW217814   6.659   4.780   6.337  1.3610  1.0005  2.0469
 5639SOL     OW17815   2.789   1.191   3.545 -0.3241 -0.1504  0.1258
 5639SOL    HW117816   2.831   1.147   3.624  2.6470  1.9590 -0.0935
 5639SOL    HW217817   2.841   1.273   3.522 -1.0993 -0.6132 -3.9779
 5640SOL     OW17818   4.569   1.470   3.038 -0.2314 -0.3309 -0.7429
 5640SOL    HW117819   4.530   1.420   2.961 -1.2881  1.7178 -1.6241
 5640SOL    HW217820   4.628   1.543   3.003 -3.1818  2.7115  0.1057
 5641SOL     OW17821   6.483   4.600   3.388 -0.5213  0.6178 -0.0660
 5641SOL    HW117822   6.497   4.633   3.295 -2.6950  1.3388 -0.2029
 5641SOL    HW217823   6.430   4.515   3.385  0.0630  0.2255  0.5044
 5642SOL     OW17824   1.482   0.085   0.602 -0.6352 -0.0430 -0.1622
 5642SOL    HW117825   1.415   0.013   0.620 -0.7601 -0.1911 -1.1827
 5642SOL    HW217826   1.524   0.070   0.513 -1.1625  1.5108 -0.7059
 5643SOL     OW17827   5.774   3.258   2.838 -0.0100  0.2635 -0.5000
 5643SOL    HW117828   5.795   3.237   2.933  0.7648 -0.1778 -0.7578
 5643SOL    HW217829   5.765   3.173   2.786  0.5415  0.5048 -1.0121
 5644SOL     OW17830   3.529   0.037   6.340 -0.1376  0.4757  0.6079
 5644SOL    HW117831   3.495   0.128   6.318 -0.7150  0.5287  1.6457
 5644SOL    HW217832   3.627   0.033   6.324 -0.2401  1.0341 -0.2072
 5645SOL     OW17833   0.215   5.741   3.507  0.6931  0.4054 -0.4376
 5645SOL    HW117834   0.241   5.672   3.440  1.5984 -1.1846  1.4481
 5645SOL    HW217835   0.122   5.773   3.489 -0.2727 -2.3022 -0.6221
 5646SOL     OW17836   6.777   0.253   4.341  0.6067  0.3547  0.0727
 5646SOL    HW117837   6.693   0.260   4.394 -0.6065  1.5429 -1.8797
 5646SOL    HW217838   6.784   0.331   4.278  1.8716 -1.0457 -1.6325
 5647SOL     OW17839   4.476   4.805   5.768 -0.5043  0.3784 -0.0696
 5647SOL    HW117840   4.552   4.778   5.827 -1.1926 -0.8103  0.3213
 5647SOL    HW217841   4.506   4.875   5.704  1.0274 -0.3102 -0.1505
 5648SOL     OW17842   2.578   1.835   5.610  0.7603  0.0472 -0.3300
 5648SOL    HW117843   2.531   1.915   5.570 -0.0613 -0.3721 -0.2344
 5648SOL    HW217844   2.674   1.857   5.626  0.7847  0.6718 -1.2711
 5649SOL     OW17845   0.649   0.305   5.847  0.2171  0.4249 -0.3017
 5649SOL    HW117846   0.615   0.348   5.763  0.4821  3.1266  0.8552
 5649SOL    HW217847   0.742   0.337   5.865  0.2337 -0.2529  0.9208
 5650SOL     OW17848   6.895   5.420   5.663 -0.2296  0.3289 -0.0036
 5650SOL    HW117849   6.886   5.385   5.570 -0.9084 -0.7433  0.4357
 5650SOL    HW217850   6.935   5.349   5.721  1.2384  1.3699  0.3174
 5651SOL     OW17851   5.416   0.447   1.624  0.4169 -0.4343  0.0152
 5651SOL    HW117852   5.425   0.348   1.615 -0.0083 -0.5563  0.8530
 5651SOL    HW217853   5.425   0.473   1.720 -1.7205  0.0878  0.1279
 5652SOL     OW17854   4.690   3.700   1.013  0.1615  0.1082 -0.0833
 5652SOL    HW117855   4.756   3.656   0.952 -1.1225 -1.0322 -0.6832
 5652SOL    HW217856   4.619   3.635   1.039 -0.1062  0.9780  1.5159
 5653SOL     OW17857   2.266   6.460   7.023  0.5935  0.1488  0.1903
 5653SOL    HW117858   2.195   6.391   7.012 -0.3209  0.9712  0.8075
 5653SOL    HW217859   2.229   6.540   7.071  1.8189  0.7736  0.1488
 5654SOL     OW17860   3.612   6.316   5.515  0.6171 -0.2604  0.4402
 5654SOL    HW117861   3.598   6.408   5.479  1.4203 -0.3948 -0.2367
 5654SOL    HW217862   3.523   6.276   5.540  0.2578  0.6543  0.6617
 5655SOL     OW17863   6.813   5.885   3.089 -0.1863  0.1908 -0.0916
 5655SOL    HW117864   6.900   5.895   3.137 -0.3998  1.2946  0.0998
 5655SOL    HW217865   6.774   5.796   3.110 -0.5958  0.8819  2.4063
 5656SOL     OW17866   4.784   5.149   5.769 -0.2056 -0.5501 -0.3026
 5656SOL    HW117867   4.793   5.103   5.680  1.3984  1.6455 -1.4079
 5656SOL    HW217868   4.771   5.247   5.754 -1.1288 -0.2770  1.9207
 5657SOL     OW17869   3.585   4.929   2.560  0.0524 -0.0992 -0.3320
 5657SOL    HW117870   3.641   4.909   2.640  1.0235 -1.1263 -1.2393
 5657SOL    HW217871   3.492   4.896   2.575 -0.1771  1.0285  0.9212
 5658SOL     OW17872   4.014   6.932   6.640  0.5682 -0.7937 -0.4349
 5658SOL    HW117873   4.076   7.002   6.675 -0.6949 -0.5679  1.4794
 5658SOL    HW217874   4.067   6.861   6.594  2.0326  0.4603 -0.7551
 5659SOL     OW17875   3.724   3.640   3.849 -0.4286  0.1950  0.1352
 5659SOL    HW117876   3.650   3.692   3.892  0.1764  0.7932  0.4979
 5659SOL    HW217877   3.766   3.580   3.917 -0.8758 -0.4800 -0.1863
 5660SOL     OW17878   1.045   6.175   0.627  0.2913  0.2354 -0.4679
 5660SOL    HW117879   1.103   6.204   0.550  2.9792 -1.1469  0.9053
 5660SOL    HW217880   1.000   6.256   0.666  0.8071  1.3002 -1.9590
 5661SOL     OW17881   0.877   5.931   6.510  0.0221 -0.2555  0.5438
 5661SOL    HW117882   0.957   5.872   6.501  0.3869  0.2256  0.5870
 5661SOL    HW217883   0.890   6.013   6.454 -0.9479 -0.7091 -0.3755
 5662SOL     OW17884   0.344   3.765   5.525  0.4153  0.0162 -0.2748
 5662SOL    HW117885   0.333   3.854   5.481  1.8805  0.6115  0.4756
 5662SOL    HW217886   0.432   3.763   5.573  0.1629 -1.6527  0.1648
 5663SOL     OW17887   2.477   3.461   1.013 -0.0887  0.3287  0.3963
 5663SOL    HW117888   2.493   3.368   1.045 -0.1529  0.1229 -0.1507
 5663SOL    HW217889   2.535   3.479   0.934  0.5153  1.0342  0.9946
 5664SOL     OW17890   0.452   5.984   3.577 -0.0306 -0.0123 -0.8303
 5664SOL    HW117891   0.501   6.051   3.632 -0.6216  0.6566 -1.0989
 5664SOL    HW217892   0.473   5.892   3.610 -0.4738  0.3756  0.5962
 5665SOL     OW17893   3.315   6.851   5.192  0.0201 -0.1854  0.0220
 5665SOL    HW117894   3.374   6.774   5.168  0.4519  0.1166  0.0994
 5665SOL    HW217895   3.255   6.872   5.114  2.4877  1.7903 -1.5408
 5666SOL     OW17896   6.005   5.293   0.291 -0.0409  0.3741 -0.5523
 5666SOL    HW117897   5.937   5.367   0.291 -1.5251 -0.9293  0.0757
 5666SOL    HW217898   6.011   5.254   0.382  1.6630  0.5006 -0.5743
 5667SOL     OW17899   4.022   4.274   0.949  0.3114 -0.7653 -0.4495
 5667SOL    HW117900   4.116   4.305   0.937 -0.2147  0.9514 -0.3803
 5667SOL    HW217901   3.963   4.320   0.883 -0.5243 -1.6025 -0.3000
 5668SOL     OW17902   0.109   2.670   6.897 -0.2655 -0.5786 -0.7152
 5668SOL    HW117903   0.074   2.664   6.804 -2.1949  0.9011 -0.1350
 5668SOL    HW217904   0.154   2.759   6.911  0.7966 -1.1317 -0.4535
 5669SOL     OW17905   6.146   1.740   4.249 -0.0660 -0.0364 -0.3127
 5669SOL    HW117906   6.136   1.818   4.312  0.7771  0.5413 -0.8650
 5669SOL    HW217907   6.180   1.661   4.300  1.4797  0.6829 -0.1691
 5670SOL     OW17908   2.228   4.313   3.239 -0.0823 -0.5622 -0.5332
 5670SOL    HW117909   2.199   4.307   3.335  0.7869  0.0454 -0.2274
 5670SOL    HW217910   2.162   4.369   3.188 -0.0736 -0.1549 -0.0998
 5671SOL     OW17911   1.209   0.994   5.283  0.4464  0.0589 -0.1692
 5671SOL    HW117912   1.259   0.936   5.219  1.6707 -0.7555  1.4451
 5671SOL    HW217913   1.135   0.941   5.325  0.7825  0.0194  0.3890
 5672SOL     OW17914   5.075   2.276   0.039  0.4147  0.0608  0.0976
 5672SOL    HW117915   5.167   2.267   0.003  0.6547  2.2764  0.0317
 5672SOL    HW217916   5.010   2.289  -0.036  0.3179  0.3042  0.2192
 5673SOL     OW17917   1.397   2.014   6.686 -0.3640  0.1066 -0.3595
 5673SOL    HW117918   1.320   2.055   6.637 -0.7699 -1.5333 -1.1503
 5673SOL    HW217919   1.374   2.005   6.783 -0.2595  1.6812 -0.1558
 5674SOL     OW17920   0.879   4.569   2.490  0.2984  0.0623 -0.3966
 5674SOL    HW117921   0.938   4.497   2.527  1.0871  0.4317 -0.8957
 5674SOL    HW217922   0.805   4.528   2.437 -0.5884 -0.4541  1.1806
 5675SOL     OW17923   4.708   1.105   5.015 -0.0166  0.1973 -0.5657
 5675SOL    HW117924   4.806   1.122   5.028 -0.2559  1.1705  0.0466
 5675SOL    HW217925   4.690   1.008   5.027  1.0101 -0.1486 -1.5867
 5676SOL     OW17926   3.410   4.894   1.456  0.3364  0.4029  0.3469
 5676SOL    HW117927   3.483   4.899   1.387 -0.3667 -0.8242 -0.5196
 5676SOL    HW217928   3.436   4.829   1.528  0.5219  0.7141  0.5604
 5677SOL     OW17929   6.548   0.301   3.690 -0.1467  0.7994  0.1101
 5677SOL    HW117930   6.581   0.306   3.784  1.8440 -0.1931 -0.4893
 5677SOL    HW217931   6.619   0.261   3.631 -2.0568 -0.4640 -1.4719
 5678SOL     OW17932   0.613   4.657   4.044  0.1949 -0.1422 -0.5113
 5678SOL    HW117933   0.663   4.587   4.095  3.2118  1.4907 -1.0010
 5678SOL    HW217934   0.572   4.616   3.962  1.6435 -1.3978 -0.6467
 5679SOL     OW17935   5.005   5.873   5.470 -0.0950 -0.1942 -0.3309
 5679SOL    HW117936   5.008   5.969   5.500  0.3062 -0.8225  1.7615
 5679SOL    HW217937   5.084   5.854   5.413  0.4189  0.4461  0.1472
 5680SOL     OW17938   3.809   6.162   5.988  0.3319  0.2756 -0.0447
 5680SOL    HW117939   3.715   6.161   5.952 -0.0333 -0.3002  0.8889
 5680SOL    HW217940   3.848   6.254   5.976 -0.9274  0.9859  0.9928
 5681SOL     OW17941   4.772   2.219   6.223 -0.0329  0.0738  0.6380
 5681SOL    HW117942   4.847   2.273   6.185 -0.4164  1.4533  1.7576
 5681SOL    HW217943   4.692   2.278   6.236 -1.4023 -1.3948 -0.6978
 5682SOL     OW17944   1.646   2.531   1.992 -0.1883  0.9627  0.0313
 5682SOL    HW117945   1.548   2.546   1.978 -0.4072  0.8158  1.2790
 5682SOL    HW217946   1.660   2.444   2.040  0.6849  0.0570 -1.7828
 5683SOL     OW17947   5.548   2.438   6.146 -0.3769 -0.3621 -0.6151
 5683SOL    HW117948   5.604   2.355   6.144 -0.0147 -0.4703  3.6315
 5683SOL    HW217949   5.605   2.515   6.174 -1.1259  0.9989 -2.6399
 5684SOL     OW17950   2.836   3.463   2.131 -0.0748 -0.0414 -0.0228
 5684SOL    HW117951   2.738   3.444   2.121 -0.1767  0.5414 -0.1327
 5684SOL    HW217952   2.874   3.493   2.043  0.3726 -0.9910 -0.1741
 5685SOL     OW17953   0.564   0.019   1.828 -0.3495 -0.7393  0.1294
 5685SOL    HW117954   0.560   0.118   1.842  0.8625 -0.6013 -0.3411
 5685SOL    HW217955   0.612  -0.024   1.904 -0.4710 -0.9125  0.1100
 5686SOL     OW17956   2.499   5.467   0.477 -0.1113 -0.2157 -0.0740
 5686SOL    HW117957   2.525   5.560   0.450 -1.4716 -0.4633 -2.5605
 5686SOL    HW217958   2.580   5.417   0.505  0.6148  1.7770  1.6903
 5687SOL     OW17959   6.292   0.363   6.600 -0.3539  0.8989 -0.2197
 5687SOL    HW117960   6.260   0.323   6.685 -0.9332 -0.4708 -1.0575
 5687SOL    HW217961   6.376   0.317   6.571  0.6654  2.3410  0.3328
 5688SOL     OW17962   5.247   2.243   0.652  0.3806  0.4348  0.3492
 5688SOL    HW117963   5.274   2.314   0.586  0.1775 -0.4962 -0.7750
 5688SOL    HW217964   5.287   2.264   0.741  0.7753  1.6649 -0.0911
 5689SOL     OW17965   5.369   2.775   6.801 -0.0944 -0.0932  0.3787
 5689SOL    HW117966   5.297   2.838   6.774 -0.4244 -0.6504 -0.0780
 5689SOL    HW217967   5.363   2.755   6.899  1.2357  2.1105  0.9733
 5690SOL     OW17968   3.623   5.877   3.464 -0.3754 -0.0103  0.2888
 5690SOL    HW117969   3.706   5.847   3.417 -0.0811 -0.1388  0.8825
 5690SOL    HW217970   3.572   5.941   3.405  1.2553  1.8024  0.7535
 5691SOL     OW17971   3.862   6.981   5.112  0.5623 -0.2590  0.0777
 5691SOL    HW117972   3.900   6.899   5.153  0.8306 -0.2634 -0.1719
 5691SOL    HW217973   3.813   7.034   5.181  0.9923 -0.2730  0.4002
 5692SOL     OW17974   3.718   0.994   1.859 -0.3394  0.2802  0.3320
 5692SOL    HW117975   3.623   0.965   1.848  0.0527 -0.9050 -0.0705
 5692SOL    HW217976   3.770   0.922   1.904  0.9941 -0.3270 -2.0185
 5693SOL     OW17977   5.043   3.434   2.857 -0.1156 -0.4361  0.4021
 5693SOL    HW117978   5.017   3.426   2.761 -0.7361 -0.4821  0.5683
 5693SOL    HW217979   4.974   3.488   2.906  0.8754  0.7225  0.5559
 5694SOL     OW17980   2.929   1.694   4.482 -0.4525 -0.0662 -0.0457
 5694SOL    HW117981   2.928   1.751   4.564 -0.0191 -0.3570  0.1639
 5694SOL    HW217982   3.004   1.722   4.422 -0.8413  0.2270 -0.4106
 5695SOL     OW17983   2.148   3.513   4.271  0.4693  0.1356  0.2816
 5695SOL    HW117984   2.221   3.577   4.247  1.4117 -0.9063  0.2875
 5695SOL    HW217985   2.177   3.420   4.250 -0.6251 -0.3585  0.8744
 5696SOL     OW17986   2.923   0.993   5.497  0.2591  0.0814  0.2478
 5696SOL    HW117987   2.984   0.948   5.563  0.1957  0.1785  0.3727
 5696SOL    HW217988   2.962   0.985   5.405  1.1242  1.2963  0.4955
 5697SOL     OW17989   0.447   3.466   0.226  0.2315  0.4278 -0.1053
 5697SOL    HW117990   0.415   3.520   0.148 -0.5315 -0.1590 -0.2168
 5697SOL    HW217991   0.502   3.389   0.193 -0.3843 -0.0247 -0.1098
 5698SOL     OW17992   6.642   3.037   3.179 -0.0282 -0.0444 -0.4140
 5698SOL    HW117993   6.585   2.961   3.149 -0.1479  0.0820 -0.5063
 5698SOL    HW217994   6.597   3.086   3.254 -1.7265  2.1957 -2.7165
 5699SOL     OW17995   6.781   3.014   5.943 -0.0404 -0.3848 -0.3445
 5699SOL    HW117996   6.727   3.090   5.907 -0.1689  0.7018  1.9510
 5699SOL    HW217997   6.817   2.960   5.867 -0.7276  1.4082 -2.0367
 5700SOL     OW17998   0.785   2.444   2.193  0.3467  0.1021 -0.3047
 5700SOL    HW117999   0.865   2.480   2.241  0.3623  3.0987 -2.2739
 5700SOL    HW218000   0.814   2.396   2.111  0.1709 -0.3966 -0.0760
 5701SOL     OW18001   5.744   3.697   2.609 -0.4438  0.7477  0.1944
 5701SOL    HW118002   5.690   3.619   2.640  0.1207  0.4953  0.5555
 5701SOL    HW218003   5.839   3.668   2.593 -0.2225  1.3590  0.3691
 5702SOL     OW18004   3.258   6.697   5.920 -0.0326 -0.6553  0.3369
 5702SOL    HW118005   3.252   6.796   5.928  0.3372 -0.6906  1.0825
 5702SOL    HW218006   3.354   6.670   5.910 -0.0293 -1.0181  1.2792
 5703SOL     OW18007   4.735   4.998   0.485  0.1652 -0.0618 -0.4613
 5703SOL    HW118008   4.813   4.990   0.424  0.3988 -1.1396 -0.0399
 5703SOL    HW218009   4.679   5.076   0.457  1.3358  0.6774 -0.8120
 5704SOL     OW18010   6.514   4.479   2.678  0.0226 -0.0160  0.4943
 5704SOL    HW118011   6.529   4.382   2.700  0.2087  0.3832  2.3452
 5704SOL    HW218012   6.421   4.492   2.644 -0.4194 -0.6837  1.3982
 5705SOL     OW18013   0.495   6.362   3.458  0.5147  0.1950  0.0921
 5705SOL    HW118014   0.511   6.458   3.481  0.9145  0.0661  0.3660
 5705SOL    HW218015   0.563   6.305   3.504  0.2559 -0.2248 -0.0378
 5706SOL     OW18016   2.372   1.458   5.762  0.3447 -0.3439  0.1276
 5706SOL    HW118017   2.276   1.448   5.791  0.0270 -1.0070 -1.0741
 5706SOL    HW218018   2.404   1.550   5.782 -1.8641  1.3005 -3.1293
 5707SOL     OW18019   3.604   1.625   1.504  0.7475  0.3925  0.3784
 5707SOL    HW118020   3.672   1.554   1.519  1.5466  1.5441  2.6342
 5707SOL    HW218021   3.615   1.697   1.572 -0.9373  2.0142 -0.9489
 5708SOL     OW18022   0.247   1.701   1.298 -0.2012  0.0645  0.2657
 5708SOL    HW118023   0.148   1.701   1.285 -0.4497 -0.8042  1.8511
 5708SOL    HW218024   0.274   1.621   1.352  0.9663  1.7826  2.3930
 5709SOL     OW18025   0.628   3.461   1.483 -0.2401 -0.1277  0.2299
 5709SOL    HW118026   0.531   3.473   1.459 -0.2722 -1.7431 -0.5307
 5709SOL    HW218027   0.653   3.365   1.474  1.8501  0.4981 -1.0705
 5710SOL     OW18028   2.915   3.058   0.520 -0.0700 -0.2140  0.2316
 5710SOL    HW118029   2.902   3.145   0.473  2.1612  1.3303  2.1882
 5710SOL    HW218030   2.832   3.034   0.571 -1.2336 -0.0868 -1.5173
 5711SOL     OW18031   6.703   1.147   0.037  0.1882 -0.1613  0.2808
 5711SOL    HW118032   6.722   1.227   0.094  0.5147 -1.4341  2.0756
 5711SOL    HW218033   6.608   1.149   0.007 -0.0123  0.5334  0.9198
 5712SOL     OW18034   6.574   6.918   6.094 -0.3162  0.8260 -0.7625
 5712SOL    HW118035   6.576   6.985   6.169  0.3573  1.6083 -1.4616
 5712SOL    HW218036   6.590   6.827   6.131  1.9522  1.4010 -0.1481
 5713SOL     OW18037   1.846   0.912   1.620 -0.0877 -0.4857  0.3049
 5713SOL    HW118038   1.900   0.936   1.700 -0.9599  1.0815  0.4729
 5713SOL    HW218039   1.770   0.852   1.647 -0.1002 -0.3491  0.5791
 5714SOL     OW18040   3.576   0.466   5.755 -0.5029 -0.1509  0.4316
 5714SOL    HW118041   3.558   0.559   5.722 -0.2769  0.4609  1.9677
 5714SOL    HW218042   3.592   0.468   5.853  0.5811 -1.6781  0.3162
 5715SOL     OW18043   1.818   6.441   5.008  0.1223 -0.4202  0.3240
 5715SOL    HW118044   1.811   6.345   4.980  0.7024 -0.1297 -0.8901
 5715SOL    HW218045   1.739   6.464   5.066 -0.5254 -1.3727 -0.1413
 5716SOL     OW18046   3.380   3.201   5.506  0.5543 -0.0934  0.2407
 5716SOL    HW118047   3.465   3.200   5.453  0.7662 -1.6663  0.5574
 5716SOL    HW218048   3.398   3.172   5.600  0.2081  2.8310  1.2877
 5717SOL     OW18049   0.693   2.977   5.050  0.3146  0.1454  0.3767
 5717SOL    HW118050   0.704   3.070   5.086  0.8991 -0.6680  2.4344
 5717SOL    HW218051   0.604   2.942   5.077  0.2656 -0.0467 -0.0359
 5718SOL     OW18052   3.330   6.526   0.826 -0.0567 -0.9207  0.0116
 5718SOL    HW118053   3.251   6.468   0.844 -0.4373 -0.3870  0.0995
 5718SOL    HW218054   3.413   6.478   0.852 -0.3471 -1.5112 -0.1324
 5719SOL     OW18055   1.539   0.847   6.140  0.1079 -0.6999  0.3752
 5719SOL    HW118056   1.537   0.815   6.045  1.0213  0.1940  0.0298
 5719SOL    HW218057   1.446   0.859   6.173 -0.2310 -1.9853 -0.0578
 5720SOL     OW18058   2.398   5.936   4.199  1.0571  0.4632 -0.1394
 5720SOL    HW118059   2.402   5.964   4.103  0.3213 -0.4435 -0.4593
 5720SOL    HW218060   2.314   5.971   4.240 -0.3049 -1.8030 -0.7759
 5721SOL     OW18061   5.728   3.164   0.214 -0.0848 -0.5725  0.3966
 5721SOL    HW118062   5.813   3.112   0.211 -0.1710 -0.7318  0.6863
 5721SOL    HW218063   5.665   3.130   0.144  0.6414  0.5253 -0.8557
 5722SOL     OW18064   6.858   0.772   3.899  0.3191  0.4323  0.2554
 5722SOL    HW118065   6.779   0.820   3.938 -0.3623 -1.1821  0.9267
 5722SOL    HW218066   6.847   0.765   3.800 -1.2840 -1.2530  0.4922
 5723SOL     OW18067   0.373   5.647   1.241  0.1568  0.2053 -0.1232
 5723SOL    HW118068   0.448   5.657   1.306  1.9149 -0.1568 -1.9747
 5723SOL    HW218069   0.286   5.658   1.288  1.2506 -1.6974  2.6079
 5724SOL     OW18070   2.485   2.401   6.997  0.5802 -0.3225  0.4740
 5724SOL    HW118071   2.497   2.362   7.089 -0.4777 -0.1866  0.6948
 5724SOL    HW218072   2.416   2.474   7.002 -1.3079 -1.9200 -0.8248
 5725SOL     OW18073   0.953   0.325   5.843  0.1482 -0.2366  0.2836
 5725SOL    HW118074   1.042   0.347   5.804  0.1664  0.2047  0.5674
 5725SOL    HW218075   0.963   0.302   5.940 -0.0028 -0.5245  0.2324
 5726SOL     OW18076   4.175   5.817   4.293  0.3649 -0.0799 -0.0389
 5726SOL    HW118077   4.233   5.761   4.234 -1.3644  0.3761 -2.2929
 5726SOL    HW218078   4.162   5.770   4.381  1.3406 -1.7892 -0.7634
 5727SOL     OW18079   4.816   3.340   5.226  1.5360  1.0387 -0.0061
 5727SOL    HW118080   4.867   3.281   5.163  1.1553  1.4326 -0.6935
 5727SOL    HW218081   4.795   3.427   5.180 -4.0152 -0.7451 -1.6977
 5728SOL     OW18082   6.041   0.191   3.782 -0.1822 -0.2931 -1.0516
 5728SOL    HW118083   6.040   0.098   3.819 -1.3717  1.0274  2.7587
 5728SOL    HW218084   6.135   0.216   3.758  0.5383 -1.7044  0.1352
 5729SOL     OW18085   0.590   1.922   4.791  0.4614  0.0923 -0.2019
 5729SOL    HW118086   0.638   1.834   4.795  2.1992  1.0502  1.3504
 5729SOL    HW218087   0.594   1.957   4.698  2.2527 -0.1686 -0.2553
 5730SOL     OW18088   2.161   3.461   6.965 -0.0616 -0.5132  0.4211
 5730SOL    HW118089   2.132   3.528   6.896 -1.4699 -1.1807  0.3206
 5730SOL    HW218090   2.224   3.396   6.924  0.6384  0.2230  0.2947
 5731SOL     OW18091   5.875   1.558   5.447  0.1937  0.3063 -0.1076
 5731SOL    HW118092   5.964   1.568   5.401 -1.1053  0.7324 -2.7274
 5731SOL    HW218093   5.806   1.611   5.398 -2.1594 -2.4126 -0.0214
 5732SOL     OW18094   5.642   3.048   4.652  0.5472  0.4983  0.5634
 5732SOL    HW118095   5.721   3.075   4.597  0.1771 -0.3964 -0.4607
 5732SOL    HW218096   5.562   3.100   4.623  0.4727  0.4274  0.6407
 5733SOL     OW18097   2.792   6.872   3.845 -0.3297  0.4671  0.6153
 5733SOL    HW118098   2.753   6.962   3.862 -0.4480  0.3386  1.0443
 5733SOL    HW218099   2.794   6.854   3.747 -1.4560  0.4380  0.5869
 5734SOL     OW18100   0.555   5.340   1.280 -0.6886 -0.3383  0.5163
 5734SOL    HW118101   0.501   5.400   1.338  0.2941 -1.8457  3.1679
 5734SOL    HW218102   0.533   5.245   1.302 -0.6030 -1.0136 -1.9960
 5735SOL     OW18103   6.585   1.221   5.667 -0.0590  0.0416  0.1999
 5735SOL    HW118104   6.612   1.149   5.731  0.9752  0.1712 -0.0770
 5735SOL    HW218105   6.502   1.194   5.620  0.7246 -1.3268 -0.4511
 5736SOL     OW18106   3.459   4.144   0.577  0.2101 -0.3975  0.6330
 5736SOL    HW118107   3.373   4.184   0.545 -0.3334 -1.9476  0.0540
 5736SOL    HW218108   3.535   4.184   0.527 -0.4257 -0.9571 -0.8400
 5737SOL     OW18109   4.413   5.515   3.370 -0.1159  0.5951  0.4229
 5737SOL    HW118110   4.400   5.429   3.418  1.6135 -0.3742 -0.7313
 5737SOL    HW218111   4.507   5.547   3.384 -0.0555  1.0969 -0.9697
 5738SOL     OW18112   3.826   2.045   2.481 -0.0764  0.0973  0.5640
 5738SOL    HW118113   3.894   2.082   2.545  0.5087 -0.1512  0.1054
 5738SOL    HW218114   3.845   2.081   2.389 -1.0130  0.5879  0.5548
 5739SOL     OW18115   4.207   6.933   4.710  0.1022  0.0197  0.8307
 5739SOL    HW118116   4.243   6.938   4.617 -0.3908 -1.3236  0.5541
 5739SOL    HW218117   4.282   6.944   4.776  0.7542 -0.9272  0.2704
 5740SOL     OW18118   4.703   4.860   2.683  1.0105 -0.1716  0.1355
 5740SOL    HW118119   4.727   4.766   2.659  0.0640 -0.2836 -0.4395
 5740SOL    HW218120   4.775   4.900   2.739  1.0808 -1.4876  1.0299
 5741SOL     OW18121   1.185   2.284   6.043  0.0340 -0.3916 -0.3173
 5741SOL    HW118122   1.154   2.261   5.951  1.3257 -0.5272 -0.7431
 5741SOL    HW218123   1.110   2.327   6.094 -0.2008  1.3727 -2.0229
 5742SOL     OW18124   5.931   6.462   0.371 -0.3216  0.5301 -0.6175
 5742SOL    HW118125   5.866   6.463   0.295 -2.0836  1.8130  0.8249
 5742SOL    HW218126   5.885   6.434   0.455  0.7105  2.3915  0.6493
 5743SOL     OW18127   4.680   4.621   2.229  0.3925 -0.4072  0.1146
 5743SOL    HW118128   4.630   4.693   2.181 -0.4618  0.4899  2.2584
 5743SOL    HW218129   4.619   4.574   2.292  1.7295 -0.7623  1.1970
 5744SOL     OW18130   4.404   0.699   2.984  0.7917 -0.1924 -0.5378
 5744SOL    HW118131   4.406   0.715   3.083 -0.8288 -1.8638 -0.1638
 5744SOL    HW218132   4.383   0.784   2.936  0.3039  0.3761  0.6520
 5745SOL     OW18133   1.796   3.125   2.545  0.3193  0.0694  0.3110
 5745SOL    HW118134   1.844   3.074   2.616  0.4019 -0.3698 -0.0556
 5745SOL    HW218135   1.848   3.120   2.459 -0.9643 -1.4405 -0.4205
 5746SOL     OW18136   4.616   0.460   4.255 -0.4093  0.1760 -0.0793
 5746SOL    HW118137   4.685   0.519   4.296  1.5483 -0.1655 -2.6316
 5746SOL    HW218138   4.644   0.365   4.264 -1.1929 -0.0618 -0.0715
 5747SOL     OW18139   2.117   6.466   2.574 -0.2168 -0.0388 -0.8753
 5747SOL    HW118140   2.165   6.381   2.593 -0.6662 -0.5571 -1.9638
 5747SOL    HW218141   2.100   6.473   2.476 -0.4054  1.1935 -0.7683
 5748SOL     OW18142   6.832   0.510   6.925 -0.1503 -0.3089 -0.0821
 5748SOL    HW118143   6.917   0.522   6.976  1.1357 -0.4420 -2.0898
 5748SOL    HW218144   6.757   0.552   6.975  1.2538  0.6783  1.2887
 5749SOL     OW18145   3.472   5.437   0.282  0.2149  0.4694 -0.2773
 5749SOL    HW118146   3.453   5.460   0.186 -0.6601  0.1781 -0.1758
 5749SOL    HW218147   3.437   5.510   0.341 -0.6637 -0.0896 -0.0882
 5750SOL     OW18148   5.319   2.673   5.226  0.2073  0.0131 -0.1013
 5750SOL    HW118149   5.405   2.723   5.231  0.3081 -0.1297 -0.3601
 5750SOL    HW218150   5.251   2.729   5.178  0.2061  0.0583 -0.0466
 5751SOL     OW18151   1.236   3.722   4.467  0.5859 -0.1151 -0.0661
 5751SOL    HW118152   1.257   3.633   4.507  0.1696 -1.0518 -1.8298
 5751SOL    HW218153   1.138   3.739   4.473  0.6184  0.0725 -0.0494
 5752SOL     OW18154   0.453   1.241   0.706  0.0459 -0.1411 -0.1156
 5752SOL    HW118155   0.473   1.339   0.704  1.6550 -0.4465 -0.8994
 5752SOL    HW218156   0.458   1.204   0.614  1.5113 -1.3093  0.3881
 5753SOL     OW18157   3.206   3.316   3.564  0.3218 -0.1516 -0.0307
 5753SOL    HW118158   3.168   3.272   3.482 -1.1075  3.3957 -1.4557
 5753SOL    HW218159   3.300   3.283   3.578  0.7140 -0.7631 -3.2541
 5754SOL     OW18160   4.730   6.301   1.224  0.1411 -0.7028  0.0087
 5754SOL    HW118161   4.752   6.218   1.275  0.7865 -0.9071 -0.5873
 5754SOL    HW218162   4.656   6.282   1.160 -0.2976 -0.5907  0.4806
 5755SOL     OW18163   0.452   2.381   5.945  0.0887 -0.6745 -0.0589
 5755SOL    HW118164   0.503   2.296   5.929 -2.5890 -1.9240 -3.0836
 5755SOL    HW218165   0.471   2.445   5.871 -0.7673 -0.1335  0.1869
 5756SOL     OW18166   6.106   6.916   0.513  0.1682 -0.0765  0.1574
 5756SOL    HW118167   6.085   7.013   0.507  1.4016  0.1168 -2.0253
 5756SOL    HW218168   6.191   6.903   0.563 -0.2041 -0.0862  0.8000
 5757SOL     OW18169   1.636   1.329   4.457  0.1161 -0.1996  0.0574
 5757SOL    HW118170   1.658   1.294   4.366 -0.0930  1.0976 -0.5073
 5757SOL    HW218171   1.709   1.305   4.521  0.8840 -0.0096 -0.7380
 5758SOL     OW18172   6.856   2.103   3.868  0.1192 -0.3289  0.4094
 5758SOL    HW118173   6.845   2.166   3.944  1.2888  0.1452  0.2068
 5758SOL    HW218174   6.774   2.046   3.859 -0.8185  0.9390  0.7839
 5759SOL     OW18175   1.114   5.808   3.572  0.2389  0.2883 -0.4681
 5759SOL    HW118176   1.128   5.800   3.671  1.5608  0.0853 -0.6528
 5759SOL    HW218177   1.093   5.903   3.550 -1.1398  0.1417  0.1122
 5760SOL     OW18178   0.035   1.578   6.705  0.1124 -0.4488  0.1211
 5760SOL    HW118179   0.099   1.653   6.720  2.3062 -2.1775  0.0446
 5760SOL    HW218180  -0.024   1.600   6.627  1.7657  0.5779 -0.9303
 5761SOL     OW18181   0.531   6.179   5.066 -0.0146  0.0419  0.7952
 5761SOL    HW118182   0.615   6.202   5.115  0.2696 -2.2920  1.5162
 5761SOL    HW218183   0.462   6.248   5.085  2.3154  3.4489 -1.7520
 5762SOL     OW18184   2.747   5.519   6.365 -0.6058 -0.3279 -0.4029
 5762SOL    HW118185   2.808   5.563   6.299 -0.6314  0.8868  0.3450
 5762SOL    HW218186   2.654   5.556   6.353 -0.4449  0.5397  0.8303
 5763SOL     OW18187   6.069   0.012   6.697  0.1507  0.3003  0.6736
 5763SOL    HW118188   6.034  -0.021   6.609  2.2759  0.8859 -0.4556
 5763SOL    HW218189   6.154  -0.034   6.719  1.5190  2.6288  0.6280
 5764SOL     OW18190   5.438   5.310   2.921 -0.0128  0.0591 -0.6010
 5764SOL    HW118191   5.380   5.359   2.856  0.8691  0.7251 -0.8847
 5764SOL    HW218192   5.455   5.368   3.001  1.6929  0.5697 -1.2903
 5765SOL     OW18193   6.911   1.374   4.416  0.0424 -0.0509  0.9767
 5765SOL    HW118194   6.885   1.466   4.387  0.4695  0.2788  1.6163
 5765SOL    HW218195   7.009   1.362   4.404 -0.3852 -1.4343 -1.8216
 5766SOL     OW18196   1.386   0.995   3.459  0.7224 -0.1500  0.6459
 5766SOL    HW118197   1.347   0.943   3.383 -0.6753  1.0596  0.4692
 5766SOL    HW218198   1.396   0.936   3.539  0.3202 -0.9609  0.1093
 5767SOL     OW18199   5.045   0.512   1.562 -0.0046  0.1749  0.3841
 5767SOL    HW118200   5.083   0.420   1.567 -1.6528 -0.5849 -0.0396
 5767SOL    HW218201   5.074   0.555   1.477 -1.0038 -0.8600 -0.5275
 5768SOL     OW18202   1.735   6.221   4.882  0.1041  0.5812  0.6111
 5768SOL    HW118203   1.658   6.183   4.934 -0.3548  2.2527  1.2367
 5768SOL    HW218204   1.700   6.272   4.803  0.7394 -0.8516 -0.6310
 5769SOL     OW18205   0.272   2.538   4.387  0.3703 -0.1195  0.2088
 5769SOL    HW118206   0.337   2.462   4.396  1.3703  0.6133 -0.5550
 5769SOL    HW218207   0.322   2.621   4.360  0.0109  1.9415  4.8910
 5770SOL     OW18208   0.221   3.381   3.155  0.4684  0.0402  0.4774
 5770SOL    HW118209   0.205   3.284   3.138  0.6370  0.2982 -1.2947
 5770SOL    HW218210   0.314   3.394   3.188  0.5751 -0.3589  0.3447
 5771SOL     OW18211   0.678   4.995   2.847 -0.1780  0.1347 -0.6998
 5771SOL    HW118212   0.739   4.918   2.869 -0.8744  0.0847  1.2370
 5771SOL    HW218213   0.637   4.980   2.756 -1.1326 -2.3805  0.0558
 5772SOL     OW18214   1.816   1.329   4.246 -0.3574  0.3505  0.6630
 5772SOL    HW118215   1.793   1.367   4.156  2.1290  0.2579 -0.0936
 5772SOL    HW218216   1.914   1.340   4.262 -0.0763 -2.8171  1.8068
 5773SOL     OW18217   5.837   6.706   4.032 -0.0190 -0.1345  0.9196
 5773SOL    HW118218   5.917   6.709   4.092  0.8116 -1.2071 -0.1062
 5773SOL    HW218219   5.862   6.736   3.940 -1.0965  0.7013  0.8736
 5774SOL     OW18220   1.579   6.279   3.929  0.1913  0.0840 -0.2972
 5774SOL    HW118221   1.501   6.216   3.928 -0.8513  1.3114 -2.1612
 5774SOL    HW218222   1.579   6.331   4.014  1.1129 -2.3706  1.3284
 5775SOL     OW18223   6.066   4.285   3.960 -0.6464  0.0981  0.0032
 5775SOL    HW118224   6.089   4.337   4.043  1.7949  0.5409 -0.8673
 5775SOL    HW218225   6.121   4.202   3.956  0.1639  0.6652 -1.7143
 5776SOL     OW18226   2.480   1.503   3.467 -0.6135  0.4841 -0.6747
 5776SOL    HW118227   2.456   1.562   3.543 -0.2312 -0.5828  0.2949
 5776SOL    HW218228   2.578   1.511   3.447 -0.9273  1.6776 -1.8790
 5777SOL     OW18229   3.427   6.203   2.156  0.0100 -0.1328  0.3832
 5777SOL    HW118230   3.365   6.196   2.079 -2.3051  3.8136  1.6234
 5777SOL    HW218231   3.407   6.130   2.222 -0.8096 -1.0335 -0.8121
 5778SOL     OW18232   0.734   0.466   1.331  0.5671  0.0035  0.2447
 5778SOL    HW118233   0.790   0.392   1.293  2.3747  1.4271  0.0034
 5778SOL    HW218234   0.793   0.536   1.370 -1.1293  0.7343  1.6752
 5779SOL     OW18235   4.497   2.346   1.020 -0.0019 -0.1691 -0.1726
 5779SOL    HW118236   4.441   2.402   0.959 -0.3652  0.1017  0.3932
 5779SOL    HW218237   4.437   2.287   1.074  0.3227 -0.4911 -0.1631
 5780SOL     OW18238   5.383   4.743   5.066  0.1671 -0.0342 -0.5635
 5780SOL    HW118239   5.448   4.806   5.109 -1.9414  1.9760 -0.1388
 5780SOL    HW218240   5.306   4.726   5.127 -0.4690 -1.1578 -1.6223
 5781SOL     OW18241   1.873   4.900   5.318 -0.0836 -0.0151 -0.0480
 5781SOL    HW118242   1.938   4.859   5.254  0.2507  2.5403 -1.4561
 5781SOL    HW218243   1.877   5.000   5.311 -2.5819  0.2790  1.4553
 5782SOL     OW18244   0.726   0.936   6.934  0.1230 -0.1532 -0.5310
 5782SOL    HW118245   0.788   0.858   6.943  0.8120 -0.0150 -3.3838
 5782SOL    HW218246   0.776   1.021   6.950 -0.4740 -0.1843  1.8734
 5783SOL     OW18247   2.316   2.666   6.832 -0.5413  0.3244 -0.8566
 5783SOL    HW118248   2.280   2.609   6.906  0.3356 -1.5878 -1.8235
 5783SOL    HW218249   2.414   2.682   6.847 -0.5163  0.5378 -1.2290
 5784SOL     OW18250   1.285   0.510   6.316 -0.4901 -0.6078 -0.3987
 5784SOL    HW118251   1.227   0.574   6.367  0.4960 -0.7866  1.0097
 5784SOL    HW218252   1.322   0.555   6.235 -0.7654  0.2303 -0.0676
 5785SOL     OW18253   1.658   0.938   2.106 -0.4692  0.3733 -0.3753
 5785SOL    HW118254   1.732   0.980   2.159 -1.7094  1.5194  0.4966
 5785SOL    HW218255   1.591   0.899   2.168 -0.4924 -0.8966 -1.1674
 5786SOL     OW18256   5.542   4.333   0.574  0.1775 -0.1383 -0.1753
 5786SOL    HW118257   5.578   4.417   0.615  0.7170  0.1451 -1.2056
 5786SOL    HW218258   5.575   4.255   0.626  0.1913  0.2475  0.4129
 5787SOL     OW18259   6.376   4.974   5.611 -0.2536 -0.0916  0.5643
 5787SOL    HW118260   6.313   5.037   5.657  0.6028 -0.6071  2.5257
 5787SOL    HW218261   6.334   4.884   5.604  0.0108 -0.2852  1.3440
 5788SOL     OW18262   3.503   6.715   4.398  0.0905 -0.7180 -0.1253
 5788SOL    HW118263   3.428   6.665   4.442 -0.4892 -1.7939 -2.1946
 5788SOL    HW218264   3.587   6.662   4.406 -0.5218 -2.1762 -2.3107
 5789SOL     OW18265   3.856   5.224   4.961  0.0249 -0.0335 -0.4610
 5789SOL    HW118266   3.814   5.284   5.029  0.4159  0.2117 -0.4331
 5789SOL    HW218267   3.917   5.277   4.902  0.9662 -0.5182  0.0403
 5790SOL     OW18268   1.851   4.456   5.751  0.2765 -0.2480 -0.8623
 5790SOL    HW118269   1.939   4.433   5.708  0.2879 -2.5396  0.2215
 5790SOL    HW218270   1.793   4.503   5.685  2.4131  1.6525 -1.5106
 5791SOL     OW18271   1.020   1.795   2.856 -0.4836  0.2427 -0.4013
 5791SOL    HW118272   0.943   1.801   2.793 -1.6779  0.5029  1.0231
 5791SOL    HW218273   1.069   1.882   2.858 -2.0986  1.1795  1.0019
 5792SOL     OW18274   0.639   1.550   3.132 -0.4589 -0.3110 -0.2091
 5792SOL    HW118275   0.659   1.642   3.166  2.3943 -0.4163 -1.3266
 5792SOL    HW218276   0.707   1.486   3.168 -1.4542 -1.6831 -0.7098
 5793SOL     OW18277   5.509   1.152   4.445  0.0930 -0.3972  0.2834
 5793SOL    HW118278   5.432   1.118   4.499 -0.6391 -0.5953 -0.8320
 5793SOL    HW218279   5.547   1.077   4.391 -0.8888  0.2911 -1.4441
 5794SOL     OW18280   6.595   3.839   6.165 -0.2818 -1.2754  0.3738
 5794SOL    HW118281   6.504   3.855   6.127 -0.0118 -1.7404 -0.4918
 5794SOL    HW218282   6.641   3.766   6.113  1.6096  0.7262 -0.9586
 5795SOL     OW18283   5.167   4.344   6.123 -0.3973 -0.0003 -0.4287
 5795SOL    HW118284   5.092   4.403   6.091  0.7149  1.0985 -1.1035
 5795SOL    HW218285   5.138   4.249   6.120 -1.1107  0.2444 -2.5852
 5796SOL     OW18286   3.453   0.895   6.425 -0.2692  0.5770  0.4043
 5796SOL    HW118287   3.530   0.960   6.426  1.7936 -1.7001  0.8955
 5796SOL    HW218288   3.436   0.864   6.519 -1.2087  0.3889  0.1736
 5797SOL     OW18289   2.251   2.764   6.117 -0.2131 -0.0135  0.1545
 5797SOL    HW118290   2.218   2.747   6.024  1.5073  0.4112 -0.5810
 5797SOL    HW218291   2.197   2.837   6.159  0.1271  1.0443 -1.1914
 5798SOL     OW18292   5.787   4.899   4.020 -0.6514  0.1006  0.3489
 5798SOL    HW118293   5.870   4.884   4.075 -1.8828 -0.0905  2.2651
 5798SOL    HW218294   5.734   4.974   4.059 -1.1035  0.6416 -1.2322
 5799SOL     OW18295   5.981   5.964   4.410 -0.0385 -0.3457  0.3163
 5799SOL    HW118296   5.945   5.884   4.458  1.1045 -0.6387  0.7180
 5799SOL    HW218297   5.906   6.011   4.362 -0.6124 -2.0873 -0.5836
 5800SOL     OW18298   6.603   6.494   5.645  0.1547  0.3061 -0.1231
 5800SOL    HW118299   6.570   6.586   5.624  0.1901  0.4018  0.2412
 5800SOL    HW218300   6.640   6.452   5.562  2.1036  1.4076  0.1581
 5801SOL     OW18301   3.072   0.103   1.708 -0.0701  0.0132 -0.2107
 5801SOL    HW118302   3.138   0.102   1.783  0.3159  0.0637 -0.5476
 5801SOL    HW218303   3.087   0.024   1.649 -2.2400 -1.7303  1.3550
 5802SOL     OW18304   6.750   2.972   3.816 -1.0659 -0.3260  0.4446
 5802SOL    HW118305   6.743   2.885   3.864  0.0371  0.0130  1.2678
 5802SOL    HW218306   6.821   2.966   3.746 -0.0343  0.2614  1.3888
 5803SOL     OW18307   1.199   5.247   6.886  0.3668  0.0542  0.2248
 5803SOL    HW118308   1.142   5.329   6.883 -1.0899 -0.9405 -0.7773
 5803SOL    HW218309   1.144   5.167   6.862  2.2211 -0.9440 -0.9790
 5804SOL     OW18310   6.607   2.957   0.131  0.2291 -0.1172  0.5954
 5804SOL    HW118311   6.552   2.994   0.056  1.1021 -1.3682 -0.7228
 5804SOL    HW218312   6.610   3.023   0.206 -1.0262  1.0002 -0.2886
 5805SOL     OW18313   6.706   2.511   0.672  0.6429 -0.5307  0.2895
 5805SOL    HW118314   6.753   2.507   0.760  1.0034  0.9396  0.2024
 5805SOL    HW218315   6.671   2.604   0.658  0.5103 -0.7653 -1.0759
 5806SOL     OW18316   6.922   5.945   6.513 -0.0424  0.3548 -0.0836
 5806SOL    HW118317   6.827   5.947   6.544  0.2970 -0.2756  1.0741
 5806SOL    HW218318   6.938   5.864   6.457  0.5037 -1.2994  2.2781
 5807SOL     OW18319   1.974   3.104   1.326  0.3843 -0.4004  0.7257
 5807SOL    HW118320   1.914   3.139   1.398  0.2785  0.5857  0.1645
 5807SOL    HW218321   1.918   3.065   1.253  0.3753  1.2603 -0.1806
 5808SOL     OW18322   6.746   1.792   2.918 -0.0870 -0.1699 -0.0379
 5808SOL    HW118323   6.817   1.740   2.871  1.0034  1.1227  0.1226
 5808SOL    HW218324   6.663   1.793   2.863  0.1393 -1.3471 -0.4308
 5809SOL     OW18325   0.147   3.136   4.068 -0.2479  0.1878  0.1466
 5809SOL    HW118326   0.132   3.099   3.977 -0.9951  0.0064  0.3415
 5809SOL    HW218327   0.237   3.180   4.071  0.8034 -1.8344  0.0024
 5810SOL     OW18328   1.546   2.153   2.357  0.2270 -0.0762  0.0970
 5810SOL    HW118329   1.528   2.173   2.261 -0.8825  1.8923  0.6691
 5810SOL    HW218330   1.598   2.227   2.397  0.4610 -0.7619  1.0956
 5811SOL     OW18331   4.312   0.562   2.355 -0.3526  0.0269 -0.7824
 5811SOL    HW118332   4.403   0.571   2.315  0.5028  1.9990  1.4224
 5811SOL    HW218333   4.254   0.638   2.325 -1.8973 -1.9768 -3.3737
 5812SOL     OW18334   4.163   0.859   4.442  0.8609  0.9673 -0.5480
 5812SOL    HW118335   4.110   0.944   4.450 -2.5248 -0.8603 -1.6785
 5812SOL    HW218336   4.111   0.783   4.481  3.1605 -0.8857 -0.8579
 5813SOL     OW18337   0.538   0.871   4.191  0.0597 -0.2592  0.1071
 5813SOL    HW118338   0.635   0.888   4.212 -0.1512 -0.4138  1.2706
 5813SOL    HW218339   0.529   0.779   4.153  0.4478  0.0009 -0.6367
 5814SOL     OW18340   6.114   6.085   7.018  0.0998 -0.5675  0.4977
 5814SOL    HW118341   6.183   6.101   7.088 -0.6214 -0.6728  1.2543
 5814SOL    HW218342   6.111   5.987   6.996  1.4396 -0.3393 -0.8878
 5815SOL     OW18343   2.087   2.502   4.289  0.4596  0.2257 -0.0653
 5815SOL    HW118344   2.109   2.455   4.375  0.3367 -1.1344 -0.7551
 5815SOL    HW218345   2.009   2.562   4.303 -0.3147 -0.8782  0.5191
 5816SOL     OW18346   4.005   6.007   1.396 -0.0499 -0.8792 -0.5939
 5816SOL    HW118347   4.101   6.012   1.370  0.1646 -0.3415  0.2642
 5816SOL    HW218348   3.965   6.099   1.394  0.2919 -0.5943  2.0696
 5817SOL     OW18349   2.699   1.151   6.828 -0.3008  0.4869  0.3022
 5817SOL    HW118350   2.665   1.126   6.919 -0.0446  1.5315  0.6985
 5817SOL    HW218351   2.690   1.250   6.815 -0.7664  0.2928 -0.9967
 5818SOL     OW18352   5.308   6.834   6.014  0.4370  0.3780 -0.9387
 5818SOL    HW118353   5.287   6.746   5.970  0.1929  0.1185 -0.3111
 5818SOL    HW218354   5.362   6.818   6.097  2.1164  0.9588 -1.8732
 5819SOL     OW18355   4.390   6.904   1.056 -1.0440 -0.4690  0.7075
 5819SOL    HW118356   4.451   6.920   0.978  0.4262 -0.7736  1.7554
 5819SOL    HW218357   4.345   6.990   1.081  0.2433  0.1669  0.9341
 5820SOL     OW18358   6.993   4.296   3.572  0.0375 -0.6213  0.1283
 5820SOL    HW118359   6.917   4.359   3.558  0.7813  0.2055 -0.2629
 5820SOL    HW218360   6.963   4.203   3.554 -0.3381 -0.1120 -2.1574
 5821SOL     OW18361   2.746   6.052   1.835  0.1080 -0.0143 -0.2838
 5821SOL    HW118362   2.655   6.017   1.857  0.1686 -0.6972 -1.0852
 5821SOL    HW218363   2.746   6.091   1.743  0.2799  1.2880  0.2371
 5822SOL     OW18364   2.974   1.430   1.160  0.3137 -0.4510  0.6573
 5822SOL    HW118365   2.943   1.524   1.178 -0.4744 -0.7198  0.7569
 5822SOL    HW218366   2.999   1.421   1.064 -2.4830 -0.8763 -0.1328
 5823SOL     OW18367   1.526   3.934   5.683  0.1914  0.0649  0.4696
 5823SOL    HW118368   1.597   3.914   5.750  0.1329 -0.9303  0.2370
 5823SOL    HW218369   1.437   3.934   5.729  0.0517 -1.5602  0.2335
 5824SOL     OW18370   5.527   6.352   1.977 -0.6933  0.1590 -0.6789
 5824SOL    HW118371   5.594   6.296   2.025  0.0185  0.6240 -1.1139
 5824SOL    HW218372   5.483   6.415   2.042 -0.7862 -0.2198 -0.3748
 5825SOL     OW18373   3.310   1.308   1.773 -0.1087  0.0851  0.1678
 5825SOL    HW118374   3.218   1.282   1.801 -0.1594 -0.0398 -0.1127
 5825SOL    HW218375   3.304   1.373   1.697  0.0530 -0.9316 -0.7244
 5826SOL     OW18376   0.262   6.306   5.483  0.2376  0.1534 -0.3862
 5826SOL    HW118377   0.289   6.365   5.559 -0.5268 -0.0677  0.0696
 5826SOL    HW218378   0.168   6.327   5.456 -0.0829 -0.9071 -0.1543
 5827SOL     OW18379   6.960   4.856   4.297  0.4672 -0.4415  0.3606
 5827SOL    HW118380   6.962   4.806   4.384  2.0832  0.6450  0.9827
 5827SOL    HW218381   7.046   4.904   4.284 -0.3201  0.6450 -1.1390
 5828SOL     OW18382   0.524   2.103   0.658 -0.1437 -0.0011  0.2395
 5828SOL    HW118383   0.438   2.118   0.609 -0.1745  1.4032  0.7005
 5828SOL    HW218384   0.601   2.130   0.599 -0.0488 -0.5420  0.1084
 5829SOL     OW18385   0.867   3.441   0.690  0.0822  0.4580  0.6815
 5829SOL    HW118386   0.913   3.528   0.671  0.2544  0.3092  0.4126
 5829SOL    HW218387   0.927   3.383   0.745  1.1008 -0.5646 -1.4016
 5830SOL     OW18388   1.767   0.693   5.916  0.3533 -0.3728  0.0925
 5830SOL    HW118389   1.717   0.743   5.845  0.3703 -0.4399  0.0323
 5830SOL    HW218390   1.763   0.743   6.002 -2.7135 -1.9807  1.0069
 5831SOL     OW18391   5.508   4.816   0.670 -0.2369  1.2106  0.6552
 5831SOL    HW118392   5.491   4.905   0.627 -0.8729  0.8786  0.2009
 5831SOL    HW218393   5.457   4.811   0.756 -0.7594  1.0195  0.3349
 5832SOL     OW18394   4.115   3.382   3.881 -0.4656  0.4493  0.4147
 5832SOL    HW118395   4.102   3.348   3.787 -1.2127 -0.2475  0.7509
 5832SOL    HW218396   4.118   3.482   3.880  0.4720  0.4306 -0.4553
 5833SOL     OW18397   3.248   2.928   4.194 -0.0742  0.4323  0.1644
 5833SOL    HW118398   3.224   2.831   4.192 -2.5108  0.9283  1.4463
 5833SOL    HW218399   3.289   2.951   4.283 -1.0766  0.8786  0.5219
 5834SOL     OW18400   5.597   1.653   6.865  0.0848 -0.2398 -0.0884
 5834SOL    HW118401   5.673   1.666   6.927 -0.0438 -2.0161  0.5154
 5834SOL    HW218402   5.607   1.713   6.785  1.2437  0.6897  0.7304
 5835SOL     OW18403   6.020   4.400   5.216  0.3885 -0.7572 -0.3029
 5835SOL    HW118404   5.995   4.353   5.132  1.0758  1.5724 -1.9025
 5835SOL    HW218405   6.091   4.468   5.197 -1.7125  2.1534  1.4621
 5836SOL     OW18406   2.691   1.021   2.402  0.0827  0.3771  0.0328
 5836SOL    HW118407   2.718   1.106   2.357 -0.1059  1.3501  1.7131
 5836SOL    HW218408   2.773   0.972   2.432  0.1442  1.2481  1.3466
 5837SOL     OW18409   3.516   4.191   5.230  0.4994 -0.4206  0.7440
 5837SOL    HW118410   3.434   4.134   5.229 -0.0518  0.3752  0.1458
 5837SOL    HW218411   3.546   4.205   5.325 -0.7004  0.2194  1.0344
 5838SOL     OW18412   0.232   1.785   6.762  0.1288 -0.4519 -0.0690
 5838SOL    HW118413   0.166   1.852   6.796  0.3986  0.0599 -0.5308
 5838SOL    HW218414   0.284   1.747   6.839  0.7216  0.6767  0.1115
 5839SOL     OW18415   5.876   0.377   0.753 -0.5903 -0.3248  0.4707
 5839SOL    HW118416   5.865   0.335   0.843 -0.4540 -0.0604  0.6141
 5839SOL    HW218417   5.789   0.376   0.704 -1.1610  1.2560  1.3639
 5840SOL     OW18418   3.446   3.215   0.046 -0.0498  0.1500  0.0132
 5840SOL    HW118419   3.472   3.312   0.047 -1.3531  0.5216  1.1466
 5840SOL    HW218420   3.520   3.160   0.087 -0.2066  0.9401  1.4093
 5841SOL     OW18421   0.430   2.584   0.776  0.0980  0.1677  0.1908
 5841SOL    HW118422   0.440   2.537   0.863  0.1436 -1.7262 -0.7835
 5841SOL    HW218423   0.369   2.662   0.786  0.0330 -0.0809  1.8717
 5842SOL     OW18424   3.369   0.097   5.015 -0.4039  0.0210 -0.0152
 5842SOL    HW118425   3.333   0.190   5.012 -0.8925 -0.1816 -1.8172
 5842SOL    HW218426   3.379   0.068   5.110  2.1316  2.7963  0.7281
 5843SOL     OW18427   6.598   3.123   1.442  0.1562 -1.0708  0.4085
 5843SOL    HW118428   6.637   3.208   1.407 -0.9602 -0.2896  1.0140
 5843SOL    HW218429   6.572   3.064   1.366  2.5825 -1.6923 -0.0283
 5844SOL     OW18430   1.241   5.554   0.063 -0.3158 -0.5384  0.3923
 5844SOL    HW118431   1.310   5.482   0.055 -0.0174 -0.0531 -2.4415
 5844SOL    HW218432   1.156   5.524   0.020  0.1869  1.1211 -1.9950
 5845SOL     OW18433   0.577   2.035   4.540  0.0787  0.1289  0.4971
 5845SOL    HW118434   0.540   2.111   4.594  0.0320  0.2751  0.2634
 5845SOL    HW218435   0.572   2.058   4.443 -0.4577 -0.4148  0.3921
 5846SOL     OW18436   6.434   4.370   0.119 -0.6342 -0.0517  0.1516
 5846SOL    HW118437   6.533   4.352   0.119 -0.5774  0.2440  0.4823
 5846SOL    HW218438   6.418   4.466   0.143 -1.0714 -0.4974  1.7237
 5847SOL     OW18439   2.080   2.715   1.437  0.4380 -0.3461 -0.2018
 5847SOL    HW118440   2.116   2.807   1.449 -0.2831  0.5947 -3.8683
 5847SOL    HW218441   1.981   2.719   1.428  0.4746 -1.3034 -1.3491
 5848SOL     OW18442   1.783   2.970   3.679  0.2874  0.0315  1.0282
 5848SOL    HW118443   1.792   2.985   3.777 -2.0510  0.6207  1.2359
 5848SOL    HW218444   1.707   2.907   3.662 -0.4829  1.2642 -0.4123
 5849SOL     OW18445   4.714   6.433   4.308 -0.3214  0.0479 -0.4509
 5849SOL    HW118446   4.644   6.424   4.237 -0.7714  0.1436 -0.0265
 5849SOL    HW218447   4.735   6.342   4.345 -0.9537  0.1264  0.1137
 5850SOL     OW18448   0.742   4.888   6.092 -0.3559  0.1750  0.2463
 5850SOL    HW118449   0.790   4.800   6.096 -0.6293  0.0454  0.9165
 5850SOL    HW218450   0.673   4.891   6.164  0.6787  1.5380  1.2385
 5851SOL     OW18451   4.513   2.490   1.433  0.3171  0.3452 -0.0620
 5851SOL    HW118452   4.452   2.411   1.429 -0.8378  1.1855  0.3077
 5851SOL    HW218453   4.477   2.557   1.498  1.4365  1.0400 -0.1270
 5852SOL     OW18454   3.859   0.235   4.101 -0.1663 -0.4058 -0.7422
 5852SOL    HW118455   3.802   0.207   4.024  0.0066 -2.2019 -0.2605
 5852SOL    HW218456   3.803   0.287   4.166 -0.6811 -0.1946 -1.3421
 5853SOL     OW18457   5.713   4.744   5.366  0.1091 -0.1469  0.0426
 5853SOL    HW118458   5.774   4.799   5.422  0.5229 -0.5676  0.0161
 5853SOL    HW218459   5.726   4.768   5.269  0.6254 -0.6045 -0.0090
 5854SOL     OW18460   1.862   1.941   6.460  0.0882 -0.6002  0.0726
 5854SOL    HW118461   1.800   1.952   6.382  0.1673 -0.6701 -0.0014
 5854SOL    HW218462   1.937   1.879   6.434  2.0404  1.9978 -0.9584
 5855SOL     OW18463   1.692   1.381   5.948 -0.3096  0.1369 -0.2294
 5855SOL    HW118464   1.680   1.284   5.969  1.4147  0.2988  1.7898
 5855SOL    HW218465   1.679   1.435   6.030 -0.2814  1.5481 -1.1237
 5856SOL     OW18466   2.015   3.752   4.372  0.4262 -0.0775  0.2768
 5856SOL    HW118467   2.072   3.833   4.355 -0.1160  0.1698 -0.4149
 5856SOL    HW218468   2.051   3.674   4.321 -0.9661  0.5645 -1.8088
 5857SOL     OW18469   6.636   2.136   5.642  0.1562  1.0033 -0.2264
 5857SOL    HW118470   6.638   2.171   5.548  0.0590  0.2300 -0.5240
 5857SOL    HW218471   6.679   2.046   5.645 -0.6684  0.6127  0.2923
 5858SOL     OW18472   3.233   5.635   3.517  0.1224  0.1178 -0.5805
 5858SOL    HW118473   3.162   5.609   3.581  1.0945  1.9796  1.3940
 5858SOL    HW218474   3.292   5.556   3.498 -0.1634 -0.4753  0.8816
 5859SOL     OW18475   0.753   6.232   0.995 -0.0409  0.3056  0.2902
 5859SOL    HW118476   0.685   6.246   1.067  1.0620  0.0852  1.3997
 5859SOL    HW218477   0.785   6.137   0.997 -0.8184 -0.0320 -1.2580
 5860SOL     OW18478   6.982   3.501   1.428 -0.1955  0.6299 -0.0042
 5860SOL    HW118479   7.053   3.445   1.470 -1.3824 -0.5118  0.5422
 5860SOL    HW218480   7.015   3.595   1.419  2.0445 -0.1974 -1.3960
 5861SOL     OW18481   6.153   2.001   3.352  0.4675 -0.1801  0.7197
 5861SOL    HW118482   6.248   1.983   3.326  1.7442  1.6928  3.6007
 5861SOL    HW218483   6.131   2.097   3.335 -0.5929 -0.3527  1.0223
 5862SOL     OW18484   5.113   4.685   3.303  0.0565 -0.0265 -0.0015
 5862SOL    HW118485   5.047   4.617   3.270  0.1733 -0.0665 -0.1532
 5862SOL    HW218486   5.138   4.745   3.227  0.1703  0.0099  0.0658
 5863SOL     OW18487   1.537   6.775   1.385  0.2235 -0.5196  0.0526
 5863SOL    HW118488   1.583   6.857   1.420 -1.0040  1.0914 -1.9062
 5863SOL    HW218489   1.494   6.727   1.462 -0.8043  1.8451  1.0758
 5864SOL     OW18490   3.375   4.807   0.558  0.1427 -0.4889 -0.4720
 5864SOL    HW118491   3.285   4.781   0.593  0.0640  0.2185 -0.1246
 5864SOL    HW218492   3.364   4.865   0.477  0.2854 -0.4206 -0.4426
 5865SOL     OW18493   5.183   6.676   2.711 -0.1856 -0.2910 -0.1356
 5865SOL    HW118494   5.133   6.710   2.632 -1.7283 -0.8885  0.5476
 5865SOL    HW218495   5.207   6.580   2.696 -0.7348 -0.4883  0.2344
 5866SOL     OW18496   3.026   1.452   0.319 -0.2827  0.3962  0.3710
 5866SOL    HW118497   3.033   1.478   0.416  1.5091 -0.3468  0.4860
 5866SOL    HW218498   3.018   1.353   0.313 -1.7420  0.5389 -0.2200
 5867SOL     OW18499   6.082   3.493   2.956  0.8504 -0.7533  0.5834
 5867SOL    HW118500   6.118   3.581   2.925  1.2103 -1.4872 -1.2534
 5867SOL    HW218501   6.029   3.505   3.039 -0.8768  1.5409 -0.7410
 5868SOL     OW18502   1.120   6.447   4.873  0.1845 -0.6504  0.1635
 5868SOL    HW118503   1.212   6.416   4.898  0.3751  1.0974  1.9441
 5868SOL    HW218504   1.073   6.480   4.955 -1.3807  0.1195 -0.9929
 5869SOL     OW18505   4.811   4.688   4.966  0.4550  0.0165 -0.5191
 5869SOL    HW118506   4.765   4.729   4.887  1.1248 -0.8906 -1.4224
 5869SOL    HW218507   4.853   4.602   4.937 -0.7737 -1.2479  1.2479
 5870SOL     OW18508   6.042   5.368   3.281 -0.0932 -0.4307  0.7327
 5870SOL    HW118509   5.970   5.339   3.218 -0.8381  1.0558  0.8445
 5870SOL    HW218510   6.003   5.379   3.373  0.8721 -2.1127  1.3878
 5871SOL     OW18511   2.551   2.933   0.024 -0.7640  0.3524  0.1033
 5871SOL    HW118512   2.579   2.843  -0.009 -0.2884 -0.1902  1.8745
 5871SOL    HW218513   2.587   2.947   0.116 -2.3399  1.6288  0.5676
 5872SOL     OW18514   3.137   6.294   4.045  0.4279 -1.0695  0.0432
 5872SOL    HW118515   3.219   6.351   4.053  1.1017 -1.7765 -1.4590
 5872SOL    HW218516   3.135   6.250   3.955 -2.6158  0.5113 -0.8370
 5873SOL     OW18517   1.440   4.792   0.764  0.4720  0.5936 -0.2055
 5873SOL    HW118518   1.457   4.714   0.704 -1.7717 -0.0515 -0.1035
 5873SOL    HW218519   1.411   4.760   0.854  0.0882  1.5502  0.0290
 5874SOL     OW18520   0.609   3.351   5.723  0.3226 -0.3764  0.4473
 5874SOL    HW118521   0.687   3.288   5.731 -0.5401 -2.1277 -3.1004
 5874SOL    HW218522   0.642   3.438   5.687  0.7799 -0.9136 -0.4953
 5875SOL     OW18523   2.127   1.838   6.602  0.5001  0.2063 -0.1159
 5875SOL    HW118524   2.128   1.813   6.699  2.9416  1.1051  0.1592
 5875SOL    HW218525   2.154   1.934   6.592  2.2233 -0.3996 -1.7784
 5876SOL     OW18526   3.617   4.387   6.696 -0.1648  0.5619 -0.1566
 5876SOL    HW118527   3.651   4.301   6.658 -0.5944  0.3426 -0.0514
 5876SOL    HW218528   3.693   4.437   6.737  0.3098  0.8121 -1.3079
 5877SOL     OW18529   6.577   0.104   2.409 -0.6905 -0.3439 -0.0441
 5877SOL    HW118530   6.645   0.151   2.353 -1.0779 -1.7518 -1.7820
 5877SOL    HW218531   6.623   0.057   2.484 -0.0859  0.9878  0.4571
 5878SOL     OW18532   3.730   4.965   2.050 -0.6721 -0.2910 -0.3486
 5878SOL    HW118533   3.665   4.893   2.028 -0.0592 -0.2412 -2.6187
 5878SOL    HW218534   3.681   5.047   2.079 -1.5096 -0.7700 -0.3739
 5879SOL     OW18535   2.916   4.130   6.799 -0.0297  0.1186  0.3180
 5879SOL    HW118536   2.960   4.192   6.734 -0.1364 -0.6507 -0.5160
 5879SOL    HW218537   2.939   4.035   6.775 -0.8389 -0.2195  0.8376
 5880SOL     OW18538   4.486   3.175   1.179  0.4260 -0.0035  0.0802
 5880SOL    HW118539   4.387   3.168   1.186  0.4585  0.5658  1.5226
 5880SOL    HW218540   4.514   3.158   1.085 -1.1582  1.1799 -0.6482
 5881SOL     OW18541   0.996   4.818   2.611 -0.1678  0.1408  0.2048
 5881SOL    HW118542   1.076   4.764   2.639  1.2377  1.4808 -1.0513
 5881SOL    HW218543   0.965   4.787   2.521  0.1730  0.8804 -0.1791
 5882SOL     OW18544   0.855   4.474   6.501 -0.4901  0.0573  0.1415
 5882SOL    HW118545   0.865   4.416   6.581  1.9804 -0.7328 -0.6431
 5882SOL    HW218546   0.902   4.561   6.517  1.4904 -0.7451 -0.9562
 5883SOL     OW18547   6.191   3.995   1.098  0.3797  0.1143 -0.4811
 5883SOL    HW118548   6.235   4.076   1.059  0.8794  0.3390  0.5292
 5883SOL    HW218549   6.137   4.021   1.178  0.0355 -0.4662 -0.5170
 5884SOL     OW18550   0.310   6.088   2.879 -0.8162  0.2421 -0.0957
 5884SOL    HW118551   0.228   6.105   2.824 -1.6577 -0.1968  0.9779
 5884SOL    HW218552   0.374   6.164   2.868 -1.6964  0.9640 -0.3746
 5885SOL     OW18553   6.993   3.504   3.244 -0.1582 -0.1894 -0.3783
 5885SOL    HW118554   6.949   3.431   3.295  1.3398 -0.3700  0.7372
 5885SOL    HW218555   7.090   3.482   3.231  0.7469  2.2424  1.4017
 5886SOL     OW18556   1.884   4.316   3.122 -0.3277 -0.0863 -0.6227
 5886SOL    HW118557   1.887   4.397   3.180  2.4945 -0.4384 -0.1469
 5886SOL    HW218558   1.858   4.237   3.177 -0.9569  0.1166 -0.6164
 5887SOL     OW18559   2.676   2.857   6.525  0.0773 -0.3975  0.2583
 5887SOL    HW118560   2.696   2.940   6.578  1.8735 -0.6092 -0.0067
 5887SOL    HW218561   2.591   2.816   6.558  1.4753 -0.9536  3.6133
 5888SOL     OW18562   4.474   0.367   1.255  0.5396 -0.0058  0.0409
 5888SOL    HW118563   4.403   0.342   1.320  0.2725  1.8905  0.5377
 5888SOL    HW218564   4.450   0.454   1.211  2.1384  0.2489 -0.4107
 5889SOL     OW18565   5.939   1.175   2.758 -0.2686 -0.0701 -0.4000
 5889SOL    HW118566   5.961   1.184   2.661  0.3459  2.3997 -0.0846
 5889SOL    HW218567   5.894   1.258   2.790 -0.0542 -0.6539  1.5454
 5890SOL     OW18568   1.718   4.977   3.962 -0.5261  0.4009  0.0293
 5890SOL    HW118569   1.728   5.065   3.917 -1.4199  0.6392  0.2598
 5890SOL    HW218570   1.694   4.992   4.058  1.0788 -0.0952  0.5325
 5891SOL     OW18571   0.856   2.185   6.619 -0.2302  0.2013 -0.0832
 5891SOL    HW118572   0.764   2.144   6.614 -0.9405  1.6159  0.6670
 5891SOL    HW218573   0.925   2.114   6.611 -1.4036 -0.9520 -0.2597
 5892SOL     OW18574   1.259   1.950   6.313  0.0107  0.2138 -0.4008
 5892SOL    HW118575   1.188   1.982   6.376  1.0064 -0.9758  1.4212
 5892SOL    HW218576   1.217   1.928   6.224 -1.6145  1.0078  0.1234
 5893SOL     OW18577   0.667   0.453   0.326 -0.0069 -0.3069 -0.2451
 5893SOL    HW118578   0.662   0.399   0.241  0.6642 -0.3624 -0.2480
 5893SOL    HW218579   0.630   0.398   0.401  0.3147 -0.6306 -0.3196
 5894SOL     OW18580   0.939   6.169   6.378 -0.5693 -0.2255 -0.1160
 5894SOL    HW118581   0.875   6.236   6.339  0.9236  1.3316 -0.0042
 5894SOL    HW218582   1.018   6.159   6.317  1.4898  1.7281  2.0186
 5895SOL     OW18583   4.640   4.862   3.034 -0.5930  0.8654 -0.1397
 5895SOL    HW118584   4.650   4.952   3.077 -1.3220  0.4285  0.9886
 5895SOL    HW218585   4.571   4.866   2.963 -0.1876  1.3356 -0.5114
 5896SOL     OW18586   4.652   2.949   0.582 -0.7010 -0.3144 -0.4449
 5896SOL    HW118587   4.611   2.916   0.667  0.2955 -1.1826 -0.2897
 5896SOL    HW218588   4.686   3.042   0.596  0.6669 -0.9337  0.5359
 5897SOL     OW18589   2.738   2.903   5.974  0.3896  0.1887  0.1351
 5897SOL    HW118590   2.782   2.989   5.950 -0.0263  0.3040 -0.2231
 5897SOL    HW218591   2.752   2.884   6.072  3.7389 -1.2139 -0.4566
 5898SOL     OW18592   2.489   0.146   1.043  0.0854 -0.7184  0.2675
 5898SOL    HW118593   2.452   0.223   1.096 -1.5205 -2.4351  1.8055
 5898SOL    HW218594   2.536   0.084   1.105 -0.1665 -1.8365 -0.6396
 5899SOL     OW18595   1.387   6.693   0.562  0.0920 -0.2103 -0.2381
 5899SOL    HW118596   1.319   6.765   0.570 -0.2536 -0.5329 -0.2567
 5899SOL    HW218597   1.436   6.702   0.475 -1.2115 -1.0810 -1.0979
 5900SOL     OW18598   5.222   1.298   3.019 -0.1512  0.4117 -0.8293
 5900SOL    HW118599   5.155   1.366   2.989 -1.7988 -1.5607 -1.9132
 5900SOL    HW218600   5.223   1.295   3.119 -1.9898  0.2625 -0.7783
 5901SOL     OW18601   1.275   1.731   0.711 -0.2475 -0.1697  0.0855
 5901SOL    HW118602   1.268   1.808   0.774 -1.7315  0.6972 -1.0901
 5901SOL    HW218603   1.240   1.648   0.755  2.6318 -0.6078  1.8701
 5902SOL     OW18604   3.405   4.983   4.916  0.0486 -0.2612  0.2872
 5902SOL    HW118605   3.310   4.954   4.930  0.7000 -1.7368  2.1246
 5902SOL    HW218606   3.421   5.069   4.964 -0.2768 -0.2041  0.2952
 5903SOL     OW18607   5.509   0.565   5.581  0.4147 -0.3986  0.2943
 5903SOL    HW118608   5.577   0.496   5.607 -0.3524 -1.1222  0.4391
 5903SOL    HW218609   5.555   0.649   5.555  1.3928 -1.0435 -0.1334
 5904SOL     OW18610   6.541   4.647   0.840 -0.0913 -0.5858 -0.4031
 5904SOL    HW118611   6.566   4.571   0.781 -2.8018 -1.8586 -0.0524
 5904SOL    HW218612   6.484   4.712   0.789  0.1734 -0.0585 -0.0364
 5905SOL     OW18613   6.768   4.120   4.487  0.0885 -0.2997 -0.1641
 5905SOL    HW118614   6.731   4.195   4.541  0.0092  0.4991 -1.2932
 5905SOL    HW218615   6.695   4.079   4.432  0.0081 -1.6019  0.8683
 5906SOL     OW18616   3.374   2.207   6.558 -0.5979 -0.4300 -0.2346
 5906SOL    HW118617   3.427   2.208   6.643 -1.6117  0.4993  0.4195
 5906SOL    HW218618   3.345   2.114   6.538 -0.1621 -0.6932  0.3239
 5907SOL     OW18619   0.508   6.180   0.583 -0.1700 -0.0396  0.5934
 5907SOL    HW118620   0.572   6.137   0.647 -1.6811 -1.2466  1.3732
 5907SOL    HW218621   0.420   6.194   0.629 -0.1304  2.7844 -0.0474
 5908SOL     OW18622   4.113   2.816   0.106  0.4380 -0.8003  0.0429
 5908SOL    HW118623   4.059   2.817   0.190 -1.8167 -2.8348 -1.2773
 5908SOL    HW218624   4.191   2.754   0.117 -0.4337 -1.8665  0.3357
 5909SOL     OW18625   0.258   5.226   3.389 -0.2060  0.0545 -0.3175
 5909SOL    HW118626   0.219   5.271   3.309 -1.4115  0.0294  0.2312
 5909SOL    HW218627   0.190   5.225   3.463  0.6155 -0.5992  0.4484
 5910SOL     OW18628   3.097   3.308   0.532  0.5205  0.2215 -0.2360
 5910SOL    HW118629   3.056   3.340   0.446  0.5334  1.9821  0.3858
 5910SOL    HW218630   3.091   3.380   0.601 -1.1148 -1.7441  1.8314
 5911SOL     OW18631   5.287   5.817   5.076  0.4777 -0.2997 -0.6271
 5911SOL    HW118632   5.209   5.880   5.081  0.3382 -0.4676 -0.6650
 5911SOL    HW218633   5.280   5.763   4.992  1.5947  0.9322 -1.5676
 5912SOL     OW18634   6.855   3.207   6.135 -0.0148 -0.1485  0.3282
 5912SOL    HW118635   6.854   3.117   6.092 -0.2102  0.1304 -0.2508
 5912SOL    HW218636   6.947   3.246   6.128  0.0219 -0.2178  0.4140
 5913SOL     OW18637   3.711   2.871   5.151 -0.0631  0.3775 -0.9397
 5913SOL    HW118638   3.626   2.866   5.099  0.4246 -0.7927 -1.6684
 5913SOL    HW218639   3.782   2.914   5.094  0.0404  0.6346 -0.6203
 5914SOL     OW18640   6.926   5.596   2.115  0.4341 -0.6326 -0.1985
 5914SOL    HW118641   6.986   5.573   2.192  1.4100  2.3758  0.0711
 5914SOL    HW218642   6.967   5.565   2.030  0.1130 -2.5921  0.3160
 5915SOL     OW18643   4.796   2.505   3.421 -0.4482  0.4309  0.3134
 5915SOL    HW118644   4.715   2.486   3.365 -0.2076 -0.0297  0.1066
 5915SOL    HW218645   4.833   2.418   3.455  0.8205  0.4959 -0.8298
 5916SOL     OW18646   3.781   1.664   4.548  1.1224 -0.1766  0.3953
 5916SOL    HW118647   3.720   1.743   4.546 -0.3748 -1.2637  1.0348
 5916SOL    HW218648   3.876   1.694   4.547  0.5892  1.5829 -0.3314
 5917SOL     OW18649   3.723   3.130   2.608  0.8797  0.1397  0.7215
 5917SOL    HW118650   3.691   3.038   2.630  0.9831 -0.3534 -0.9950
 5917SOL    HW218651   3.823   3.128   2.596  0.7789  0.2298 -0.2701
 5918SOL     OW18652   6.588   1.473   4.618  0.3749 -0.1814  0.6152
 5918SOL    HW118653   6.663   1.411   4.640  0.8247 -0.3801 -1.2904
 5918SOL    HW218654   6.505   1.419   4.599 -0.6438  0.0713  3.7547
 5919SOL     OW18655   1.334   2.572   6.414 -0.3430 -0.5531  0.3349
 5919SOL    HW118656   1.416   2.621   6.446 -1.3520  0.8758  0.8573
 5919SOL    HW218657   1.347   2.542   6.320  0.0195  1.5202 -0.3205
 5920SOL     OW18658   5.130   5.477   0.372 -0.1781  0.2304  0.2609
 5920SOL    HW118659   5.031   5.459   0.375  0.1345 -2.3114 -1.1434
 5920SOL    HW218660   5.165   5.489   0.464 -1.6858  0.3147  0.8458
 5921SOL     OW18661   4.183   4.761   5.142 -0.3054 -0.0407 -0.0793
 5921SOL    HW118662   4.232   4.691   5.091  0.9368 -1.6340  3.0066
 5921SOL    HW218663   4.240   4.844   5.147  0.7302 -0.7656  0.7663
 5922SOL     OW18664   6.959   5.121   1.229 -0.2592 -0.2169 -0.4616
 5922SOL    HW118665   6.962   5.062   1.148 -0.1899  1.0876 -1.4541
 5922SOL    HW218666   7.050   5.161   1.244 -0.2115 -0.6368  0.4182
 5923SOL     OW18667   2.854   0.331   3.292  0.0471  0.1969 -0.1534
 5923SOL    HW118668   2.780   0.311   3.228 -1.4100 -0.8035  1.7254
 5923SOL    HW218669   2.887   0.245   3.331  1.2875  0.7446  0.0340
 5924SOL     OW18670   0.972   1.916   3.537 -0.0198  0.4152 -0.1129
 5924SOL    HW118671   1.053   1.959   3.497 -0.0116 -1.1637 -1.9399
 5924SOL    HW218672   0.978   1.817   3.526 -1.1955  0.0960  1.7285
 5925SOL     OW18673   4.686   5.714   0.795 -0.4114  0.0452  0.4225
 5925SOL    HW118674   4.690   5.615   0.808  2.1293  0.1481  0.9115
 5925SOL    HW218675   4.747   5.740   0.721 -0.5330  1.3128  0.7525
 5926SOL     OW18676   2.448   5.948   1.459  0.0212  0.4814 -0.2453
 5926SOL    HW118677   2.461   5.903   1.548  0.5576 -0.6837 -0.8843
 5926SOL    HW218678   2.357   5.927   1.425 -0.8880  2.4323  0.8187
 5927SOL     OW18679   2.271   5.758   1.300 -0.7316 -0.0232  0.2939
 5927SOL    HW118680   2.225   5.686   1.249  1.0341 -0.8600 -0.1917
 5927SOL    HW218681   2.314   5.720   1.382  0.0263  0.4864  0.1519
 5928SOL     OW18682   0.153   5.749   0.167 -0.4978 -0.3039  0.7213
 5928SOL    HW118683   0.097   5.666   0.174 -1.2709  0.2161  0.9427
 5928SOL    HW218684   0.193   5.769   0.256 -0.1620 -0.5370  0.6239
 5929SOL     OW18685   6.746   6.116   6.094  0.0667 -0.5893  0.9029
 5929SOL    HW118686   6.696   6.063   6.162 -0.0342 -0.8352  0.6395
 5929SOL    HW218687   6.822   6.061   6.058  1.0629  0.0782  1.9180
 5930SOL     OW18688   6.241   2.843   4.978 -0.2484  0.0200  0.1124
 5930SOL    HW118689   6.279   2.920   4.926 -0.2618 -1.1025 -1.6233
 5930SOL    HW218690   6.288   2.837   5.066  1.2860  0.7009 -0.6146
 5931SOL     OW18691   4.627   3.475   6.694  0.5740 -0.1754 -0.0729
 5931SOL    HW118692   4.667   3.412   6.628 -1.9847 -1.2231 -0.7478
 5931SOL    HW218693   4.650   3.445   6.787  1.6406 -0.4691 -0.4109
 5932SOL     OW18694   2.456   0.346   6.231  0.2469 -0.6237 -0.0222
 5932SOL    HW118695   2.379   0.318   6.288  0.5761  1.0514  1.3185
 5932SOL    HW218696   2.520   0.401   6.285  1.9787 -1.2651 -1.3239
 5933SOL     OW18697   6.347   2.997   0.364  0.9284 -0.2453 -0.4972
 5933SOL    HW118698   6.382   2.904   0.355 -0.4876 -0.6113 -3.9633
 5933SOL    HW218699   6.421   3.062   0.346  1.6321 -0.7178  0.6249
 5934SOL     OW18700   2.731   3.283   1.815 -0.3253 -0.1780  0.3863
 5934SOL    HW118701   2.745   3.382   1.821 -0.2806 -0.2662  2.3817
 5934SOL    HW218702   2.638   3.265   1.782  0.0579  0.5000 -1.1256
 5935SOL     OW18703   4.022   3.295   3.626  0.2242 -0.3953  0.0540
 5935SOL    HW118704   4.024   3.278   3.528  0.4612 -1.8358  0.2917
 5935SOL    HW218705   3.941   3.252   3.666  0.2063  0.0551  0.5123
 5936SOL     OW18706   2.343   0.809   5.633 -0.1193 -0.1972 -0.4354
 5936SOL    HW118707   2.347   0.862   5.548 -0.0764  1.4365  0.5377
 5936SOL    HW218708   2.252   0.817   5.673  0.3374  0.4687  0.5155
 5937SOL     OW18709   1.555   4.742   6.086 -0.1028  0.0967  0.5569
 5937SOL    HW118710   1.603   4.658   6.114 -0.3182 -0.0172  0.5865
 5937SOL    HW218711   1.509   4.725   5.998  2.3294  1.0795 -1.0148
 5938SOL     OW18712   1.517   4.069   0.743 -0.3907 -0.2636 -0.4018
 5938SOL    HW118713   1.616   4.056   0.736 -0.3768 -0.6298  0.4033
 5938SOL    HW218714   1.474   3.984   0.775 -0.8792  0.1253 -0.0109
 5939SOL     OW18715   1.610   2.052   3.074  0.1216  0.0484 -0.1722
 5939SOL    HW118716   1.688   2.110   3.051  0.6198 -0.6346 -0.2298
 5939SOL    HW218717   1.642   1.961   3.101 -0.5275  0.3252  1.7074
 5940SOL     OW18718   5.478   6.777   2.743  0.0592  0.1048 -0.0523
 5940SOL    HW118719   5.388   6.738   2.724 -2.2132  2.8477  3.7278
 5940SOL    HW218720   5.491   6.859   2.687 -0.6614  0.7097  0.6407
 5941SOL     OW18721   5.585   4.340   2.673 -0.6210 -0.0753 -0.4148
 5941SOL    HW118722   5.659   4.391   2.630  0.4110 -1.2062 -0.0464
 5941SOL    HW218723   5.526   4.301   2.603  0.0484 -0.4600 -0.7727
 5942SOL     OW18724   2.448   0.311   4.370 -0.6164 -0.0741 -0.1053
 5942SOL    HW118725   2.530   0.353   4.332  2.2088 -2.0511  3.1565
 5942SOL    HW218726   2.375   0.378   4.375  1.6080  2.5826 -0.8550
 5943SOL     OW18727   6.220   4.475   0.409 -0.3392 -0.1360 -0.0562
 5943SOL    HW118728   6.211   4.376   0.416 -1.5432  0.0284  1.2148
 5943SOL    HW218729   6.135   4.514   0.373  0.6132  0.3490 -1.8903
 5944SOL     OW18730   4.955   3.906   1.390  0.2007  0.2509 -0.7510
 5944SOL    HW118731   5.051   3.878   1.395 -0.0787 -0.5772  0.1968
 5944SOL    HW218732   4.923   3.933   1.481 -0.5176  0.3616 -1.0299
 5945SOL     OW18733   5.523   6.976   0.154  0.5543 -0.1006 -0.0315
 5945SOL    HW118734   5.463   7.002   0.229  0.5949 -0.1048  0.0022
 5945SOL    HW218735   5.608   7.027   0.159  0.7491 -0.4465  0.1996
 5946SOL     OW18736   2.165   4.410   6.813  0.3551  0.5028  0.2370
 5946SOL    HW118737   2.123   4.419   6.723 -2.1151  1.0774  1.3537
 5946SOL    HW218738   2.195   4.500   6.845  0.7771  0.3761  0.2083
 5947SOL     OW18739   4.578   5.016   3.525 -0.2024  0.2301  0.3923
 5947SOL    HW118740   4.548   4.973   3.610  1.3087  0.3772  1.0338
 5947SOL    HW218741   4.545   4.962   3.447 -2.5498  0.6975  0.9861
 5948SOL     OW18742   1.724   3.088   2.045 -0.0468  0.0223 -0.1614
 5948SOL    HW118743   1.646   3.028   2.025  0.2396  0.1204 -1.6349
 5948SOL    HW218744   1.739   3.150   1.968  2.2862 -0.8497 -0.4747
 5949SOL     OW18745   4.360   4.216   0.651 -0.0135 -0.5160  0.1526
 5949SOL    HW118746   4.367   4.152   0.727  1.6720  0.8442  1.2127
 5949SOL    HW218747   4.438   4.279   0.652 -1.7148  1.7722 -0.6619
 5950SOL     OW18748   5.248   1.819   5.512  0.3580 -0.1003 -0.1573
 5950SOL    HW118749   5.318   1.886   5.540  0.7515 -1.2090  1.6539
 5950SOL    HW218750   5.289   1.754   5.448  1.1259 -0.9492  1.1589
 5951SOL     OW18751   4.926   0.367   4.726 -0.3821  0.1662 -0.0826
 5951SOL    HW118752   5.004   0.409   4.680 -0.0038 -0.8638 -0.4265
 5951SOL    HW218753   4.863   0.330   4.657 -0.8631  0.4441  0.2042
 5952SOL     OW18754   6.994   5.275   4.532  0.2236 -0.3527 -0.3918
 5952SOL    HW118755   6.898   5.295   4.511  0.3409  2.3359  1.1537
 5952SOL    HW218756   7.001   5.236   4.624  0.6507  0.7833  0.0850
 5953SOL     OW18757   0.407   1.572   5.111  0.2620  0.6523 -0.2878
 5953SOL    HW118758   0.361   1.505   5.170 -0.9541  1.6145 -0.0891
 5953SOL    HW218759   0.498   1.591   5.148  0.4201 -0.4737 -0.0473
 5954SOL     OW18760   2.399   5.977   0.284 -0.4732 -1.2167  0.0338
 5954SOL    HW118761   2.442   5.932   0.362  0.0455  0.2133  0.5978
 5954SOL    HW218762   2.325   6.037   0.316  0.1668 -0.1131 -0.4874
 5955SOL     OW18763   5.120   4.423   2.700  0.1792  0.1607 -0.1504
 5955SOL    HW118764   5.114   4.523   2.698  2.2330  0.3512  1.0001
 5955SOL    HW218765   5.203   4.396   2.748  1.3605 -2.0768 -3.1937
 5956SOL     OW18766   5.965   2.766   6.430  0.1508  0.4839 -0.1851
 5956SOL    HW118767   5.892   2.824   6.465  0.5931  1.4145 -0.7634
 5956SOL    HW218768   5.974   2.779   6.331 -0.7581 -1.7229 -0.6360
 5957SOL     OW18769   5.447   6.513   6.246 -0.0460  0.3506 -0.2884
 5957SOL    HW118770   5.356   6.553   6.232 -0.2594 -0.5172 -1.5766
 5957SOL    HW218771   5.487   6.492   6.157  1.5479  0.9806  0.2567
 5958SOL     OW18772   0.029   6.449   0.241  0.3227 -0.1553  0.1484
 5958SOL    HW118773   0.002   6.487   0.329 -1.1916  0.0551 -0.3706
 5958SOL    HW218774   0.038   6.349   0.249  1.0866 -0.0426  0.7441
 5959SOL     OW18775   0.870   6.337   0.747 -0.0756 -0.7097  0.0230
 5959SOL    HW118776   0.800   6.284   0.795 -1.2880  1.2630  0.5613
 5959SOL    HW218777   0.886   6.423   0.795  0.0059  0.5371 -2.0964
 5960SOL     OW18778   4.075   6.732   4.281  0.8207  0.0230 -0.1108
 5960SOL    HW118779   4.050   6.639   4.308  0.7304 -0.2551 -1.1159
 5960SOL    HW218780   4.054   6.745   4.184  0.8499  1.0892  0.0168
 5961SOL     OW18781   2.694   1.368   5.606  0.0073 -0.1365 -0.3595
 5961SOL    HW118782   2.668   1.400   5.697  0.5301  0.4887 -0.4246
 5961SOL    HW218783   2.672   1.438   5.539  2.2949  0.6617 -0.3651
 5962SOL     OW18784   4.610   4.407   2.416  0.7975  0.1904 -0.2335
 5962SOL    HW118785   4.650   4.355   2.492  0.9917 -0.6078 -0.8785
 5962SOL    HW218786   4.623   4.357   2.331  2.7930  2.2020 -1.2056
 5963SOL     OW18787   3.914   3.525   2.734  0.0531  0.1182  0.8811
 5963SOL    HW118788   3.953   3.614   2.710 -0.6886  0.2739  0.2199
 5963SOL    HW218789   3.820   3.538   2.767 -0.3514 -0.4983 -0.0132
 5964SOL     OW18790   1.086   4.513   0.168  0.0275 -0.0875 -0.3468
 5964SOL    HW118791   1.153   4.440   0.169  0.0987 -0.0294 -0.7015
 5964SOL    HW218792   1.129   4.598   0.138  0.1956  0.3550  1.0803
 5965SOL     OW18793   0.688   0.659   4.475  0.2026 -0.0854  0.0786
 5965SOL    HW118794   0.630   0.709   4.540 -0.9842 -1.5033  0.1521
 5965SOL    HW218795   0.749   0.724   4.430  1.4223  0.9039  2.9099
 5966SOL     OW18796   2.253   4.285   3.542  0.5545 -0.1669  0.1660
 5966SOL    HW118797   2.214   4.246   3.626  0.1757 -1.3754 -0.5386
 5966SOL    HW218798   2.284   4.378   3.559 -1.0838  0.2232  1.2099
 5967SOL     OW18799   5.292   6.901   1.580  0.1749 -0.3492 -0.0162
 5967SOL    HW118800   5.358   6.829   1.599  1.3424  0.7208  0.1099
 5967SOL    HW218801   5.304   6.933   1.486 -0.3118 -0.2852 -0.0599
 5968SOL     OW18802   1.578   2.602   2.627 -0.6045  0.0571 -0.1825
 5968SOL    HW118803   1.491   2.651   2.616  0.5906  2.2240 -0.5655
 5968SOL    HW218804   1.654   2.667   2.619  1.0395 -1.5471  1.4078
 5969SOL     OW18805   0.262   1.070   3.282  0.4842 -0.5131  0.2022
 5969SOL    HW118806   0.241   1.087   3.378  3.6393  1.3512  0.6955
 5969SOL    HW218807   0.194   1.116   3.225 -0.1592  0.2736  1.5545
 5970SOL     OW18808   1.331   4.806   3.922 -0.6015  0.2625 -0.0025
 5970SOL    HW118809   1.353   4.893   3.965  1.7050 -0.6806  0.9067
 5970SOL    HW218810   1.340   4.732   3.989  3.2945 -1.3006 -1.9519
 5971SOL     OW18811   3.387   6.353   3.578 -0.4872  0.3998 -0.0734
 5971SOL    HW118812   3.384   6.253   3.571 -1.5107  0.3937  0.3105
 5971SOL    HW218813   3.445   6.390   3.505 -0.1374 -0.4654 -0.2454
 5972SOL     OW18814   6.123   0.010   0.967 -0.2752 -0.6004 -0.0616
 5972SOL    HW118815   6.050   0.072   0.994 -0.9413 -1.3639 -0.0639
 5972SOL    HW218816   6.135   0.014   0.868 -0.6510 -0.8238 -0.1192
 5973SOL     OW18817   2.501   5.621   3.445 -0.3264  0.2378 -0.2749
 5973SOL    HW118818   2.419   5.640   3.499  0.7005  1.1393  1.0248
 5973SOL    HW218819   2.504   5.682   3.366 -1.8805 -1.1433 -1.4737
 5974SOL     OW18820   1.265   1.766   6.521 -0.2803 -0.2795 -0.0809
 5974SOL    HW118821   1.186   1.711   6.494  0.7743 -1.2581 -1.3216
 5974SOL    HW218822   1.285   1.834   6.450  0.9263 -1.1060 -0.5731
 5975SOL     OW18823   6.929   4.046   6.700  0.2886  0.6546  0.4486
 5975SOL    HW118824   6.857   4.111   6.673  0.3653  1.2641  1.6529
 5975SOL    HW218825   6.926   3.967   6.639 -1.4487  0.6369  0.4810
 5976SOL     OW18826   3.656   3.539   5.408 -0.1693  0.2240 -0.7088
 5976SOL    HW118827   3.680   3.513   5.314 -2.8249  0.3491 -1.5279
 5976SOL    HW218828   3.653   3.639   5.415  2.0481  0.2878  0.1609
 5977SOL     OW18829   0.049   4.205   2.801 -0.1604 -0.3683  0.4741
 5977SOL    HW118830   0.084   4.283   2.852  0.0014 -0.4250  0.4522
 5977SOL    HW218831  -0.036   4.229   2.755  0.7643  0.3188 -0.9440
 5978SOL     OW18832   5.249   6.532   1.220  0.1691 -0.6633 -0.4085
 5978SOL    HW118833   5.292   6.517   1.309 -1.2207  0.8376  0.5607
 5978SOL    HW218834   5.153   6.554   1.233  0.5812  2.6425 -2.0191
 5979SOL     OW18835   7.003   0.199   1.657  0.2737 -0.2962 -0.2417
 5979SOL    HW118836   6.979   0.293   1.635  3.4145  0.2188 -2.1482
 5979SOL    HW218837   6.938   0.137   1.613  0.6234  0.9792 -2.7268
 5980SOL     OW18838   4.073   2.772   6.603  0.0522 -0.2238 -0.2298
 5980SOL    HW118839   4.090   2.767   6.504 -1.6775  3.8949 -0.9659
 5980SOL    HW218840   3.974   2.772   6.619  0.3048 -1.3652  1.6370
 5981SOL     OW18841   3.340   2.834   0.141  0.0374  0.1887 -0.6085
 5981SOL    HW118842   3.411   2.771   0.112 -0.3996 -1.2921  1.3358
 5981SOL    HW218843   3.261   2.827   0.079 -1.5005 -4.0240  1.4526
 5982SOL     OW18844   4.832   2.266   1.242  0.7437  0.1071  0.2310
 5982SOL    HW118845   4.883   2.180   1.245  1.6746  0.6455  2.7389
 5982SOL    HW218846   4.884   2.334   1.191  2.0117  0.2745  1.6603
 5983SOL     OW18847   1.909   5.173   5.246  0.3587  0.5957  0.4543
 5983SOL    HW118848   1.927   5.199   5.151  0.4072 -0.3094  0.2034
 5983SOL    HW218849   1.839   5.233   5.284  1.1474  1.6949  0.2182
 5984SOL     OW18850   0.760   0.101   6.357 -0.0260 -0.8956 -0.2933
 5984SOL    HW118851   0.757   0.069   6.452  1.7105 -0.2639  0.0052
 5984SOL    HW218852   0.753   0.022   6.296  1.8869 -1.6687  0.4033
 5985SOL     OW18853   5.419   2.089   5.070  0.6898  0.2157 -0.0652
 5985SOL    HW118854   5.489   2.130   5.012  0.4181  0.5008 -0.1945
 5985SOL    HW218855   5.374   2.161   5.124  0.4101  0.0529 -0.0794
 5986SOL     OW18856   2.942   3.296   3.657  0.0824 -0.7865 -0.2848
 5986SOL    HW118857   2.922   3.271   3.562  0.2758 -1.3170 -0.1882
 5986SOL    HW218858   3.040   3.314   3.667  0.0750 -0.8112 -0.1679
 5987SOL     OW18859   4.088   1.462   5.881  0.1394  0.1587  0.2157
 5987SOL    HW118860   4.091   1.387   5.815 -3.5033  1.0349 -1.1318
 5987SOL    HW218861   4.058   1.428   5.970 -1.8984 -0.0074 -0.4972
 5988SOL     OW18862   4.323   5.207   5.863 -0.3752  0.4501  0.4258
 5988SOL    HW118863   4.335   5.211   5.764  3.1529 -0.0467  0.7160
 5988SOL    HW218864   4.227   5.187   5.884 -1.2875  0.8541 -2.8293
 5989SOL     OW18865   1.942   2.859   5.504 -0.0944 -0.2021  0.2491
 5989SOL    HW118866   1.977   2.796   5.574  1.3992  0.0761 -0.2135
 5989SOL    HW218867   2.016   2.919   5.474 -0.8616  0.0610 -1.1605
 5990SOL     OW18868   3.201   4.844   3.041  0.1585 -0.2632 -0.3468
 5990SOL    HW118869   3.114   4.879   3.074  0.0094 -0.4080 -0.5788
 5990SOL    HW218870   3.193   4.823   2.943  0.9445  1.3288 -0.7915
 5991SOL     OW18871   4.987   4.832   5.080  0.1183 -0.3011 -0.0722
 5991SOL    HW118872   4.914   4.779   5.036  0.2352  0.5807 -1.3904
 5991SOL    HW218873   4.948   4.918   5.114  0.6267  0.4390 -1.3052
 5992SOL     OW18874   5.604   1.862   2.783 -0.2470 -0.3108 -1.1734
 5992SOL    HW118875   5.522   1.918   2.768  0.1658  0.9936  1.0924
 5992SOL    HW218876   5.582   1.786   2.844  0.0576 -0.4162 -1.1919
 5993SOL     OW18877   2.456   6.255   3.352  0.5305  0.1652  0.8378
 5993SOL    HW118878   2.545   6.299   3.364  0.7074 -0.1423  0.6738
 5993SOL    HW218879   2.465   6.157   3.367  0.3254  0.0645  0.3265
 5994SOL     OW18880   5.760   3.339   1.555 -0.6045  0.6710  0.5153
 5994SOL    HW118881   5.687   3.273   1.574 -1.1944  1.3021  0.4719
 5994SOL    HW218882   5.720   3.426   1.528  0.1839  0.7243 -0.5521
 5995SOL     OW18883   6.518   5.862   2.113 -0.0773  0.1240  0.6457
 5995SOL    HW118884   6.577   5.789   2.146  1.6793  0.9563 -0.5020
 5995SOL    HW218885   6.519   5.938   2.178  0.2752  0.2182  0.5289
 5996SOL     OW18886   1.248   6.183   6.690 -0.4557 -0.5704 -0.3361
 5996SOL    HW118887   1.269   6.195   6.787 -2.1519 -2.5950  0.3687
 5996SOL    HW218888   1.161   6.227   6.669 -0.0999 -0.1509 -0.9420
 5997SOL     OW18889   0.930   6.994   3.423 -0.2514  0.0513  0.6689
 5997SOL    HW118890   0.957   6.898   3.432  0.0204 -0.1024 -1.2921
 5997SOL    HW218891   0.837   7.007   3.458 -0.9511 -1.3052 -0.6005
 5998SOL     OW18892   6.096   3.330   1.775 -0.7709 -0.1723  0.3333
 5998SOL    HW118893   6.013   3.369   1.817  0.5270  0.8748  2.1245
 5998SOL    HW218894   6.125   3.250   1.828 -0.5731 -0.4523 -0.2012
 5999SOL     OW18895   1.518   1.420   2.770 -0.2792  0.5867 -0.0844
 5999SOL    HW118896   1.438   1.382   2.818  0.1285  1.0495  1.0029
 5999SOL    HW218897   1.502   1.516   2.751 -0.0127  0.6648  0.0779
 6000SOL     OW18898   4.634   1.665   3.690 -0.2406  1.1579  0.1637
 6000SOL    HW118899   4.613   1.591   3.755 -0.8047  1.3121  0.1697
 6000SOL    HW218900   4.552   1.721   3.678 -0.8459 -0.1046 -2.3032
 6001SOL     OW18901   6.138   1.568   1.237  0.0073 -0.0361 -0.1451
 6001SOL    HW118902   6.059   1.533   1.187 -0.6377  1.6444 -0.3542
 6001SOL    HW218903   6.157   1.509   1.316 -0.0903 -1.6758 -1.3000
 6002SOL     OW18904   2.205   5.879   2.640  0.0328  0.6188  0.4516
 6002SOL    HW118905   2.129   5.814   2.639  0.4120  0.1671 -1.5690
 6002SOL    HW218906   2.169   5.971   2.653 -0.6846  0.2498  1.2354
 6003SOL     OW18907   5.927   4.996   3.801  0.4763 -0.7062  0.3560
 6003SOL    HW118908   6.024   4.975   3.816  0.4958 -0.9675 -0.1083
 6003SOL    HW218909   5.872   4.948   3.870  0.5740 -1.7778 -0.2786
 6004SOL     OW18910   0.474   3.337   1.192  0.3975  0.3583 -0.8932
 6004SOL    HW118911   0.469   3.238   1.183 -0.3340  0.2615  0.3420
 6004SOL    HW218912   0.381   3.375   1.196  0.6671  1.0199 -0.7749
 6005SOL     OW18913   1.408   6.470   1.092  0.4469  0.6455  0.2548
 6005SOL    HW118914   1.401   6.566   1.119 -1.0322  0.7710 -0.4758
 6005SOL    HW218915   1.316   6.432   1.080  1.0003 -0.1482 -1.9185
 6006SOL     OW18916   3.453   6.028   1.014  0.4759 -0.3152 -0.0053
 6006SOL    HW118917   3.480   5.932   1.013  3.8433  0.4428  1.7386
 6006SOL    HW218918   3.465   6.067   0.922  0.7742 -1.1566 -0.3324
 6007SOL     OW18919   5.186   3.346   5.311  0.2662 -0.6431 -0.7321
 6007SOL    HW118920   5.212   3.255   5.279  0.2876 -0.7943 -0.2944
 6007SOL    HW218921   5.107   3.339   5.372 -2.2568 -0.0160 -3.6549
 6008SOL     OW18922   5.183   3.571   0.371  0.6117  1.1008  0.3467
 6008SOL    HW118923   5.219   3.526   0.289  1.1946 -2.0822  2.1479
 6008SOL    HW218924   5.090   3.539   0.388 -0.0626  2.8809  0.1933
 6009SOL     OW18925   2.726   1.769   4.803  0.0275  0.1607  0.5955
 6009SOL    HW118926   2.669   1.848   4.827  1.1822  0.4288  2.5647
 6009SOL    HW218927   2.821   1.798   4.794  0.7972 -1.2720  3.2665
 6010SOL     OW18928   6.837   3.460   2.553 -0.3629  0.1463  0.0844
 6010SOL    HW118929   6.846   3.366   2.586 -0.8896 -0.3007 -0.9855
 6010SOL    HW218930   6.895   3.473   2.473  0.3602  0.9982  0.7375
 6011SOL     OW18931   1.501   0.928   1.736  0.2914  0.2405 -0.2004
 6011SOL    HW118932   1.561   1.005   1.756 -0.8140  0.7639  1.2963
 6011SOL    HW218933   1.553   0.843   1.739  1.6242  0.8919 -2.2831
 6012SOL     OW18934   1.728   2.780   2.455  0.0081 -0.5752  0.2428
 6012SOL    HW118935   1.810   2.772   2.398 -0.6406 -0.3359 -0.7428
 6012SOL    HW218936   1.735   2.861   2.512  0.6067 -0.7486  0.4277
 6013SOL     OW18937   4.127   0.754   3.179 -0.0427 -0.4955 -0.1805
 6013SOL    HW118938   4.214   0.753   3.227 -0.6187  0.1266  0.9419
 6013SOL    HW218939   4.137   0.803   3.092  0.5347  0.3446  0.3455
 6014SOL     OW18940   6.771   6.433   3.000  0.0458  0.1143  0.2093
 6014SOL    HW118941   6.838   6.437   3.074 -2.6056  1.8152  2.7504
 6014SOL    HW218942   6.797   6.496   2.927  2.0106 -0.5303  0.3154
 6015SOL     OW18943   5.770   1.062   3.267  0.4803 -0.3618  0.0361
 6015SOL    HW118944   5.722   0.974   3.279 -0.3273 -0.1342 -1.2782
 6015SOL    HW218945   5.862   1.055   3.305  0.1434 -1.5139  0.7060
 6016SOL     OW18946   1.585   5.276   3.372  0.0969 -0.3344 -0.2115
 6016SOL    HW118947   1.540   5.354   3.329 -0.5518 -0.7794 -0.3543
 6016SOL    HW218948   1.681   5.272   3.342 -0.3459 -0.6651 -1.6539
 6017SOL     OW18949   0.856   3.762   1.470  0.1558 -0.0242  0.4708
 6017SOL    HW118950   0.775   3.718   1.507 -1.3989  1.6140 -0.8231
 6017SOL    HW218951   0.918   3.786   1.545  0.3070 -2.7521  1.3457
 6018SOL     OW18952   2.172   5.889   2.301 -0.0594 -0.2082 -0.1890
 6018SOL    HW118953   2.200   5.817   2.364 -0.0327 -0.5304 -0.5653
 6018SOL    HW218954   2.083   5.867   2.261  0.6618 -0.8389 -1.5134
 6019SOL     OW18955   5.640   6.198   2.967  0.7257 -0.3417  0.3169
 6019SOL    HW118956   5.734   6.230   2.978  0.5091 -0.0310  1.2946
 6019SOL    HW218957   5.627   6.113   3.018  0.0929  0.3757  1.3825
 6020SOL     OW18958   4.740   6.563   2.878  0.0200 -0.3340 -0.7404
 6020SOL    HW118959   4.663   6.511   2.841 -0.1489  0.4329 -1.4872
 6020SOL    HW218960   4.715   6.601   2.967  0.2109 -1.6622 -0.0891
 6021SOL     OW18961   3.361   1.967   3.586  0.6887  0.3143 -0.1961
 6021SOL    HW118962   3.261   1.967   3.579  0.7387 -0.4435 -1.1632
 6021SOL    HW218963   3.399   2.043   3.534  0.7324 -1.3651 -2.8377
 6022SOL     OW18964   6.394   6.862   5.232  0.7722 -0.0973 -0.6294
 6022SOL    HW118965   6.493   6.877   5.237  1.0694 -2.0260  0.8694
 6022SOL    HW218966   6.347   6.929   5.290  1.6058 -1.5165  1.8691
 6023SOL     OW18967   1.394   3.273   1.700  0.6322  0.5080  0.5479
 6023SOL    HW118968   1.430   3.274   1.606  2.3127 -0.0322  1.1494
 6023SOL    HW218969   1.363   3.180   1.723  2.1330  0.1313  1.1780
 6024SOL     OW18970   1.300   0.596   3.962 -0.2437 -0.1443 -0.0457
 6024SOL    HW118971   1.370   0.539   4.004 -0.7853 -0.4240  0.4941
 6024SOL    HW218972   1.293   0.573   3.864 -0.4853 -1.0452  0.1696
 6025SOL     OW18973   3.163   1.020   2.845 -0.6982 -0.0639  0.1328
 6025SOL    HW118974   3.150   1.115   2.816 -1.0632 -0.7191 -1.9849
 6025SOL    HW218975   3.079   0.969   2.831 -0.1344 -0.9941  0.0829
 6026SOL     OW18976   0.827   4.747   6.780 -0.5131  0.6491 -0.3533
 6026SOL    HW118977   0.729   4.727   6.780 -0.5081  0.6065  0.2427
 6026SOL    HW218978   0.856   4.771   6.872  0.1409  0.1516 -0.4247
 6027SOL     OW18979   2.908   2.532   0.576 -0.3199 -0.0699  0.5240
 6027SOL    HW118980   2.813   2.551   0.554 -0.5523 -1.3556  0.3171
 6027SOL    HW218981   2.950   2.612   0.618 -1.0630  1.0173 -0.7540
 6028SOL     OW18982   0.699   6.380   0.481  0.2562  0.1891 -0.7229
 6028SOL    HW118983   0.774   6.379   0.548  0.7484  0.4977 -1.2535
 6028SOL    HW218984   0.632   6.311   0.505 -0.3470  1.3057  0.9532
 6029SOL     OW18985   1.022   5.932   1.673  0.0407 -0.2648  0.5525
 6029SOL    HW118986   0.947   5.866   1.675  0.7624 -1.2911 -2.3360
 6029SOL    HW218987   1.102   5.891   1.628  0.9938  2.1061 -0.0701
 6030SOL     OW18988   0.572   6.103   6.657 -0.1825 -0.0735 -0.1180
 6030SOL    HW118989   0.484   6.057   6.648 -0.0857 -0.1657 -0.6497
 6030SOL    HW218990   0.607   6.126   6.566 -0.5934  1.7660  0.1533
 6031SOL     OW18991   6.291   2.257   4.888 -0.2348 -0.2158  0.1152
 6031SOL    HW118992   6.235   2.227   4.966 -0.1971  2.8187  1.4574
 6031SOL    HW218993   6.237   2.315   4.828  0.7848  0.7164  0.0672
 6032SOL     OW18994   0.436   2.101   3.575 -0.0195 -0.6465 -0.0676
 6032SOL    HW118995   0.403   2.156   3.499  1.0636  0.6901  0.3871
 6032SOL    HW218996   0.492   2.026   3.541  0.4238 -0.0794 -0.5966
 6033SOL     OW18997   6.370   6.998   3.868  0.3583  0.0117 -0.0254
 6033SOL    HW118998   6.404   7.064   3.801 -0.7043  0.0998 -0.4927
 6033SOL    HW218999   6.397   6.905   3.840  0.2859  0.0862 -0.3473
 6034SOL     OW19000   1.240   4.128   2.295  0.4900 -0.1827 -0.3199
 6034SOL    HW119001   1.158   4.153   2.347  0.7714 -0.4918  0.2812
 6034SOL    HW219002   1.220   4.049   2.237 -0.0841  0.7092 -1.3902
 6035SOL     OW19003   5.903   6.495   3.572  0.0283 -0.0602 -0.5985
 6035SOL    HW119004   5.886   6.479   3.475 -0.0522 -0.4729 -0.5163
 6035SOL    HW219005   5.947   6.415   3.612  3.4372  1.3835 -1.0819
 6036SOL     OW19006   1.087   1.910   4.217 -0.8130 -0.1120  0.5399
 6036SOL    HW119007   1.051   1.883   4.306 -0.0726 -1.7168  0.3816
 6036SOL    HW219008   1.099   1.829   4.160  0.3296  0.7014 -0.4201
 6037SOL     OW19009   6.725   5.059   5.923  0.3517  0.4414  0.7865
 6037SOL    HW119010   6.672   4.993   5.869  1.1284  1.4196 -1.2778
 6037SOL    HW219011   6.665   5.132   5.955  0.0873  0.5064  0.1572
 6038SOL     OW19012   5.028   2.609   6.214 -0.3346  0.1053 -0.4404
 6038SOL    HW119013   4.937   2.625   6.176 -0.9161 -0.4328  0.6850
 6038SOL    HW219014   5.074   2.539   6.160 -0.9638 -0.3092 -0.4476
 6039SOL     OW19015   3.326   3.693   4.020  0.3130 -0.7217 -0.4358
 6039SOL    HW119016   3.252   3.751   3.986 -0.6698 -0.8686  1.3586
 6039SOL    HW219017   3.328   3.607   3.968  0.7431  0.2012 -2.0227
 6040SOL     OW19018   2.355   6.787   2.560 -0.2391 -0.3667 -0.1117
 6040SOL    HW119019   2.307   6.720   2.502 -2.1222 -0.5992  1.6267
 6040SOL    HW219020   2.415   6.738   2.623  0.4560 -0.2132 -0.6367
 6041SOL     OW19021   5.636   2.673   6.515 -0.3488 -0.2119 -0.2541
 6041SOL    HW119022   5.602   2.640   6.603 -0.8120 -0.9510 -0.6950
 6041SOL    HW219023   5.667   2.768   6.524  0.3827 -0.5389  0.8890
 6042SOL     OW19024   4.371   6.934   6.385 -0.1793  0.0588 -0.2552
 6042SOL    HW119025   4.448   6.887   6.341  1.7188  1.7364  1.1373
 6042SOL    HW219026   4.395   6.958   6.479 -1.6798  2.2770 -0.3625
 6043SOL     OW19027   0.133   4.666   5.137 -0.2926 -0.3774 -0.5032
 6043SOL    HW119028   0.197   4.701   5.206  0.2726 -0.3338 -1.0474
 6043SOL    HW219029   0.162   4.696   5.047  0.0891 -2.0676 -0.9770
 6044SOL     OW19030   6.956   2.550   2.436 -0.3887 -0.6915  0.1779
 6044SOL    HW119031   6.870   2.580   2.395 -0.5898  1.5124  2.0441
 6044SOL    HW219032   6.950   2.556   2.535  1.8775 -0.6728  0.3591
 6045SOL     OW19033   0.036   6.641   6.592 -0.6496 -0.0274 -0.3834
 6045SOL    HW119034   0.038   6.672   6.687 -1.9208  0.9105 -0.6314
 6045SOL    HW219035   0.080   6.709   6.534 -0.7931 -0.0988 -0.5774
 6046SOL     OW19036   0.769   2.651   6.244 -0.1671 -0.1105  0.6469
 6046SOL    HW119037   0.687   2.594   6.237 -1.1524  1.4026 -0.8280
 6046SOL    HW219038   0.781   2.679   6.339 -0.9753 -0.8884  1.0013
 6047SOL     OW19039   1.825   6.663   5.620 -0.0128  0.4304 -0.0203
 6047SOL    HW119040   1.913   6.707   5.606 -0.4160  0.7963 -1.4985
 6047SOL    HW219041   1.764   6.724   5.671 -0.6562  1.7627 -2.2750
 6048SOL     OW19042   5.566   5.001   4.844 -0.2419 -0.2501 -0.3088
 6048SOL    HW119043   5.664   5.022   4.845  0.0473 -1.4229  1.7122
 6048SOL    HW219044   5.553   4.902   4.834 -1.2369 -0.0873 -0.7278
 6049SOL     OW19045   0.189   1.094   5.528  0.2495  0.5868 -0.2483
 6049SOL    HW119046   0.121   1.043   5.580  0.8088  0.7713  0.6817
 6049SOL    HW219047   0.144   1.145   5.455 -0.5326  0.2457 -0.0098
 6050SOL     OW19048   5.678   2.352   6.823 -0.1642  0.8517 -0.5899
 6050SOL    HW119049   5.662   2.316   6.915 -0.7289  1.3159 -0.4958
 6050SOL    HW219050   5.774   2.380   6.814 -0.3377  1.7853  0.2259
 6051SOL     OW19051   1.363   2.428   3.001 -0.2830  0.0762  0.1446
 6051SOL    HW119052   1.384   2.357   3.067 -0.5406  0.0308  0.1777
 6051SOL    HW219053   1.448   2.473   2.972 -0.1152 -0.2833  0.0765
 6052SOL     OW19054   0.522   3.344   2.548 -0.7749  0.4426  0.3205
 6052SOL    HW119055   0.620   3.365   2.543 -1.0652  1.7265 -0.5699
 6052SOL    HW219056   0.484   3.343   2.456 -1.5181 -0.5673  0.6270
 6053SOL     OW19057   0.757   6.641   4.857  0.4362  0.1668 -0.0903
 6053SOL    HW119058   0.736   6.695   4.776 -1.2484 -1.0626 -0.5396
 6053SOL    HW219059   0.847   6.599   4.847  0.3622  0.2429 -1.2352
 6054SOL     OW19060   1.725   4.285   0.538  0.1390  0.0141  0.3566
 6054SOL    HW119061   1.640   4.337   0.539 -0.8664 -1.4928 -1.1993
 6054SOL    HW219062   1.767   4.289   0.448  1.3249  0.0795  0.8856
 6055SOL     OW19063   6.147   0.362   3.329 -0.1377 -0.3830 -1.1166
 6055SOL    HW119064   6.056   0.393   3.302 -0.3144  0.2456  0.1118
 6055SOL    HW219065   6.143   0.267   3.361 -0.1352 -0.7392 -2.1512
 6056SOL     OW19066   4.970   3.359   6.169  0.6829  0.3230  0.2769
 6056SOL    HW119067   4.968   3.268   6.208 -0.8858  1.1903  2.3811
 6056SOL    HW219068   4.921   3.359   6.081  1.6726 -1.0322 -0.3153
 6057SOL     OW19069   4.397   6.006   5.178 -0.5680 -0.0931 -0.8820
 6057SOL    HW119070   4.437   6.031   5.090 -1.2803  0.3405 -1.0883
 6057SOL    HW219071   4.310   6.054   5.190 -0.6173 -0.3716 -0.0687
 6058SOL     OW19072   5.533   2.057   0.300 -0.6941  0.1490  0.2171
 6058SOL    HW119073   5.557   1.977   0.245  0.1817  0.8112 -0.3794
 6058SOL    HW219074   5.434   2.071   0.295 -0.7683 -0.4778 -0.2447
 6059SOL     OW19075   0.498   0.230   6.055 -0.1771  0.4890  0.2949
 6059SOL    HW119076   0.565   0.257   5.986 -1.1784  0.7698 -0.6063
 6059SOL    HW219077   0.415   0.285   6.044 -0.6854 -0.0736  1.1691
 6060SOL     OW19078   1.530   0.083   6.222 -0.6461  0.3434  0.5036
 6060SOL    HW119079   1.496   0.062   6.313  0.0177  0.8920  0.8876
 6060SOL    HW219080   1.617   0.131   6.229  0.5131 -1.4905 -0.4589
 6061SOL     OW19081   0.698   1.826   1.978 -0.1467 -0.0976  0.4590
 6061SOL    HW119082   0.751   1.906   2.006  0.1954 -0.2401  0.2261
 6061SOL    HW219083   0.698   1.818   1.879  1.5359 -1.5007  0.5062
 6062SOL     OW19084   2.099   6.803   5.226 -0.3560 -0.3719  0.3762
 6062SOL    HW119085   2.029   6.872   5.244  0.3614  0.6143 -0.5068
 6062SOL    HW219086   2.189   6.846   5.222  0.1047 -1.3518 -0.2721
 6063SOL     OW19087   4.220   6.158   6.550 -0.1691  0.1379 -0.1153
 6063SOL    HW119088   4.230   6.217   6.470 -0.6627 -1.3285 -1.3022
 6063SOL    HW219089   4.310   6.136   6.587  0.2698 -1.1311 -1.7870
 6064SOL     OW19090   0.666   5.994   3.149  0.6332  0.4179  0.7303
 6064SOL    HW119091   0.731   5.987   3.225  0.5984  0.8626  0.8020
 6064SOL    HW219092   0.586   5.937   3.168  1.5866 -1.2509  0.0282
 6065SOL     OW19093   6.204   0.352   4.078  0.3570  0.2826 -0.8478
 6065SOL    HW119094   6.292   0.304   4.078 -0.3172 -1.0415  0.3948
 6065SOL    HW219095   6.203   0.419   4.004  1.9583 -0.4860 -1.6297
 6066SOL     OW19096   2.952   2.489   5.533  1.0495 -0.1699  0.2507
 6066SOL    HW119097   2.993   2.429   5.464  4.6180  0.0601  1.9479
 6066SOL    HW219098   2.892   2.555   5.487  0.5187 -2.1619 -2.1603
 6067SOL     OW19099   4.971   2.591   2.065 -0.4350 -0.1538 -0.1032
 6067SOL    HW119100   5.045   2.634   2.013 -0.5816 -0.7013 -0.7934
 6067SOL    HW219101   4.889   2.647   2.059 -0.3901 -0.1066 -0.2939
 6068SOL     OW19102   6.317   3.246   6.588 -0.3352 -0.1070 -0.0198
 6068SOL    HW119103   6.323   3.225   6.686  0.6676 -0.0045 -0.0546
 6068SOL    HW219104   6.400   3.293   6.559  0.2842 -1.9303 -1.3660
 6069SOL     OW19105   6.421   6.578   5.174 -0.0460  0.1490  0.1081
 6069SOL    HW119106   6.390   6.673   5.182  0.7193  0.4366 -0.2383
 6069SOL    HW219107   6.360   6.518   5.226 -1.1828  0.6903 -0.5523
 6070SOL     OW19108   4.480   1.492   6.595  0.2363  0.2650 -0.4413
 6070SOL    HW119109   4.460   1.527   6.687  0.3467  0.0939 -0.3517
 6070SOL    HW219110   4.566   1.530   6.562  0.2701  0.2123 -0.4140
 6071SOL     OW19111   5.158   6.614   6.218 -0.0528  0.3660 -0.3166
 6071SOL    HW119112   5.148   6.685   6.287 -1.5402  0.7040 -0.8386
 6071SOL    HW219113   5.116   6.644   6.132  1.3108 -0.2402 -1.2405
 6072SOL     OW19114   6.399   0.134   6.768  0.4450  0.5337 -0.1132
 6072SOL    HW119115   6.465   0.201   6.733  0.7021  0.5651  0.4184
 6072SOL    HW219116   6.336   0.179   6.830  1.0293  0.1697  0.7699
 6073SOL     OW19117   5.279   2.473   1.759  0.1658 -0.1788 -0.3282
 6073SOL    HW119118   5.212   2.482   1.686 -0.8396 -2.4423  0.2266
 6073SOL    HW219119   5.315   2.380   1.762 -0.4432 -0.4395  2.5105
 6074SOL     OW19120   2.748   0.037   4.629  0.0357 -0.8872 -0.1484
 6074SOL    HW119121   2.692  -0.036   4.670  1.2985 -0.9795  1.5052
 6074SOL    HW219122   2.792   0.002   4.546 -1.5284 -1.1233 -0.9124
 6075SOL     OW19123   4.498   1.883   6.155  0.6759 -0.2403  0.1753
 6075SOL    HW119124   4.507   1.797   6.104 -0.6961 -0.3256  0.0194
 6075SOL    HW219125   4.491   1.863   6.252 -2.8508 -0.7019 -0.0132
 6076SOL     OW19126   3.078   1.456   4.285 -0.6532 -0.1319  0.5915
 6076SOL    HW119127   3.172   1.488   4.294 -0.7150  0.3721 -0.3682
 6076SOL    HW219128   3.030   1.514   4.219 -0.6021 -2.5449 -1.7199
 6077SOL     OW19129   6.036   6.320   3.216 -0.0095  0.0469  0.5667
 6077SOL    HW119130   5.950   6.357   3.249  0.2838  2.8891 -1.5340
 6077SOL    HW219131   6.112   6.367   3.262  0.4303 -0.6415  0.5573
 6078SOL     OW19132   1.624   4.183   5.525 -0.6666 -0.7350 -0.2084
 6078SOL    HW119133   1.709   4.182   5.472  0.6680  1.3352  1.7217
 6078SOL    HW219134   1.597   4.089   5.546  1.2299 -1.4460 -0.7441
 6079SOL     OW19135   2.378   1.844   1.092 -0.0466 -0.6496  0.2729
 6079SOL    HW119136   2.449   1.886   1.149 -0.9115 -0.6174  1.3472
 6079SOL    HW219137   2.422   1.783   1.025  0.9744 -0.9937  1.2195
 6080SOL     OW19138   0.578   1.992   3.830 -0.3668  0.6933  0.4031
 6080SOL    HW119139   0.674   1.976   3.808 -0.7958 -1.6914 -0.0948
 6080SOL    HW219140   0.526   2.003   3.745 -0.6523  1.1881  0.6388
 6081SOL     OW19141   0.499   4.703   3.605 -0.0681  0.5714 -0.0906
 6081SOL    HW119142   0.482   4.660   3.516 -1.5429  1.2094 -0.1466
 6081SOL    HW219143   0.583   4.757   3.599  1.2658 -1.4265 -0.3036
 6082SOL     OW19144   1.261   0.747   4.448 -0.0235  0.1388 -0.4641
 6082SOL    HW119145   1.276   0.722   4.544 -1.8464  1.5737  0.2722
 6082SOL    HW219146   1.333   0.811   4.419  0.2582  0.0872  0.1031
 6083SOL     OW19147   2.240   6.216   5.715 -0.5164 -0.2608 -0.3818
 6083SOL    HW119148   2.161   6.181   5.767  0.2739 -1.5196  0.0028
 6083SOL    HW219149   2.254   6.160   5.634  2.2575 -2.5849  1.4939
 6084SOL     OW19150   0.095   5.083   6.103  0.3453 -0.2588  0.6106
 6084SOL    HW119151  -0.001   5.084   6.132  0.2543 -0.4820  0.3177
 6084SOL    HW219152   0.113   5.161   6.043  0.1838 -0.5818  0.1408
 6085SOL     OW19153   6.536   4.816   1.193 -0.1729 -0.0863 -0.0831
 6085SOL    HW119154   6.527   4.871   1.276  0.9382  0.1327 -0.0902
 6085SOL    HW219155   6.502   4.724   1.210 -3.1555  0.8630 -0.4057
 6086SOL     OW19156   1.238   1.190   3.560  0.5833  0.2216  0.2250
 6086SOL    HW119157   1.284   1.124   3.501  0.0065 -0.4616  0.5315
 6086SOL    HW219158   1.287   1.198   3.647  1.0726  0.7562 -0.0948
 6087SOL     OW19159   2.039   0.819   6.992  0.2896 -0.3843  0.7278
 6087SOL    HW119160   2.063   0.779   6.903  0.5673  1.2441  0.0374
 6087SOL    HW219161   2.088   0.905   7.004  1.8519 -1.4998  3.3626
 6088SOL     OW19162   0.666   1.597   6.275  0.0120 -0.0082 -0.7266
 6088SOL    HW119163   0.750   1.651   6.283  1.5765 -2.4668  0.6558
 6088SOL    HW219164   0.668   1.547   6.188 -1.6502  2.3343 -2.2215
 6089SOL     OW19165   0.140   3.864   1.844 -0.2330 -0.0252  0.2836
 6089SOL    HW119166   0.053   3.826   1.875 -0.1341 -1.2013 -0.8266
 6089SOL    HW219167   0.164   3.827   1.755  1.4348  0.2410  0.5765
 6090SOL     OW19168   0.334   5.211   6.656 -0.2399 -0.8787 -0.1772
 6090SOL    HW119169   0.239   5.183   6.643  0.3744 -2.4944 -1.3459
 6090SOL    HW219170   0.376   5.232   6.568  1.2689 -2.9134 -0.0220
 6091SOL     OW19171   2.055   2.772   1.932  0.5327 -0.6061 -0.3458
 6091SOL    HW119172   1.984   2.710   1.898  1.1075 -1.9617  0.8255
 6091SOL    HW219173   2.025   2.814   2.018  0.0632  0.9668 -1.2257
 6092SOL     OW19174   6.934   4.031   1.201  0.0586 -0.0143 -0.8231
 6092SOL    HW119175   6.904   4.084   1.122  0.2844  0.0522 -0.8655
 6092SOL    HW219176   7.034   4.020   1.198 -0.1110 -1.8121 -1.7098
 6093SOL     OW19177   5.946   3.403   0.623 -0.0424 -0.3162  0.5491
 6093SOL    HW119178   5.893   3.341   0.565  0.8635  0.2135 -0.8786
 6093SOL    HW219179   5.937   3.374   0.719 -1.5664 -1.2018  0.1695
 6094SOL     OW19180   0.262   1.571   0.935 -0.3113 -0.1494 -0.0689
 6094SOL    HW119181   0.202   1.499   0.901  1.4466 -0.9539 -1.6175
 6094SOL    HW219182   0.278   1.557   1.033 -0.1658 -1.7765 -0.2979
 6095SOL     OW19183   1.386   4.813   4.954 -0.4092  0.4616 -0.2134
 6095SOL    HW119184   1.444   4.823   5.035 -0.8933 -1.8770  0.5088
 6095SOL    HW219185   1.307   4.756   4.977 -0.9629  0.3875 -2.1512
 6096SOL     OW19186   0.118   1.862   3.580  0.0673 -0.0355 -0.4765
 6096SOL    HW119187   0.178   1.815   3.515  0.2130  0.8367 -0.9896
 6096SOL    HW219188   0.041   1.903   3.530 -1.3263 -1.6721  0.2458
 6097SOL     OW19189   2.380   2.487   1.671  0.1326  0.5780 -0.3464
 6097SOL    HW119190   2.409   2.405   1.721 -1.0971  0.3943  0.1116
 6097SOL    HW219191   2.325   2.459   1.592 -1.3952  0.9576  0.5367
 6098SOL     OW19192   2.392   6.674   5.950 -0.2338 -0.5586  0.3265
 6098SOL    HW119193   2.369   6.622   5.868 -1.1411 -0.3559  0.4420
 6098SOL    HW219194   2.315   6.674   6.013  0.2128 -0.1467  0.8915
 6099SOL     OW19195   6.028   6.903   6.247  0.0134  0.6579 -0.4662
 6099SOL    HW119196   5.961   6.841   6.206 -0.4485 -0.1615  1.4280
 6099SOL    HW219197   6.099   6.850   6.293  0.6699  1.5371 -0.4415
 6100SOL     OW19198   4.834   3.050   0.903  0.3976  0.1362  0.4396
 6100SOL    HW119199   4.856   2.967   0.853 -1.7196 -0.4851  0.4532
 6100SOL    HW219200   4.906   3.118   0.888  1.1139 -0.9367 -1.3064
 6101SOL     OW19201   0.861   5.624   4.129 -0.8105  0.1954  0.1425
 6101SOL    HW119202   0.832   5.719   4.142  0.7535  0.9125 -1.1934
 6101SOL    HW219203   0.798   5.578   4.066  0.0992  1.3145 -1.6499
 6102SOL     OW19204   3.477   0.130   4.344 -0.0743 -0.7142  0.3757
 6102SOL    HW119205   3.512   0.222   4.363 -1.5614  0.1722 -0.9594
 6102SOL    HW219206   3.537   0.084   4.279  1.6802 -1.4617  2.3652
 6103SOL     OW19207   5.544   3.526   4.989 -0.0444  0.0130 -0.0745
 6103SOL    HW119208   5.467   3.534   5.053 -0.7509  1.5922 -1.0371
 6103SOL    HW219209   5.559   3.615   4.946 -0.1077 -1.1442 -2.6600
 6104SOL     OW19210   2.587   2.401   6.733 -0.3315 -0.0904 -0.2397
 6104SOL    HW119211   2.643   2.323   6.703  0.8179  0.3060  0.7973
 6104SOL    HW219212   2.566   2.391   6.830 -0.0151  0.9840 -0.0495
 6105SOL     OW19213   2.882   4.881   5.442 -0.0063 -0.2619  0.5039
 6105SOL    HW119214   2.924   4.874   5.532  0.7892  0.2906  0.1928
 6105SOL    HW219215   2.845   4.793   5.415  0.7025 -0.6997  0.9288
 6106SOL     OW19216   3.783   5.254   3.727 -0.3870 -0.2223 -0.8764
 6106SOL    HW119217   3.705   5.191   3.727 -1.3928  0.9588 -0.2671
 6106SOL    HW219218   3.819   5.262   3.820  1.1133 -1.4833 -1.3116
 6107SOL     OW19219   1.145   4.769   4.429 -0.3995  0.1805 -0.2453
 6107SOL    HW119220   1.127   4.825   4.509 -0.6246 -2.4786  1.6944
 6107SOL    HW219221   1.079   4.792   4.357 -1.0746  1.7000  0.8139
 6108SOL     OW19222   4.798   0.597   5.328 -0.4233 -0.1614 -0.3435
 6108SOL    HW119223   4.728   0.578   5.259 -1.2560  0.5090  0.2846
 6108SOL    HW219224   4.787   0.533   5.405  1.7317 -2.2176 -1.6169
 6109SOL     OW19225   6.411   6.165   1.910 -0.1037 -0.5049  0.6035
 6109SOL    HW119226   6.388   6.244   1.852 -1.4598 -0.9040  0.5630
 6109SOL    HW219227   6.461   6.097   1.856 -0.3499 -0.3699  0.2002
 6110SOL     OW19228   2.937   2.240   4.022  0.2181 -0.8005 -0.0664
 6110SOL    HW119229   2.982   2.232   3.933 -0.8020  0.0233 -0.6787
 6110SOL    HW219230   2.838   2.237   4.010  0.0483  0.1391  0.9519
 6111SOL     OW19231   2.428   4.861   3.038 -0.5090  0.0381  0.8608
 6111SOL    HW119232   2.357   4.794   3.057 -1.1151 -0.1622 -1.7825
 6111SOL    HW219233   2.514   4.831   3.079 -0.7140 -2.4750 -0.3549
 6112SOL     OW19234   6.928   2.091   6.211  0.4583  0.2631  0.3010
 6112SOL    HW119235   6.992   2.021   6.178 -1.6566 -2.2293  1.1497
 6112SOL    HW219236   6.835   2.063   6.191 -0.5080  3.1527  0.2799
 6113SOL     OW19237   3.152   4.970   4.184 -0.5519  0.1968 -0.5636
 6113SOL    HW119238   3.122   4.878   4.161 -0.5167  0.3166 -1.0826
 6113SOL    HW219239   3.250   4.970   4.202 -0.6822 -0.0092  0.1867
 6114SOL     OW19240   3.953   5.058   0.697 -1.1074  0.0992  0.2103
 6114SOL    HW119241   3.883   5.069   0.626  1.3021  0.3354 -2.3360
 6114SOL    HW219242   3.999   4.969   0.685  0.9009  1.1178 -0.1060
 6115SOL     OW19243   0.935   4.084   2.087  0.2137  0.0772 -0.7442
 6115SOL    HW119244   0.862   4.028   2.127 -0.2776  1.2271  0.0266
 6115SOL    HW219245   1.023   4.042   2.107  0.1568  1.3589  3.0947
 6116SOL     OW19246   4.850   1.753   6.718 -0.5489 -0.1984  0.1433
 6116SOL    HW119247   4.822   1.847   6.698  0.1682  0.3147  1.4230
 6116SOL    HW219248   4.828   1.731   6.814  1.3974 -0.4977  0.5748
 6117SOL     OW19249   6.818   6.355   3.981  0.2730  0.0279  0.0295
 6117SOL    HW119250   6.878   6.398   3.912  2.3591  1.3063  2.4428
 6117SOL    HW219251   6.781   6.426   4.041  0.3206 -1.1869  1.5571
 6118SOL     OW19252   0.920   6.386   4.500  0.1637  0.6948  0.3039
 6118SOL    HW119253   0.954   6.323   4.569 -0.6400  0.3474  0.3836
 6118SOL    HW219254   0.830   6.420   4.526 -0.4842 -0.0094 -0.9070
 6119SOL     OW19255   6.285   4.152   4.685 -0.0749 -0.5632  0.4670
 6119SOL    HW119256   6.236   4.227   4.729  0.8597  0.0766  0.4470
 6119SOL    HW219257   6.292   4.169   4.587  0.5996 -0.4001  0.5358
 6120SOL     OW19258   2.088   2.680   2.376 -0.6785 -0.1145 -0.1261
 6120SOL    HW119259   2.029   2.725   2.309 -2.4964 -0.3884  1.2227
 6120SOL    HW219260   2.073   2.720   2.467  0.6272 -0.7702  0.4156
 6121SOL     OW19261   6.183   1.095   3.926  0.4359 -0.0219 -0.0007
 6121SOL    HW119262   6.084   1.081   3.927  0.4546 -0.1875 -0.2790
 6121SOL    HW219263   6.208   1.148   3.845  0.5423  0.2729  0.2250
 6122SOL     OW19264   5.568   5.591   5.240 -0.3414 -0.3205  0.1408
 6122SOL    HW119265   5.501   5.654   5.278  1.0958  0.9334  0.7083
 6122SOL    HW219266   5.638   5.643   5.190  0.7880 -1.4673  0.4814
 6123SOL     OW19267   5.563   1.625   1.834 -0.2691  0.5865 -0.0284
 6123SOL    HW119268   5.555   1.673   1.921 -1.1124  1.2636 -0.4642
 6123SOL    HW219269   5.505   1.544   1.835 -0.3396  0.6377  0.0112
 6124SOL     OW19270   3.036   5.975   3.403  0.7048  0.4347 -0.1983
 6124SOL    HW119271   3.119   5.997   3.351  1.1963  0.3838  0.5474
 6124SOL    HW219272   3.061   5.953   3.497 -0.1166 -0.0567 -0.0885
 6125SOL     OW19273   1.501   3.871   2.273  0.6006  0.3905  0.5371
 6125SOL    HW119274   1.503   3.924   2.188 -1.2462  2.0430  1.4503
 6125SOL    HW219275   1.426   3.804   2.269  0.7921  0.1655  0.7006
 6126SOL     OW19276   0.016   6.658   4.173 -0.3653  0.5980  0.3421
 6126SOL    HW119277  -0.064   6.601   4.154  0.4510  0.0630 -1.7885
 6126SOL    HW219278  -0.011   6.754   4.178 -1.1594  0.4128 -0.2642
 6127SOL     OW19279   2.067   3.632   0.299 -0.0515 -0.1156  0.0558
 6127SOL    HW119280   2.012   3.570   0.356 -0.0557  0.7050  0.9666
 6127SOL    HW219281   2.028   3.634   0.207  0.7245 -2.4633 -0.3927
 6128SOL     OW19282   4.576   5.216   1.948 -0.1908  0.9855 -0.0219
 6128SOL    HW119283   4.489   5.182   1.984  0.0438 -0.9418 -1.1556
 6128SOL    HW219284   4.627   5.261   2.022 -0.6372 -0.9709  1.5916
 6129SOL     OW19285   5.433   3.025   0.649  0.5253  0.1637 -0.4203
 6129SOL    HW119286   5.430   3.030   0.749  1.3205 -0.6227 -0.3377
 6129SOL    HW219287   5.528   3.013   0.620  0.2652  0.0785 -1.2555
 6130SOL     OW19288   4.764   5.501   3.683 -0.3006  0.2335 -0.0961
 6130SOL    HW119289   4.764   5.601   3.686  1.9642  0.2694  0.3726
 6130SOL    HW219290   4.670   5.468   3.679 -1.1022  2.3676 -0.2772
 6131SOL     OW19291   6.752   1.616   6.882  0.4097 -0.0638 -0.5570
 6131SOL    HW119292   6.727   1.583   6.791  1.2618 -1.4252 -0.3254
 6131SOL    HW219293   6.836   1.570   6.913  0.0247  0.2012  1.0038
 6132SOL     OW19294   4.457   2.895   0.290 -0.2170 -0.1624 -0.2532
 6132SOL    HW119295   4.383   2.961   0.277  1.4380  1.3852 -2.6956
 6132SOL    HW219296   4.442   2.816   0.231 -0.4203 -0.3345  0.0257
 6133SOL     OW19297   0.341   2.171   0.464  0.3393 -0.0109 -0.3343
 6133SOL    HW119298   0.271   2.117   0.415  0.2892  0.8737 -1.2676
 6133SOL    HW219299   0.400   2.217   0.397  1.7948 -0.6880  0.4422
 6134SOL     OW19300   6.613   4.678   1.802  0.1221  0.5110  0.0180
 6134SOL    HW119301   6.610   4.723   1.713  1.9139  0.0008 -0.3555
 6134SOL    HW219302   6.696   4.706   1.850 -0.3180  0.0002  1.1039
 6135SOL     OW19303   6.310   1.703   2.200 -0.4344  0.0526  0.1923
 6135SOL    HW119304   6.217   1.692   2.234 -0.6125  1.6569  0.2943
 6135SOL    HW219305   6.364   1.623   2.226 -1.3343 -0.1310  1.6120
 6136SOL     OW19306   0.372   1.385   2.092  0.1958  0.3435  0.2790
 6136SOL    HW119307   0.325   1.299   2.110 -0.7385  0.9860  0.9313
 6136SOL    HW219308   0.456   1.389   2.146  1.3732 -1.0613 -1.3233
 6137SOL     OW19309   3.184   6.901   1.940  0.0193  0.5743 -0.0447
 6137SOL    HW119310   3.260   6.943   1.889 -0.4114  1.4802  0.0305
 6137SOL    HW219311   3.177   6.805   1.915 -1.3412  1.3471 -3.1945
 6138SOL     OW19312   5.333   0.557   3.927 -0.3132 -0.8133  0.1590
 6138SOL    HW119313   5.244   0.546   3.969  0.4477  1.1244  2.4868
 6138SOL    HW219314   5.337   0.645   3.880  0.6563 -0.4182  0.9427
 6139SOL     OW19315   3.105   5.195   2.466  0.1558 -0.4546  0.2123
 6139SOL    HW119316   3.120   5.236   2.376  2.6753 -0.8700  0.3667
 6139SOL    HW219317   3.087   5.098   2.456 -0.1147 -0.3977  0.1372
 6140SOL     OW19318   1.868   6.037   1.155  0.2025  0.3397  0.3470
 6140SOL    HW119319   1.836   6.000   1.242  0.5940 -1.1950 -0.1200
 6140SOL    HW219320   1.902   6.130   1.168 -2.1509  1.1541  1.3117
 6141SOL     OW19321   4.960   4.819   4.238 -0.3341 -0.1806 -0.4864
 6141SOL    HW119322   4.989   4.909   4.204 -2.2605  1.0036  0.8237
 6141SOL    HW219323   4.980   4.813   4.335 -0.7064 -0.9706 -0.4549
 6142SOL     OW19324   0.994   5.162   3.527 -0.1102 -0.6718  0.0649
 6142SOL    HW119325   0.901   5.198   3.531 -1.0164 -2.7632 -0.7637
 6142SOL    HW219326   0.997   5.071   3.569  1.1810 -1.3457 -1.3667
 6143SOL     OW19327   0.776   3.142   6.415  0.1696 -0.2241  0.4142
 6143SOL    HW119328   0.817   3.159   6.505 -0.3369  2.0783  0.2820
 6143SOL    HW219329   0.677   3.136   6.425  0.2479 -2.3706  0.2804
 6144SOL     OW19330   6.290   4.842   3.611  0.3600  0.2346 -0.1464
 6144SOL    HW119331   6.374   4.789   3.615  0.0389 -0.2896 -0.2844
 6144SOL    HW219332   6.296   4.908   3.536 -0.0871 -1.0965 -1.4034
 6145SOL     OW19333   6.151   6.608   4.775  0.1455 -0.1636  0.1804
 6145SOL    HW119334   6.201   6.684   4.817 -0.5910  0.0753  0.6493
 6145SOL    HW219335   6.054   6.631   4.770  0.3484  0.3901 -2.9179
 6146SOL     OW19336   0.747   3.045   3.079 -0.1130  0.1590 -0.4818
 6146SOL    HW119337   0.680   3.119   3.073 -2.0861 -1.5619 -0.9013
 6146SOL    HW219338   0.707   2.968   3.129  1.1098 -1.3727 -1.7737
 6147SOL     OW19339   2.097   2.819   3.007  0.4824 -0.8324 -0.2119
 6147SOL    HW119340   2.157   2.886   2.964 -1.2240  1.4415  0.7303
 6147SOL    HW219341   2.054   2.762   2.936  0.3652  0.5023 -1.2517
 6148SOL     OW19342   6.207   1.051   5.080  0.0324  0.7988  0.0596
 6148SOL    HW119343   6.154   1.130   5.110 -0.1529  0.5948  0.2778
 6148SOL    HW219344   6.205   1.045   4.981 -0.8581  0.4511  0.0904
 6149SOL     OW19345   1.383   5.507   4.202  0.3574  0.4461 -0.4057
 6149SOL    HW119346   1.441   5.562   4.142  0.5980  0.1630 -0.4352
 6149SOL    HW219347   1.372   5.416   4.164  0.3111  0.3406 -0.1438
 6150SOL     OW19348   3.956   5.447   6.954 -0.1109 -0.0155  0.1831
 6150SOL    HW119349   3.996   5.530   6.993  1.0227 -0.1613 -0.5978
 6150SOL    HW219350   3.858   5.444   6.973  0.1865  0.5075  1.9422
 6151SOL     OW19351   4.421   0.793   6.253 -0.3271 -0.0002  0.3254
 6151SOL    HW119352   4.502   0.762   6.303 -1.1317  0.0405  1.6832
 6151SOL    HW219353   4.385   0.876   6.295  0.0851  1.1869 -1.5016
 6152SOL     OW19354   0.745   6.207   5.235 -0.8918 -0.6223  0.4497
 6152SOL    HW119355   0.759   6.132   5.299 -0.3827 -0.6194  0.3455
 6152SOL    HW219356   0.801   6.285   5.263 -1.7273 -0.1342  0.7968
 6153SOL     OW19357   4.806   5.777   5.909 -0.0935 -0.0406 -0.5296
 6153SOL    HW119358   4.837   5.755   6.001 -1.0204  1.3207  0.1284
 6153SOL    HW219359   4.722   5.832   5.913 -0.7644 -0.8404 -2.2010
 6154SOL     OW19360   4.835   3.106   4.156  0.4601 -0.2326  0.1809
 6154SOL    HW119361   4.802   3.158   4.235  0.6320 -0.3952  0.3618
 6154SOL    HW219362   4.822   3.160   4.073 -0.3012 -0.3220  0.2407
 6155SOL     OW19363   2.276   4.794   3.825  0.0149  0.0043  0.4161
 6155SOL    HW119364   2.281   4.783   3.726  0.5341 -2.2126  0.6431
 6155SOL    HW219365   2.180   4.790   3.854 -0.1493  0.7911  0.0241
 6156SOL     OW19366   4.745   1.646   4.459  0.2081  0.4174  0.6197
 6156SOL    HW119367   4.673   1.704   4.498  0.5489 -0.7401  3.1571
 6156SOL    HW219368   4.759   1.567   4.518  3.4591  0.5064  0.1278
 6157SOL     OW19369   1.641   3.142   3.399 -0.2749 -0.1534 -0.2617
 6157SOL    HW119370   1.575   3.207   3.362 -0.9927  0.7409  2.3721
 6157SOL    HW219371   1.602   3.096   3.479  2.4496  0.9424  1.8831
 6158SOL     OW19372   5.691   6.974   6.462  0.1317 -0.5705  0.0893
 6158SOL    HW119373   5.686   6.922   6.548  3.5455 -1.7848 -0.3112
 6158SOL    HW219374   5.728   7.065   6.480 -0.0556 -0.4768  0.0045
 6159SOL     OW19375   3.620   4.301   5.443  0.2081 -0.0584 -0.0467
 6159SOL    HW119376   3.696   4.288   5.507  0.4495 -1.0535 -0.5009
 6159SOL    HW219377   3.654   4.344   5.360 -0.1320  1.3616  0.5213
 6160SOL     OW19378   6.896   3.813   0.116  0.0686  0.0425 -0.1153
 6160SOL    HW119379   6.869   3.877   0.188 -0.2388 -0.5764  0.3249
 6160SOL    HW219380   6.988   3.779   0.135 -0.3996 -0.9037  0.5599
 6161SOL     OW19381   5.680   6.628   0.623 -0.0643  0.2703  0.3376
 6161SOL    HW119382   5.660   6.632   0.525 -0.2472  0.1704  0.3714
 6161SOL    HW219383   5.779   6.640   0.637 -0.0659  0.4990  0.1568
 6162SOL     OW19384   5.056   4.217   5.459  0.3326 -0.6851  0.0454
 6162SOL    HW119385   5.095   4.127   5.477  0.1008 -0.7515  0.2283
 6162SOL    HW219386   4.985   4.210   5.389  0.2643 -0.6541  0.1120
 6163SOL     OW19387   1.128   3.400   4.368 -0.4487  0.0039 -0.2772
 6163SOL    HW119388   1.060   3.337   4.407  0.3562 -0.4806  0.3645
 6163SOL    HW219389   1.162   3.363   4.282 -0.1861 -0.3058 -0.0429
 6164SOL     OW19390   4.123   1.725   1.321 -0.4515 -0.3881  0.3368
 6164SOL    HW119391   4.184   1.646   1.309 -0.0798 -0.2304  1.1171
 6164SOL    HW219392   4.121   1.750   1.418 -1.1332  0.1117  0.1943
 6165SOL     OW19393   3.342   6.661   1.778  0.2604 -0.1008  0.0986
 6165SOL    HW119394   3.406   6.700   1.845 -1.7564 -1.0797  2.7664
 6165SOL    HW219395   3.259   6.632   1.825 -2.0521  0.7705 -3.1543
 6166SOL     OW19396   3.541   1.034   6.894  0.4600 -0.4943 -0.5936
 6166SOL    HW119397   3.549   1.122   6.940 -0.1485 -0.9786  0.4942
 6166SOL    HW219398   3.620   0.977   6.917  0.2959 -0.6333 -0.3639
 6167SOL     OW19399   6.767   5.697   3.406 -0.4117  0.2600 -0.5235
 6167SOL    HW119400   6.713   5.646   3.472  0.5939 -1.3264 -0.8780
 6167SOL    HW219401   6.713   5.774   3.372 -1.8494 -0.3418  0.2869
 6168SOL     OW19402   6.325   1.862   3.114  0.1490  0.7289  0.2980
 6168SOL    HW119403   6.424   1.869   3.128  0.2133  2.0556 -0.6987
 6168SOL    HW219404   6.307   1.807   3.033  0.1128  1.2589 -0.0588
 6169SOL     OW19405   2.068   5.165   1.155 -0.0494 -0.0420  0.3794
 6169SOL    HW119406   2.153   5.114   1.155 -0.0969 -0.1224 -0.1516
 6169SOL    HW219407   2.038   5.180   1.249 -0.6968 -2.0816  0.5507
 6170SOL     OW19408   6.594   2.233   4.260 -0.0476 -0.2699  0.2121
 6170SOL    HW119409   6.530   2.156   4.261 -0.9862  0.5086  0.8824
 6170SOL    HW219410   6.671   2.212   4.321 -1.2314  0.0782  1.8804
 6171SOL     OW19411   5.871   3.059   5.471 -0.3195  0.1891  0.2044
 6171SOL    HW119412   5.874   3.125   5.545 -1.5846  0.7667 -0.2324
 6171SOL    HW219413   5.866   2.967   5.509  0.1715  0.4034  0.8153
 6172SOL     OW19414   0.874   3.547   4.467  0.2180  0.1461  0.2819
 6172SOL    HW119415   0.938   3.521   4.395  0.7176  0.9815  0.4099
 6172SOL    HW219416   0.904   3.507   4.554 -0.4005 -0.8845  0.0404
 6173SOL     OW19417   5.332   6.169   1.620 -0.2221  0.3372  0.1251
 6173SOL    HW119418   5.409   6.155   1.682  0.6440  1.4549 -0.6674
 6173SOL    HW219419   5.275   6.087   1.619  0.9267 -0.4959  0.7430
 6174SOL     OW19420   6.213   2.517   3.705 -0.1206 -0.7677 -0.0922
 6174SOL    HW119421   6.239   2.549   3.796 -1.0174 -2.4527  0.7935
 6174SOL    HW219422   6.208   2.595   3.643  0.6533  0.4012  1.2515
 6175SOL     OW19423   2.925   0.756   6.627  0.5081 -0.1039 -0.0905
 6175SOL    HW119424   2.878   0.773   6.540  1.0487  0.7510 -0.2223
 6175SOL    HW219425   2.967   0.665   6.624  0.1463 -0.2631 -0.5470
 6176SOL     OW19426   2.234   4.018   5.777 -0.1558 -0.5455 -0.1881
 6176SOL    HW119427   2.257   3.975   5.690 -0.8695  0.8431 -1.0979
 6176SOL    HW219428   2.264   4.114   5.776 -0.8891 -0.2909  0.7740
 6177SOL     OW19429   6.115   0.728   2.084 -1.1287  0.3607 -0.6804
 6177SOL    HW119430   6.070   0.672   2.153 -0.4830 -0.6540 -1.0633
 6177SOL    HW219431   6.168   0.669   2.023  0.2851  1.4705 -0.5656
 6178SOL     OW19432   3.921   4.369   1.641 -0.6201 -0.6162 -0.4151
 6178SOL    HW119433   4.015   4.336   1.648  0.0385  1.2892  0.3452
 6178SOL    HW219434   3.859   4.300   1.678  0.7751 -0.6869  2.0491
 6179SOL     OW19435   5.993   5.362   5.301 -0.3891  0.2909 -0.0528
 6179SOL    HW119436   6.041   5.275   5.295 -0.7283  0.0430  0.7562
 6179SOL    HW219437   6.058   5.436   5.314  0.0842  0.4167 -2.5733
 6180SOL     OW19438   2.422   3.867   0.597 -0.3189  0.0394 -0.0754
 6180SOL    HW119439   2.401   3.922   0.516 -3.7391 -0.7564  0.1136
 6180SOL    HW219440   2.488   3.796   0.574  1.8120  2.2439 -1.0863
 6181SOL     OW19441   5.828   1.015   6.814 -0.2242  0.0516  0.1990
 6181SOL    HW119442   5.801   1.107   6.838 -4.0458 -1.3678  2.1058
 6181SOL    HW219443   5.910   0.989   6.866  1.2892  2.4382 -0.8400
 6182SOL     OW19444   2.703   1.503   6.690  0.3789  1.0136  0.0249
 6182SOL    HW119445   2.624   1.493   6.630  1.1160 -0.3130 -0.7847
 6182SOL    HW219446   2.777   1.549   6.640  0.4527  1.3579  0.4494
 6183SOL     OW19447   0.171   2.690   1.095  0.0637 -0.0440  0.0527
 6183SOL    HW119448   0.164   2.650   1.004  1.8675 -0.2299 -0.0413
 6183SOL    HW219449   0.125   2.631   1.161 -0.5081 -0.3517 -0.6074
 6184SOL     OW19450   2.076   6.291   6.631 -0.0637  0.5161  0.0205
 6184SOL    HW119451   2.152   6.323   6.687  1.0285  0.1283 -1.1945
 6184SOL    HW219452   2.109   6.266   6.540 -1.5177 -0.3951 -0.2995
 6185SOL     OW19453   3.370   3.831   4.921  0.3728 -0.3050  0.2986
 6185SOL    HW119454   3.440   3.761   4.914 -1.4146 -2.0280 -1.6101
 6185SOL    HW219455   3.310   3.810   4.999 -0.6759 -1.4561 -0.7866
 6186SOL     OW19456   1.669   1.823   1.609  0.3323 -0.1001 -0.3330
 6186SOL    HW119457   1.686   1.731   1.574  0.5591  0.4593 -1.7462
 6186SOL    HW219458   1.662   1.820   1.709  0.8903 -1.5581 -0.3186
 6187SOL     OW19459   1.922   0.352   1.305  0.3394 -0.5625 -0.5936
 6187SOL    HW119460   1.855   0.409   1.260  0.7344 -0.6921 -1.3637
 6187SOL    HW219461   1.997   0.408   1.339  0.2434 -0.5093 -0.4720
 6188SOL     OW19462   0.347   0.303   4.469  0.3638  0.2277 -0.2836
 6188SOL    HW119463   0.407   0.347   4.536 -1.0950  1.7594  0.0828
 6188SOL    HW219464   0.403   0.255   4.401  1.9280  0.1688  0.9867
 6189SOL     OW19465   6.771   2.919   6.954 -0.2649  0.7117 -0.3556
 6189SOL    HW119466   6.834   2.869   7.013  1.4198  0.5698 -2.1593
 6189SOL    HW219467   6.682   2.928   6.999  0.0242 -1.9852  0.9415
 6190SOL     OW19468   2.353   2.668   3.091 -0.3705 -0.4091  0.0305
 6190SOL    HW119469   2.357   2.679   3.191 -2.4035 -1.0590  0.2420
 6190SOL    HW219470   2.287   2.733   3.054  2.7591  2.2305 -1.4135
 6191SOL     OW19471   1.259   5.032   1.286  0.0843 -0.0019  0.1263
 6191SOL    HW119472   1.192   5.102   1.262  0.8037  0.1547 -1.6193
 6191SOL    HW219473   1.237   4.947   1.238  0.5163 -0.2614  0.3819
 6192SOL     OW19474   2.150   1.555   0.722  0.1614  0.0819 -0.1375
 6192SOL    HW119475   2.205   1.537   0.803  0.5833  0.3958 -0.3512
 6192SOL    HW219476   2.206   1.600   0.652 -0.4891  0.8686 -0.1736
 6193SOL     OW19477   3.380   6.119   0.132 -0.2349  0.0879  0.0602
 6193SOL    HW119478   3.430   6.195   0.175 -0.2418  0.4554 -0.5714
 6193SOL    HW219479   3.423   6.096   0.045  0.0693 -0.9784  0.4829
 6194SOL     OW19480   3.924   5.968   5.695 -0.0425 -0.1792 -0.0796
 6194SOL    HW119481   3.854   5.907   5.733 -0.0183  1.1616  2.3158
 6194SOL    HW219482   3.881   6.052   5.663  0.2565 -0.1907 -0.5152
 6195SOL     OW19483   4.934   5.349   6.057  0.1256  0.5024 -0.5207
 6195SOL    HW119484   4.940   5.250   6.051 -0.5345  0.5315 -2.3479
 6195SOL    HW219485   5.025   5.388   6.069  0.1955 -0.3811  2.4679
 6196SOL     OW19486   1.395   3.596   0.986  0.6123 -0.6062 -0.1879
 6196SOL    HW119487   1.347   3.670   1.033  3.0461  1.9024 -1.3713
 6196SOL    HW219488   1.485   3.583   1.027  1.0476 -1.4461 -1.3507
 6197SOL     OW19489   0.771   0.017   4.896 -0.1750  0.6998 -0.3861
 6197SOL    HW119490   0.858  -0.026   4.920 -0.7778 -0.5887 -0.4269
 6197SOL    HW219491   0.711  -0.050   4.854 -0.6737  1.9205 -1.7035
 6198SOL     OW19492   4.804   0.945   0.496 -0.2257  0.1906 -0.1340
 6198SOL    HW119493   4.741   1.018   0.523  0.0158  0.4373 -0.2339
 6198SOL    HW219494   4.893   0.984   0.473 -0.5686  0.0784 -1.8088
 6199SOL     OW19495   2.263   1.110   4.833  0.3562  0.9250  0.0239
 6199SOL    HW119496   2.329   1.128   4.760  2.0856 -1.2404  0.9317
 6199SOL    HW219497   2.308   1.117   4.922 -1.0030  0.7666  0.7631
 6200SOL     OW19498   2.410   0.202   3.311  0.3029 -0.2433  0.1216
 6200SOL    HW119499   2.379   0.107   3.324  0.7329 -0.4754 -0.5288
 6200SOL    HW219500   2.472   0.227   3.386  0.5500 -0.6307  0.0503
 6201SOL     OW19501   6.357   5.410   5.520 -0.6218 -0.2519 -0.2511
 6201SOL    HW119502   6.393   5.342   5.456  1.8512  2.7174 -2.3399
 6201SOL    HW219503   6.417   5.416   5.600 -0.0614  0.2900 -0.6956
 6202SOL     OW19504   5.336   2.029   2.275 -0.0441 -0.0766  0.2482
 6202SOL    HW119505   5.237   2.016   2.280  0.2615 -2.7644  1.0677
 6202SOL    HW219506   5.381   1.965   2.337  2.2571  0.4287 -0.7936
 6203SOL     OW19507   6.857   6.750   0.902 -0.0983 -0.2873  0.5238
 6203SOL    HW119508   6.946   6.764   0.858  0.0166 -0.8193  0.5794
 6203SOL    HW219509   6.793   6.820   0.870 -0.1833 -1.0137 -0.9725
 6204SOL     OW19510   0.570   5.065   5.211 -0.2385  0.2215 -0.0620
 6204SOL    HW119511   0.511   5.138   5.247 -1.4804  0.6420 -2.7008
 6204SOL    HW219512   0.624   5.026   5.286 -0.5741  2.8536  1.6948
 6205SOL     OW19513   6.841   4.029   1.924  0.1670 -0.7397  0.0214
 6205SOL    HW119514   6.800   4.119   1.936 -0.8893 -1.2163  0.1576
 6205SOL    HW219515   6.906   4.031   1.848 -0.5483 -0.0925 -0.5901
 6206SOL     OW19516   6.663   3.510   3.936  0.1078 -0.0645  0.4995
 6206SOL    HW119517   6.758   3.482   3.927 -0.0486  0.1423 -3.3147
 6206SOL    HW219518   6.604   3.430   3.936  0.1404 -0.0933 -0.4340
 6207SOL     OW19519   1.746   5.153   3.701  0.3394  0.3520  0.2835
 6207SOL    HW119520   1.845   5.151   3.687  0.4448  1.5218  0.7515
 6207SOL    HW219521   1.701   5.177   3.615  0.5739  1.3499  0.4271
 6208SOL     OW19522   5.545   4.088   5.951 -0.3530  0.6381  0.0097
 6208SOL    HW119523   5.635   4.085   5.996 -0.2872 -1.5438 -0.1815
 6208SOL    HW219524   5.555   4.127   5.860  0.5217 -0.0348 -0.2022
 6209SOL     OW19525   1.601   1.168   2.694 -0.4015  0.5333 -0.1160
 6209SOL    HW119526   1.686   1.122   2.719 -0.0166 -0.1130 -2.3608
 6209SOL    HW219527   1.595   1.256   2.741  0.4063 -0.3600  1.7751
 6210SOL     OW19528   6.210   0.512   3.025 -0.3428 -0.8729  0.1562
 6210SOL    HW119529   6.246   0.459   3.102  1.2836 -0.9429 -0.6179
 6210SOL    HW219530   6.251   0.603   3.024 -1.8012 -0.1701  0.4483
 6211SOL     OW19531   6.100   2.380   4.720 -0.3921 -0.0028  0.1408
 6211SOL    HW119532   6.049   2.458   4.756  1.4068  0.3312  2.1779
 6211SOL    HW219533   6.094   2.379   4.620 -2.3570  1.3642  0.1961
 6212SOL     OW19534   4.204   4.851   5.950  0.2251 -0.1882  0.5921
 6212SOL    HW119535   4.291   4.864   5.998  1.0455  2.0523 -1.2712
 6212SOL    HW219536   4.219   4.792   5.871 -0.6835 -2.2414  1.8723
 6213SOL     OW19537   5.705   0.911   1.487  0.2189  0.0023 -0.1143
 6213SOL    HW119538   5.743   0.987   1.540  1.5560 -0.3550 -0.5220
 6213SOL    HW219539   5.659   0.847   1.549  0.1617  0.5164  0.3827
 6214SOL     OW19540   0.560   1.055   5.426 -0.0999 -0.4376  0.2846
 6214SOL    HW119541   0.650   1.072   5.386 -0.2429  0.7299  0.4323
 6214SOL    HW219542   0.499   1.131   5.404 -0.5633 -0.4110  1.5933
 6215SOL     OW19543   4.160   1.451   4.782 -0.1329  0.5350  0.0012
 6215SOL    HW119544   4.126   1.440   4.875 -1.2497 -0.9159 -0.5332
 6215SOL    HW219545   4.255   1.417   4.778  0.1660  1.2494  0.7370
 6216SOL     OW19546   4.513   2.353   5.188  0.4113 -0.0386  0.1094
 6216SOL    HW119547   4.490   2.408   5.108  0.4679 -0.0269  0.1014
 6216SOL    HW219548   4.604   2.313   5.176  0.2990 -0.2736  0.0385
 6217SOL     OW19549   1.659   5.532   4.345 -0.0248 -0.4294  0.6692
 6217SOL    HW119550   1.692   5.617   4.305 -2.5681  0.0348 -0.6958
 6217SOL    HW219551   1.674   5.533   4.444  0.5752  1.3178  0.5849
 6218SOL     OW19552   5.275   6.385   0.639 -0.0851 -0.8129 -0.3503
 6218SOL    HW119553   5.365   6.391   0.683 -0.4180  1.3705  0.1237
 6218SOL    HW219554   5.287   6.371   0.541  0.7937 -0.1013 -0.3571
 6219SOL     OW19555   1.413   0.101   0.890  0.0048 -0.4659  0.1625
 6219SOL    HW119556   1.337   0.037   0.892  0.7582 -1.3506  1.2371
 6219SOL    HW219557   1.499   0.051   0.895  0.6549  0.5673 -0.2969
 6220SOL     OW19558   3.945   0.080   3.696 -0.0276 -0.0682  0.1974
 6220SOL    HW119559   4.037   0.115   3.677  0.7727 -1.7407  0.7178
 6220SOL    HW219560   3.880   0.118   3.631  0.8185  2.0090  0.4861
 6221SOL     OW19561   2.649   6.171   6.218 -0.8218  0.0041  0.0313
 6221SOL    HW119562   2.672   6.259   6.259 -1.0392 -0.7242  1.8161
 6221SOL    HW219563   2.710   6.101   6.254  0.5189 -0.3524 -2.6868
 6222SOL     OW19564   6.310   1.972   2.495  0.4315  0.3352 -0.5941
 6222SOL    HW119565   6.379   1.966   2.423  1.2094 -0.2956  0.1822
 6222SOL    HW219566   6.240   1.902   2.480  0.9650 -0.2569 -0.3599
 6223SOL     OW19567   0.614   6.533   5.487  0.1494  0.8020  0.0341
 6223SOL    HW119568   0.674   6.458   5.513  0.3736  1.6076  2.0316
 6223SOL    HW219569   0.663   6.620   5.499 -1.1199  1.4258  0.8268
 6224SOL     OW19570   1.951   7.000   0.902  0.1583 -0.2693  0.4663
 6224SOL    HW119571   1.910   7.065   0.966 -1.9375 -3.3074  2.4950
 6224SOL    HW219572   1.885   6.979   0.829  0.8377 -0.1220 -0.2056
 6225SOL     OW19573   6.058   4.551   0.647 -0.3905  0.0147 -0.6714
 6225SOL    HW119574   6.155   4.556   0.623 -0.3928  0.0484 -0.6742
 6225SOL    HW219575   6.035   4.457   0.674 -0.0394  0.2747  0.6416
 6226SOL     OW19576   6.831   1.823   3.203 -0.3716  0.2140  0.6738
 6226SOL    HW119577   6.824   1.832   3.104 -0.2553 -0.8004  0.5611
 6226SOL    HW219578   6.881   1.739   3.225 -1.2083 -0.0607  1.5969
 6227SOL     OW19579   2.311   4.461   6.002 -0.4487 -0.9359 -0.3686
 6227SOL    HW119580   2.393   4.496   5.956 -0.6615 -1.1225 -0.9011
 6227SOL    HW219581   2.282   4.377   5.957 -1.4154 -0.4263 -0.7147
 6228SOL     OW19582   0.680   2.353   5.267  0.0740  0.1561  0.1940
 6228SOL    HW119583   0.737   2.307   5.199 -1.2843 -1.8886  0.3408
 6228SOL    HW219584   0.697   2.313   5.357 -0.9714  0.0859  0.3708
 6229SOL     OW19585   6.827   5.353   5.009  0.0709 -0.1847  0.2051
 6229SOL    HW119586   6.842   5.258   5.036 -1.3563 -1.7861 -3.8138
 6229SOL    HW219587   6.738   5.383   5.043 -0.2602 -0.9468  0.0374
 6230SOL     OW19588   1.756   5.764   1.611  0.1594  0.0035 -0.1429
 6230SOL    HW119589   1.831   5.754   1.676  0.9485 -0.0647 -1.0445
 6230SOL    HW219590   1.731   5.674   1.576 -2.0704 -0.3287  1.9954
 6231SOL     OW19591   1.294   3.773   6.437 -0.0384  0.1713  0.3151
 6231SOL    HW119592   1.323   3.688   6.479  1.8682  0.5200 -0.1861
 6231SOL    HW219593   1.345   3.850   6.476 -1.5395  1.0740  0.5867
 6232SOL     OW19594   4.445   0.175   6.247  0.3979  0.3429  0.4101
 6232SOL    HW119595   4.406   0.180   6.339  1.9860 -2.3856  1.3387
 6232SOL    HW219596   4.425   0.086   6.206  3.1619 -0.1291 -0.1570
 6233SOL     OW19597   1.035   3.380   1.596 -0.3817  0.2148  0.0600
 6233SOL    HW119598   1.085   3.304   1.554 -0.4597 -0.2561  0.8054
 6233SOL    HW219599   1.100   3.447   1.631 -0.2575  2.0922 -3.2931
 6234SOL     OW19600   5.798   5.686   2.865  1.0858  0.5212 -0.1013
 6234SOL    HW119601   5.869   5.750   2.895  1.5475  0.1983 -0.4842
 6234SOL    HW219602   5.803   5.674   2.766 -0.0218  1.0962 -0.2367
 6235SOL     OW19603   2.002   6.968   3.234 -0.2079  0.8296  0.1589
 6235SOL    HW119604   2.087   6.917   3.241 -1.4396 -1.3549  0.1669
 6235SOL    HW219605   1.971   6.969   3.139 -1.3340 -0.5383  0.4617
 6236SOL     OW19606   0.815   0.026   0.761  0.2143  0.0201  0.2933
 6236SOL    HW119607   0.812  -0.072   0.741 -2.7003  0.3520 -1.4566
 6236SOL    HW219608   0.722   0.060   0.777  0.9083  2.8573 -1.1043
 6237SOL     OW19609   3.439   0.882   4.063  0.0696  0.5630  0.4761
 6237SOL    HW119610   3.484   0.969   4.046 -0.9303  1.3690  1.7723
 6237SOL    HW219611   3.345   0.898   4.094 -0.4624 -1.0090 -0.2091
 6238SOL     OW19612   1.793   1.382   5.466 -0.5323 -0.1162 -0.0247
 6238SOL    HW119613   1.752   1.402   5.555 -2.6365 -2.8660 -0.2307
 6238SOL    HW219614   1.723   1.389   5.395  1.0263  1.6701 -1.4826
 6239SOL     OW19615   4.900   3.442   2.593  0.4325  0.0196  0.4170
 6239SOL    HW119616   4.803   3.441   2.619  0.0977 -0.0737 -0.7831
 6239SOL    HW219617   4.929   3.349   2.569  0.1713  0.3693 -1.4292
 6240SOL     OW19618   3.494   3.247   4.183  0.2849 -0.0434  0.6447
 6240SOL    HW119619   3.591   3.236   4.163  0.8138  0.3514  2.7416
 6240SOL    HW219620   3.472   3.345   4.186 -0.6307 -0.1151 -1.5523
 6241SOL     OW19621   3.733   0.954   3.987  0.1038 -0.7710 -0.0682
 6241SOL    HW119622   3.682   0.934   3.904 -0.0760  2.7231 -0.9596
 6241SOL    HW219623   3.786   1.038   3.974  0.0856 -0.0799  3.3310
 6242SOL     OW19624   3.994   1.074   4.488 -0.4882  0.0506  0.3926
 6242SOL    HW119625   3.940   1.134   4.427  0.8118  0.7666 -0.0929
 6242SOL    HW219626   4.024   1.126   4.567 -0.6484 -0.4034  0.7572
 6243SOL     OW19627   4.616   1.111   0.554 -0.0196  0.0544 -0.6622
 6243SOL    HW119628   4.527   1.066   0.542 -0.0883  0.0653 -0.1929
 6243SOL    HW219629   4.601   1.207   0.577  0.0860 -0.2438  0.7249
 6244SOL     OW19630   2.432   0.968   0.169 -0.2823  0.7522 -0.0986
 6244SOL    HW119631   2.499   1.010   0.108 -0.3572  1.6647  0.4168
 6244SOL    HW219632   2.387   1.039   0.223  3.1434 -0.1056  4.5441
 6245SOL     OW19633   5.734   5.416   1.951 -0.1920 -0.1766 -0.8523
 6245SOL    HW119634   5.833   5.415   1.935 -0.1675 -1.0767 -0.6732
 6245SOL    HW219635   5.712   5.350   2.023 -0.6715  1.4998  0.6212
 6246SOL     OW19636   1.595   6.474   5.865 -0.3342 -0.1892  0.1705
 6246SOL    HW119637   1.630   6.469   5.959 -0.1711  1.1285  0.1961
 6246SOL    HW219638   1.624   6.560   5.824 -1.1858 -0.3485 -0.7818
 6247SOL     OW19639   0.178   5.502   2.038  0.2194  0.1029 -0.0180
 6247SOL    HW119640   0.151   5.595   2.011  1.7040  0.4464 -0.4168
 6247SOL    HW219641   0.201   5.449   1.956  0.1872 -0.3483  0.2630
 6248SOL     OW19642   5.083   1.759   0.203 -0.0000  0.1079 -0.1125
 6248SOL    HW119643   5.018   1.684   0.215  1.1553 -0.9643 -0.3928
 6248SOL    HW219644   5.034   1.846   0.208 -1.0149 -0.4859  3.1041
 6249SOL     OW19645   4.586   2.155   3.450  0.1908 -0.1005 -0.0239
 6249SOL    HW119646   4.535   2.236   3.477 -0.7369 -0.7289  0.1778
 6249SOL    HW219647   4.629   2.115   3.531 -0.5999 -0.6343  0.1512
 6250SOL     OW19648   6.436   6.427   4.893 -0.7931 -0.6854  0.1047
 6250SOL    HW119649   6.375   6.353   4.865 -0.0005 -1.8738  1.3846
 6250SOL    HW219650   6.382   6.502   4.933 -1.6001 -0.5660 -1.1721
 6251SOL     OW19651   5.223   6.580   4.389  0.1761  0.1229  0.3246
 6251SOL    HW119652   5.151   6.640   4.421  0.8071  0.2025  1.6618
 6251SOL    HW219653   5.296   6.634   4.347  0.0986  0.1693  0.2496
 6252SOL     OW19654   3.693   4.420   0.845  0.1327 -0.5173  0.0011
 6252SOL    HW119655   3.783   4.398   0.809  0.7026  1.8210 -0.1245
 6252SOL    HW219656   3.630   4.440   0.769  0.1210  0.0126  0.1437
 6253SOL     OW19657   3.583   6.064   3.282  0.6978  0.1931  0.2147
 6253SOL    HW119658   3.607   6.146   3.335  1.7678 -1.2072  2.0183
 6253SOL    HW219659   3.655   6.046   3.215  0.0902  1.1167 -0.7142
 6254SOL     OW19660   0.815   5.476   1.471 -0.0657 -0.1275 -0.4780
 6254SOL    HW119661   0.785   5.557   1.421 -2.1455  0.0814  0.9665
 6254SOL    HW219662   0.835   5.402   1.406 -0.4253  0.8316 -1.7088
 6255SOL     OW19663   1.604   6.322   0.684 -0.2815 -0.7088 -0.1042
 6255SOL    HW119664   1.664   6.401   0.677  1.1915 -1.8605 -1.2119
 6255SOL    HW219665   1.605   6.287   0.777  2.4551 -1.8768 -0.4685
 6256SOL     OW19666   6.596   4.159   1.138  0.1607 -0.3406 -0.0186
 6256SOL    HW119667   6.559   4.176   1.230  0.4155  1.0353 -0.1375
 6256SOL    HW219668   6.651   4.238   1.110 -0.5929 -0.3604 -1.6829
 6257SOL     OW19669   3.261   3.701   0.979  0.3176  0.3161  0.2900
 6257SOL    HW119670   3.194   3.740   0.916  0.5863 -0.7141 -0.6534
 6257SOL    HW219671   3.283   3.769   1.049 -0.0632  1.4542 -0.6572
 6258SOL     OW19672   4.349   5.276   3.513  0.0016 -0.2105  0.0224
 6258SOL    HW119673   4.282   5.283   3.587 -1.0311 -0.4435 -0.8673
 6258SOL    HW219674   4.437   5.248   3.551  0.3462  2.6398  1.6098
 6259SOL     OW19675   4.827   1.479   3.651 -0.4193 -0.4031  0.6621
 6259SOL    HW119676   4.767   1.559   3.644  0.9184  0.5403 -0.5091
 6259SOL    HW219677   4.922   1.509   3.651  0.1424 -2.0443 -0.6360
 6260SOL     OW19678   3.337   1.151   6.458 -0.2477 -0.3572 -0.1533
 6260SOL    HW119679   3.252   1.168   6.508 -0.0780 -1.1841  0.4355
 6260SOL    HW219680   3.355   1.052   6.457  0.8075 -0.1716 -0.1059
 6261SOL     OW19681   3.024   0.302   1.518 -0.2686 -0.1565  0.4837
 6261SOL    HW119682   3.105   0.302   1.459 -0.4216 -2.5129  0.1958
 6261SOL    HW219683   3.026   0.222   1.578 -1.1626  1.0838  2.2505
 6262SOL     OW19684   5.153   0.712   2.637 -0.4955 -0.0852  0.8324
 6262SOL    HW119685   5.170   0.729   2.734  0.4639  0.8646  0.5156
 6262SOL    HW219686   5.219   0.644   2.604  0.1675  0.7003  0.5100
 6263SOL     OW19687   5.916   6.029   4.805  0.1082  0.2718  0.1695
 6263SOL    HW119688   5.941   6.031   4.902  0.9383 -1.0195  0.0045
 6263SOL    HW219689   5.958   6.107   4.758  0.6776  0.2508  0.6330
 6264SOL     OW19690   0.365   6.209   1.480 -0.0124  0.1440  0.1117
 6264SOL    HW119691   0.277   6.219   1.526  0.2430  0.0815  0.6176
 6264SOL    HW219692   0.434   6.262   1.529  0.3017 -0.0777 -0.0898
 6265SOL     OW19693   5.030   6.349   4.686 -0.6632  0.2245  0.2004
 6265SOL    HW119694   4.968   6.427   4.689 -0.8245  0.1018  0.1123
 6265SOL    HW219695   5.082   6.352   4.601  0.5251  1.1376  0.9277
 6266SOL     OW19696   3.241   5.128   2.698 -0.6431 -0.0564  0.0574
 6266SOL    HW119697   3.286   5.039   2.697 -1.1651 -0.3374  0.6746
 6266SOL    HW219698   3.221   5.157   2.605  0.9175  0.1415 -0.2456
 6267SOL     OW19699   1.474   5.973   5.736  0.2427  0.4306  0.2175
 6267SOL    HW119700   1.568   5.998   5.755 -0.0213  0.6905  1.2538
 6267SOL    HW219701   1.414   6.051   5.757 -0.1817  0.3556 -0.6679
 6268SOL     OW19702   3.599   0.492   2.408  0.0781  0.2374  0.3998
 6268SOL    HW119703   3.507   0.503   2.372  0.1831  0.7345  0.2833
 6268SOL    HW219704   3.620   0.567   2.471  0.6187  0.4503 -0.0259
 6269SOL     OW19705   0.167   6.837   6.442 -0.4679 -0.3279  0.2405
 6269SOL    HW119706   0.267   6.831   6.447 -0.5334 -1.7328  0.4118
 6269SOL    HW219707   0.139   6.827   6.346 -0.5404 -2.9547  0.4590
 6270SOL     OW19708   5.973   6.101   6.537 -0.0392  0.4276  0.2035
 6270SOL    HW119709   6.027   6.167   6.485  0.1059  0.2681  0.1501
 6270SOL    HW219710   5.911   6.149   6.599  1.8193  0.6364  1.9985
 6271SOL     OW19711   6.290   2.744   3.903  0.2520  0.4548  0.6165
 6271SOL    HW119712   6.322   2.724   3.996  1.6223 -1.7319 -0.2682
 6271SOL    HW219713   6.365   2.780   3.848 -0.0960  0.0814 -0.1202
 6272SOL     OW19714   0.736   6.957   6.663  0.2547 -0.1356  0.2739
 6272SOL    HW119715   0.689   6.869   6.676 -1.9982  0.6328 -1.8646
 6272SOL    HW219716   0.695   7.025   6.724  0.1828  0.0024  0.0733
 6273SOL     OW19717   1.579   0.497   2.707 -0.1361 -0.2766 -0.2173
 6273SOL    HW119718   1.516   0.574   2.717  0.8983  0.5143  0.3889
 6273SOL    HW219719   1.544   0.417   2.756 -1.5631 -0.4321 -1.4295
 6274SOL     OW19720   2.136   5.077   4.740  0.2368 -0.1979  0.3558
 6274SOL    HW119721   2.100   5.113   4.826 -0.6234  0.2571 -0.1767
 6274SOL    HW219722   2.150   4.979   4.748  1.4502  0.0242  1.4390
 6275SOL     OW19723   4.217   6.659   0.344 -0.1107 -0.1762 -0.1401
 6275SOL    HW119724   4.179   6.749   0.324 -0.2207 -0.7169 -2.7293
 6275SOL    HW219725   4.317   6.665   0.342 -0.0684  0.1884  1.4555
 6276SOL     OW19726   1.445   5.068   3.295  0.7229 -0.2917 -0.4541
 6276SOL    HW119727   1.347   5.083   3.308  0.3684 -1.2799 -1.7867
 6276SOL    HW219728   1.496   5.144   3.336 -0.6463  0.8316 -0.7536
 6277SOL     OW19729   5.726   3.737   3.065 -0.1329 -0.0920 -0.0584
 6277SOL    HW119730   5.720   3.782   2.976 -1.5447  1.7249  0.8717
 6277SOL    HW219731   5.680   3.649   3.062 -2.0742  0.8875 -0.6366
 6278SOL     OW19732   2.911   7.020   6.051 -0.3729  0.1686  0.0587
 6278SOL    HW119733   2.928   6.968   5.967 -0.5296 -0.3800  0.3640
 6278SOL    HW219734   2.929   6.962   6.130 -0.4695  0.6092  0.4045
 6279SOL     OW19735   2.691   0.014   2.700 -0.2667  0.1802 -0.5255
 6279SOL    HW119736   2.723   0.108   2.710  0.4438 -0.0930 -0.1161
 6279SOL    HW219737   2.770  -0.047   2.694 -0.5241 -0.8482  3.4104
 6280SOL     OW19738   5.792   1.091   6.226 -0.0527 -0.3966 -0.8368
 6280SOL    HW119739   5.754   1.151   6.296  1.7451 -0.8042  0.5899
 6280SOL    HW219740   5.737   1.008   6.220 -1.9373  0.8731 -2.0692
 6281SOL     OW19741   4.579   3.881   6.550 -0.7953 -0.1494 -0.4178
 6281SOL    HW119742   4.507   3.854   6.615 -1.1637 -1.8261 -1.4661
 6281SOL    HW219743   4.668   3.853   6.586 -0.7187  1.0804  0.4368
 6282SOL     OW19744   6.785   1.911   5.649  0.1403  0.1799 -0.0876
 6282SOL    HW119745   6.816   1.934   5.556  0.2269 -0.6716 -0.2795
 6282SOL    HW219746   6.864   1.912   5.711  0.7295 -2.5003 -0.6761
 6283SOL     OW19747   3.297   2.134   3.094 -0.2677 -0.1469  0.3346
 6283SOL    HW119748   3.342   2.060   3.144  0.0007  0.4040  0.9189
 6283SOL    HW219749   3.300   2.114   2.996  0.7821 -0.3799  0.4034
 6284SOL     OW19750   1.183   3.120   6.641  0.2279  0.5027 -0.6779
 6284SOL    HW119751   1.090   3.143   6.673 -0.2100 -0.4979 -1.1811
 6284SOL    HW219752   1.239   3.094   6.720 -0.3231 -0.2058 -0.5024
 6285SOL     OW19753   0.578   3.290   2.970  0.0765 -0.7049  0.0637
 6285SOL    HW119754   0.542   3.322   3.057  0.8220 -0.1039  0.1704
 6285SOL    HW219755   0.505   3.285   2.903 -0.4713 -1.0016  0.6746
 6286SOL     OW19756   0.702   4.337   5.462 -0.4504 -0.3131 -0.4570
 6286SOL    HW119757   0.768   4.316   5.390 -2.0436 -2.0205 -1.5059
 6286SOL    HW219758   0.725   4.285   5.544  1.8618  2.2677  0.6723
 6287SOL     OW19759   3.926   4.817   5.212 -0.0211  0.2582 -0.6186
 6287SOL    HW119760   4.019   4.783   5.199 -0.0393 -0.5398  1.0711
 6287SOL    HW219761   3.889   4.847   5.124  1.6904  0.2702 -1.3802
 6288SOL     OW19762   2.806   1.928   6.749  0.1170  0.9159 -0.4699
 6288SOL    HW119763   2.725   1.869   6.756 -0.7181  1.8308 -1.9069
 6288SOL    HW219764   2.876   1.895   6.811 -1.3854  0.1293  0.8994
 6289SOL     OW19765   3.314   2.544   5.847 -0.0135 -0.2196 -0.5517
 6289SOL    HW119766   3.240   2.582   5.792 -0.9281 -0.7293  0.2950
 6289SOL    HW219767   3.279   2.469   5.903  1.0845 -0.2790  0.0843
 6290SOL     OW19768   6.059   5.982   3.796  0.0641 -0.0316 -0.3355
 6290SOL    HW119769   6.131   5.938   3.744 -0.3512 -0.2896 -0.6976
 6290SOL    HW219770   6.092   6.003   3.888  1.0574  1.1561 -0.9382
 6291SOL     OW19771   3.854   2.974   3.104  0.4430 -0.3681  0.1312
 6291SOL    HW119772   3.806   2.925   3.031 -0.3251  0.3945  0.1040
 6291SOL    HW219773   3.899   3.055   3.065 -1.3630  0.9977  0.7153
 6292SOL     OW19774   6.692   4.955   4.318 -0.2656  0.4394  0.0235
 6292SOL    HW119775   6.667   4.956   4.414  0.4044  1.9495  0.2097
 6292SOL    HW219776   6.792   4.946   4.310 -0.2622  0.8982 -0.4986
 6293SOL     OW19777   3.463   0.149   0.500 -0.0147 -0.4826  0.2413
 6293SOL    HW119778   3.423   0.138   0.591  0.1679  0.8151  0.4877
 6293SOL    HW219779   3.562   0.141   0.506  0.0784  0.6029  0.3352
 6294SOL     OW19780   4.302   1.458   1.301  0.1987 -0.4260  0.0286
 6294SOL    HW119781   4.384   1.402   1.286 -0.4817 -1.6599  0.7328
 6294SOL    HW219782   4.276   1.454   1.397 -1.1407 -0.7207 -0.3167
 6295SOL     OW19783   3.664   2.931   7.009 -0.3322 -0.1933 -0.7758
 6295SOL    HW119784   3.672   3.015   6.955 -2.5136  0.2770 -0.4873
 6295SOL    HW219785   3.699   2.947   7.101  2.3364 -0.6523 -1.6396
 6296SOL     OW19786   5.080   2.262   1.572  0.5635 -0.2435 -0.2420
 6296SOL    HW119787   5.005   2.321   1.602 -1.2717 -0.6509 -3.5696
 6296SOL    HW219788   5.052   2.166   1.581 -0.5626 -0.4079 -3.7932
 6297SOL     OW19789   0.764   0.755   3.398  1.1716 -0.1563 -0.2183
 6297SOL    HW119790   0.675   0.788   3.368  1.1753  1.3508  1.3267
 6297SOL    HW219791   0.790   0.676   3.342 -1.6410 -1.3810  0.0273
 6298SOL     OW19792   6.923   0.055   5.397  0.0851  0.0366  0.4045
 6298SOL    HW119793   6.874   0.096   5.473  0.8700 -0.5585  1.2482
 6298SOL    HW219794   6.933   0.122   5.323 -1.6878  0.2620  0.3407
 6299SOL     OW19795   4.527   2.361   4.568 -0.3194 -0.5578 -0.3001
 6299SOL    HW119796   4.428   2.346   4.568 -0.1272 -2.0348 -0.0189
 6299SOL    HW219797   4.549   2.441   4.513 -1.8819  1.5442  1.9532
 6300SOL     OW19798   2.103   1.432   6.874  0.2914  0.0561 -0.4308
 6300SOL    HW119799   2.058   1.351   6.913  0.8205 -0.8375 -1.6104
 6300SOL    HW219800   2.200   1.412   6.860  0.3911  0.8445 -0.8798
 6301SOL     OW19801   4.564   1.251   1.788 -0.0342  0.1371 -0.0856
 6301SOL    HW119802   4.529   1.194   1.714 -0.5032  1.7508 -1.1518
 6301SOL    HW219803   4.654   1.217   1.816 -0.7279 -1.7181  0.0280
 6302SOL     OW19804   1.825   3.149   6.782 -0.4013 -0.1438 -0.0241
 6302SOL    HW119805   1.846   3.127   6.686  0.4375  0.7931 -0.0741
 6302SOL    HW219806   1.909   3.171   6.830 -0.7145 -1.4453  1.1754
 6303SOL     OW19807   6.773   4.910   3.939 -0.5444 -0.2939  0.2056
 6303SOL    HW119808   6.833   4.942   3.865 -1.2028  1.5379  0.3915
 6303SOL    HW219809   6.825   4.905   4.024  0.1527 -2.1467 -0.2903
 6304SOL     OW19810   3.654   0.554   3.729 -0.2914  0.2455  0.0826
 6304SOL    HW119811   3.597   0.583   3.806  1.6881  2.7817  0.7360
 6304SOL    HW219812   3.732   0.502   3.763  0.6734  1.5071 -0.0948
 6305SOL     OW19813   2.144   5.473   6.746 -0.2795 -0.3435  0.3307
 6305SOL    HW119814   2.225   5.414   6.751  1.1014  1.4906  1.1472
 6305SOL    HW219815   2.069   5.432   6.798  0.2162 -1.9332 -0.1596
 6306SOL     OW19816   0.392   3.270   4.055 -0.3001 -0.2999  0.6528
 6306SOL    HW119817   0.435   3.181   4.073 -2.5117 -1.2639  1.6383
 6306SOL    HW219818   0.391   3.286   3.956 -0.4447 -1.7306  0.3867
 6307SOL     OW19819   3.766   4.009   3.373  0.2135  0.0539  0.1837
 6307SOL    HW119820   3.688   4.070   3.356 -0.2874 -0.5639  0.2383
 6307SOL    HW219821   3.733   3.923   3.411  1.0543  0.3223  1.5956
 6308SOL     OW19822   1.083   1.477   1.193  0.2344  0.9207  0.1141
 6308SOL    HW119823   1.165   1.531   1.170  0.1518  1.1600  0.3799
 6308SOL    HW219824   1.111   1.388   1.228  0.3669  0.4998 -1.0200
 6309SOL     OW19825   3.351   4.581   5.358 -0.0113 -0.0054 -0.2879
 6309SOL    HW119826   3.322   4.597   5.453 -0.3701 -1.2917 -0.1566
 6309SOL    HW219827   3.447   4.555   5.356  0.3914  1.4339 -0.4354
 6310SOL     OW19828   6.940   6.901   4.106 -0.1744  1.1200  0.2623
 6310SOL    HW119829   6.867   6.964   4.078 -0.1765  0.0583 -2.3941
 6310SOL    HW219830   7.019   6.914   4.047  0.1331 -0.7646  0.2237
 6311SOL     OW19831   5.347   1.613   6.690 -0.0216 -0.1460 -0.3948
 6311SOL    HW119832   5.410   1.617   6.767 -0.6910  0.8898  0.1151
 6311SOL    HW219833   5.390   1.656   6.610  0.6590 -1.1908 -0.6185
 6312SOL     OW19834   3.610   5.708   0.405 -0.3232  0.1062 -0.5801
 6312SOL    HW119835   3.671   5.657   0.466 -0.2359  0.1614 -0.6203
 6312SOL    HW219836   3.665   5.763   0.342 -0.4356  1.8933  0.8230
 6313SOL     OW19837   6.304   4.368   1.992  0.1167 -0.5288 -0.0343
 6313SOL    HW119838   6.276   4.295   2.054 -2.4032 -0.2740 -0.7871
 6313SOL    HW219839   6.309   4.332   1.899 -0.1928  0.0284 -0.2709
 6314SOL     OW19840   3.445   5.409   4.088  0.0669 -0.3586  0.1175
 6314SOL    HW119841   3.375   5.337   4.090 -1.3279  0.9339  0.2268
 6314SOL    HW219842   3.433   5.465   4.005  0.2376  0.5608  0.6949
 6315SOL     OW19843   2.049   2.490   1.633  0.2205  0.1653  0.4684
 6315SOL    HW119844   1.987   2.509   1.709  0.6903 -1.9783  1.4886
 6315SOL    HW219845   2.059   2.571   1.577 -2.1853  1.0737  1.2069
 6316SOL     OW19846   4.257   1.454   3.689  0.5642  0.3956 -0.5839
 6316SOL    HW119847   4.205   1.435   3.605  0.3029 -0.4637 -0.2352
 6316SOL    HW219848   4.331   1.387   3.699 -0.8439 -1.0307  1.0544
 6317SOL     OW19849   3.036   5.272   1.980 -0.0265 -0.5749  0.1163
 6317SOL    HW119850   3.057   5.318   2.066 -1.9993 -0.6543  0.6897
 6317SOL    HW219851   2.975   5.194   1.998 -1.1887 -0.0741 -1.4149
 6318SOL     OW19852   5.717   1.132   5.722  0.4899  0.0874 -0.1502
 6318SOL    HW119853   5.707   1.222   5.679 -0.0412  0.0674 -0.0677
 6318SOL    HW219854   5.716   1.142   5.822  3.7237  0.3899 -0.0357
 6319SOL     OW19855   6.659   6.979   5.275 -0.3185  0.2211  0.5100
 6319SOL    HW119856   6.717   6.906   5.237  1.4066  1.8212 -0.0981
 6319SOL    HW219857   6.687   7.067   5.236 -2.4321  1.2164  1.1108
 6320SOL     OW19858   5.331   1.178   6.215 -0.5604 -0.1656  0.4791
 6320SOL    HW119859   5.327   1.262   6.270  0.6253  0.2532 -0.0406
 6320SOL    HW219860   5.404   1.120   6.250 -0.3896 -0.2967 -0.0980
 6321SOL     OW19861   4.742   3.566   7.010  0.0885 -0.8920  0.1066
 6321SOL    HW119862   4.814   3.504   7.040  0.8810  0.2258  0.6018
 6321SOL    HW219863   4.743   3.649   7.067  0.4938  0.5407 -1.8706
 6322SOL     OW19864   2.308   2.842   0.441 -0.1523 -0.1792  0.3484
 6322SOL    HW119865   2.325   2.780   0.517  1.9156 -1.1077 -0.8062
 6322SOL    HW219866   2.371   2.919   0.446 -2.0927  1.4508  1.2557
 6323SOL     OW19867   1.130   6.676   1.207  0.2154  0.0127  0.2453
 6323SOL    HW119868   1.143   6.601   1.142  1.0545  0.7971 -0.5206
 6323SOL    HW219869   1.104   6.639   1.297  0.4823 -1.1734 -0.1553
 6324SOL     OW19870   5.237   2.800   0.903 -0.1245  0.1349  0.7709
 6324SOL    HW119871   5.244   2.756   0.993  1.8833 -0.8294  0.1834
 6324SOL    HW219872   5.263   2.897   0.911 -0.8535  0.2912  1.3742
 6325SOL     OW19873   0.596   2.514   4.795 -0.2335 -0.2302  0.2018
 6325SOL    HW119874   0.502   2.543   4.778 -0.2951 -0.0923  0.7443
 6325SOL    HW219875   0.653   2.537   4.716 -0.6886 -0.4715 -0.2002
 6326SOL     OW19876   5.684   6.828   6.676 -0.6202  0.0314  0.5498
 6326SOL    HW119877   5.690   6.728   6.685 -0.9811  0.0597  1.1468
 6326SOL    HW219878   5.656   6.867   6.763 -1.5896  0.5657  0.0063
 6327SOL     OW19879   1.005   2.551   2.531 -0.2156 -0.2284  0.5177
 6327SOL    HW119880   0.956   2.464   2.532  1.7264 -1.3825 -0.3471
 6327SOL    HW219881   1.085   2.544   2.472 -1.1008  2.7999 -1.2515
 6328SOL     OW19882   3.229   5.502   5.264 -0.0385  0.0241 -0.1850
 6328SOL    HW119883   3.318   5.464   5.240  0.9693  1.5157  0.9381
 6328SOL    HW219884   3.205   5.475   5.358 -1.1253 -0.9364 -0.7148
 6329SOL     OW19885   6.960   4.527   0.034  0.2515 -0.2147 -0.0550
 6329SOL    HW119886   6.997   4.524   0.127  0.5220 -1.5064 -0.1882
 6329SOL    HW219887   7.033   4.509  -0.032  0.5278  2.7826 -0.7040
 6330SOL     OW19888   3.195   1.690   2.914  0.0928 -0.0291  0.2563
 6330SOL    HW119889   3.239   1.622   2.854  0.3700  0.6275 -0.3078
 6330SOL    HW219890   3.099   1.699   2.889 -0.3811 -1.4316  1.4583
 6331SOL     OW19891   1.923   4.405   2.878  0.1819  0.5095  0.2987
 6331SOL    HW119892   1.983   4.485   2.889  3.3489 -1.8000  1.2193
 6331SOL    HW219893   1.905   4.365   2.968 -1.4039  0.1629 -0.1452
 6332SOL     OW19894   5.024   1.245   0.761  0.5347 -0.0792  0.0857
 6332SOL    HW119895   4.942   1.188   0.771 -0.8536  1.7970 -0.1167
 6332SOL    HW219896   5.064   1.229   0.670 -1.9131  1.7415 -1.4540
 6333SOL     OW19897   0.521   6.623   1.661  0.6042  0.6201 -0.2285
 6333SOL    HW119898   0.440   6.680   1.651  1.1644  1.7129  1.0950
 6333SOL    HW219899   0.603   6.678   1.640  1.0157 -0.6827 -2.3985
 6334SOL     OW19900   4.132   1.979   1.213  0.4657 -0.1462 -0.1915
 6334SOL    HW119901   4.141   1.880   1.225 -1.5085 -0.2813  0.5877
 6334SOL    HW219902   4.049   1.998   1.160  0.6084  1.1105  0.0101
 6335SOL     OW19903   6.876   4.556   6.004  0.0796  0.0187 -0.1645
 6335SOL    HW119904   6.780   4.575   5.983  0.5797  2.6960 -0.4020
 6335SOL    HW219905   6.932   4.578   5.925  1.1098  1.2189  0.8485
 6336SOL     OW19906   0.333   5.317   4.148 -0.3977  0.0361  0.4628
 6336SOL    HW119907   0.432   5.304   4.146 -0.5897 -1.4830 -1.0928
 6336SOL    HW219908   0.294   5.267   4.225 -0.1173 -0.7263  0.1141
 6337SOL     OW19909   6.425   0.272   6.085  0.3555 -0.2632  0.0582
 6337SOL    HW119910   6.440   0.234   6.176 -0.0365 -0.4447  0.0515
 6337SOL    HW219911   6.405   0.197   6.021  1.7498 -0.2479 -0.4188
 6338SOL     OW19912   1.557   0.214   2.648 -0.1547 -0.3619 -0.0400
 6338SOL    HW119913   1.529   0.299   2.602  0.4690 -1.0412 -1.7175
 6338SOL    HW219914   1.656   0.212   2.657 -0.2241 -0.5572  0.7435
 6339SOL     OW19915   0.881   2.719   2.758  0.8068  0.1944  0.2354
 6339SOL    HW119916   0.964   2.663   2.750 -0.2737 -1.7490  1.6713
 6339SOL    HW219917   0.863   2.765   2.671  1.5648 -2.0404 -1.2039
 6340SOL     OW19918   2.518   5.537   6.172  0.1564  0.2273 -0.3568
 6340SOL    HW119919   2.521   5.447   6.215  1.6421  0.2448 -0.3784
 6340SOL    HW219920   2.472   5.530   6.084 -0.2845 -0.3868 -0.0850
 6341SOL     OW19921   5.460   5.812   3.092  0.1208  0.3724 -0.0403
 6341SOL    HW119922   5.400   5.734   3.107 -0.3616  0.8801  0.7311
 6341SOL    HW219923   5.482   5.819   2.994 -2.2654  1.0417 -0.5889
 6342SOL     OW19924   0.798   6.532   1.713  0.3132 -0.4302 -0.3466
 6342SOL    HW119925   0.700   6.550   1.720  0.4602 -0.2078  2.3076
 6342SOL    HW219926   0.829   6.550   1.620 -2.3526 -1.6514 -1.5714
 6343SOL     OW19927   1.849   5.358   0.506 -0.0983  0.7394  0.2255
 6343SOL    HW119928   1.840   5.412   0.422 -0.6272 -0.1501 -0.3039
 6343SOL    HW219929   1.764   5.308   0.523  0.5285 -0.2730  0.4543
 6344SOL     OW19930   0.004   1.197   3.637 -0.4737 -0.4386 -1.2847
 6344SOL    HW119931  -0.029   1.291   3.638  0.0509 -0.2372  0.5304
 6344SOL    HW219932  -0.073   1.134   3.650 -0.3636 -0.0094  2.0794
 6345SOL     OW19933   5.149   3.866   3.124 -0.4642 -0.3304 -0.1109
 6345SOL    HW119934   5.167   3.778   3.079  0.6770 -0.5825  0.7857
 6345SOL    HW219935   5.145   3.938   3.055  0.0426 -0.8845 -0.7425
 6346SOL     OW19936   6.189   4.377   4.832  0.1205 -0.0603  0.0613
 6346SOL    HW119937   6.094   4.360   4.856  0.7558 -1.7521  1.6830
 6346SOL    HW219938   6.199   4.469   4.796 -2.6132 -0.8347 -3.1446
 6347SOL     OW19939   2.269   2.293   2.297  0.2116 -0.0551  0.1644
 6347SOL    HW119940   2.290   2.389   2.312 -2.1843  0.6372 -0.4308
 6347SOL    HW219941   2.287   2.241   2.380 -1.6331  1.5585  1.6696
 6348SOL     OW19942   6.356   2.969   6.426  0.2083 -0.2374 -0.2080
 6348SOL    HW119943   6.389   2.879   6.453  0.6125  0.2050  0.8638
 6348SOL    HW219944   6.406   3.039   6.478 -0.0789  0.6016 -1.0418
 6349SOL     OW19945   5.761   6.636   0.077 -0.3458 -0.4653  0.0267
 6349SOL    HW119946   5.813   6.718   0.098  1.3668 -1.5966  0.4408
 6349SOL    HW219947   5.804   6.587   0.001 -1.3119 -0.9948 -0.1958
 6350SOL     OW19948   0.979   5.094   2.618  0.0491  0.0343  0.2490
 6350SOL    HW119949   0.981   4.994   2.626  1.7485 -0.2197 -2.2643
 6350SOL    HW219950   1.072   5.130   2.621 -0.2349  1.1658 -2.0375
 6351SOL     OW19951   6.067   3.546   1.006  0.3017  0.0219 -0.1677
 6351SOL    HW119952   6.133   3.521   0.935  1.4728  1.9083  0.2113
 6351SOL    HW219953   6.043   3.643   0.998 -2.7862 -0.6504 -0.5362
 6352SOL     OW19954   4.371   0.559   4.321 -0.1213  0.2159 -0.2163
 6352SOL    HW119955   4.361   0.617   4.402 -1.1167  1.5275 -1.2288
 6352SOL    HW219956   4.467   0.535   4.308  0.6116  3.0749 -0.7005
 6353SOL     OW19957   5.035   5.489   5.597  0.2713  0.0186  0.0985
 6353SOL    HW119958   4.973   5.515   5.523  1.1069  0.1589 -0.5554
 6353SOL    HW219959   5.014   5.396   5.626  1.0027 -0.6423 -1.4288
 6354SOL     OW19960   6.439   5.856   2.455  0.1679  0.3202  0.1350
 6354SOL    HW119961   6.496   5.774   2.459 -0.0676  0.1798  0.8195
 6354SOL    HW219962   6.481   5.923   2.393 -0.4213 -0.8878 -1.6306
 6355SOL     OW19963   3.692   4.215   0.433 -0.1625 -0.2553 -0.7463
 6355SOL    HW119964   3.790   4.238   0.431 -0.3363  0.4912 -0.9061
 6355SOL    HW219965   3.661   4.198   0.340 -0.4495  0.6724 -0.8264
 6356SOL     OW19966   1.499   0.498   5.315  0.0646  0.9080 -0.2256
 6356SOL    HW119967   1.537   0.468   5.228  0.0327  0.6917 -0.1660
 6356SOL    HW219968   1.467   0.592   5.307 -0.6938  0.6216 -0.6923
 6357SOL     OW19969   5.184   3.076   3.626  0.0534  0.2556  0.3326
 6357SOL    HW119970   5.101   3.028   3.655 -0.3336 -0.0783 -1.2117
 6357SOL    HW219971   5.263   3.016   3.640 -0.4310 -0.9423 -1.6144
 6358SOL     OW19972   1.483   1.584   3.988 -0.1440 -0.4607  0.4219
 6358SOL    HW119973   1.487   1.563   4.086 -0.0666 -1.5018  0.2053
 6358SOL    HW219974   1.429   1.667   3.974 -2.4060 -1.7240  1.1617
 6359SOL     OW19975   5.680   3.936   3.717 -0.2250  0.1030  0.4223
 6359SOL    HW119976   5.667   4.034   3.699 -2.0230  0.0736  1.3674
 6359SOL    HW219977   5.643   3.883   3.641  0.4796  0.1468  0.0464
 6360SOL     OW19978   2.406   1.705   0.045 -0.3153 -0.4152  0.2718
 6360SOL    HW119979   2.419   1.795   0.087  1.3562 -0.0764 -0.8824
 6360SOL    HW219980   2.434   1.634   0.109 -3.1790 -0.2904  1.8273
 6361SOL     OW19981   0.946   1.872   3.102 -0.2118  0.1435 -0.1398
 6361SOL    HW119982   0.969   1.842   3.009  1.6777 -2.1398  0.9689
 6361SOL    HW219983   0.999   1.953   3.125  0.5011 -0.2017 -0.5258
 6362SOL     OW19984   3.433   4.805   6.457  0.0313 -0.4791 -0.5096
 6362SOL    HW119985   3.357   4.768   6.404 -0.0452  2.7495 -3.0046
 6362SOL    HW219986   3.517   4.797   6.405  1.1280 -2.1686  1.3677
 6363SOL     OW19987   0.820   4.740   2.831  0.4613  0.4460  0.1890
 6363SOL    HW119988   0.814   4.640   2.831 -1.9635  0.4997 -1.4949
 6363SOL    HW219989   0.888   4.769   2.763  0.9948 -0.0429  0.5048
 6364SOL     OW19990   2.723   1.557   4.406  0.2286 -0.0075 -0.4562
 6364SOL    HW119991   2.665   1.589   4.482  1.2492  0.6957  0.0547
 6364SOL    HW219992   2.809   1.609   4.406  0.7700 -0.8774 -1.3341
 6365SOL     OW19993   6.063   6.219   4.679 -0.3595  0.1122  0.4154
 6365SOL    HW119994   6.057   6.245   4.583 -1.6441  0.8829  0.6846
 6365SOL    HW219995   6.159   6.220   4.708 -0.0459  0.8628 -0.5906
 6366SOL     OW19996   6.378   1.507   4.891 -0.3703 -0.8245 -0.3447
 6366SOL    HW119997   6.357   1.484   4.986 -1.8045 -0.3820 -0.5319
 6366SOL    HW219998   6.397   1.423   4.840  1.2136 -1.0074  0.4835
 6367SOL     OW19999   2.493   2.414   2.746  0.2779  0.1432 -0.3438
 6367SOL    HW120000   2.522   2.410   2.650  0.9214 -2.2011 -0.1331
 6367SOL    HW220001   2.443   2.499   2.762 -0.0769  0.4974 -2.8060
 6368SOL     OW20002   5.685   2.247   2.743 -1.0191  0.3325  0.8848
 6368SOL    HW120003   5.687   2.243   2.643  2.6208 -1.6695  0.8684
 6368SOL    HW220004   5.607   2.195   2.777 -2.0155  0.6209 -0.8702
 6369SOL     OW20005   2.319   3.597   1.154  0.9045 -0.1322  0.7880
 6369SOL    HW120006   2.343   3.571   1.248 -2.4160 -1.0939  1.5285
 6369SOL    HW220007   2.375   3.544   1.090  2.1565 -0.6422  2.2245
 6370SOL     OW20008   5.095   5.523   4.734  0.0034  0.2654  0.4035
 6370SOL    HW120009   5.134   5.530   4.642 -0.5035  0.6880  0.2167
 6370SOL    HW220010   5.014   5.465   4.732 -0.6393  1.1483  0.3712
 6371SOL     OW20011   4.768   4.227   6.800  0.6300  0.0104 -0.0238
 6371SOL    HW120012   4.736   4.149   6.854  2.8506 -0.0684  1.3268
 6371SOL    HW220013   4.794   4.195   6.708 -0.0398 -0.5157 -0.0358
 6372SOL     OW20014   0.559   1.311   6.986  0.5699  0.2734  0.5008
 6372SOL    HW120015   0.518   1.362   6.910  0.7563  0.3000  0.4180
 6372SOL    HW220016   0.535   1.215   6.979 -0.5542  0.4889  1.1645
 6373SOL     OW20017   6.113   1.335   0.806  0.0584  0.3015  0.6031
 6373SOL    HW120018   6.101   1.419   0.859 -1.0407  1.9856 -2.1443
 6373SOL    HW220019   6.193   1.345   0.746 -2.3616  1.2273 -2.7513
 6374SOL     OW20020   5.227   2.533   6.851  0.3287  0.0911  0.3314
 6374SOL    HW120021   5.281   2.568   6.775 -1.4851  2.0426 -0.1213
 6374SOL    HW220022   5.133   2.563   6.843 -0.5536 -1.9689  1.9088
 6375SOL     OW20023   6.717   1.245   3.458  0.1882  0.3175  0.3213
 6375SOL    HW120024   6.740   1.217   3.551 -1.0518  0.6083  0.7346
 6375SOL    HW220025   6.619   1.231   3.442  0.6261 -1.1305 -1.4467
 6376SOL     OW20026   1.631   6.467   6.177 -0.4040 -0.1059  0.2507
 6376SOL    HW120027   1.676   6.553   6.155  0.3897 -0.1303  1.6537
 6376SOL    HW220028   1.563   6.482   6.249 -1.4630 -0.3764 -0.6573
 6377SOL     OW20029   6.329   1.654   0.739  0.2202  0.3690 -0.9560
 6377SOL    HW120030   6.387   1.623   0.664  0.7758  0.4498 -0.5672
 6377SOL    HW220031   6.359   1.612   0.824 -0.1300  0.6135 -0.7084
 6378SOL     OW20032   6.962   2.530   3.357 -0.0838 -0.0968 -0.2011
 6378SOL    HW120033   6.924   2.437   3.361 -3.2577  1.0156 -1.0708
 6378SOL    HW220034   7.009   2.544   3.270  0.6657 -0.9399  0.0551
 6379SOL     OW20035   3.974   4.527   6.567 -0.3121 -0.4399  0.4189
 6379SOL    HW120036   3.945   4.498   6.658  0.3339  0.2237  0.8413
 6379SOL    HW220037   4.038   4.460   6.529  1.5188  0.6024  1.5705
 6380SOL     OW20038   2.005   2.329   5.065 -0.3945 -0.1971  0.1873
 6380SOL    HW120039   2.072   2.259   5.040 -1.1809 -1.6396  1.8858
 6380SOL    HW220040   2.052   2.416   5.082  0.5100 -0.0028 -2.8295
 6381SOL     OW20041   3.259   2.428   6.822 -0.2679 -0.0725  0.2912
 6381SOL    HW120042   3.180   2.371   6.799  0.0955 -0.0574 -1.0857
 6381SOL    HW220043   3.297   2.398   6.909 -0.9405 -1.0080  0.2823
 6382SOL     OW20044   2.726   0.390   1.476  0.1557 -0.3546  0.0776
 6382SOL    HW120045   2.670   0.351   1.549 -0.2986  1.5650  0.8243
 6382SOL    HW220046   2.822   0.370   1.494  0.1348  0.7786  1.7343
 6383SOL     OW20047   2.875   1.763   2.861  0.0686 -0.3658 -0.5295
 6383SOL    HW120048   2.890   1.796   2.768  0.0377  2.3166  0.3144
 6383SOL    HW220049   2.785   1.720   2.868 -0.5880  0.8254 -1.4073
 6384SOL     OW20050   6.694   2.442   3.569  0.3904 -0.2839 -0.4034
 6384SOL    HW120051   6.761   2.516   3.571  1.0587 -0.8808  0.9016
 6384SOL    HW220052   6.692   2.401   3.478  0.7109  0.7090 -0.8705
 6385SOL     OW20053   6.563   4.415   6.693  0.3898 -0.1537 -0.4397
 6385SOL    HW120054   6.468   4.441   6.674  0.5481 -0.2734 -1.4386
 6385SOL    HW220055   6.625   4.473   6.639  0.8644 -0.5456 -0.3226
 6386SOL     OW20056   3.077   1.448   0.616  0.0182  0.2942 -0.2879
 6386SOL    HW120057   3.146   1.425   0.685 -1.2634 -0.5828  0.7606
 6386SOL    HW220058   3.049   1.543   0.627 -0.7482 -0.0533  0.9589
 6387SOL     OW20059   5.140   1.179   6.644 -0.3635 -0.1421  0.3940
 6387SOL    HW120060   5.179   1.197   6.735 -0.1877 -1.9189  0.7067
 6387SOL    HW220061   5.163   1.255   6.583  0.7861  0.4031  1.4449
 6388SOL     OW20062   5.914   4.952   2.071  0.1779  0.5912  0.0508
 6388SOL    HW120063   5.983   5.016   2.037 -0.3095  1.5684  0.8196
 6388SOL    HW220064   5.841   4.943   2.004 -0.2790  1.7030  0.3759
 6389SOL     OW20065   0.285   6.237   0.743  0.3847  0.5917  0.7785
 6389SOL    HW120066   0.191   6.268   0.733  0.6598  1.3512  0.4414
 6389SOL    HW220067   0.287   6.150   0.792 -0.3838  1.4798  2.4785
 6390SOL     OW20068   5.870   0.187   6.418  0.0755  0.3933  0.6077
 6390SOL    HW120069   5.804   0.161   6.347 -0.5853  2.6460  0.3168
 6390SOL    HW220070   5.963   0.184   6.380 -0.1497  0.2845  0.0551
 6391SOL     OW20071   0.966   2.998   5.297 -0.7138  0.4518  0.4807
 6391SOL    HW120072   0.998   3.090   5.316  1.6406 -0.1047 -0.5200
 6391SOL    HW220073   0.936   2.992   5.202 -0.9076  0.1800  0.5556
 6392SOL     OW20074   5.416   0.354   2.780  0.3953  0.3538  0.4749
 6392SOL    HW120075   5.499   0.306   2.751  2.9870  3.3251  2.2785
 6392SOL    HW220076   5.395   0.426   2.714 -0.0947  0.3506  0.6230
 6393SOL     OW20077   2.255   4.151   0.057  0.0257 -0.1704  0.0177
 6393SOL    HW120078   2.219   4.179  -0.033  2.8561  0.5473 -0.9970
 6393SOL    HW220079   2.185   4.098   0.105 -1.8250 -0.0721 -2.3342
 6394SOL     OW20080   0.602   6.851   3.652  0.4666 -0.3780 -0.1319
 6394SOL    HW120081   0.510   6.885   3.674 -0.1865 -1.3945 -1.2335
 6394SOL    HW220082   0.669   6.922   3.674 -0.6128  0.5419  0.2897
 6395SOL     OW20083   1.952   3.927   5.278 -0.6108 -0.3032  0.2163
 6395SOL    HW120084   1.992   3.999   5.222 -0.8886  0.3937  0.8974
 6395SOL    HW220085   1.986   3.838   5.247 -0.4641  0.0910 -0.8010
 6396SOL     OW20086   1.323   2.742   5.143 -0.2475 -0.8598  0.2308
 6396SOL    HW120087   1.276   2.655   5.153 -5.1047  1.3839 -0.2145
 6396SOL    HW220088   1.359   2.771   5.232 -2.4781 -1.4282  1.3959
 6397SOL     OW20089   5.135   2.237   4.187 -0.5539 -0.0770  0.4725
 6397SOL    HW120090   5.160   2.333   4.174  0.0946 -0.3351 -0.2366
 6397SOL    HW220091   5.136   2.216   4.285  1.4959  0.0924  0.5423
 6398SOL     OW20092   2.650   0.702   0.443  0.0709  0.3560  0.1036
 6398SOL    HW120093   2.701   0.729   0.362 -2.2638  3.0821 -0.6195
 6398SOL    HW220094   2.620   0.607   0.432  1.9573 -0.1672 -0.9993
 6399SOL     OW20095   0.718   1.905   0.786 -0.7711 -0.1632 -0.4081
 6399SOL    HW120096   0.789   1.883   0.719 -1.0902 -2.7820  0.0014
 6399SOL    HW220097   0.641   1.949   0.741  0.1231  0.5607 -1.2626
 6400SOL     OW20098   2.699   0.375   3.719 -0.3644  0.1387  0.0706
 6400SOL    HW120099   2.793   0.398   3.747 -0.2013  0.3744 -0.6668
 6400SOL    HW220100   2.636   0.398   3.794  0.1222  0.2872  0.4430
 6401SOL     OW20101   3.013   4.284   1.634  0.1521 -0.1857  0.7649
 6401SOL    HW120102   2.932   4.227   1.624 -1.2349  1.7902  0.0265
 6401SOL    HW220103   2.998   4.352   1.706  1.3852 -0.1481  1.0120
 6402SOL     OW20104   4.481   4.401   6.806  0.4738 -0.0602 -0.0810
 6402SOL    HW120105   4.529   4.487   6.823  0.8378 -0.5187  1.4092
 6402SOL    HW220106   4.509   4.364   6.718  0.2354  1.3808 -0.7884
 6403SOL     OW20107   4.733   6.162   5.687 -0.2670  0.2588  0.3622
 6403SOL    HW120108   4.661   6.104   5.649 -0.4428 -1.4515  3.0160
 6403SOL    HW220109   4.814   6.106   5.707  0.1593  1.2399  1.4976
 6404SOL     OW20110   4.806   5.504   0.102 -0.2286  0.2594  0.1630
 6404SOL    HW120111   4.804   5.464   0.194 -1.7785 -0.8405 -0.3073
 6404SOL    HW220112   4.746   5.451   0.041 -0.3102  1.7883 -1.1494
 6405SOL     OW20113   4.702   2.413   3.087  0.2358 -0.3337  0.3591
 6405SOL    HW120114   4.796   2.448   3.088  0.4340 -0.8550  0.6197
 6405SOL    HW220115   4.700   2.323   3.130  0.3995 -2.3252 -3.3872
 6406SOL     OW20116   6.083   3.546   2.120 -0.2325 -0.4540 -0.2203
 6406SOL    HW120117   6.120   3.455   2.140 -1.6743 -1.0279 -0.0273
 6406SOL    HW220118   6.156   3.614   2.127  0.7381 -1.5114  0.2681
 6407SOL     OW20119   1.581   6.398   1.304 -0.4810 -0.5459  0.2077
 6407SOL    HW120120   1.661   6.457   1.296 -0.7669 -0.0640  0.7383
 6407SOL    HW220121   1.521   6.411   1.225  0.5273 -1.8097 -0.8041
 6408SOL     OW20122   2.016   1.469   2.608 -0.3960 -0.7818 -0.4072
 6408SOL    HW120123   2.108   1.479   2.571 -0.8709  1.5390 -1.1380
 6408SOL    HW220124   1.952   1.455   2.532 -0.9196  0.1511 -0.1550
 6409SOL     OW20125   6.047   4.184   1.986 -0.6529  0.3607  0.1738
 6409SOL    HW120126   5.978   4.256   1.973 -3.1623 -2.0325 -0.6628
 6409SOL    HW220127   6.075   4.148   1.897 -1.0384 -1.1090  0.6273
 6410SOL     OW20128   2.240   0.207   0.833 -0.9571  0.2006  0.2865
 6410SOL    HW120129   2.215   0.187   0.927 -0.8492 -0.9448  0.0864
 6410SOL    HW220130   2.183   0.281   0.798  0.0098  1.6883  1.7134
 6411SOL     OW20131   2.198   3.238   4.291  0.1751 -0.3411 -0.6521
 6411SOL    HW120132   2.210   3.150   4.246  0.9753 -1.7604  2.1061
 6411SOL    HW220133   2.187   3.224   4.389  1.3038  2.7042  0.0265
 6412SOL     OW20134   3.032   0.488   1.967 -0.1533  0.7568 -0.0466
 6412SOL    HW120135   2.987   0.418   2.023  0.3269  0.7074  0.2823
 6412SOL    HW220136   2.989   0.490   1.876  0.3335 -0.5123 -0.3262
 6413SOL     OW20137   3.212   5.456   1.683 -0.0776  0.0448 -0.0185
 6413SOL    HW120138   3.215   5.517   1.604  0.5907  0.2750  0.1806
 6413SOL    HW220139   3.156   5.376   1.661 -1.0875  0.7839 -0.2342
 6414SOL     OW20140   4.189   6.035   0.665  0.3214  0.1039  0.1725
 6414SOL    HW120141   4.255   6.021   0.591 -1.6305 -0.4121 -1.5677
 6414SOL    HW220142   4.210   6.120   0.712  1.9990  0.1362 -0.5781
 6415SOL     OW20143   0.380   2.721   2.937  0.2967  0.5476 -0.1784
 6415SOL    HW120144   0.284   2.715   2.961  0.6506 -2.1994  0.8355
 6415SOL    HW220145   0.390   2.708   2.838 -0.3716  0.9785 -0.3077
 6416SOL     OW20146   2.810   4.916   6.904 -0.3173  0.1499 -0.3173
 6416SOL    HW120147   2.865   4.833   6.916  0.2424  0.4408 -0.8357
 6416SOL    HW220148   2.867   4.997   6.917 -0.7848  0.4603 -0.1445
 6417SOL     OW20149   4.024   4.705   6.890 -0.2775  0.1462  0.7751
 6417SOL    HW120150   4.078   4.719   6.973  0.4703 -1.6193  0.6340
 6417SOL    HW220151   4.080   4.727   6.809 -0.7474  1.1007  0.6923
 6418SOL     OW20152   5.179   0.216   0.594 -0.2360 -0.2803 -0.4894
 6418SOL    HW120153   5.206   0.248   0.685  0.3095  1.1184 -1.1006
 6418SOL    HW220154   5.192   0.117   0.587  0.5642 -0.2678  0.6622
 6419SOL     OW20155   0.499   0.718   6.464 -0.0257 -0.4767 -0.3118
 6419SOL    HW120156   0.520   0.762   6.377 -0.5536 -0.3043 -0.3516
 6419SOL    HW220157   0.581   0.718   6.521  0.2478 -0.3383 -0.6948
 6420SOL     OW20158   3.843   4.995   3.963  0.2207 -0.8673 -0.1197
 6420SOL    HW120159   3.867   5.090   3.980  1.2051 -0.9637 -0.8720
 6420SOL    HW220160   3.924   4.937   3.976 -0.0733 -1.4488 -0.7947
 6421SOL     OW20161   6.338   0.011   0.697  0.2010 -0.1676  0.5343
 6421SOL    HW120162   6.249   0.055   0.681  0.4604 -0.0439 -0.6756
 6421SOL    HW220163   6.327  -0.063   0.763 -0.3945  1.1912  2.0426
 6422SOL     OW20164   6.980   1.055   4.769  0.2961 -0.3092  0.3004
 6422SOL    HW120165   7.074   1.087   4.785 -0.1480  0.4364  1.5582
 6422SOL    HW220166   6.977   0.956   4.774  0.9049 -0.2999  0.9051
 6423SOL     OW20167   0.614   2.678   5.975  0.3410  0.6035 -0.0782
 6423SOL    HW120168   0.673   2.646   6.050 -0.8958 -2.0674 -0.1322
 6423SOL    HW220169   0.612   2.609   5.903 -3.1254  0.3503  0.1060
 6424SOL     OW20170   0.546   3.798   5.262 -0.4102  0.2854  0.1033
 6424SOL    HW120171   0.545   3.893   5.294  0.8002  0.7863 -1.2465
 6424SOL    HW220172   0.560   3.796   5.163  0.6221 -1.3237  0.2486
 6425SOL     OW20173   1.983   5.243   5.736  0.4770  0.7485 -0.5302
 6425SOL    HW120174   2.054   5.221   5.802  1.0818 -1.4558 -1.8176
 6425SOL    HW220175   1.896   5.203   5.766  0.1835  1.8226  0.0982
 6426SOL     OW20176   4.784   1.572   2.002 -0.0385 -0.1500 -0.2705
 6426SOL    HW120177   4.691   1.540   1.980 -0.4431  1.6110 -1.3694
 6426SOL    HW220178   4.818   1.628   1.926  1.4143  0.3212  0.6952
 6427SOL     OW20179   3.770   3.548   3.601  0.6124  0.4396  0.3662
 6427SOL    HW120180   3.768   3.582   3.695  1.6598 -2.5714  1.5876
 6427SOL    HW220181   3.864   3.532   3.573  0.2322 -0.2563 -0.5639
 6428SOL     OW20182   5.428   4.140   0.241 -0.8190 -0.6505  0.2487
 6428SOL    HW120183   5.449   4.090   0.325 -0.9676  1.1959  1.4397
 6428SOL    HW220184   5.492   4.114   0.169  0.5904 -0.8169  1.5207
 6429SOL     OW20185   0.953   2.260   4.892  0.1332 -0.4020  0.0704
 6429SOL    HW120186   0.977   2.164   4.903 -1.7379 -0.8305  0.8298
 6429SOL    HW220187   0.985   2.292   4.803 -0.3861 -2.1292 -0.7896
 6430SOL     OW20188   6.324   0.560   3.404  0.1165  0.3047  0.6466
 6430SOL    HW120189   6.412   0.552   3.356  0.0437 -0.7051  0.6618
 6430SOL    HW220190   6.264   0.485   3.377 -0.1754  0.1044  1.7997
 6431SOL     OW20191   3.745   5.343   2.531  0.2082 -0.2255 -0.5096
 6431SOL    HW120192   3.739   5.388   2.442  0.4217  0.0592 -0.3831
 6431SOL    HW220193   3.664   5.366   2.586  0.6697  0.6327 -0.1628
 6432SOL     OW20194   5.378   3.542   6.692  0.3460 -0.0202  0.4754
 6432SOL    HW120195   5.461   3.519   6.743 -1.0871 -0.4498  2.7895
 6432SOL    HW220196   5.337   3.624   6.731  0.3150  0.9561 -1.4904
 6433SOL     OW20197   3.028   4.842   5.707 -0.4343 -0.0073  0.5574
 6433SOL    HW120198   3.041   4.841   5.806 -1.6819  2.4055  0.8316
 6433SOL    HW220199   3.079   4.767   5.665  0.4841 -0.8058  2.9658
 6434SOL     OW20200   2.355   6.198   5.971  0.3558 -0.2377  0.5295
 6434SOL    HW120201   2.445   6.153   5.970  0.1606 -0.6779 -1.1746
 6434SOL    HW220202   2.327   6.218   5.877 -1.5914 -0.6461  0.9733
 6435SOL     OW20203   4.067   1.681   0.849 -0.4052  0.2731 -0.1801
 6435SOL    HW120204   4.105   1.660   0.939 -3.0626  1.3205  1.3094
 6435SOL    HW220205   4.065   1.780   0.836 -0.3466  0.1434 -1.2529
 6436SOL     OW20206   0.979   3.200   3.140  0.1095  0.7222  0.2322
 6436SOL    HW120207   0.897   3.147   3.116  0.9821 -0.9454  0.8178
 6436SOL    HW220208   0.998   3.191   3.238  2.1494 -0.6686 -0.2292
 6437SOL     OW20209   2.263   3.042   6.346  0.1830 -0.0968  0.7976
 6437SOL    HW120210   2.203   3.001   6.415  0.8867  0.1212  1.5487
 6437SOL    HW220211   2.211   3.055   6.261 -0.7357 -0.2353  1.3218
 6438SOL     OW20212   6.258   5.417   6.721  0.1940 -0.0321  0.2491
 6438SOL    HW120213   6.332   5.351   6.706  0.0626 -0.5996  1.9387
 6438SOL    HW220214   6.269   5.460   6.811 -1.0814  0.4732  0.1843
 6439SOL     OW20215   6.296   6.529   3.619  0.2096 -0.0910 -0.2653
 6439SOL    HW120216   6.321   6.563   3.710 -0.6229 -0.1101 -0.0193
 6439SOL    HW220217   6.294   6.429   3.620  1.3604 -0.1304 -0.6330
 6440SOL     OW20218   2.676   1.107   5.498 -0.0583 -0.3758  1.7256
 6440SOL    HW120219   2.665   1.184   5.561  1.4880 -0.5810  2.2978
 6440SOL    HW220220   2.770   1.073   5.504 -0.5532 -1.9344  1.0453
 6441SOL     OW20221   0.515   3.644   6.847 -0.2315 -0.3681  0.3365
 6441SOL    HW120222   0.508   3.739   6.819  1.2994 -0.2775  0.1840
 6441SOL    HW220223   0.534   3.587   6.766  1.6706 -0.4272  0.7945
 6442SOL     OW20224   1.901   2.243   3.338 -0.0551  0.7507 -0.1850
 6442SOL    HW120225   1.999   2.222   3.339  0.2871  2.2248  0.9372
 6442SOL    HW220226   1.849   2.162   3.365  0.9016  0.1771 -0.0307
 6443SOL     OW20227   1.361   2.465   6.178 -0.0127  0.3036  0.0443
 6443SOL    HW120228   1.297   2.419   6.116 -0.4781  1.9911 -0.7888
 6443SOL    HW220229   1.454   2.437   6.157 -0.3758 -1.7898  0.9238
 6444SOL     OW20230   0.156   3.069   4.820  0.9395  0.1779  0.5400
 6444SOL    HW120231   0.175   2.983   4.774  1.3680 -0.3187  1.6115
 6444SOL    HW220232   0.091   3.123   4.766  2.1165  0.0400 -1.1109
 6445SOL     OW20233   3.682   3.447   1.980 -0.1488 -0.3027  0.4438
 6445SOL    HW120234   3.588   3.414   1.970 -0.6685  1.5852 -1.5966
 6445SOL    HW220235   3.743   3.390   1.925 -0.9418  1.4477 -2.4843
 6446SOL     OW20236   0.861   1.299   1.855  0.0349 -0.2463 -0.0860
 6446SOL    HW120237   0.954   1.333   1.866 -0.2169  0.3772  0.1639
 6446SOL    HW220238   0.797   1.362   1.900 -0.6001 -0.1099 -1.1366
 6447SOL     OW20239   6.190   5.112   0.913  0.5794 -0.1333  0.4174
 6447SOL    HW120240   6.118   5.077   0.973 -0.4226 -1.0862 -1.2641
 6447SOL    HW220241   6.251   5.171   0.965 -0.6320 -0.3796  2.1994
 6448SOL     OW20242   3.009   4.743   1.520  0.9601  0.1227  0.1457
 6448SOL    HW120243   2.921   4.703   1.545  0.9296 -0.0740 -0.2683
 6448SOL    HW220244   3.055   4.683   1.454  0.5776  1.1324 -1.0898
 6449SOL     OW20245   4.656   6.541   1.359 -0.0272  0.2454  0.0269
 6449SOL    HW120246   4.557   6.533   1.369  0.2197 -0.5590  2.4341
 6449SOL    HW220247   4.691   6.462   1.309 -0.2593 -1.4801  2.4247
 6450SOL     OW20248   5.652   5.144   6.368 -0.3412  0.0261  0.1410
 6450SOL    HW120249   5.641   5.053   6.327  0.1244 -0.1113  0.3223
 6450SOL    HW220250   5.680   5.134   6.463 -0.3672  0.3617  0.1820
 6451SOL     OW20251   4.144   2.461   1.674 -0.0708  0.2274  0.0074
 6451SOL    HW120252   4.127   2.409   1.757 -0.6500  0.8124  0.2632
 6451SOL    HW220253   4.059   2.471   1.623  0.2981 -0.1976 -0.7000
 6452SOL     OW20254   6.907   6.956   6.799 -0.4310 -0.3301 -0.1574
 6452SOL    HW120255   6.864   6.866   6.792 -0.4040 -0.3655  0.1075
 6452SOL    HW220256   6.906   6.986   6.894 -0.3072 -0.1157 -0.2229
 6453SOL     OW20257   2.172   6.874   2.787 -0.1476  0.0431  0.6446
 6453SOL    HW120258   2.222   6.888   2.702 -0.2148  2.0346  0.8962
 6453SOL    HW220259   2.232   6.828   2.854  0.5652  0.2957  0.1860
 6454SOL     OW20260   4.969   2.627   4.222  0.0980  0.2525  0.0433
 6454SOL    HW120261   5.064   2.597   4.232  1.2951  2.8604 -2.4576
 6454SOL    HW220262   4.939   2.671   4.307  0.3823 -2.2120  1.5246
 6455SOL     OW20263   6.920   2.530   4.873  0.0070  0.0960 -0.0930
 6455SOL    HW120264   6.896   2.494   4.963  1.2621 -0.5320  0.0020
 6455SOL    HW220265   6.857   2.493   4.805  0.5716 -1.3913  0.1697
 6456SOL     OW20266   1.069   2.119   2.492  0.4444 -0.0435 -0.1686
 6456SOL    HW120267   0.993   2.088   2.550 -0.4753  2.3501 -0.0092
 6456SOL    HW220268   1.152   2.128   2.547  0.2207 -0.2391  0.2084
 6457SOL     OW20269   2.735   6.303   3.578 -0.8744 -0.1871 -0.6614
 6457SOL    HW120270   2.812   6.240   3.561 -0.7606  0.0556 -1.0575
 6457SOL    HW220271   2.769   6.384   3.626 -0.5721  0.6723 -2.2848
 6458SOL     OW20272   2.423   0.899   3.989 -0.0607  0.0548  0.4199
 6458SOL    HW120273   2.470   0.816   4.018  0.6006  0.2865  0.0327
 6458SOL    HW220274   2.472   0.940   3.912 -1.3242 -0.1068 -0.4956
 6459SOL     OW20275   0.014   3.013   3.399  0.6743 -0.4222  0.0159
 6459SOL    HW120276  -0.066   2.970   3.442 -0.3690 -0.0311 -1.4708
 6459SOL    HW220277   0.061   2.945   3.342  2.0861 -0.9532  1.6976
 6460SOL     OW20278   2.596   6.607   0.427 -0.3679 -0.0015  0.5581
 6460SOL    HW120279   2.654   6.528   0.446 -1.8587 -0.7879  2.1095
 6460SOL    HW220280   2.626   6.650   0.342  0.2429 -2.4837 -0.5875
 6461SOL     OW20281   6.734   2.304   0.496  0.3838 -0.2750 -0.2306
 6461SOL    HW120282   6.722   2.383   0.555 -1.1042 -0.6846  0.0550
 6461SOL    HW220283   6.815   2.252   0.525  2.1917  1.8240 -1.2636
 6462SOL     OW20284   2.041   5.524   0.615  0.2128 -0.5750 -0.1353
 6462SOL    HW120285   2.075   5.592   0.550  0.7330 -1.3434 -0.6943
 6462SOL    HW220286   1.990   5.454   0.565  0.0429 -0.8191  0.3773
 6463SOL     OW20287   3.380   1.920   0.886 -0.5145  0.3349  0.2760
 6463SOL    HW120288   3.352   1.841   0.832 -1.1402  0.4031  0.4912
 6463SOL    HW220289   3.357   2.004   0.837 -1.0007  0.3963  0.6062
 6464SOL     OW20290   1.844   6.120   4.491 -0.6579 -0.2340 -0.4769
 6464SOL    HW120291   1.784   6.200   4.495  0.6354  0.8065 -0.9677
 6464SOL    HW220292   1.901   6.117   4.574  2.3606  1.9332 -2.2812
 6465SOL     OW20293   2.986   0.918   1.899  0.1981  0.1287  0.2445
 6465SOL    HW120294   2.985   0.834   1.953 -0.8319  0.5267  0.8503
 6465SOL    HW220295   2.896   0.960   1.900  1.0363  2.0097  1.1333
 6466SOL     OW20296   0.262   4.697   6.194 -0.2146 -0.0262  0.1045
 6466SOL    HW120297   0.287   4.717   6.100 -0.4440 -0.3016 -0.0142
 6466SOL    HW220298   0.230   4.603   6.201  1.5532 -0.6380  0.7847
 6467SOL     OW20299   2.515   3.859   5.403 -0.0462 -0.1398  0.1840
 6467SOL    HW120300   2.473   3.873   5.314 -2.0584 -1.0704  0.9170
 6467SOL    HW220301   2.524   3.761   5.421  0.2582  0.0279  1.0179
 6468SOL     OW20302   3.111   6.049   2.259 -0.0805  1.1688 -0.0332
 6468SOL    HW120303   3.019   6.024   2.287 -0.1001 -0.0346 -1.0604
 6468SOL    HW220304   3.153   5.971   2.211  1.6214  1.5455  0.7921
 6469SOL     OW20305   6.959   1.788   1.374  0.5632  0.1714  0.2503
 6469SOL    HW120306   6.946   1.748   1.465  0.8102 -0.0668  0.1809
 6469SOL    HW220307   6.886   1.757   1.313  0.8172 -0.2689  0.1653
 6470SOL     OW20308   4.332   1.727   4.700 -0.1183 -0.3000 -0.2747
 6470SOL    HW120309   4.418   1.733   4.751 -1.0753 -4.3247  2.2550
 6470SOL    HW220310   4.347   1.677   4.615 -0.1641 -3.0466  1.2257
 6471SOL     OW20311   0.513   0.601   5.997  0.7931  0.5437  0.6793
 6471SOL    HW120312   0.456   0.680   5.974  0.3585  0.4408  1.3681
 6471SOL    HW220313   0.471   0.518   5.961  0.0201  0.3615  1.9362
 6472SOL     OW20314   0.846   1.445   0.387  0.2689  0.4765  0.5353
 6472SOL    HW120315   0.773   1.458   0.454 -0.7253  0.5073 -0.5258
 6472SOL    HW220316   0.846   1.350   0.356 -1.8002  1.2164 -2.1604
 6473SOL     OW20317   3.073   2.015   3.565 -0.2957 -0.0115  0.6274
 6473SOL    HW120318   3.059   2.062   3.478 -1.1194  0.7004  1.1217
 6473SOL    HW220319   3.007   1.941   3.574 -0.2975 -0.0026  0.6921
 6474SOL     OW20320   3.466   0.483   4.874  0.1025 -0.0197 -0.1178
 6474SOL    HW120321   3.521   0.410   4.915 -0.8946 -0.4892  0.4188
 6474SOL    HW220322   3.511   0.516   4.791  0.2944 -1.6397 -0.6902
 6475SOL     OW20323   6.184   6.919   1.657 -0.0949 -0.0283 -0.1576
 6475SOL    HW120324   6.242   6.971   1.720  0.1502 -1.2592  0.6765
 6475SOL    HW220325   6.138   6.846   1.708 -0.7983 -0.3318 -1.2063
 6476SOL     OW20326   4.949   2.876   0.028  0.2655  0.1583  0.6389
 6476SOL    HW120327   5.049   2.887   0.026  0.0547  2.6212  0.8313
 6476SOL    HW220328   4.908   2.953   0.077 -1.6934 -1.4192  1.6332
 6477SOL     OW20329   0.650   5.895   0.968  0.4329 -0.1328 -0.0503
 6477SOL    HW120330   0.732   5.841   0.949  0.2718 -0.5956  0.5483
 6477SOL    HW220331   0.569   5.837   0.959 -0.0261  0.7616 -2.6042
 6478SOL     OW20332   1.069   5.739   6.401 -0.4737 -0.0583  0.1796
 6478SOL    HW120333   1.081   5.735   6.302 -2.9037  0.1045 -0.1847
 6478SOL    HW220334   1.030   5.653   6.433 -1.7255  0.6582  0.6410
 6479SOL     OW20335   6.219   6.454   3.375  0.1256 -0.5822 -0.0217
 6479SOL    HW120336   6.281   6.504   3.314  0.4172 -0.8591  0.0448
 6479SOL    HW220337   6.235   6.482   3.470  0.1381 -0.6401 -0.0063
 6480SOL     OW20338   3.833   1.987   3.659  0.8362 -0.0581 -0.5838
 6480SOL    HW120339   3.863   1.900   3.697  1.6220  0.2205 -0.5548
 6480SOL    HW220340   3.865   2.063   3.716 -0.6833  0.2308 -0.0480
 6481SOL     OW20341   3.574   3.071   2.009  0.3717 -0.4084  0.2274
 6481SOL    HW120342   3.571   3.146   2.075 -0.2504 -1.1433  1.0594
 6481SOL    HW220343   3.571   2.983   2.058  1.8314 -0.9998 -0.6830
 6482SOL     OW20344   4.193   4.090   5.312 -0.2138  0.0318 -0.3306
 6482SOL    HW120345   4.141   4.173   5.294 -0.3260 -0.3460 -1.8973
 6482SOL    HW220346   4.130   4.012   5.321 -0.1268  0.1172  1.3482
 6483SOL     OW20347   2.299   6.786   6.957 -0.1283 -0.1662  0.0962
 6483SOL    HW120348   2.287   6.752   6.864 -1.7638  0.3917  0.0694
 6483SOL    HW220349   2.271   6.716   7.022  1.5256 -0.7524  0.2022
 6484SOL     OW20350   6.271   0.163   4.477  1.0094 -0.0055 -0.3889
 6484SOL    HW120351   6.277   0.071   4.516 -1.1109 -0.3043 -0.6619
 6484SOL    HW220352   6.221   0.223   4.539  1.6014  0.7444 -0.6142
 6485SOL     OW20353   1.935   4.836   4.288 -0.8218  0.5568 -0.6625
 6485SOL    HW120354   1.921   4.929   4.322 -0.9312 -0.1721  1.4423
 6485SOL    HW220355   1.941   4.773   4.365 -1.6155 -1.3213 -2.0536
 6486SOL     OW20356   0.914   2.848   3.300 -0.0488 -0.5276 -0.3102
 6486SOL    HW120357   0.910   2.810   3.208 -2.5666 -0.5100 -0.3023
 6486SOL    HW220358   0.979   2.924   3.303  1.4366 -1.6954 -1.5556
 6487SOL     OW20359   5.665   4.514   5.517 -0.0344 -0.0160 -0.3940
 6487SOL    HW120360   5.576   4.532   5.559 -0.3738 -0.0841 -1.0702
 6487SOL    HW220361   5.689   4.590   5.457  0.7105  0.3483  0.3473
 6488SOL     OW20362   4.934   5.113   2.640 -0.0625  0.0845  0.6559
 6488SOL    HW120363   4.941   5.045   2.713  0.8405  0.9252  1.3799
 6488SOL    HW220364   4.857   5.175   2.659 -1.8991 -1.6102 -0.8103
 6489SOL     OW20365   6.457   2.534   4.712 -0.0564  0.1659  0.6886
 6489SOL    HW120366   6.428   2.489   4.796  0.0708 -1.4339 -0.0975
 6489SOL    HW220367   6.465   2.632   4.728 -3.2344  0.3694  1.6544
 6490SOL     OW20368   0.545   4.472   0.636 -0.4804  0.5635  0.5865
 6490SOL    HW120369   0.561   4.514   0.546  3.2767 -0.6220  0.5459
 6490SOL    HW220370   0.606   4.514   0.704  0.4088 -1.8903  1.4266
 6491SOL     OW20371   3.745   0.525   2.175 -0.6902 -0.5657 -0.1241
 6491SOL    HW120372   3.684   0.493   2.247 -0.3495  0.5970  0.7157
 6491SOL    HW220373   3.838   0.494   2.194 -0.3458  0.8800  0.7317
 6492SOL     OW20374   3.832   3.310   4.589  0.5853  0.7652 -0.3802
 6492SOL    HW120375   3.743   3.307   4.544  0.6292 -1.5681 -0.4334
 6492SOL    HW220376   3.829   3.376   4.664 -0.9845  1.1823 -0.7667
 6493SOL     OW20377   1.557   5.780   4.191 -0.1166 -0.2280  0.4957
 6493SOL    HW120378   1.646   5.820   4.170 -1.0520  1.9053  0.3611
 6493SOL    HW220379   1.547   5.770   4.290  0.2691 -0.4822  0.5089
 6494SOL     OW20380   5.662   3.429   2.051 -0.2978 -0.2735 -0.6993
 6494SOL    HW120381   5.666   3.496   2.125  0.4288 -0.8837 -0.1719
 6494SOL    HW220382   5.658   3.477   1.963  0.7330  0.4769 -0.3597
 6495SOL     OW20383   6.361   6.579   4.559 -0.2056  0.7673 -0.1613
 6495SOL    HW120384   6.356   6.675   4.533 -1.7478  1.5901  2.8395
 6495SOL    HW220385   6.311   6.564   4.644 -0.2332 -2.7733 -0.6566
 6496SOL     OW20386   3.131   2.194   1.537 -0.2533  0.5238 -0.2423
 6496SOL    HW120387   3.041   2.185   1.494 -1.8697  2.8987  2.2353
 6496SOL    HW220388   3.134   2.138   1.620 -0.9902  3.0705  1.6597
 6497SOL     OW20389   1.885   3.788   0.845 -0.0989  0.2215  0.4990
 6497SOL    HW120390   1.919   3.783   0.939  0.0464  0.4882  0.4614
 6497SOL    HW220391   1.827   3.868   0.835 -0.0849  0.2137  0.3508
 6498SOL     OW20392   2.036   3.598   5.371  0.3977  1.1869  0.7589
 6498SOL    HW120393   2.083   3.662   5.310 -1.7168  2.6336  0.5557
 6498SOL    HW220394   2.044   3.629   5.466  2.3273 -0.2088  1.1177
 6499SOL     OW20395   6.576   1.926   3.206 -0.0677  0.8813  0.2574
 6499SOL    HW120396   6.647   1.860   3.234 -0.4651  0.3701  0.0873
 6499SOL    HW220397   6.617   2.016   3.194  0.5393  0.6098  0.2381
 6500SOL     OW20398   1.115   4.597   0.422 -0.0420 -0.2486  0.1389
 6500SOL    HW120399   1.095   4.565   0.329 -0.6539 -0.1238  0.2259
 6500SOL    HW220400   1.146   4.692   0.418  1.2682 -0.6532 -0.0649
 6501SOL     OW20401   3.302   6.628   2.843  0.8078 -0.1920 -0.4967
 6501SOL    HW120402   3.285   6.600   2.938 -2.3068 -0.0401 -0.8932
 6501SOL    HW220403   3.386   6.682   2.839  0.9437 -0.0470  2.2047
 6502SOL     OW20404   0.976   3.735   1.800  0.0116  0.0060 -0.4764
 6502SOL    HW120405   0.966   3.742   1.899 -1.1445  1.4796 -0.6536
 6502SOL    HW220406   0.897   3.689   1.761 -0.1774  0.5933 -0.8119
 6503SOL     OW20407   5.754   3.668   6.083  0.1697  0.1386 -0.5144
 6503SOL    HW120408   5.686   3.713   6.140 -0.4282 -0.3167 -0.8514
 6503SOL    HW220409   5.845   3.708   6.100 -0.3426  1.5301 -0.8640
 6504SOL     OW20410   4.159   5.991   6.203  0.0332  0.1264  0.0348
 6504SOL    HW120411   4.136   5.974   6.298  0.3817 -0.7205 -0.0143
 6504SOL    HW220412   4.251   6.029   6.197  2.0261 -4.1080 -0.1015
 6505SOL     OW20413   0.440   5.691   0.125 -0.3875  0.4057  0.7946
 6505SOL    HW120414   0.497   5.765   0.088 -0.2311  1.7908  3.5208
 6505SOL    HW220415   0.344   5.719   0.124 -0.2514  1.1218  2.6039
 6506SOL     OW20416   1.484   3.786   0.778  0.3328 -0.2554  0.5401
 6506SOL    HW120417   1.416   3.752   0.843 -1.3816 -0.9557 -1.5309
 6506SOL    HW220418   1.567   3.731   0.785 -0.3367 -1.2167  1.1743
 6507SOL     OW20419   3.377   4.953   0.334 -0.2039 -0.1397 -0.0791
 6507SOL    HW120420   3.416   4.889   0.268  0.1012  1.9774 -2.0827
 6507SOL    HW220421   3.440   5.030   0.346 -2.2640  1.7725 -0.8999
 6508SOL     OW20422   0.180   0.994   4.472  0.4711 -0.0507  0.0844
 6508SOL    HW120423   0.222   1.078   4.507  1.1965 -0.0442 -0.7652
 6508SOL    HW220424   0.145   0.940   4.548 -3.7584  2.8504  0.6061
 6509SOL     OW20425   1.822   1.027   1.077 -0.2364  0.0600 -0.1512
 6509SOL    HW120426   1.810   1.124   1.056  0.6108  0.6573  1.8145
 6509SOL    HW220427   1.912   0.996   1.045  1.6982  1.3591  3.4246
 6510SOL     OW20428   4.519   4.522   4.580 -0.3930  0.0926 -0.0292
 6510SOL    HW120429   4.528   4.527   4.679  0.0626 -0.6900 -0.0208
 6510SOL    HW220430   4.492   4.430   4.553  2.9876 -0.8110 -0.8164
 6511SOL     OW20431   6.386   2.475   5.636 -0.0098 -0.1772  0.6326
 6511SOL    HW120432   6.287   2.487   5.625 -0.0544 -1.1120 -0.1313
 6511SOL    HW220433   6.410   2.380   5.615  1.1669  0.2568 -0.0199
 6512SOL     OW20434   5.899   1.536   6.130  0.0876 -0.4144  0.1592
 6512SOL    HW120435   5.951   1.504   6.209 -0.7479  0.0635  0.9203
 6512SOL    HW220436   5.895   1.464   6.061  0.1466 -1.1423  0.8993
 6513SOL     OW20437   4.960   0.389   2.306 -0.8199 -0.2659  0.4796
 6513SOL    HW120438   4.947   0.430   2.216  0.6892  1.1642  0.8516
 6513SOL    HW220439   4.933   0.455   2.376 -0.2035 -0.6436  1.0874
 6514SOL     OW20440   5.178   4.809   5.797 -0.2088  0.0359  0.1896
 6514SOL    HW120441   5.189   4.723   5.746  0.7425  0.9910 -1.2928
 6514SOL    HW220442   5.084   4.842   5.784  0.1442  0.4954 -1.3771
 6515SOL     OW20443   0.243   4.350   3.324  0.1960 -0.3065  0.4078
 6515SOL    HW120444   0.236   4.329   3.422  1.1555 -0.0391  0.5428
 6515SOL    HW220445   0.152   4.346   3.283 -0.2070 -0.5209  1.2896
 6516SOL     OW20446   0.014   0.665   5.105 -0.2755 -0.4207  0.2740
 6516SOL    HW120447  -0.062   0.675   5.040 -1.1220  1.4511  1.4489
 6516SOL    HW220448   0.042   0.569   5.109 -1.1659 -0.8212 -1.7293
 6517SOL     OW20449   0.633   3.947   6.889 -0.2464 -0.0131 -0.0917
 6517SOL    HW120450   0.641   4.036   6.935  0.8738  0.1116 -0.4944
 6517SOL    HW220451   0.653   3.874   6.954 -1.1971  0.0162  0.2483
 6518SOL     OW20452   6.644   2.170   1.902  0.0272  0.0394  0.3970
 6518SOL    HW120453   6.651   2.243   1.834  1.1409 -0.0663  0.3859
 6518SOL    HW220454   6.603   2.089   1.860  0.0305  0.2147  0.0521
 6519SOL     OW20455   3.885   6.832   3.404  0.1990  0.3042 -0.1091
 6519SOL    HW120456   3.809   6.858   3.345  0.0051  0.5567  0.2583
 6519SOL    HW220457   3.958   6.900   3.396  0.4733 -0.0368 -0.6097
 6520SOL     OW20458   6.620   4.621   5.972 -0.1188  0.2719 -0.1976
 6520SOL    HW120459   6.539   4.563   5.976 -0.3962  0.5697 -1.1173
 6520SOL    HW220460   6.617   4.687   6.047 -0.6466  0.1680 -0.1222
 6521SOL     OW20461   2.436   4.198   5.309  0.2496  0.0673 -0.7419
 6521SOL    HW120462   2.532   4.206   5.335 -0.2517  0.1481  1.2434
 6521SOL    HW220463   2.419   4.108   5.269  0.9834 -0.2665 -0.3189
 6522SOL     OW20464   1.625   4.044   6.343 -0.1502  0.2711 -0.5265
 6522SOL    HW120465   1.662   4.106   6.273  0.6344  0.8441  0.3663
 6522SOL    HW220466   1.541   4.083   6.379  1.4982  2.0841  1.6522
 6523SOL     OW20467   4.496   6.824   0.258  0.0244 -0.4239 -0.3701
 6523SOL    HW120468   4.426   6.892   0.239  0.5917  0.4946  0.7060
 6523SOL    HW220469   4.478   6.741   0.204 -1.6327 -0.0585 -0.4297
 6524SOL     OW20470   3.105   1.868   0.334 -0.0036  0.2443  0.8710
 6524SOL    HW120471   3.026   1.875   0.273  0.7084 -2.5103 -0.5618
 6524SOL    HW220472   3.171   1.940   0.311 -0.8177  0.7598  0.0770
 6525SOL     OW20473   1.846   3.293   3.259 -0.4700 -0.4114 -0.0544
 6525SOL    HW120474   1.779   3.262   3.327 -0.3675 -1.1857 -0.2984
 6525SOL    HW220475   1.871   3.216   3.200  1.9090 -0.5979  1.0813
 6526SOL     OW20476   0.908   4.747   1.284  0.1326 -0.5068 -0.2658
 6526SOL    HW120477   0.825   4.701   1.316 -0.2489 -0.2189 -0.8322
 6526SOL    HW220478   0.884   4.836   1.245  0.7365 -0.3176 -0.2198
 6527SOL     OW20479   6.080   1.839   1.963 -0.1128 -0.0145 -1.0889
 6527SOL    HW120480   6.127   1.918   1.924  0.5327 -0.4605 -1.2372
 6527SOL    HW220481   6.135   1.757   1.949 -0.0781 -0.2742  0.3344
 6528SOL     OW20482   3.640   5.324   0.754  0.2212  0.4894  0.6379
 6528SOL    HW120483   3.732   5.314   0.718 -0.2190 -1.1330 -0.1287
 6528SOL    HW220484   3.574   5.288   0.688 -1.0169  2.0909  0.9489
 6529SOL     OW20485   4.322   1.453   2.079  0.0489  0.1914 -0.6735
 6529SOL    HW120486   4.290   1.359   2.089  1.0818 -0.2286 -1.1613
 6529SOL    HW220487   4.289   1.507   2.156  0.9394 -1.0032  0.6125
 6530SOL     OW20488   6.899   3.188   6.901  0.0507  0.0166  0.5912
 6530SOL    HW120489   6.815   3.229   6.938 -0.5587  0.7318 -1.4511
 6530SOL    HW220490   6.880   3.094   6.873  0.0938 -0.0050  0.6333
 6531SOL     OW20491   3.018   3.534   3.404 -0.3471 -0.0692 -0.5134
 6531SOL    HW120492   2.975   3.466   3.345 -0.4153  0.2131 -0.7903
 6531SOL    HW220493   3.112   3.550   3.375  0.8268 -2.4696  1.5454
 6532SOL     OW20494   1.107   3.883   0.273  0.4471 -0.2165 -0.1932
 6532SOL    HW120495   1.194   3.897   0.225 -1.1993  1.8144 -2.8799
 6532SOL    HW220496   1.083   3.967   0.321 -0.3374 -0.5511  0.0032
 6533SOL     OW20497   6.652   5.288   3.742 -0.5537  0.5716  0.5097
 6533SOL    HW120498   6.698   5.285   3.831  2.2019 -0.4639 -0.8436
 6533SOL    HW220499   6.614   5.198   3.721  3.3755 -0.8995 -1.4229
 6534SOL     OW20500   4.608   2.545   4.016 -0.5236  0.2900 -0.4136
 6534SOL    HW120501   4.704   2.519   4.028 -0.0119  2.4610  0.5675
 6534SOL    HW220502   4.597   2.595   3.930 -0.7014  0.3643 -0.3489
 6535SOL     OW20503   5.517   3.056   0.087 -0.3864  0.3580 -0.1278
 6535SOL    HW120504   5.514   3.039  -0.011  0.5423 -0.1669 -0.0759
 6535SOL    HW220505   5.499   2.971   0.136  2.2087 -0.1146  0.1342
 6536SOL     OW20506   0.834   6.432   5.986  0.5638 -0.4385  0.1023
 6536SOL    HW120507   0.750   6.392   5.951 -0.3929  0.2151  1.5534
 6536SOL    HW220508   0.882   6.481   5.912 -0.7598 -0.0967 -0.5521
 6537SOL     OW20509   0.613   4.263   4.813 -0.0790 -0.1365 -0.2955
 6537SOL    HW120510   0.577   4.352   4.784  0.4498  0.0766 -0.3009
 6537SOL    HW220511   0.713   4.263   4.804 -0.0514 -0.6188  0.0171
 6538SOL     OW20512   0.679   2.012   5.282 -0.1349  0.1917  0.0489
 6538SOL    HW120513   0.643   2.002   5.189  1.9996  2.1177 -1.0963
 6538SOL    HW220514   0.611   2.056   5.340 -0.5648  1.4724 -1.3651
 6539SOL     OW20515   4.002   1.282   5.410 -0.3446 -0.1419  0.0777
 6539SOL    HW120516   4.012   1.250   5.316  1.2131  0.4154  0.0236
 6539SOL    HW220517   4.082   1.257   5.463  0.0788  1.9154  0.5225
 6540SOL     OW20518   1.288   2.267   6.544 -0.2065  0.2038  0.6394
 6540SOL    HW120519   1.381   2.295   6.569 -1.1032  2.2218  2.0085
 6540SOL    HW220520   1.245   2.341   6.491 -1.1573 -0.5621  0.3246
 6541SOL     OW20521   4.971   6.913   5.281 -0.0511 -0.2788 -0.0344
 6541SOL    HW120522   5.052   6.959   5.316  0.1847  0.8935 -1.9503
 6541SOL    HW220523   4.987   6.887   5.185 -1.3559 -1.5044  0.0475
 6542SOL     OW20524   2.479   4.151   6.089 -0.0405  0.3589  0.2912
 6542SOL    HW120525   2.517   4.242   6.103 -0.8487  0.9336 -1.0230
 6542SOL    HW220526   2.379   4.155   6.094 -0.1205 -0.3014 -0.4823
 6543SOL     OW20527   3.540   0.022   3.565  0.4794  0.0707 -0.4584
 6543SOL    HW120528   3.520   0.086   3.491 -2.1936 -1.2397 -0.9627
 6543SOL    HW220529   3.530   0.069   3.653  1.5603  1.0665 -0.8345
 6544SOL     OW20530   0.959   0.791   1.132 -0.1114  1.1044 -0.2945
 6544SOL    HW120531   1.047   0.807   1.085  1.0086 -1.2247  0.8392
 6544SOL    HW220532   0.900   0.734   1.074 -0.8267  2.4952 -0.9678
 6545SOL     OW20533   4.944   6.167   0.450 -0.5992 -0.3534  0.7421
 6545SOL    HW120534   4.908   6.086   0.405  0.1948 -0.2449 -0.1233
 6545SOL    HW220535   4.971   6.234   0.381 -0.7613  0.4395  1.4316
 6546SOL     OW20536   5.397   4.319   5.514 -0.4896 -0.2339  0.2845
 6546SOL    HW120537   5.452   4.386   5.465  0.9299 -0.5815  1.3379
 6546SOL    HW220538   5.377   4.241   5.454  2.3124 -1.2590  0.5161
 6547SOL     OW20539   0.639   4.854   0.605  0.0914  0.2923  0.3218
 6547SOL    HW120540   0.710   4.826   0.541 -0.3469  2.4245 -1.1865
 6547SOL    HW220541   0.637   4.954   0.613 -0.9220  0.1805  2.4822
 6548SOL     OW20542   0.096   2.436   4.668 -0.2080 -0.0049 -0.0058
 6548SOL    HW120543   0.060   2.508   4.609  0.1609  0.5229  0.3942
 6548SOL    HW220544   0.042   2.432   4.752 -0.7615 -0.7853 -0.3940
 6549SOL     OW20545   5.167   0.683   2.116  0.2224  0.3496 -0.2321
 6549SOL    HW120546   5.169   0.735   2.030  1.6962 -0.6539 -0.8508
 6549SOL    HW220547   5.258   0.684   2.158 -0.4966  0.9059  1.4088
 6550SOL     OW20548   6.097   6.279   1.596 -0.6099 -0.6097  0.2701
 6550SOL    HW120549   6.143   6.202   1.553 -0.8736 -0.5141 -0.1955
 6550SOL    HW220550   6.054   6.336   1.526  0.2869  0.4302  0.5347
 6551SOL     OW20551   1.216   4.780   1.588 -0.3318  0.1834 -0.3166
 6551SOL    HW120552   1.170   4.721   1.522 -0.3424  1.5769 -1.6249
 6551SOL    HW220553   1.148   4.819   1.650 -0.7677  1.1016 -1.3288
 6552SOL     OW20554   2.472   4.480   6.448  0.4205 -0.3325  0.7961
 6552SOL    HW120555   2.407   4.551   6.476  1.0636  1.0880 -1.0811
 6552SOL    HW220556   2.502   4.429   6.528 -2.5367 -0.6775  1.7966
 6553SOL     OW20557   0.178   1.222   4.115 -0.1391 -0.5189 -0.3806
 6553SOL    HW120558   0.142   1.138   4.155 -0.3331 -0.8124 -1.1675
 6553SOL    HW220559   0.278   1.216   4.110 -0.1913 -0.9307 -0.9450
 6554SOL     OW20560   1.485   2.269   3.657  0.0286 -0.2272 -0.2710
 6554SOL    HW120561   1.580   2.298   3.654  0.6258 -1.8867  0.8749
 6554SOL    HW220562   1.481   2.169   3.650 -1.3216 -0.5288  3.1514
 6555SOL     OW20563   2.160   3.788   1.866 -0.0667  0.3830  0.0116
 6555SOL    HW120564   2.204   3.847   1.934 -0.8272  0.1689  0.6996
 6555SOL    HW220565   2.209   3.701   1.862 -0.0910  0.3506  0.3724
 6556SOL     OW20566   4.931   3.306   3.437 -0.0073 -0.6032  0.1167
 6556SOL    HW120567   4.876   3.246   3.495  0.2515 -0.6405  0.3260
 6556SOL    HW220568   5.020   3.322   3.480 -0.2053  0.2163  0.2213
 6557SOL     OW20569   6.965   1.163   2.238  0.1348 -0.4654 -0.1818
 6557SOL    HW120570   6.936   1.243   2.186  0.9693 -0.5482 -0.8000
 6557SOL    HW220571   6.957   1.182   2.336 -2.6015 -0.7185 -0.2664
 6558SOL     OW20572   5.189   3.921   2.393 -0.0920 -0.6550  0.0422
 6558SOL    HW120573   5.204   3.847   2.459 -1.1081  0.7391  1.9423
 6558SOL    HW220574   5.155   4.002   2.441  2.6406  1.6988 -1.6267
 6559SOL     OW20575   6.369   1.762   6.374 -0.1857 -0.4878 -0.1431
 6559SOL    HW120576   6.272   1.783   6.386 -0.0202 -0.7199  2.1245
 6559SOL    HW220577   6.423   1.846   6.383 -0.1011 -0.5439 -0.1239
 6560SOL     OW20578   1.370   0.339   6.508 -0.1208 -1.0254  0.1113
 6560SOL    HW120579   1.299   0.354   6.577 -0.9007 -0.9352 -0.7029
 6560SOL    HW220580   1.347   0.387   6.424  1.0829 -0.7048 -0.0607
 6561SOL     OW20581   0.986   6.606   0.577 -0.0719 -0.1834  0.0704
 6561SOL    HW120582   1.051   6.630   0.505 -0.6725 -1.1718 -0.8395
 6561SOL    HW220583   0.932   6.527   0.547 -1.8696  0.7663  0.6713
 6562SOL     OW20584   0.059   1.015   4.220 -0.3753  0.5620 -0.1781
 6562SOL    HW120585   0.098   0.977   4.304  1.7122  1.1978 -0.8097
 6562SOL    HW220586   0.035   0.940   4.158  0.2996  0.1620  0.0348
 6563SOL     OW20587   5.752   4.830   0.067  0.0885  0.2186 -0.1975
 6563SOL    HW120588   5.812   4.903   0.099 -0.4937  0.2720  0.8097
 6563SOL    HW220589   5.660   4.843   0.104 -0.1473 -0.7511 -0.4091
 6564SOL     OW20590   5.727   4.808   2.794 -0.0830 -0.8076 -0.4818
 6564SOL    HW120591   5.672   4.863   2.732  2.4826 -1.0895 -3.2218
 6564SOL    HW220592   5.684   4.718   2.806 -1.4816 -0.1528 -0.4151
 6565SOL     OW20593   5.357   5.707   0.499 -0.6197  0.0414 -0.6668
 6565SOL    HW120594   5.373   5.802   0.524 -0.5439 -0.5817  1.9116
 6565SOL    HW220595   5.419   5.648   0.550 -1.7512 -1.4929 -0.9900
 6566SOL     OW20596   6.049   0.075   2.873 -0.4420  0.5658 -0.3473
 6566SOL    HW120597   5.980   0.138   2.909  0.1611  0.6978  0.5921
 6566SOL    HW220598   6.013   0.031   2.791 -0.3192  3.2796 -1.9937
 6567SOL     OW20599   3.506   0.015   2.299 -0.6146 -0.1159 -0.4447
 6567SOL    HW120600   3.412   0.048   2.305 -1.1214 -1.4920 -0.5918
 6567SOL    HW220601   3.524  -0.050   2.372  0.6985  1.1944  0.4628
 6568SOL     OW20602   4.529   1.045   3.023 -0.4331 -0.1017  0.0591
 6568SOL    HW120603   4.438   1.068   3.057 -0.3206  0.6318 -0.1202
 6568SOL    HW220604   4.597   1.096   3.075  0.0408 -2.1932  1.6065
 6569SOL     OW20605   1.817   4.232   4.050 -0.2786  0.1191  0.5299
 6569SOL    HW120606   1.726   4.230   4.093 -0.0309 -0.1833  1.0396
 6569SOL    HW220607   1.872   4.304   4.092  0.2095 -0.6491  1.2301
 6570SOL     OW20608   4.696   4.685   1.510 -0.0272 -0.1522  0.2880
 6570SOL    HW120609   4.658   4.675   1.417 -2.5579 -0.3847  1.2722
 6570SOL    HW220610   4.632   4.737   1.567  1.2780 -0.3843  2.0474
 6571SOL     OW20611   3.278   6.106   3.298 -0.2237  0.3982 -0.6044
 6571SOL    HW120612   3.368   6.083   3.334  0.0996  1.7793 -0.4857
 6571SOL    HW220613   3.267   6.066   3.207 -0.2496 -1.3766  0.1425
 6572SOL     OW20614   0.791   5.242   3.849  0.0876  0.2753 -0.3434
 6572SOL    HW120615   0.882   5.266   3.815 -0.4202  0.4850 -1.6163
 6572SOL    HW220616   0.743   5.186   3.781 -0.0850 -1.3808  1.0705
 6573SOL     OW20617   0.700   0.581   2.386 -0.0016  0.2901 -0.1923
 6573SOL    HW120618   0.792   0.611   2.409  0.2122 -1.5720  1.6778
 6573SOL    HW220619   0.640   0.591   2.466 -0.4890 -1.8319 -0.2240
 6574SOL     OW20620   1.319   3.546   3.004 -0.5060 -0.1957 -0.0495
 6574SOL    HW120621   1.354   3.639   3.009 -1.2580  0.0271  1.4802
 6574SOL    HW220622   1.388   3.487   2.962 -0.0924  1.0627 -1.1929
 6575SOL     OW20623   0.717   1.132   2.637 -0.4856  0.6476 -0.1489
 6575SOL    HW120624   0.730   1.227   2.610 -1.7678  0.3169 -2.1986
 6575SOL    HW220625   0.800   1.080   2.619 -0.7666  0.7869 -2.1508
 6576SOL     OW20626   3.391   0.852   0.723  0.1243 -0.1213 -0.0283
 6576SOL    HW120627   3.374   0.771   0.667  0.2168  0.1979 -0.5318
 6576SOL    HW220628   3.483   0.886   0.704  0.0895  0.0935  0.1891
 6577SOL     OW20629   3.730   0.559   5.476 -0.0180  0.3359  0.0958
 6577SOL    HW120630   3.702   0.614   5.398 -1.6173 -0.8662 -0.2175
 6577SOL    HW220631   3.656   0.555   5.543  0.9343  0.4458  1.2071
 6578SOL     OW20632   0.413   5.284   6.396  0.0883  0.1508 -0.3362
 6578SOL    HW120633   0.386   5.380   6.392  0.1457  0.2124  0.7316
 6578SOL    HW220634   0.382   5.237   6.313  0.0821  1.0894 -0.8723
 6579SOL     OW20635   6.206   2.469   2.192 -0.1066 -0.4882 -0.1793
 6579SOL    HW120636   6.124   2.425   2.227 -0.7565  1.4967  0.9713
 6579SOL    HW220637   6.222   2.441   2.098 -1.3824 -1.8564 -0.0233
 6580SOL     OW20638   3.326   0.980   5.291  0.3800  0.0427 -0.4361
 6580SOL    HW120639   3.410   0.968   5.237  1.1015 -1.3650  0.9091
 6580SOL    HW220640   3.296   0.892   5.326 -1.0802  0.6813 -0.0001
 6581SOL     OW20641   0.692   2.879   0.144  0.5606  0.1151  0.0392
 6581SOL    HW120642   0.642   2.890   0.229  1.9397  1.9754  0.7001
 6581SOL    HW220643   0.631   2.844   0.073 -1.9355  2.9110  0.5764
 6582SOL     OW20644   5.221   1.334   2.329  0.1472  0.4059  0.0037
 6582SOL    HW120645   5.146   1.370   2.273 -1.1231 -2.3916 -0.2747
 6582SOL    HW220646   5.259   1.408   2.384 -2.2213  2.1541 -0.5074
 6583SOL     OW20647   1.871   5.440   1.808  0.0795  0.1315 -0.3915
 6583SOL    HW120648   1.821   5.379   1.746 -2.8951 -0.9438  2.7080
 6583SOL    HW220649   1.821   5.526   1.816 -0.5489 -0.3706  1.6261
 6584SOL     OW20650   4.287   3.535   5.977  0.1624  0.6634 -0.0773
 6584SOL    HW120651   4.256   3.449   6.019 -0.8209  2.5705  3.5077
 6584SOL    HW220652   4.371   3.518   5.926  0.1721 -2.3867  0.7336
 6585SOL     OW20653   5.844   1.312   1.775  0.8674  0.5431 -0.3021
 6585SOL    HW120654   5.847   1.295   1.873 -3.3549  1.7887  0.2111
 6585SOL    HW220655   5.837   1.410   1.758  0.0893  0.2708 -1.7242
 6586SOL     OW20656   6.636   2.002   0.173 -0.6999 -0.2422 -0.0704
 6586SOL    HW120657   6.656   1.941   0.251 -0.4521 -0.3909 -0.2479
 6586SOL    HW220658   6.667   1.959   0.089 -1.2411 -0.2088 -0.2866
 6587SOL     OW20659   2.803   4.651   5.340 -0.5434  0.1494  0.1656
 6587SOL    HW120660   2.743   4.703   5.279 -0.8051 -1.4582 -0.9920
 6587SOL    HW220661   2.849   4.579   5.288  3.4583  2.0913  0.6844
 6588SOL     OW20662   0.887   0.706   2.903  0.0742 -0.4163  0.1065
 6588SOL    HW120663   0.807   0.718   2.962 -0.8999 -2.7702 -0.6421
 6588SOL    HW220664   0.965   0.674   2.958  1.1033  3.2733  1.1180
 6589SOL     OW20665   6.186   1.379   1.414 -0.3077  0.0351 -0.1216
 6589SOL    HW120666   6.225   1.373   1.505 -0.4034 -1.0704 -0.1372
 6589SOL    HW220667   6.110   1.315   1.406  0.4815 -0.7906 -1.3490
 6590SOL     OW20668   2.638   6.401   5.811  0.4543 -0.4182 -0.1091
 6590SOL    HW120669   2.697   6.475   5.781  0.5227 -1.1215 -1.8245
 6590SOL    HW220670   2.543   6.431   5.810  0.4825 -0.3462 -0.7962
 6591SOL     OW20671   0.823   2.402   4.002  0.1413 -0.4023 -0.2718
 6591SOL    HW120672   0.860   2.325   4.053 -0.1140 -1.3669 -1.4935
 6591SOL    HW220673   0.898   2.461   3.971  0.3066  0.1171  1.0495
 6592SOL     OW20674   0.587   0.467   3.421 -0.2073  0.3814 -0.0626
 6592SOL    HW120675   0.596   0.375   3.458  0.3635  0.2886 -0.4256
 6592SOL    HW220676   0.563   0.530   3.495 -0.1372  0.0201  0.2703
 6593SOL     OW20677   1.077   0.563   3.035 -0.0217 -0.5754  0.2443
 6593SOL    HW120678   1.082   0.464   3.026 -1.4129 -0.5800 -0.8721
 6593SOL    HW220679   1.082   0.588   3.132 -0.0888 -1.7689  0.5673
 6594SOL     OW20680   1.919   6.647   6.585 -0.1071 -0.0878 -0.0062
 6594SOL    HW120681   1.883   6.560   6.549 -2.4986  1.4484 -1.7197
 6594SOL    HW220682   1.911   6.648   6.684  0.1205 -1.8643  0.0624
 6595SOL     OW20683   1.620   1.513   5.172 -0.2586 -0.4174  0.4482
 6595SOL    HW120684   1.619   1.613   5.177  0.9179 -0.4442  2.0282
 6595SOL    HW220685   1.546   1.482   5.111 -1.1594  1.3617  0.5574
 6596SOL     OW20686   4.233   0.986   3.429 -0.0220  0.2579  0.4717
 6596SOL    HW120687   4.314   1.023   3.383 -0.2507  0.6703  0.3990
 6596SOL    HW220688   4.190   1.058   3.484  0.2434 -0.2227  1.3385
 6597SOL     OW20689   0.916   5.798   0.931 -0.2909  0.2117 -0.8286
 6597SOL    HW120690   0.925   5.729   0.860  1.3647 -0.3343 -0.1393
 6597SOL    HW220691   0.950   5.886   0.897 -1.0391  0.3627 -1.2212
 6598SOL     OW20692   1.308   4.227   0.969 -0.0977 -0.0110  0.4490
 6598SOL    HW120693   1.278   4.164   0.897 -0.5346  1.4630 -0.7128
 6598SOL    HW220694   1.403   4.255   0.951  0.4708 -1.1505  1.5709
 6599SOL     OW20695   6.553   5.645   1.395 -0.0341 -0.0349 -0.0987
 6599SOL    HW120696   6.464   5.612   1.426  0.5901 -0.6741  1.0636
 6599SOL    HW220697   6.588   5.712   1.460  1.1403 -1.1336  0.4508
 6600SOL     OW20698   3.605   5.760   5.342 -0.1609  0.1519 -0.2998
 6600SOL    HW120699   3.639   5.843   5.386  1.8927  0.2960 -1.9972
 6600SOL    HW220700   3.682   5.702   5.316 -1.0299  0.4590 -4.2821
 6601SOL     OW20701   0.289   3.553   0.821  0.1051  0.1630 -0.2322
 6601SOL    HW120702   0.227   3.496   0.875  0.9247 -0.5396 -0.0234
 6601SOL    HW220703   0.380   3.513   0.820  0.2093  0.3748 -1.8217
 6602SOL     OW20704   6.449   5.902   3.234  0.1218  0.1620 -0.1277
 6602SOL    HW120705   6.366   5.956   3.245 -0.2648 -0.3509 -0.4663
 6602SOL    HW220706   6.509   5.916   3.313 -0.4236  0.3050  0.2669
 6603SOL     OW20707   7.021   4.944   2.984 -0.0902  0.2271  0.5972
 6603SOL    HW120708   7.030   5.007   3.061  1.5503 -1.2746  1.7097
 6603SOL    HW220709   7.033   4.994   2.899  2.1048  1.3465  1.4753
 6604SOL     OW20710   2.133   3.498   2.505  0.8151 -0.5079  0.1881
 6604SOL    HW120711   2.158   3.556   2.583  0.4160 -0.3859  0.2292
 6604SOL    HW220712   2.113   3.555   2.425 -0.3502 -0.5190  0.4430
 6605SOL     OW20713   5.563   4.655   1.577  0.2391  0.6652  0.2602
 6605SOL    HW120714   5.481   4.696   1.617 -0.8376  0.5623 -1.7292
 6605SOL    HW220715   5.536   4.586   1.510  1.9598  0.7423 -0.5547
 6606SOL     OW20716   0.188   4.919   3.970 -0.2870 -0.3096  0.5688
 6606SOL    HW120717   0.114   4.936   3.906 -0.7857 -0.3533  1.1292
 6606SOL    HW220718   0.267   4.975   3.945  0.0896 -1.5013 -1.0196
 6607SOL     OW20719   6.968   3.498   5.860 -0.4805 -0.6104  0.1409
 6607SOL    HW120720   6.917   3.435   5.801  0.1098 -1.5069  0.5719
 6607SOL    HW220721   6.993   3.579   5.808 -1.0660 -0.8205 -0.4870
 6608SOL     OW20722   1.039   2.249   0.728 -0.3374 -0.0562 -0.0078
 6608SOL    HW120723   1.053   2.180   0.798  2.3726  0.4766  0.1013
 6608SOL    HW220724   0.967   2.313   0.758  1.0251  0.4244  2.5535
 6609SOL     OW20725   3.395   2.920   5.250 -0.2889 -0.0081 -0.0397
 6609SOL    HW120726   3.415   2.955   5.158  1.7793 -0.2885  0.2468
 6609SOL    HW220727   3.349   2.832   5.243 -1.8615  0.8197 -0.7689
 6610SOL     OW20728   3.696   0.056   2.576  0.0496 -0.3739  0.3914
 6610SOL    HW120729   3.688   0.059   2.477 -1.7032  0.5207  0.5208
 6610SOL    HW220730   3.748   0.136   2.608  0.5972 -0.6525  0.2170
 6611SOL     OW20731   4.760   1.273   3.443 -0.5270 -0.4001 -0.4295
 6611SOL    HW120732   4.815   1.342   3.490  0.6390  0.1860 -2.5162
 6611SOL    HW220733   4.734   1.201   3.508  0.7114  0.5078  1.1522
 6612SOL     OW20734   0.999   5.961   6.756  0.2714 -0.1922  0.0605
 6612SOL    HW120735   0.935   5.999   6.823  0.4921  1.8112 -0.7871
 6612SOL    HW220736   0.951   5.937   6.673  0.2526 -1.1424  0.3312
 6613SOL     OW20737   3.735   6.955   6.599 -0.6425 -0.7247 -0.6401
 6613SOL    HW120738   3.827   6.920   6.618  0.4131  0.5834 -2.9876
 6613SOL    HW220739   3.697   6.994   6.683  0.5426 -2.0801  0.5886
 6614SOL     OW20740   3.944   4.427   0.742 -0.2900  0.2136 -0.5833
 6614SOL    HW120741   4.018   4.426   0.675  1.9707  1.7843  1.7245
 6614SOL    HW220742   3.908   4.520   0.750 -0.2964  0.1239  0.5729
 6615SOL     OW20743   4.328   0.066   5.977  0.3992  0.0367  0.6698
 6615SOL    HW120744   4.410   0.123   5.967  0.4509  0.3257  2.3979
 6615SOL    HW220745   4.339  -0.018   5.925  0.1346  1.7247 -2.3531
 6616SOL     OW20746   4.435   1.428   6.136 -0.2716 -0.3201  0.0746
 6616SOL    HW120747   4.393   1.421   6.227 -0.7229  0.7134 -0.0479
 6616SOL    HW220748   4.462   1.336   6.106 -1.1345 -0.8278  0.7687
 6617SOL     OW20749   3.762   2.086   4.918 -0.4813 -0.2811  0.1340
 6617SOL    HW120750   3.670   2.117   4.895 -0.1135  0.4068 -0.4677
 6617SOL    HW220751   3.758   2.017   4.989 -1.4553 -0.1710  0.1886
 6618SOL     OW20752   6.034   4.125   3.387  0.3664 -0.0090 -0.6776
 6618SOL    HW120753   6.022   4.222   3.367  0.1850  0.2545  0.6247
 6618SOL    HW220754   6.054   4.113   3.484  0.6728 -1.2583 -0.8754
 6619SOL     OW20755   5.448   4.466   4.681 -0.4891  0.4615 -0.4686
 6619SOL    HW120756   5.522   4.533   4.666 -0.4631  0.4354 -0.4583
 6619SOL    HW220757   5.479   4.376   4.651 -0.1222  0.2421  0.5443
 6620SOL     OW20758   6.632   2.193   3.122  0.5717 -0.1944 -0.2075
 6620SOL    HW120759   6.687   2.274   3.142 -0.8145  0.7876 -0.2289
 6620SOL    HW220760   6.556   2.219   3.062 -1.0945 -1.0574  1.4334
 6621SOL     OW20761   3.873   3.254   3.077  0.1777 -0.3850  0.1409
 6621SOL    HW120762   3.835   3.295   3.160  1.6146 -1.7726  1.5750
 6621SOL    HW220763   3.973   3.256   3.083  0.2932 -1.9599 -0.8196
 6622SOL     OW20764   6.248   2.807   6.951 -0.3192  0.0805  0.3350
 6622SOL    HW120765   6.153   2.780   6.968 -0.6278  0.1552 -1.1476
 6622SOL    HW220766   6.307   2.766   7.021 -1.3382 -0.5863  0.8327
 6623SOL     OW20767   3.109   3.857   3.998  0.0312  0.2022  0.2243
 6623SOL    HW120768   3.070   3.892   3.913 -1.4385 -0.6655  0.4970
 6623SOL    HW220769   3.075   3.911   4.075  0.6846  0.4609  0.3341
 6624SOL     OW20770   1.883   2.958   3.933 -0.1403 -0.0098  0.2534
 6624SOL    HW120771   1.904   3.052   3.958  2.0487 -0.3325 -0.1701
 6624SOL    HW220772   1.956   2.897   3.966 -0.2042 -1.2075 -1.6535
 6625SOL     OW20773   6.308   5.490   5.223 -0.4194 -0.4888  0.2073
 6625SOL    HW120774   6.260   5.526   5.303 -1.6696 -1.3498 -0.1234
 6625SOL    HW220775   6.372   5.559   5.189 -1.8122  0.9412  0.3514
 6626SOL     OW20776   5.182   6.367   6.555  0.0622 -0.2259  0.2193
 6626SOL    HW120777   5.222   6.383   6.646 -0.6714  0.9269  0.3679
 6626SOL    HW220778   5.255   6.342   6.491  1.4887  3.7025  0.0199
 6627SOL     OW20779   5.637   0.247   4.593  0.1323  0.3278  0.4555
 6627SOL    HW120780   5.708   0.291   4.537 -2.8916  1.1264 -3.2155
 6627SOL    HW220781   5.600   0.314   4.657  1.5935  0.3269  1.3583
 6628SOL     OW20782   4.191   5.946   2.966 -0.2601  0.3224 -0.0780
 6628SOL    HW120783   4.104   5.909   2.996  1.2381 -0.2810  4.1487
 6628SOL    HW220784   4.232   5.884   2.899 -0.9799 -2.0328  1.5331
 6629SOL     OW20785   5.214   5.570   4.471 -0.2974 -0.2716 -0.4188
 6629SOL    HW120786   5.203   5.652   4.415 -1.3553  0.0704  0.2526
 6629SOL    HW220787   5.189   5.490   4.418 -0.3650 -0.0479 -0.7275
 6630SOL     OW20788   1.173   1.224   1.292 -0.0935 -0.2534 -0.0581
 6630SOL    HW120789   1.243   1.178   1.347 -1.1670 -2.3201 -0.3062
 6630SOL    HW220790   1.212   1.252   1.205  0.6142 -0.7331  0.0942
 6631SOL     OW20791   0.536   1.196   4.544  0.4890  0.2074  0.9063
 6631SOL    HW120792   0.445   1.238   4.537  0.9792  1.0252 -1.2285
 6631SOL    HW220793   0.532   1.103   4.506  0.3176 -0.2003  1.8846
 6632SOL     OW20794   0.130   0.447   5.446 -0.0808  0.1707 -0.0431
 6632SOL    HW120795   0.214   0.393   5.451  0.4561  0.7427 -1.9498
 6632SOL    HW220796   0.151   0.543   5.460 -0.8460  0.0977  2.0266
 6633SOL     OW20797   6.644   6.202   4.580  0.1870  0.0642 -0.3492
 6633SOL    HW120798   6.729   6.242   4.614  0.4001  0.7426 -1.6079
 6633SOL    HW220799   6.591   6.272   4.533 -0.3350 -0.7054 -0.9306
 6634SOL     OW20800   0.988   3.442   5.638 -0.5211  0.6995  0.2922
 6634SOL    HW120801   1.041   3.409   5.560 -1.1839  3.5653 -1.5017
 6634SOL    HW220802   0.952   3.363   5.689  4.2690 -1.3893  0.9653
 6635SOL     OW20803   3.921   5.981   5.296  0.0682 -0.4544  0.1150
 6635SOL    HW120804   3.953   5.957   5.205  0.1986 -0.5141  0.1759
 6635SOL    HW220805   3.847   5.919   5.323  0.3016 -0.6938  0.2100
 6636SOL     OW20806   3.456   1.121   1.216 -0.8317  0.0267  0.1143
 6636SOL    HW120807   3.543   1.094   1.258 -1.6656 -0.2280  1.7436
 6636SOL    HW220808   3.471   1.139   1.118  1.2267  0.8382  0.5078
 6637SOL     OW20809   6.873   0.852   1.308 -0.1795 -0.0825 -0.3723
 6637SOL    HW120810   6.968   0.875   1.326  0.0036  1.7792 -3.1571
 6637SOL    HW220811   6.868   0.760   1.270  0.4613 -0.2842  0.0124
 6638SOL     OW20812   3.687   3.361   2.441 -0.4465  0.1382  0.0451
 6638SOL    HW120813   3.764   3.423   2.424  0.4626 -1.3017 -1.4910
 6638SOL    HW220814   3.710   3.299   2.516 -0.0488 -0.3302 -0.4517
 6639SOL     OW20815   4.534   1.860   3.051  0.0879 -0.0961 -0.3628
 6639SOL    HW120816   4.544   1.844   3.149  0.4887  1.2683 -0.1595
 6639SOL    HW220817   4.475   1.939   3.036  2.2840  1.4918 -1.0945
 6640SOL     OW20818   1.239   3.533   3.856  0.0111  0.0764 -0.0420
 6640SOL    HW120819   1.270   3.581   3.774 -1.7933  0.3459 -0.6167
 6640SOL    HW220820   1.202   3.444   3.830  0.5570 -0.3687  0.6540
 6641SOL     OW20821   5.369   1.421   5.630 -0.1308  0.7632 -0.3368
 6641SOL    HW120822   5.334   1.346   5.575 -0.5241  1.2319 -0.7385
 6641SOL    HW220823   5.325   1.421   5.720 -2.3683  2.2482 -1.3487
 6642SOL     OW20824   0.233   5.293   4.926  0.1977  0.1813 -0.2805
 6642SOL    HW120825   0.222   5.298   5.025  3.2295  2.1533  0.0823
 6642SOL    HW220826   0.157   5.342   4.882  1.9066  5.0648  1.4795
 6643SOL     OW20827   5.485   5.352   5.169 -0.3754 -0.0481  0.0534
 6643SOL    HW120828   5.475   5.368   5.071 -2.3401 -2.0952 -0.1615
 6643SOL    HW220829   5.507   5.438   5.215 -0.2190  1.1056 -2.0772
 6644SOL     OW20830   2.988   0.643   4.227 -0.2185  0.0372  0.5301
 6644SOL    HW120831   2.911   0.583   4.206 -0.2533 -0.1135  1.0947
 6644SOL    HW220832   2.985   0.723   4.167  0.8865 -1.4004 -1.5845
 6645SOL     OW20833   3.256   1.937   6.563  0.2273  0.2548  0.2011
 6645SOL    HW120834   3.269   1.869   6.634  0.9665  0.4491  0.2582
 6645SOL    HW220835   3.163   1.930   6.527  0.8606 -2.1566 -1.2043
 6646SOL     OW20836   4.128   5.847   6.780 -0.0893 -0.3894  0.4805
 6646SOL    HW120837   4.222   5.853   6.815  0.8562 -3.3314 -1.1551
 6646SOL    HW220838   4.079   5.775   6.830 -0.9447 -0.0273  0.1806
 6647SOL     OW20839   3.444   2.785   1.478  0.4054 -0.3938 -0.4685
 6647SOL    HW120840   3.442   2.855   1.550  1.3068 -0.1195 -0.6864
 6647SOL    HW220841   3.373   2.717   1.495  0.2575 -0.0412  0.3809
 6648SOL     OW20842   3.741   4.933   0.531  0.1702  0.4645 -0.3440
 6648SOL    HW120843   3.663   4.936   0.594  2.4242  0.9110  2.7038
 6648SOL    HW220844   3.770   4.838   0.520 -1.2781  0.1791 -2.2968
 6649SOL     OW20845   4.676   1.267   6.845 -0.6537 -0.3946  0.4489
 6649SOL    HW120846   4.602   1.239   6.907 -0.5922 -0.0792  0.6665
 6649SOL    HW220847   4.728   1.341   6.887  0.8201 -1.7024  1.0377
 6650SOL     OW20848   2.761   6.332   4.995  0.3429  0.5427 -0.0560
 6650SOL    HW120849   2.779   6.426   4.966 -0.7481  0.9930  0.6678
 6650SOL    HW220850   2.802   6.317   5.085 -2.2176  1.4018  1.3505
 6651SOL     OW20851   0.051   2.130   3.664 -0.1705 -0.1742  0.3640
 6651SOL    HW120852   0.089   2.037   3.655 -0.7369 -0.4014  0.2717
 6651SOL    HW220853  -0.039   2.125   3.707 -0.4188  0.2852 -0.0868
 6652SOL     OW20854   1.871   5.491   0.275 -0.0187 -0.1198 -0.5129
 6652SOL    HW120855   1.830   5.468   0.187 -0.5365 -1.2383 -0.0053
 6652SOL    HW220856   1.928   5.573   0.266  0.3549 -0.5239 -1.9931
 6653SOL     OW20857   4.296   3.178   6.248 -0.3493 -0.2439  0.6239
 6653SOL    HW120858   4.227   3.199   6.317  0.3570  1.5613  0.8568
 6653SOL    HW220859   4.269   3.216   6.160 -0.1780 -0.5159  0.4505
 6654SOL     OW20860   6.366   2.426   4.460  0.2630  0.3525 -0.3187
 6654SOL    HW120861   6.381   2.481   4.543  0.4173  0.8635 -0.6822
 6654SOL    HW220862   6.450   2.421   4.408 -0.3581  1.8646 -1.5457
 6655SOL     OW20863   5.671   4.822   1.374  0.8324 -0.0842 -0.4266
 6655SOL    HW120864   5.731   4.770   1.313  0.4234  0.5980 -1.4421
 6655SOL    HW220865   5.630   4.761   1.441  0.5790 -1.0269 -1.4108
 6656SOL     OW20866   4.442   0.950   2.206 -0.8348  0.5601 -0.2698
 6656SOL    HW120867   4.484   0.942   2.296 -0.7742  2.7195 -0.0491
 6656SOL    HW220868   4.505   0.995   2.143 -1.4250  0.4248 -0.9731
 6657SOL     OW20869   4.862   1.823   6.247  0.6174 -0.0088 -0.7255
 6657SOL    HW120870   4.928   1.880   6.198  0.4234 -0.2246 -1.2457
 6657SOL    HW220871   4.797   1.784   6.181 -0.0016  0.1677 -0.2244
 6658SOL     OW20872   6.730   6.179   5.503  0.5465  0.0279 -0.2749
 6658SOL    HW120873   6.643   6.214   5.535  0.2277 -1.1443  0.2147
 6658SOL    HW220874   6.747   6.209   5.409 -0.0801  0.7778 -0.1475
 6659SOL     OW20875   0.159   6.575   1.401 -0.7031 -0.1019  0.5938
 6659SOL    HW120876   0.221   6.554   1.325  0.6286 -0.6847  1.8096
 6659SOL    HW220877   0.180   6.517   1.479 -3.4359 -1.0300  0.7718
 6660SOL     OW20878   1.637   5.858   4.441  0.2883  0.6664 -0.1753
 6660SOL    HW120879   1.619   5.931   4.375  1.7801 -0.0416 -1.4211
 6660SOL    HW220880   1.695   5.893   4.514  1.1004  0.7310 -0.8329
 6661SOL     OW20881   4.455   6.435   4.183 -0.5164 -0.2949 -0.0730
 6661SOL    HW120882   4.362   6.466   4.164  0.2386  2.0235 -0.2847
 6661SOL    HW220883   4.519   6.478   4.118  0.9520 -0.0224  1.4777
 6662SOL     OW20884   3.620   5.161   1.447 -0.3265  0.1195 -0.4699
 6662SOL    HW120885   3.532   5.189   1.484  0.2050 -1.4317  2.3381
 6662SOL    HW220886   3.607   5.089   1.379 -1.2278 -0.4810  0.3218
 6663SOL     OW20887   3.980   5.543   5.940 -0.0341  0.5075 -0.4240
 6663SOL    HW120888   3.980   5.481   5.862  0.5030  1.0774 -0.8799
 6663SOL    HW220889   3.999   5.491   6.023  1.3609  0.1956 -0.9156
 6664SOL     OW20890   2.655   1.699   2.545  0.1332 -0.0094  0.1515
 6664SOL    HW120891   2.736   1.756   2.537  0.8436 -1.1841 -1.7789
 6664SOL    HW220892   2.598   1.710   2.463 -1.7465  0.8474  1.4836
 6665SOL     OW20893   3.248   0.904   1.133 -0.7941 -0.0825  1.0643
 6665SOL    HW120894   3.338   0.864   1.148 -0.0133  1.6649  1.3804
 6665SOL    HW220895   3.220   0.955   1.214 -0.3535  2.4676 -0.2763
 6666SOL     OW20896   3.003   6.608   6.982 -0.0632  0.0490  0.1851
 6666SOL    HW120897   2.975   6.667   6.907  1.5864 -0.0643 -0.5531
 6666SOL    HW220898   3.066   6.538   6.948  1.5109  0.6010  1.8073
 6667SOL     OW20899   1.060   3.631   0.336  0.1304  0.3716 -0.1027
 6667SOL    HW120900   1.081   3.620   0.433 -0.5467  1.0119  0.1277
 6667SOL    HW220901   1.076   3.726   0.309 -1.4607  0.6664 -0.1449
 6668SOL     OW20902   0.591   2.054   6.552 -0.8811 -0.3583  0.2056
 6668SOL    HW120903   0.553   2.065   6.644  0.3058 -1.2261  0.8203
 6668SOL    HW220904   0.631   1.963   6.543 -0.8953 -0.2565 -1.1563
 6669SOL     OW20905   2.135   2.642   3.517  0.7569  0.1426 -0.2721
 6669SOL    HW120906   2.163   2.702   3.593  1.6789  1.3660 -1.5261
 6669SOL    HW220907   2.115   2.698   3.437 -0.0748 -1.1445 -0.9893
 6670SOL     OW20908   3.263   2.471   0.848 -0.2184 -0.1140  0.1871
 6670SOL    HW120909   3.285   2.568   0.834  0.8036 -0.4726 -0.8347
 6670SOL    HW220910   3.339   2.414   0.816 -0.7611 -1.2588  0.8676
 6671SOL     OW20911   5.278   3.926   2.145  0.3287 -0.2684  0.0278
 6671SOL    HW120912   5.274   3.937   2.245  0.3210  0.7529 -0.0783
 6671SOL    HW220913   5.330   3.843   2.123  1.6838  0.3318  0.8508
 6672SOL     OW20914   2.683   3.664   0.610  0.0021  0.4338  0.3399
 6672SOL    HW120915   2.711   3.587   0.667 -0.0379  0.7404  0.7763
 6672SOL    HW220916   2.735   3.745   0.636  1.0969  0.2291 -1.0809
 6673SOL     OW20917   5.593   2.785   5.190 -0.3318 -0.5028  0.7201
 6673SOL    HW120918   5.571   2.874   5.151 -1.6602 -0.3663  1.7379
 6673SOL    HW220919   5.622   2.723   5.117  0.3762  0.6763 -0.0268
 6674SOL     OW20920   0.401   1.062   6.012  0.3147  0.4621 -0.3938
 6674SOL    HW120921   0.454   1.120   5.950 -1.6544  1.7273 -1.0087
 6674SOL    HW220922   0.360   1.118   6.084  1.9086 -0.8733  1.6743
 6675SOL     OW20923   2.502   6.764   6.366  0.2527  0.7212  0.2166
 6675SOL    HW120924   2.435   6.701   6.327  1.8255 -1.6714  1.1089
 6675SOL    HW220925   2.538   6.823   6.294 -0.9977  0.3301 -0.7623
 6676SOL     OW20926   6.630   5.047   5.262 -0.4513  0.5588  0.2387
 6676SOL    HW120927   6.632   4.980   5.187 -0.4965  0.9075 -0.0743
 6676SOL    HW220928   6.711   5.034   5.320 -0.8588 -0.2878  0.6405
 6677SOL     OW20929   5.660   2.805   6.898 -0.2572  0.1644  0.2641
 6677SOL    HW120930   5.636   2.757   6.983 -0.3311  1.7362  1.1652
 6677SOL    HW220931   5.741   2.860   6.913 -0.9665  1.4094 -0.3347
 6678SOL     OW20932   2.279   3.594   5.976 -0.2579 -0.1381  0.3449
 6678SOL    HW120933   2.223   3.593   6.058  0.3401  2.9539  0.9020
 6678SOL    HW220934   2.375   3.608   6.001  0.1747 -0.8431 -0.8203
 6679SOL     OW20935   1.752   0.442   4.029  0.1197  0.3569  0.3068
 6679SOL    HW120936   1.780   0.347   4.039 -0.2387  0.1188 -0.8329
 6679SOL    HW220937   1.824   0.502   4.063  0.8051 -0.2970  0.0209
 6680SOL     OW20938   6.272   5.362   1.080  0.4134 -0.0779 -0.6066
 6680SOL    HW120939   6.333   5.301   1.131 -1.5708 -2.8364 -1.3319
 6680SOL    HW220940   6.205   5.401   1.142  0.3779 -0.3393 -0.4788
 6681SOL     OW20941   2.303   5.207   1.575 -0.2115 -0.4675  0.0877
 6681SOL    HW120942   2.289   5.157   1.660  3.0654 -2.3872 -0.2945
 6681SOL    HW220943   2.369   5.281   1.590 -0.2516 -0.2888 -0.5927
 6682SOL     OW20944   2.647   5.225   6.730  0.2757  0.3749  0.5610
 6682SOL    HW120945   2.639   5.138   6.780  1.1712 -0.5078 -0.7758
 6682SOL    HW220946   2.704   5.288   6.783  0.1060 -0.0555  1.2756
 6683SOL     OW20947   6.375   5.971   5.460 -0.2839 -0.2533 -0.0578
 6683SOL    HW120948   6.414   6.058   5.491  0.4863 -0.6142  0.0121
 6683SOL    HW220949   6.277   5.971   5.477 -0.5362  1.1514 -1.3079
 6684SOL     OW20950   5.307   5.741   4.130  0.4223  0.5910 -0.1574
 6684SOL    HW120951   5.399   5.775   4.149  0.5037  0.9931 -1.1966
 6684SOL    HW220952   5.313   5.653   4.083  0.2573  0.3848  0.2016
 6685SOL     OW20953   3.773   2.124   0.822  0.0128  0.9478 -0.3332
 6685SOL    HW120954   3.711   2.053   0.789  0.1980  0.8006 -0.3723
 6685SOL    HW220955   3.722   2.195   0.870 -0.0117  0.0019  1.0851
 6686SOL     OW20956   5.426   5.276   6.592 -0.0714 -0.2302 -0.2306
 6686SOL    HW120957   5.520   5.302   6.614  0.3331 -0.3800 -1.6973
 6686SOL    HW220958   5.406   5.299   6.496 -1.0029 -1.6663 -0.4115
 6687SOL     OW20959   6.597   4.578   0.583 -0.1155 -0.6482 -0.3714
 6687SOL    HW120960   6.657   4.658   0.589 -2.0212  0.7666  1.4023
 6687SOL    HW220961   6.552   4.577   0.494 -2.6943  2.4252  0.7021
 6688SOL     OW20962   5.877   6.368   2.562  0.0244  0.6488 -0.3665
 6688SOL    HW120963   5.942   6.322   2.624 -1.7211 -1.4106  0.0544
 6688SOL    HW220964   5.819   6.429   2.615 -1.0913 -0.6819 -0.0031
 6689SOL     OW20965   3.540   3.455   6.756  0.0767  0.1110 -0.3106
 6689SOL    HW120966   3.531   3.547   6.719  0.3282  0.8354  1.3266
 6689SOL    HW220967   3.583   3.460   6.846  1.6031 -1.7670 -0.8795
 6690SOL     OW20968   1.326   0.467   0.365 -0.0864  0.0088  0.8051
 6690SOL    HW120969   1.349   0.543   0.305  1.0242 -1.7037 -1.0431
 6690SOL    HW220970   1.259   0.408   0.320 -0.5600 -0.4021  1.9964
 6691SOL     OW20971   2.853   2.640   1.699  0.0399 -0.5364  0.1591
 6691SOL    HW120972   2.902   2.583   1.765  2.2760  1.2456  0.1650
 6691SOL    HW220973   2.897   2.729   1.693 -2.4803  0.7449 -0.8860
 6692SOL     OW20974   4.317   0.982   2.764 -0.4997  0.1560 -0.5067
 6692SOL    HW120975   4.390   1.050   2.758 -0.2197 -0.1837 -0.9343
 6692SOL    HW220976   4.230   1.028   2.777 -0.1108  0.5409  0.9475
 6693SOL     OW20977   4.361   1.399   5.183 -0.9456  0.2199  0.5533
 6693SOL    HW120978   4.365   1.497   5.201 -1.3861  0.1874  0.8453
 6693SOL    HW220979   4.453   1.365   5.162 -0.8795  0.7992 -0.1302
 6694SOL     OW20980   4.395   4.552   1.100 -0.4556  0.1743  0.3760
 6694SOL    HW120981   4.302   4.571   1.131 -1.8618 -1.9774 -2.1624
 6694SOL    HW220982   4.426   4.464   1.138  0.4402  0.6883  0.8862
 6695SOL     OW20983   3.571   1.848   6.518 -0.1010 -0.3757 -0.2559
 6695SOL    HW120984   3.477   1.881   6.501 -0.2682 -0.9946 -0.5588
 6695SOL    HW220985   3.597   1.870   6.611 -1.9705 -3.4946  1.1706
 6696SOL     OW20986   3.575   3.239   5.085 -0.7177  0.0503  0.1857
 6696SOL    HW120987   3.485   3.241   5.041 -0.1783  2.0944 -0.9764
 6696SOL    HW220988   3.644   3.213   5.017 -0.1014  1.3987  0.2589
 6697SOL     OW20989   0.345   3.842   2.694 -0.5907  0.0059  0.1205
 6697SOL    HW120990   0.359   3.784   2.614 -1.8917  1.2040 -1.0424
 6697SOL    HW220991   0.246   3.852   2.711 -0.3765  1.0941  0.8632
 6698SOL     OW20992   2.963   4.433   0.489 -0.4949  0.0987 -0.2538
 6698SOL    HW120993   2.895   4.503   0.510  1.8660  2.9332 -1.2383
 6698SOL    HW220994   2.945   4.393   0.399 -3.1169 -2.3803  1.2053
 6699SOL     OW20995   2.618   3.487   5.708 -0.7288  0.0806 -0.1734
 6699SOL    HW120996   2.596   3.390   5.700  1.1283 -0.3806 -0.1484
 6699SOL    HW220997   2.536   3.538   5.735 -2.5955 -0.9730 -3.2964
 6700SOL     OW20998   6.819   1.108   1.185 -0.2205 -0.1606 -0.0457
 6700SOL    HW120999   6.824   1.009   1.169 -2.7971 -0.1432 -1.4360
 6700SOL    HW221000   6.821   1.126   1.283  1.6024 -1.4482  0.2097
 6701SOL     OW21001   5.680   0.146   2.731 -0.0334  0.4575 -0.5203
 6701SOL    HW121002   5.727   0.225   2.692 -0.1548 -0.0217 -1.6727
 6701SOL    HW221003   5.667   0.076   2.660  0.4923 -0.7970  0.5705
 6702SOL     OW21004   5.438   2.932   1.701  0.1665  0.0596 -0.2209
 6702SOL    HW121005   5.351   2.893   1.671 -0.5314 -0.1935  1.9486
 6702SOL    HW221006   5.512   2.899   1.642 -1.1136 -0.1844 -1.7384
 6703SOL     OW21007   0.376   1.481   1.509  0.8249 -0.1462  0.2516
 6703SOL    HW121008   0.297   1.431   1.475  0.7301 -0.6929  1.2364
 6703SOL    HW221009   0.392   1.457   1.604  2.2408 -0.1117  0.0383
 6704SOL     OW21010   4.086   0.050   3.427  0.0668  0.1457 -0.3443
 6704SOL    HW121011   4.143   0.130   3.412  0.8476  0.0101  1.6591
 6704SOL    HW221012   3.992   0.079   3.445 -0.5309  0.3833 -3.2508
 6705SOL     OW21013   6.455   5.099   2.904 -0.2502 -0.4672 -0.0798
 6705SOL    HW121014   6.369   5.150   2.895  0.1303  0.4289  1.1079
 6705SOL    HW221015   6.532   5.162   2.893  0.2279 -0.8487  0.9399
 6706SOL     OW21016   1.353   1.677   6.196  0.3992 -0.3976  0.9665
 6706SOL    HW121017   1.352   1.768   6.236 -1.1880 -0.9241  2.2227
 6706SOL    HW221018   1.266   1.631   6.215  0.2395 -1.3412 -1.6251
 6707SOL     OW21019   4.640   0.287   3.742 -0.1398 -0.6118 -0.1401
 6707SOL    HW121020   4.710   0.325   3.802 -0.6559  2.5378 -1.3394
 6707SOL    HW221021   4.592   0.213   3.789  2.4396 -1.3299  1.5321
 6708SOL     OW21022   6.058   4.363   7.023 -0.6170  0.2072 -0.0733
 6708SOL    HW121023   6.122   4.299   7.065 -1.1603 -0.4337 -0.2013
 6708SOL    HW221024   6.061   4.451   7.071 -0.5765 -0.2252  0.7274
 6709SOL     OW21025   2.226   2.011   0.792 -0.6802 -0.2761 -0.1146
 6709SOL    HW121026   2.259   1.974   0.879 -1.1847  0.1747  0.2750
 6709SOL    HW221027   2.282   1.975   0.717  0.5567  0.2895  0.5046
 6710SOL     OW21028   3.492   7.005   0.984  0.4148 -0.1928 -0.3235
 6710SOL    HW121029   3.499   7.104   0.971 -0.0596  0.1758  1.8382
 6710SOL    HW221030   3.544   6.978   1.065 -0.3754 -1.5571 -0.2320
 6711SOL     OW21031   4.308   5.618   0.151 -0.3124 -0.0531 -0.6772
 6711SOL    HW121032   4.395   5.654   0.117 -0.7653 -0.7142 -2.6394
 6711SOL    HW221033   4.311   5.518   0.153 -0.3855 -0.0616  1.1406
 6712SOL     OW21034   4.249   4.376   0.841  0.5572  0.4862  0.2852
 6712SOL    HW121035   4.263   4.319   0.760 -0.8847 -0.3050  0.5569
 6712SOL    HW221036   4.336   4.388   0.888  1.5032  1.2553 -1.5383
 6713SOL     OW21037   1.889   3.498   4.049  0.0395  0.8884 -0.1915
 6713SOL    HW121038   1.796   3.528   4.069  0.0075 -0.0548  1.2199
 6713SOL    HW221039   1.930   3.458   4.131  1.3275  0.3519 -1.0567
 6714SOL     OW21040   5.020   1.837   1.852 -0.3477 -0.0138  0.5183
 6714SOL    HW121041   5.062   1.747   1.866 -1.3647 -0.3251  1.8180
 6714SOL    HW221042   5.078   1.907   1.893 -0.2068 -0.2296  0.6909
 6715SOL     OW21043   0.104   1.906   6.507 -0.0084  0.1110  0.5251
 6715SOL    HW121044   0.105   1.943   6.414  1.4872 -1.3955 -0.1132
 6715SOL    HW221045   0.188   1.930   6.554  1.5248 -3.0853 -0.2718
 6716SOL     OW21046   2.528   5.728   2.369 -0.4819  0.2720 -0.1537
 6716SOL    HW121047   2.581   5.670   2.430  0.4315 -0.7078 -1.8173
 6716SOL    HW221048   2.430   5.717   2.388 -0.2486 -0.6611  0.5491
 6717SOL     OW21049   6.816   3.584   5.050  0.7185  0.2294  0.2492
 6717SOL    HW121050   6.829   3.683   5.057 -0.4452  0.6790 -2.4430
 6717SOL    HW221051   6.729   3.565   5.003 -0.7464 -2.1928  3.5738
 6718SOL     OW21052   5.169   3.926   1.143 -0.0824  0.9340 -0.0186
 6718SOL    HW121053   5.170   3.872   1.227  1.6747  0.8508 -0.0667
 6718SOL    HW221054   5.074   3.939   1.114 -0.6417 -0.4321  1.0595
 6719SOL     OW21055   1.529   0.756   0.478 -0.0911 -0.4300  0.0733
 6719SOL    HW121056   1.537   0.731   0.575 -2.6313  0.4894  0.6122
 6719SOL    HW221057   1.593   0.830   0.458  0.7365 -0.8808  0.9380
 6720SOL     OW21058   0.890   0.056   5.274 -0.0488 -0.6634 -0.3895
 6720SOL    HW121059   0.805   0.043   5.223  0.1433 -1.3487 -0.5374
 6720SOL    HW221060   0.882   0.138   5.332  0.2206  0.9682 -2.5272
 6721SOL     OW21061   5.166   1.316   6.060  0.2086 -0.3851 -0.0157
 6721SOL    HW121062   5.231   1.254   6.103 -0.0596 -1.4157 -1.0153
 6721SOL    HW221063   5.212   1.399   6.031  1.1116 -1.0978 -0.7050
 6722SOL     OW21064   4.562   4.652   0.888  0.0974 -0.3229  0.0810
 6722SOL    HW121065   4.538   4.559   0.916  1.5853 -0.8430 -0.3219
 6722SOL    HW221066   4.497   4.717   0.930  0.8121 -1.2622  2.8547
 6723SOL     OW21067   1.038   3.349   3.571  0.0959  0.0088 -0.4912
 6723SOL    HW121068   1.074   3.424   3.515  0.0478 -1.1844 -2.2034
 6723SOL    HW221069   1.110   3.315   3.631  0.0548  1.5468  0.4639
 6724SOL     OW21070   2.534   2.563   4.740 -0.2470 -0.3017 -0.3617
 6724SOL    HW121071   2.482   2.645   4.762  0.0452 -0.5194  1.2621
 6724SOL    HW221072   2.608   2.587   4.676 -1.1989  0.3420 -1.2532
 6725SOL     OW21073   6.569   1.784   3.567  0.4884 -0.2119  0.6952
 6725SOL    HW121074   6.654   1.735   3.552  0.5489 -0.9468  3.0155
 6725SOL    HW221075   6.493   1.719   3.575 -0.0591  0.3387  0.1175
 6726SOL     OW21076   6.255   1.142   0.946  0.6152  0.4598  0.0803
 6726SOL    HW121077   6.213   1.125   1.035 -0.6777  0.0947 -0.5772
 6726SOL    HW221078   6.193   1.197   0.890  1.7851  1.4491 -0.3046
 6727SOL     OW21079   6.971   6.920   3.389  0.1535  0.1971  0.2164
 6727SOL    HW121080   7.058   6.930   3.437  0.6404  0.1286 -0.6194
 6727SOL    HW221081   6.973   6.837   3.333 -1.2430 -0.9394  1.7645
 6728SOL     OW21082   2.809   1.432   3.831  0.0571  0.1329  0.1386
 6728SOL    HW121083   2.722   1.412   3.876 -0.7493  4.1820  0.7397
 6728SOL    HW221084   2.794   1.437   3.732 -0.2696  0.2915  0.1937
 6729SOL     OW21085   4.647   1.096   2.070  0.4002  0.0876 -0.1255
 6729SOL    HW121086   4.654   1.148   2.155 -0.8133 -0.2357  0.1842
 6729SOL    HW221087   4.667   1.156   1.992 -1.7834  1.2805  0.1535
 6730SOL     OW21088   5.937   1.920   6.465 -0.4333 -0.3359  0.1791
 6730SOL    HW121089   6.017   1.979   6.472  0.3547 -0.8145 -3.1659
 6730SOL    HW221090   5.945   1.845   6.531  0.9748  0.5520  1.0735
 6731SOL     OW21091   2.936   6.902   5.808 -0.5059 -0.2325 -0.2417
 6731SOL    HW121092   3.025   6.883   5.767  0.2672  0.3779  1.0948
 6731SOL    HW221093   2.887   6.970   5.752 -0.4707 -1.1213 -1.3855
 6732SOL     OW21094   5.711   6.034   1.000 -0.7013  0.2390 -0.2232
 6732SOL    HW121095   5.747   6.127   1.001 -1.2351  0.4498  0.7734
 6732SOL    HW221096   5.756   5.982   0.928 -1.2007  1.5775 -1.5579
 6733SOL     OW21097   5.158   5.050   6.766 -0.0760  0.0989  0.5230
 6733SOL    HW121098   5.239   5.011   6.721 -0.8248 -2.1813  1.0205
 6733SOL    HW221099   5.170   5.046   6.866 -0.9384 -0.6045  0.6086
 6734SOL     OW21100   5.690   3.131   6.014  0.2975 -0.0290 -0.2727
 6734SOL    HW121101   5.685   3.229   6.031 -0.9808 -0.0158 -0.6629
 6734SOL    HW221102   5.657   3.111   5.922  2.4935 -0.6298 -0.9898
 6735SOL     OW21103   4.515   2.065   3.841  0.8008 -0.1187 -0.2533
 6735SOL    HW121104   4.443   2.124   3.876  0.3418  0.7486 -2.4580
 6735SOL    HW221105   4.585   2.120   3.796  0.6913 -1.1714 -1.8093
 6736SOL     OW21106   3.320   3.641   0.428  0.1682 -0.4423 -0.3953
 6736SOL    HW121107   3.347   3.579   0.502  0.4288 -0.0280 -0.1390
 6736SOL    HW221108   3.390   3.711   0.416 -1.8121  2.1713  1.9419
 6737SOL     OW21109   5.139   4.363   6.402  0.1307 -0.3349  0.6441
 6737SOL    HW121110   5.200   4.432   6.442 -1.3202  0.8920  0.7994
 6737SOL    HW221111   5.157   4.355   6.304  0.0361  0.5700  0.5470
 6738SOL     OW21112   1.702   5.843   3.163 -0.0672  0.4499  0.2343
 6738SOL    HW121113   1.643   5.838   3.244 -2.4460 -2.7558 -1.4505
 6738SOL    HW221114   1.774   5.774   3.170 -0.6332 -0.2381 -0.5886
 6739SOL     OW21115   6.272   2.134   0.499 -0.5030  0.6678 -0.7475
 6739SOL    HW121116   6.365   2.119   0.533 -0.9659  1.3038  0.8731
 6739SOL    HW221117   6.210   2.069   0.542 -0.9757  0.8768 -1.1026
 6740SOL     OW21118   0.850   5.927   2.047 -0.8573  0.1140 -0.3160
 6740SOL    HW121119   0.760   5.918   2.089  0.5230  0.6100  3.1199
 6740SOL    HW221120   0.882   5.837   2.017 -0.7188 -0.9773  2.7407
 6741SOL     OW21121   2.637   7.001   6.692  0.3068 -0.1662 -0.4837
 6741SOL    HW121122   2.590   6.989   6.780  0.7631 -0.4027 -0.2665
 6741SOL    HW221123   2.656   7.098   6.677  2.1834 -0.2925  0.7312
 6742SOL     OW21124   6.999   6.177   1.841  0.2400  0.0983  0.4477
 6742SOL    HW121125   6.992   6.259   1.785 -2.9103 -1.5542 -1.8755
 6742SOL    HW221126   6.909   6.151   1.876  0.9582 -2.7221  0.5111
 6743SOL     OW21127   2.763   2.184   6.631  0.6327  0.2587 -0.7033
 6743SOL    HW121128   2.747   2.091   6.665  0.3141  0.9983  1.3551
 6743SOL    HW221129   2.821   2.181   6.550  2.1023 -1.6394  0.3389
 6744SOL     OW21130   0.910   6.639   5.361 -0.4825  0.4331  0.1474
 6744SOL    HW121131   1.001   6.678   5.350 -0.8624  0.9108 -1.5718
 6744SOL    HW221132   0.917   6.543   5.386  0.5138  0.0290 -1.5775
 6745SOL     OW21133   6.349   4.046   5.619  0.1745 -0.4426  0.0047
 6745SOL    HW121134   6.330   4.144   5.618  2.1299  0.2524  4.9377
 6745SOL    HW221135   6.446   4.030   5.604 -0.0135 -1.5901 -0.1076
 6746SOL     OW21136   1.858   1.256   1.750  0.0266 -0.4308  0.1130
 6746SOL    HW121137   1.919   1.335   1.763 -0.7053  0.0529  0.6952
 6746SOL    HW221138   1.817   1.261   1.658 -0.8260  0.4602  0.5220
 6747SOL     OW21139   2.519   6.760   5.374 -0.0055  0.3981  0.4207
 6747SOL    HW121140   2.612   6.725   5.359 -0.6994 -0.4043 -2.8943
 6747SOL    HW221141   2.523   6.856   5.401  1.8384  1.0035 -1.6915
 6748SOL     OW21142   1.658   0.548   4.825 -0.4530  0.3595  0.6346
 6748SOL    HW121143   1.653   0.619   4.895  0.1649  1.8093 -0.7319
 6748SOL    HW221144   1.569   0.505   4.814 -1.2099  1.9205  0.4897
 6749SOL     OW21145   5.082   4.758   2.070 -0.6832  0.0598 -0.3727
 6749SOL    HW121146   5.178   4.752   2.098 -1.3404  0.2008  2.1017
 6749SOL    HW221147   5.059   4.679   2.013  0.0722 -1.8063  1.7738
 6750SOL     OW21148   4.173   1.207   6.276  0.0028  0.7950  0.0995
 6750SOL    HW121149   4.121   1.264   6.212  0.8678  2.5449  0.8992
 6750SOL    HW221150   4.253   1.257   6.308  1.6572 -1.4263 -0.2756
 6751SOL     OW21151   3.071   1.023   5.261 -0.1023  0.1594 -0.0478
 6751SOL    HW121152   3.170   1.017   5.265  0.0455  2.4310  1.3836
 6751SOL    HW221153   3.044   1.107   5.214 -1.4847 -1.9449 -3.3833
 6752SOL     OW21154   2.048   4.785   0.868  0.2064  0.0874 -0.3549
 6752SOL    HW121155   2.063   4.722   0.792 -0.2477 -3.1421  2.0400
 6752SOL    HW221156   1.985   4.857   0.840 -0.0402 -1.0364 -2.9646
 6753SOL     OW21157   4.284   3.716   0.390  0.3670 -0.0263 -1.0082
 6753SOL    HW121158   4.364   3.660   0.409  1.0937  0.9145 -1.1918
 6753SOL    HW221159   4.307   3.784   0.319  0.4268  2.4029  1.1769
 6754SOL     OW21160   1.279   1.973   1.905  0.4983  0.0477  0.0133
 6754SOL    HW121161   1.332   1.991   1.823 -1.5150 -0.3227 -1.4302
 6754SOL    HW221162   1.241   1.881   1.902  1.1591 -0.3324  1.8358
 6755SOL     OW21163   3.753   5.461   5.617  0.6914  0.2394 -0.8388
 6755SOL    HW121164   3.809   5.403   5.677  0.3490  0.5832 -0.1669
 6755SOL    HW221165   3.665   5.416   5.600  0.0640  0.9253  0.4186
 6756SOL     OW21166   3.672   1.941   6.771  0.2647  0.4351  0.0230
 6756SOL    HW121167   3.696   2.019   6.828  1.8016 -0.3605  0.5057
 6756SOL    HW221168   3.748   1.876   6.770 -0.1123 -0.0277 -2.1537
 6757SOL     OW21169   5.828   6.680   1.616 -0.0299 -0.4166 -0.2552
 6757SOL    HW121170   5.817   6.583   1.594 -0.7189 -0.5134  0.4313
 6757SOL    HW221171   5.789   6.736   1.543 -0.3559 -0.6779 -0.2842
 6758SOL     OW21172   6.125   3.446   3.829 -0.4189 -0.4063 -0.1135
 6758SOL    HW121173   6.159   3.529   3.784 -2.0614 -0.3448 -1.3620
 6758SOL    HW221174   6.179   3.428   3.911  1.5020  0.5515 -1.0866
 6759SOL     OW21175   2.483   2.839   0.856  0.3778  0.4285  0.3937
 6759SOL    HW121176   2.472   2.935   0.829  1.2643  0.3179 -0.4139
 6759SOL    HW221177   2.531   2.836   0.944 -1.3254  0.7547  1.3652
 6760SOL     OW21178   3.021   1.475   4.951 -0.1216 -0.2715  0.7949
 6760SOL    HW121179   3.057   1.446   4.862  3.0115  1.4790  1.3331
 6760SOL    HW221180   3.035   1.402   5.018  2.0905  0.1278  0.8425
 6761SOL     OW21181   3.233   0.059   4.250 -0.4075  0.0318 -0.8686
 6761SOL    HW121182   3.211  -0.038   4.259 -1.8553  0.3845 -0.2942
 6761SOL    HW221183   3.328   0.074   4.277 -0.2231 -1.1891 -0.7738
 6762SOL     OW21184   4.816   6.248   4.556 -0.0962 -0.3479  0.2654
 6762SOL    HW121185   4.895   6.289   4.601  0.3408 -0.0840 -0.7235
 6762SOL    HW221186   4.840   6.157   4.523  0.2655  0.3062 -1.3318
 6763SOL     OW21187   5.839   5.612   2.167 -0.0269  0.2127  0.0650
 6763SOL    HW121188   5.916   5.653   2.118  0.3029 -1.0968 -0.5571
 6763SOL    HW221189   5.756   5.622   2.112  0.3375 -1.2289 -0.7948
 6764SOL     OW21190   6.207   5.816   1.307  0.7093 -0.0558 -0.1980
 6764SOL    HW121191   6.295   5.812   1.260  1.0332  1.4524  0.2107
 6764SOL    HW221192   6.223   5.840   1.403 -0.1244 -0.1028 -0.0456
 6765SOL     OW21193   6.239   4.746   0.511  0.2727  0.2092 -0.4902
 6765SOL    HW121194   6.282   4.717   0.425 -2.0827  0.0616 -1.6854
 6765SOL    HW221195   6.140   4.748   0.500 -0.0422  1.3078  1.9164
 6766SOL     OW21196   5.954   5.870   1.194  0.1577 -0.2633 -0.1837
 6766SOL    HW121197   6.050   5.890   1.214  0.5435 -0.0855 -2.0110
 6766SOL    HW221198   5.925   5.922   1.114 -0.2890 -3.1624 -2.0547
 6767SOL     OW21199   1.911   6.556   2.356  0.8581  0.2881 -0.2339
 6767SOL    HW121200   1.899   6.478   2.418  0.2100 -0.0110 -0.7196
 6767SOL    HW221201   1.860   6.539   2.271  1.6724  0.7172 -0.8244
 6768SOL     OW21202   1.846   0.438   0.697 -0.5190 -0.4006 -0.2358
 6768SOL    HW121203   1.824   0.460   0.602 -0.8765 -2.0627 -0.5599
 6768SOL    HW221204   1.789   0.361   0.728  0.9873 -1.1910  0.6852
 6769SOL     OW21205   5.030   2.674   1.719 -0.1770 -0.5181 -0.2679
 6769SOL    HW121206   4.995   2.711   1.805  0.3190 -0.2129 -0.1943
 6769SOL    HW221207   4.972   2.598   1.689 -0.3654 -0.6097  0.3219
 6770SOL     OW21208   1.165   2.271   1.524 -0.8484  0.2981  0.0297
 6770SOL    HW121209   1.149   2.364   1.489 -1.1121  0.3636  0.3217
 6770SOL    HW221210   1.255   2.240   1.494 -1.1075  0.3144 -0.8007
 6771SOL     OW21211   5.028   3.285   3.735 -0.2627 -0.0603 -0.8868
 6771SOL    HW121212   5.054   3.379   3.757 -1.1846  0.0239 -0.0924
 6771SOL    HW221213   5.107   3.237   3.697  0.9223  0.3327  0.9488
 6772SOL     OW21214   3.449   1.058   4.376  0.0120  0.1526 -0.2336
 6772SOL    HW121215   3.473   0.997   4.300  0.1739  1.4331 -1.2639
 6772SOL    HW221216   3.446   1.153   4.342  0.0636  0.7541  1.3713
 6773SOL     OW21217   1.480   2.311   2.070  0.3494 -0.1842  0.0848
 6773SOL    HW121218   1.385   2.279   2.067  0.2312  0.1452  0.2318
 6773SOL    HW221219   1.534   2.260   2.004  0.0507 -0.3153 -0.0628
 6774SOL     OW21220   3.361   0.958   0.371  0.0668 -0.6142 -0.2263
 6774SOL    HW121221   3.264   0.937   0.360 -0.2528 -0.2520  1.5742
 6774SOL    HW221222   3.405   0.884   0.422 -0.2390  1.1117  2.7563
 6775SOL     OW21223   1.852   3.528   6.451  0.3098  0.2552 -0.3105
 6775SOL    HW121224   1.906   3.514   6.367 -0.9435 -0.2205 -1.0588
 6775SOL    HW221225   1.762   3.488   6.440  0.0020  0.4838  1.1679
 6776SOL     OW21226   5.032   6.612   6.534 -0.4248 -0.0070 -0.6429
 6776SOL    HW121227   5.069   6.705   6.530 -0.0077 -0.1950 -2.2970
 6776SOL    HW221228   5.103   6.549   6.566 -0.6377  0.2002  0.2564
 6777SOL     OW21229   4.713   4.755   5.904 -0.4420 -0.0665 -0.8922
 6777SOL    HW121230   4.757   4.837   5.941 -0.2390  0.0229 -1.3344
 6777SOL    HW221231   4.783   4.689   5.876 -0.5998 -1.0058  0.8018
 6778SOL     OW21232   6.603   0.499   4.020  0.0218  0.2250  0.2183
 6778SOL    HW121233   6.589   0.585   3.972 -1.0870  1.2415  2.2188
 6778SOL    HW221234   6.684   0.506   4.079 -0.0170 -0.1438  0.3177
 6779SOL     OW21235   6.470   2.839   5.378 -0.6548  0.5616 -0.2667
 6779SOL    HW121236   6.553   2.880   5.340 -0.4338 -1.4466 -2.1439
 6779SOL    HW221237   6.391   2.896   5.358 -0.1151  1.0141 -1.1530
 6780SOL     OW21238   7.003   4.415   1.448  0.0213  0.7186  0.2982
 6780SOL    HW121239   6.965   4.506   1.434  1.1762  0.8369 -2.7767
 6780SOL    HW221240   7.092   4.423   1.494 -0.3113  1.0304  0.8997
 6781SOL     OW21241   6.070   5.133   4.212 -0.2744 -0.0307  0.3013
 6781SOL    HW121242   6.059   5.035   4.228 -0.1864  0.1946  1.9931
 6781SOL    HW221243   5.999   5.183   4.262  1.0794  0.8584  1.3984
 6782SOL     OW21244   4.928   1.322   2.989 -0.1625  0.0856  0.3529
 6782SOL    HW121245   4.879   1.249   3.038 -0.5201  0.3473  0.3927
 6782SOL    HW221246   4.959   1.288   2.901  0.8332 -0.5160  0.9172
 6783SOL     OW21247   1.665   5.773   5.899  0.3264 -0.3115  0.1991
 6783SOL    HW121248   1.654   5.742   5.993 -0.2039 -0.1444  0.1942
 6783SOL    HW221249   1.698   5.867   5.898  0.4573 -0.3566  0.2150
 6784SOL     OW21250   2.413   2.061   1.633  0.2755  0.5535 -0.2102
 6784SOL    HW121251   2.445   2.121   1.707 -0.0164  0.9637 -0.4072
 6784SOL    HW221252   2.486   2.000   1.605  0.2553  0.0778  0.7286
 6785SOL     OW21253   5.742   5.119   2.349  0.6271  0.1974  0.1829
 6785SOL    HW121254   5.842   5.122   2.346  0.6031  2.7420 -2.8465
 6785SOL    HW221255   5.708   5.203   2.392 -0.1825  0.3316 -0.6907
 6786SOL     OW21256   0.295   3.707   6.488 -0.1549  0.1223 -0.2556
 6786SOL    HW121257   0.325   3.745   6.401  0.3257 -0.0768 -0.1813
 6786SOL    HW221258   0.292   3.607   6.482  1.9608 -0.0473  0.5710
 6787SOL     OW21259   1.077   5.102   0.242  0.5994  0.2049  0.2777
 6787SOL    HW121260   1.011   5.069   0.175  0.0615  0.3682  0.7249
 6787SOL    HW221261   1.095   5.199   0.227  0.4358  0.2550  0.4064
 6788SOL     OW21262   4.312   5.299   6.425 -0.0497 -0.0199 -0.4014
 6788SOL    HW121263   4.367   5.339   6.352 -0.5270 -0.5241 -1.0422
 6788SOL    HW221264   4.221   5.276   6.391 -0.5829  0.5466  0.5821
 6789SOL     OW21265   1.295   4.426   3.741 -0.2911 -0.3609  0.3434
 6789SOL    HW121266   1.203   4.387   3.750 -0.1797 -0.4212  1.3771
 6789SOL    HW221267   1.288   4.522   3.715 -0.5972 -0.7098 -0.9715
 6790SOL     OW21268   0.274   2.706   0.193  0.5536 -0.0746  0.4340
 6790SOL    HW121269   0.205   2.776   0.213  0.1528  0.3685 -2.1011
 6790SOL    HW221270   0.233   2.616   0.198 -0.0302  0.1424 -0.2939
 6791SOL     OW21271   3.731   3.886   6.649  0.1251  0.3303 -0.1374
 6791SOL    HW121272   3.704   3.981   6.634 -0.4945  0.5993  2.2960
 6791SOL    HW221273   3.650   3.827   6.651  0.5461 -0.3843 -2.2054
 6792SOL     OW21274   0.341   5.001   0.053 -0.4069 -0.4512  1.1137
 6792SOL    HW121275   0.373   4.997  -0.042  0.6077 -1.7386  1.4864
 6792SOL    HW221276   0.398   5.065   0.104 -0.0294 -0.8441  1.1875
 6793SOL     OW21277   5.621   1.849   0.147  0.0393 -0.0696  0.1298
 6793SOL    HW121278   5.568   1.766   0.165 -0.4305  0.2263  0.1490
 6793SOL    HW221279   5.607   1.878   0.052 -2.7559  1.9954  1.0397
 6794SOL     OW21280   4.634   0.265   5.069 -0.1835  0.1470  0.0068
 6794SOL    HW121281   4.630   0.229   5.162 -3.6857  0.4438  0.1067
 6794SOL    HW221282   4.702   0.214   5.016  0.5391 -1.3058  2.1995
 6795SOL     OW21283   5.314   5.312   0.514  0.1179 -0.4525  0.7453
 6795SOL    HW121284   5.340   5.285   0.421  0.6726 -1.7051  1.2345
 6795SOL    HW221285   5.363   5.395   0.540 -0.1755  0.0092 -0.1353
 6796SOL     OW21286   4.093   1.942   3.809 -0.3914 -0.3076  0.3951
 6796SOL    HW121287   4.173   2.002   3.813 -2.0394  1.9456  1.2129
 6796SOL    HW221288   4.118   1.857   3.762  2.4400  0.3223  0.5747
 6797SOL     OW21289   0.410   3.701   2.489 -0.7965 -0.4862  0.2194
 6797SOL    HW121290   0.472   3.642   2.540 -0.9117 -0.4478  0.4050
 6797SOL    HW221291   0.461   3.774   2.446 -0.8605  0.2784  1.4041
 6798SOL     OW21292   6.722   0.296   1.465  0.4432 -0.3902  0.1052
 6798SOL    HW121293   6.760   0.347   1.388  2.4362 -1.2012  0.5003
 6798SOL    HW221294   6.744   0.199   1.455 -2.0751 -1.0236  0.0827
 6799SOL     OW21295   5.117   5.679   1.163 -0.4654  0.1310  0.7560
 6799SOL    HW121296   5.201   5.710   1.209 -0.3870  1.5655 -0.2771
 6799SOL    HW221297   5.130   5.586   1.129  1.0772  0.6779 -0.2355
 6800SOL     OW21298   4.076   2.110   5.691  0.1900 -0.1673 -0.2594
 6800SOL    HW121299   4.089   2.209   5.698  1.0333 -0.2351 -0.6611
 6800SOL    HW221300   4.119   2.078   5.606  0.3760 -0.9487  0.1280
 6801SOL     OW21301   2.525   1.713   0.920  0.0727 -0.1231  0.2524
 6801SOL    HW121302   2.534   1.671   0.830  2.3282 -2.0228  1.2549
 6801SOL    HW221303   2.586   1.792   0.926 -1.2132  0.9476 -0.3340
 6802SOL     OW21304   1.590   4.470   1.238  0.0790  0.1398 -0.0148
 6802SOL    HW121305   1.563   4.566   1.233  0.1948  0.1169 -1.9450
 6802SOL    HW221306   1.509   4.413   1.252  0.1650  0.5591  2.6150
 6803SOL     OW21307   4.739   1.910   1.427  0.0097  0.4482 -0.4769
 6803SOL    HW121308   4.669   1.974   1.458 -0.2708 -0.0163 -0.1291
 6803SOL    HW221309   4.700   1.818   1.422  0.8212  0.0172  0.6379
 6804SOL     OW21310   2.064   2.078   4.742 -0.1877 -0.2388 -0.3770
 6804SOL    HW121311   2.163   2.088   4.734 -0.4597  2.8361 -1.3920
 6804SOL    HW221312   2.031   2.015   4.671  1.0397 -1.6194  0.2428
 6805SOL     OW21313   6.722   2.128   4.663  0.7974 -0.1490  0.0291
 6805SOL    HW121314   6.790   2.146   4.734  0.5710  2.0941 -0.2486
 6805SOL    HW221315   6.638   2.093   4.705  1.0134  0.1728  0.7474
 6806SOL     OW21316   6.849   6.456   5.081  0.2060  0.4817 -0.0567
 6806SOL    HW121317   6.931   6.514   5.074  0.8311 -0.6007 -2.7226
 6806SOL    HW221318   6.777   6.493   5.022 -0.5962  0.4020  0.8566
 6807SOL     OW21319   2.899   1.477   5.312 -0.5763 -0.6166  0.1219
 6807SOL    HW121320   2.993   1.495   5.340 -0.3866 -2.5037  0.8231
 6807SOL    HW221321   2.860   1.560   5.271  0.9580  0.5737  0.9608
 6808SOL     OW21322   1.912   2.218   2.369 -0.2117 -0.3546 -0.0471
 6808SOL    HW121323   1.842   2.147   2.380 -0.2516 -0.3478 -0.2489
 6808SOL    HW221324   1.974   2.193   2.295 -0.1896 -0.2100 -0.0791
 6809SOL     OW21325   2.125   3.636   6.751  0.0689  0.3277  0.0184
 6809SOL    HW121326   2.174   3.621   6.665  0.1038 -0.2913  0.1401
 6809SOL    HW221327   2.086   3.728   6.752  0.8604  0.6725 -0.2648
 6810SOL     OW21328   5.366   0.523   2.544  0.2911  0.3454  0.2648
 6810SOL    HW121329   5.428   0.600   2.555  1.2948 -0.4139  0.0338
 6810SOL    HW221330   5.390   0.472   2.462  0.2371 -0.7476  0.9077
 6811SOL     OW21331   3.823   5.652   2.033 -0.1897  0.2581  0.0601
 6811SOL    HW121332   3.763   5.682   1.959  0.0709  1.5749  0.3672
 6811SOL    HW221333   3.876   5.573   2.002  0.2760  1.0896 -1.3676
 6812SOL     OW21334   2.406   3.936   1.719  0.0309 -0.4217  0.2060
 6812SOL    HW121335   2.311   3.962   1.701  0.5618  0.7157 -1.2233
 6812SOL    HW221336   2.413   3.837   1.732 -1.1560 -0.7346 -1.2797
 6813SOL     OW21337   5.498   5.497   2.207  0.0864 -0.2681  0.4611
 6813SOL    HW121338   5.414   5.546   2.181  0.3639  1.2788  2.2932
 6813SOL    HW221339   5.561   5.496   2.129 -0.5170  1.0538 -0.0698
 6814SOL     OW21340   2.153   2.226   5.501 -0.2973  0.4718 -0.2590
 6814SOL    HW121341   2.236   2.267   5.463 -0.3334  0.4861 -0.3226
 6814SOL    HW221342   2.098   2.187   5.427  0.7936 -1.6655 -0.0462
 6815SOL     OW21343   1.001   0.312   0.393 -0.3764  0.1709  0.3638
 6815SOL    HW121344   0.917   0.260   0.411 -0.4912 -0.0185 -0.6597
 6815SOL    HW221345   0.980   0.409   0.387 -0.6411  0.0659 -0.5323
 6816SOL     OW21346   6.751   3.616   3.359  0.1409  0.2377  0.0383
 6816SOL    HW121347   6.735   3.705   3.403 -0.1240  0.3479 -0.2781
 6816SOL    HW221348   6.845   3.613   3.325  0.3468  0.1507  0.6120
 6817SOL     OW21349   7.014   2.933   5.274 -0.3899  0.4903 -0.5059
 6817SOL    HW121350   7.081   2.925   5.347  0.5628 -1.1938 -1.4991
 6817SOL    HW221351   7.053   2.986   5.199 -0.0647 -0.6151 -1.1460
 6818SOL     OW21352   3.016   4.688   0.866  0.8913 -0.2395  0.4514
 6818SOL    HW121353   2.973   4.763   0.916 -0.3760 -0.1589 -0.7233
 6818SOL    HW221354   3.024   4.608   0.926 -1.3013 -0.3964  0.5999
 6819SOL     OW21355   3.698   1.940   4.596  0.2102 -0.4176 -0.1742
 6819SOL    HW121356   3.750   2.020   4.566  1.4653 -0.7550  0.9817
 6819SOL    HW221357   3.613   1.970   4.640 -0.6259  0.1435 -2.0777
 6820SOL     OW21358   1.183   5.867   5.360  0.7855 -0.2097  0.1400
 6820SOL    HW121359   1.228   5.803   5.422  2.9474  0.2434 -0.8742
 6820SOL    HW221360   1.249   5.902   5.294 -0.8982  1.1884 -0.9019
 6821SOL     OW21361   1.695   2.671   5.488 -0.3346  0.3882  0.1377
 6821SOL    HW121362   1.760   2.638   5.557 -0.8810 -1.1170 -0.0368
 6821SOL    HW221363   1.734   2.658   5.397 -0.9297 -0.6350  0.0282
 6822SOL     OW21364   4.903   1.395   6.051 -0.0033 -0.0040  0.6093
 6822SOL    HW121365   4.997   1.386   6.085  0.2928  1.2666  0.1959
 6822SOL    HW221366   4.905   1.432   5.959 -0.8963 -0.9572  0.1928
 6823SOL     OW21367   3.065   5.029   0.899  1.2428  0.4185  0.3854
 6823SOL    HW121368   3.078   5.014   0.801  3.0651  3.7806 -0.0140
 6823SOL    HW221369   3.146   4.998   0.949  0.8253 -0.1759  0.7042
 6824SOL     OW21370   1.769   5.540   5.786 -0.0352  0.1793  0.0773
 6824SOL    HW121371   1.834   5.552   5.710  0.9863  0.0873  0.9151
 6824SOL    HW221372   1.755   5.628   5.831  0.1194  0.0488  0.3813
 6825SOL     OW21373   6.272   5.073   3.442 -0.1456  0.1049  0.5167
 6825SOL    HW121374   6.306   5.163   3.471  1.6841 -0.4718  0.3042
 6825SOL    HW221375   6.227   5.082   3.353  0.4312  0.7646  0.2740
 6826SOL     OW21376   1.696   1.524   2.545 -0.0960 -0.0334 -0.0688
 6826SOL    HW121377   1.724   1.431   2.523  1.1880  0.3847 -0.2621
 6826SOL    HW221378   1.729   1.548   2.636 -0.5714  0.1718  0.0503
 6827SOL     OW21379   5.514   0.165   4.261  0.5664 -0.1853 -0.2064
 6827SOL    HW121380   5.599   0.113   4.252  1.1077  0.5622  0.4945
 6827SOL    HW221381   5.438   0.101   4.277  1.4038 -0.7386  1.8753
 6828SOL     OW21382   2.081   2.823   1.117  0.2207 -0.1872 -0.2275
 6828SOL    HW121383   2.149   2.755   1.089 -1.7799 -2.3743  0.0212
 6828SOL    HW221384   2.056   2.808   1.212 -2.1850 -0.8446 -0.9161
 6829SOL     OW21385   0.368   5.842   3.082 -0.1721  0.6602  0.1334
 6829SOL    HW121386   0.384   5.934   3.048  2.9717  0.5640  1.0203
 6829SOL    HW221387   0.396   5.837   3.178  0.1094 -1.2944 -0.0107
 6830SOL     OW21388   4.423   1.554   4.501 -0.8950 -0.0566  0.0369
 6830SOL    HW121389   4.434   1.543   4.402  0.0242  0.3779  0.0767
 6830SOL    HW221390   4.473   1.482   4.548  1.4851  1.5825  0.2141
 6831SOL     OW21391   5.511   1.040   6.459  0.4397 -0.7553 -0.0876
 6831SOL    HW121392   5.487   0.945   6.437  2.5480 -1.4889  0.4502
 6831SOL    HW221393   5.483   1.061   6.552 -3.8747  0.6597 -1.4933
 6832SOL     OW21394   3.168   5.606   2.826  0.1763  0.2035 -0.0998
 6832SOL    HW121395   3.179   5.530   2.762  0.6470 -0.1380  0.3751
 6832SOL    HW221396   3.154   5.570   2.918  1.8980  0.6722  0.3814
 6833SOL     OW21397   4.472   5.688   6.064 -0.1727 -0.3268 -1.0141
 6833SOL    HW121398   4.493   5.609   6.007 -1.3784 -0.0014 -1.9562
 6833SOL    HW221399   4.527   5.766   6.036  1.8883 -1.0840  0.6858
 6834SOL     OW21400   4.394   6.252   0.476  0.0732 -0.1308 -0.4429
 6834SOL    HW121401   4.304   6.295   0.482  0.7922  1.6044 -1.4613
 6834SOL    HW221402   4.386   6.166   0.424 -0.9894  0.0109 -0.5390
 6835SOL     OW21403   6.191   1.824   4.753 -0.3089 -0.5162  0.2891
 6835SOL    HW121404   6.121   1.759   4.782 -0.0714 -0.7681  0.3066
 6835SOL    HW221405   6.231   1.794   4.666 -1.5234  0.6112 -0.6982
 6836SOL     OW21406   3.528   6.346   0.211  0.7392 -0.7698  0.2744
 6836SOL    HW121407   3.583   6.336   0.294  1.6230  1.6423  0.0717
 6836SOL    HW221408   3.456   6.415   0.227  1.8068  0.8115 -1.3001
 6837SOL     OW21409   5.408   4.544   3.255  0.2247 -0.7404  0.2858
 6837SOL    HW121410   5.326   4.538   3.312 -0.2988  2.4411  0.0741
 6837SOL    HW221411   5.380   4.549   3.159  0.7445 -0.7832  0.1306
 6838SOL     OW21412   3.077   0.852   0.336  0.0589 -0.1403 -0.1770
 6838SOL    HW121413   2.984   0.847   0.302  0.1350  0.2587 -0.4590
 6838SOL    HW221414   3.118   0.761   0.338  0.7108 -0.0233 -3.0192
 6839SOL     OW21415   5.832   0.219   2.993  0.1135 -0.6759 -0.4528
 6839SOL    HW121416   5.774   0.189   3.069 -0.1407 -0.6268 -0.6243
 6839SOL    HW221417   5.795   0.183   2.907  0.6210 -1.0575 -0.5154
 6840SOL     OW21418   4.885   1.062   6.792 -0.1958 -0.2214 -0.6455
 6840SOL    HW121419   4.936   1.091   6.711  1.4386  1.0986  0.7778
 6840SOL    HW221420   4.824   1.136   6.821  1.0414  0.3045  0.7068
 6841SOL     OW21421   6.643   3.537   5.698 -0.6064 -0.0966  0.3893
 6841SOL    HW121422   6.620   3.599   5.623  1.4852  0.2256 -0.0568
 6841SOL    HW221423   6.568   3.472   5.712 -1.6748  0.7902 -0.9622
 6842SOL     OW21424   3.109   4.949   2.105 -0.0230  0.4360 -0.1851
 6842SOL    HW121425   3.153   4.999   2.180 -0.1935 -0.6282  0.6537
 6842SOL    HW221426   3.177   4.895   2.056 -0.0303  0.5704 -0.3447
 6843SOL     OW21427   3.251   5.383   6.811 -0.0708 -0.0638 -0.6558
 6843SOL    HW121428   3.252   5.291   6.771 -0.1335 -1.2211  1.8473
 6843SOL    HW221429   3.161   5.425   6.796 -0.4153 -0.8532 -0.8640
 6844SOL     OW21430   6.734   1.720   6.498 -0.0280  0.2812 -0.1772
 6844SOL    HW121431   6.807   1.657   6.470 -0.8350 -1.0014  0.4959
 6844SOL    HW221432   6.693   1.761   6.416 -0.3279 -1.0655 -0.7424
 6845SOL     OW21433   5.924   2.413   2.014 -0.8095  0.6253  0.4473
 6845SOL    HW121434   5.885   2.410   1.922  0.1240  0.0967  0.0537
 6845SOL    HW221435   5.889   2.336   2.067  0.2544 -0.2898 -0.1476
 6846SOL     OW21436   2.065   5.875   0.978  0.0718 -0.3506  0.4578
 6846SOL    HW121437   2.014   5.916   1.054 -0.3181  1.4792 -0.7248
 6846SOL    HW221438   2.009   5.805   0.935 -1.5043  1.5281 -0.7308
 6847SOL     OW21439   0.677   1.395   5.097 -0.0906  0.2627 -0.3334
 6847SOL    HW121440   0.596   1.336   5.101 -0.8037  1.0329 -2.3383
 6847SOL    HW221441   0.662   1.468   5.030  2.0868  0.7317 -0.3790
 6848SOL     OW21442   0.954   3.809   4.549 -0.0967  0.0835 -0.1216
 6848SOL    HW121443   0.897   3.731   4.523 -2.3908  1.4917  0.3892
 6848SOL    HW221444   0.988   3.796   4.642 -1.4821  0.1993  0.4211
 6849SOL     OW21445   2.779   5.087   4.145 -0.3819  0.0369 -0.1934
 6849SOL    HW121446   2.694   5.046   4.110  1.1534 -1.8202 -2.0242
 6849SOL    HW221447   2.844   5.014   4.168  1.8696  1.3775 -1.8915
 6850SOL     OW21448   4.660   6.677   3.138  0.0251  0.0152  0.2065
 6850SOL    HW121449   4.664   6.675   3.238 -0.4833 -2.7754  0.2520
 6850SOL    HW221450   4.565   6.675   3.109  0.1794  0.5398 -0.3467
 6851SOL     OW21451   1.202   4.625   2.601  0.1484 -0.0092  1.0797
 6851SOL    HW121452   1.159   4.565   2.534  2.5916 -0.6776  0.0119
 6851SOL    HW221453   1.224   4.573   2.683 -1.2321  0.4053  1.7560
 6852SOL     OW21454   2.585   3.456   6.555 -0.2458  0.5359 -0.1355
 6852SOL    HW121455   2.669   3.435   6.605 -0.0198  0.6959 -0.4464
 6852SOL    HW221456   2.580   3.400   6.473 -0.4042  0.5842 -0.1581
 6853SOL     OW21457   3.916   6.171   6.355 -0.1816 -0.2016  0.4460
 6853SOL    HW121458   3.967   6.086   6.363 -1.3269 -0.9073  0.3288
 6853SOL    HW221459   3.819   6.152   6.343 -0.4729  1.1215  0.4995
 6854SOL     OW21460   5.146   6.352   5.851 -0.3009 -0.7037 -0.5400
 6854SOL    HW121461   5.219   6.309   5.799  1.6586  1.7853 -0.0257
 6854SOL    HW221462   5.080   6.393   5.789 -1.0451 -2.4836 -0.9987
 6855SOL     OW21463   3.635   6.708   3.808 -0.3279  0.1524 -0.0632
 6855SOL    HW121464   3.589   6.754   3.884 -0.7221  1.0822 -0.8433
 6855SOL    HW221465   3.692   6.774   3.759 -0.2458 -0.3903 -0.7053
 6856SOL     OW21466   6.968   2.511   1.693 -0.1724 -0.0818 -0.5384
 6856SOL    HW121467   6.985   2.589   1.633  0.0195  1.1125  1.0229
 6856SOL    HW221468   7.049   2.453   1.695  0.6774  1.0858  0.3040
 6857SOL     OW21469   1.042   3.993   5.146  0.0748 -0.1583  0.1074
 6857SOL    HW121470   1.050   4.093   5.141  1.8115 -0.2370  0.5888
 6857SOL    HW221471   1.111   3.958   5.209 -1.6104 -1.5446  1.2737
 6858SOL     OW21472   2.457   4.181   1.255  0.3202  0.1339 -0.4789
 6858SOL    HW121473   2.374   4.236   1.259 -0.5745 -1.2387  0.4799
 6858SOL    HW221474   2.511   4.196   1.337 -0.2240 -0.8194  0.0782
 6859SOL     OW21475   2.212   1.556   0.276  0.1718  0.3376 -0.4952
 6859SOL    HW121476   2.221   1.547   0.177 -3.1384 -0.5317 -0.8440
 6859SOL    HW221477   2.142   1.623   0.298  0.9591  0.6504  1.3089
 6860SOL     OW21478   0.365   0.023   6.849 -0.3500  0.2062  0.2875
 6860SOL    HW121479   0.373   0.005   6.751 -1.1435 -4.4290  0.8720
 6860SOL    HW221480   0.273   0.056   6.869 -0.7981 -0.5973 -0.3661
 6861SOL     OW21481   4.191   2.310   6.196 -0.0696 -0.1369  0.6751
 6861SOL    HW121482   4.139   2.356   6.124  0.1925 -0.8285  0.0273
 6861SOL    HW221483   4.247   2.238   6.156  0.5579 -0.1288  1.5025
 6862SOL     OW21484   0.873   4.421   4.909 -0.8630  0.2146  0.6529
 6862SOL    HW121485   0.918   4.491   4.854 -2.1995 -0.4160 -1.3810
 6862SOL    HW221486   0.902   4.330   4.877  0.3953 -0.2120  2.8451
 6863SOL     OW21487   6.195   0.200   2.666  0.7955 -0.1167 -0.5912
 6863SOL    HW121488   6.133   0.161   2.734  4.4111 -0.8429  2.6615
 6863SOL    HW221489   6.211   0.133   2.593  0.9906 -1.6755  0.8137
 6864SOL     OW21490   0.661   2.451   6.750  0.3914  0.2767 -0.7039
 6864SOL    HW121491   0.748   2.474   6.707 -0.2005 -0.3835 -2.3360
 6864SOL    HW221492   0.585   2.477   6.690 -0.4484 -1.5426 -0.5134
 6865SOL     OW21493   3.172   0.726   2.733  0.5354 -0.5471  0.2267
 6865SOL    HW121494   3.209   0.772   2.813 -0.0656 -0.1277  0.2720
 6865SOL    HW221495   3.101   0.662   2.761  0.1712 -0.2392  0.0090
 6866SOL     OW21496   2.240   5.057   0.644  0.6454 -0.4585  0.4365
 6866SOL    HW121497   2.241   4.961   0.671  0.3229 -0.3002  1.0303
 6866SOL    HW221498   2.293   5.111   0.709 -0.5839  0.0047  1.0874
 6867SOL     OW21499   2.256   2.566   0.042  0.4761  0.5469 -0.1248
 6867SOL    HW121500   2.187   2.638   0.034 -0.0238  0.4058  2.0257
 6867SOL    HW221501   2.295   2.568   0.135  0.7890 -1.6305 -0.1497
 6868SOL     OW21502   4.665   5.587   2.917  0.1992 -0.1473  0.8083
 6868SOL    HW121503   4.729   5.532   2.971  0.9630 -1.0125 -0.9005
 6868SOL    HW221504   4.605   5.639   2.978  0.5384 -1.6395  2.4844
 6869SOL     OW21505   2.795   6.398   6.281 -0.2248  0.3350 -0.2919
 6869SOL    HW121506   2.846   6.391   6.195  0.9544  0.5994  0.3607
 6869SOL    HW221507   2.850   6.447   6.348 -0.5133 -1.1522  1.0764
 6870SOL     OW21508   3.855   1.633   6.190 -0.6043  0.3917 -0.4461
 6870SOL    HW121509   3.805   1.564   6.242 -1.8034  1.5180 -0.0553
 6870SOL    HW221510   3.857   1.719   6.240  0.9433  0.6541 -0.8854
 6871SOL     OW21511   6.518   4.739   2.100  0.3908  0.9563 -0.0656
 6871SOL    HW121512   6.533   4.641   2.109  1.6462  1.1171 -0.2900
 6871SOL    HW221513   6.538   4.768   2.007 -5.7319  0.5099 -2.0113
 6872SOL     OW21514   2.171   5.522   3.206 -0.0418 -0.2563 -0.7402
 6872SOL    HW121515   2.149   5.426   3.220 -0.4307 -0.1927 -0.8943
 6872SOL    HW221516   2.225   5.532   3.122  1.6264 -0.5480  0.2401
 6873SOL     OW21517   6.909   3.359   3.942 -0.3719  0.3458 -0.4116
 6873SOL    HW121518   6.939   3.321   3.854 -0.9057 -0.3602 -0.2976
 6873SOL    HW221519   6.988   3.366   4.003 -0.3265 -1.0583 -0.2712
 6874SOL     OW21520   3.258   6.779   2.188  0.3409 -0.0311 -0.0484
 6874SOL    HW121521   3.239   6.824   2.100  0.4453  3.0547  1.3629
 6874SOL    HW221522   3.356   6.775   2.203  0.2939  1.0411  0.6345
 6875SOL     OW21523   2.958   0.312   0.368 -0.0375  0.1192 -0.5835
 6875SOL    HW121524   3.023   0.372   0.322  2.3885 -1.3934  0.6883
 6875SOL    HW221525   2.929   0.353   0.454  1.8823 -0.5796  0.4508
 6876SOL     OW21526   5.114   0.160   3.995 -0.6509  0.4379  0.2684
 6876SOL    HW121527   5.028   0.113   4.016 -1.0394  1.2077  0.4699
 6876SOL    HW221528   5.181   0.142   4.066 -0.3913 -0.7583 -0.2544
 6877SOL     OW21529   0.398   6.459   0.282  0.3646 -0.4901  0.2969
 6877SOL    HW121530   0.313   6.406   0.277  0.6458 -0.8816 -0.5451
 6877SOL    HW221531   0.475   6.398   0.264  0.8594 -0.2170  1.4321
 6878SOL     OW21532   4.369   0.734   4.583  0.5478 -0.9513  0.1556
 6878SOL    HW121533   4.444   0.783   4.627  0.0082  0.2399 -0.2090
 6878SOL    HW221534   4.326   0.793   4.515 -0.3777 -1.8022 -0.0212
 6879SOL     OW21535   1.133   0.638   0.206 -0.1331 -0.4812  0.1188
 6879SOL    HW121536   1.096   0.663   0.295  0.3752 -1.1377  0.5297
 6879SOL    HW221537   1.223   0.679   0.194 -0.7882  0.7700 -0.7026
 6880SOL     OW21538   0.677   6.050   0.751  0.5030 -0.1444  0.1687
 6880SOL    HW121539   0.683   5.960   0.709 -0.3700  0.2142 -0.7873
 6880SOL    HW221540   0.705   6.045   0.847  1.6680 -1.1673 -0.2094
 6881SOL     OW21541   5.032   4.952   6.422  0.1530 -0.1233 -0.3788
 6881SOL    HW121542   4.960   5.003   6.469  0.8162  0.5634 -0.0748
 6881SOL    HW221543   5.048   4.866   6.470 -0.3663 -0.2207 -0.3714
 6882SOL     OW21544   1.224   0.178   0.523 -0.2743  0.0822  0.0558
 6882SOL    HW121545   1.137   0.224   0.504 -0.5158  0.3561  1.7313
 6882SOL    HW221546   1.264   0.213   0.608  0.4089 -1.5330  0.4477
 6883SOL     OW21547   6.436   1.119   1.357 -0.2784  0.6639  0.1699
 6883SOL    HW121548   6.473   1.209   1.380  0.0474  1.5413 -3.2655
 6883SOL    HW221549   6.509   1.051   1.358  0.2426  1.1913 -0.6572
 6884SOL     OW21550   0.148   3.708   4.260 -0.6757  0.0606  0.2548
 6884SOL    HW121551   0.082   3.743   4.193  0.5212  1.0017 -0.4774
 6884SOL    HW221552   0.101   3.689   4.346 -2.1245 -0.5374 -0.6403
 6885SOL     OW21553   6.870   4.781   5.151  0.4483 -0.4078 -0.1549
 6885SOL    HW121554   6.963   4.764   5.183 -0.1924  0.3940  2.4536
 6885SOL    HW221555   6.808   4.717   5.195 -0.6300  1.3991  1.1178
 6886SOL     OW21556   5.870   2.097   0.131  0.0479 -0.3120 -0.5768
 6886SOL    HW121557   5.784   2.095   0.080 -0.5910 -1.4386  0.4727
 6886SOL    HW221558   5.853   2.131   0.223  0.8234 -0.0852 -0.5140
 6887SOL     OW21559   4.389   5.014   0.477 -0.0734  0.2079 -0.7391
 6887SOL    HW121560   4.309   5.013   0.417  0.4876  2.6301 -1.6237
 6887SOL    HW221561   4.359   5.008   0.572 -1.0585 -2.0755 -1.1082
 6888SOL     OW21562   5.470   5.145   0.323  0.2916  0.2634  0.5086
 6888SOL    HW121563   5.530   5.106   0.394  1.3847 -0.1438 -0.5869
 6888SOL    HW221564   5.525   5.198   0.258 -0.2184 -1.4676 -1.4701
 6889SOL     OW21565   0.618   1.472   6.037  0.0524 -0.5061 -0.0382
 6889SOL    HW121566   0.522   1.451   6.021  0.3980 -2.5929  0.2776
 6889SOL    HW221567   0.669   1.466   5.951 -0.0364  0.2718 -0.1497
 6890SOL     OW21568   4.340   6.623   4.577  0.0651 -0.5938  0.0197
 6890SOL    HW121569   4.333   6.685   4.499  1.6232  0.8402  0.9701
 6890SOL    HW221570   4.432   6.584   4.581  0.2172 -0.1512  1.4717
 6891SOL     OW21571   2.542   1.993   6.134 -0.1396  0.4423 -0.5018
 6891SOL    HW121572   2.598   1.960   6.058 -0.0958  0.6625 -0.5666
 6891SOL    HW221573   2.548   2.093   6.139  0.1641  0.4033  0.0298
 6892SOL     OW21574   2.821   6.635   4.350 -0.0296 -0.1508  0.4474
 6892SOL    HW121575   2.830   6.535   4.348 -1.9633 -0.4985  3.4540
 6892SOL    HW221576   2.751   6.663   4.284 -1.2751 -1.0893  1.3346
 6893SOL     OW21577   6.068   2.928   1.709  0.1529  0.4378  0.1994
 6893SOL    HW121578   6.003   2.855   1.731 -0.4011  0.6842 -0.5351
 6893SOL    HW221579   6.025   2.990   1.643  0.9821  0.8631  0.0552
 6894SOL     OW21580   6.047   6.254   6.816 -0.0199 -0.4567 -0.3941
 6894SOL    HW121581   6.094   6.180   6.864 -0.3016 -1.0805 -1.0610
 6894SOL    HW221582   6.109   6.331   6.802  0.8114 -1.2644 -1.2591
 6895SOL     OW21583   0.821   6.025   3.664 -0.0394  0.1468 -0.1084
 6895SOL    HW121584   0.741   6.034   3.723 -0.3446 -1.5474 -0.2237
 6895SOL    HW221585   0.881   5.954   3.700 -0.6859 -1.6085 -2.2801
 6896SOL     OW21586   6.172   2.819   4.704 -0.0299  0.0485  0.7133
 6896SOL    HW121587   6.260   2.831   4.658 -0.6089  1.9966  0.0341
 6896SOL    HW221588   6.185   2.826   4.803  0.6806 -0.5465  0.6742
 6897SOL     OW21589   4.642   3.025   5.477  0.0563  0.4515  0.3417
 6897SOL    HW121590   4.596   3.060   5.395 -1.6269 -3.1230 -0.4091
 6897SOL    HW221591   4.740   3.017   5.460 -0.1344  0.7027 -0.9490
 6898SOL     OW21592   1.107   5.375   2.506 -0.8171 -0.0048  0.4281
 6898SOL    HW121593   1.174   5.426   2.453 -1.3289  0.1648 -0.0722
 6898SOL    HW221594   1.038   5.438   2.542 -0.7967 -0.1948  0.8088
 6899SOL     OW21595   6.674   2.612   2.854  0.2156 -0.0747  0.2609
 6899SOL    HW121596   6.609   2.677   2.894 -0.8742 -1.5890  1.0219
 6899SOL    HW221597   6.625   2.536   2.812  1.3540  0.7385 -2.8901
 6900SOL     OW21598   0.503   2.745   4.405 -0.0172 -0.1281  0.0069
 6900SOL    HW121599   0.547   2.802   4.474  0.1846  0.6412 -0.7413
 6900SOL    HW221600   0.561   2.666   4.385  0.1022 -0.1491  0.4338
 6901SOL     OW21601   4.914   2.832   6.514  0.4978  0.4771  0.2862
 6901SOL    HW121602   4.903   2.881   6.600 -1.3945 -0.6567  0.7190
 6901SOL    HW221603   4.975   2.754   6.527 -0.7484 -0.4034  0.9074
 6902SOL     OW21604   6.562   5.110   4.116  0.3048 -1.2906 -0.4645
 6902SOL    HW121605   6.608   5.026   4.144 -0.9035 -1.2493  1.9283
 6902SOL    HW221606   6.479   5.123   4.171 -1.0149  0.1171 -2.6022
 6903SOL     OW21607   2.491   6.719   5.113 -0.5277 -0.0285  0.3417
 6903SOL    HW121608   2.495   6.706   5.212 -0.5705 -2.6519  0.0746
 6903SOL    HW221609   2.536   6.805   5.088  0.6613  0.0345  2.5128
 6904SOL     OW21610   0.080   0.623   4.582 -0.7123 -0.0663 -0.7232
 6904SOL    HW121611   0.161   0.610   4.525  0.4484 -1.2056  1.0962
 6904SOL    HW221612   0.022   0.542   4.576 -0.7008 -0.0939 -0.4500
 6905SOL     OW21613   6.889   6.251   5.246 -0.2752 -0.6036  0.1295
 6905SOL    HW121614   6.933   6.298   5.323 -0.4286  0.4893 -0.4424
 6905SOL    HW221615   6.868   6.316   5.174 -3.7376 -0.8206  0.7361
 6906SOL     OW21616   4.164   0.038   4.014  0.0538  0.0105 -0.3720
 6906SOL    HW121617   4.079  -0.012   4.002  0.8753 -1.4891 -0.1606
 6906SOL    HW221618   4.173   0.107   3.943 -1.0852 -0.1648 -0.7009
 6907SOL     OW21619   0.645   3.710   0.533 -0.0371 -0.2972 -0.8428
 6907SOL    HW121620   0.744   3.704   0.544  0.4333  2.6608 -2.5722
 6907SOL    HW221621   0.606   3.765   0.606  0.1254  1.3665 -1.9599
 6908SOL     OW21622   3.418   5.119   6.291 -0.3712 -0.0557  0.0173
 6908SOL    HW121623   3.510   5.084   6.276 -0.3015  0.1650 -0.0804
 6908SOL    HW221624   3.405   5.142   6.387 -0.8647 -1.6106  0.3416
 6909SOL     OW21625   5.194   4.402   3.048 -0.0390  0.2417  0.2141
 6909SOL    HW121626   5.272   4.359   3.092  1.4732  2.2463 -0.3820
 6909SOL    HW221627   5.221   4.439   2.959 -1.5191  1.4840  0.2280
 6910SOL     OW21628   6.514   2.787   2.987 -0.5094  0.3567  0.6915
 6910SOL    HW121629   6.427   2.796   3.034 -0.3099  0.2989  1.0757
 6910SOL    HW221630   6.533   2.870   2.935 -1.7781 -0.4049 -1.1127
 6911SOL     OW21631   2.878   5.973   5.938  0.3451 -0.1839 -0.2822
 6911SOL    HW121632   2.872   5.891   5.882 -1.9099  0.4048 -0.9869
 6911SOL    HW221633   2.796   6.029   5.925  0.2301  0.5301  2.7814
 6912SOL     OW21634   4.459   3.566   6.510 -0.1932  0.0673  0.0045
 6912SOL    HW121635   4.370   3.557   6.556  0.9326 -0.3854  2.2123
 6912SOL    HW221636   4.532   3.535   6.571  1.4577 -0.2585 -2.0168
 6913SOL     OW21637   5.092   6.393   4.969  0.0794  0.5910 -0.8212
 6913SOL    HW121638   5.002   6.375   5.009  1.3700 -2.3765  1.0882
 6913SOL    HW221639   5.087   6.381   4.869 -1.4003 -0.7706 -0.6271
 6914SOL     OW21640   6.970   2.935   1.892 -0.5785 -0.5399  0.2535
 6914SOL    HW121641   6.907   2.905   1.820 -0.9340  0.2152  0.2371
 6914SOL    HW221642   6.945   2.892   1.978 -1.1843 -0.1854  0.2640
 6915SOL     OW21643   2.014   4.749   5.079 -0.1286  0.2054  0.3799
 6915SOL    HW121644   1.987   4.662   5.122  0.8210  0.9385  2.6209
 6915SOL    HW221645   2.091   4.733   5.018 -1.3661 -0.8373 -0.9919
 6916SOL     OW21646   5.794   0.717   0.081 -0.1680  0.9092 -0.0058
 6916SOL    HW121647   5.726   0.786   0.056  0.1061  1.6264  1.1444
 6916SOL    HW221648   5.861   0.757   0.144  1.6306  0.3629 -1.4764
 6917SOL     OW21649   3.903   6.459   0.876 -0.2720 -0.4292 -0.2577
 6917SOL    HW121650   3.843   6.482   0.799 -1.5501 -2.8239 -0.0889
 6917SOL    HW221651   3.993   6.432   0.842 -0.1869  0.4697 -0.7535
 6918SOL     OW21652   1.220   3.419   6.179  0.1489  0.2434  0.3359
 6918SOL    HW121653   1.235   3.369   6.265  0.8945 -1.0740 -0.5122
 6918SOL    HW221654   1.222   3.517   6.197 -1.3590  0.0169  2.0684
 6919SOL     OW21655   6.827   5.308   3.121  0.0396 -0.4659  0.8021
 6919SOL    HW121656   6.865   5.371   3.189  1.2467 -0.7888  0.4664
 6919SOL    HW221657   6.896   5.291   3.050 -1.1132 -0.2939 -0.3992
 6920SOL     OW21658   5.067   1.913   6.547  0.1865  0.5367 -0.3663
 6920SOL    HW121659   5.093   1.833   6.493 -0.8072 -1.6923  2.1897
 6920SOL    HW221660   4.981   1.951   6.513  0.4326  0.2338 -1.3402
 6921SOL     OW21661   3.720   0.713   2.548  0.2929  0.3747 -0.6540
 6921SOL    HW121662   3.707   0.697   2.646  1.2984  1.0670 -0.3877
 6921SOL    HW221663   3.808   0.758   2.534  0.3628 -0.1291 -1.9212
 6922SOL     OW21664   2.539   3.838   5.973 -0.0465 -0.3920 -0.0655
 6922SOL    HW121665   2.498   3.928   5.956 -0.5948 -0.7676 -0.7286
 6922SOL    HW221666   2.628   3.833   5.928 -0.2836 -0.3980 -0.5333
 6923SOL     OW21667   4.991   0.948   2.190 -0.1544 -0.0605 -0.3420
 6923SOL    HW121668   4.900   0.943   2.232 -0.4280 -0.8186 -1.0047
 6923SOL    HW221669   5.057   0.899   2.248 -0.1810  0.4013  0.0862
 6924SOL     OW21670   3.659   6.523   2.520 -0.2926 -0.4609 -0.2620
 6924SOL    HW121671   3.674   6.427   2.499  0.5302 -0.5794  0.7355
 6924SOL    HW221672   3.738   6.577   2.491  0.0071 -0.3529  0.7034
 6925SOL     OW21673   6.620   5.253   4.726 -0.5778  0.0246  0.6166
 6925SOL    HW121674   6.694   5.200   4.769 -1.0842  1.4564  3.5172
 6925SOL    HW221675   6.658   5.310   4.654  0.5004 -1.7813 -0.3332
 6926SOL     OW21676   2.528   1.426   0.517 -0.1065 -0.2722 -0.3168
 6926SOL    HW121677   2.588   1.500   0.549 -1.8991  1.6900 -1.2153
 6926SOL    HW221678   2.437   1.439   0.555 -0.6496 -1.6314 -1.0846
 6927SOL     OW21679   3.437   1.316   4.821 -0.6998 -0.2022  0.0919
 6927SOL    HW121680   3.442   1.408   4.860 -0.0286  0.6933 -1.9635
 6927SOL    HW221681   3.422   1.322   4.723  0.7120 -2.2634 -0.3253
 6928SOL     OW21682   2.428   5.791   6.967 -0.2134  0.6594 -0.4134
 6928SOL    HW121683   2.453   5.864   7.030 -1.8537 -1.6642  3.2557
 6928SOL    HW221684   2.500   5.722   6.965 -1.2041 -0.5066  1.1286
 6929SOL     OW21685   3.612   5.022   3.320  0.1436 -0.3383  0.5273
 6929SOL    HW121686   3.670   5.076   3.259  0.8725 -1.3689  0.2870
 6929SOL    HW221687   3.551   4.964   3.266  0.4333 -0.8762  0.7700
 6930SOL     OW21688   1.393   0.151   3.124 -0.4620  0.6085 -0.3263
 6930SOL    HW121689   1.327   0.176   3.194  0.9786  1.2627  0.8450
 6930SOL    HW221690   1.446   0.072   3.155  0.8837  1.5286 -0.1859
 6931SOL     OW21691   2.334   1.975   6.932  0.3635  0.3629 -0.6529
 6931SOL    HW121692   2.321   2.074   6.926  2.1833  0.7136  0.4707
 6931SOL    HW221693   2.422   1.950   6.891  0.9984 -0.4589  1.1006
 6932SOL     OW21694   4.277   0.567   6.766 -0.7864 -0.0159 -0.2997
 6932SOL    HW121695   4.218   0.563   6.685 -0.0513  0.2944 -0.8630
 6932SOL    HW221696   4.319   0.657   6.772  2.4622 -1.2621 -2.0111
 6933SOL     OW21697   2.304   5.357   4.939 -0.5329  0.3871  0.5329
 6933SOL    HW121698   2.322   5.290   5.012  1.7846  0.8865  0.5150
 6933SOL    HW221699   2.290   5.447   4.979  0.2077  0.5651  0.4071
 6934SOL     OW21700   2.578   5.708   0.370  0.3822  0.0895 -0.2033
 6934SOL    HW121701   2.663   5.759   0.367  0.6884 -0.3871  0.1877
 6934SOL    HW221702   2.512   5.755   0.429 -0.0590  1.0897 -1.4666
 6935SOL     OW21703   4.127   6.083   2.261 -0.5412  0.0322 -0.0087
 6935SOL    HW121704   4.083   5.997   2.287 -0.1312  0.1413  1.1207
 6935SOL    HW221705   4.171   6.124   2.342  0.7265  0.4510 -0.8701
 6936SOL     OW21706   1.468   1.264   6.464  0.0676 -0.1790  0.1250
 6936SOL    HW121707   1.531   1.201   6.509 -0.3130  0.2307  1.2489
 6936SOL    HW221708   1.500   1.358   6.476  0.7755 -0.1201 -1.7652
 6937SOL     OW21709   4.481   5.138   6.886 -0.3286 -0.1620 -0.0380
 6937SOL    HW121710   4.419   5.142   6.808 -2.7952 -2.7455  1.5693
 6937SOL    HW221711   4.562   5.085   6.862 -0.8402 -0.5327 -0.9836
 6938SOL     OW21712   5.936   0.693   3.153 -0.1423 -0.4434  0.0932
 6938SOL    HW121713   5.906   0.610   3.200 -3.0795 -0.4138 -1.5214
 6938SOL    HW221714   5.951   0.672   3.056 -0.2429  0.7873 -0.1946
 6939SOL     OW21715   3.964   5.886   2.437 -0.7572 -0.0166  0.3324
 6939SOL    HW121716   3.929   5.901   2.530 -0.1577 -0.5666  0.6488
 6939SOL    HW221717   4.048   5.833   2.441 -0.0956  0.9469 -0.4536
 6940SOL     OW21718   2.545   0.336   2.135  0.3529  0.2169 -0.7449
 6940SOL    HW121719   2.593   0.341   2.223  1.7901 -2.0205 -1.3310
 6940SOL    HW221720   2.460   0.284   2.147 -0.9851  2.4012 -0.1473
 6941SOL     OW21721   1.999   1.899   0.452 -0.2617 -0.2826 -0.1706
 6941SOL    HW121722   2.011   1.866   0.358  0.3296  0.8454 -0.5209
 6941SOL    HW221723   2.084   1.884   0.503  1.2061  3.3304 -1.2324
 6942SOL     OW21724   6.634   4.695   2.587  0.4215  0.4044 -0.0757
 6942SOL    HW121725   6.622   4.759   2.663 -0.2392  1.3388 -0.9605
 6942SOL    HW221726   6.616   4.602   2.620  1.0891  0.6767  1.1416
 6943SOL     OW21727   3.052   6.380   4.438 -0.5510  0.1934 -0.2457
 6943SOL    HW121728   3.121   6.309   4.449 -0.0646  0.7016 -0.0068
 6943SOL    HW221729   3.023   6.383   4.342 -1.1519 -0.8508 -0.1179
 6944SOL     OW21730   1.175   5.045   4.730 -0.7116 -0.4848 -0.3158
 6944SOL    HW121731   1.273   5.063   4.718 -0.1850 -1.9171  1.3444
 6944SOL    HW221732   1.141   5.096   4.809 -1.4876  0.5065 -1.2671
 6945SOL     OW21733   4.361   1.183   2.566 -0.3176 -0.0468  0.3838
 6945SOL    HW121734   4.364   1.270   2.615 -1.7554 -0.3093  0.9859
 6945SOL    HW221735   4.288   1.185   2.498  0.9073 -0.1067 -0.9853
 6946SOL     OW21736   0.105   1.508   2.040  0.3129 -0.0776 -0.1127
 6946SOL    HW121737   0.025   1.451   2.057 -0.4975  0.7349 -1.1093
 6946SOL    HW221738   0.188   1.456   2.061 -0.3173 -2.1620 -2.3599
 6947SOL     OW21739   5.052   3.362   4.308 -0.2956 -0.0896  0.4738
 6947SOL    HW121740   4.960   3.340   4.343 -1.5869 -1.3470 -3.2230
 6947SOL    HW221741   5.053   3.456   4.275  0.1400  0.2736  1.4754
 6948SOL     OW21742   6.074   3.403   0.068 -0.2405  0.0241  0.2200
 6948SOL    HW121743   6.095   3.496   0.097 -0.1744  0.5630 -1.4713
 6948SOL    HW221744   6.117   3.338   0.131 -1.6444  1.0947  2.3914
 6949SOL     OW21745   2.969   1.399   2.152  0.6617  0.3598  0.2800
 6949SOL    HW121746   3.045   1.454   2.187  1.8855  0.0721 -1.7299
 6949SOL    HW221747   2.909   1.457   2.097  0.3867  0.2523  0.4676
 6950SOL     OW21748   2.696   0.745   4.149 -0.0573  0.0694  0.0303
 6950SOL    HW121749   2.714   0.711   4.057 -0.3820  1.5278 -0.6062
 6950SOL    HW221750   2.745   0.832   4.162 -2.3881  1.4345  0.1304
 6951SOL     OW21751   0.281   3.598   6.012 -0.2147 -0.9575 -0.4119
 6951SOL    HW121752   0.347   3.548   5.956 -1.3961 -1.3984 -1.4544
 6951SOL    HW221753   0.211   3.534   6.044  2.2397 -1.6395  4.7052
 6952SOL     OW21754   5.728   6.734   2.530  0.0698  0.5901  0.3068
 6952SOL    HW121755   5.722   6.676   2.611 -0.5331  0.9029  0.4921
 6952SOL    HW221756   5.651   6.714   2.469  0.2285  0.7266  0.0619
 6953SOL     OW21757   0.288   2.823   0.799 -0.2506  0.5094 -0.1592
 6953SOL    HW121758   0.227   2.882   0.852 -0.1694  0.6345 -0.2019
 6953SOL    HW221759   0.330   2.877   0.725 -1.1501  0.0832 -0.9928
 6954SOL     OW21760   5.607   4.241   0.020  0.9224  0.4345  0.8126
 6954SOL    HW121761   5.561   4.314  -0.032  0.0143  0.5213  1.6985
 6954SOL    HW221762   5.683   4.280   0.072  1.1047  0.5577  0.4547
 6955SOL     OW21763   2.410   4.513   3.266 -0.4706  0.9210 -0.2885
 6955SOL    HW121764   2.454   4.490   3.353  0.1539 -1.3264 -1.1298
 6955SOL    HW221765   2.338   4.447   3.247 -0.9491  1.6993 -1.2383
 6956SOL     OW21766   6.699   6.358   1.225  0.2452 -0.4098  0.4950
 6956SOL    HW121767   6.666   6.300   1.151  0.3401 -1.2093  1.0611
 6956SOL    HW221768   6.640   6.345   1.305  0.5132 -0.0271  0.7544
 6957SOL     OW21769   6.406   5.291   3.539 -0.2079  0.5829 -0.3345
 6957SOL    HW121770   6.484   5.298   3.601 -0.7510  0.1489  0.4059
 6957SOL    HW221771   6.403   5.372   3.481  1.0178  0.4308 -0.6403
 6958SOL     OW21772   3.277   4.149   3.266  0.0631  0.1298  0.1284
 6958SOL    HW121773   3.224   4.123   3.185 -0.7732  0.1621  0.6470
 6958SOL    HW221774   3.240   4.101   3.346  0.6075  0.4219  0.5610
 6959SOL     OW21775   2.080   3.249   2.425  1.0826 -0.4314  0.2154
 6959SOL    HW121776   2.123   3.218   2.340 -1.3187 -0.6147 -1.0458
 6959SOL    HW221777   2.100   3.345   2.440  0.4947 -0.0338 -1.3293
 6960SOL     OW21778   4.742   4.643   0.674  0.0675 -0.3697 -0.1012
 6960SOL    HW121779   4.663   4.654   0.735  1.1493  0.6247  1.1749
 6960SOL    HW221780   4.800   4.569   0.708  0.3349 -0.2640 -0.3237
 6961SOL     OW21781   4.671   3.470   6.005  0.2036  0.0220  0.2320
 6961SOL    HW121782   4.751   3.526   5.982  1.4670 -1.6142  0.4689
 6961SOL    HW221783   4.641   3.492   6.098 -0.3582  1.4447 -0.2578
 6962SOL     OW21784   1.038   0.638   6.092  0.0184 -0.2186 -0.1430
 6962SOL    HW121785   0.953   0.596   6.060  0.4503  0.3843 -2.1978
 6962SOL    HW221786   1.110   0.569   6.093 -0.4166 -0.6944  1.4570
 6963SOL     OW21787   1.768   1.223   6.251 -0.7205 -0.0335  0.1585
 6963SOL    HW121788   1.812   1.153   6.307 -0.1366 -0.5174 -0.8796
 6963SOL    HW221789   1.728   1.181   6.170  0.9845  1.0142 -1.2820
 6964SOL     OW21790   2.648   0.840   5.673 -0.1877  0.1472 -0.3984
 6964SOL    HW121791   2.668   0.931   5.637  1.0195  0.1211  0.1913
 6964SOL    HW221792   2.550   0.834   5.694  0.1724  2.3272  2.3700
 6965SOL     OW21793   1.619   6.195   1.803 -0.0831 -0.0085 -0.2571
 6965SOL    HW121794   1.522   6.220   1.804 -0.2492 -0.6490  0.6419
 6965SOL    HW221795   1.674   6.278   1.812 -0.5154  0.4325 -1.5051
 6966SOL     OW21796   0.628   6.472   6.552 -0.4277  0.4574  0.0036
 6966SOL    HW121797   0.646   6.570   6.554  1.3156  0.1635  1.0321
 6966SOL    HW221798   0.598   6.445   6.460 -3.3712  2.2843  0.3056
 6967SOL     OW21799   5.275   1.073   5.061  0.1665 -0.4120  0.3084
 6967SOL    HW121800   5.238   0.994   5.110  0.8909 -0.4247  0.8632
 6967SOL    HW221801   5.319   1.135   5.126 -1.1900  0.9254 -0.0043
 6968SOL     OW21802   2.968   1.958   1.809 -0.3076  0.0206  0.1349
 6968SOL    HW121803   2.909   2.037   1.829  0.7905  1.4974 -2.0877
 6968SOL    HW221804   3.063   1.987   1.810  0.2197 -1.6379  0.5997
 6969SOL     OW21805   4.008   2.982   1.902 -0.0953  0.2640 -0.3253
 6969SOL    HW121806   4.034   2.888   1.921 -1.1494  0.0494  0.1367
 6969SOL    HW221807   4.086   3.032   1.864  0.2781 -0.9682 -1.2208
 6970SOL     OW21808   2.283   6.157   5.460 -0.0910 -0.2711  0.1448
 6970SOL    HW121809   2.199   6.122   5.419  0.6934 -1.2733 -0.6627
 6970SOL    HW221810   2.332   6.213   5.393 -0.1060  0.3041  0.6077
 6971SOL     OW21811   5.052   2.031   6.169 -0.6176  0.2966 -0.3717
 6971SOL    HW121812   5.024   2.044   6.074 -0.0466  2.2193 -0.3189
 6971SOL    HW221813   5.040   2.117   6.219  1.3877  0.0028  0.6983
 6972SOL     OW21814   6.402   5.838   2.757  0.0791  0.0004 -0.4404
 6972SOL    HW121815   6.315   5.832   2.806  0.2548  1.6994  0.1424
 6972SOL    HW221816   6.411   5.759   2.696 -1.0133 -1.1791  0.8362
 6973SOL     OW21817   0.992   1.079   3.726  0.2090  0.6377 -0.3308
 6973SOL    HW121818   0.979   1.072   3.627 -0.4458 -2.6380 -0.1373
 6973SOL    HW221819   1.090   1.072   3.747  0.3076  0.7584 -0.7315
 6974SOL     OW21820   4.192   3.760   1.633  0.4404  0.5046  0.1062
 6974SOL    HW121821   4.245   3.842   1.652  1.0375  0.0310  0.5233
 6974SOL    HW221822   4.181   3.707   1.717 -0.5811  0.5205 -0.0003
 6975SOL     OW21823   2.214   5.666   3.513  0.2439  0.0386  0.5414
 6975SOL    HW121824   2.192   5.580   3.469  0.0151  0.3636  0.0111
 6975SOL    HW221825   2.186   5.742   3.454  1.1149  0.4728  0.6651
 6976SOL     OW21826   4.129   5.105   4.940 -0.2010  0.2394  0.2078
 6976SOL    HW121827   4.058   5.128   5.006 -0.8459 -0.0171 -0.3917
 6976SOL    HW221828   4.163   5.189   4.897 -1.1948  0.2538 -0.5817
 6977SOL     OW21829   5.772   4.263   2.195  1.0056  0.5777 -0.0116
 6977SOL    HW121830   5.856   4.221   2.228  1.1711  1.7645  1.1681
 6977SOL    HW221831   5.702   4.193   2.180  2.3885 -0.5111 -1.6965
 6978SOL     OW21832   0.709   5.845   0.216  0.0096 -0.2755  0.5491
 6978SOL    HW121833   0.637   5.881   0.276 -0.1308 -1.0126  0.8389
 6978SOL    HW221834   0.746   5.919   0.160 -1.0821  0.0931  0.2812
 6979SOL     OW21835   1.746   3.706   3.376 -0.5034  0.4436 -0.2095
 6979SOL    HW121836   1.803   3.674   3.300 -0.1519  0.7503 -0.0801
 6979SOL    HW221837   1.728   3.804   3.365  1.1572  0.9299  1.0879
 6980SOL     OW21838   1.510   4.478   2.486  0.4147  0.4215  0.1747
 6980SOL    HW121839   1.582   4.471   2.556  1.2164 -0.2166 -0.6950
 6980SOL    HW221840   1.498   4.389   2.442 -0.4491  0.6931 -0.1587
 6981SOL     OW21841   4.049   1.853   2.772  0.3938 -0.9526  0.7551
 6981SOL    HW121842   4.146   1.851   2.749  0.4600 -0.4516  0.9753
 6981SOL    HW221843   4.030   1.932   2.829 -0.3892 -0.2861 -0.3828
 6982SOL     OW21844   0.522   0.870   2.341 -0.0031  0.7026 -0.0949
 6982SOL    HW121845   0.553   0.890   2.434  3.7669  0.1065 -1.0213
 6982SOL    HW221846   0.464   0.789   2.342 -1.5253  1.7306  1.8639
 6983SOL     OW21847   0.126   6.317   3.931  0.2123 -0.4859  0.0488
 6983SOL    HW121848   0.136   6.330   4.029 -1.3860 -2.1757  0.4742
 6983SOL    HW221849   0.217   6.309   3.889  0.9084  0.3773  1.3266
 6984SOL     OW21850   1.795   3.511   2.512  0.1282 -0.1847 -0.4330
 6984SOL    HW121851   1.883   3.481   2.549  0.2965  1.2216  0.3753
 6984SOL    HW221852   1.809   3.560   2.427  0.0898 -0.2662 -0.4867
 6985SOL     OW21853   5.505   4.004   6.985 -0.0412 -0.0478 -0.1469
 6985SOL    HW121854   5.514   3.986   6.887  3.5181 -0.4691  0.1322
 6985SOL    HW221855   5.539   4.096   7.005 -0.7283  0.0329  0.7154
 6986SOL     OW21856   4.994   6.007   6.300 -0.0745 -0.4210  0.0714
 6986SOL    HW121857   4.963   5.964   6.385  1.6206 -0.4825  0.6981
 6986SOL    HW221858   5.046   6.090   6.322 -1.3673  0.7290 -1.0235
 6987SOL     OW21859   1.478   1.911   5.675  0.4174 -0.9368  0.5544
 6987SOL    HW121860   1.563   1.858   5.665 -0.8238 -2.9008 -0.0404
 6987SOL    HW221861   1.448   1.908   5.770 -0.1854 -2.2019  0.3363
 6988SOL     OW21862   1.853   0.644   0.888 -0.0608  0.1180 -0.1789
 6988SOL    HW121863   1.931   0.653   0.951  0.3631  1.2939 -0.8373
 6988SOL    HW221864   1.865   0.562   0.832 -0.5878 -1.1084  1.4340
 6989SOL     OW21865   0.763   3.430   3.382  0.1340 -0.0666  0.6434
 6989SOL    HW121866   0.831   3.362   3.411 -0.6353 -0.8937  0.5536
 6989SOL    HW221867   0.805   3.493   3.316  0.5526 -1.1598 -0.1587
 6990SOL     OW21868   2.805   3.660   6.363 -0.1433 -0.2189 -0.1459
 6990SOL    HW121869   2.824   3.706   6.276  1.3920 -0.9308 -0.2104
 6990SOL    HW221870   2.834   3.718   6.439  1.9186 -1.0769 -0.2303
 6991SOL     OW21871   4.734   4.268   3.264 -0.0436 -0.0195 -0.1692
 6991SOL    HW121872   4.680   4.329   3.323  0.2154 -0.8094  0.9122
 6991SOL    HW221873   4.730   4.175   3.300 -0.9612 -0.8174 -2.1344
 6992SOL     OW21874   1.223   6.943   6.622  0.1918  0.4393  0.3514
 6992SOL    HW121875   1.182   6.886   6.551  0.4825  1.0980 -0.3643
 6992SOL    HW221876   1.257   6.885   6.696 -1.3305 -0.1679  0.6107
 6993SOL     OW21877   4.576   2.830   1.714 -0.8736  0.7039 -0.1898
 6993SOL    HW121878   4.646   2.764   1.686 -1.2160  0.6564 -0.9688
 6993SOL    HW221879   4.620   2.906   1.762 -0.1564  1.1051 -1.4185
 6994SOL     OW21880   1.563   1.548   3.183 -0.2246 -0.1236 -0.4731
 6994SOL    HW121881   1.541   1.493   3.264 -0.3319 -1.1726 -1.1894
 6994SOL    HW221882   1.556   1.490   3.102  0.0060  0.8852 -1.2190
 6995SOL     OW21883   6.523   4.240   6.936  0.1218  0.6219  0.0414
 6995SOL    HW121884   6.456   4.295   6.986  0.2351 -0.0158  0.9194
 6995SOL    HW221885   6.530   4.273   6.842 -0.1342  1.8193  0.4252
 6996SOL     OW21886   1.076   2.577   5.640 -0.1541  0.0283  0.4426
 6996SOL    HW121887   1.013   2.622   5.704 -1.2785 -0.3481 -0.3712
 6996SOL    HW221888   1.055   2.606   5.547  1.1844  0.2249  0.1850
 6997SOL     OW21889   6.357   6.785   5.528 -0.0787 -0.7378 -0.1146
 6997SOL    HW121890   6.265   6.805   5.561  0.4205 -0.9860  1.5214
 6997SOL    HW221891   6.353   6.715   5.457 -0.9872 -2.4631  1.5631
 6998SOL     OW21892   1.973   0.241   6.653  0.0965 -0.3406 -0.5293
 6998SOL    HW121893   2.056   0.221   6.703  0.2584 -2.6779 -1.6247
 6998SOL    HW221894   1.908   0.166   6.663 -0.5252 -0.1188 -2.4062
 6999SOL     OW21895   5.323   1.713   6.137 -0.0338  0.4239  0.2904
 6999SOL    HW121896   5.323   1.803   6.093  0.3672 -0.3217 -1.3442
 6999SOL    HW221897   5.417   1.691   6.166 -0.1707  0.6143  0.8876
 7000SOL     OW21898   0.385   4.236   1.611 -0.0861 -0.2750 -0.2452
 7000SOL    HW121899   0.376   4.137   1.622 -0.9807 -0.1292  0.3613
 7000SOL    HW221900   0.456   4.255   1.543  0.1439 -1.3275 -0.3158
 7001SOL     OW21901   6.675   2.008   2.123 -0.5708 -0.3321 -0.7299
 7001SOL    HW121902   6.773   1.993   2.135 -0.6157  0.8359  1.7956
 7001SOL    HW221903   6.660   2.073   2.048  0.7986  1.3160  0.3475
 7002SOL     OW21904   1.587   0.367   3.089 -0.4115  0.0582  0.5154
 7002SOL    HW121905   1.524   0.437   3.056 -0.6980 -1.3246 -2.1890
 7002SOL    HW221906   1.536   0.289   3.123 -0.2555 -1.0588 -1.6640
 7003SOL     OW21907   5.741   6.323   6.621  0.4031  0.0509  0.0885
 7003SOL    HW121908   5.698   6.410   6.645  0.9255  0.3311  0.0299
 7003SOL    HW221909   5.682   6.272   6.558  0.3671  0.6374 -0.3569
 7004SOL     OW21910   3.200   6.044   5.699  0.0754 -0.1591  0.3838
 7004SOL    HW121911   3.201   6.037   5.798 -2.2585 -1.4785  0.3868
 7004SOL    HW221912   3.107   6.061   5.667  1.0408  2.1223 -1.5342
 7005SOL     OW21913   3.457   5.402   1.600 -0.2664 -0.0493  0.4083
 7005SOL    HW121914   3.364   5.410   1.637 -0.4338 -0.5115  0.0971
 7005SOL    HW221915   3.482   5.305   1.594 -0.0351  0.0417 -0.1646
 7006SOL     OW21916   2.094   0.417   3.839 -0.2437 -0.0591 -0.4075
 7006SOL    HW121917   2.156   0.443   3.765  0.3295 -0.2454 -0.0036
 7006SOL    HW221918   2.129   0.453   3.926 -0.8279  0.0314 -0.2035
 7007SOL     OW21919   2.325   0.162   6.830  0.8392 -0.1415  0.2521
 7007SOL    HW121920   2.410   0.164   6.883 -1.2306 -0.1916  3.8616
 7007SOL    HW221921   2.247   0.157   6.892 -2.1876  4.8868 -2.4966
 7008SOL     OW21922   6.186   1.300   4.388 -0.5230  0.0815 -0.2461
 7008SOL    HW121923   6.101   1.248   4.386 -0.1131 -0.5985 -0.2921
 7008SOL    HW221924   6.263   1.238   4.376  0.1227  0.3559  1.9665
 7009SOL     OW21925   5.801   6.944   2.914 -0.2781 -0.3243  0.3319
 7009SOL    HW121926   5.840   6.857   2.884 -2.1510 -1.3080  0.5923
 7009SOL    HW221927   5.740   6.979   2.843 -0.8250 -0.0933  0.9033
 7010SOL     OW21928   5.432   3.695   2.062 -0.3777 -0.0299 -0.3370
 7010SOL    HW121929   5.479   3.637   2.129  0.4118 -0.7335 -1.4631
 7010SOL    HW221930   5.389   3.637   1.993 -1.5478  0.6700 -0.2390
 7011SOL     OW21931   3.398   0.267   5.659  0.0969 -0.2586  0.3591
 7011SOL    HW121932   3.453   0.335   5.707  0.7754 -0.1154 -0.5767
 7011SOL    HW221933   3.334   0.224   5.722  0.0919  0.8052  1.0963
 7012SOL     OW21934   6.472   4.965   1.451 -0.3080 -0.2048 -0.5228
 7012SOL    HW121935   6.480   5.061   1.477 -0.9789  0.4592 -2.5461
 7012SOL    HW221936   6.400   4.921   1.505 -1.2559  0.9283 -0.8219
 7013SOL     OW21937   3.821   3.600   5.978  0.3838  0.3881 -0.7424
 7013SOL    HW121938   3.777   3.543   6.047 -0.2948 -0.8880 -2.1673
 7013SOL    HW221939   3.870   3.541   5.913  0.5800  1.5147 -1.6408
 7014SOL     OW21940   4.739   1.122   0.166 -0.1628 -0.1590 -0.5616
 7014SOL    HW121941   4.680   1.042   0.182 -0.4842  0.4321  1.5364
 7014SOL    HW221942   4.821   1.093   0.117 -0.6012 -1.6553 -0.4806
 7015SOL     OW21943   0.180   0.346   2.234 -0.4566  0.2346 -0.4962
 7015SOL    HW121944   0.098   0.296   2.208 -1.2331  1.4022 -0.3745
 7015SOL    HW221945   0.258   0.313   2.181 -1.3378  0.2558 -1.8529
 7016SOL     OW21946   2.867   4.197   0.650 -0.2210 -0.0954 -0.0463
 7016SOL    HW121947   2.887   4.209   0.747  1.2618 -1.8345 -0.0653
 7016SOL    HW221948   2.912   4.268   0.597  0.0843  0.0882  0.4554
 7017SOL     OW21949   6.925   4.391   5.360 -0.6464 -0.6639 -0.3532
 7017SOL    HW121950   6.837   4.429   5.331 -0.2651 -0.0679 -0.7630
 7017SOL    HW221951   6.918   4.359   5.454 -1.1274 -0.0368 -0.1700
 7018SOL     OW21952   6.192   3.902   4.615  0.1697  0.7154 -0.6897
 7018SOL    HW121953   6.237   3.986   4.642 -0.7122  1.4305 -1.3628
 7018SOL    HW221954   6.157   3.854   4.695 -0.9283  1.9345 -0.4077
 7019SOL     OW21955   4.923   4.510   3.237 -0.1989  0.7842  0.5568
 7019SOL    HW121956   4.862   4.460   3.298 -0.8160  1.4771  0.5220
 7019SOL    HW221957   4.983   4.446   3.190  0.1072  0.2176  1.6898
 7020SOL     OW21958   1.502   1.525   6.850 -0.1557  0.5739 -0.5727
 7020SOL    HW121959   1.464   1.538   6.941 -0.8058  1.2162 -0.9226
 7020SOL    HW221960   1.561   1.602   6.827 -0.7225  0.8813 -1.0388
 7021SOL     OW21961   6.039   2.086   4.803  0.6521 -0.3334  0.1349
 7021SOL    HW121962   6.056   2.181   4.778 -1.5424 -0.0512 -0.5438
 7021SOL    HW221963   6.114   2.029   4.770  0.4914  0.7619 -2.3709
 7022SOL     OW21964   2.441   3.076   0.551  0.7436  0.2869 -0.4713
 7022SOL    HW121965   2.413   3.086   0.647  1.8129  0.5893 -0.1850
 7022SOL    HW221966   2.413   3.156   0.499 -0.9605 -0.4111 -0.7151
 7023SOL     OW21967   0.786   2.293   1.946 -0.0519  0.1109  0.1174
 7023SOL    HW121968   0.802   2.199   1.977 -3.8569 -1.0195 -0.8588
 7023SOL    HW221969   0.837   2.308   1.861 -0.7567 -1.7713 -0.7102
 7024SOL     OW21970   2.943   3.884   4.891  0.3708  0.1724  0.2836
 7024SOL    HW121971   3.000   3.959   4.924  0.1871  0.2074  0.5207
 7024SOL    HW221972   2.848   3.901   4.914 -0.0929  1.2944 -2.2367
 7025SOL     OW21973   3.212   6.116   6.334 -0.4918  0.0063 -0.5088
 7025SOL    HW121974   3.226   6.031   6.384 -4.2158  0.2334  1.2366
 7025SOL    HW221975   3.280   6.183   6.364  0.3703 -1.3020  0.6141
 7026SOL     OW21976   4.495   2.464   2.443  0.3160  0.0268 -0.5464
 7026SOL    HW121977   4.424   2.406   2.402 -0.7857  1.1801 -0.3048
 7026SOL    HW221978   4.505   2.548   2.389 -0.6650  1.2553  1.1214
 7027SOL     OW21979   3.073   5.249   1.592 -0.0448  0.1046 -0.0568
 7027SOL    HW121980   3.117   5.210   1.511 -1.7517  0.5333 -1.2636
 7027SOL    HW221981   3.037   5.176   1.650  0.2372 -0.1845 -0.2464
 7028SOL     OW21982   4.543   2.197   4.843  0.2533 -0.4468  0.4311
 7028SOL    HW121983   4.466   2.261   4.836 -0.3252 -1.0442  1.2285
 7028SOL    HW221984   4.558   2.153   4.754 -1.0258 -1.1247  0.5396
 7029SOL     OW21985   3.461   3.335   3.286  0.1219 -0.0830 -0.6309
 7029SOL    HW121986   3.463   3.277   3.368  0.8966  0.3402 -0.3406
 7029SOL    HW221987   3.390   3.404   3.295 -0.4140 -0.6197 -0.7217
 7030SOL     OW21988   6.992   0.064   4.821 -0.0766  0.3963  0.2170
 7030SOL    HW121989   6.907   0.106   4.788 -0.0425 -1.0471 -1.9516
 7030SOL    HW221990   6.978  -0.035   4.828  0.7695  0.3789  2.1359
 7031SOL     OW21991   4.803   5.121   1.833 -0.2654  0.4285  0.1874
 7031SOL    HW121992   4.815   5.023   1.819  1.1249  0.3183  1.8655
 7031SOL    HW221993   4.710   5.139   1.866 -1.0747 -0.0989 -1.6952
 7032SOL     OW21994   4.999   6.209   2.650 -0.0425 -0.4187  0.6509
 7032SOL    HW121995   4.974   6.303   2.673  1.0862  0.0536  0.0275
 7032SOL    HW221996   5.007   6.200   2.551  0.1483 -1.1052  0.7233
 7033SOL     OW21997   0.596   3.280   5.340  0.0283  0.1786  0.0950
 7033SOL    HW121998   0.613   3.377   5.358 -0.0747 -0.1769  2.3992
 7033SOL    HW221999   0.498   3.264   5.331 -0.1260  0.0164  1.7913
 7034SOL     OW22000   0.243   3.248   1.809 -0.1280 -0.2945  0.0644
 7034SOL    HW122001   0.172   3.227   1.877 -0.2024 -1.1869 -0.2793
 7034SOL    HW222002   0.208   3.229   1.717 -0.4155  1.9210 -0.3461
 7035SOL     OW22003   4.657   1.915   0.857  0.1568  0.9950 -0.2143
 7035SOL    HW122004   4.588   1.940   0.789  1.3152  2.3356 -0.9753
 7035SOL    HW222005   4.687   1.998   0.905 -1.2236 -0.0157  2.5917
 7036SOL     OW22006   0.417   1.177   2.413 -0.8138 -0.2460 -0.1337
 7036SOL    HW122007   0.439   1.156   2.508  1.3165 -0.1098 -0.5545
 7036SOL    HW222008   0.379   1.096   2.368  0.9334 -1.2104  0.0722
 7037SOL     OW22009   2.318   0.941   5.393  0.4915 -0.2399 -0.3269
 7037SOL    HW122010   2.408   0.925   5.353  0.7644 -0.5709  0.4141
 7037SOL    HW222011   2.284   1.031   5.364  0.8606 -0.2998 -0.9632
 7038SOL     OW22012   1.947   0.016   5.514  0.6518 -0.0743  0.1651
 7038SOL    HW122013   1.903   0.044   5.599 -0.0122  1.6745 -0.7074
 7038SOL    HW222014   2.026  -0.042   5.535  0.4861  0.2777  1.9614
 7039SOL     OW22015   6.603   0.489   0.447  0.1992  0.5438 -0.0038
 7039SOL    HW122016   6.601   0.533   0.536 -1.7549  1.8926 -0.6518
 7039SOL    HW222017   6.517   0.440   0.432  0.2514  0.8320 -1.3712
 7040SOL     OW22018   5.029   2.617   3.520  0.1337  0.0803  0.4232
 7040SOL    HW122019   4.944   2.582   3.481  0.1680 -0.2824  0.6621
 7040SOL    HW222020   5.046   2.571   3.607 -0.5284  1.6731  1.4398
 7041SOL     OW22021   0.681   1.479   5.759  0.1351 -1.0195  0.0141
 7041SOL    HW122022   0.670   1.398   5.702  1.8479 -0.2904 -1.4651
 7041SOL    HW222023   0.756   1.535   5.723 -0.9957  1.2437  0.9536
 7042SOL     OW22024   5.575   6.457   5.561 -0.1794 -0.1050  0.1235
 7042SOL    HW122025   5.505   6.522   5.592 -1.3519 -0.4116 -1.6762
 7042SOL    HW222026   5.557   6.367   5.601 -0.9772 -0.2308 -0.4827
 7043SOL     OW22027   0.945   4.847   7.019 -0.2686 -0.7383 -0.2025
 7043SOL    HW122028   0.909   4.809   7.104 -1.5706  1.2470  0.2001
 7043SOL    HW222029   0.947   4.947   7.026  1.9650 -0.6194 -1.5988
 7044SOL     OW22030   4.689   4.768   4.748 -0.5184 -0.0316  0.3201
 7044SOL    HW122031   4.719   4.835   4.680 -0.1119  0.5262  1.0306
 7044SOL    HW222032   4.589   4.761   4.746 -0.8087  2.4477  1.8920
 7045SOL     OW22033   1.342   0.611   2.380 -0.4929  0.1160  0.0493
 7045SOL    HW122034   1.355   0.589   2.284  1.2570 -1.7358  0.6540
 7045SOL    HW222035   1.406   0.683   2.407  1.4740 -1.7221  0.5540
 7046SOL     OW22036   2.363   0.565   3.185 -0.0309 -0.2337  0.0642
 7046SOL    HW122037   2.313   0.646   3.214 -0.2386 -0.3829  0.1280
 7046SOL    HW222038   2.319   0.483   3.222  0.7548 -0.3234  0.8270
 7047SOL     OW22039   1.037   5.451   6.902  0.4618  0.2499  0.4131
 7047SOL    HW122040   1.002   5.518   6.837  0.9133  0.0924 -0.0032
 7047SOL    HW222041   0.967   5.431   6.971  0.1773  0.8330  0.2998
 7048SOL     OW22042   1.700   6.594   4.287 -0.2456 -0.0402  0.1314
 7048SOL    HW122043   1.684   6.508   4.335 -0.9770  0.6485  1.1719
 7048SOL    HW222044   1.615   6.647   4.285  0.3159  0.8734 -0.0348
 7049SOL     OW22045   3.452   1.276   3.879 -0.2685  0.5597  0.1244
 7049SOL    HW122046   3.395   1.195   3.867 -1.2533  1.4657 -1.7474
 7049SOL    HW222047   3.398   1.351   3.917  0.3578  0.6760  0.8149
 7050SOL     OW22048   5.671   4.557   0.667 -0.2602 -0.4221  0.3399
 7050SOL    HW122049   5.654   4.650   0.634 -3.1836 -1.1589 -0.4581
 7050SOL    HW222050   5.680   4.558   0.766  0.1635  0.7261  0.3120
 7051SOL     OW22051   1.651   2.000   1.420 -0.6708  0.4227  0.2515
 7051SOL    HW122052   1.639   2.097   1.440  1.2205  0.5724  0.9045
 7051SOL    HW222053   1.653   1.948   1.506 -0.5678 -0.0489 -0.0303
 7052SOL     OW22054   6.115   3.112   2.786  0.5678  0.4096 -0.3483
 7052SOL    HW122055   6.093   3.015   2.786  0.6751  0.3838 -0.0400
 7052SOL    HW222056   6.112   3.147   2.880  0.6001  0.6874 -0.4483
 7053SOL     OW22057   0.209   4.997   4.576  0.1486  0.2560 -0.1672
 7053SOL    HW122058   0.242   5.020   4.668 -0.7400  1.0033 -0.0239
 7053SOL    HW222059   0.284   5.004   4.511  0.6070  0.4861  0.3752
 7054SOL     OW22060   5.266   0.624   5.964 -0.7946 -0.3076  0.0343
 7054SOL    HW122061   5.174   0.657   5.984 -0.0448  1.3437  1.0556
 7054SOL    HW222062   5.278   0.614   5.865 -2.4430 -1.8300 -0.0507
 7055SOL     OW22063   1.450   0.793   6.835  0.3208  0.5282  0.3421
 7055SOL    HW122064   1.371   0.810   6.776 -0.7420  1.0626  1.8737
 7055SOL    HW222065   1.516   0.735   6.786  0.0813  1.9746 -1.8274
 7056SOL     OW22066   4.484   5.390   0.196  0.1968 -0.7638  0.1830
 7056SOL    HW122067   4.521   5.304   0.231  2.3597 -0.4304 -1.0521
 7056SOL    HW222068   4.520   5.406   0.104  1.4070  2.3228  1.0620
 7057SOL     OW22069   2.652   4.954   4.398 -0.1611  0.0670  0.0968
 7057SOL    HW122070   2.591   4.932   4.475 -0.8509  0.7237 -0.2513
 7057SOL    HW222071   2.659   4.875   4.337 -1.4402  0.2801 -0.3582
 7058SOL     OW22072   5.139   2.560   0.162 -0.1882 -0.1449 -0.3906
 7058SOL    HW122073   5.137   2.471   0.116  0.5974 -0.1847 -0.3591
 7058SOL    HW222074   5.107   2.549   0.256  0.9530 -0.6275 -0.0296
 7059SOL     OW22075   3.407   6.021   4.991  0.4529 -0.1288 -0.3480
 7059SOL    HW122076   3.387   6.069   5.076 -1.1925 -0.3696 -0.5682
 7059SOL    HW222077   3.382   6.079   4.913  0.6448 -0.4435 -0.6465
 7060SOL     OW22078   3.596   1.144   2.885  0.4303  0.7869 -0.7170
 7060SOL    HW122079   3.540   1.096   2.816  0.4588  1.1329 -0.9825
 7060SOL    HW222080   3.560   1.124   2.976  1.0846 -0.6080 -0.7324
 7061SOL     OW22081   2.745   1.237   1.171 -0.5129 -0.9819 -0.5684
 7061SOL    HW122082   2.831   1.283   1.192 -1.4265  0.5841 -0.0920
 7061SOL    HW222083   2.750   1.142   1.203  1.0035 -0.9049 -0.4957
 7062SOL     OW22084   5.376   0.511   5.231 -0.0446  0.4965 -0.5590
 7062SOL    HW122085   5.402   0.425   5.276 -0.0741  0.1801 -1.1368
 7062SOL    HW222086   5.279   0.528   5.246  0.1816  0.9614  0.4236
 7063SOL     OW22087   2.420   1.032   2.360  0.1558 -0.8805 -0.1730
 7063SOL    HW122088   2.518   1.020   2.379  0.2875  0.3636 -0.0225
 7063SOL    HW222089   2.393   1.125   2.382 -1.6830 -1.9042  2.5198
 7064SOL     OW22090   2.233   2.443   6.197 -0.4095  0.0560  0.8073
 7064SOL    HW122091   2.291   2.524   6.207 -0.9815  0.6190 -0.2910
 7064SOL    HW222092   2.254   2.396   6.111  1.5622 -2.3544  2.4560
 7065SOL     OW22093   5.903   0.310   4.503 -0.5916  0.0894 -0.4347
 7065SOL    HW122094   5.911   0.405   4.472  0.7271  0.0292 -0.3635
 7065SOL    HW222095   5.932   0.249   4.429 -2.3987 -0.3427 -0.8410
 7066SOL     OW22096   2.380   6.015   3.926 -0.7124  0.3907 -0.1960
 7066SOL    HW122097   2.458   6.036   3.867 -0.3181 -0.9542 -0.1914
 7066SOL    HW222098   2.320   5.950   3.879  0.1945 -1.6023  1.2669
 7067SOL     OW22099   1.268   2.687   5.802  0.2612  0.3059  0.0960
 7067SOL    HW122100   1.300   2.769   5.754 -0.1891  0.1643 -0.4701
 7067SOL    HW222101   1.215   2.631   5.738  0.3111 -0.2760  0.5643
 7068SOL     OW22102   4.899   3.726   4.457 -0.0801  0.0128 -0.3862
 7068SOL    HW122103   4.979   3.715   4.516 -0.0449  0.3999 -0.3568
 7068SOL    HW222104   4.829   3.660   4.483  0.1495 -0.1926 -0.2792
 7069SOL     OW22105   3.745   6.774   5.358 -0.4828  0.6304  0.7373
 7069SOL    HW122106   3.707   6.865   5.343  0.4748  0.9965  0.4727
 7069SOL    HW222107   3.748   6.725   5.272 -4.3139 -1.0349  1.3636
 7070SOL     OW22108   5.347   0.986   5.784 -0.5261 -0.4259 -0.1777
 7070SOL    HW122109   5.366   0.919   5.857 -0.4665  0.6439  0.8205
 7070SOL    HW222110   5.326   1.074   5.825  1.5640  0.7641 -1.4651
 7071SOL     OW22111   2.990   4.753   0.602 -0.1463 -0.7452 -0.3401
 7071SOL    HW122112   2.900   4.775   0.563  0.3555  0.5853 -0.8220
 7071SOL    HW222113   2.978   4.726   0.698 -0.8650  2.5424  0.6512
 7072SOL     OW22114   6.954   4.514   0.789  0.4618  0.2000 -0.0076
 7072SOL    HW122115   7.038   4.460   0.793 -1.5985 -3.4680 -1.1181
 7072SOL    HW222116   6.927   4.526   0.693 -2.3278 -2.6047  0.2471
 7073SOL     OW22117   2.395   1.153   3.439  0.0380 -0.0340 -0.2998
 7073SOL    HW122118   2.346   1.156   3.352  0.5378 -0.7251 -0.6182
 7073SOL    HW222119   2.467   1.084   3.434  1.1090  1.0144  0.1276
 7074SOL     OW22120   0.659   3.909   3.639  0.5255 -0.5260 -0.8310
 7074SOL    HW122121   0.584   3.956   3.592 -0.7530 -1.4518  0.2100
 7074SOL    HW222122   0.688   3.963   3.717  0.6152 -0.3964 -0.9532
 7075SOL     OW22123   2.813   6.100   2.095 -0.7800 -0.1401 -0.0774
 7075SOL    HW122124   2.777   6.080   2.003  0.2005 -0.2393 -0.4471
 7075SOL    HW222125   2.846   6.016   2.136 -1.1338 -0.0777  0.3430
 7076SOL     OW22126   6.651   2.679   1.925 -0.2543  0.2677  0.1636
 7076SOL    HW122127   6.630   2.630   1.841  0.8313  0.3439 -0.1639
 7076SOL    HW222128   6.590   2.647   1.998  0.4184 -1.6025 -0.0296
 7077SOL     OW22129   4.147   6.284   0.853 -0.5354  0.7932 -0.0559
 7077SOL    HW122130   4.239   6.303   0.888  0.0212  1.5906 -1.8280
 7077SOL    HW222131   4.105   6.213   0.909  2.1173 -1.4105 -0.6271
 7078SOL     OW22132   6.827   2.986   0.495  0.8596  0.6859  0.4810
 7078SOL    HW122133   6.848   2.993   0.592  2.5465 -2.2641  0.4373
 7078SOL    HW222134   6.896   3.036   0.442  1.1924  0.4918  0.7300
 7079SOL     OW22135   4.732   5.883   3.714  0.2783  0.1790 -0.3102
 7079SOL    HW122136   4.738   5.983   3.716  1.4382  0.1277  1.4694
 7079SOL    HW222137   4.809   5.846   3.662  1.2943  0.1805  1.1403
 7080SOL     OW22138   3.466   0.973   5.584 -0.4901  0.3843 -0.1356
 7080SOL    HW122139   3.458   1.043   5.655  3.4761  4.1740 -2.8863
 7080SOL    HW222140   3.384   0.976   5.526 -1.0925  1.7079  0.7144
 7081SOL     OW22141   1.827   6.084   0.876 -0.1569  0.1613 -0.2435
 7081SOL    HW122142   1.880   6.084   0.961  1.0052  1.8407 -0.9128
 7081SOL    HW222143   1.772   6.001   0.871  2.2932 -1.6316  0.5880
 7082SOL     OW22144   0.569   4.914   2.088  0.2017  0.1483 -0.0317
 7082SOL    HW122145   0.575   4.957   2.178  1.0257 -0.4170  0.2003
 7082SOL    HW222146   0.511   4.969   2.028 -0.2052  0.6279  0.7852
 7083SOL     OW22147   6.438   4.585   2.901  0.4309 -0.0670  0.0705
 7083SOL    HW122148   6.487   4.538   2.828  0.8673  0.5095 -0.0205
 7083SOL    HW222149   6.377   4.654   2.861  0.8750  0.4403  0.2475
 7084SOL     OW22150   2.143   5.491   1.530  0.1718  0.5880 -0.1540
 7084SOL    HW122151   2.217   5.546   1.491 -0.9353  2.4267  0.2067
 7084SOL    HW222152   2.108   5.535   1.613 -1.9061  0.2755 -0.7914
 7085SOL     OW22153   1.393   2.678   3.662 -0.0716  0.1997  0.7826
 7085SOL    HW122154   1.333   2.615   3.713  0.0993  1.0141  2.0505
 7085SOL    HW222155   1.366   2.679   3.566 -0.4863 -1.3107  0.8562
 7086SOL     OW22156   5.346   0.364   4.946  0.0768  0.0589 -0.6511
 7086SOL    HW122157   5.368   0.460   4.965  2.2509 -0.5475  0.2525
 7086SOL    HW222158   5.324   0.318   5.032 -2.5779  0.0654 -1.2636
 7087SOL     OW22159   4.731   2.220   5.026  0.1869  0.7541  0.3313
 7087SOL    HW122160   4.721   2.154   5.100  0.3420 -0.5153 -0.7316
 7087SOL    HW222161   4.661   2.203   4.957 -0.0086  1.9692  0.2097
 7088SOL     OW22162   4.327   2.653   5.749 -0.0595 -0.0996  0.3665
 7088SOL    HW122163   4.386   2.674   5.827 -0.4930 -0.0982  0.7009
 7088SOL    HW222164   4.376   2.671   5.664 -0.3283  2.1039  0.6101
 7089SOL     OW22165   4.405   5.763   2.836  0.2026  0.0292  0.0655
 7089SOL    HW122166   4.441   5.742   2.927 -1.3406 -1.0947  0.4510
 7089SOL    HW222167   4.474   5.814   2.784  0.7531  1.5694  2.1794
 7090SOL     OW22168   4.629   4.105   1.347  0.0892 -0.4585  0.0347
 7090SOL    HW122169   4.640   4.116   1.446 -1.8172  0.9078  0.1464
 7090SOL    HW222170   4.567   4.028   1.328 -0.5914  0.0975 -0.0274
 7091SOL     OW22171   0.918   1.284   6.501  0.2825  0.2507  0.3431
 7091SOL    HW122172   0.921   1.304   6.599  0.6667 -1.7777  0.7965
 7091SOL    HW222173   0.961   1.195   6.484  1.5149  1.1716 -1.8557
 7092SOL     OW22174   3.808   6.193   1.383  0.8260 -0.8041  0.1703
 7092SOL    HW122175   3.759   6.169   1.299  0.4746  0.1219  0.1061
 7092SOL    HW222176   3.747   6.184   1.462  1.2797 -2.1138  0.4019
 7093SOL     OW22177   3.766   3.218   0.436  0.1226  0.1395  0.0557
 7093SOL    HW122178   3.683   3.229   0.492 -0.0406 -1.4544  0.1836
 7093SOL    HW222179   3.826   3.150   0.479  1.0421  0.5415 -0.5630
 7094SOL     OW22180   4.806   1.904   3.175 -0.6951  0.3819  0.2794
 7094SOL    HW122181   4.731   1.852   3.216  0.3884  0.4780  2.5288
 7094SOL    HW222182   4.887   1.898   3.233  0.5464  1.6946 -1.2071
 7095SOL     OW22183   3.388   4.957   4.298 -0.2029  0.4403  0.1638
 7095SOL    HW122184   3.409   4.993   4.389  2.2434 -2.4537  0.9199
 7095SOL    HW222185   3.470   4.965   4.240 -1.1115  0.4446 -1.1526
 7096SOL     OW22186   4.844   0.549   0.294 -0.1703  0.3650 -0.1081
 7096SOL    HW122187   4.901   0.549   0.212  0.9106  1.0708  0.6189
 7096SOL    HW222188   4.893   0.505   0.370 -0.4473  1.2633  0.6151
 7097SOL     OW22189   0.206   1.180   2.179 -0.0231 -0.3035  0.0040
 7097SOL    HW122190   0.273   1.112   2.152 -0.4481 -0.8402  0.2722
 7097SOL    HW222191   0.114   1.144   2.162 -0.4006 -1.3696  3.6025
 7098SOL     OW22192   0.321   0.469   2.990 -0.9365 -0.3159  0.0881
 7098SOL    HW122193   0.228   0.506   2.992 -1.0416 -0.3895 -1.6859
 7098SOL    HW222194   0.329   0.396   3.058 -1.3317  1.4912  2.1982
 7099SOL     OW22195   2.900   0.917   3.676  0.0341  0.6988 -0.0628
 7099SOL    HW122196   2.885   0.873   3.587 -1.1724  0.7272  0.1015
 7099SOL    HW222197   2.990   0.959   3.678  0.2321  0.3607 -1.1316
 7100SOL     OW22198   1.388   3.818   2.997  0.0658 -1.0928 -0.0742
 7100SOL    HW122199   1.347   3.888   3.055  0.9133 -0.5118 -0.1557
 7100SOL    HW222200   1.367   3.839   2.901  0.1080 -1.0856 -0.0820
 7101SOL     OW22201   2.736   5.540   3.863 -0.3208  0.4440 -0.3736
 7101SOL    HW122202   2.755   5.458   3.917  0.2163 -0.3056 -1.6447
 7101SOL    HW222203   2.717   5.617   3.924 -1.2909 -0.7173  0.8528
 7102SOL     OW22204   4.959   2.877   1.912 -0.3576 -0.2189 -0.0505
 7102SOL    HW122205   5.037   2.875   1.976 -0.2113 -2.4028 -0.2218
 7102SOL    HW222206   4.878   2.910   1.960  0.4249  1.1687  0.3915
 7103SOL     OW22207   4.889   5.738   1.756 -0.2867  0.3723 -0.4147
 7103SOL    HW122208   4.973   5.685   1.761 -1.3006 -1.1829  1.2618
 7103SOL    HW222209   4.896   5.818   1.816  0.5111  1.0991 -1.4366
 7104SOL     OW22210   5.018   4.844   3.488 -0.0068 -0.1724 -0.1015
 7104SOL    HW122211   5.089   4.915   3.493 -0.4908  0.5299 -2.1661
 7104SOL    HW222212   5.050   4.769   3.429 -1.0751  0.3033 -1.3251
 7105SOL     OW22213   3.295   2.978   2.347 -0.7632 -0.3950  0.1695
 7105SOL    HW122214   3.262   3.037   2.275  0.3992 -0.6525 -0.6068
 7105SOL    HW222215   3.331   2.893   2.307  0.9396 -0.0673  0.9098
 7106SOL     OW22216   2.687   2.083   2.599  0.1481  0.9332 -0.0734
 7106SOL    HW122217   2.621   2.128   2.659 -1.3110  0.3906 -1.2080
 7106SOL    HW222218   2.658   1.989   2.583  3.4283 -0.7797  2.7229
 7107SOL     OW22219   2.616   2.028   0.716  0.0045 -0.0797  0.5807
 7107SOL    HW122220   2.611   2.032   0.816 -0.5026 -0.9350  0.6013
 7107SOL    HW222221   2.613   2.120   0.679  1.1408  0.2992  1.3899
 7108SOL     OW22222   1.774   1.266   2.490 -0.1612 -0.1368  0.1737
 7108SOL    HW122223   1.701   1.229   2.547 -1.5869  0.7020 -1.0308
 7108SOL    HW222224   1.831   1.191   2.456 -0.7190 -0.8523  0.7799
 7109SOL     OW22225   2.745   5.104   5.353  0.2442  0.1159 -0.4776
 7109SOL    HW122226   2.752   5.166   5.430  0.2754  1.6006 -1.6260
 7109SOL    HW222227   2.790   5.017   5.376  2.4361  1.3764  0.3295
 7110SOL     OW22228   1.567   5.378   5.707  0.0586 -0.7419 -0.1906
 7110SOL    HW122229   1.544   5.296   5.760  1.5227 -0.4300  0.9634
 7110SOL    HW222230   1.654   5.415   5.738 -0.5643  1.2729 -0.6976
 7111SOL     OW22231   0.394   1.714   6.974  0.0233 -0.0512 -0.0084
 7111SOL    HW122232   0.386   1.654   7.054 -1.8160  1.4011  0.9684
 7111SOL    HW222233   0.488   1.749   6.968  0.3077 -0.5451  1.2358
 7112SOL     OW22234   5.449   4.234   6.630 -0.0713  0.0791 -0.2303
 7112SOL    HW122235   5.401   4.316   6.662  0.6347  0.3801  0.0796
 7112SOL    HW222236   5.543   4.258   6.606  0.1336 -0.6363 -0.1675
 7113SOL     OW22237   3.887   6.205   4.099 -0.3856  0.1799 -0.5743
 7113SOL    HW122238   3.904   6.275   4.030 -0.7087  0.2233 -0.6138
 7113SOL    HW222239   3.973   6.161   4.125 -0.3028 -0.0755 -1.2553
 7114SOL     OW22240   6.233   2.955   5.777  0.1212  0.0806 -0.6091
 7114SOL    HW122241   6.154   3.001   5.818  0.4489  0.5356 -0.4898
 7114SOL    HW222242   6.297   3.023   5.742  0.0510 -0.2888 -1.5022
 7115SOL     OW22243   4.856   2.025   6.450 -0.6199  0.2407  0.1082
 7115SOL    HW122244   4.886   1.976   6.368 -0.1172 -1.1184  1.0737
 7115SOL    HW222245   4.815   2.113   6.423  1.6568  0.9126 -1.4368
 7116SOL     OW22246   6.095   5.825   6.943  0.3104  0.1093  0.0305
 7116SOL    HW122247   6.059   5.739   6.906 -0.0437  0.2192  0.1116
 7116SOL    HW222248   6.157   5.867   6.876 -0.1995  0.2237 -0.3760
 7117SOL     OW22249   6.912   6.713   2.859 -0.3415 -0.3263 -0.7847
 7117SOL    HW122250   6.814   6.699   2.863 -0.0586 -2.3679  2.4672
 7117SOL    HW222251   6.931   6.811   2.854 -2.4384  0.0659 -3.1385
 7118SOL     OW22252   6.087   3.095   6.644 -0.0381 -0.0465  0.3939
 7118SOL    HW122253   6.079   2.998   6.663  1.3219 -0.2977 -0.2020
 7118SOL    HW222254   6.174   3.113   6.597 -1.5803  1.0210 -2.2884
 7119SOL     OW22255   2.081   5.355   4.729  0.4618 -0.5235  0.1850
 7119SOL    HW122256   2.122   5.274   4.686 -0.3533 -1.5563  1.3056
 7119SOL    HW222257   2.128   5.374   4.815  1.7859  1.2637 -0.8615
 7120SOL     OW22258   4.700   2.715   3.558 -0.0413 -0.1988 -0.1236
 7120SOL    HW122259   4.696   2.802   3.509 -1.9460 -1.1460 -1.8083
 7120SOL    HW222260   4.736   2.644   3.496 -1.3513 -1.1849  0.1962
 7121SOL     OW22261   3.478   6.841   2.877 -0.0572 -0.6304 -0.5363
 7121SOL    HW122262   3.536   6.806   2.950 -1.3652 -2.0526 -0.1119
 7121SOL    HW222263   3.530   6.847   2.792  1.3020  0.3921  0.3529
 7122SOL     OW22264   4.078   1.109   0.147  0.0928  0.2426  0.0775
 7122SOL    HW122265   4.041   1.026   0.105  0.8669  0.2286 -0.6014
 7122SOL    HW222266   4.169   1.090   0.184  0.4009  0.8653 -0.3447
 7123SOL     OW22267   4.703   4.334   5.633 -0.2960  0.6012  0.6304
 7123SOL    HW122268   4.750   4.356   5.719 -1.6546  0.4812  1.4375
 7123SOL    HW222269   4.703   4.235   5.619  0.6274  0.6718  0.0607
 7124SOL     OW22270   0.975   2.643   6.891 -0.2550  0.5438  0.4073
 7124SOL    HW122271   0.956   2.558   6.841  2.1597 -0.5747  1.1951
 7124SOL    HW222272   1.065   2.677   6.864  0.1273  1.1424  2.3298
 7125SOL     OW22273   1.359   5.378   1.739 -0.1019 -0.0635 -0.0039
 7125SOL    HW122274   1.436   5.327   1.700 -0.3100  0.5274 -1.2671
 7125SOL    HW222275   1.285   5.315   1.762  0.2021 -0.4852 -0.1647
 7126SOL     OW22276   3.383   4.449   0.791  0.1071 -0.5449  0.9304
 7126SOL    HW122277   3.302   4.462   0.733  1.8670  0.8910 -1.3847
 7126SOL    HW222278   3.394   4.352   0.812 -1.3774 -0.9298  0.0659
 7127SOL     OW22279   2.829   5.367   6.913 -0.1909  0.3316  0.4488
 7127SOL    HW122280   2.899   5.414   6.859 -0.6162 -0.1562 -0.5489
 7127SOL    HW222281   2.828   5.404   7.006  0.0616  1.6910 -0.0753
 7128SOL     OW22282   3.517   3.295   0.556  0.1159  0.5464  0.2544
 7128SOL    HW122283   3.464   3.371   0.594  1.0802  0.4120  1.9917
 7128SOL    HW222284   3.477   3.208   0.584 -0.6895  0.3818 -1.3075
 7129SOL     OW22285   0.494   1.504   0.809 -0.7891  0.0812 -0.1575
 7129SOL    HW122286   0.414   1.537   0.859 -0.1427  0.7619  0.4567
 7129SOL    HW222287   0.570   1.491   0.873 -0.3413 -0.3513 -0.7666
 7130SOL     OW22288   5.029   6.224   2.995 -0.2654  0.7961 -0.8409
 7130SOL    HW122289   5.032   6.320   3.022  0.4976  0.0362  2.1233
 7130SOL    HW222290   5.088   6.170   3.056 -2.7575 -1.9161 -0.5979
 7131SOL     OW22291   0.660   2.549   1.267  0.0323 -0.5392 -0.2015
 7131SOL    HW122292   0.581   2.492   1.293 -0.5108  0.3724  0.2121
 7131SOL    HW222293   0.697   2.593   1.348  0.0723  0.1547 -0.5867
 7132SOL     OW22294   4.856   4.431   1.343 -0.9238  0.1793 -0.4349
 7132SOL    HW122295   4.870   4.457   1.439 -1.8920  0.1325 -0.2677
 7132SOL    HW222296   4.897   4.342   1.326  3.8418  2.2598 -1.4013
 7133SOL     OW22297   3.172   4.942   2.384  0.1409  0.1638  0.0723
 7133SOL    HW122298   3.102   4.872   2.366 -0.0103  0.2890  0.1754
 7133SOL    HW222299   3.255   4.920   2.331  0.7246 -1.0766  1.4268
 7134SOL     OW22300   2.643   4.337   5.697 -0.1072 -0.1869 -0.3451
 7134SOL    HW122301   2.690   4.408   5.749  0.7212 -1.3968  0.6486
 7134SOL    HW222302   2.708   4.294   5.633  0.0474 -1.5071  0.6474
 7135SOL     OW22303   1.926   4.637   6.495  0.1444 -0.1405  0.1532
 7135SOL    HW122304   1.929   4.537   6.500  0.7262 -0.1080  0.6023
 7135SOL    HW222305   1.939   4.666   6.400  3.0564 -0.4403  0.3506
 7136SOL     OW22306   2.919   3.272   0.899  0.4133  0.2754 -0.1069
 7136SOL    HW122307   2.984   3.270   0.975  0.2620  0.1479  0.0195
 7136SOL    HW222308   2.929   3.359   0.850 -0.7054  1.1660  1.1441
 7137SOL     OW22309   3.387   2.063   1.302 -0.0696 -0.2894  0.3519
 7137SOL    HW122310   3.424   2.096   1.389 -1.8623 -0.4913  1.2425
 7137SOL    HW222311   3.311   2.121   1.274 -1.8975 -2.2776  0.8505
 7138SOL     OW22312   5.479   3.094   5.800  0.9038 -0.3228  0.4344
 7138SOL    HW122313   5.386   3.126   5.819  0.7344 -1.6905  2.2076
 7138SOL    HW222314   5.526   3.159   5.741 -1.0950  0.5118 -0.3023
 7139SOL     OW22315   5.535   6.112   1.785  0.1937  0.4396  0.2347
 7139SOL    HW122316   5.613   6.173   1.769  0.3124 -0.2020 -2.0759
 7139SOL    HW222317   5.534   6.082   1.880  0.5176  3.4711  1.3032
 7140SOL     OW22318   0.179   4.884   0.862 -0.3039 -0.1746 -0.6507
 7140SOL    HW122319   0.225   4.889   0.774 -0.1530 -1.1244 -0.6297
 7140SOL    HW222320   0.214   4.956   0.923  0.8968 -0.6683 -0.7474
 7141SOL     OW22321   4.145   0.056   0.416  0.4810 -0.5431 -0.4984
 7141SOL    HW122322   4.109   0.025   0.504 -0.5189 -0.7084 -0.9465
 7141SOL    HW222323   4.116  -0.008   0.344  2.1029 -0.9543 -0.8331
 7142SOL     OW22324   5.796   6.666   5.549  0.2034  0.0298 -0.1207
 7142SOL    HW122325   5.727   6.607   5.592  0.5040  0.4185  0.9194
 7142SOL    HW222326   5.826   6.736   5.614 -0.6814  1.8270 -1.5455
 7143SOL     OW22327   2.238   1.880   5.838  0.1455 -0.6547 -0.0434
 7143SOL    HW122328   2.238   1.958   5.901 -0.4339 -0.9013  0.2693
 7143SOL    HW222329   2.168   1.893   5.768  0.0038 -0.9101  0.0444
 7144SOL     OW22330   6.669   0.156   5.056  0.6857 -0.0772 -0.3778
 7144SOL    HW122331   6.703   0.245   5.088  1.3978 -0.6193  0.4119
 7144SOL    HW222332   6.598   0.171   4.987  0.2108  1.1276  0.3263
 7145SOL     OW22333   5.230   2.123   4.800  0.2315  0.1531 -0.7424
 7145SOL    HW122334   5.192   2.053   4.739 -0.4119 -1.4393  1.3596
 7145SOL    HW222335   5.329   2.111   4.807  0.0928 -0.8310 -0.1504
 7146SOL     OW22336   0.452   0.410   4.102 -0.1629 -0.0731 -0.4104
 7146SOL    HW122337   0.503   0.412   4.188  1.5764  1.4798 -1.4035
 7146SOL    HW222338   0.512   0.382   4.027 -1.1381  0.3850 -1.4049
 7147SOL     OW22339   0.155   5.895   1.579 -0.1190  0.4107 -0.3936
 7147SOL    HW122340   0.158   5.995   1.569 -2.2191  0.4443 -1.0406
 7147SOL    HW222341   0.174   5.871   1.674 -1.1875  1.5482  0.1328
 7148SOL     OW22342   5.535   6.291   1.294  0.5583  1.0651 -0.0686
 7148SOL    HW122343   5.547   6.206   1.345 -1.7419  0.7803  0.0934
 7148SOL    HW222344   5.530   6.271   1.196 -1.4643  0.7713  0.0570
 7149SOL     OW22345   5.468   4.899   5.478 -0.3714 -0.6587  0.1841
 7149SOL    HW122346   5.379   4.855   5.488  0.4668 -2.5044 -0.1108
 7149SOL    HW222347   5.506   4.877   5.388  0.8637 -0.8088  0.7341
 7150SOL     OW22348   4.017   2.426   6.017  0.4268 -0.2098  0.4625
 7150SOL    HW122349   3.928   2.413   6.061  0.3997 -1.3981  0.1031
 7150SOL    HW222350   4.004   2.436   5.918  0.6198  0.7393  0.5214
 7151SOL     OW22351   6.698   1.808   0.360 -0.2527 -0.0404  0.0306
 7151SOL    HW122352   6.629   1.736   0.353  0.7062 -0.9858  0.0786
 7151SOL    HW222353   6.785   1.775   0.323  0.4393  0.7900  0.8731
 7152SOL     OW22354   6.817   0.173   5.623 -0.0055  0.2730  0.4390
 7152SOL    HW122355   6.768   0.165   5.709  2.5358  0.9956  2.0662
 7152SOL    HW222356   6.858   0.264   5.616 -2.0748  1.1236 -2.7185
 7153SOL     OW22357   4.218   6.739   1.605 -0.0036 -0.0757 -0.1301
 7153SOL    HW122358   4.135   6.699   1.642  0.4348 -2.5501 -1.6316
 7153SOL    HW222359   4.195   6.821   1.553 -1.3853 -0.2565  0.1502
 7154SOL     OW22360   5.199   5.924   1.575 -0.4361 -0.0295  0.3233
 7154SOL    HW122361   5.151   5.867   1.508 -0.8128 -0.8808  1.2909
 7154SOL    HW222362   5.131   5.973   1.630 -0.1400  0.2856  0.4083
 7155SOL     OW22363   3.047   6.817   0.888  0.0589  0.1914 -0.1183
 7155SOL    HW122364   2.998   6.824   0.975 -0.2772 -1.5502 -0.1355
 7155SOL    HW222365   3.013   6.739   0.836  1.7987 -0.1616 -0.8167
 7156SOL     OW22366   5.751   4.095   6.128  0.2232 -0.4453  0.0775
 7156SOL    HW122367   5.707   4.005   6.135 -0.2341 -0.3508 -1.2151
 7156SOL    HW222368   5.820   4.093   6.055  0.5599  0.1100  0.3768
 7157SOL     OW22369   0.019   4.150   6.238 -0.1924 -0.6245  0.2129
 7157SOL    HW122370  -0.039   4.078   6.275  0.4551 -0.9642  0.5926
 7157SOL    HW222371   0.055   4.206   6.313 -0.2891 -0.2173 -0.0406
 7158SOL     OW22372   5.956   1.974   2.569 -0.0108  0.0061  0.2889
 7158SOL    HW122373   5.988   2.068   2.563  3.0624 -0.9026  0.7029
 7158SOL    HW222374   5.944   1.949   2.666  1.9984 -0.8147  0.3644
 7159SOL     OW22375   3.499   5.708   4.473  0.2541 -0.4797  0.2139
 7159SOL    HW122376   3.465   5.701   4.567 -0.6473  2.7866  0.2492
 7159SOL    HW222377   3.576   5.772   4.469  0.5434 -0.8683 -1.2222
 7160SOL     OW22378   6.137   1.985   2.244 -0.0019  0.2694  0.1507
 7160SOL    HW122379   6.103   1.976   2.150  0.7994  0.7048 -0.1931
 7160SOL    HW222380   6.169   1.897   2.277 -1.5855 -0.1909  0.5473
 7161SOL     OW22381   3.662   4.017   2.696  0.5876 -0.2009 -0.6673
 7161SOL    HW122382   3.641   3.973   2.784 -1.5262  0.4249 -0.8098
 7161SOL    HW222383   3.604   3.979   2.625  0.3868  1.1494 -1.2603
 7162SOL     OW22384   1.441   6.072   1.489  0.3190 -0.0900  0.1388
 7162SOL    HW122385   1.390   6.103   1.569  0.4367 -1.2922  0.7057
 7162SOL    HW222386   1.523   6.127   1.478 -1.0528  1.9051 -0.8079
 7163SOL     OW22387   0.916   1.471   7.013 -0.2279  0.2075 -0.2158
 7163SOL    HW122388   0.834   1.416   7.027 -0.8586  1.1383 -0.1707
 7163SOL    HW222389   0.953   1.452   6.922  0.8272 -1.8910  0.5786
 7164SOL     OW22390   2.342   5.308   0.304  0.4829 -0.1981 -0.2114
 7164SOL    HW122391   2.310   5.362   0.226 -1.1302  0.0017  0.5605
 7164SOL    HW222392   2.398   5.365   0.364 -0.2185  0.2946 -0.0185
 7165SOL     OW22393   5.224   0.801   6.878 -0.2074  0.4121  0.1953
 7165SOL    HW122394   5.322   0.784   6.880 -0.2139  0.2306 -0.4970
 7165SOL    HW222395   5.200   0.849   6.793 -0.4849  2.0604  1.1708
 7166SOL     OW22396   0.405   5.721   5.669  0.3225  0.7970 -0.6787
 7166SOL    HW122397   0.333   5.653   5.661 -2.9182  3.7824  0.4939
 7166SOL    HW222398   0.415   5.770   5.582 -0.6378  1.7288 -0.2930
 7167SOL     OW22399   6.274   3.682   6.992  0.3664 -0.4580 -0.3869
 7167SOL    HW122400   6.180   3.653   6.975  0.3330 -0.3247 -0.4299
 7167SOL    HW222401   6.333   3.650   6.918 -0.0034  1.2880 -1.4815
 7168SOL     OW22402   0.514   0.030   2.290  0.2080 -0.1172 -0.3558
 7168SOL    HW122403   0.586   0.077   2.341  0.2666  0.3610 -0.8612
 7168SOL    HW222404   0.452  -0.015   2.353  0.4370  0.2274  0.1205
 7169SOL     OW22405   0.665   4.145   6.522  0.3182  0.1713 -0.4223
 7169SOL    HW122406   0.760   4.172   6.541  0.2040  0.7212 -0.6155
 7169SOL    HW222407   0.648   4.054   6.559  1.1851 -0.3136 -1.1878
 7170SOL     OW22408   4.516   1.999   0.614 -0.2746 -0.3748  0.7813
 7170SOL    HW122409   4.569   2.084   0.608 -0.4589 -0.3606 -1.3052
 7170SOL    HW222410   4.526   1.948   0.529 -1.4582 -1.6895  1.3981
 7171SOL     OW22411   5.997   4.550   0.267 -0.9077  0.0460 -0.9087
 7171SOL    HW122412   5.919   4.518   0.320 -1.1735  0.8940 -0.7729
 7171SOL    HW222413   5.999   4.650   0.267  0.5214  0.0505 -0.3774
 7172SOL     OW22414   0.497   1.696   2.534  0.0596  0.1004 -0.5345
 7172SOL    HW122415   0.535   1.777   2.578  1.6473 -0.3430 -1.0439
 7172SOL    HW222416   0.570   1.642   2.494 -1.0673 -1.1025 -1.0461
 7173SOL     OW22417   4.590   6.124   4.445  0.4258  0.1988 -0.6806
 7173SOL    HW122418   4.648   6.196   4.483  0.2942 -0.2903  0.5087
 7173SOL    HW222419   4.582   6.049   4.511  0.5528 -0.9143 -1.8899
 7174SOL     OW22420   4.898   5.136   0.957 -0.8128  0.3546 -0.3219
 7174SOL    HW122421   4.975   5.117   1.019 -1.6828 -1.8642  0.1711
 7174SOL    HW222422   4.909   5.081   0.874 -0.9618  1.3996 -1.0381
 7175SOL     OW22423   6.267   4.838   5.179 -0.2749  0.2311  0.3030
 7175SOL    HW122424   6.168   4.846   5.166 -0.2427  0.3138  0.1100
 7175SOL    HW222425   6.313   4.916   5.135 -0.2337  1.0197  1.6701
 7176SOL     OW22426   0.682   1.386   6.485 -0.2135 -0.0884  0.1268
 7176SOL    HW122427   0.775   1.350   6.479  0.0096  0.6740 -1.4228
 7176SOL    HW222428   0.664   1.445   6.407 -2.3068 -0.9068 -0.0649
 7177SOL     OW22429   1.716   3.779   2.097 -0.1209  0.8566  0.3143
 7177SOL    HW122430   1.652   3.758   2.023 -0.7110 -2.3332  1.5690
 7177SOL    HW222431   1.665   3.813   2.177  0.0297  0.5399  0.5476
 7178SOL     OW22432   2.167   0.213   4.604 -0.1319  0.4599 -0.4678
 7178SOL    HW122433   2.264   0.188   4.595 -1.0500 -2.8898 -3.1677
 7178SOL    HW222434   2.119   0.140   4.653 -1.2446  2.5135  1.6619
 7179SOL     OW22435   3.661   5.201   5.839 -0.4596 -0.2349  0.0996
 7179SOL    HW122436   3.638   5.107   5.812  1.4290 -0.6961 -0.1029
 7179SOL    HW222437   3.724   5.198   5.917  0.2229  0.8180 -0.3779
 7180SOL     OW22438   1.696   3.473   1.526 -0.4250 -0.3473  0.6730
 7180SOL    HW122439   1.729   3.521   1.607  0.4509 -0.3066  0.3025
 7180SOL    HW222440   1.639   3.534   1.471  1.9389  0.8438 -0.6065
 7181SOL     OW22441   0.500   2.999   1.968 -0.0057  0.0508 -0.7029
 7181SOL    HW122442   0.550   2.999   2.055  0.5548  1.8267 -0.9823
 7181SOL    HW222443   0.530   2.921   1.913  1.5875  0.3674 -0.3512
 7182SOL     OW22444   3.735   6.629   5.118 -0.5991  0.4242 -0.2601
 7182SOL    HW122445   3.765   6.538   5.149 -1.2241  0.1866 -0.3458
 7182SOL    HW222446   3.760   6.641   5.022  0.1992  0.6602 -0.0278
 7183SOL     OW22447   2.541   5.381   1.456  0.0214 -0.2232  0.2745
 7183SOL    HW122448   2.632   5.352   1.486 -0.5504 -2.0246  0.3912
 7183SOL    HW222449   2.515   5.330   1.375 -1.2646 -0.4255  0.7900
 7184SOL     OW22450   0.502   0.793   4.647 -0.0542  0.7005  0.1814
 7184SOL    HW122451   0.417   0.805   4.697  0.5376  0.2816  1.3275
 7184SOL    HW222452   0.501   0.850   4.565 -1.4428  0.6613  0.1586
 7185SOL     OW22453   4.581   1.574   2.243  1.2205  0.2581 -0.1588
 7185SOL    HW122454   4.588   1.644   2.314  0.6161  1.0253 -0.8476
 7185SOL    HW222455   4.655   1.586   2.177  2.4563 -1.1336  0.8974
 7186SOL     OW22456   6.257   0.709   0.889  0.0840  0.1897 -0.3277
 7186SOL    HW122457   6.218   0.625   0.851 -1.0656  0.7291 -0.3874
 7186SOL    HW222458   6.356   0.698   0.899 -0.0086 -1.0712 -0.5772
 7187SOL     OW22459   3.747   4.103   4.228 -0.1837  0.5092  0.1416
 7187SOL    HW122460   3.740   4.121   4.130  2.3738 -1.2187 -0.4694
 7187SOL    HW222461   3.663   4.060   4.260 -0.2642 -0.9821 -1.8428
 7188SOL     OW22462   5.159   0.791   6.367  0.0433  0.2494 -0.1444
 7188SOL    HW122463   5.122   0.699   6.351  0.1137  0.2482 -0.2967
 7188SOL    HW222464   5.086   0.858   6.355 -1.1416 -0.0349  3.9751
 7189SOL     OW22465   6.605   1.614   5.962 -0.0264  0.4022  0.0093
 7189SOL    HW122466   6.668   1.689   5.984  0.0767 -0.1484  1.6923
 7189SOL    HW222467   6.551   1.591   6.042 -0.7478 -0.6929 -0.7662
 7190SOL     OW22468   6.268   6.020   0.222  0.1077  0.0254 -0.3404
 7190SOL    HW122469   6.354   6.058   0.256 -1.0880  0.2875  2.7353
 7190SOL    HW222470   6.249   5.934   0.270 -0.2873 -1.2350 -2.6461
 7191SOL     OW22471   5.902   5.202   1.530 -0.5416 -0.2664  0.6362
 7191SOL    HW122472   5.845   5.167   1.606 -1.3024 -1.2709 -0.3543
 7191SOL    HW222473   5.861   5.174   1.443  0.1473  1.1396 -0.1676
 7192SOL     OW22474   2.824   4.233   5.295  0.1576 -0.0332  0.1213
 7192SOL    HW122475   2.845   4.322   5.257 -0.3140  0.0240 -0.0171
 7192SOL    HW222476   2.897   4.168   5.273  0.1023  0.1137 -0.4844
 7193SOL     OW22477   2.820   0.010   1.791  0.1680 -0.4216  0.4119
 7193SOL    HW122478   2.782   0.087   1.841  0.0649  1.3338 -2.1610
 7193SOL    HW222479   2.901   0.039   1.740 -1.1317 -1.3096 -2.3915
 7194SOL     OW22480   2.701   0.642   6.119 -0.3340  0.2448 -0.4942
 7194SOL    HW122481   2.624   0.605   6.068  0.3803  0.8654 -2.0889
 7194SOL    HW222482   2.736   0.723   6.073  0.0291  1.1543  1.2986
 7195SOL     OW22483   0.045   2.696   6.643  0.1182 -0.2851  0.0805
 7195SOL    HW122484   0.037   2.597   6.626 -0.3774 -0.6334  2.1050
 7195SOL    HW222485  -0.042   2.740   6.619 -0.8877 -0.9012  2.3179
 7196SOL     OW22486   3.325   2.958   1.040 -0.9424 -0.1885 -0.2334
 7196SOL    HW122487   3.265   2.892   1.084  1.7991 -1.9341  1.1184
 7196SOL    HW222488   3.418   2.947   1.073 -0.0251  3.3323 -1.1793
 7197SOL     OW22489   2.195   5.039   1.790 -0.2314  0.0758  0.2228
 7197SOL    HW122490   2.153   4.973   1.727 -1.1744 -0.1842  1.0991
 7197SOL    HW222491   2.217   4.993   1.876 -0.9737  0.9109  0.8715
 7198SOL     OW22492   0.134   3.132   3.106  0.1568 -0.5851 -0.4166
 7198SOL    HW122493   0.058   3.128   3.171  1.4681  1.3724  1.3278
 7198SOL    HW222494   0.131   3.050   3.048 -1.6528 -1.9254  1.3919
 7199SOL     OW22495   6.103   2.251   3.255  0.4905 -0.4326  0.1291
 7199SOL    HW122496   6.188   2.278   3.212  1.6923  0.6718  2.9221
 7199SOL    HW222497   6.060   2.330   3.298 -1.7065 -1.0725 -0.7423
 7200SOL     OW22498   5.940   2.911   4.920  0.0212  0.1139  0.5245
 7200SOL    HW122499   5.863   2.852   4.943 -0.5155 -0.0016 -1.4030
 7200SOL    HW222500   6.021   2.855   4.902  0.2688  0.1667  1.4207
 7201SOL     OW22501   1.671   6.896   5.313 -0.0689  0.1902  0.0590
 7201SOL    HW122502   1.579   6.934   5.304 -0.5597 -1.1063 -0.6892
 7201SOL    HW222503   1.666   6.802   5.345  0.9834  0.0106 -0.2427
 7202SOL     OW22504   4.724   0.809   5.859 -0.1962  0.1560 -0.1431
 7202SOL    HW122505   4.635   0.819   5.814  0.1973  0.9699 -0.7670
 7202SOL    HW222506   4.716   0.744   5.935 -1.4888  0.7886  0.2835
 7203SOL     OW22507   6.729   2.339   1.686 -0.1582  0.0513 -0.1071
 7203SOL    HW122508   6.810   2.396   1.700 -1.5441  1.6491  2.0364
 7203SOL    HW222509   6.670   2.382   1.617 -0.6543  0.6178  0.6584
 7204SOL     OW22510   5.483   1.571   3.654  0.2938 -0.0383  0.1028
 7204SOL    HW122511   5.496   1.534   3.746 -0.5475 -2.6576 -0.7366
 7204SOL    HW222512   5.572   1.593   3.614  0.8248 -0.7507  0.8593
 7205SOL     OW22513   2.085   1.123   4.509  0.6801 -0.4673  0.2363
 7205SOL    HW122514   2.091   1.025   4.494  0.3972 -0.6542  1.2686
 7205SOL    HW222515   2.155   1.151   4.574  0.4885 -0.0497  0.2668
 7206SOL     OW22516   0.751   5.557   6.175  0.1411 -0.3489 -0.1713
 7206SOL    HW122517   0.710   5.636   6.221  1.5624  0.4701 -0.2438
 7206SOL    HW222518   0.716   5.472   6.214 -0.7150  0.3213  0.5401
 7207SOL     OW22519   2.363   0.479   3.694  0.2284 -0.1719 -0.4846
 7207SOL    HW122520   2.383   0.576   3.675  0.7321 -0.4636 -1.5370
 7207SOL    HW222521   2.398   0.455   3.784 -1.0284  0.9465  0.3420
 7208SOL     OW22522   2.580   1.774   2.977 -0.0642 -0.1378 -0.1047
 7208SOL    HW122523   2.635   1.843   3.025 -1.3002  1.1061 -0.4079
 7208SOL    HW222524   2.554   1.809   2.887 -2.0594 -0.3005  0.3668
 7209SOL     OW22525   3.040   0.070   2.103 -0.2991 -0.3558 -0.1592
 7209SOL    HW122526   2.950   0.034   2.130 -0.1027 -0.0307  0.9744
 7209SOL    HW222527   3.083   0.007   2.038 -1.6106 -0.1988 -1.2310
 7210SOL     OW22528   2.310   2.206   4.766 -0.6517  0.3353  0.1117
 7210SOL    HW122529   2.400   2.216   4.722 -0.2184 -1.3783  0.5378
 7210SOL    HW222530   2.261   2.293   4.760  1.0076  1.3055 -0.1692
 7211SOL     OW22531   3.925   6.408   5.924 -0.4456  0.5908  0.1603
 7211SOL    HW122532   3.896   6.478   5.989 -1.8958  1.6672 -1.5365
 7211SOL    HW222533   3.996   6.445   5.865 -1.5890  0.8920 -1.0902
 7212SOL     OW22534   0.733   6.080   5.979  0.8128 -0.1034  0.1517
 7212SOL    HW122535   0.771   6.154   6.034 -3.0862  0.7868  1.9660
 7212SOL    HW222536   0.675   6.022   6.037 -0.9290 -1.0618 -2.3732
 7213SOL     OW22537   4.612   2.810   1.337 -0.0436  0.4730 -0.1591
 7213SOL    HW122538   4.631   2.712   1.335  0.7107  0.5236  1.9946
 7213SOL    HW222539   4.688   2.860   1.295 -0.7395  0.1495 -1.8907
 7214SOL     OW22540   5.705   6.323   5.340  0.9104  0.4191 -0.2186
 7214SOL    HW122541   5.659   6.261   5.276 -0.6792  1.5772 -0.2619
 7214SOL    HW222542   5.638   6.361   5.403  2.1994  0.5538  1.1171
 7215SOL     OW22543   5.990   2.261   1.076  0.4854  0.2898  0.2547
 7215SOL    HW122544   5.918   2.235   1.140  0.7934 -2.1733 -0.2669
 7215SOL    HW222545   5.957   2.334   1.016 -1.6910 -0.8919 -0.0874
 7216SOL     OW22546   6.785   0.065   4.633  0.5435 -0.2549 -0.2372
 7216SOL    HW122547   6.867   0.048   4.579 -0.4718  0.2035 -2.0234
 7216SOL    HW222548   6.718  -0.008   4.615  0.9141 -1.2077  2.0145
 7217SOL     OW22549   5.658   4.199   3.709 -0.3351  0.8110  0.2789
 7217SOL    HW122550   5.577   4.257   3.708 -0.2926  0.8667  0.0455
 7217SOL    HW222551   5.708   4.212   3.795 -0.8209  0.4304  0.6274
 7218SOL     OW22552   0.169   6.551   5.291  0.6779 -0.5109  0.1555
 7218SOL    HW122553   0.105   6.584   5.222 -0.1269  0.3713  1.2932
 7218SOL    HW222554   0.144   6.588   5.381  1.3302 -2.1015  1.0447
 7219SOL     OW22555   1.940   4.677   2.929  0.4924  0.0249 -0.3281
 7219SOL    HW122556   1.898   4.724   3.007  2.1547 -0.2707  0.7878
 7219SOL    HW222557   1.886   4.694   2.847  1.6904  5.0335 -0.3533
 7220SOL     OW22558   6.566   3.556   2.933 -0.1093  0.0076  0.6904
 7220SOL    HW122559   6.574   3.637   2.991 -2.4268  0.3274  0.6468
 7220SOL    HW222560   6.554   3.475   2.991 -1.8201  0.2486  0.7049
 7221SOL     OW22561   4.147   4.727   3.023  0.7024  0.0506 -0.1965
 7221SOL    HW122562   4.211   4.778   3.081  0.9478 -0.4609 -0.0128
 7221SOL    HW222563   4.194   4.648   2.983 -0.1462 -1.0864  0.9880
 7222SOL     OW22564   1.114   3.278   5.443 -0.2997  0.7166 -0.4376
 7222SOL    HW122565   1.203   3.295   5.486  0.1436 -1.0074 -0.6023
 7222SOL    HW222566   1.125   3.276   5.343 -0.1192 -1.3871 -0.4081
 7223SOL     OW22567   1.126   6.291   1.506 -0.1429 -0.3057 -0.1565
 7223SOL    HW122568   1.185   6.216   1.536 -1.6108 -1.3922  0.1283
 7223SOL    HW222569   1.036   6.280   1.546 -0.1045  2.2782  0.8232
 7224SOL     OW22570   5.049   1.125   1.176  0.4114 -0.0025  0.5297
 7224SOL    HW122571   5.014   1.218   1.190  0.4962 -0.1196  1.5690
 7224SOL    HW222572   5.017   1.066   1.250 -3.0568 -1.8219 -2.1310
 7225SOL     OW22573   1.213   5.729   6.782 -0.2644 -0.1591  0.3273
 7225SOL    HW122574   1.288   5.718   6.847  0.5562  0.6413 -0.4579
 7225SOL    HW222575   1.216   5.655   6.715  0.4156  0.3993 -0.2675
 7226SOL     OW22576   5.536   6.134   0.749  0.4547  0.2161 -0.7465
 7226SOL    HW122577   5.545   6.234   0.758  1.7169 -0.0374  2.1369
 7226SOL    HW222578   5.627   6.093   0.745  0.1161 -0.9519  1.5749
 7227SOL     OW22579   3.205   0.170   2.797  0.2649 -0.6088 -0.1306
 7227SOL    HW122580   3.215   0.256   2.848 -3.1898  0.2481 -0.6624
 7227SOL    HW222581   3.206   0.188   2.699  1.8326 -1.5601 -0.3248
 7228SOL     OW22582   5.155   2.265   0.284 -0.3801  0.3040 -0.6075
 7228SOL    HW122583   5.092   2.255   0.207 -0.3228 -2.0898 -0.4039
 7228SOL    HW222584   5.201   2.178   0.302  0.2393  1.0109  1.6076
 7229SOL     OW22585   6.672   0.797   2.504 -0.3481 -0.0272  0.0842
 7229SOL    HW122586   6.621   0.863   2.559  0.2155 -0.2427  0.8964
 7229SOL    HW222587   6.669   0.824   2.408 -1.9190 -0.0091  0.1130
 7230SOL     OW22588   2.401   5.848   0.528  0.2725 -0.1244  0.3805
 7230SOL    HW122589   2.414   5.852   0.627 -0.0491 -2.2646  0.5624
 7230SOL    HW222590   2.305   5.828   0.508  0.7063 -1.8034 -0.2327
 7231SOL     OW22591   2.567   3.206   5.647 -0.1717  0.1656 -0.6242
 7231SOL    HW122592   2.511   3.137   5.692 -2.1571  1.8402 -0.4153
 7231SOL    HW222593   2.583   3.179   5.552 -2.0628 -0.0003 -0.9336
 7232SOL     OW22594   5.554   6.800   4.038 -0.2746  0.1136  0.2803
 7232SOL    HW122595   5.632   6.739   4.026 -0.7109 -0.1064 -1.9158
 7232SOL    HW222596   5.538   6.850   3.952 -1.5810  1.3245  1.1874
 7233SOL     OW22597   0.012   3.147   0.355 -0.4122  0.4045  0.1991
 7233SOL    HW122598   0.037   3.173   0.261 -0.6830  1.0504  0.3029
 7233SOL    HW222599   0.055   3.209   0.420  0.6268 -0.6729  0.5752
 7234SOL     OW22600   4.331   5.216   2.336  0.1098 -0.0354  0.3416
 7234SOL    HW122601   4.365   5.126   2.365  0.8694  0.5410  1.3387
 7234SOL    HW222602   4.308   5.271   2.417 -1.6392  0.2123 -0.2797
 7235SOL     OW22603   6.050   0.673   1.353  0.1607  0.0851 -0.2973
 7235SOL    HW122604   5.952   0.690   1.336 -0.0017 -0.9300 -0.4551
 7235SOL    HW222605   6.103   0.708   1.277 -0.0795  0.6820 -0.1934
 7236SOL     OW22606   1.109   3.606   3.155 -0.1011 -0.1875  0.0821
 7236SOL    HW122607   1.182   3.582   3.091 -0.0780  0.2577 -0.0668
 7236SOL    HW222608   1.024   3.561   3.127  0.1467 -0.8074  0.3297
 7237SOL     OW22609   5.394   2.345   0.872 -0.0751 -0.8038 -0.5257
 7237SOL    HW122610   5.485   2.326   0.909  0.6329  1.5116 -0.8876
 7237SOL    HW222611   5.386   2.443   0.854 -2.4538 -1.0454 -1.0664
 7238SOL     OW22612   4.105   3.599   5.787  0.4036 -0.0688 -0.0935
 7238SOL    HW122613   4.058   3.519   5.748  0.0957  0.1113 -0.0931
 7238SOL    HW222614   4.161   3.570   5.864  0.6245 -0.3517 -0.3589
 7239SOL     OW22615   6.709   3.864   3.006  0.2108  0.3454  0.3823
 7239SOL    HW122616   6.681   3.869   2.910  1.7375  0.6181 -0.0880
 7239SOL    HW222617   6.786   3.801   3.014  0.0522  0.2773  1.4501
 7240SOL     OW22618   0.608   1.530   6.723  0.4253 -0.1715  0.4968
 7240SOL    HW122619   0.509   1.523   6.734  0.3255  1.0798  0.5889
 7240SOL    HW222620   0.637   1.475   6.644 -0.7594  1.6016 -1.2916
 7241SOL     OW22621   2.237   4.117   2.686 -0.0839 -0.6401  0.5547
 7241SOL    HW122622   2.224   4.057   2.608  2.7692  0.0497 -0.5577
 7241SOL    HW222623   2.252   4.062   2.768  1.5250 -1.4641 -0.2645
 7242SOL     OW22624   0.555   4.095   5.076  0.7154  0.1560 -0.2634
 7242SOL    HW122625   0.611   4.011   5.070 -0.0106 -0.2952 -0.9059
 7242SOL    HW222626   0.558   4.142   4.988  0.9383  0.7003  0.0311
 7243SOL     OW22627   4.625   5.785   5.046 -0.1324  0.4499  0.1271
 7243SOL    HW122628   4.644   5.688   5.038 -0.7239  0.3258  0.1911
 7243SOL    HW222629   4.545   5.808   4.991 -0.6683  0.6889  0.9888
 7244SOL     OW22630   0.797   5.176   6.062 -0.8179  0.1207  0.1730
 7244SOL    HW122631   0.778   5.080   6.084 -0.6617  0.3542  1.3914
 7244SOL    HW222632   0.895   5.189   6.051 -0.9872 -0.4143 -2.8799
 7245SOL     OW22633   0.750   3.312   6.813  0.1458  0.4413  0.6481
 7245SOL    HW122634   0.829   3.363   6.847 -0.7646  0.2753  3.2453
 7245SOL    HW222635   0.683   3.302   6.887 -2.4981  0.8997 -1.5480
 7246SOL     OW22636   3.485   0.544   4.247 -0.2456  0.2498  0.1453
 7246SOL    HW122637   3.491   0.632   4.294 -2.0132  1.2470 -1.3586
 7246SOL    HW222638   3.397   0.502   4.267  0.5954 -1.2620  0.8834
 7247SOL     OW22639   2.443   2.769   6.584  0.1992  0.4442 -0.4065
 7247SOL    HW122640   2.418   2.691   6.640 -0.0441  0.5386 -0.3827
 7247SOL    HW222641   2.366   2.794   6.525 -0.0113  1.1804  0.1741
 7248SOL     OW22642   3.614   1.521   4.118 -0.1585 -0.2072  0.8428
 7248SOL    HW122643   3.669   1.595   4.156 -0.9099  0.7923  0.0541
 7248SOL    HW222644   3.636   1.510   4.021 -0.8818 -0.2378  0.6808
 7249SOL     OW22645   3.536   5.480   4.338 -0.5923  0.3044 -0.1668
 7249SOL    HW122646   3.477   5.471   4.257 -1.6078 -1.5023  0.7169
 7249SOL    HW222647   3.500   5.552   4.397 -1.7335 -0.5259  0.1828
 7250SOL     OW22648   0.261   0.786   5.036  0.1675  0.1550  0.2660
 7250SOL    HW122649   0.184   0.724   5.048  1.8709 -1.9346  1.1088
 7250SOL    HW222650   0.342   0.747   5.079  1.9983  1.7281 -1.5299
 7251SOL     OW22651   1.194   6.471   5.787 -0.2504 -0.1021 -0.2682
 7251SOL    HW122652   1.103   6.511   5.775 -0.8415 -0.7708  1.5531
 7251SOL    HW222653   1.217   6.413   5.709 -1.6889 -0.4624 -0.4476
 7252SOL     OW22654   3.482   4.093   1.907 -0.5072  0.4202  0.1514
 7252SOL    HW122655   3.547   4.030   1.950 -0.2003 -0.3679 -1.4003
 7252SOL    HW222656   3.390   4.078   1.945 -0.3041 -0.4685  0.2984
 7253SOL     OW22657   1.738   5.603   4.621  0.2603  0.2217 -0.7149
 7253SOL    HW122658   1.749   5.696   4.586  0.0791 -0.0943 -1.6253
 7253SOL    HW222659   1.660   5.600   4.683  0.4427  0.7333 -0.4494
 7254SOL     OW22660   5.717   4.672   1.805 -0.0241  0.4057  0.8057
 7254SOL    HW122661   5.658   4.680   1.724 -0.6642 -1.8859  0.9882
 7254SOL    HW222662   5.701   4.750   1.865 -0.8848  1.2048 -0.4087
 7255SOL     OW22663   4.454   2.875   0.790 -0.6600  0.2209 -0.1643
 7255SOL    HW122664   4.373   2.910   0.837 -0.7432  0.4785 -0.4905
 7255SOL    HW222665   4.463   2.777   0.807 -0.2776  0.4419  0.9824
 7256SOL     OW22666   2.843   0.276   4.965  0.3534  0.5900 -0.8393
 7256SOL    HW122667   2.833   0.342   5.040  1.1541 -0.4117  0.1748
 7256SOL    HW222668   2.872   0.324   4.882 -2.2687  1.9913 -1.0417
 7257SOL     OW22669   0.965   5.892   5.187 -0.5591  0.4701  0.0089
 7257SOL    HW122670   0.981   5.979   5.139 -1.9617  0.7339 -0.0042
 7257SOL    HW222671   1.012   5.894   5.276  2.2434 -0.1051 -1.3508
 7258SOL     OW22672   6.662   2.508   2.328  0.8167  0.1648 -0.2053
 7258SOL    HW122673   6.630   2.510   2.423 -1.4314  1.9136 -0.9134
 7258SOL    HW222674   6.643   2.419   2.288 -0.7034  0.2648  0.2372
 7259SOL     OW22675   2.124   4.560   1.412 -0.0685  0.0190  1.0583
 7259SOL    HW122676   2.122   4.585   1.509  2.7866 -1.6855  1.6625
 7259SOL    HW222677   2.164   4.635   1.359 -1.2474  0.7869  1.2112
 7260SOL     OW22678   6.116   4.040   0.314 -0.6017 -0.4521 -0.0315
 7260SOL    HW122679   6.146   4.109   0.380 -0.6880  0.1017 -0.5638
 7260SOL    HW222680   6.143   4.067   0.222  0.0830 -1.5374 -0.1696
 7261SOL     OW22681   6.846   2.814   6.499 -0.0337  0.2875 -0.0248
 7261SOL    HW122682   6.776   2.864   6.549 -0.1959  1.3144 -1.2314
 7261SOL    HW222683   6.868   2.863   6.414  0.3313 -1.3064 -0.8933
 7262SOL     OW22684   5.626   0.641   5.212 -0.3573  0.3973 -0.1613
 7262SOL    HW122685   5.534   0.604   5.206 -0.4602  0.8730 -2.9498
 7262SOL    HW222686   5.622   0.741   5.209  0.2196  0.4348  0.2051
 7263SOL     OW22687   0.114   6.337   6.135 -0.1513  0.0106 -0.0436
 7263SOL    HW122688   0.069   6.379   6.056 -3.3660 -2.1091  0.4613
 7263SOL    HW222689   0.045   6.317   6.205  1.8925 -2.1156  1.4766
 7264SOL     OW22690   5.334   1.709   2.738  0.0577 -0.3485  0.2367
 7264SOL    HW122691   5.405   1.667   2.794 -0.7351 -1.3813  0.5019
 7264SOL    HW222692   5.344   1.808   2.740  1.3268 -0.4669  0.4732
 7265SOL     OW22693   2.319   5.823   5.170 -0.0044  0.0639  0.6192
 7265SOL    HW122694   2.397   5.769   5.139  0.4976  0.1213  1.7482
 7265SOL    HW222695   2.310   5.905   5.112  1.2389  0.4478  0.9331
 7266SOL     OW22696   6.911   1.042   1.969 -0.7372 -0.7880 -0.2841
 7266SOL    HW122697   6.811   1.049   1.965 -0.7793 -1.5513 -0.6981
 7266SOL    HW222698   6.941   1.058   2.063 -1.2058 -0.0975 -0.2417
 7267SOL     OW22699   6.025   5.161   2.350 -0.7385  0.3065  0.3907
 7267SOL    HW122700   6.095   5.163   2.279 -1.3801 -0.9980 -0.2963
 7267SOL    HW222701   6.004   5.255   2.378 -0.3943  0.8382 -1.0497
 7268SOL     OW22702   6.374   0.071   2.190 -0.4137  0.5133  0.1764
 7268SOL    HW122703   6.456   0.043   2.240 -0.1039  1.6858  0.3611
 7268SOL    HW222704   6.375   0.170   2.178 -1.0755  0.3881 -1.1163
 7269SOL     OW22705   0.060   4.673   5.510  0.7624 -0.0323 -0.4444
 7269SOL    HW122706   0.111   4.587   5.514 -0.5446 -0.9504 -2.1008
 7269SOL    HW222707   0.118   4.745   5.472  1.7590 -0.2253  0.6350
 7270SOL     OW22708   6.523   0.573   3.191 -0.0669 -0.5865 -0.6117
 7270SOL    HW122709   6.596   0.523   3.236 -0.8259  0.3462  1.7921
 7270SOL    HW222710   6.530   0.670   3.213 -2.6236 -0.5931  0.6794
 7271SOL     OW22711   0.228   4.620   3.640  0.0066  0.1448  0.5722
 7271SOL    HW122712   0.263   4.532   3.606  0.0390 -0.5155  2.2041
 7271SOL    HW222713   0.305   4.679   3.664 -0.0107  0.1722  0.5595
 7272SOL     OW22714   0.819   3.542   1.657  0.2492  0.4086  0.3928
 7272SOL    HW122715   0.898   3.482   1.646  0.6433  1.0920 -0.6601
 7272SOL    HW222716   0.750   3.520   1.587 -0.0246  0.5329  0.6201
 7273SOL     OW22717   0.947   0.259   5.475  0.6800 -0.2780 -0.1447
 7273SOL    HW122718   0.966   0.336   5.413  1.2874 -0.5859 -0.3527
 7273SOL    HW222719   0.938   0.293   5.568  0.1741  0.1423 -0.3406
 7274SOL     OW22720   1.298   5.503   6.629  0.6371 -0.2190  0.2924
 7274SOL    HW122721   1.354   5.442   6.686 -2.4243 -1.5696  2.1056
 7274SOL    HW222722   1.224   5.451   6.587 -1.1757  1.9599  0.6136
 7275SOL     OW22723   0.958   5.789   2.954 -0.0831 -0.4650 -0.2504
 7275SOL    HW122724   0.874   5.833   2.925 -0.3528 -1.1280 -0.4831
 7275SOL    HW222725   1.007   5.754   2.874  0.1747 -0.5059 -0.0764
 7276SOL     OW22726   3.665   5.841   4.284  0.2833 -0.4892  0.4088
 7276SOL    HW122727   3.600   5.776   4.245 -1.3276  1.1610  0.2042
 7276SOL    HW222728   3.717   5.884   4.211 -2.2121  2.0535 -0.0627
 7277SOL     OW22729   3.739   0.077   0.452  0.0181  0.3767 -0.0655
 7277SOL    HW122730   3.757   0.088   0.354  2.4222  1.9529  0.4572
 7277SOL    HW222731   3.750  -0.019   0.477  1.2171  0.2317 -1.0545
 7278SOL     OW22732   3.864   3.621   2.410 -0.6494  0.2358 -0.3318
 7278SOL    HW122733   3.852   3.651   2.315 -0.6890 -1.6189 -0.9645
 7278SOL    HW222734   3.801   3.670   2.469 -1.0887  0.9557 -1.3632
 7279SOL     OW22735   1.780   6.272   5.413  0.1722  0.4209  0.2967
 7279SOL    HW122736   1.787   6.303   5.508  0.3296 -0.7582  0.6899
 7279SOL    HW222737   1.841   6.327   5.355 -0.1884  1.3800  0.8117
 7280SOL     OW22738   3.188   2.115   4.795  0.4100 -0.0941  0.1969
 7280SOL    HW122739   3.271   2.069   4.765  0.6208  0.5425 -0.2222
 7280SOL    HW222740   3.208   2.170   4.876  0.4234  0.1321  0.0415
 7281SOL     OW22741   5.499   1.686   5.677 -0.1946  0.0693 -0.4427
 7281SOL    HW122742   5.456   1.754   5.735  1.4080  1.2564 -0.5897
 7281SOL    HW222743   5.450   1.599   5.685 -0.8658  0.5906  1.5510
 7282SOL     OW22744   5.717   6.733   3.330  0.3559 -0.2738 -0.3205
 7282SOL    HW122745   5.692   6.687   3.415  0.4141 -1.4229 -0.9068
 7282SOL    HW222746   5.816   6.723   3.315  0.3935  0.1640 -0.4001
 7283SOL     OW22747   1.722   0.887   4.750 -0.3553 -0.0977 -0.1538
 7283SOL    HW122748   1.780   0.872   4.830 -0.4510  1.0345  0.1473
 7283SOL    HW222749   1.691   0.982   4.749 -3.8550 -1.0933  0.8233
 7284SOL     OW22750   0.234   3.317   5.189 -0.7058  0.2022 -0.0643
 7284SOL    HW122751   0.296   3.381   5.143 -0.7297  0.5525  0.3830
 7284SOL    HW222752   0.286   3.260   5.252 -0.4635 -1.1753 -1.4518
 7285SOL     OW22753   4.509   6.975   6.975  0.0160  0.0746 -0.1433
 7285SOL    HW122754   4.540   6.883   6.997 -1.8897 -0.6018 -0.1073
 7285SOL    HW222755   4.588   7.034   6.959  1.2679 -1.9475 -1.8231
 7286SOL     OW22756   1.607   5.265   0.502 -0.0222 -0.4459 -0.5039
 7286SOL    HW122757   1.561   5.264   0.414  0.6162  2.0602 -0.9499
 7286SOL    HW222758   1.539   5.262   0.576 -0.7647  0.5897 -1.1223
 7287SOL     OW22759   4.751   2.546   0.271 -0.0156 -0.1656  0.1779
 7287SOL    HW122760   4.749   2.636   0.316  0.0638  0.4071 -0.9195
 7287SOL    HW222761   4.665   2.497   0.290  0.7877 -0.7754  2.5325
 7288SOL     OW22762   3.477   6.876   1.341  0.3962  0.1383  0.4289
 7288SOL    HW122763   3.412   6.872   1.265  0.6027 -1.9686  0.3038
 7288SOL    HW222764   3.570   6.885   1.305  0.4970 -0.8919  0.4010
 7289SOL     OW22765   4.255   2.348   4.639 -0.2929  0.3947  0.4445
 7289SOL    HW122766   4.199   2.272   4.674 -1.4135  1.2426  0.5498
 7289SOL    HW222767   4.236   2.430   4.692 -0.1098  1.0828 -0.5345
 7290SOL     OW22768   3.584   4.875   5.236 -0.0674  0.3469  0.0453
 7290SOL    HW122769   3.639   4.905   5.158 -1.2629  0.6081 -0.7211
 7290SOL    HW222770   3.527   4.797   5.209 -0.8306  0.7340  0.5192
 7291SOL     OW22771   3.745   5.138   1.812  0.2271  0.0342 -0.2616
 7291SOL    HW122772   3.833   5.110   1.849  1.6998  4.3482  0.0653
 7291SOL    HW222773   3.691   5.181   1.885 -1.8043 -1.6368 -0.6936
 7292SOL     OW22774   4.842   5.801   2.920 -0.5383 -0.2493 -0.2175
 7292SOL    HW122775   4.911   5.773   2.853 -0.3885  1.1605 -0.6863
 7292SOL    HW222776   4.775   5.728   2.932 -1.0049 -0.2632 -2.4683
 7293SOL     OW22777   2.691   2.977   0.631  0.2391  0.2515  0.0211
 7293SOL    HW122778   2.664   2.888   0.667 -2.6643  1.1247  0.2667
 7293SOL    HW222779   2.609   3.030   0.608  1.8643  2.8016 -0.3161
 7294SOL     OW22780   4.786   6.881   0.857 -0.5519  0.4359 -0.6427
 7294SOL    HW122781   4.874   6.917   0.827  0.0623 -1.0276 -0.6750
 7294SOL    HW222782   4.761   6.920   0.946  0.5632  0.1829 -0.2117
 7295SOL     OW22783   3.672   0.425   1.637  0.8649 -0.0067  0.1803
 7295SOL    HW122784   3.685   0.390   1.730 -0.8501 -0.2475  0.3576
 7295SOL    HW222785   3.596   0.377   1.594  2.3896 -0.7651 -1.8320
 7296SOL     OW22786   2.004   5.263   1.466  0.1946  0.0920 -0.2397
 7296SOL    HW122787   2.059   5.344   1.486  0.5671  0.0606 -1.1050
 7296SOL    HW222788   2.061   5.181   1.474  0.3002  0.0610 -1.1536
 7297SOL     OW22789   6.221   6.690   3.823  0.0070 -0.1230 -0.2753
 7297SOL    HW122790   6.244   6.632   3.901 -1.9181 -0.1957  0.3055
 7297SOL    HW222791   6.122   6.683   3.806  0.1698  1.0329 -1.7965
 7298SOL     OW22792   5.630   5.434   4.683  0.1576  0.0295 -0.4228
 7298SOL    HW122793   5.594   5.492   4.610 -0.6576  2.7089  1.9268
 7298SOL    HW222794   5.562   5.426   4.756  1.7391 -0.6367  1.0554
 7299SOL     OW22795   4.591   4.436   0.060 -0.2209 -0.6216  0.0264
 7299SOL    HW122796   4.611   4.534   0.060  1.5131 -0.9348 -0.0620
 7299SOL    HW222797   4.532   4.413  -0.017  2.4991 -0.1806 -2.3568
 7300SOL     OW22798   5.583   0.580   1.154 -0.2126 -0.2047  0.4900
 7300SOL    HW122799   5.665   0.622   1.191  0.8417 -1.0813 -0.7685
 7300SOL    HW222800   5.525   0.651   1.113  2.2158  0.0593 -2.9236
 7301SOL     OW22801   5.710   2.510   5.505 -0.4950  0.0677 -0.1055
 7301SOL    HW122802   5.771   2.538   5.430  0.8114 -1.5977  0.2645
 7301SOL    HW222803   5.750   2.538   5.592  0.0103 -1.4235  0.1650
 7302SOL     OW22804   4.451   0.306   0.576 -0.3894 -0.6231  0.5224
 7302SOL    HW122805   4.450   0.215   0.536 -1.7185 -0.2569 -0.3527
 7302SOL    HW222806   4.532   0.356   0.546  0.3180 -1.4840  0.9665
 7303SOL     OW22807   3.121   0.096   0.496  0.0677 -0.5269  0.5912
 7303SOL    HW122808   3.207   0.064   0.535  0.5170  0.1472  0.1766
 7303SOL    HW222809   3.122   0.196   0.489 -0.5595 -0.5408  0.1561
 7304SOL     OW22810   3.770   4.091   4.735  0.9219  0.1352  0.8205
 7304SOL    HW122811   3.689   4.117   4.787  1.1040  2.2077  0.1380
 7304SOL    HW222812   3.851   4.135   4.776  1.3813 -0.0841  0.1619
 7305SOL     OW22813   0.413   2.468   1.038 -0.0499  0.3633  0.2281
 7305SOL    HW122814   0.423   2.371   1.059  1.6831  0.2443 -0.9560
 7305SOL    HW222815   0.320   2.498   1.062 -0.3912 -1.3874  1.2709
 7306SOL     OW22816   6.916   5.762   2.885 -0.1957 -0.0127  0.1748
 7306SOL    HW122817   7.015   5.778   2.886 -0.5087  2.3005 -0.3298
 7306SOL    HW222818   6.872   5.823   2.950 -1.3317 -0.8989  0.2612
 7307SOL     OW22819   3.892   2.179   4.549 -0.3994  0.1677  0.1359
 7307SOL    HW122820   3.957   2.203   4.476 -0.4828  0.3879  0.1329
 7307SOL    HW222821   3.933   2.196   4.638 -0.9111  1.5534  0.1259
 7308SOL     OW22822   0.007   2.607   4.001  0.4510  0.6052 -0.1852
 7308SOL    HW122823  -0.090   2.609   3.979  0.1571  1.1770  1.0808
 7308SOL    HW222824   0.042   2.514   3.988  0.0401  0.6373 -1.7790
 7309SOL     OW22825   4.077   5.057   1.683  0.1946 -0.4993 -0.0302
 7309SOL    HW122826   4.014   4.999   1.735 -0.0482 -1.0018 -0.8536
 7309SOL    HW222827   4.161   5.005   1.663  1.2707  0.4334  1.7751
 7310SOL     OW22828   1.936   6.622   3.297 -0.5381  0.1445 -0.1168
 7310SOL    HW122829   1.980   6.711   3.300 -1.8481  0.7954  1.6020
 7310SOL    HW222830   1.842   6.633   3.263 -0.7273 -0.5710  0.1648
 7311SOL     OW22831   0.924   1.356   2.591  0.1938 -0.0496  0.8347
 7311SOL    HW122832   0.975   1.408   2.659  0.6134 -0.8489  1.1463
 7311SOL    HW222833   0.971   1.269   2.574 -1.5543 -1.2416  1.8286
 7312SOL     OW22834   5.997   3.705   6.920 -0.2267  0.5453 -0.7885
 7312SOL    HW122835   5.992   3.682   6.822  0.5761  1.4221 -1.0481
 7312SOL    HW222836   5.913   3.752   6.947 -1.0389 -0.9003 -0.7172
 7313SOL     OW22837   4.989   4.638   0.481  0.5814 -0.3569 -0.3663
 7313SOL    HW122838   5.057   4.571   0.451  0.0282 -1.4829  0.7787
 7313SOL    HW222839   4.931   4.597   0.552 -0.3854  1.0405 -0.3061
 7314SOL     OW22840   0.994   1.776   5.009  0.3242  0.6821  0.5306
 7314SOL    HW122841   0.929   1.794   5.082  0.4112  1.5557  0.4076
 7314SOL    HW222842   0.949   1.729   4.934 -0.4044  2.0399  0.0763
 7315SOL     OW22843   6.173   1.789   5.881  0.0773 -0.0056 -0.2517
 7315SOL    HW122844   6.076   1.764   5.887  0.4650 -1.5052  0.1928
 7315SOL    HW222845   6.204   1.778   5.787  0.0203 -0.3669 -0.2308
 7316SOL     OW22846   3.391   3.482   5.146  0.5709 -0.0756  0.5091
 7316SOL    HW122847   3.375   3.429   5.063  0.4523  0.6091  0.0827
 7316SOL    HW222848   3.486   3.473   5.175  0.7103 -0.0096  0.0743
 7317SOL     OW22849   2.595   0.560   5.324 -0.7871  0.1621 -0.1576
 7317SOL    HW122850   2.532   0.513   5.262 -1.3154  1.8397 -0.9421
 7317SOL    HW222851   2.597   0.657   5.302 -0.5680  0.7322  2.1099
 7318SOL     OW22852   6.968   2.027   0.496  0.2232 -0.0112 -0.4521
 7318SOL    HW122853   6.884   1.983   0.527 -0.6128  1.0080 -1.2239
 7318SOL    HW222854   6.994   2.099   0.560  1.2405 -1.1543  0.4692
 7319SOL     OW22855   6.284   5.207   5.962 -0.0730 -0.1040  0.5472
 7319SOL    HW122856   6.337   5.141   6.016  0.3994  1.3624  1.9371
 7319SOL    HW222857   6.201   5.231   6.012  0.6670  1.7302  0.9590
 7320SOL     OW22858   0.209   2.428   2.778 -0.1403  0.3019  0.1891
 7320SOL    HW122859   0.110   2.440   2.788 -0.2256  0.2961 -0.6388
 7320SOL    HW222860   0.230   2.389   2.689  0.7673  2.5749 -0.6808
 7321SOL     OW22861   2.051   0.703   6.345 -0.0237  0.0205  0.4127
 7321SOL    HW122862   2.067   0.621   6.401  0.0280 -0.3191 -0.0974
 7321SOL    HW222863   2.139   0.746   6.323 -0.0728  0.4773  1.0558
 7322SOL     OW22864   5.411   5.876   2.776 -0.6649  0.0479  0.0652
 7322SOL    HW122865   5.467   5.912   2.701 -0.3742 -0.0545  0.2284
 7322SOL    HW222866   5.328   5.930   2.786 -0.7681 -0.0188 -0.4173
 7323SOL     OW22867   1.964   4.513   3.311 -0.2219 -0.0061 -0.1065
 7323SOL    HW122868   1.918   4.602   3.322 -0.6260 -0.2395  0.1322
 7323SOL    HW222869   1.967   4.466   3.399 -0.0141 -0.2310 -0.2340
 7324SOL     OW22870   6.333   5.037   2.051 -0.5163 -0.2118  0.4844
 7324SOL    HW122871   6.331   4.941   2.023 -0.2086 -0.1546  0.2620
 7324SOL    HW222872   6.421   5.056   2.097 -0.9669 -0.2810  1.4061
 7325SOL     OW22873   3.695   6.553   0.716 -0.5647 -0.4050  0.1187
 7325SOL    HW122874   3.628   6.535   0.644 -1.1039  0.1311  0.4808
 7325SOL    HW222875   3.673   6.639   0.762  1.2130  0.5705 -0.7459
 7326SOL     OW22876   3.832   6.457   5.568 -0.1260 -0.5195 -0.2852
 7326SOL    HW122877   3.765   6.387   5.542  0.0874 -1.9805  2.6364
 7326SOL    HW222878   3.791   6.517   5.637  0.9513 -0.1970  0.0798
 7327SOL     OW22879   1.230   2.079   5.409  0.2450  0.2262 -0.8909
 7327SOL    HW122880   1.232   2.178   5.422  1.0537  0.1367 -0.2205
 7327SOL    HW222881   1.136   2.046   5.410  0.0334  0.8224  0.2189
 7328SOL     OW22882   2.651   0.009   6.138  0.3702  0.3212 -0.4890
 7328SOL    HW122883   2.733   0.057   6.108 -0.1857  0.0064 -2.7259
 7328SOL    HW222884   2.571   0.047   6.092 -0.3973 -1.1182 -0.4150
 7329SOL     OW22885   4.376   3.353   1.597  0.0165  0.2193 -0.3749
 7329SOL    HW122886   4.329   3.386   1.678  0.1154 -1.1246  0.2514
 7329SOL    HW222887   4.412   3.261   1.614  2.3730  0.9527 -1.0091
 7330SOL     OW22888   3.045   1.144   0.023 -0.5658 -0.0662 -0.5352
 7330SOL    HW122889   3.041   1.118   0.120  0.7937 -1.9716 -0.9320
 7330SOL    HW222890   3.132   1.190   0.005 -1.2389  1.1767 -0.6774
 7331SOL     OW22891   5.980   1.059   0.730 -0.1138 -0.0822 -0.2051
 7331SOL    HW122892   6.011   1.154   0.727  1.1488 -0.4511  0.5612
 7331SOL    HW222893   5.910   1.045   0.660 -0.9946  1.6304  0.2602
 7332SOL     OW22894   2.644   4.953   0.806  0.3968 -0.5488 -0.5863
 7332SOL    HW122895   2.709   5.016   0.763  0.4813  0.6666  1.2212
 7332SOL    HW222896   2.561   5.003   0.829 -0.6098 -1.7476 -1.5052
 7333SOL     OW22897   5.910   4.316   2.931  0.0429  0.2788  0.1684
 7333SOL    HW122898   5.847   4.296   3.006 -0.3687 -1.2718 -0.5486
 7333SOL    HW222899   5.996   4.351   2.968 -0.4375  0.3160  1.2954
 7334SOL     OW22900   4.368   6.226   4.336  0.0052 -0.2776  0.0715
 7334SOL    HW122901   4.437   6.160   4.364  0.3101 -1.1330 -2.4841
 7334SOL    HW222902   4.407   6.291   4.270 -0.9922  0.8159  0.5079
 7335SOL     OW22903   1.528   3.154   2.417  0.3311 -0.2797  0.5013
 7335SOL    HW122904   1.613   3.181   2.463  0.0187 -1.0968  1.6029
 7335SOL    HW222905   1.501   3.064   2.449 -0.4164 -0.4579 -0.6115
 7336SOL     OW22906   1.612   4.570   4.368 -0.3152  0.3875  0.0328
 7336SOL    HW122907   1.547   4.503   4.405  0.8941 -1.1584 -0.5237
 7336SOL    HW222908   1.612   4.564   4.268  1.7994 -0.8407  0.0344
 7337SOL     OW22909   5.115   2.856   2.335 -0.0214 -0.0638  0.3866
 7337SOL    HW122910   5.150   2.883   2.245 -0.1128  0.5984  0.5475
 7337SOL    HW222911   5.017   2.872   2.340  0.0048  0.0281  0.6489
 7338SOL     OW22912   5.418   4.887   1.294  0.0632 -0.3837 -0.4482
 7338SOL    HW122913   5.518   4.893   1.296  0.1117 -1.2252  1.5502
 7338SOL    HW222914   5.389   4.792   1.301 -0.8666 -0.0725  0.3130
 7339SOL     OW22915   2.443   6.237   4.120 -0.3866 -0.0465  0.5543
 7339SOL    HW122916   2.432   6.314   4.057  1.2534 -0.5032 -0.3440
 7339SOL    HW222917   2.368   6.172   4.106 -0.3021  0.0838 -0.6371
 7340SOL     OW22918   4.404   6.834   5.379  0.1733 -0.3502  0.0094
 7340SOL    HW122919   4.337   6.772   5.420  1.1292 -1.0095  0.6237
 7340SOL    HW222920   4.445   6.890   5.452  1.5996 -1.2456 -0.0753
 7341SOL     OW22921   0.414   3.770   6.172  0.1659  0.4612 -0.1304
 7341SOL    HW122922   0.354   3.846   6.198  0.7181  0.6126  0.7179
 7341SOL    HW222923   0.365   3.709   6.110 -0.1608  1.7216 -1.1789
 7342SOL     OW22924   6.280   0.615   1.807 -0.1798 -0.1611 -0.0410
 7342SOL    HW122925   6.247   0.598   1.715 -1.8184 -1.3167  0.6965
 7342SOL    HW222926   6.376   0.642   1.804 -0.2044 -0.1462 -2.0628
 7343SOL     OW22927   6.302   1.338   1.664 -0.2292 -0.1010  0.1143
 7343SOL    HW122928   6.290   1.377   1.755  1.3244 -1.4828  0.9848
 7343SOL    HW222929   6.269   1.243   1.664 -0.5834  0.0109 -0.8820
 7344SOL     OW22930   0.864   5.530   2.552 -0.2453 -0.2806  0.3946
 7344SOL    HW122931   0.822   5.544   2.463  1.0742  1.0757 -0.0579
 7344SOL    HW222932   0.921   5.609   2.575 -0.4787 -0.6280  2.4095
 7345SOL     OW22933   1.362   6.003   6.174  0.8799 -0.7093 -0.1213
 7345SOL    HW122934   1.419   6.027   6.252  0.3291 -2.2605  0.8014
 7345SOL    HW222935   1.386   5.912   6.140  0.2054 -0.6141 -0.9085
 7346SOL     OW22936   5.985   5.268   2.612  0.1741 -0.5393 -0.9641
 7346SOL    HW122937   5.887   5.278   2.592 -0.3585 -1.9493  0.6654
 7346SOL    HW222938   6.021   5.188   2.563 -0.2349 -1.7632  0.6537
 7347SOL     OW22939   6.867   2.049   0.806 -0.5542  0.1609  0.0501
 7347SOL    HW122940   6.830   1.961   0.777 -0.8323 -0.1486  1.2917
 7347SOL    HW222941   6.805   2.091   0.872  0.7180  0.1915  1.2617
 7348SOL     OW22942   6.376   3.288   6.862  0.5402  0.3038  0.1985
 7348SOL    HW122943   6.440   3.346   6.911 -0.6680  1.3945  0.5525
 7348SOL    HW222944   6.283   3.319   6.880 -0.1559 -1.7109  0.3260
 7349SOL     OW22945   2.385   1.332   2.314 -0.3370 -0.3062 -0.0925
 7349SOL    HW122946   2.396   1.288   2.225 -0.4903 -1.0058  0.2267
 7349SOL    HW222947   2.476   1.351   2.352 -0.2567  1.0736 -0.9010
 7350SOL     OW22948   2.979   0.821   3.952 -0.0241  0.1959  0.2417
 7350SOL    HW122949   2.904   0.844   3.889 -1.2344 -3.4097  0.1573
 7350SOL    HW222950   2.963   0.867   4.040  0.1549  2.9903 -1.0646
 7351SOL     OW22951   2.874   5.515   4.412  0.7980  0.0250  0.2073
 7351SOL    HW122952   2.920   5.600   4.440 -0.9673  0.5549  1.6858
 7351SOL    HW222953   2.924   5.437   4.449  1.9563  0.4390 -0.4373
 7352SOL     OW22954   6.405   4.291   4.460 -0.0239 -0.5574 -0.6969
 7352SOL    HW122955   6.499   4.284   4.492  0.1636  1.3344 -0.6855
 7352SOL    HW222956   6.404   4.286   4.360 -0.0102 -1.3850 -0.6574
 7353SOL     OW22957   5.175   0.045   4.955  0.0258 -1.0869 -0.8110
 7353SOL    HW122958   5.216   0.060   5.045 -0.5455 -1.0887 -0.5447
 7353SOL    HW222959   5.247   0.026   4.888  0.8595  2.4198 -1.1335
 7354SOL     OW22960   6.818   1.669   3.513  0.3262 -0.4515 -0.0894
 7354SOL    HW122961   6.876   1.593   3.540  1.0123 -0.5474 -1.7118
 7354SOL    HW222962   6.870   1.755   3.520 -0.4218 -0.1174  1.6706
 7355SOL     OW22963   3.212   0.611   4.507  0.0371 -0.6300  0.3118
 7355SOL    HW122964   3.227   0.544   4.434  1.9384 -0.7662  0.7897
 7355SOL    HW222965   3.227   0.567   4.596  0.9622  0.3350  0.6459
 7356SOL     OW22966   3.811   3.772   5.207  0.3765  0.2637 -0.7167
 7356SOL    HW122967   3.791   3.811   5.117 -0.5236 -1.1538 -1.1502
 7356SOL    HW222968   3.841   3.678   5.197  1.5248  0.4847  0.3967
 7357SOL     OW22969   5.897   0.820   2.301 -0.0439 -0.3627 -1.0480
 7357SOL    HW122970   5.890   0.723   2.277 -0.6904 -0.9795  1.3549
 7357SOL    HW222971   5.954   0.829   2.383 -1.8754  1.0160  0.1304
 7358SOL     OW22972   5.853   2.295   4.534 -0.0820  0.3858  0.0962
 7358SOL    HW122973   5.832   2.224   4.467  0.3215  0.2806  0.0800
 7358SOL    HW222974   5.890   2.253   4.617 -1.1134  0.4630  0.6224
 7359SOL     OW22975   0.386   6.756   4.645  0.5191  0.3234  0.4279
 7359SOL    HW122976   0.343   6.798   4.725 -0.1415 -1.0634  0.8349
 7359SOL    HW222977   0.318   6.745   4.573  0.9359  0.8828 -0.0583
 7360SOL     OW22978   3.026   3.556   4.207 -0.0515 -0.1541  0.3079
 7360SOL    HW122979   3.008   3.480   4.269  1.2262 -0.2650  0.5842
 7360SOL    HW222980   3.006   3.642   4.253 -2.3028 -0.3065 -0.2864
 7361SOL     OW22981   5.960   6.985   2.641  0.2452  0.0748 -0.2283
 7361SOL    HW122982   5.866   6.980   2.607  0.1826  2.1301 -0.4725
 7361SOL    HW222983   6.023   6.953   2.569 -0.1999 -0.4442 -0.3928
 7362SOL     OW22984   0.331   0.305   1.114  0.5586  0.2373 -0.1708
 7362SOL    HW122985   0.362   0.295   1.209 -0.5472  0.6099  0.2415
 7362SOL    HW222986   0.388   0.374   1.069  0.2659  1.0273  0.6212
 7363SOL     OW22987   3.680   6.915   6.869  0.0848  0.4873 -0.0578
 7363SOL    HW122988   3.711   6.820   6.873  0.0560  0.5168  2.1120
 7363SOL    HW222989   3.588   6.922   6.907  0.3771  1.4665  0.5126
 7364SOL     OW22990   7.012   5.392   2.359  0.4810 -0.1530  0.3510
 7364SOL    HW122991   7.046   5.332   2.287  1.9258 -1.1570  1.7680
 7364SOL    HW222992   7.062   5.478   2.357  0.2807 -0.0458 -0.0521
 7365SOL     OW22993   5.964   5.519   0.922 -0.1151 -0.2610  0.0765
 7365SOL    HW122994   6.012   5.438   0.889  1.8593  0.5036  0.8781
 7365SOL    HW222995   6.005   5.548   1.008 -1.1053  1.3282  0.0482
 7366SOL     OW22996   1.390   1.715   4.383 -0.3371  0.4645 -0.1765
 7366SOL    HW122997   1.297   1.734   4.415  0.6236  2.4464  1.7008
 7366SOL    HW222998   1.440   1.801   4.373  1.8169 -0.6240  0.5926
 7367SOL     OW22999   3.821   6.828   5.926  0.6701  0.0465 -0.5928
 7367SOL    HW123000   3.758   6.888   5.877  0.9495 -0.7753 -2.0248
 7367SOL    HW223001   3.911   6.831   5.882  1.6391  1.0630  1.3099
 7368SOL     OW23002   4.097   3.691   4.201 -0.4835  0.1966  0.3097
 7368SOL    HW123003   4.041   3.771   4.182  0.1231  0.6548  0.4002
 7368SOL    HW223004   4.087   3.666   4.298 -0.2395  0.5133  0.4188
 7369SOL     OW23005   4.984   4.314   0.453 -0.7506 -0.5755 -0.4496
 7369SOL    HW123006   4.954   4.231   0.406  1.1728 -1.4324 -0.2700
 7369SOL    HW223007   5.064   4.352   0.406  0.0032 -0.3372  0.9659
 7370SOL     OW23008   2.901   1.789   3.654 -0.0463 -0.0794 -0.5122
 7370SOL    HW123009   2.925   1.783   3.751 -1.2159  1.0071 -0.1290
 7370SOL    HW223010   2.803   1.807   3.645  0.3037  1.4151 -1.8467
 7371SOL     OW23011   4.648   0.550   5.103  0.3804 -0.8750 -0.0763
 7371SOL    HW123012   4.557   0.581   5.132  0.1451 -0.4122 -1.2406
 7371SOL    HW223013   4.649   0.450   5.097  0.0170 -0.8939  0.1553
 7372SOL     OW23014   5.302   0.854   4.371 -0.1794  0.2335  0.4807
 7372SOL    HW123015   5.289   0.874   4.274 -0.4049  0.8652  0.6385
 7372SOL    HW223016   5.267   0.929   4.426 -1.9586 -1.0193  1.1437
 7373SOL     OW23017   6.408   2.979   4.525  0.3241 -0.1809  0.4488
 7373SOL    HW123018   6.421   3.066   4.477  0.3181  0.1547  1.0461
 7373SOL    HW223019   6.346   2.921   4.473 -1.1196  0.8898  0.9375
 7374SOL     OW23020   1.077   2.593   6.468 -0.4586 -0.1546  0.7303
 7374SOL    HW123021   1.170   2.562   6.445 -1.1633 -1.1092 -0.9808
 7374SOL    HW223022   1.071   2.692   6.457  0.3072 -0.0974  0.7290
 7375SOL     OW23023   2.159   2.239   1.117 -0.5226  0.3237  0.1358
 7375SOL    HW123024   2.144   2.178   1.194 -0.9085  1.4504  0.9788
 7375SOL    HW223025   2.096   2.216   1.043  0.1604 -1.0534 -0.0358
 7376SOL     OW23026   6.876   3.994   0.337 -0.0319  0.0580  0.1274
 7376SOL    HW123027   6.957   3.977   0.393  0.4901  1.2918 -0.2057
 7376SOL    HW223028   6.831   4.079   0.368 -0.3628  0.1632 -0.6075
 7377SOL     OW23029   0.923   0.919   0.238 -0.1548  0.2366  0.2706
 7377SOL    HW123030   0.881   0.882   0.321 -0.9620  0.6758  0.0654
 7377SOL    HW223031   0.912   0.854   0.163 -0.5909  0.4053  0.1858
 7378SOL     OW23032   1.945   5.058   4.510  0.2398 -0.4788 -0.7564
 7378SOL    HW123033   1.977   5.094   4.422  0.8654  1.1248  0.0781
 7378SOL    HW223034   2.021   5.057   4.574 -0.5122 -0.3745  0.1481
 7379SOL     OW23035   3.295   1.315   3.368 -0.0886  0.0108  0.4933
 7379SOL    HW123036   3.363   1.262   3.418  0.0337  0.1742  0.5002
 7379SOL    HW223037   3.204   1.295   3.404 -0.3423 -2.0644 -1.0797
 7380SOL     OW23038   5.558   2.431   1.469  0.1588  0.1100 -0.9416
 7380SOL    HW123039   5.469   2.442   1.512  0.2258 -1.7947 -0.2549
 7380SOL    HW223040   5.606   2.520   1.469 -0.6769  0.6078  1.0277
 7381SOL     OW23041   3.450   1.049   1.583 -0.0488  0.0702 -0.2681
 7381SOL    HW123042   3.435   0.985   1.657  0.3303  1.0879  0.7131
 7381SOL    HW223043   3.371   1.109   1.574 -0.3662 -0.4531 -1.1255
 7382SOL     OW23044   5.119   1.696   6.331  0.0116 -0.1611 -0.5639
 7382SOL    HW123045   5.030   1.696   6.285  1.2520  0.3674 -3.1693
 7382SOL    HW223046   5.191   1.709   6.263  2.0629  0.1149  1.5489
 7383SOL     OW23047   0.416   1.470   5.480 -0.6884  0.0169  0.5681
 7383SOL    HW123048   0.343   1.486   5.414 -1.5465  0.5274  1.6135
 7383SOL    HW223049   0.378   1.427   5.562  0.6183 -2.1729  0.1234
 7384SOL     OW23050   6.456   5.617   0.427  0.1458 -0.5145 -0.3890
 7384SOL    HW123051   6.416   5.605   0.518  1.2801  1.0626  0.3612
 7384SOL    HW223052   6.446   5.712   0.399  1.2925 -0.6124 -1.1819
 7385SOL     OW23053   6.632   5.928   3.443  0.0396 -0.1885 -0.3736
 7385SOL    HW123054   6.631   5.946   3.541 -2.2869  0.4426 -0.4527
 7385SOL    HW223055   6.699   5.988   3.399  0.7319 -0.1028  0.7590
 7386SOL     OW23056   3.992   3.160   0.098  0.3424 -0.4030  0.3152
 7386SOL    HW123057   4.033   3.215   0.171 -0.0826 -1.4538  1.3687
 7386SOL    HW223058   4.063   3.127   0.037  0.5492  2.0786 -0.9415
 7387SOL     OW23059   0.854   6.145   5.758  0.3589 -0.0085 -0.0755
 7387SOL    HW123060   0.805   6.122   5.842 -0.5184 -1.9264 -1.0606
 7387SOL    HW223061   0.947   6.109   5.762 -0.1197 -1.3447 -0.4521
 7388SOL     OW23062   1.421   5.578   2.768  0.2919  0.1635 -0.4732
 7388SOL    HW123063   1.473   5.598   2.851 -0.4249  0.5352 -0.1073
 7388SOL    HW223064   1.365   5.497   2.783  1.0928 -0.5013 -1.0179
 7389SOL     OW23065   4.956   5.047   1.309  0.0247  0.0311 -0.0272
 7389SOL    HW123066   5.034   5.016   1.363  0.5498  1.8949  0.3591
 7389SOL    HW223067   4.871   5.025   1.357  0.2088 -2.6479 -0.7770
 7390SOL     OW23068   1.888   2.694   4.305  0.4843  0.2944 -0.2825
 7390SOL    HW123069   1.833   2.678   4.387  0.1253 -0.8728 -0.7441
 7390SOL    HW223070   1.860   2.781   4.263  0.8667  1.0570  0.9609
 7391SOL     OW23071   3.904   3.028   3.366 -0.2617 -0.0980  0.5096
 7391SOL    HW123072   3.898   2.977   3.280 -1.1455 -0.9804  1.0789
 7391SOL    HW223073   3.943   3.119   3.348  2.2547 -1.2542 -0.3954
 7392SOL     OW23074   2.670   6.120   6.865 -0.4860 -0.1622 -0.1396
 7392SOL    HW123075   2.645   6.081   6.953 -3.4515  1.2826 -0.2085
 7392SOL    HW223076   2.717   6.207   6.879 -1.2329  0.2191  0.0397
 7393SOL     OW23077   3.688   5.708   2.934 -0.3941 -0.3988  0.5010
 7393SOL    HW123078   3.757   5.732   2.865  0.0439 -1.8135  0.3932
 7393SOL    HW223079   3.605   5.677   2.889  0.2788 -2.4171  0.5106
 7394SOL     OW23080   1.788   6.538   0.653 -0.1057 -0.5297  0.2224
 7394SOL    HW123081   1.854   6.609   0.627 -0.5086  0.1069  0.9211
 7394SOL    HW223082   1.838   6.453   0.672  0.6062  0.1299  1.4342
 7395SOL     OW23083   3.590   1.233   1.765  0.1544  0.0949  0.0095
 7395SOL    HW123084   3.500   1.262   1.731  0.0053  1.0981  1.2023
 7395SOL    HW223085   3.578   1.174   1.845  0.5513 -0.5552 -0.3982
 7396SOL     OW23086   1.127   5.753   3.850  0.2539  0.1881 -0.2281
 7396SOL    HW123087   1.208   5.770   3.907  0.0791 -0.9362  0.3742
 7396SOL    HW223088   1.085   5.667   3.876 -1.3449  0.9121 -0.3225
 7397SOL     OW23089   5.907   5.933   2.988  0.5687 -0.0436 -0.1293
 7397SOL    HW123090   5.836   5.938   3.058  0.2870  0.2227 -0.4311
 7397SOL    HW223091   5.934   6.026   2.961  1.2290 -0.1343  0.1749
 7398SOL     OW23092   3.335   4.887   1.919 -0.1868  0.1654  0.0100
 7398SOL    HW123093   3.282   4.820   1.867 -0.9553 -0.4042  1.4800
 7398SOL    HW223094   3.424   4.847   1.943  0.1125  0.3784 -0.7290
 7399SOL     OW23095   5.403   0.556   0.058 -0.3318 -0.2667 -0.5580
 7399SOL    HW123096   5.373   0.463   0.035 -0.9812 -0.0971 -0.3968
 7399SOL    HW223097   5.350   0.590   0.135  0.0968  0.1405 -0.4376
 7400SOL     OW23098   4.568   3.876   5.859  0.3600 -0.0017  0.3825
 7400SOL    HW123099   4.585   3.844   5.766 -1.8451 -1.5600  0.4315
 7400SOL    HW223100   4.540   3.972   5.857 -3.0925 -0.8790 -1.0985
 7401SOL     OW23101   2.291   1.784   4.301  0.3795 -0.2485  0.2729
 7401SOL    HW123102   2.382   1.745   4.287  0.5200 -0.0443  0.6251
 7401SOL    HW223103   2.241   1.783   4.214  0.9639  0.2690 -0.0744
 7402SOL     OW23104   4.146   5.715   4.535  0.6160 -0.5085 -0.2293
 7402SOL    HW123105   4.111   5.803   4.566  1.8884 -0.2801  0.6789
 7402SOL    HW223106   4.160   5.656   4.614 -0.6151 -1.6990 -0.8682
 7403SOL     OW23107   0.841   5.413   3.269  0.0593  0.2379  0.2634
 7403SOL    HW123108   0.874   5.477   3.339  0.7486 -2.0971  2.1761
 7403SOL    HW223109   0.884   5.437   3.181  0.1021  2.5043  0.8181
 7404SOL     OW23110   3.216   2.620   1.486  0.2357  0.4450  0.4119
 7404SOL    HW123111   3.143   2.681   1.455 -0.3895 -0.6733 -0.3858
 7404SOL    HW223112   3.210   2.608   1.585  0.1883  1.4292  0.5412
 7405SOL     OW23113   5.563   0.447   4.325 -0.0345 -0.6288  0.0221
 7405SOL    HW123114   5.528   0.365   4.370  0.8803 -0.4788  1.0336
 7405SOL    HW223115   5.612   0.503   4.391 -0.3395  0.5662 -0.7395
 7406SOL     OW23116   2.459   1.658   5.203  0.5800 -0.2978  0.1481
 7406SOL    HW123117   2.512   1.582   5.164  0.4948 -0.6450  0.7106
 7406SOL    HW223118   2.362   1.635   5.205  0.5502 -0.1656  0.2994
 7407SOL     OW23119   2.344   5.932   6.617 -0.1158  0.4435  0.0656
 7407SOL    HW123120   2.386   5.956   6.529 -0.3795 -0.7216 -0.4029
 7407SOL    HW223121   2.272   5.864   6.601  1.5215 -1.7387  1.4138
 7408SOL     OW23122   4.311   6.615   5.092  0.0986 -0.0227  0.4588
 7408SOL    HW123123   4.352   6.629   5.002  0.0209 -0.9981  0.2659
 7408SOL    HW223124   4.382   6.621   5.162 -0.1237  2.6933  0.5438
 7409SOL     OW23125   0.103   3.848   0.490  0.1720 -0.5661  0.2316
 7409SOL    HW123126   0.173   3.910   0.525  1.2251 -1.2700 -0.5798
 7409SOL    HW223127   0.128   3.818   0.399 -1.8001  0.0952 -0.5861
 7410SOL     OW23128   1.130   0.160   2.607 -0.2376 -0.0092  0.2454
 7410SOL    HW123129   1.090   0.252   2.611  0.7525  0.4046  1.3416
 7410SOL    HW223130   1.087   0.102   2.675  1.8674  0.8467  2.4750
 7411SOL     OW23131   3.161   6.064   4.702  0.4151  0.1025 -0.0737
 7411SOL    HW123132   3.157   6.055   4.602  0.4518 -1.1022  0.0244
 7411SOL    HW223133   3.080   6.021   4.743  0.5001  0.4156  0.4369
 7412SOL     OW23134   4.312   1.185   6.578  0.6135  0.1803  0.3487
 7412SOL    HW123135   4.409   1.202   6.597  0.7451 -0.3340  0.1515
 7412SOL    HW223136   4.274   1.263   6.527  1.0327  0.1961  0.0515
 7413SOL     OW23137   3.725   1.945   5.147 -0.8270 -0.7225 -0.4892
 7413SOL    HW123138   3.780   1.892   5.211 -1.0113  0.5609  0.7830
 7413SOL    HW223139   3.629   1.916   5.154 -0.7656 -0.9505 -0.5764
 7414SOL     OW23140   2.264   2.173   5.038 -0.1944 -0.6939  0.3488
 7414SOL    HW123141   2.348   2.188   5.091 -0.4841 -0.4901  0.7558
 7414SOL    HW223142   2.281   2.193   4.942  0.0992 -0.1970  0.5005
 7415SOL     OW23143   5.742   5.654   5.505 -0.0323  0.7558 -0.3074
 7415SOL    HW123144   5.644   5.651   5.523 -0.0240  2.0393  0.0380
 7415SOL    HW223145   5.771   5.567   5.464 -0.9433 -0.3949  1.3754
 7416SOL     OW23146   2.239   1.164   2.975 -0.6082 -0.0833 -0.7773
 7416SOL    HW123147   2.286   1.222   2.908  0.4953  0.5160  0.4658
 7416SOL    HW223148   2.247   1.068   2.947  0.5424  0.0884 -1.1085
 7417SOL     OW23149   6.480   1.433   1.056  0.4475  0.4001  0.1730
 7417SOL    HW123150   6.489   1.405   1.152 -1.0774  2.0804  0.8489
 7417SOL    HW223151   6.400   1.492   1.045  0.1731 -0.2970 -2.2849
 7418SOL     OW23152   1.248   2.700   6.082 -0.0434  0.7353  0.1267
 7418SOL    HW123153   1.245   2.674   5.986 -0.5838 -1.0647  0.5717
 7418SOL    HW223154   1.295   2.629   6.134 -1.2141  0.8471  1.4038
 7419SOL     OW23155   6.719   6.089   5.018 -0.4515 -0.2157  0.4847
 7419SOL    HW123156   6.675   6.166   5.064 -0.6992  0.1459 -0.3487
 7419SOL    HW223157   6.741   6.018   5.086  3.4273  2.1401  2.0814
 7420SOL     OW23158   0.003   5.971   0.031  0.6667  0.5872  0.4028
 7420SOL    HW123159   0.012   5.961  -0.068 -1.3261  2.7264 -0.1048
 7420SOL    HW223160   0.034   5.888   0.077  1.9093 -0.3468 -1.9776
 7421SOL     OW23161   4.528   4.378   0.907 -0.7201 -0.0797  0.6495
 7421SOL    HW123162   4.591   4.346   0.836 -0.7045  1.1744  0.0762
 7421SOL    HW223163   4.570   4.365   0.997 -0.1504 -0.3842  0.3424
 7422SOL     OW23164   4.433   4.550   1.735  0.8485  0.2034 -0.4049
 7422SOL    HW123165   4.487   4.631   1.712  2.3980  0.4483  3.3883
 7422SOL    HW223166   4.348   4.578   1.779  1.1669 -0.2048  0.4855
 7423SOL     OW23167   3.160   1.228   6.175 -0.4448 -0.5721  0.2874
 7423SOL    HW123168   3.109   1.204   6.258 -0.1888 -0.5202  0.4617
 7423SOL    HW223169   3.258   1.224   6.194 -0.2854 -2.9232 -0.6402
 7424SOL     OW23170   0.060   3.170   1.325 -0.0574 -0.4742 -0.1008
 7424SOL    HW123171   0.053   3.183   1.424  0.2975 -0.8432 -0.0259
 7424SOL    HW223172   0.103   3.082   1.305 -0.4082 -0.5389 -0.5879
 7425SOL     OW23173   5.923   1.854   1.357 -0.3383  0.9544 -0.1140
 7425SOL    HW123174   5.885   1.817   1.272  3.1303 -0.6588 -1.1531
 7425SOL    HW223175   5.978   1.936   1.336 -0.2310  1.1114  0.7442
 7426SOL     OW23176   0.812   3.645   5.308 -0.0291 -0.4349 -0.5537
 7426SOL    HW123177   0.725   3.692   5.326  0.0460 -1.0377  1.7820
 7426SOL    HW223178   0.854   3.620   5.395  2.2806 -0.5816 -1.6498
 7427SOL     OW23179   2.495   6.479   4.304 -0.5253 -0.1297  0.2459
 7427SOL    HW123180   2.508   6.505   4.400 -0.2851  1.7099 -0.2323
 7427SOL    HW223181   2.401   6.500   4.276 -0.4520 -0.1833 -0.0468
 7428SOL     OW23182   2.800   5.894   5.474 -0.8477 -0.6458  0.0894
 7428SOL    HW123183   2.760   5.954   5.405 -0.9024 -1.1367 -0.3126
 7428SOL    HW223184   2.815   5.803   5.434  0.2229 -0.6081  0.3673
 7429SOL     OW23185   2.591   5.980   3.515  0.5300  0.0470 -0.0131
 7429SOL    HW123186   2.601   6.062   3.572 -0.5955  0.2867 -0.1483
 7429SOL    HW223187   2.596   5.898   3.572  1.5066  0.2017  0.1422
 7430SOL     OW23188   6.882   3.963   3.309 -0.0154 -0.5656 -0.3516
 7430SOL    HW123189   6.915   4.013   3.229 -0.4394  3.1912  1.6197
 7430SOL    HW223190   6.784   3.945   3.299 -0.4070  1.2745 -0.0953
 7431SOL     OW23191   1.679   0.423   3.345  0.2334 -0.1516  0.4707
 7431SOL    HW123192   1.597   0.411   3.403  1.0099 -2.6824  1.1780
 7431SOL    HW223193   1.656   0.402   3.250 -0.4040  1.3043  0.2755
 7432SOL     OW23194   1.559   2.965   2.667 -0.1830  0.2986 -0.1971
 7432SOL    HW123195   1.485   2.901   2.649  1.1486 -1.1800 -0.6363
 7432SOL    HW223196   1.563   2.984   2.766 -1.8724  1.3842 -0.2923
 7433SOL     OW23197   3.170   5.703   5.804 -0.6549  0.2661 -0.1878
 7433SOL    HW123198   3.084   5.732   5.765 -0.7833 -2.4493 -2.2383
 7433SOL    HW223199   3.244   5.762   5.772 -1.3430  0.6314 -1.1348
 7434SOL     OW23200   3.430   1.282   3.137  0.5645  0.4338 -0.0249
 7434SOL    HW123201   3.383   1.299   3.224  0.5071 -0.4936  0.1362
 7434SOL    HW223202   3.438   1.184   3.122  1.3961  0.5783 -0.6297
 7435SOL     OW23203   6.847   4.447   2.892  0.4967 -0.0747 -0.1477
 7435SOL    HW123204   6.809   4.361   2.858  2.5376 -0.9708 -0.3100
 7435SOL    HW223205   6.877   4.503   2.814  0.3845  0.1969  0.0032
 7436SOL     OW23206   4.856   0.916   3.652  0.5995 -0.1766  0.1828
 7436SOL    HW123207   4.797   0.857   3.597  0.8870 -1.2648  0.9927
 7436SOL    HW223208   4.811   1.004   3.667  1.6462  1.3664 -4.1474
 7437SOL     OW23209   2.113   5.756   0.485 -0.1218 -0.6197 -0.0223
 7437SOL    HW123210   2.049   5.828   0.513 -0.0132 -0.8076  0.7404
 7437SOL    HW223211   2.129   5.762   0.387 -0.4683  0.1077 -0.0420
 7438SOL     OW23212   1.846   1.554   6.431  0.2426 -0.0130  0.1242
 7438SOL    HW123213   1.885   1.487   6.494 -1.9211 -1.0380  0.4878
 7438SOL    HW223214   1.749   1.567   6.453 -0.2797  0.5186 -2.2166
 7439SOL     OW23215   2.674   4.694   6.037 -0.5381  0.0235 -0.0484
 7439SOL    HW123216   2.594   4.704   6.095  1.0826 -0.1690  2.3889
 7439SOL    HW223217   2.686   4.777   5.983 -0.2304  1.8126  2.5416
 7440SOL     OW23218   5.168   3.963   3.474  0.5639  0.3469 -0.2686
 7440SOL    HW123219   5.128   4.019   3.401  0.1231 -0.1140 -0.3820
 7440SOL    HW223220   5.267   3.979   3.477  0.6090  0.2463 -1.0736
 7441SOL     OW23221   6.345   6.113   2.841  0.3245 -0.3967 -0.4670
 7441SOL    HW123222   6.393   6.026   2.853 -1.2735 -1.1663  0.6346
 7441SOL    HW223223   6.308   6.144   2.929 -0.4211  0.6335 -1.1093
 7442SOL     OW23224   2.650   1.903   5.184 -0.5066 -0.1293 -0.5377
 7442SOL    HW123225   2.600   1.903   5.097  0.0188  0.6094 -0.8505
 7442SOL    HW223226   2.629   1.987   5.234  0.6608  0.3463 -0.8219
 7443SOL     OW23227   6.738   5.773   1.534 -0.3593 -0.0108  0.1931
 7443SOL    HW123228   6.815   5.721   1.571  0.8266  1.6761  0.2133
 7443SOL    HW223229   6.743   5.868   1.567 -2.7853  0.0225  0.6555
 7444SOL     OW23230   0.753   4.440   5.922  0.5306  0.2594 -0.1347
 7444SOL    HW123231   0.653   4.444   5.931  0.7042  2.0120  1.6294
 7444SOL    HW223232   0.777   4.436   5.825 -1.2339  1.6613 -0.6980
 7445SOL     OW23233   4.850   5.677   2.244  0.2777  0.3410  0.6054
 7445SOL    HW123234   4.892   5.641   2.161 -0.2270 -1.7958  1.2147
 7445SOL    HW223235   4.752   5.689   2.230  0.0190 -0.9780  1.1571
 7446SOL     OW23236   5.193   4.012   0.727  0.1486  0.1486  0.4257
 7446SOL    HW123237   5.198   3.925   0.678 -0.0403  0.7431 -0.6551
 7446SOL    HW223238   5.102   4.051   0.717  0.8557  1.5094 -0.9052
 7447SOL     OW23239   6.217   4.780   1.589  0.2793  0.8068  0.4587
 7447SOL    HW123240   6.161   4.756   1.510  1.7497  0.4962 -0.5244
 7447SOL    HW223241   6.216   4.705   1.655 -0.7066  0.9421  0.6119
 7448SOL     OW23242   3.338   5.180   5.902  0.2106 -0.4351 -0.4735
 7448SOL    HW123243   3.432   5.171   5.936  1.1446  0.0893 -2.6895
 7448SOL    HW223244   3.341   5.203   5.805 -2.2540 -0.7760 -0.6791
 7449SOL     OW23245   6.152   5.778   6.028  0.1384  0.1077 -0.4138
 7449SOL    HW123246   6.190   5.820   6.110  1.8893 -0.7590 -0.7180
 7449SOL    HW223247   6.056   5.802   6.019  0.0530  0.6694  1.5751
 7450SOL     OW23248   0.078   2.391   1.325 -0.1877 -0.5206 -0.0412
 7450SOL    HW123249   0.145   2.466   1.323 -2.1878  1.3483 -0.1592
 7450SOL    HW223250   0.120   2.311   1.368  1.3853  1.3405  2.1704
 7451SOL     OW23251   6.158   4.956   2.962  0.1143  0.1982  0.0831
 7451SOL    HW123252   6.074   4.952   2.909 -0.1528 -0.0884  0.5227
 7451SOL    HW223253   6.222   4.888   2.928  0.4366  0.8719 -0.6939
 7452SOL     OW23254   5.778   5.677   5.082 -0.2438 -0.3402  0.5908
 7452SOL    HW123255   5.821   5.597   5.125 -0.3417 -0.5797  0.2524
 7452SOL    HW223256   5.848   5.745   5.062 -0.1220 -0.4450  0.6527
 7453SOL     OW23257   5.262   5.338   6.363  0.2211  0.3295 -0.7111
 7453SOL    HW123258   5.266   5.336   6.263  0.6053 -3.2413 -0.7307
 7453SOL    HW223259   5.171   5.310   6.393  0.4365  0.3339 -0.0452
 7454SOL     OW23260   3.062   1.281   1.916 -0.0678 -0.2858 -0.1129
 7454SOL    HW123261   3.117   1.205   1.951  0.8404 -0.2918 -1.4456
 7454SOL    HW223262   3.072   1.360   1.976  0.3944 -0.6774  0.3382
 7455SOL     OW23263   0.141   2.205   2.533  0.0598  0.2275  0.2794
 7455SOL    HW123264   0.054   2.235   2.495 -0.5110  0.1343  1.4514
 7455SOL    HW223265   0.215   2.228   2.470 -0.5122  2.7060  0.4183
 7456SOL     OW23266   3.550   5.882   6.667 -0.0168  0.1975  0.0460
 7456SOL    HW123267   3.574   5.787   6.686 -0.1903  0.0740 -0.3474
 7456SOL    HW223268   3.511   5.924   6.749  0.1045 -0.0561  0.2325
 7457SOL     OW23269   2.985   1.535   3.164  0.7319 -0.1099 -0.1679
 7457SOL    HW123270   3.051   1.608   3.179  0.2594  0.0766  1.1200
 7457SOL    HW223271   2.893   1.573   3.160  0.5540 -0.5465 -0.2679
 7458SOL     OW23272   1.120   6.060   5.756 -0.3301  0.6009 -0.7699
 7458SOL    HW123273   1.100   6.085   5.661 -1.2750  1.6160 -0.3343
 7458SOL    HW223274   1.187   6.125   5.794  0.6245 -0.2559 -0.9551
 7459SOL     OW23275   4.803   1.031   2.511 -0.2652 -0.2481  0.0459
 7459SOL    HW123276   4.896   1.006   2.537  0.0783  0.1540 -0.7630
 7459SOL    HW223277   4.801   1.127   2.483 -0.8767 -0.3209 -0.1806
 7460SOL     OW23278   2.116   6.868   4.640  0.5169  0.4915 -0.0612
 7460SOL    HW123279   2.091   6.783   4.594 -0.4672  0.8293 -0.1653
 7460SOL    HW223280   2.114   6.854   4.739 -0.7520  0.6746 -0.0421
 7461SOL     OW23281   1.437   2.856   5.357 -0.4053  0.0420  0.0012
 7461SOL    HW123282   1.444   2.935   5.296  0.2776 -1.1185 -1.4704
 7461SOL    HW223283   1.528   2.831   5.390 -0.6781  0.1644  0.8889
 7462SOL     OW23284   1.286   3.707   0.585  0.0380 -0.4051  0.6300
 7462SOL    HW123285   1.354   3.734   0.653  0.0398 -0.6486  0.7260
 7462SOL    HW223286   1.206   3.766   0.593  0.7463  0.7379 -0.3437
 7463SOL     OW23287   3.274   3.637   1.563  0.3962 -0.1480  0.4721
 7463SOL    HW123288   3.366   3.597   1.572  0.3047 -0.2428  1.0304
 7463SOL    HW223289   3.276   3.709   1.494  1.1414  0.5609  1.1939
 7464SOL     OW23290   0.485   0.104   5.363  0.2901  0.7507 -0.0046
 7464SOL    HW123291   0.536   0.048   5.298  0.9269  1.3787 -0.0542
 7464SOL    HW223292   0.518   0.086   5.455 -0.7928 -0.3359  0.1953
 7465SOL     OW23293   0.294   4.258   0.031  0.3140 -0.0780 -0.9013
 7465SOL    HW123294   0.333   4.216  -0.051 -1.9048 -0.7717 -1.6720
 7465SOL    HW223295   0.207   4.213   0.054  0.8638  0.0967  1.8566
 7466SOL     OW23296   0.012   0.781   4.092 -0.4926 -0.7174 -0.0085
 7466SOL    HW123297  -0.061   0.758   4.028  1.3131  1.7871 -3.2213
 7466SOL    HW223298   0.097   0.735   4.064  1.3714  3.5805 -2.2315
 7467SOL     OW23299   0.773   3.284   4.700 -0.4752  0.0591 -0.4157
 7467SOL    HW123300   0.824   3.360   4.742 -0.5403 -0.2245  0.1911
 7467SOL    HW223301   0.680   3.314   4.680  0.1697  0.8775 -2.4040
 7468SOL     OW23302   6.580   0.271   4.676 -0.3844 -0.2339 -0.2843
 7468SOL    HW123303   6.661   0.212   4.671  1.2758  1.9355 -0.4696
 7468SOL    HW223304   6.528   0.264   4.590 -0.3577 -1.5651 -0.2093
 7469SOL     OW23305   2.055   1.794   2.032 -0.2229  0.6761  0.0115
 7469SOL    HW123306   1.988   1.869   2.029 -0.3304  0.5434 -1.4042
 7469SOL    HW223307   2.105   1.790   1.946 -1.7324 -2.2420 -0.8629
 7470SOL     OW23308   5.603   3.427   3.648 -0.3092 -0.6609 -0.1022
 7470SOL    HW123309   5.660   3.441   3.567 -0.3861 -0.6400 -0.1526
 7470SOL    HW223310   5.662   3.405   3.726 -0.1507  0.3730  0.0817
 7471SOL     OW23311   3.943   6.069   4.843  0.1703 -0.0060  0.6032
 7471SOL    HW123312   3.968   6.029   4.756  2.6332  1.7491  0.4134
 7471SOL    HW223313   3.843   6.078   4.848 -0.2402 -2.7035 -0.7652
 7472SOL     OW23314   5.789   6.035   4.239 -0.2375 -0.0953 -0.1960
 7472SOL    HW123315   5.774   5.969   4.165 -0.9985 -1.4929  1.1581
 7472SOL    HW223316   5.720   6.106   4.234 -1.2171 -1.0025  0.0317
 7473SOL     OW23317   4.149   5.555   3.249 -0.4710 -0.5172  0.3418
 7473SOL    HW123318   4.242   5.563   3.285 -0.5665  0.0154  0.4759
 7473SOL    HW223319   4.083   5.569   3.323 -0.6624 -1.4331  0.3562
 7474SOL     OW23320   6.870   3.414   1.935 -0.1117 -0.1541 -0.1771
 7474SOL    HW123321   6.797   3.391   1.871  0.5126  1.0575 -1.3856
 7474SOL    HW223322   6.936   3.339   1.940 -0.2553 -0.3334 -0.8588
 7475SOL     OW23323   4.983   3.701   2.593  0.1817  0.0835 -0.9152
 7475SOL    HW123324   5.080   3.694   2.569  0.3326  0.2943 -0.4005
 7475SOL    HW223325   4.937   3.615   2.572  0.3581  0.1734 -1.6840
 7476SOL     OW23326   0.761   0.537   3.228 -0.2318 -0.3324 -0.6816
 7476SOL    HW123327   0.681   0.502   3.278  0.4419 -1.6634 -0.4983
 7476SOL    HW223328   0.798   0.466   3.169  0.5065  0.4421 -1.1848
 7477SOL     OW23329   1.574   3.279   6.083 -0.8672 -0.0159  0.4518
 7477SOL    HW123330   1.563   3.282   5.984 -1.3607  1.2303  0.5278
 7477SOL    HW223331   1.534   3.361   6.124 -0.3630 -0.3431  1.6574
 7478SOL     OW23332   6.145   1.468   5.352  0.5046  0.0825 -0.0662
 7478SOL    HW123333   6.151   1.543   5.285  1.0652  0.5925  0.5488
 7478SOL    HW223334   6.222   1.473   5.415  1.7590 -2.2639 -1.2731
 7479SOL     OW23335   5.844   1.910   2.111 -0.2775 -0.7532 -0.2764
 7479SOL    HW123336   5.845   1.844   2.187  1.1328 -0.1571  0.2607
 7479SOL    HW223337   5.907   1.880   2.040 -0.4006 -0.4933 -0.4985
 7480SOL     OW23338   2.849   0.150   0.960  0.0295  0.1698  0.7713
 7480SOL    HW123339   2.926   0.122   1.019  0.3599  0.6624  0.5879
 7480SOL    HW223340   2.764   0.115   0.998  0.3115 -0.0956  1.1730
 7481SOL     OW23341   4.191   2.822   1.138 -0.0522 -0.1466  0.1854
 7481SOL    HW123342   4.283   2.784   1.128  0.5752  1.3230  0.0802
 7481SOL    HW223343   4.181   2.862   1.229 -0.5308 -0.1695  0.1455
 7482SOL     OW23344   0.298   6.800   3.944 -0.8710  0.2194  0.5052
 7482SOL    HW123345   0.234   6.873   3.920 -2.3773 -0.3377  2.5629
 7482SOL    HW223346   0.279   6.720   3.888 -0.5195  0.7384 -0.3839
 7483SOL     OW23347   4.925   2.347   0.944  0.1857 -0.4612  0.3211
 7483SOL    HW123348   5.014   2.307   0.965  0.0271  0.2551  2.6656
 7483SOL    HW223349   4.933   2.409   0.866  2.2728  1.1960  1.7381
 7484SOL     OW23350   2.460   5.653   4.245 -0.4312  0.2426  0.7948
 7484SOL    HW123351   2.387   5.588   4.263  0.4712 -1.3588 -0.8779
 7484SOL    HW223352   2.423   5.745   4.238 -2.1204 -0.4076  0.9194
 7485SOL     OW23353   2.686   6.777   6.577  0.0955 -0.0549 -0.2889
 7485SOL    HW123354   2.616   6.741   6.515  0.0860 -0.0279 -0.2938
 7485SOL    HW223355   2.644   6.841   6.641  0.1296  0.0225 -0.3433
 7486SOL     OW23356   5.091   5.803   0.499 -0.2310 -0.4264 -0.1748
 7486SOL    HW123357   5.188   5.781   0.500  0.0131  0.5968  1.0047
 7486SOL    HW223358   5.057   5.803   0.405  0.7705 -1.3400 -0.5479
 7487SOL     OW23359   4.169   6.851   3.185  0.3035  0.2134 -0.3972
 7487SOL    HW123360   4.203   6.787   3.116  0.0487  1.4723 -1.7282
 7487SOL    HW223361   4.072   6.831   3.203  0.3769 -0.1343 -0.3807
 7488SOL     OW23362   0.525   6.063   5.769 -0.8419 -0.1807 -0.1230
 7488SOL    HW123363   0.439   6.012   5.768 -0.8494 -0.3483  2.1726
 7488SOL    HW223364   0.597   6.006   5.808 -0.7502  1.3180  2.0888
 7489SOL     OW23365   4.846   3.704   0.580 -0.0606 -0.4727  0.3809
 7489SOL    HW123366   4.886   3.711   0.489  0.0792 -2.5597  0.2388
 7489SOL    HW223367   4.762   3.758   0.584 -0.6767 -1.2297 -1.3578
 7490SOL     OW23368   1.591   3.779   1.160 -0.0699 -0.0722  0.3623
 7490SOL    HW123369   1.618   3.871   1.134 -0.8718  0.0205 -0.1878
 7490SOL    HW223370   1.660   3.713   1.131  1.0447  0.4578  1.7417
 7491SOL     OW23371   3.486   3.708   6.676  0.2092 -0.3090  0.3878
 7491SOL    HW123372   3.478   3.760   6.761  0.4467 -1.1234  0.9255
 7491SOL    HW223373   3.397   3.706   6.631  0.1094  0.2379  0.5558
 7492SOL     OW23374   1.464   6.476   6.846 -0.3404  0.2181 -0.3040
 7492SOL    HW123375   1.528   6.448   6.919 -0.1947 -0.9065 -0.8442
 7492SOL    HW223376   1.509   6.466   6.757 -1.2254 -0.4496 -0.6823
 7493SOL     OW23377   5.355   5.331   5.871  0.0269 -0.9069  0.6546
 7493SOL    HW123378   5.347   5.370   5.780 -1.9206 -0.0701  1.1324
 7493SOL    HW223379   5.368   5.232   5.864  0.2552 -0.8085 -0.5187
 7494SOL     OW23380   6.890   1.572   2.850 -0.3398  0.3094 -0.2125
 7494SOL    HW123381   6.819   1.505   2.827 -0.3411 -0.7026  2.4061
 7494SOL    HW223382   6.969   1.558   2.791 -0.5690 -1.6622 -0.1188
 7495SOL     OW23383   2.154   4.074   6.375 -0.2820 -0.2435 -0.1408
 7495SOL    HW123384   2.063   4.104   6.404 -0.0205 -0.2189  0.6802
 7495SOL    HW223385   2.190   4.009   6.441  0.9376  0.9245  0.4040
 7496SOL     OW23386   5.891   3.862   2.300 -0.1810 -0.6803 -0.3464
 7496SOL    HW123387   5.892   3.778   2.355  1.1342  0.2997  1.1857
 7496SOL    HW223388   5.868   3.940   2.357 -1.3979  0.0520 -1.7593
 7497SOL     OW23389   6.210   5.075   0.327  0.1864 -0.5126  0.4202
 7497SOL    HW123390   6.221   5.054   0.230 -2.7652 -2.6150  0.4111
 7497SOL    HW223391   6.157   5.159   0.337 -0.6673 -0.9962  0.1248
 7498SOL     OW23392   5.984   6.723   3.300 -0.2049  0.1321  0.2927
 7498SOL    HW123393   6.020   6.757   3.214 -0.8916 -0.9884 -0.4671
 7498SOL    HW223394   6.060   6.699   3.361  0.4051 -1.7844 -1.1077
 7499SOL     OW23395   2.622   1.333   2.456 -0.6242 -0.1115  0.3619
 7499SOL    HW123396   2.613   1.306   2.552 -0.9221  0.8371  0.6096
 7499SOL    HW223397   2.719   1.326   2.429 -0.3950  0.5069  1.0038
 7500SOL     OW23398   3.452   1.963   5.004  0.1831  0.2520  0.6542
 7500SOL    HW123399   3.400   2.028   5.059  0.8317  0.8782  0.5471
 7500SOL    HW223400   3.459   1.876   5.053 -0.2676  0.4162  1.0198
 7501SOL     OW23401   0.400   1.939   5.419  0.6101 -0.3556  0.1400
 7501SOL    HW123402   0.309   1.910   5.390  0.2162 -0.6193  1.5300
 7501SOL    HW223403   0.409   2.038   5.408  1.1754 -0.6263 -2.5772
 7502SOL     OW23404   3.676   0.240   4.550 -0.7720  0.3759  0.1835
 7502SOL    HW123405   3.695   0.260   4.454  0.5375  1.7665  0.6912
 7502SOL    HW223406   3.763   0.237   4.601 -1.4368 -0.4411  1.3154
 7503SOL     OW23407   2.214   4.779   2.812  0.7074 -0.3267 -0.2049
 7503SOL    HW123408   2.302   4.823   2.797 -0.0220  1.3485  0.0991
 7503SOL    HW223409   2.179   4.804   2.903 -0.8729  0.5613 -1.0070
 7504SOL     OW23410   6.250   5.381   3.903 -0.1660 -0.5262  0.6250
 7504SOL    HW123411   6.286   5.446   3.970 -0.7868 -0.2051  0.6541
 7504SOL    HW223412   6.317   5.307   3.890  0.4251 -0.0356  0.7983
 7505SOL     OW23413   1.805   6.181   3.824 -0.7593  0.0326 -0.4717
 7505SOL    HW123414   1.719   6.214   3.863 -0.2998  0.2060  0.4187
 7505SOL    HW223415   1.826   6.234   3.742 -0.5177  1.3430  0.4078
 7506SOL     OW23416   1.535   3.037   4.145  0.3116 -0.2397 -0.2571
 7506SOL    HW123417   1.474   3.113   4.170  1.5486  0.4539  0.7521
 7506SOL    HW223418   1.481   2.965   4.102 -1.3907  0.0005  1.3254
 7507SOL     OW23419   4.646   3.654   0.244 -0.0939  0.4680  0.0883
 7507SOL    HW123420   4.612   3.563   0.221  0.2541  0.9181 -2.4653
 7507SOL    HW223421   4.744   3.648   0.264  0.4188  0.4879 -2.1148
 7508SOL     OW23422   2.603   6.513   1.678  0.0379  0.0968  0.2373
 7508SOL    HW123423   2.569   6.421   1.697 -1.4762  0.6700  0.4124
 7508SOL    HW223424   2.527   6.574   1.659  0.9519  1.5128  0.9280
 7509SOL     OW23425   6.277   3.585   0.827 -0.9444 -0.1755  0.4614
 7509SOL    HW123426   6.285   3.679   0.862 -0.3726 -0.0648  0.0624
 7509SOL    HW223427   6.310   3.583   0.733 -1.1729 -0.7376  0.3939
 7510SOL     OW23428   3.256   3.587   2.054 -0.0013  0.4327  0.2390
 7510SOL    HW123429   3.177   3.640   2.023  0.3357  0.0274 -1.4245
 7510SOL    HW223430   3.268   3.599   2.153 -2.1547  0.4657  0.5512
 7511SOL     OW23431   4.576   0.146   3.967 -0.0752 -0.1722  0.0346
 7511SOL    HW123432   4.523   0.162   4.050 -0.9437  1.0516 -0.7217
 7511SOL    HW223433   4.662   0.198   3.971 -0.3703  0.3300 -0.0550
 7512SOL     OW23434   4.250   1.597   1.068  0.1999  0.2978  0.0530
 7512SOL    HW123435   4.336   1.628   1.028 -0.0252 -2.0488 -2.5908
 7512SOL    HW223436   4.268   1.547   1.153  1.2920  0.8211  0.1446
 7513SOL     OW23437   2.934   0.270   2.462 -0.0956 -0.1265 -0.2040
 7513SOL    HW123438   2.889   0.276   2.551 -1.1280 -0.3438 -0.7022
 7513SOL    HW223439   3.013   0.209   2.469 -0.3877 -0.4405  0.4741
 7514SOL     OW23440   0.485   6.373   0.876 -0.5263  0.1524 -0.3835
 7514SOL    HW123441   0.415   6.337   0.814 -1.8281  2.2188 -0.2035
 7514SOL    HW223442   0.444   6.392   0.964  0.7258 -0.2845  0.3204
 7515SOL     OW23443   6.407   6.030   5.801 -0.8222  0.7757 -0.8744
 7515SOL    HW123444   6.456   5.947   5.827  0.0546  1.2084 -1.0677
 7515SOL    HW223445   6.310   6.021   5.824 -0.3404  0.6250  1.3829
 7516SOL     OW23446   2.375   0.339   4.934 -0.5029  0.3642  0.6717
 7516SOL    HW123447   2.378   0.428   4.890  2.0556  0.1257  0.2435
 7516SOL    HW223448   2.436   0.276   4.887 -2.3030 -1.6849  0.9234
 7517SOL     OW23449   0.470   1.581   4.849  0.0547 -0.2004 -0.2562
 7517SOL    HW123450   0.424   1.655   4.801 -0.2035 -0.4760 -0.4422
 7517SOL    HW223451   0.424   1.563   4.936 -0.8979 -1.2199 -0.9449
 7518SOL     OW23452   4.824   0.585   4.419 -1.1132  0.3361  0.0217
 7518SOL    HW123453   4.790   0.617   4.507 -2.8014 -0.6800 -0.2185
 7518SOL    HW223454   4.920   0.611   4.409 -0.0380 -1.6579  3.2684
 7519SOL     OW23455   5.550   0.293   5.389  0.4380 -0.0671 -0.1634
 7519SOL    HW123456   5.636   0.345   5.383  0.9755 -0.9250 -0.1408
 7519SOL    HW223457   5.524   0.283   5.485  0.6899 -0.3907 -0.1257
 7520SOL     OW23458   2.609   1.480   1.211 -0.0524  0.0636  0.3748
 7520SOL    HW123459   2.691   1.538   1.215  1.1881 -1.3487 -2.1269
 7520SOL    HW223460   2.636   1.384   1.200 -2.0396 -0.5070  0.0357
 7521SOL     OW23461   4.163   1.761   4.348 -0.4264  0.1061 -0.2959
 7521SOL    HW123462   4.213   1.701   4.286  0.7571  0.0976  0.6188
 7521SOL    HW223463   4.219   1.841   4.370  1.3523 -2.0384  4.3676
 7522SOL     OW23464   2.279   1.272   3.217  0.4436 -0.3705  0.3664
 7522SOL    HW123465   2.335   1.349   3.188  1.8081 -0.9889  1.2780
 7522SOL    HW223466   2.258   1.214   3.139  2.2720 -0.8684  0.2028
 7523SOL     OW23467   5.081   0.646   1.311 -0.2108 -0.3974  0.3840
 7523SOL    HW123468   5.169   0.601   1.298 -0.2034 -0.6617  1.3122
 7523SOL    HW223469   5.014   0.606   1.249 -0.0373 -1.2194  0.7189
 7524SOL     OW23470   0.278   4.790   5.382 -0.3337  0.0652  0.1472
 7524SOL    HW123471   0.297   4.866   5.444  0.0946  1.8800 -2.0963
 7524SOL    HW223472   0.359   4.731   5.376 -0.0721  0.3702  0.6024
 7525SOL     OW23473   3.562   3.483   6.039  0.3116 -0.2445  0.0806
 7525SOL    HW123474   3.524   3.453   5.952  2.6518 -0.9931 -0.7685
 7525SOL    HW223475   3.558   3.583   6.045 -1.0215 -0.2587 -0.2835
 7526SOL     OW23476   1.722   4.511   0.807 -0.2259 -0.3668 -0.2653
 7526SOL    HW123477   1.785   4.507   0.729 -0.9583 -0.4324 -0.8746
 7526SOL    HW223478   1.754   4.579   0.873 -0.3426  0.7417 -1.3139
 7527SOL     OW23479   3.846   5.693   2.710 -0.4276  0.3497 -0.3687
 7527SOL    HW123480   3.915   5.625   2.734 -0.2672  1.0893  1.4414
 7527SOL    HW223481   3.882   5.784   2.726 -1.0005  0.8507 -1.7789
 7528SOL     OW23482   4.671   1.475   0.080 -0.4830 -0.4735  0.6159
 7528SOL    HW123483   4.761   1.451   0.043 -0.4679 -0.3179  0.5528
 7528SOL    HW223484   4.612   1.394   0.078 -0.5893 -0.3832 -0.0685
 7529SOL     OW23485   6.753   2.921   4.766 -0.3042 -0.0417  0.1512
 7529SOL    HW123486   6.845   2.883   4.769 -0.4820 -0.5098 -0.2600
 7529SOL    HW223487   6.749   2.993   4.697 -0.5716 -0.8955 -0.7296
 7530SOL     OW23488   5.642   2.045   3.003  0.3828  0.6153 -0.3282
 7530SOL    HW123489   5.638   1.995   2.917 -0.5549  0.1785 -0.0419
 7530SOL    HW223490   5.722   2.015   3.055  0.2342 -0.0611 -0.4798
 7531SOL     OW23491   3.709   1.417   3.129 -0.2085  0.4532 -0.1220
 7531SOL    HW123492   3.620   1.375   3.111 -1.1103  1.7839  1.1073
 7531SOL    HW223493   3.772   1.347   3.164 -0.9939 -0.3274 -0.2193
 7532SOL     OW23494   5.500   0.166   6.665 -0.0114  0.1555  0.0913
 7532SOL    HW123495   5.492   0.246   6.605  2.3705  0.9906  0.7908
 7532SOL    HW223496   5.596   0.150   6.687 -0.7152 -0.2268  3.4849
 7533SOL     OW23497   4.736   4.127   1.600  0.0378 -0.1941  0.2549
 7533SOL    HW123498   4.785   4.057   1.652  0.0861 -0.1183  0.3090
 7533SOL    HW223499   4.746   4.216   1.644  0.2871 -0.0857 -0.0178
 7534SOL     OW23500   4.556   5.595   6.316 -0.0867  0.3709 -0.4555
 7534SOL    HW123501   4.524   5.645   6.235  0.9430  1.0757 -0.4372
 7534SOL    HW223502   4.524   5.642   6.398 -0.8647 -0.1708 -0.4355
 7535SOL     OW23503   1.364   6.811   3.343  0.2601 -0.2783 -0.1221
 7535SOL    HW123504   1.417   6.781   3.422 -1.2948  0.5660  1.3148
 7535SOL    HW223505   1.315   6.734   3.303  0.2076 -0.5258  0.4216
 7536SOL     OW23506   6.154   5.805   2.955 -0.0480  0.0611 -0.4121
 7536SOL    HW123507   6.195   5.811   3.046 -0.7447 -2.3523  0.1138
 7536SOL    HW223508   6.077   5.869   2.950  1.2031  1.6670 -0.0390
 7537SOL     OW23509   2.082   6.661   3.557  0.0855  0.1621 -0.9643
 7537SOL    HW123510   2.025   6.603   3.498  1.0942  0.4076 -2.2160
 7537SOL    HW223511   2.177   6.630   3.553  0.5235  1.4565 -1.1182
 7538SOL     OW23512   6.648   5.560   5.797  0.1350 -0.4490  0.1089
 7538SOL    HW123513   6.558   5.516   5.795  0.3093 -0.8277  0.4674
 7538SOL    HW223514   6.694   5.547   5.710  0.6339 -1.9166  0.5798
 7539SOL     OW23515   6.569   1.257   4.060  0.4856 -0.3460 -0.5707
 7539SOL    HW123516   6.540   1.348   4.031  0.4373 -0.0070  0.4964
 7539SOL    HW223517   6.502   1.218   4.122  0.4963 -1.1337 -1.0334
 7540SOL     OW23518   5.597   4.556   3.601 -0.2844 -0.3112 -0.0378
 7540SOL    HW123519   5.621   4.640   3.552 -1.3415 -0.1562 -0.3240
 7540SOL    HW223520   5.610   4.570   3.699  1.2059 -0.4001 -0.2009
 7541SOL     OW23521   3.358   2.993   6.655 -0.5424  0.4778 -0.1723
 7541SOL    HW123522   3.379   2.954   6.566 -1.1507  0.3509 -0.2617
 7541SOL    HW223523   3.371   3.092   6.652 -2.3885  0.7448 -0.9682
 7542SOL     OW23524   7.014   6.672   3.240 -0.0901  0.0315  0.5930
 7542SOL    HW123525   7.078   6.621   3.298  0.0894 -0.5333 -0.0859
 7542SOL    HW223526   6.920   6.642   3.259  0.1452 -1.9549 -1.1172
 7543SOL     OW23527   1.715   6.708   7.018  0.2887 -0.0678  0.4488
 7543SOL    HW123528   1.661   6.627   7.040  0.3424  0.0877  1.1898
 7543SOL    HW223529   1.775   6.730   7.095 -0.0320  0.9149  0.4364
 7544SOL     OW23530   0.341   6.637   4.254  0.3976 -0.2173 -0.4771
 7544SOL    HW123531   0.389   6.724   4.245  0.7323 -0.5215 -1.8241
 7544SOL    HW223532   0.244   6.654   4.271  0.6405  0.4006  0.3737
 7545SOL     OW23533   1.899   4.096   6.500 -0.0802 -0.7654 -0.2719
 7545SOL    HW123534   1.811   4.119   6.460 -1.0593 -1.0195  1.6376
 7545SOL    HW223535   1.888   4.023   6.567  2.0269 -2.7381 -1.8915
 7546SOL     OW23536   1.895   2.360   1.123 -0.4144  0.7805 -0.7262
 7546SOL    HW123537   1.966   2.373   1.191 -0.9592 -1.7117  0.4570
 7546SOL    HW223538   1.929   2.385   1.032  1.6757  0.4463 -0.0668
 7547SOL     OW23539   4.312   2.082   2.657  0.2184  0.2501  0.7115
 7547SOL    HW123540   4.400   2.089   2.610 -0.1001 -0.8753 -0.0987
 7547SOL    HW223541   4.293   1.986   2.678 -0.6756  0.5130  1.1486
 7548SOL     OW23542   2.910   6.990   5.370 -0.3245 -0.3195 -0.5583
 7548SOL    HW123543   2.880   7.037   5.287  0.4637 -0.0136 -0.6784
 7548SOL    HW223544   2.857   6.906   5.381 -1.9698  0.7299 -0.1670
 7549SOL     OW23545   6.702   0.512   4.521  0.4239  0.2732 -0.5832
 7549SOL    HW123546   6.696   0.612   4.528  2.1538  0.3176  1.3188
 7549SOL    HW223547   6.655   0.471   4.599 -1.4563 -0.5259 -2.0472
 7550SOL     OW23548   2.331   5.793   3.707 -0.4989  0.4396 -0.3895
 7550SOL    HW123549   2.295   5.742   3.629 -1.5236  0.4816  0.0321
 7550SOL    HW223550   2.431   5.796   3.703 -0.4683 -0.8992 -0.8431
 7551SOL     OW23551   0.061   3.460   6.109  0.0914 -0.4292  0.5939
 7551SOL    HW123552   0.013   3.468   6.022 -0.0486 -2.4001  0.4557
 7551SOL    HW223553   0.025   3.527   6.174 -1.8025 -0.8477  0.0262
 7552SOL     OW23554   1.633   4.170   0.172  0.5238 -0.4059  0.3354
 7552SOL    HW123555   1.654   4.090   0.116 -0.4233 -1.3310  1.2664
 7552SOL    HW223556   1.556   4.150   0.232 -1.0148  1.8298 -0.7539
 7553SOL     OW23557   5.921   0.374   4.002 -0.2680 -0.6633  0.5077
 7553SOL    HW123558   5.891   0.288   3.961  0.0609 -0.7475  0.4416
 7553SOL    HW223559   6.020   0.373   4.014 -0.2267 -0.1832  0.2461
 7554SOL     OW23560   3.361   0.424   1.119 -0.5184  0.2179 -0.1059
 7554SOL    HW123561   3.399   0.503   1.071  0.7145  0.3773  1.1019
 7554SOL    HW223562   3.332   0.451   1.211 -1.4245 -0.4299 -0.1853
 7555SOL     OW23563   5.297   5.988   3.708  0.4035  0.1350  0.9628
 7555SOL    HW123564   5.246   5.944   3.634  1.3999  1.9791 -0.9051
 7555SOL    HW223565   5.258   5.959   3.796 -3.3011  0.7342 -0.3026
 7556SOL     OW23566   1.294   5.354   1.430 -0.9651 -0.2747  0.3092
 7556SOL    HW123567   1.292   5.440   1.378 -1.8314 -0.5582 -0.1593
 7556SOL    HW223568   1.384   5.312   1.423 -0.4513  0.7197  0.7612
 7557SOL     OW23569   5.403   0.733   0.990 -0.4337 -0.0886  0.0490
 7557SOL    HW123570   5.391   0.832   1.002 -0.5290 -0.0738 -0.1639
 7557SOL    HW223571   5.438   0.715   0.898  2.1401 -0.0531  0.9308
 7558SOL     OW23572   0.032   2.810   2.671 -0.0713 -0.3245  0.1109
 7558SOL    HW123573   0.124   2.779   2.646 -0.3834 -0.6843 -0.6030
 7558SOL    HW223574  -0.005   2.867   2.597 -1.1204 -1.6377 -0.4049
 7559SOL     OW23575   3.467   6.639   5.139  0.0435  0.0260 -0.0310
 7559SOL    HW123576   3.566   6.636   5.151  0.0065 -3.9148  0.5130
 7559SOL    HW223577   3.443   6.609   5.046 -0.6699  1.0475 -0.1954
 7560SOL     OW23578   0.964   2.722   5.431 -0.0139  0.2445  0.4702
 7560SOL    HW123579   0.873   2.731   5.390  0.2764  0.0865 -0.2180
 7560SOL    HW223580   1.021   2.798   5.403  0.3585 -0.1546  0.1387
 7561SOL     OW23581   4.142   0.421   5.816 -0.3505  0.0612 -0.3671
 7561SOL    HW123582   4.128   0.359   5.894  0.0377  1.6677  1.0573
 7561SOL    HW223583   4.153   0.368   5.732 -1.3960 -1.7169  0.5685
 7562SOL     OW23584   2.058   5.349   2.926  0.1705 -0.9491 -0.0091
 7562SOL    HW123585   2.061   5.251   2.909  1.3879 -0.5080 -2.7322
 7562SOL    HW223586   1.963   5.381   2.922 -0.1098 -1.8141 -0.3180
 7563SOL     OW23587   3.487   6.079   2.949  0.0718 -0.0293 -0.2559
 7563SOL    HW123588   3.447   5.995   2.986 -1.0721  0.7317  0.3029
 7563SOL    HW223589   3.435   6.158   2.982  2.4102  1.0818  1.0172
 7564SOL     OW23590   3.425   1.987   4.732  0.5818  0.3217 -0.5264
 7564SOL    HW123591   3.474   1.993   4.819 -2.4038 -0.7378  1.3828
 7564SOL    HW223592   3.373   1.902   4.728 -1.3900  1.4980 -2.1870
 7565SOL     OW23593   6.343   2.870   6.044 -0.1839 -0.1100  0.1384
 7565SOL    HW123594   6.391   2.954   6.071  0.3573 -0.2721 -0.3048
 7565SOL    HW223595   6.317   2.875   5.948 -0.6833 -0.2069  0.2633
 7566SOL     OW23596   5.576   5.193   1.221  0.0060 -0.4346 -0.1631
 7566SOL    HW123597   5.516   5.202   1.141  1.6112  0.9803 -1.2984
 7566SOL    HW223598   5.538   5.245   1.297 -0.8312 -0.5901 -0.4644
 7567SOL     OW23599   0.959   6.186   4.020 -0.4142  0.6354 -0.1864
 7567SOL    HW123600   0.908   6.169   4.104 -2.1192  0.4636 -1.2122
 7567SOL    HW223601   0.968   6.101   3.968  0.9436  0.6637 -0.0407
 7568SOL     OW23602   6.176   3.376   0.466  0.3228 -0.1496  0.2172
 7568SOL    HW123603   6.152   3.331   0.380 -2.1393  0.0037  0.7486
 7568SOL    HW223604   6.093   3.395   0.518  1.7195 -0.1650  2.6180
 7569SOL     OW23605   3.940   2.930   1.086  0.5956 -0.5745  0.2742
 7569SOL    HW123606   3.907   2.933   1.181  0.1598 -0.4439  0.1200
 7569SOL    HW223607   4.038   2.911   1.086  0.8443  0.6131  0.7942
 7570SOL     OW23608   1.643   3.997   1.669 -0.5089  0.2428  0.3373
 7570SOL    HW123609   1.723   4.010   1.727  0.4663  0.6425 -1.0573
 7570SOL    HW223610   1.618   4.083   1.625  1.1662 -0.7354 -2.8045
 7571SOL     OW23611   5.827   3.307   3.527 -0.1841 -0.1103  1.0246
 7571SOL    HW123612   5.741   3.283   3.483 -0.0267 -1.0604  1.2203
 7571SOL    HW223613   5.821   3.286   3.625 -0.2801  1.3096  1.3538
 7572SOL     OW23614   3.834   0.053   5.620  0.0317 -0.6580 -0.1630
 7572SOL    HW123615   3.800   0.141   5.590  0.6652  0.1340  1.3047
 7572SOL    HW223616   3.851   0.056   5.719 -2.5132 -3.2635  0.4896
 7573SOL     OW23617   3.465   5.143   1.153 -0.2939 -0.2230 -0.4618
 7573SOL    HW123618   3.438   5.057   1.110 -2.1146  0.2963 -0.4413
 7573SOL    HW223619   3.551   5.175   1.113  1.0383 -2.5721  0.3028
 7574SOL     OW23620   1.764   3.397   3.576 -0.1512  0.0346 -0.1975
 7574SOL    HW123621   1.805   3.313   3.542  0.1699  0.6814 -1.4499
 7574SOL    HW223622   1.836   3.462   3.601 -0.3501 -0.4947  2.0393
 7575SOL     OW23623   6.964   1.778   1.678 -0.8694 -0.3577  0.3971
 7575SOL    HW123624   6.934   1.772   1.773 -2.4001  1.4800  0.0728
 7575SOL    HW223625   7.048   1.831   1.673 -0.1721 -1.3818  0.7983
 7576SOL     OW23626   4.713   2.152   0.955  0.8955 -0.0870  0.0075
 7576SOL    HW123627   4.799   2.196   0.981  1.1711 -1.3625  1.4351
 7576SOL    HW223628   4.636   2.207   0.987  1.2328 -0.9533  2.5385
 7577SOL     OW23629   0.210   0.399   6.466 -0.7809 -0.0041  0.2679
 7577SOL    HW123630   0.310   0.408   6.465 -0.5052 -2.4049 -0.3027
 7577SOL    HW223631   0.171   0.470   6.525  1.3413  0.2976  1.4334
 7578SOL     OW23632   6.572   6.013   3.018 -0.0200 -0.0293 -0.1522
 7578SOL    HW123633   6.511   5.984   3.092 -0.5938 -0.6315 -0.8555
 7578SOL    HW223634   6.658   5.962   3.024 -1.0431 -2.0026 -1.4169
 7579SOL     OW23635   1.107   2.629   1.641  0.0917  0.4745  0.0007
 7579SOL    HW123636   1.106   2.716   1.591 -1.7557  0.0294 -0.8264
 7579SOL    HW223637   1.018   2.615   1.684  0.4158 -0.9567  0.2336
 7580SOL     OW23638   3.715   4.918   3.567 -0.0928  0.2364  1.1242
 7580SOL    HW123639   3.792   4.857   3.549  1.0396  1.3216  2.0794
 7580SOL    HW223640   3.666   4.935   3.482  0.0021 -1.3877  0.7057
 7581SOL     OW23641   6.817   6.248   2.198  0.1250  0.0015 -0.6993
 7581SOL    HW123642   6.842   6.341   2.171 -1.4913  0.7949  0.4017
 7581SOL    HW223643   6.769   6.203   2.122 -1.0631  0.8789 -0.4906
 7582SOL     OW23644   2.482   1.151   0.474  0.3149 -0.2711  0.2008
 7582SOL    HW123645   2.526   1.212   0.539  0.4559 -0.2214  0.0614
 7582SOL    HW223646   2.405   1.198   0.429  0.0152 -0.4130  0.5644
 7583SOL     OW23647   6.858   4.007   2.186 -0.2099  0.4861  0.1480
 7583SOL    HW123648   6.878   3.914   2.219  1.1157  0.4125 -0.7921
 7583SOL    HW223649   6.858   4.008   2.086  1.1606  1.7526  0.1346
 7584SOL     OW23650   1.954   0.606   4.165  0.8216  0.4216 -0.0846
 7584SOL    HW123651   1.956   0.621   4.264  0.8816  0.2667 -0.0626
 7584SOL    HW223652   1.961   0.694   4.118 -0.8311  0.6631  0.0589
 7585SOL     OW23653   2.200   1.089   5.658 -0.4582  0.2654  0.2574
 7585SOL    HW123654   2.101   1.102   5.650 -0.4838 -0.0743 -0.0246
 7585SOL    HW223655   2.232   1.031   5.582  0.2704  1.9759 -0.7879
 7586SOL     OW23656   1.428   6.047   3.982 -0.1559  0.3464  0.6527
 7586SOL    HW123657   1.458   5.993   3.904  1.0786  0.9816  0.6757
 7586SOL    HW223658   1.364   5.993   4.037  1.1543 -1.1594  0.7589
 7587SOL     OW23659   4.368   1.877   1.956 -0.3878  0.0589 -0.4158
 7587SOL    HW123660   4.434   1.950   1.970  0.9697 -0.9562 -1.3286
 7587SOL    HW223661   4.405   1.791   1.991 -2.2589 -0.1322  1.3494
 7588SOL     OW23662   2.181   3.094   3.028  0.5849 -0.0796  0.1945
 7588SOL    HW123663   2.191   3.188   2.995  0.7145 -0.0264  0.3877
 7588SOL    HW223664   2.163   3.094   3.126 -0.9869 -0.1827 -0.0625
 7589SOL     OW23665   0.773   5.054   5.024  0.4762 -0.3305 -0.0013
 7589SOL    HW123666   0.697   5.058   5.089 -0.6728  0.3254 -1.3237
 7589SOL    HW223667   0.833   4.977   5.047 -0.1724 -0.4137  1.5087
 7590SOL     OW23668   5.809   0.497   6.957  0.3399  0.5735  0.4292
 7590SOL    HW123669   5.900   0.475   6.993 -0.4043  1.4782  3.1596
 7590SOL    HW223670   5.773   0.576   7.007 -2.0100  0.1496 -0.4921
 7591SOL     OW23671   3.396   3.778   3.700 -0.3352  0.2645  0.0749
 7591SOL    HW123672   3.415   3.810   3.793 -0.8889  2.9533 -0.6484
 7591SOL    HW223673   3.320   3.714   3.702  0.4757 -0.7137  1.5783
 7592SOL     OW23674   0.726   5.296   4.600  0.3971 -0.6335  0.4098
 7592SOL    HW123675   0.755   5.204   4.626  0.7527  0.0245  2.5671
 7592SOL    HW223676   0.641   5.319   4.648  0.0909  0.0312 -0.4110
 7593SOL     OW23677   1.426   0.485   5.812 -0.2935  0.3237 -0.1868
 7593SOL    HW123678   1.526   0.486   5.811 -0.2746  1.1306  0.7687
 7593SOL    HW223679   1.391   0.488   5.719  0.5778  1.8322 -0.4899
 7594SOL     OW23680   0.687   2.326   4.969 -0.1440 -0.3777 -0.3320
 7594SOL    HW123681   0.766   2.287   4.923  0.0947 -2.5345  1.7302
 7594SOL    HW223682   0.658   2.409   4.921  2.5807 -0.1898 -1.8410
 7595SOL     OW23683   6.068   3.545   6.190  0.2641  1.1648  0.1145
 7595SOL    HW123684   6.077   3.504   6.099 -1.7014 -0.0830  0.4222
 7595SOL    HW223685   6.037   3.475   6.255 -0.3818  2.5069  1.3044
 7596SOL     OW23686   1.228   1.032   7.012  0.2710 -0.6707  0.1531
 7596SOL    HW123687   1.229   1.019   7.111 -0.4982  0.0804  0.2701
 7596SOL    HW223688   1.318   1.064   6.982 -0.4297  2.6192  1.1587
 7597SOL     OW23689   2.446   5.073   0.961 -0.2665  0.1012  0.5772
 7597SOL    HW123690   2.412   5.164   0.937  0.6545  0.7311  1.5548
 7597SOL    HW223691   2.466   5.070   1.059 -1.0189 -1.4157  0.7221
 7598SOL     OW23692   1.279   0.610   3.701  0.0764 -0.0794  0.1968
 7598SOL    HW123693   1.278   0.551   3.621  2.2045  1.5813 -1.1376
 7598SOL    HW223694   1.226   0.693   3.682  0.6519  0.3567  0.4780
 7599SOL     OW23695   1.572   3.790   1.863 -0.0669 -0.0917  0.0692
 7599SOL    HW123696   1.590   3.693   1.850 -2.7981 -0.5899 -0.6646
 7599SOL    HW223697   1.614   3.843   1.789  0.5052 -0.8444 -0.1472
 7600SOL     OW23698   4.236   6.946   2.799 -0.1358  0.2755  0.0086
 7600SOL    HW123699   4.287   7.021   2.841 -1.1186  1.1583 -0.3076
 7600SOL    HW223700   4.244   6.951   2.700  0.1919 -0.3398 -0.0001
 7601SOL     OW23701   4.100   6.787   0.989  0.2281  0.5422  0.0838
 7601SOL    HW123702   4.187   6.795   0.940 -0.2526 -0.2058 -0.9340
 7601SOL    HW223703   4.088   6.693   1.020 -0.9792  0.2100 -1.2923
 7602SOL     OW23704   2.353   6.933   3.317  0.0729  0.4429 -0.3575
 7602SOL    HW123705   2.314   6.850   3.278 -0.9963 -0.0315  1.5741
 7602SOL    HW223706   2.311   6.951   3.406 -0.5633  3.7056 -1.1840
 7603SOL     OW23707   4.200   1.799   4.966  0.1220  0.1961 -0.5832
 7603SOL    HW123708   4.247   1.787   4.879 -0.2380  1.1192 -0.9229
 7603SOL    HW223709   4.107   1.831   4.949 -0.7160 -1.7477  0.0644
 7604SOL     OW23710   2.380   1.937   5.258  0.0425  0.7411 -0.0279
 7604SOL    HW123711   2.302   1.934   5.195  1.4488  1.6577 -1.9073
 7604SOL    HW223712   2.450   1.871   5.229  1.2063  1.9757 -0.1289
 7605SOL     OW23713   3.055   5.116   5.700  0.0397  0.4654  0.5031
 7605SOL    HW123714   3.041   5.017   5.702 -1.5712  0.6200 -0.6621
 7605SOL    HW223715   3.145   5.137   5.663 -0.4389 -0.5626 -1.3666
 7606SOL     OW23716   0.485   0.713   5.217 -0.3836  0.4102 -0.9555
 7606SOL    HW123717   0.558   0.661   5.173 -2.0420 -1.6333 -1.4216
 7606SOL    HW223718   0.466   0.674   5.307 -0.4381  1.3853 -0.5301
 7607SOL     OW23719   2.484   6.007   5.591 -0.1522  0.5014 -0.4145
 7607SOL    HW123720   2.525   5.945   5.523 -1.8311  0.0894 -1.0928
 7607SOL    HW223721   2.421   6.070   5.545 -1.9048 -0.2836  0.8270
 7608SOL     OW23722   6.496   3.698   5.514 -0.1255  0.1032 -0.4097
 7608SOL    HW123723   6.403   3.672   5.540  0.1293 -0.9626 -0.5028
 7608SOL    HW223724   6.524   3.779   5.565 -0.5128 -0.5270  0.8435
 7609SOL     OW23725   2.375   0.603   4.840 -0.1438 -0.4502 -0.4282
 7609SOL    HW123726   2.468   0.593   4.877 -0.2794 -0.7126 -0.1545
 7609SOL    HW223727   2.313   0.631   4.913 -0.2341 -0.0312 -0.6673
 7610SOL     OW23728   4.637   6.585   3.704  0.0731 -0.3251 -0.5636
 7610SOL    HW123729   4.602   6.678   3.706 -0.0859 -0.4010  0.2237
 7610SOL    HW223730   4.563   6.522   3.679 -0.1758 -0.3951  0.3178
 7611SOL     OW23731   4.496   2.150   1.787  0.0500 -0.0930  0.3303
 7611SOL    HW123732   4.461   2.243   1.786  1.4603  0.5077 -2.1356
 7611SOL    HW223733   4.529   2.127   1.879 -1.9152  1.1476  1.4132
 7612SOL     OW23734   3.271   1.765   2.011  0.0821 -0.6939  0.2139
 7612SOL    HW123735   3.331   1.705   1.958 -0.3485 -1.2924  0.3980
 7612SOL    HW223736   3.302   1.768   2.106  0.6785  0.1500  0.0126
 7613SOL     OW23737   0.530   0.822   0.695  0.5468  0.1277  0.2749
 7613SOL    HW123738   0.547   0.745   0.633 -0.4622 -0.4883  0.7374
 7613SOL    HW223739   0.528   0.907   0.642 -0.3790 -0.3920 -0.5819
 7614SOL     OW23740   4.662   5.246   1.023 -0.3070 -0.0640  0.0128
 7614SOL    HW123741   4.758   5.243   0.999 -0.2772  3.6674 -0.8079
 7614SOL    HW223742   4.652   5.265   1.121 -0.1577  1.3077 -0.2304
 7615SOL     OW23743   4.940   3.364   5.461  0.5860 -0.3409 -0.2272
 7615SOL    HW123744   4.921   3.446   5.514  1.4600  0.0273 -0.4654
 7615SOL    HW223745   4.882   3.362   5.380 -0.3690 -0.6311  0.4505
 7616SOL     OW23746   0.051   5.040   3.571 -0.3136 -0.0190  0.4796
 7616SOL    HW123747  -0.021   5.082   3.514  0.8937  2.4119  0.6263
 7616SOL    HW223748   0.087   5.108   3.634  1.9081 -1.2607  0.6413
 7617SOL     OW23749   0.383   5.065   3.199 -0.5718 -0.0048 -0.6446
 7617SOL    HW123750   0.361   5.111   3.285 -0.1718 -0.3229 -0.3672
 7617SOL    HW223751   0.394   5.133   3.127 -0.2324  0.3184 -0.2936
 7618SOL     OW23752   2.162   2.358   5.934  0.1870  0.2112 -0.2965
 7618SOL    HW123753   2.149   2.287   5.865  0.2870 -0.5817  0.4832
 7618SOL    HW223754   2.141   2.448   5.894 -1.9319 -0.4222 -0.7350
 7619SOL     OW23755   1.526   1.456   0.354 -0.4324  0.2105  0.5764
 7619SOL    HW123756   1.547   1.525   0.285  2.5125  0.1845  1.3127
 7619SOL    HW223757   1.463   1.388   0.315  1.0922  0.2045 -2.1145
 7620SOL     OW23758   1.548   2.840   6.052  0.0535 -0.2866 -0.0363
 7620SOL    HW123759   1.454   2.873   6.065 -0.7308 -2.5205  0.3630
 7620SOL    HW223760   1.548   2.763   5.988  1.6894 -0.0391 -0.3789
 7621SOL     OW23761   5.674   3.926   5.665 -0.8378 -0.3659  1.0665
 7621SOL    HW123762   5.716   3.931   5.756 -2.1633 -1.3712  1.7780
 7621SOL    HW223763   5.622   3.841   5.658 -1.1912 -0.0456 -0.4613
 7622SOL     OW23764   3.904   3.162   2.107 -0.1303 -0.4010  0.2723
 7622SOL    HW123765   3.929   3.068   2.082 -0.1594 -0.2244 -0.4345
 7622SOL    HW223766   3.986   3.212   2.136 -0.1858 -0.7783  1.1394
 7623SOL     OW23767   5.055   4.158   2.461  0.5522  0.0625 -0.7101
 7623SOL    HW123768   4.965   4.143   2.420  0.3560 -1.8121  0.2775
 7623SOL    HW223769   5.076   4.256   2.461 -1.5720  0.5686 -0.8001
 7624SOL     OW23770   1.052   4.177   4.549  0.5471  0.1110 -0.4495
 7624SOL    HW123771   1.117   4.107   4.579  0.0725  0.0560  0.4933
 7624SOL    HW223772   1.073   4.204   4.455  1.2553 -0.6861 -0.5328
 7625SOL     OW23773   0.162   6.751   2.467 -0.1620  0.2117 -0.3759
 7625SOL    HW123774   0.165   6.713   2.374 -1.2195  1.3810 -0.9231
 7625SOL    HW223775   0.118   6.686   2.528  1.2987 -0.9282 -0.4803
 7626SOL     OW23776   3.791   0.904   6.882 -0.1583  0.0942 -0.6915
 7626SOL    HW123777   3.834   0.978   6.831  1.0271 -0.0642  0.0520
 7626SOL    HW223778   3.841   0.889   6.967 -0.9907 -0.8955 -0.3624
 7627SOL     OW23779   3.937   3.079   6.664 -0.8945 -0.1047 -0.1719
 7627SOL    HW123780   3.984   3.045   6.746 -1.7660 -0.0304  0.3759
 7627SOL    HW223781   3.871   3.011   6.633 -0.0165 -0.4678 -1.2988
 7628SOL     OW23782   3.511   2.526   6.739 -0.1736 -0.6649  0.4340
 7628SOL    HW123783   3.504   2.609   6.793 -0.9610 -0.0740 -0.5439
 7628SOL    HW223784   3.434   2.466   6.759 -0.6724 -0.2749 -0.3067
 7629SOL     OW23785   6.927   2.286   2.417 -0.4746 -0.3619 -0.0969
 7629SOL    HW123786   6.971   2.376   2.412 -0.1595 -0.2965  2.4837
 7629SOL    HW223787   6.847   2.285   2.358  0.0580  1.2795 -0.9263
 7630SOL     OW23788   1.616   6.640   5.415  0.0634  0.2887 -0.6090
 7630SOL    HW123789   1.539   6.595   5.461 -0.4183 -0.1096 -1.7630
 7630SOL    HW223790   1.696   6.639   5.475 -0.8078  0.6747  0.5997
 7631SOL     OW23791   2.061   0.946   6.611  0.3893 -0.1426  0.1125
 7631SOL    HW123792   2.080   0.854   6.644 -0.0200  0.2735  1.5685
 7631SOL    HW223793   2.143   0.985   6.569  0.2541 -1.5764 -1.5890
 7632SOL     OW23794   4.491   6.099   6.563 -0.0945 -0.3993  0.3279
 7632SOL    HW123795   4.540   6.119   6.478 -3.5019  0.4908 -1.5954
 7632SOL    HW223796   4.453   6.007   6.558 -1.7645  0.2805  0.0844
 7633SOL     OW23797   6.494   0.822   0.786 -0.0756 -1.1441  0.4231
 7633SOL    HW123798   6.409   0.848   0.742 -1.2614 -2.4648  1.8262
 7633SOL    HW223799   6.549   0.904   0.804 -1.7611 -0.0798  0.9222
 7634SOL     OW23800   5.768   3.007   6.257  0.0334 -0.5458 -0.1096
 7634SOL    HW123801   5.706   2.931   6.277  0.1706 -0.4785  0.5947
 7634SOL    HW223802   5.720   3.076   6.202 -0.0533 -1.1946 -0.8562
 7635SOL     OW23803   1.080   3.789   4.794  0.0507 -0.0719 -0.2459
 7635SOL    HW123804   1.109   3.883   4.815  0.3142  0.2759 -1.9775
 7635SOL    HW223805   1.035   3.749   4.873 -0.4990  1.6945  0.3720
 7636SOL     OW23806   6.774   3.123   4.596  0.1901 -0.2297  0.5368
 7636SOL    HW123807   6.691   3.179   4.604 -0.3484 -0.9366 -0.0054
 7636SOL    HW223808   6.805   3.124   4.501  0.6059 -0.2466  0.6749
 7637SOL     OW23809   1.899   4.285   5.001 -0.1460  0.2149 -0.2801
 7637SOL    HW123810   1.811   4.240   5.016  0.6055 -0.7970  1.2945
 7637SOL    HW223811   1.970   4.240   5.055  1.5327  0.4789 -2.1238
 7638SOL     OW23812   0.847   6.899   0.264 -0.8246 -0.0091 -0.7360
 7638SOL    HW123813   0.880   6.931   0.353 -2.1314  1.1239 -0.6293
 7638SOL    HW223814   0.871   6.803   0.252  2.5907  0.6992 -0.7337
 7639SOL     OW23815   0.556   1.895   1.460  0.6498  0.1320  0.9207
 7639SOL    HW123816   0.579   1.984   1.499 -0.2707  0.2947  1.1094
 7639SOL    HW223817   0.507   1.841   1.528 -1.8497  0.7747 -0.2702
 7640SOL     OW23818   3.814   0.532   0.449  0.0133  0.1428 -1.1364
 7640SOL    HW123819   3.830   0.596   0.524 -0.5604 -0.1266 -0.7744
 7640SOL    HW223820   3.858   0.566   0.366  0.7451  0.3894 -0.6527
 7641SOL     OW23821   6.582   6.262   5.942  0.0895  0.4479  0.0900
 7641SOL    HW123822   6.620   6.269   5.850 -1.3844 -1.3712 -0.7223
 7641SOL    HW223823   6.645   6.211   6.001 -0.1591 -0.8346 -0.7106
 7642SOL     OW23824   6.558   0.855   3.205  0.1865 -0.2618 -0.1902
 7642SOL    HW123825   6.497   0.934   3.200 -0.5347 -0.7671  0.3527
 7642SOL    HW223826   6.651   0.886   3.222  0.4062  0.6273 -2.6082
 7643SOL     OW23827   4.833   4.993   3.628  0.3665 -0.0473 -0.2139
 7643SOL    HW123828   4.878   4.941   3.556  1.3908  0.4768  0.0291
 7643SOL    HW223829   4.745   5.028   3.594  0.1128 -1.1006 -0.6825
 7644SOL     OW23830   3.105   4.275   6.599 -0.2705  0.0855  0.5396
 7644SOL    HW123831   3.201   4.291   6.577 -0.6402  0.8309 -0.6162
 7644SOL    HW223832   3.072   4.197   6.545 -0.0838 -0.7651  1.6276
 7645SOL     OW23833   3.000   4.317   5.951  0.4931 -0.0199  0.2649
 7645SOL    HW123834   3.015   4.338   5.854  1.9271  0.2919  0.5344
 7645SOL    HW223835   3.059   4.374   6.007 -0.8802  0.3349  1.3827
 7646SOL     OW23836   6.779   2.281   6.866  0.1989 -0.7037 -0.3152
 7646SOL    HW123837   6.691   2.234   6.877 -1.1871  1.8407  0.3001
 7646SOL    HW223838   6.775   2.341   6.786  0.7949  0.6136  0.6085
 7647SOL     OW23839   0.190   1.798   3.832 -0.3281  0.4654 -0.1813
 7647SOL    HW123840   0.142   1.798   3.745 -0.6276 -2.5236 -0.1202
 7647SOL    HW223841   0.287   1.776   3.818 -0.2484  0.5418  0.2135
 7648SOL     OW23842   1.708   2.823   6.977  0.0217  0.6732 -0.4419
 7648SOL    HW123843   1.767   2.812   6.897  1.1203 -0.9815  0.5307
 7648SOL    HW223844   1.686   2.733   7.015  0.5719  1.4428  1.8425
 7649SOL     OW23845   3.555   6.942   6.064 -0.2239  0.5195  0.0430
 7649SOL    HW123846   3.580   6.851   6.098 -1.6255 -0.1945 -0.7647
 7649SOL    HW223847   3.468   6.937   6.016 -0.6873  2.4444  0.6051
 7650SOL     OW23848   2.709   0.762   6.873 -0.4063  0.0900  0.4580
 7650SOL    HW123849   2.674   0.815   6.796  0.8388  0.3462  0.0528
 7650SOL    HW223850   2.767   0.820   6.930 -0.4554 -0.3784  0.9956
 7651SOL     OW23851   2.628   6.452   6.798  0.0171  0.5384  0.3798
 7651SOL    HW123852   2.537   6.417   6.776 -0.3862  1.1038  1.0867
 7651SOL    HW223853   2.680   6.466   6.714  0.0858 -1.4171  0.0529
 7652SOL     OW23854   1.054   5.876   5.967  0.3151  0.5213 -0.4643
 7652SOL    HW123855   1.034   5.933   5.887  0.1415 -0.2408 -0.9752
 7652SOL    HW223856   1.150   5.849   5.965  0.2101  0.1478 -0.6584
 7653SOL     OW23857   1.739   6.380   5.649  0.4929 -0.0914 -0.7265
 7653SOL    HW123858   1.667   6.379   5.718  1.0617 -0.4440 -0.1159
 7653SOL    HW223859   1.785   6.469   5.649  0.7118 -0.2008 -0.4044
 7654SOL     OW23860   5.025   4.026   6.991  0.8140 -0.2709  0.4126
 7654SOL    HW123861   5.050   4.036   6.895 -0.1432 -0.3870  0.1402
 7654SOL    HW223862   5.089   4.078   7.048  0.7819  0.6479 -0.3599
 7655SOL     OW23863   3.271   1.543   2.612  0.3656  0.2832 -0.6378
 7655SOL    HW123864   3.324   1.460   2.594  2.3821  1.7729 -1.9565
 7655SOL    HW223865   3.332   1.615   2.644 -1.2086  1.5070 -0.3014
 7656SOL     OW23866   6.009   5.306   6.722  0.0249  0.3594  0.5423
 7656SOL    HW123867   5.938   5.369   6.751 -0.9143 -0.5371  0.2634
 7656SOL    HW223868   6.099   5.341   6.748 -0.3463  2.4828 -0.8331
 7657SOL     OW23869   2.194   4.967   5.746 -0.4765  0.0467 -0.1269
 7657SOL    HW123870   2.161   5.027   5.819 -0.7160 -0.5129  0.2296
 7657SOL    HW223871   2.116   4.928   5.697 -0.4692 -2.3990  1.6174
 7658SOL     OW23872   2.449   0.878   0.507  0.4425 -0.1728 -0.0416
 7658SOL    HW123873   2.485   0.971   0.515  0.5699 -0.2772  0.6940
 7658SOL    HW223874   2.524   0.814   0.488  0.2858 -0.0631 -1.0381
 7659SOL     OW23875   4.028   5.701   0.057  0.6814  0.1290 -0.1377
 7659SOL    HW123876   4.111   5.694   0.112  0.3778 -1.5607  0.1539
 7659SOL    HW223877   3.968   5.771   0.097  0.7984 -0.5308  1.2585
 7660SOL     OW23878   0.873   0.821   6.208  0.5901 -0.3695  0.2224
 7660SOL    HW123879   0.910   0.740   6.162  0.3030  0.0882 -0.8469
 7660SOL    HW223880   0.803   0.792   6.273 -1.1507 -0.8948 -1.7575
 7661SOL     OW23881   4.328   1.756   5.469  0.2511 -0.1958 -0.2788
 7661SOL    HW123882   4.407   1.799   5.513  1.8814 -1.5741 -1.6784
 7661SOL    HW223883   4.267   1.718   5.539  2.3972 -1.7192  0.8775
 7662SOL     OW23884   6.683   6.059   0.056  0.0019  0.4741  0.3919
 7662SOL    HW123885   6.754   6.129   0.049  1.3244 -0.2914  3.8596
 7662SOL    HW223886   6.680   6.024   0.150 -1.3494 -3.3243 -0.8599
 7663SOL     OW23887   1.594   6.497   5.163  0.3793  0.2351  0.4486
 7663SOL    HW123888   1.600   6.550   5.248  1.4256  2.0194 -0.6738
 7663SOL    HW223889   1.556   6.554   5.090 -1.6699 -1.6417 -0.0543
 7664SOL     OW23890   4.537   0.959   2.470  0.5595 -0.1917  0.1882
 7664SOL    HW123891   4.632   0.987   2.480  1.3883 -2.1207 -1.5391
 7664SOL    HW223892   4.478   1.026   2.514  2.3753  3.5963 -2.5490
 7665SOL     OW23893   3.950   0.238   4.568 -0.1150 -0.1306 -0.2599
 7665SOL    HW123894   4.002   0.246   4.483  2.4415 -0.1668  1.2243
 7665SOL    HW223895   3.937   0.142   4.590 -1.4440 -0.1307 -0.9528
 7666SOL     OW23896   5.086   5.783   2.329 -0.3002 -0.5136 -0.1858
 7666SOL    HW123897   4.992   5.762   2.356 -0.6973  0.0944 -1.0608
 7666SOL    HW223898   5.131   5.834   2.402 -0.8414 -0.2951  0.0014
 7667SOL     OW23899   6.890   5.911   2.067  0.1132  0.0791  0.3007
 7667SOL    HW123900   6.925   5.924   2.160  1.1795 -0.5262 -0.0008
 7667SOL    HW223901   6.935   5.833   2.024 -2.2980 -1.3619  0.1959
 7668SOL     OW23902   0.537   0.521   1.159 -0.6537  0.0963 -0.1632
 7668SOL    HW123903   0.526   0.610   1.115 -1.0195  0.3177  0.3680
 7668SOL    HW223904   0.619   0.522   1.217 -1.8607  0.8302  1.5944
 7669SOL     OW23905   2.962   0.051   6.667 -0.1679 -0.5598  0.3521
 7669SOL    HW123906   2.877   0.101   6.649 -1.0911 -2.3644 -0.6081
 7669SOL    HW223907   2.985  -0.005   6.588  2.5943  0.7241  0.1257
 7670SOL     OW23908   1.470   6.502   2.272 -0.3407  0.0923  0.3903
 7670SOL    HW123909   1.371   6.497   2.287 -0.2714  0.8991  1.1956
 7670SOL    HW223910   1.508   6.579   2.323  0.4530  0.8686 -1.2619
 7671SOL     OW23911   1.794   6.314   3.315  0.3252 -0.3965  0.2616
 7671SOL    HW123912   1.727   6.386   3.329 -0.2193 -0.1828 -2.8482
 7671SOL    HW223913   1.878   6.353   3.276  0.3805 -1.2991 -0.5604
 7672SOL     OW23914   5.921   5.106   6.908  0.2178  0.0276  0.0038
 7672SOL    HW123915   5.938   5.140   6.815  1.8604 -1.5693 -0.3382
 7672SOL    HW223916   5.925   5.006   6.908 -0.4811 -0.0310  1.6862
 7673SOL     OW23917   3.528   5.984   3.826  0.0890  0.2699 -0.0487
 7673SOL    HW123918   3.494   5.921   3.756  0.6108 -1.5772  1.2920
 7673SOL    HW223919   3.456   6.048   3.851 -1.0817 -0.9693 -0.1518
 7674SOL     OW23920   5.179   6.787   3.893 -0.3085  0.0191 -0.0238
 7674SOL    HW123921   5.178   6.833   3.982  0.9358 -2.5726  1.4477
 7674SOL    HW223922   5.218   6.848   3.824 -1.9854  2.3651  0.9820
 7675SOL     OW23923   4.688   6.530   1.805 -0.0739  0.2862  0.5509
 7675SOL    HW123924   4.647   6.472   1.733 -2.0215  0.9431  1.0655
 7675SOL    HW223925   4.615   6.573   1.858  1.2566 -0.8264  3.5113
 7676SOL     OW23926   3.827   3.477   4.029 -0.4725 -0.9626 -0.3527
 7676SOL    HW123927   3.776   3.419   4.093  0.6609 -0.0344  1.4855
 7676SOL    HW223928   3.918   3.438   4.014  0.8551  0.9332  2.0519
 7677SOL     OW23929   6.873   5.750   6.296  0.3409  1.0888  0.0889
 7677SOL    HW123930   6.954   5.695   6.278  0.7242  1.3704  0.9147
 7677SOL    HW223931   6.791   5.692   6.288  0.8140  0.0039  2.4048
 7678SOL     OW23932   4.307   1.565   4.193 -0.6542  0.1022 -0.5232
 7678SOL    HW123933   4.399   1.604   4.184 -0.9573  0.7452 -0.9190
 7678SOL    HW223934   4.269   1.548   4.102 -1.2797  0.7091 -0.3910
 7679SOL     OW23935   3.145   4.930   4.608  0.3881 -0.0760 -0.9702
 7679SOL    HW123936   3.081   4.866   4.565  0.6526 -1.2223  0.2823
 7679SOL    HW223937   3.098   5.014   4.633 -0.6839 -0.9560  0.0638
 7680SOL     OW23938   1.948   2.217   4.386 -0.4202 -0.2661  0.5617
 7680SOL    HW123939   2.028   2.217   4.446 -0.6492 -0.7809  0.8735
 7680SOL    HW223940   1.928   2.123   4.358 -0.2792 -0.0273 -0.3727
 7681SOL     OW23941   0.798   1.233   3.355 -0.4046 -0.1109  0.2566
 7681SOL    HW123942   0.836   1.274   3.272  1.1579 -2.3397 -0.2043
 7681SOL    HW223943   0.703   1.207   3.338 -0.3859  0.2964 -0.5301
 7682SOL     OW23944   3.419   6.784   2.493 -0.2767 -0.3829 -0.3517
 7682SOL    HW123945   3.434   6.750   2.586  0.9185 -0.5495 -0.5915
 7682SOL    HW223946   3.324   6.816   2.485 -1.2737 -2.9051  0.1183
 7683SOL     OW23947   6.748   5.279   3.982 -0.5290 -0.3066 -0.0163
 7683SOL    HW123948   6.836   5.232   3.984 -0.4339 -0.1713 -0.8209
 7683SOL    HW223949   6.681   5.228   4.037  0.0905 -0.3076  0.7549
 7684SOL     OW23950   5.036   2.287   3.204  0.6786 -0.2276 -0.2999
 7684SOL    HW123951   5.115   2.229   3.188 -0.3525 -1.1829 -2.2942
 7684SOL    HW223952   4.979   2.248   3.277 -0.0246 -1.8095 -1.6465
 7685SOL     OW23953   4.721   0.032   5.689 -0.3262 -0.6017 -0.0827
 7685SOL    HW123954   4.712   0.091   5.769 -0.7250 -1.6696  0.6905
 7685SOL    HW223955   4.797   0.063   5.633  0.1698 -0.0161  0.8906
 7686SOL     OW23956   6.944   6.290   3.441  0.3034  0.8396  0.0295
 7686SOL    HW123957   6.967   6.230   3.518 -0.8761  0.5920  0.2032
 7686SOL    HW223958   6.924   6.382   3.475 -3.4067  0.0039  0.5018
 7687SOL     OW23959   4.028   2.490   0.662  0.4509  0.1038  0.5411
 7687SOL    HW123960   3.970   2.572   0.661 -2.9609 -2.1012  0.4141
 7687SOL    HW223961   4.046   2.462   0.568  0.9468  0.2417  0.5919
 7688SOL     OW23962   5.679   5.034   1.607  0.0119  0.3409 -0.0142
 7688SOL    HW123963   5.726   5.003   1.525  1.0496  3.0700 -0.5832
 7688SOL    HW223964   5.582   5.048   1.588  0.1466  0.4473 -0.6123
 7689SOL     OW23965   5.942   0.204   2.445 -0.2126 -0.4042 -0.2385
 7689SOL    HW123966   5.880   0.199   2.367 -1.6858  0.7847  0.8146
 7689SOL    HW223967   5.954   0.112   2.484 -2.5754 -0.4805  0.4673
 7690SOL     OW23968   1.063   0.261   3.004 -0.2523  0.0155  0.0549
 7690SOL    HW123969   1.159   0.253   2.977 -0.7974 -1.0710 -1.6709
 7690SOL    HW223970   1.006   0.210   2.940 -1.7267 -1.9689  2.7483
 7691SOL     OW23971   5.856   3.539   2.271  0.5275  0.3868 -0.0832
 7691SOL    HW123972   5.943   3.563   2.227 -0.0455 -1.4356 -2.4381
 7691SOL    HW223973   5.869   3.457   2.327  0.2123 -0.4290 -1.1571
 7692SOL     OW23974   2.790   6.262   2.770  0.0055  0.8099 -0.2379
 7692SOL    HW123975   2.764   6.337   2.831 -0.9091  0.1880  0.1598
 7692SOL    HW223976   2.874   6.220   2.804  0.4155  1.5210 -0.3543
 7693SOL     OW23977   3.006   1.891   6.443 -0.4848  0.5213  0.2746
 7693SOL    HW123978   2.940   1.965   6.431 -0.0565  0.8689  0.0612
 7693SOL    HW223979   3.062   1.881   6.361 -0.2397  0.2599  0.4676
 7694SOL     OW23980   4.358   2.178   1.196  0.2045 -0.5434 -0.3997
 7694SOL    HW123981   4.297   2.110   1.155  0.2156  0.2636 -1.8008
 7694SOL    HW223982   4.318   2.211   1.281 -0.4382 -1.3336 -0.3833
 7695SOL     OW23983   5.147   1.191   5.831  0.1566 -0.0631  0.3709
 7695SOL    HW123984   5.155   1.235   5.921  1.8518  0.5276 -0.0311
 7695SOL    HW223985   5.056   1.151   5.822  0.7537 -2.5142  3.4318
 7696SOL     OW23986   0.668   2.231   5.833  0.5574  0.2537  0.3655
 7696SOL    HW123987   0.751   2.287   5.839 -0.0894  1.1104  1.8411
 7696SOL    HW223988   0.600   2.278   5.777  0.9654 -0.3530 -0.6706
 7697SOL     OW23989   6.241   6.672   2.844 -0.2664 -0.5865  0.1693
 7697SOL    HW123990   6.335   6.638   2.856 -0.4899 -1.3995 -0.3231
 7697SOL    HW223991   6.201   6.629   2.763 -0.3187  1.3974 -0.9015
 7698SOL     OW23992   0.611   3.501   1.859  0.4404 -0.0624 -0.3373
 7698SOL    HW123993   0.672   3.505   1.780 -1.1300 -0.9670 -1.6680
 7698SOL    HW223994   0.613   3.409   1.898 -0.5822 -0.3187 -0.8522
 7699SOL     OW23995   3.532   5.193   5.273 -0.1010 -0.0016  0.1012
 7699SOL    HW123996   3.520   5.117   5.209  2.8275 -1.2717  0.9005
 7699SOL    HW223997   3.523   5.159   5.367 -0.2714  0.9743  0.4550
 7700SOL     OW23998   5.281   5.186   1.874 -0.4351 -0.1671 -0.0787
 7700SOL    HW123999   5.369   5.200   1.828 -0.6634  1.4637 -0.0761
 7700SOL    HW224000   5.296   5.163   1.970  0.0015 -1.3110 -0.4107
 7701SOL     OW24001   2.918   6.640   5.539  0.2882  0.1291 -0.3126
 7701SOL    HW124002   2.868   6.660   5.623  1.7032  2.5420  0.0330
 7701SOL    HW224003   2.958   6.548   5.545 -1.0690 -0.4131  0.8748
 7702SOL     OW24004   4.938   4.449   4.880  0.6366  0.0894 -0.1190
 7702SOL    HW124005   4.948   4.462   4.781 -0.6003  1.6947 -0.0544
 7702SOL    HW224006   5.028   4.428   4.919  1.3411  0.5437 -1.4254
 7703SOL     OW24007   6.669   6.439   5.399  0.7537  0.2219 -0.3328
 7703SOL    HW124008   6.602   6.509   5.372  0.3497  0.7980  1.9692
 7703SOL    HW224009   6.758   6.483   5.416  0.5781  0.1499  0.8227
 7704SOL     OW24010   1.267   1.346   0.055  0.4853  0.1431  0.0294
 7704SOL    HW124011   1.313   1.313   0.137 -0.8381 -0.6438  0.4748
 7704SOL    HW224012   1.198   1.413   0.079  0.7191  0.6036 -0.5429
 7705SOL     OW24013   5.929   6.281   0.111 -0.5810  0.1199  0.1991
 7705SOL    HW124014   5.968   6.196   0.075  1.8845  1.3094 -0.1512
 7705SOL    HW224015   5.889   6.265   0.201 -1.1872 -1.6177 -0.3514
 7706SOL     OW24016   3.557   2.823   2.136  0.5584 -0.0222  0.3829
 7706SOL    HW124017   3.566   2.859   2.228 -1.3553 -1.2271  1.1130
 7706SOL    HW224018   3.562   2.723   2.138 -1.4921 -0.2002 -0.4769
 7707SOL     OW24019   6.814   4.657   1.157  0.5663 -0.1150 -0.5429
 7707SOL    HW124020   6.897   4.661   1.101  0.1239  0.6960 -1.1618
 7707SOL    HW224021   6.756   4.736   1.137 -0.0802 -0.3503  0.3251
 7708SOL     OW24022   1.846   0.563   5.128  0.5003  0.1068  0.0493
 7708SOL    HW124023   1.891   0.586   5.041 -1.1268 -1.4540 -1.2639
 7708SOL    HW224024   1.758   0.610   5.133  0.8397  0.6492  1.1554
 7709SOL     OW24025   0.706   4.388   0.389  0.0955 -0.3111  0.5102
 7709SOL    HW124026   0.698   4.290   0.408  1.5428 -0.4084  0.6981
 7709SOL    HW224027   0.765   4.430   0.457  0.9822  0.3446 -0.6330
 7710SOL     OW24028   5.509   4.046   1.863  0.1836  0.2799  0.3183
 7710SOL    HW124029   5.445   4.002   1.800  0.6944 -0.2879  0.1858
 7710SOL    HW224030   5.464   4.122   1.910 -0.9416 -0.8280  1.0798
 7711SOL     OW24031   6.960   6.380   3.737 -0.4493  0.9995  0.0118
 7711SOL    HW124032   6.981   6.473   3.704 -0.2411  1.3312  1.0490
 7711SOL    HW224033   7.027   6.354   3.806 -0.4942  0.0547 -0.2980
 7712SOL     OW24034   1.049   5.818   7.024  0.1698  0.1943 -0.1591
 7712SOL    HW124035   0.955   5.852   7.025 -0.2294 -0.8173 -1.1419
 7712SOL    HW224036   1.065   5.767   6.939  1.7494  0.7400 -0.2189
 7713SOL     OW24037   0.647   5.601   0.932  0.2464  0.2368 -0.3124
 7713SOL    HW124038   0.594   5.658   0.869  1.1301  1.2225 -0.1976
 7713SOL    HW224039   0.598   5.515   0.949 -0.2458  0.1570 -1.9478
 7714SOL     OW24040   5.522   3.651   5.357  0.1115  0.1087  0.3727
 7714SOL    HW124041   5.605   3.598   5.370  0.1069  0.4069  1.7818
 7714SOL    HW224042   5.464   3.606   5.289  0.3647 -1.3889  1.1043
 7715SOL     OW24043   3.026   1.401   5.842 -0.0532 -0.3157  0.0328
 7715SOL    HW124044   3.102   1.465   5.854  0.6464 -0.8611 -1.2647
 7715SOL    HW224045   3.005   1.393   5.744 -2.2757  0.3579  0.4089
 7716SOL     OW24046   0.158   6.366   6.560  0.0439 -0.2573  0.2241
 7716SOL    HW124047   0.250   6.363   6.599  0.7026 -0.3803 -1.2739
 7716SOL    HW224048   0.134   6.460   6.539  0.7313 -0.4102 -1.3772
 7717SOL     OW24049   0.225   1.479   5.313 -0.5984 -0.3745  0.5430
 7717SOL    HW124050   0.189   1.388   5.331 -1.3606 -0.3407 -0.6844
 7717SOL    HW224051   0.162   1.548   5.348  0.6709 -0.2663  2.7962
 7718SOL     OW24052   5.352   3.166   3.984 -0.0594 -1.0871  0.0064
 7718SOL    HW124053   5.258   3.198   3.999 -0.8678 -2.5356 -1.5520
 7718SOL    HW224054   5.377   3.178   3.888  1.0044 -1.5527  0.2076
 7719SOL     OW24055   0.875   4.050   6.269 -0.3188  0.0487  0.7829
 7719SOL    HW124056   0.800   3.992   6.234 -0.6071 -0.0269  1.5097
 7719SOL    HW224057   0.857   4.145   6.245  1.0141 -0.2984 -1.9429
 7720SOL     OW24058   4.149   0.577   1.794  0.8104  0.4324  0.1765
 7720SOL    HW124059   4.103   0.631   1.724 -0.2872 -0.9252 -0.1974
 7720SOL    HW224060   4.117   0.607   1.884 -1.3630 -0.8721 -0.0884
 7721SOL     OW24061   5.694   6.656   1.901  0.4063  0.2715  0.0268
 7721SOL    HW124062   5.702   6.569   1.852  0.6659 -0.1141  0.7383
 7721SOL    HW224063   5.692   6.731   1.835  0.3102 -0.2629 -0.5903
 7722SOL     OW24064   1.554   0.083   5.050 -0.0390 -0.1817 -0.1203
 7722SOL    HW124065   1.647   0.052   5.029  0.5298 -0.2958  2.2595
 7722SOL    HW224066   1.518   0.030   5.127 -1.0608  1.6146  0.6958
 7723SOL     OW24067   4.462   5.526   5.368 -0.6093 -0.2672  0.2940
 7723SOL    HW124068   4.520   5.469   5.426 -0.0678 -1.3311 -1.2083
 7723SOL    HW224069   4.459   5.619   5.404  3.9812  0.5367 -0.7103
 7724SOL     OW24070   2.492   3.997   1.032  0.4359 -0.0376 -0.5617
 7724SOL    HW124071   2.543   4.040   0.957 -1.2040  0.5641 -1.3736
 7724SOL    HW224072   2.490   4.059   1.110 -1.4799  1.2629 -1.5513
 7725SOL     OW24073   5.697   5.211   2.867  0.5092 -0.6334  0.1910
 7725SOL    HW124074   5.615   5.192   2.921  1.8619 -2.3736  1.7584
 7725SOL    HW224075   5.671   5.223   2.771 -1.9825  2.5669  1.0766
 7726SOL     OW24076   3.673   1.060   6.444 -0.3801  0.6497  0.1714
 7726SOL    HW124077   3.724   0.974   6.437 -0.2269  0.8440 -1.6998
 7726SOL    HW224078   3.737   1.136   6.456 -0.4974  0.5526  1.5309
 7727SOL     OW24079   5.870   1.444   1.441  0.0231  0.5468 -0.3219
 7727SOL    HW124080   5.770   1.454   1.441 -0.1406 -0.7613 -1.5383
 7727SOL    HW224081   5.902   1.437   1.535 -1.1858 -0.3092  0.0545
 7728SOL     OW24082   6.530   4.742   4.223 -0.2105 -0.4190 -0.6428
 7728SOL    HW124083   6.598   4.793   4.276  0.1322  0.3741 -1.8221
 7728SOL    HW224084   6.565   4.650   4.204 -0.0693 -0.4922 -0.0517
 7729SOL     OW24085   0.279   6.317   3.613 -0.1557 -0.3499  0.2844
 7729SOL    HW124086   0.348   6.328   3.543 -1.8533  2.3965 -1.1145
 7729SOL    HW224087   0.223   6.237   3.592  0.8436 -0.9660 -0.1022
 7730SOL     OW24088   5.317   5.446   5.575  0.0643 -0.3921  0.2593
 7730SOL    HW124089   5.328   5.376   5.504 -1.2747 -0.5077  0.1439
 7730SOL    HW224090   5.220   5.471   5.582  0.6711  2.5967 -0.7798
 7731SOL     OW24091   4.875   1.176   5.433  0.0097  0.6783 -0.9671
 7731SOL    HW124092   4.870   1.079   5.455  1.1870  1.3142  2.7720
 7731SOL    HW224093   4.786   1.219   5.446  0.2096  0.6331  0.7520
 7732SOL     OW24094   5.597   1.446   1.453  0.2491  0.5464 -0.7450
 7732SOL    HW124095   5.581   1.349   1.473  0.9358  0.3120 -1.2493
 7732SOL    HW224096   5.570   1.465   1.358 -0.9765  1.1304 -0.2938
 7733SOL     OW24097   5.080   4.702   0.885  0.0784  0.0707 -0.0398
 7733SOL    HW124098   4.993   4.728   0.927 -1.4441 -0.4954 -2.6156
 7733SOL    HW224099   5.089   4.748   0.796  2.1614 -0.3591 -0.1099
 7734SOL     OW24100   2.980   3.749   2.520 -0.0611  0.0379  0.0465
 7734SOL    HW124101   2.988   3.832   2.466 -1.0379 -0.3229 -0.6954
 7734SOL    HW224102   2.957   3.672   2.460 -0.5428 -0.4931  0.8875
 7735SOL     OW24103   6.469   5.178   6.284  0.1297 -0.3621 -0.4467
 7735SOL    HW124104   6.491   5.122   6.364 -0.4955  1.6003  1.1718
 7735SOL    HW224105   6.374   5.206   6.288 -0.1694 -0.9555 -2.3967
 7736SOL     OW24106   2.921   2.607   6.096  0.1811  0.2830  0.3394
 7736SOL    HW124107   2.927   2.674   6.022 -0.8210  0.7756  0.6916
 7736SOL    HW224108   2.888   2.652   6.179 -1.1294 -0.7721  0.4187
 7737SOL     OW24109   3.158   4.401   6.147 -0.2714  0.0435 -0.1461
 7737SOL    HW124110   3.213   4.319   6.166  2.6305  1.2203 -2.7246
 7737SOL    HW224111   3.140   4.449   6.233 -0.9410 -2.5366  1.2692
 7738SOL     OW24112   2.973   0.069   3.710 -0.2043  0.0313  0.3543
 7738SOL    HW124113   3.055   0.018   3.683 -0.3073  0.9117 -1.8264
 7738SOL    HW224114   2.892   0.020   3.678 -0.4043  0.4620  0.2067
 7739SOL     OW24115   1.842   2.026   0.633  0.5770  0.2602  0.0804
 7739SOL    HW124116   1.906   1.986   0.567  0.0662  0.0010 -0.2666
 7739SOL    HW224117   1.770   1.960   0.654  1.3676 -0.0976  1.8044
 7740SOL     OW24118   2.508   1.119   4.351  0.1394 -0.3491 -0.0098
 7740SOL    HW124119   2.504   1.020   4.337  1.8115 -0.1684 -2.4964
 7740SOL    HW224120   2.446   1.165   4.288  1.7702  0.2350 -1.2895
 7741SOL     OW24121   5.651   4.892   5.672 -0.0232 -0.2530  0.6219
 7741SOL    HW124122   5.722   4.825   5.649  2.3068  2.1705  0.2064
 7741SOL    HW224123   5.579   4.888   5.603  1.0053 -1.0617 -0.4530
 7742SOL     OW24124   2.332   1.907   3.759  0.6018  0.6610  0.2475
 7742SOL    HW124125   2.348   1.993   3.808  2.5066 -0.1451  1.1423
 7742SOL    HW224126   2.311   1.835   3.825  0.8590  0.0443 -0.3373
 7743SOL     OW24127   3.936   2.167   3.889  0.1676  0.7981  0.5094
 7743SOL    HW124128   3.977   2.079   3.864 -0.8640  0.9331 -1.9068
 7743SOL    HW224129   4.008   2.231   3.917  0.8329 -1.1640  3.8890
 7744SOL     OW24130   6.097   0.637   4.732 -0.1948  0.3594 -0.0305
 7744SOL    HW124131   6.170   0.631   4.800 -0.5849 -0.1512  0.3521
 7744SOL    HW224132   6.009   0.646   4.778 -0.4827 -0.1963 -0.4597
 7745SOL     OW24133   4.372   5.679   1.830 -0.0514  0.3628  0.3540
 7745SOL    HW124134   4.460   5.631   1.835 -0.8781 -1.0980  1.7910
 7745SOL    HW224135   4.382   5.771   1.868  1.6605  1.6248 -2.8053
 7746SOL     OW24136   0.384   5.115   6.132  0.5230  0.0578 -0.1687
 7746SOL    HW124137   0.445   5.051   6.178  0.1515 -1.5990 -1.8560
 7746SOL    HW224138   0.294   5.073   6.119  0.2890  0.8803 -1.3924
 7747SOL     OW24139   0.621   4.208   0.664 -0.4279  0.2414  0.3661
 7747SOL    HW124140   0.599   4.305   0.658 -5.3077 -0.6677 -0.0545
 7747SOL    HW224141   0.617   4.178   0.759  2.3141  0.5186  0.6663
 7748SOL     OW24142   3.034   1.286   5.163  0.1085  0.1353 -0.4535
 7748SOL    HW124143   2.984   1.350   5.220 -0.9958  0.8088 -2.1069
 7748SOL    HW224144   3.132   1.308   5.165 -0.0698  0.8942  0.1765
 7749SOL     OW24145   3.647   2.907   3.768 -0.1646 -0.6192 -0.8269
 7749SOL    HW124146   3.599   2.953   3.842  0.0421  2.3025 -2.3680
 7749SOL    HW224147   3.653   2.809   3.788 -0.6208 -0.0611  2.6742
 7750SOL     OW24148   4.486   6.191   6.811 -0.3159  0.1646  0.2120
 7750SOL    HW124149   4.476   6.112   6.872  1.0306  0.3667  0.7425
 7750SOL    HW224150   4.483   6.160   6.716  1.2918 -0.7077  0.4104
 7751SOL     OW24151   6.224   7.023   4.104  0.0335 -0.4265 -0.3992
 7751SOL    HW124152   6.227   7.082   4.185 -0.4025  1.3285 -1.6135
 7751SOL    HW224153   6.298   7.049   4.041 -0.7032 -0.5960 -1.3473
 7752SOL     OW24154   0.583   5.646   4.631 -0.1401 -0.4227  0.6392
 7752SOL    HW124155   0.580   5.633   4.532  0.2062  1.0835  0.4130
 7752SOL    HW224156   0.518   5.584   4.674  0.7401 -2.1595 -0.3917
 7753SOL     OW24157   4.034   6.166   5.449 -0.3261 -0.6162  0.0143
 7753SOL    HW124158   3.986   6.085   5.415 -0.4942 -0.3064 -0.5060
 7753SOL    HW224159   4.065   6.150   5.543 -1.4946 -0.8038  0.3852
 7754SOL     OW24160   6.392   1.156   6.650  0.7922  0.1219  0.0038
 7754SOL    HW124161   6.395   1.208   6.565 -1.4695  1.1266  0.4642
 7754SOL    HW224162   6.322   1.085   6.644  1.9765 -1.1467  0.3742
 7755SOL     OW24163   2.922   6.613   6.103 -0.4951  0.3477 -0.0971
 7755SOL    HW124164   2.954   6.612   6.008  1.5375 -1.4756  0.5142
 7755SOL    HW224165   2.829   6.649   6.106 -0.5720  0.6190 -2.7443
 7756SOL     OW24166   4.435   5.833   4.866  0.2694  0.0154 -0.4587
 7756SOL    HW124167   4.457   5.928   4.889  2.5488 -0.1598 -1.6119
 7756SOL    HW224168   4.449   5.818   4.768  4.0974 -2.3999  0.2345
 7757SOL     OW24169   3.321   0.642   6.400 -0.0414 -0.0532 -0.1857
 7757SOL    HW124170   3.370   0.729   6.404 -0.3964  0.2461 -1.6828
 7757SOL    HW224171   3.268   0.631   6.484  0.4665  0.8978  0.2844
 7758SOL     OW24172   4.009   1.188   5.132  0.2363  0.7045  0.1231
 7758SOL    HW124173   3.954   1.127   5.189 -0.9403  2.1693  0.6056
 7758SOL    HW224174   4.032   1.141   5.047 -1.9707  0.1144 -0.2037
 7759SOL     OW24175   1.542   0.866   0.071 -0.6121  0.1081  0.7912
 7759SOL    HW124176   1.635   0.831   0.083 -0.8000 -0.2226  1.2856
 7759SOL    HW224177   1.511   0.848  -0.022  0.5216  1.8952  0.0237
 7760SOL     OW24178   6.948   1.307   4.038  0.4974  0.0635 -0.3184
 7760SOL    HW124179   6.959   1.406   4.027 -0.6111  0.4523  1.5580
 7760SOL    HW224180   7.034   1.267   4.069  0.3317  0.8776  1.3213
 7761SOL     OW24181   3.488   6.500   0.545 -0.3501 -0.1514  0.1214
 7761SOL    HW124182   3.489   6.591   0.504 -1.1444 -0.0820  0.2436
 7761SOL    HW224183   3.394   6.476   0.570 -0.2704 -1.3493 -0.6661
 7762SOL     OW24184   6.637   2.345   6.068 -0.3216  0.4160 -0.5518
 7762SOL    HW124185   6.551   2.359   6.020 -1.2907  1.3996  1.3310
 7762SOL    HW224186   6.703   2.414   6.040 -0.9423  1.1104 -0.3464
 7763SOL     OW24187   2.522   1.846   2.335 -0.3659  0.3147  0.2813
 7763SOL    HW124188   2.523   1.921   2.269  0.0700 -0.6586 -0.8541
 7763SOL    HW224189   2.448   1.860   2.401 -3.2035 -0.4263 -2.5061
 7764SOL     OW24190   3.903   2.982   2.450  0.1800  0.2239  0.1704
 7764SOL    HW124191   3.814   2.991   2.405  0.4357 -0.8848 -0.5774
 7764SOL    HW224192   3.937   2.888   2.440  2.4138  1.1081 -1.4096
 7765SOL     OW24193   0.835   2.073   2.659  0.6166 -0.4261 -0.3048
 7765SOL    HW124194   0.742   2.047   2.681  1.1540 -1.4465  0.8907
 7765SOL    HW224195   0.877   2.002   2.601  0.6133  0.0948 -0.9565
 7766SOL     OW24196   4.916   3.698   0.298  0.2746  0.0844 -0.4370
 7766SOL    HW124197   4.975   3.633   0.252  1.3521  0.3775  0.4922
 7766SOL    HW224198   4.884   3.767   0.232  1.6040  0.3714 -0.8129
 7767SOL     OW24199   4.468   4.128   5.839  0.0405 -0.4421  0.5248
 7767SOL    HW124200   4.423   4.193   5.779  1.4110  0.4150  0.3805
 7767SOL    HW224201   4.463   4.160   5.934 -1.8179 -1.6210  0.8710
 7768SOL     OW24202   4.935   0.190   2.622 -0.9207 -0.1470  0.1149
 7768SOL    HW124203   4.925   0.287   2.642 -1.7805 -0.0617 -0.6762
 7768SOL    HW224204   4.985   0.146   2.697  1.0088  1.1992 -0.2865
 7769SOL     OW24205   6.513   2.837   3.451  0.2726  0.3031  0.7304
 7769SOL    HW124206   6.489   2.764   3.387  1.6128 -1.4666  2.1376
 7769SOL    HW224207   6.518   2.925   3.402  0.2376 -0.8021 -1.3488
 7770SOL     OW24208   2.320   0.697   1.570  0.3468  0.0871  0.2686
 7770SOL    HW124209   2.222   0.715   1.584  0.6681  1.2422  1.2446
 7770SOL    HW224210   2.361   0.667   1.656  0.7671 -0.9020 -0.2628
 7771SOL     OW24211   3.095   0.094   6.921 -0.4762 -0.3003  0.2990
 7771SOL    HW124212   3.015   0.105   6.979 -0.0572 -3.4472  1.6411
 7771SOL    HW224213   3.066   0.076   6.827 -1.4536 -2.3941  0.9494
 7772SOL     OW24214   4.975   0.388   5.822  0.0723 -0.0702 -0.1506
 7772SOL    HW124215   4.934   0.472   5.787 -0.1531  0.8516  2.1386
 7772SOL    HW224216   5.007   0.403   5.916  0.9589 -2.2646 -0.0359
 7773SOL     OW24217   3.195   4.014   0.774 -0.0694 -0.1765  0.2207
 7773SOL    HW124218   3.118   4.026   0.835 -0.4687  0.8509 -0.4622
 7773SOL    HW224219   3.261   4.088   0.788 -0.2852  0.2145 -0.7465
 7774SOL     OW24220   5.333   2.405   0.422  0.4485  0.8775  0.5141
 7774SOL    HW124221   5.300   2.497   0.444  0.8557  0.8234  1.3649
 7774SOL    HW224222   5.259   2.354   0.377 -0.0748  1.3166  0.8595
 7775SOL     OW24223   2.233   5.430   2.457 -0.2276 -0.5562  0.4844
 7775SOL    HW124224   2.329   5.409   2.479 -0.3064 -0.3269  1.0606
 7775SOL    HW224225   2.209   5.388   2.370  0.1054 -1.4671  0.8154
 7776SOL     OW24226   3.302   2.237   0.483  0.5448 -0.4530  0.1025
 7776SOL    HW124227   3.224   2.298   0.474  2.5643  2.0449 -1.9991
 7776SOL    HW224228   3.366   2.274   0.551  1.9910  0.0878 -1.4896
 7777SOL     OW24229   0.388   6.979   5.903  0.1803  0.1894  0.3151
 7777SOL    HW124230   0.289   6.973   5.916  0.1546 -1.4536 -0.3327
 7777SOL    HW224231   0.424   7.057   5.953 -1.3755  0.5363  0.9469
 7778SOL     OW24232   5.561   2.973   1.962  0.0983 -0.0313  0.0063
 7778SOL    HW124233   5.637   2.946   1.903 -0.5434 -0.4437 -0.6535
 7778SOL    HW224234   5.482   2.997   1.906 -0.1387  0.7756  0.6719
 7779SOL     OW24235   4.596   4.690   1.240 -0.6076 -0.5641  0.5517
 7779SOL    HW124236   4.679   4.710   1.186 -0.2922 -0.0568  1.2050
 7779SOL    HW224237   4.539   4.625   1.190 -0.4128  0.0331 -0.4801
 7780SOL     OW24238   1.299   5.306   4.067  0.5850  0.5677 -0.1030
 7780SOL    HW124239   1.229   5.349   4.010  0.1057 -0.4180 -0.2840
 7780SOL    HW224240   1.371   5.267   4.009  0.0980 -0.4353 -0.0542
 7781SOL     OW24241   2.390   5.239   5.929  0.3593 -0.2938 -0.2952
 7781SOL    HW124242   2.457   5.207   5.997  0.2791  1.3497  0.5993
 7781SOL    HW224243   2.390   5.339   5.927 -3.3454 -0.1381  1.0514
 7782SOL     OW24244   5.245   2.640   1.992  0.2239 -0.3995  0.1502
 7782SOL    HW124245   5.265   2.585   2.073 -0.3214 -0.3292  0.3399
 7782SOL    HW224246   5.279   2.594   1.910 -0.9448 -1.4266  0.2126
 7783SOL     OW24247   3.635   4.573   1.328 -0.0497 -0.0846 -0.6487
 7783SOL    HW124248   3.538   4.573   1.352  0.0041  1.0538 -0.3687
 7783SOL    HW224249   3.644   4.569   1.229 -0.3306 -1.8036 -0.6402
 7784SOL     OW24250   6.086   5.325   0.778  0.0689 -0.1271  0.0985
 7784SOL    HW124251   6.117   5.239   0.819 -0.5117 -1.5654 -2.2979
 7784SOL    HW224252   6.108   5.326   0.681  0.7623  2.8337  0.1927
 7785SOL     OW24253   2.143   5.152   5.944  0.5598  0.4982  0.4134
 7785SOL    HW124254   2.236   5.183   5.925  1.5439 -2.5688 -0.4177
 7785SOL    HW224255   2.134   5.131   6.042  0.1487  2.4410  0.8165
 7786SOL     OW24256   4.046   3.652   3.623  0.5494 -0.7071 -0.4559
 7786SOL    HW124257   4.003   3.739   3.600  0.4888 -0.8570 -0.9279
 7786SOL    HW224258   4.080   3.655   3.717  0.5283 -0.1842 -0.4627
 7787SOL     OW24259   2.032   3.755   5.615 -0.0297 -0.8820 -0.0784
 7787SOL    HW124260   1.977   3.835   5.591 -0.4889 -0.9804  0.6312
 7787SOL    HW224261   2.011   3.726   5.709  0.6779 -1.3817 -0.0635
 7788SOL     OW24262   0.368   1.553   0.176 -0.4424 -0.5644 -0.3729
 7788SOL    HW124263   0.333   1.461   0.156  1.7920 -2.3453  3.0323
 7788SOL    HW224264   0.444   1.546   0.241 -2.0203  3.9029  2.3273
 7789SOL     OW24265   2.970   0.706   2.093  0.0617  0.2679  0.2016
 7789SOL    HW124266   2.872   0.716   2.112  0.1551 -0.8963  1.4431
 7789SOL    HW224267   2.988   0.615   2.057  1.0344 -0.6208  2.7268
 7790SOL     OW24268   6.996   4.367   3.241  0.0510 -0.7601  0.2987
 7790SOL    HW124269   6.957   4.335   3.328  0.1114 -0.7637  0.3243
 7790SOL    HW224270   6.940   4.441   3.204 -0.4776 -1.3537 -0.0994
 7791SOL     OW24271   6.213   5.272   6.259  0.4092 -0.2584  0.2040
 7791SOL    HW124272   6.191   5.334   6.334 -1.8678 -0.7810  0.0252
 7791SOL    HW224273   6.162   5.187   6.269 -2.8038  0.9094 -3.6563
 7792SOL     OW24274   3.629   5.506   6.497  0.0270  0.2936 -0.6843
 7792SOL    HW124275   3.701   5.574   6.479  0.8721  0.0116  1.4115
 7792SOL    HW224276   3.667   5.414   6.487 -1.5068 -0.1082 -5.1925
 7793SOL     OW24277   0.926   1.921   0.042  0.5640  0.1547  0.4651
 7793SOL    HW124278   0.983   1.842   0.018  0.7752 -0.2719  2.2527
 7793SOL    HW224279   0.831   1.900   0.020  0.7669 -0.0929 -0.2308
 7794SOL     OW24280   5.023   5.802   4.622 -0.1781 -0.1879  0.1002
 7794SOL    HW124281   5.080   5.838   4.549 -2.7609  0.0534 -1.9462
 7794SOL    HW224282   4.987   5.712   4.596 -1.2689 -0.0424  1.0139
 7795SOL     OW24283   1.652   4.517   6.189  0.0434 -0.6652 -0.2117
 7795SOL    HW124284   1.700   4.431   6.172  2.0146  0.1941  0.6507
 7795SOL    HW224285   1.572   4.500   6.246  0.5842 -1.8935  0.2166
 7796SOL     OW24286   3.931   4.295   6.258  0.4958 -0.0584 -0.0928
 7796SOL    HW124287   3.835   4.305   6.284  0.4483  0.7505 -0.5547
 7796SOL    HW224288   3.947   4.339   6.170  1.3462  0.0408  0.0977
 7797SOL     OW24289   1.337   4.597   4.083 -0.0009 -0.0212 -1.2245
 7797SOL    HW124290   1.356   4.523   4.018 -1.1366 -0.0388 -1.5623
 7797SOL    HW224291   1.289   4.559   4.162  2.9043 -0.3235  0.5273
 7798SOL     OW24292   4.993   6.719   5.950  0.1675  0.4086 -0.4278
 7798SOL    HW124293   5.048   6.677   5.879 -0.6138 -2.5140  0.5615
 7798SOL    HW224294   4.908   6.753   5.911  0.5596  0.5528 -1.1686
 7799SOL     OW24295   6.278   4.371   3.489  0.0720 -0.0490  0.2514
 7799SOL    HW124296   6.182   4.386   3.513  0.1010  0.5991 -0.0193
 7799SOL    HW224297   6.287   4.368   3.389  0.2179 -0.9177  0.2848
 7800SOL     OW24298   0.289   0.245   3.162 -0.8597 -0.9421  0.2177
 7800SOL    HW124299   0.364   0.181   3.182  1.5152  1.2721 -1.0732
 7800SOL    HW224300   0.272   0.302   3.243 -0.6774 -1.0033  0.3003
 7801SOL     OW24301   4.875   2.459   4.034 -0.2637 -0.2498  0.1438
 7801SOL    HW124302   4.913   2.528   4.095  0.7218 -1.2060  0.6466
 7801SOL    HW224303   4.917   2.370   4.054 -1.5255 -1.0150 -0.4479
 7802SOL     OW24304   4.307   1.619   0.450  0.3479  0.6489  0.0116
 7802SOL    HW124305   4.238   1.577   0.392  3.4722 -1.6216 -2.4432
 7802SOL    HW224306   4.306   1.576   0.540  0.4270 -1.4643 -0.9511
 7803SOL     OW24307   3.715   4.895   0.212  0.0813 -0.4346  0.1175
 7803SOL    HW124308   3.771   4.926   0.135 -0.7461 -0.3193 -0.4418
 7803SOL    HW224309   3.619   4.892   0.185 -0.3418  0.5180  1.4144
 7804SOL     OW24310   4.404   0.986   5.010  0.6719  0.0149 -0.5301
 7804SOL    HW124311   4.334   0.960   5.077 -1.6677  0.5420 -2.5938
 7804SOL    HW224312   4.484   1.022   5.058  0.3380 -2.2641  2.0283
 7805SOL     OW24313   4.971   3.224   2.033 -0.1509 -0.1663  0.2971
 7805SOL    HW124314   5.036   3.172   1.977 -0.6201  0.3135 -0.7332
 7805SOL    HW224315   4.881   3.182   2.026  0.0137 -0.7940  1.6737
 7806SOL     OW24316   3.619   2.656   6.520 -0.3914 -0.2033 -0.2705
 7806SOL    HW124317   3.588   2.606   6.600 -0.3852 -0.5199 -0.4658
 7806SOL    HW224318   3.542   2.709   6.482 -0.4301 -0.1674 -0.1413
 7807SOL     OW24319   4.935   2.479   0.711 -0.2623 -0.0972 -0.2384
 7807SOL    HW124320   4.846   2.523   0.720 -0.3291  0.4652 -2.8758
 7807SOL    HW224321   4.981   2.514   0.629  2.4576 -0.2753  1.1170
 7808SOL     OW24322   0.349   1.097   4.854 -0.8409 -0.1072 -0.2109
 7808SOL    HW124323   0.409   1.033   4.901 -0.6875 -0.5121 -0.9311
 7808SOL    HW224324   0.335   1.066   4.759  0.7225  1.8639 -1.1694
 7809SOL     OW24325   1.626   6.962   4.778 -0.4351  0.4834  0.4796
 7809SOL    HW124326   1.595   7.046   4.734  1.1985  0.3267 -1.0807
 7809SOL    HW224327   1.712   6.979   4.826  0.3701 -0.4638 -0.5867
 7810SOL     OW24328   1.971   0.491   6.546 -0.6703  0.2233  0.3544
 7810SOL    HW124329   1.925   0.479   6.458  0.6114 -1.7754 -0.1081
 7810SOL    HW224330   1.970   0.404   6.597  1.1334  0.5433  1.0183
 7811SOL     OW24331   0.051   6.805   6.183  0.7373 -0.6650  0.0414
 7811SOL    HW124332   0.045   6.846   6.093 -0.8320 -0.4420  0.2214
 7811SOL    HW224333   0.015   6.712   6.180  1.2245 -0.8678  0.3235
 7812SOL     OW24334   1.071   2.703   3.459 -0.1676 -1.4731  0.1947
 7812SOL    HW124335   1.162   2.721   3.420 -0.4897  0.5023  0.2777
 7812SOL    HW224336   1.002   2.755   3.409 -0.9184 -0.8750  1.7973
 7813SOL     OW24337   6.863   0.715   0.941  0.4849 -0.8680 -0.2331
 7813SOL    HW124338   6.890   0.624   0.909  0.0582 -1.1010  0.0664
 7813SOL    HW224339   6.765   0.717   0.959  0.9716 -1.3852  3.0932
 7814SOL     OW24340   0.176   4.004   2.994  0.3170  0.3636 -0.0301
 7814SOL    HW124341   0.103   4.072   2.994 -0.7299 -0.7114  1.3003
 7814SOL    HW224342   0.156   3.934   2.925  0.9949  0.9420 -0.8464
 7815SOL     OW24343   5.264   1.503   4.250  0.3661 -0.1965 -0.4466
 7815SOL    HW124344   5.278   1.590   4.297  0.5218  0.5553 -1.8362
 7815SOL    HW224345   5.188   1.510   4.186  0.0139 -1.2616 -0.1731
 7816SOL     OW24346   2.231   5.874   5.621 -0.2170 -0.3940 -0.2763
 7816SOL    HW124347   2.209   5.866   5.524  0.4330 -0.0222 -0.4660
 7816SOL    HW224348   2.301   5.945   5.633 -1.0157  0.2680  0.5739
 7817SOL     OW24349   5.504   2.365   4.796 -0.2496 -0.3580  0.2602
 7817SOL    HW124350   5.473   2.275   4.825 -0.3836 -0.5250 -0.3862
 7817SOL    HW224351   5.435   2.434   4.820 -1.1055 -0.7182 -1.1102
 7818SOL     OW24352   5.283   6.017   3.069  0.3917  0.3400  0.3769
 7818SOL    HW124353   5.305   6.075   3.148  0.8131 -0.4568  0.8687
 7818SOL    HW224354   5.340   5.935   3.072 -0.9879 -0.6522  0.3284
 7819SOL     OW24355   0.548   0.664   0.452 -0.3767  0.3173  0.8708
 7819SOL    HW124356   0.543   0.735   0.381 -0.7480  0.3032  0.8787
 7819SOL    HW224357   0.600   0.586   0.417 -0.4515  0.3607  0.6592
 7820SOL     OW24358   3.262   0.716   0.073 -0.4139 -0.0491 -0.1225
 7820SOL    HW124359   3.185   0.678   0.022 -2.0493 -0.7766  2.6773
 7820SOL    HW224360   3.258   0.816   0.069 -1.7366 -0.0685  0.2325
 7821SOL     OW24361   1.109   4.895   0.433  0.8542 -0.2311  0.2059
 7821SOL    HW124362   1.135   4.938   0.520  0.8974 -0.3170  0.2362
 7821SOL    HW224363   1.118   4.961   0.359 -0.5343  0.2686  0.4502
 7822SOL     OW24364   2.269   0.805   3.345 -0.4045 -0.3613 -0.1260
 7822SOL    HW124365   2.313   0.863   3.413 -3.3772  1.0721  0.7305
 7822SOL    HW224366   2.220   0.731   3.391 -0.6876 -0.6560 -0.8865
 7823SOL     OW24367   2.321   4.336   4.919  0.2349  0.0397 -0.0563
 7823SOL    HW124368   2.415   4.367   4.907  0.6099 -1.3812 -1.0607
 7823SOL    HW224369   2.321   4.243   4.956 -0.7953  0.1533  0.2864
 7824SOL     OW24370   1.678   3.644   5.934  0.6540 -0.3288  0.3695
 7824SOL    HW124371   1.693   3.743   5.942  0.5783 -0.3402  0.6575
 7824SOL    HW224372   1.617   3.626   5.857 -0.5940 -0.0247  1.2470
 7825SOL     OW24373   3.111   0.916   5.700 -0.2818 -0.6863 -0.3245
 7825SOL    HW124374   3.078   0.863   5.779 -2.7496  0.2739 -0.6245
 7825SOL    HW224375   3.145   1.005   5.731 -0.6084 -0.5772 -0.2792
 7826SOL     OW24376   0.057   3.711   5.517  0.2709  0.2984 -0.0068
 7826SOL    HW124377   0.139   3.727   5.571  0.4391 -2.2254  0.5788
 7826SOL    HW224378   0.069   3.629   5.461 -1.4602  0.5060 -0.7493
 7827SOL     OW24379   6.142   5.869   4.208  0.0236 -0.0548  0.2623
 7827SOL    HW124380   6.125   5.771   4.202 -1.3671  0.1655  0.2028
 7827SOL    HW224381   6.086   5.908   4.281  0.9400  0.6285  0.6279
 7828SOL     OW24382   6.168   5.827   0.985  0.0733  0.5122  0.5099
 7828SOL    HW124383   6.148   5.765   1.061  2.6484  0.2080  1.0473
 7828SOL    HW224384   6.255   5.800   0.942 -0.0735  2.1814 -0.9516
 7829SOL     OW24385   3.146   4.838   6.714  0.4247  0.2234 -0.0354
 7829SOL    HW124386   3.112   4.788   6.794  1.8783  0.3176  0.6590
 7829SOL    HW224387   3.091   4.813   6.634 -1.2489  0.3459  1.0244
 7830SOL     OW24388   2.266   5.108   4.423 -0.4345  0.2134  0.7273
 7830SOL    HW124389   2.189   5.143   4.370  0.2771  1.4622  0.4731
 7830SOL    HW224390   2.352   5.132   4.377  0.1376 -0.4256  1.4241
 7831SOL     OW24391   1.821   0.399   5.560 -0.2319  0.0893  0.3807
 7831SOL    HW124392   1.772   0.335   5.501 -1.8852  0.1087  1.6469
 7831SOL    HW224393   1.918   0.395   5.540 -0.3727 -2.2553 -0.1100
 7832SOL     OW24394   6.596   6.768   4.068  0.4212 -0.2592  0.3026
 7832SOL    HW124395   6.543   6.771   3.984  0.0342  0.0261  0.5518
 7832SOL    HW224396   6.658   6.846   4.071  0.9486 -0.6600 -0.0464
 7833SOL     OW24397   4.056   0.186   4.297 -0.1688  0.0013 -0.7041
 7833SOL    HW124398   4.014   0.219   4.212  0.4553  0.6010 -0.7926
 7833SOL    HW224399   4.130   0.248   4.322  0.1977 -0.6533 -0.1732
 7834SOL     OW24400   5.772   2.797   4.639  0.0360  0.1250 -0.3903
 7834SOL    HW124401   5.749   2.894   4.633  0.0823  0.1365 -0.3806
 7834SOL    HW224402   5.691   2.742   4.620 -0.2326  0.1707  0.5616
 7835SOL     OW24403   4.040   1.714   5.594 -1.4371 -0.2250 -0.5806
 7835SOL    HW124404   4.008   1.801   5.557  0.9719 -0.3588 -3.2836
 7835SOL    HW224405   4.014   1.708   5.691 -2.3897  3.1032 -0.4928
 7836SOL     OW24406   3.855   4.693   5.422  0.3074 -0.5948  0.1016
 7836SOL    HW124407   3.915   4.723   5.497 -0.2685  0.9754 -0.0213
 7836SOL    HW224408   3.893   4.724   5.335 -0.0360 -0.6766 -0.0762
 7837SOL     OW24409   0.795   0.166   0.490 -0.1992 -0.3513 -0.1782
 7837SOL    HW124410   0.804   0.131   0.584  0.3845 -1.3879 -0.6070
 7837SOL    HW224411   0.754   0.095   0.432 -1.1471  0.5031 -0.5924
 7838SOL     OW24412   5.041   5.283   2.934  0.2796 -0.5462 -0.0768
 7838SOL    HW124413   5.086   5.296   2.846  0.2752  1.7054  0.1949
 7838SOL    HW224414   5.094   5.220   2.990  0.1879 -2.1479 -1.7267
 7839SOL     OW24415   6.334   3.104   4.013  0.2880 -0.4015  0.1550
 7839SOL    HW124416   6.257   3.053   3.975 -1.0891  1.1430  0.7138
 7839SOL    HW224417   6.397   3.129   3.941 -1.1375  0.5863 -0.8071
 7840SOL     OW24418   2.079   2.140   3.885 -0.3393  0.7173 -0.3355
 7840SOL    HW124419   2.158   2.088   3.920 -0.3048  1.3126  0.4772
 7840SOL    HW224420   2.034   2.187   3.960 -1.2743  0.6649 -0.8530
 7841SOL     OW24421   3.445   2.553   5.600  0.3915  0.2487  0.1702
 7841SOL    HW124422   3.457   2.648   5.571 -1.7479  0.3049 -0.7159
 7841SOL    HW224423   3.399   2.551   5.689  0.1431  0.0477  0.0381
 7842SOL     OW24424   5.723   0.307   1.702  0.3676 -0.1489  0.7722
 7842SOL    HW124425   5.640   0.252   1.701  0.5141 -0.4106 -1.2052
 7842SOL    HW224426   5.801   0.251   1.675  1.0563  0.3036  1.7629
 7843SOL     OW24427   0.068   0.286   3.553 -0.4981 -0.4556  0.1246
 7843SOL    HW124428   0.158   0.248   3.574 -0.4335 -0.3793 -0.0158
 7843SOL    HW224429   0.049   0.276   3.456  0.2791  1.4782 -0.2758
 7844SOL     OW24430   4.101   6.559   3.009 -0.3529 -1.0550  0.0618
 7844SOL    HW124431   4.078   6.584   2.915 -1.8432  0.0547  0.6752
 7844SOL    HW224432   4.186   6.506   3.010  1.8337  2.1083 -1.5557
 7845SOL     OW24433   5.232   5.201   2.341 -0.1699  0.0658  0.5068
 7845SOL    HW124434   5.224   5.193   2.440  3.6339  1.8401  1.1328
 7845SOL    HW224435   5.175   5.277   2.308 -1.1656 -0.3004  1.3543
 7846SOL     OW24436   6.494   2.151   1.354  1.0260 -0.2310  0.3160
 7846SOL    HW124437   6.559   2.115   1.287  0.3855  0.3566 -0.6524
 7846SOL    HW224438   6.410   2.179   1.307  0.0161 -1.0832  1.5602
 7847SOL     OW24439   4.485   5.074   6.418 -0.0984  0.3075 -0.1969
 7847SOL    HW124440   4.436   5.161   6.427  0.8341  0.6899  1.6037
 7847SOL    HW224441   4.540   5.076   6.335 -2.3942  0.1905 -1.8259
 7848SOL     OW24442   4.425   4.813   6.823 -0.5093 -0.0801 -0.2467
 7848SOL    HW124443   4.328   4.812   6.844 -0.2383 -1.0493  1.1656
 7848SOL    HW224444   4.442   4.865   6.740 -1.8419  3.0681  1.3190
 7849SOL     OW24445   3.926   6.372   6.927 -0.6901  0.2217  0.2776
 7849SOL    HW124446   3.881   6.331   7.006 -1.8621  0.2828 -0.3258
 7849SOL    HW224447   3.981   6.304   6.880 -0.7168 -0.0453  0.6334
 7850SOL     OW24448   1.724   6.933   4.514  0.5206  0.0690  0.1912
 7850SOL    HW124449   1.652   6.928   4.445  1.0903 -0.0110 -0.4082
 7850SOL    HW224450   1.687   6.908   4.603  0.0370 -0.9274 -0.2834
 7851SOL     OW24451   6.276   5.888   1.564 -0.0203 -0.4427 -0.7388
 7851SOL    HW124452   6.345   5.842   1.620  0.5078  0.1227 -0.9184
 7851SOL    HW224453   6.218   5.945   1.623 -0.1124 -0.6494 -0.6313
 7852SOL     OW24454   0.566   2.893   4.631 -0.2683  0.0064 -0.8003
 7852SOL    HW124455   0.550   2.967   4.566  2.5310 -0.6164 -2.3304
 7852SOL    HW224456   0.644   2.915   4.690 -0.7388 -0.8348  0.1763
 7853SOL     OW24457   4.195   3.430   1.862 -0.1416  0.1419  0.4386
 7853SOL    HW124458   4.161   3.399   1.951  0.6732  0.3167  0.8271
 7853SOL    HW224459   4.124   3.480   1.813 -0.6191 -0.0247  0.9618
 7854SOL     OW24460   2.191   2.557   1.052  0.3915 -0.4180  0.5511
 7854SOL    HW124461   2.277   2.564   1.001  0.7351 -0.2613  1.1447
 7854SOL    HW224462   2.121   2.519   0.992  0.3998  1.1074 -0.5024
 7855SOL     OW24463   0.152   1.338   1.468 -0.2538  0.2385 -0.1207
 7855SOL    HW124464   0.102   1.307   1.549 -0.9679  0.2275 -0.5488
 7855SOL    HW224465   0.113   1.294   1.387 -0.3403  1.1475 -0.5880
 7856SOL     OW24466   3.128   4.890   4.883 -0.1939  0.1142  0.0586
 7856SOL    HW124467   3.089   4.798   4.877 -2.9098  1.2604 -2.3001
 7856SOL    HW224468   3.157   4.920   4.792 -0.8296  2.1603  0.4775
 7857SOL     OW24469   5.927   4.789   0.620  0.1783  0.4547  0.2566
 7857SOL    HW124470   6.000   4.857   0.630 -0.3629  0.8862  1.4749
 7857SOL    HW224471   5.967   4.698   0.614  0.8957  0.8318 -0.9472
 7858SOL     OW24472   6.616   3.931   5.575  0.0500 -0.1668 -0.2274
 7858SOL    HW124473   6.654   4.016   5.611  0.0959  0.0089 -0.6896
 7858SOL    HW224474   6.690   3.866   5.556  0.0431 -0.1751 -0.2269
 7859SOL     OW24475   4.996   1.908   3.382  0.3753 -0.3066 -0.3083
 7859SOL    HW124476   5.013   1.818   3.423  0.8981  0.2253  0.6836
 7859SOL    HW224477   5.032   1.979   3.443  0.7804  0.5342 -1.5056
 7860SOL     OW24478   4.111   0.885   2.950 -0.2476  0.0078  0.4164
 7860SOL    HW124479   4.164   0.879   2.866  2.2078  0.3347  1.8448
 7860SOL    HW224480   4.014   0.869   2.930 -0.2042  2.6770 -2.8899
 7861SOL     OW24481   5.814   4.663   1.213 -0.6550  0.1327  0.2460
 7861SOL    HW124482   5.853   4.665   1.121 -0.9514  2.3893  0.0983
 7861SOL    HW224483   5.823   4.571   1.252  1.0899 -0.4197 -1.3221
 7862SOL     OW24484   0.075   6.842   0.098 -0.1973  0.2960 -0.1060
 7862SOL    HW124485  -0.023   6.860   0.096 -0.0715  1.0209 -2.1022
 7862SOL    HW224486   0.091   6.744   0.086 -0.6813 -0.3861  3.5277
 7863SOL     OW24487   1.892   4.511   5.428  0.3190  0.4704  0.7594
 7863SOL    HW124488   1.896   4.496   5.329 -1.9973  1.0333  0.5220
 7863SOL    HW224489   1.937   4.435   5.474 -1.5903 -1.6744 -0.6782
 7864SOL     OW24490   2.300   5.995   4.824 -0.0053  0.1625 -0.4953
 7864SOL    HW124491   2.256   6.040   4.901 -1.1505  0.5587 -1.3506
 7864SOL    HW224492   2.361   5.923   4.857 -3.3189 -2.3156  0.7745
 7865SOL     OW24493   5.667   4.090   3.369  0.1592  0.1626 -0.2636
 7865SOL    HW124494   5.743   4.026   3.383  0.8493  1.0898  0.3882
 7865SOL    HW224495   5.702   4.184   3.377 -1.0726  0.6031  0.0671
 7866SOL     OW24496   1.264   3.287   6.414 -0.0758 -0.0474 -0.2118
 7866SOL    HW124497   1.182   3.253   6.460 -0.5549 -0.6584 -1.4895
 7866SOL    HW224498   1.345   3.246   6.457 -0.5057 -0.5852  0.1037
 7867SOL     OW24499   5.890   3.871   5.224  0.1907 -0.3645  0.4538
 7867SOL    HW124500   5.833   3.916   5.293  1.6982  0.6333  1.0981
 7867SOL    HW224501   5.922   3.784   5.259 -2.8297 -2.1542 -0.8394
 7868SOL     OW24502   2.171   6.937   1.514 -0.5020 -0.2645 -0.3908
 7868SOL    HW124503   2.215   7.023   1.489  2.2381 -1.4064  0.1121
 7868SOL    HW224504   2.195   6.867   1.447  0.9787 -1.6205  1.4423
 7869SOL     OW24505   4.213   3.482   5.023 -0.9373  0.6622  0.5925
 7869SOL    HW124506   4.311   3.464   5.032 -1.0548 -1.4923 -1.4041
 7869SOL    HW224507   4.161   3.403   5.056 -1.9381  1.1003  0.1072
 7870SOL     OW24508   5.718   5.307   2.591 -0.4276  0.1317 -0.2730
 7870SOL    HW124509   5.730   5.394   2.638  0.0920 -0.1501  0.1272
 7870SOL    HW224510   5.636   5.310   2.534 -0.6932  0.7039  0.1401
 7871SOL     OW24511   5.266   1.319   0.872 -0.0015  0.4097  0.3424
 7871SOL    HW124512   5.177   1.274   0.867  0.5453 -0.5724 -1.3177
 7871SOL    HW224513   5.337   1.259   0.834  1.1177  1.7750  0.1484
 7872SOL     OW24514   0.476   3.447   3.574 -0.0027  0.2114  0.0603
 7872SOL    HW124515   0.560   3.456   3.520 -2.0554  1.0630 -3.2665
 7872SOL    HW224516   0.453   3.536   3.614 -0.3583  0.5333 -0.8157
 7873SOL     OW24517   3.319   2.452   0.259 -0.1800 -0.7305  0.1538
 7873SOL    HW124518   3.228   2.469   0.221  0.7559 -1.0746 -2.4494
 7873SOL    HW224519   3.318   2.472   0.357 -3.3676 -1.9253  0.5142
 7874SOL     OW24520   5.898   3.176   1.294 -0.4837  0.0262  0.5970
 7874SOL    HW124521   5.916   3.175   1.393 -1.8827  0.0707  0.8855
 7874SOL    HW224522   5.946   3.253   1.252 -0.7435  0.6781  1.4539
 7875SOL     OW24523   6.966   0.183   5.113  0.5856  0.1732 -0.6931
 7875SOL    HW124524   6.902   0.226   5.050  0.6582 -1.2009 -1.7391
 7875SOL    HW224525   7.034   0.130   5.062  1.7175  0.4468  0.4586
 7876SOL     OW24526   1.308   6.535   3.266  0.6713 -0.1862 -0.6161
 7876SOL    HW124527   1.244   6.494   3.201  0.2752  0.8760 -0.9248
 7876SOL    HW224528   1.329   6.470   3.339 -1.3598 -0.2967 -0.0830
 7877SOL     OW24529   0.690   3.700   2.786  0.1976 -0.0146  0.2380
 7877SOL    HW124530   0.700   3.641   2.866 -0.4695  0.6752  0.8450
 7877SOL    HW224531   0.594   3.704   2.758 -0.3243  3.0351  2.0155
 7878SOL     OW24532   1.485   6.102   2.498 -0.0442  0.7018 -0.1704
 7878SOL    HW124533   1.555   6.045   2.539 -2.0084 -0.3019  1.9794
 7878SOL    HW224534   1.501   6.198   2.522  1.3304  0.6868 -0.9162
 7879SOL     OW24535   4.587   6.598   4.016 -0.1472 -0.1563  0.2592
 7879SOL    HW124536   4.541   6.678   4.054  0.1124  0.2429 -0.2416
 7879SOL    HW224537   4.589   6.606   3.916  0.3940 -0.5041  0.2384
 7880SOL     OW24538   1.846   5.573   2.529  0.3085  0.3889 -0.8290
 7880SOL    HW124539   1.898   5.604   2.609 -0.2367 -0.8312  0.0355
 7880SOL    HW224540   1.909   5.533   2.462  0.7032  0.8592 -0.7427
 7881SOL     OW24541   4.500   2.476   4.303  0.5106 -0.0234 -0.3056
 7881SOL    HW124542   4.513   2.490   4.205  0.3586  0.4532 -0.2645
 7881SOL    HW224543   4.573   2.522   4.354  0.4665 -0.0823 -0.1886
 7882SOL     OW24544   6.387   2.702   0.125 -0.1933  0.7906  0.1594
 7882SOL    HW124545   6.370   2.604   0.122  0.6595  0.6171  0.5174
 7882SOL    HW224546   6.475   2.719   0.169 -0.7025  1.7574  0.8533
 7883SOL     OW24547   0.241   6.032   4.798 -0.0597  0.3826  0.1900
 7883SOL    HW124548   0.195   6.060   4.883 -0.1193  0.3714  0.1615
 7883SOL    HW224549   0.194   5.953   4.760 -0.8149  1.1466 -0.5226
 7884SOL     OW24550   0.493   3.029   4.129 -0.1273 -0.2465  0.0889
 7884SOL    HW124551   0.539   3.010   4.216 -1.4724 -1.2524  0.6220
 7884SOL    HW224552   0.459   2.943   4.091 -0.8871  0.3739 -0.6628
 7885SOL     OW24553   1.105   6.766   0.352 -0.3125  0.7104  0.4710
 7885SOL    HW124554   1.050   6.735   0.275 -0.5152 -2.0672  1.6195
 7885SOL    HW224555   1.144   6.856   0.331 -1.3680  0.6178 -2.3118
 7886SOL     OW24556   6.539   3.977   1.415 -0.1081  0.4384 -0.4105
 7886SOL    HW124557   6.603   3.935   1.351 -2.3806 -0.0911 -2.4404
 7886SOL    HW224558   6.505   4.063   1.378 -1.0149  0.4352  0.3624
 7887SOL     OW24559   4.546   3.368   5.333 -0.2549  0.2778 -0.0820
 7887SOL    HW124560   4.634   3.349   5.289  0.4601  1.4333  0.7981
 7887SOL    HW224561   4.522   3.464   5.318  0.2540  0.8634  2.3747
 7888SOL     OW24562   4.982   6.489   5.693 -0.1308 -0.1258 -0.0975
 7888SOL    HW124563   4.887   6.511   5.716  0.6048  4.1686 -0.3146
 7888SOL    HW224564   5.005   6.530   5.605  2.0176 -0.9100  0.0414
 7889SOL     OW24565   6.856   3.885   4.059  0.6964  0.5052 -0.0020
 7889SOL    HW124566   6.874   3.855   3.966  1.7653  0.4317  0.2194
 7889SOL    HW224567   6.858   3.985   4.063 -0.9375  0.5791 -0.3554
 7890SOL     OW24568   0.777   3.899   1.242 -0.0306 -0.4724 -0.6394
 7890SOL    HW124569   0.810   3.860   1.328  0.2152  1.3833  0.1647
 7890SOL    HW224570   0.748   3.826   1.181 -3.2053 -1.8278  2.1817
 7891SOL     OW24571   0.203   5.258   4.418  0.2334  0.5053 -0.1870
 7891SOL    HW124572   0.117   5.277   4.465  1.3418  1.3933  1.5936
 7891SOL    HW224573   0.240   5.171   4.450  1.3128  1.4187  1.1881
 7892SOL     OW24574   1.482   1.447   4.758  0.4248  0.6102 -0.5293
 7892SOL    HW124575   1.571   1.412   4.729  1.0757  1.1749  0.7101
 7892SOL    HW224576   1.467   1.424   4.854 -1.3277 -0.5310 -1.0409
 7893SOL     OW24577   6.277   1.916   0.807  0.2231  0.1573  0.2107
 7893SOL    HW124578   6.242   1.947   0.719 -0.9095 -1.4626  0.0645
 7893SOL    HW224579   6.313   1.823   0.798 -2.1228 -1.0258  1.9071
 7894SOL     OW24580   3.313   6.953   4.815 -0.3747  0.3547 -0.9737
 7894SOL    HW124581   3.379   6.976   4.743 -0.7641  3.9039 -0.4070
 7894SOL    HW224582   3.345   6.991   4.902 -0.7160 -2.4435  0.4759
 7895SOL     OW24583   0.989   2.320   4.257  0.4006 -0.1840 -0.5052
 7895SOL    HW124584   0.977   2.269   4.342 -0.6820  0.5271 -0.2106
 7895SOL    HW224585   1.016   2.414   4.277  1.8008 -0.4517 -1.0230
 7896SOL     OW24586   3.213   0.640   5.200 -0.2611 -0.3853  0.2052
 7896SOL    HW124587   3.170   0.552   5.178 -1.1649  0.5911 -2.3099
 7896SOL    HW224588   3.270   0.669   5.124 -2.0668  2.4120 -0.2448
 7897SOL     OW24589   3.323   1.731   6.751 -0.0506  0.0483 -0.1884
 7897SOL    HW124590   3.253   1.663   6.729  0.5068 -0.9823  1.0524
 7897SOL    HW224591   3.404   1.684   6.786  0.8801  1.2886 -0.6245
 7898SOL     OW24592   4.995   1.153   4.745 -0.3035 -0.1391  0.1103
 7898SOL    HW124593   4.981   1.250   4.721 -0.8131 -0.6010 -1.5863
 7898SOL    HW224594   5.014   1.146   4.843  0.7164  1.7725  0.1118
 7899SOL     OW24595   4.202   0.818   2.178 -0.6873 -0.0099  0.4295
 7899SOL    HW124596   4.171   0.863   2.262  1.5272 -0.6994  1.7113
 7899SOL    HW224597   4.295   0.848   2.156  0.6834 -3.3215  1.0148
 7900SOL     OW24598   2.285   6.173   1.203  0.5125 -0.0831 -0.2265
 7900SOL    HW124599   2.358   6.193   1.269  0.8249  0.6822 -0.7911
 7900SOL    HW224600   2.219   6.111   1.245  0.6607  0.4494  0.8437
 7901SOL     OW24601   5.493   4.414   0.263  0.4851 -0.0274  0.2449
 7901SOL    HW124602   5.473   4.317   0.251 -0.2181  0.1093  0.2564
 7901SOL    HW224603   5.503   4.435   0.360 -0.5361  0.1225  0.3307
 7902SOL     OW24604   5.332   2.733   0.046  0.3277  0.0624  0.4555
 7902SOL    HW124605   5.273   2.672   0.099 -1.8044  1.2763 -0.3771
 7902SOL    HW224606   5.291   2.824   0.043  1.6129  0.6348 -1.2746
 7903SOL     OW24607   1.279   4.125   1.801 -0.1356  0.1736 -0.2665
 7903SOL    HW124608   1.318   4.183   1.730  0.8657 -1.1244 -0.8289
 7903SOL    HW224609   1.183   4.147   1.814  0.1139  1.6355 -0.7608
 7904SOL     OW24610   1.543   1.316   3.757  0.4597 -0.3087 -0.2799
 7904SOL    HW124611   1.538   1.385   3.829  0.2817 -0.7202  0.1088
 7904SOL    HW224612   1.545   1.361   3.668 -1.3610  0.1631 -0.1223
 7905SOL     OW24613   2.829   1.501   0.775 -0.6021 -0.1038  0.0415
 7905SOL    HW124614   2.894   1.452   0.718 -1.3305 -0.4907 -0.4688
 7905SOL    HW224615   2.764   1.437   0.815 -1.1936  0.3646 -0.1505
 7906SOL     OW24616   1.265   4.331   0.170  0.6268  0.0321  0.1793
 7906SOL    HW124617   1.352   4.348   0.123  0.2692  1.2195 -0.0885
 7906SOL    HW224618   1.225   4.246   0.137  1.5351 -0.3623  0.0747
 7907SOL     OW24619   6.710   4.015   1.625  0.3055 -0.4325 -0.5574
 7907SOL    HW124620   6.665   4.052   1.544  0.3018 -0.1550 -0.4292
 7907SOL    HW224621   6.692   4.075   1.704  2.8730  1.0624 -0.9824
 7908SOL     OW24622   0.745   1.108   5.067 -0.0165  0.3911 -0.3618
 7908SOL    HW124623   0.720   1.196   5.027  2.6708  2.4530  2.0173
 7908SOL    HW224624   0.818   1.067   5.013 -1.2827 -0.4706 -1.4832
 7909SOL     OW24625   6.397   0.534   3.679 -0.0534 -0.1741  0.2006
 7909SOL    HW124626   6.348   0.542   3.592  0.5393 -1.7828 -0.3151
 7909SOL    HW224627   6.447   0.448   3.681  0.8320  0.3412  1.6999
 7910SOL     OW24628   5.865   2.826   5.832  0.4689  0.0570  0.8879
 7910SOL    HW124629   5.895   2.871   5.917 -0.1594  0.4910  0.8916
 7910SOL    HW224630   5.778   2.866   5.803  1.1133  0.5564 -0.4574
 7911SOL     OW24631   6.533   5.016   0.077  0.4811 -0.2870  0.1612
 7911SOL    HW124632   6.633   5.009   0.081  0.3936 -0.9317  1.5684
 7911SOL    HW224633   6.506   5.112   0.086  0.9891 -0.0087 -1.0911
 7912SOL     OW24634   0.498   6.020   4.811 -0.4743  0.0268 -0.4517
 7912SOL    HW124635   0.402   6.027   4.783 -0.6254  0.1666  0.0733
 7912SOL    HW224636   0.510   6.068   4.898 -0.2024 -1.0868  0.1385
 7913SOL     OW24637   2.995   6.151   5.539  0.3307 -0.3087  0.2101
 7913SOL    HW124638   2.905   6.160   5.582  0.8209  0.3440  1.1470
 7913SOL    HW224639   2.985   6.113   5.448 -1.0737  1.3700 -0.3999
 7914SOL     OW24640   4.458   5.886   0.714 -0.1053 -0.7294 -0.1157
 7914SOL    HW124641   4.488   5.791   0.714  1.3784 -0.4622  3.7644
 7914SOL    HW224642   4.533   5.945   0.684  0.4123 -0.5866  1.3911
 7915SOL     OW24643   3.550   6.742   2.250 -0.7169 -0.4395 -0.3027
 7915SOL    HW124644   3.646   6.766   2.265 -0.8440  1.3592 -1.9511
 7915SOL    HW224645   3.501   6.744   2.337  0.2555  1.1098  0.2517
 7916SOL     OW24646   4.390   3.614   5.533  0.0142 -0.8387 -0.6204
 7916SOL    HW124647   4.301   3.598   5.577 -0.3725 -0.9840 -1.4314
 7916SOL    HW224648   4.463   3.585   5.594 -0.4209  0.6856  0.6956
 7917SOL     OW24649   3.786   3.195   3.792 -0.2980  0.3708 -0.4431
 7917SOL    HW124650   3.723   3.273   3.790 -0.6685  0.0885  0.1731
 7917SOL    HW224651   3.743   3.116   3.750 -0.4756  0.0938  0.2451
 7918SOL     OW24652   6.716   3.864   1.236  0.1937 -0.0293 -0.3591
 7918SOL    HW124653   6.668   3.866   1.148  0.4354  0.6930 -0.4835
 7918SOL    HW224654   6.780   3.941   1.241 -2.1647  2.0224  1.7224
 7919SOL     OW24655   0.407   3.255   6.938  0.3393 -0.1852 -0.0543
 7919SOL    HW124656   0.407   3.215   7.030 -1.8522 -0.9393 -0.3370
 7919SOL    HW224657   0.425   3.183   6.871  1.3672  0.2610 -0.2770
 7920SOL     OW24658   0.805   6.834   3.044 -0.0801  0.4894 -0.3666
 7920SOL    HW124659   0.856   6.907   3.088 -0.8046  0.6763  0.1641
 7920SOL    HW224660   0.721   6.870   3.005 -0.2466  0.0141 -0.4586
 7921SOL     OW24661   2.208   5.560   2.097 -0.2733  0.6853  0.3510
 7921SOL    HW124662   2.276   5.489   2.081 -0.4461  0.5500  0.2151
 7921SOL    HW224663   2.254   5.649   2.104 -0.1146  0.6443 -0.0957
 7922SOL     OW24664   0.911   3.731   6.074 -0.0996  0.1619  0.3124
 7922SOL    HW124665   0.927   3.711   5.978 -0.5447  0.8700  0.0873
 7922SOL    HW224666   0.899   3.645   6.124  0.7435 -0.2398 -0.1415
 7923SOL     OW24667   1.681   2.343   2.488 -0.5020  0.0183 -0.1606
 7923SOL    HW124668   1.686   2.387   2.578 -1.0046 -0.6315  0.1958
 7923SOL    HW224669   1.770   2.350   2.442 -0.1837  0.1689  0.4722
 7924SOL     OW24670   1.383   2.312   4.299 -0.7257  0.2768 -0.7176
 7924SOL    HW124671   1.302   2.264   4.266 -0.6960  0.1841 -0.6556
 7924SOL    HW224672   1.439   2.340   4.221 -1.4347  1.4372 -0.8402
 7925SOL     OW24673   5.767   0.879   5.584 -0.0816  0.1331 -0.1689
 7925SOL    HW124674   5.676   0.869   5.544 -0.1383  2.0083 -0.6272
 7925SOL    HW224675   5.761   0.936   5.666  0.5708 -0.4706  0.3127
 7926SOL     OW24676   3.151   6.233   2.060 -0.2441 -0.6972 -0.6907
 7926SOL    HW124677   3.132   6.329   2.080 -0.0574 -0.5206 -1.3263
 7926SOL    HW224678   3.116   6.175   2.134  0.1760 -0.0954 -0.0184
 7927SOL     OW24679   4.881   4.529   5.279  0.1225  0.1074  0.4433
 7927SOL    HW124680   4.968   4.537   5.229  0.7290 -0.2328  1.4038
 7927SOL    HW224681   4.826   4.610   5.262  0.8370  0.5519  0.1801
 7928SOL     OW24682   1.020   4.140   0.356  0.0033  0.1848  0.6760
 7928SOL    HW124683   1.079   4.209   0.396  0.0806  0.5181 -0.0019
 7928SOL    HW224684   0.926   4.153   0.389  0.1536  0.1535  1.1202
 7929SOL     OW24685   3.924   4.037   0.256  0.2397 -0.1523  0.5740
 7929SOL    HW124686   3.965   3.969   0.196  0.8290  1.2210 -0.6405
 7929SOL    HW224687   3.960   4.128   0.233 -0.4455  0.5710  2.2027
 7930SOL     OW24688   4.217   5.797   2.482 -0.0101  0.0106  0.2365
 7930SOL    HW124689   4.265   5.885   2.480 -1.3473  0.7755  0.6848
 7930SOL    HW224690   4.247   5.741   2.405  1.9291  0.2552  0.7580
 7931SOL     OW24691   4.194   3.221   6.851 -0.7552 -0.2524  0.2246
 7931SOL    HW124692   4.211   3.124   6.836  1.5511 -0.0253  0.9511
 7931SOL    HW224693   4.191   3.268   6.762  1.5381 -0.5522 -0.0897
 7932SOL     OW24694   1.936   0.050   1.693 -0.7334 -0.6375  0.0274
 7932SOL    HW124695   1.927  -0.041   1.652  1.0351 -0.3537 -1.1250
 7932SOL    HW224696   1.998   0.046   1.771 -0.7756 -0.4585  0.0708
 7933SOL     OW24697   0.527   2.288   6.411 -0.4720 -0.2596  0.1455
 7933SOL    HW124698   0.498   2.358   6.476  0.0160 -0.3263  0.4448
 7933SOL    HW224699   0.559   2.207   6.461  0.1039 -0.2320 -0.1625
 7934SOL     OW24700   4.334   1.671   5.196 -0.1123 -0.7236 -0.4531
 7934SOL    HW124701   4.315   1.704   5.289  1.9551 -3.0295  0.9409
 7934SOL    HW224702   4.273   1.715   5.131 -0.1137  2.7675  1.6529
 7935SOL     OW24703   5.408   6.033   2.034 -0.4052  0.6819 -0.5038
 7935SOL    HW124704   5.319   6.002   2.001 -0.3091 -0.2538  0.0646
 7935SOL    HW224705   5.395   6.104   2.103 -0.7737 -0.2217  0.3817
 7936SOL     OW24706   5.951   7.000   4.207  0.4789 -0.1956 -0.0894
 7936SOL    HW124707   5.964   6.951   4.121  0.6777 -0.6187  0.1793
 7936SOL    HW224708   5.982   7.095   4.197  0.0189 -0.1049 -0.6343
 7937SOL     OW24709   5.762   1.798   0.762 -0.1911  0.0816  0.0819
 7937SOL    HW124710   5.701   1.815   0.685  0.2421  4.0828  0.3813
 7937SOL    HW224711   5.709   1.774   0.843 -1.0154 -0.0586 -0.4954
 7938SOL     OW24712   6.956   5.219   5.838 -0.6232 -0.4149  0.1615
 7938SOL    HW124713   7.033   5.170   5.797 -0.7844  0.0814 -0.7626
 7938SOL    HW224714   6.882   5.156   5.858 -0.9650 -0.5113 -1.3355
 7939SOL     OW24715   1.575   5.917   3.384  0.1772 -0.4659  0.1513
 7939SOL    HW124716   1.487   5.869   3.378 -0.0939  0.0530 -0.0891
 7939SOL    HW224717   1.561   6.014   3.367  1.3171 -0.8663 -4.1478
 7940SOL     OW24718   0.313   5.946   6.680 -0.5443  0.6588 -0.6140
 7940SOL    HW124719   0.358   5.875   6.735 -0.2358  1.4748  0.2231
 7940SOL    HW224720   0.236   5.984   6.731  0.3888  2.1667 -0.2551
 7941SOL     OW24721   1.334   6.471   2.923 -0.1395  0.1605  0.4661
 7941SOL    HW124722   1.378   6.391   2.964 -0.0238  0.4583  0.9251
 7941SOL    HW224723   1.277   6.441   2.847  0.0676 -0.3385  0.5002
 7942SOL     OW24724   1.632   1.461   0.854  0.0520  0.7024  0.5662
 7942SOL    HW124725   1.666   1.515   0.931 -1.9263  1.6041  0.8843
 7942SOL    HW224726   1.611   1.521   0.777  1.1097 -0.0768 -0.3601
 7943SOL     OW24727   0.010   1.275   1.195  0.3442  0.3784  0.2122
 7943SOL    HW124728  -0.079   1.231   1.198 -0.0409  1.1705  0.8167
 7943SOL    HW224729   0.041   1.282   1.100  0.6750 -1.6532  0.1314
 7944SOL     OW24730   6.703   4.998   1.921  0.0903  0.6374 -0.2608
 7944SOL    HW124731   6.653   5.026   2.003  1.1580 -0.0940  0.6808
 7944SOL    HW224732   6.698   5.070   1.852 -1.7721  0.8103  0.0002
 7945SOL     OW24733   5.534   0.978   0.092  0.4266  0.1896  0.1513
 7945SOL    HW124734   5.539   0.923   0.008  0.2353  1.6897 -0.8721
 7945SOL    HW224735   5.580   1.065   0.078 -0.5922  0.9316  1.2442
 7946SOL     OW24736   4.820   6.955   4.403 -0.1079  0.3115 -0.2101
 7946SOL    HW124737   4.804   6.888   4.330 -1.2131  0.3264  0.0036
 7946SOL    HW224738   4.767   6.929   4.484 -0.5294  1.4290 -0.1139
 7947SOL     OW24739   3.324   5.951   6.535 -0.2905 -0.0473 -0.3339
 7947SOL    HW124740   3.331   5.870   6.476 -0.4920 -0.1334 -0.2407
 7947SOL    HW224741   3.415   5.978   6.566 -0.2843 -0.6450  0.1877
 7948SOL     OW24742   0.349   5.494   6.063 -0.3496 -0.0302  0.3153
 7948SOL    HW124743   0.371   5.485   5.965 -0.1550  0.1556  0.3410
 7948SOL    HW224744   0.416   5.444   6.117 -1.1848 -1.2199  0.3008
 7949SOL     OW24745   6.789   4.632   4.353 -0.2524  0.0986  0.3998
 7949SOL    HW124746   6.837   4.701   4.299  2.5575  0.0627  2.6170
 7949SOL    HW224747   6.726   4.581   4.294 -0.0647  2.4002 -1.9705
 7950SOL     OW24748   4.601   4.605   3.118 -0.4965  0.5517 -0.1319
 7950SOL    HW124749   4.600   4.698   3.081  0.4305  2.0721  3.2742
 7950SOL    HW224750   4.525   4.594   3.182  1.4455  0.3107  2.2651
 7951SOL     OW24751   1.327   3.246   0.466  0.0058 -0.1292  0.6713
 7951SOL    HW124752   1.383   3.164   0.454  0.5392  0.3768 -0.3720
 7951SOL    HW224753   1.241   3.235   0.417  1.5027  1.2705 -2.5578
 7952SOL     OW24754   4.245   4.008   1.054 -0.2568 -0.2852  0.0639
 7952SOL    HW124755   4.284   3.965   0.973 -0.6527  0.3517 -0.4833
 7952SOL    HW224756   4.163   4.059   1.028  1.0673  2.1362  0.3714
 7953SOL     OW24757   0.575   3.980   2.384  0.3872  0.4727  0.3407
 7953SOL    HW124758   0.647   3.991   2.453  0.4927  2.6685 -0.0257
 7953SOL    HW224759   0.497   4.038   2.407  1.5491  3.6372 -2.6931
 7954SOL     OW24760   5.467   6.673   2.988 -0.0122  0.8280 -0.8193
 7954SOL    HW124761   5.489   6.713   2.899  0.1324 -0.6496 -1.4762
 7954SOL    HW224762   5.448   6.746   3.054 -2.0088  1.9611 -2.5180
 7955SOL     OW24763   2.514   6.990   5.525  0.1835  0.2702  0.4080
 7955SOL    HW124764   2.466   7.078   5.524 -1.1342 -0.4234 -0.3998
 7955SOL    HW224765   2.599   6.999   5.578  0.9949  2.4921 -1.0917
 7956SOL     OW24766   6.639   1.896   1.774 -0.3010  0.4445 -0.2003
 7956SOL    HW124767   6.632   1.961   1.698 -0.4247  0.5925 -0.0629
 7956SOL    HW224768   6.717   1.835   1.758  1.3707  2.1939  0.8414
 7957SOL     OW24769   6.877   2.545   0.974  0.0374  0.6631  0.2402
 7957SOL    HW124770   6.890   2.643   0.990 -0.0866  0.7314 -0.0735
 7957SOL    HW224771   6.965   2.501   0.960  0.3931  0.1995  3.3239
 7958SOL     OW24772   1.564   6.250   3.619  0.4605  0.0544  0.8063
 7958SOL    HW124773   1.624   6.274   3.543  0.0987 -0.7566  0.2583
 7958SOL    HW224774   1.601   6.288   3.704  1.3235  0.2346  0.3590
 7959SOL     OW24775   4.074   4.678   1.604  0.0417  0.5701  0.2576
 7959SOL    HW124776   4.074   4.588   1.560  0.1125  1.0399 -0.7327
 7959SOL    HW224777   3.989   4.691   1.655  0.1954 -0.1984  0.7302
 7960SOL     OW24778   1.633   2.403   1.011  0.4389 -0.4207  0.2694
 7960SOL    HW124779   1.657   2.442   0.922  2.1202  1.0223  1.3047
 7960SOL    HW224780   1.715   2.371   1.057 -0.4026 -1.0979  1.3567
 7961SOL     OW24781   0.396   5.848   6.434 -0.2973  0.0422  0.0138
 7961SOL    HW124782   0.345   5.868   6.517  0.8008 -0.1657  0.7499
 7961SOL    HW224783   0.350   5.890   6.356 -1.6127 -0.1756  0.6439
 7962SOL     OW24784   2.319   6.239   2.872  0.4029  0.1884  0.4693
 7962SOL    HW124785   2.395   6.190   2.913 -0.4118 -1.1013  0.4933
 7962SOL    HW224786   2.281   6.185   2.797  0.7110  1.6883 -0.8114
 7963SOL     OW24787   1.221   7.014   4.457 -0.1781 -0.1243  0.8638
 7963SOL    HW124788   1.129   7.011   4.420  0.7064 -1.2627 -1.4249
 7963SOL    HW224789   1.246   6.924   4.493  1.1515 -0.8836 -1.6892
 7964SOL     OW24790   5.971   5.620   4.581 -0.5203  0.2298  0.2512
 7964SOL    HW124791   6.031   5.586   4.653  0.1180  0.5454 -0.1296
 7964SOL    HW224792   5.965   5.553   4.507 -0.2368  0.4170  0.0589
 7965SOL     OW24793   4.095   0.292   6.515  0.5596 -0.0846 -0.4642
 7965SOL    HW124794   4.138   0.238   6.588  0.5839 -0.2106 -0.5701
 7965SOL    HW224795   4.122   0.388   6.524 -0.1299  0.0550  0.2068
 7966SOL     OW24796   0.061   6.627   3.879 -0.1775  0.1516  0.0011
 7966SOL    HW124797   0.021   6.694   3.816  0.2119 -0.5733 -1.0620
 7966SOL    HW224798   0.032   6.647   3.972 -2.2815  0.1894 -0.6023
 7967SOL     OW24799   3.877   0.939   2.657  0.0767  0.1753  0.0192
 7967SOL    HW124800   3.842   0.980   2.573  1.7617  0.3556 -0.6382
 7967SOL    HW224801   3.938   1.003   2.703  0.7960 -0.6768  0.2839
 7968SOL     OW24802   2.889   2.157   0.448 -0.8789  0.2755  0.6600
 7968SOL    HW124803   2.796   2.193   0.453 -0.6318  1.2961 -0.9597
 7968SOL    HW224804   2.950   2.229   0.412  0.3877 -0.6143  0.9507
 7969SOL     OW24805   1.424   1.824   4.732 -0.4445 -0.0828  0.2945
 7969SOL    HW124806   1.387   1.917   4.737  1.3432  0.7436 -0.6591
 7969SOL    HW224807   1.514   1.827   4.688 -0.0028 -2.1850  0.9543
 7970SOL     OW24808   6.980   5.457   4.092  0.7344  0.5281 -0.4675
 7970SOL    HW124809   7.076   5.473   4.116  0.9120 -0.4349 -0.4983
 7970SOL    HW224810   6.949   5.371   4.133 -0.3715  1.2276  0.2345
 7971SOL     OW24811   2.060   1.639   1.480 -0.7664  0.2415 -0.0818
 7971SOL    HW124812   2.110   1.723   1.462  0.3705 -0.5870 -0.9199
 7971SOL    HW224813   1.980   1.635   1.420 -0.0755  0.1002 -1.0037
 7972SOL     OW24814   6.701   0.134   0.900  0.4064  0.1234  0.2456
 7972SOL    HW124815   6.797   0.125   0.925  1.1675 -0.4358 -2.5293
 7972SOL    HW224816   6.670   0.228   0.917  1.7708  0.6066  0.1845
 7973SOL     OW24817   6.190   2.912   3.624  0.2139  0.6345 -0.1742
 7973SOL    HW124818   6.135   2.975   3.679 -1.8186 -0.4180 -0.9143
 7973SOL    HW224819   6.274   2.889   3.674 -0.4965  1.4588  1.4750
 7974SOL     OW24820   0.294   6.349   5.086 -0.1558 -0.5021 -0.5405
 7974SOL    HW124821   0.258   6.402   5.163  0.2702 -3.1898  1.6688
 7974SOL    HW224822   0.223   6.289   5.051  0.2859 -0.9212 -0.7174
 7975SOL     OW24823   1.926   1.816   2.975  0.1866 -0.8669 -0.1829
 7975SOL    HW124824   1.907   1.834   2.878  0.1962 -0.1349 -0.0597
 7975SOL    HW224825   1.940   1.718   2.989 -1.6032 -1.2307 -0.6062
 7976SOL     OW24826   2.014   5.707   0.230  0.4528 -0.0859 -0.7423
 7976SOL    HW124827   2.112   5.696   0.217  0.3032 -0.0902 -1.9833
 7976SOL    HW224828   1.974   5.748   0.148 -0.5348  0.2225 -0.1216
 7977SOL     OW24829   3.820   0.264   0.627 -0.3843  0.6233 -0.1582
 7977SOL    HW124830   3.776   0.211   0.554 -1.7433  0.9965  0.3475
 7977SOL    HW224831   3.839   0.356   0.594 -1.3989  0.9287  0.0545
 7978SOL     OW24832   3.311   2.932   5.753  0.1779 -0.1814 -0.4127
 7978SOL    HW124833   3.226   2.935   5.700  0.4617  0.5128 -0.8476
 7978SOL    HW224834   3.289   2.936   5.851 -0.2598  1.6356 -0.5463
 7979SOL     OW24835   5.425   5.259   4.465  0.2744  0.3216  0.0480
 7979SOL    HW124836   5.450   5.163   4.452 -1.2161  0.1781 -2.5782
 7979SOL    HW224837   5.480   5.316   4.404  1.8116  1.3246  2.2562
 7980SOL     OW24838   2.379   2.065   2.008 -0.2507 -0.1648  0.3214
 7980SOL    HW124839   2.382   1.966   1.997 -0.0717  0.0152 -1.6216
 7980SOL    HW224840   2.314   2.104   1.943 -1.0658  0.9433  1.7252
 7981SOL     OW24841   6.726   5.330   2.347  0.3440  0.0395 -0.0483
 7981SOL    HW124842   6.709   5.274   2.428  1.8053 -0.9812 -0.3965
 7981SOL    HW224843   6.819   5.366   2.350  0.0881  0.8245 -0.8019
 7982SOL     OW24844   4.259   1.161   2.086  0.0747 -0.0135  0.0950
 7982SOL    HW124845   4.198   1.124   2.016 -0.2123  0.2184  0.2186
 7982SOL    HW224846   4.327   1.092   2.111  1.4418  0.5381 -1.8184
 7983SOL     OW24847   4.830   2.923   2.307 -0.3485  0.1452 -0.3402
 7983SOL    HW124848   4.803   2.986   2.380 -1.2770  0.0796 -0.6130
 7983SOL    HW224849   4.809   2.964   2.218  0.8024  0.2383 -0.5897
 7984SOL     OW24850   0.003   1.443   6.939 -0.3604  0.0605  0.4262
 7984SOL    HW124851  -0.022   1.351   6.908  0.1376 -0.0235  0.2739
 7984SOL    HW224852   0.034   1.497   6.861 -1.6314  0.6913  0.3320
 7985SOL     OW24853   6.701   3.943   2.477  0.3519  0.0080 -0.1487
 7985SOL    HW124854   6.667   3.906   2.391 -1.5935 -0.1817  0.6721
 7985SOL    HW224855   6.770   4.014   2.457  0.1086 -0.1845 -1.8320
 7986SOL     OW24856   3.791   3.609   0.486  0.3270 -0.0107  0.0382
 7986SOL    HW124857   3.726   3.608   0.562  0.1602 -0.0351 -0.1040
 7986SOL    HW224858   3.833   3.699   0.478 -0.4486  0.3099 -0.5106
 7987SOL     OW24859   6.094   2.989   3.993 -0.0718  0.2432  0.2313
 7987SOL    HW124860   6.052   2.902   4.020  1.4935 -0.3927  0.7563
 7987SOL    HW224861   6.030   3.064   4.009 -1.6173 -0.8397 -0.6425
 7988SOL     OW24862   3.939   0.598   0.957  0.1720  0.1494  0.4701
 7988SOL    HW124863   3.962   0.503   0.931 -0.0457 -0.1039  1.1988
 7988SOL    HW224864   3.859   0.628   0.905  1.0402  0.4215 -0.7770
 7989SOL     OW24865   3.389   2.684   6.319 -0.0186  0.0484  0.0357
 7989SOL    HW124866   3.464   2.735   6.279  0.2988  0.1198  0.7003
 7989SOL    HW224867   3.320   2.664   6.249 -0.5895  2.1555 -0.0776
 7990SOL     OW24868   2.745   2.051   4.479 -0.2118  0.2210 -0.0642
 7990SOL    HW124869   2.738   2.145   4.446  0.9997  0.5400  0.5038
 7990SOL    HW224870   2.799   2.049   4.564 -0.7466 -0.9162  0.2732
 7991SOL     OW24871   1.178   2.260   1.072  0.1159 -0.4885 -0.1791
 7991SOL    HW124872   1.236   2.317   1.014 -0.1169 -0.4589 -0.3853
 7991SOL    HW224873   1.124   2.198   1.014 -1.4183  0.7445 -0.1254
 7992SOL     OW24874   3.717   2.120   6.960 -0.5526 -0.1218  0.4775
 7992SOL    HW124875   3.815   2.102   6.966 -0.1201  1.7739 -0.0994
 7992SOL    HW224876   3.693   2.197   7.019 -1.0337  1.6328 -1.8659
 7993SOL     OW24877   3.387   4.707   1.666  0.1241  0.5249 -0.0556
 7993SOL    HW124878   3.304   4.663   1.699  0.3785  0.6378  0.7469
 7993SOL    HW224879   3.461   4.693   1.731  0.1494  2.3517  0.3830
 7994SOL     OW24880   5.347   1.278   2.752  0.6441  0.0892  0.2154
 7994SOL    HW124881   5.330   1.303   2.847 -1.4538 -0.0952 -0.0765
 7994SOL    HW224882   5.402   1.195   2.748 -0.0920 -0.4592  1.2886
 7995SOL     OW24883   4.013   5.277   2.189 -0.1509 -0.1439  0.6180
 7995SOL    HW124884   4.103   5.312   2.163 -0.9971  1.0931 -0.7536
 7995SOL    HW224885   4.020   5.178   2.206  1.1063 -0.4157 -1.2112
 7996SOL     OW24886   3.170   1.494   0.074 -0.1945  0.7245  0.5126
 7996SOL    HW124887   3.140   1.471   0.167  1.1437 -1.5181  0.4508
 7996SOL    HW224888   3.091   1.495   0.013 -0.6871 -1.1007  1.0736
 7997SOL     OW24889   4.729   2.783   0.392  0.3242  0.4643  0.2923
 7997SOL    HW124890   4.659   2.848   0.419  0.7492  0.8740  0.4227
 7997SOL    HW224891   4.817   2.809   0.432  0.3996 -0.4794  0.7672
 7998SOL     OW24892   6.414   5.447   6.116  0.4740 -0.1738 -0.8818
 7998SOL    HW124893   6.391   5.523   6.056 -0.6445  0.5793  0.4277
 7998SOL    HW224894   6.336   5.386   6.124  0.6799 -0.3792 -0.3739
 7999SOL     OW24895   1.878   3.100   6.525 -0.0352 -0.3737  0.3913
 7999SOL    HW124896   1.867   3.139   6.434 -0.1467 -0.6478  0.2859
 7999SOL    HW224897   1.938   3.020   6.520 -1.2863 -1.3387  0.2954
 8000SOL     OW24898   0.785   1.385   4.070 -0.0689 -0.0218 -0.0652
 8000SOL    HW124899   0.785   1.322   4.147  2.0561 -0.4067 -0.2998
 8000SOL    HW224900   0.814   1.335   3.987  0.3200  0.9452 -0.5277
 8001SOL     OW24901   2.434   4.448   6.945 -0.3026 -0.3576  0.6061
 8001SOL    HW124902   2.404   4.377   7.010 -1.8476 -2.4375 -2.1602
 8001SOL    HW224903   2.481   4.405   6.868  0.4832  1.8787 -0.2440
 8002SOL     OW24904   5.521   2.565   6.715  0.0430  0.3625 -0.1473
 8002SOL    HW124905   5.591   2.529   6.776  1.2998 -0.0348 -1.7390
 8002SOL    HW224906   5.458   2.624   6.766  2.1757  1.6167  1.1422
 8003SOL     OW24907   3.948   0.387   3.867  0.3915  0.1211 -0.6970
 8003SOL    HW124908   3.881   0.317   3.891  0.8088 -0.3235 -0.7971
 8003SOL    HW224909   4.040   0.354   3.891  0.8650 -0.4507 -3.0617
 8004SOL     OW24910   1.850   3.971   3.937  0.1269  0.2335 -0.2642
 8004SOL    HW124911   1.871   4.060   3.977  1.1365 -0.4033  0.6875
 8004SOL    HW224912   1.786   3.921   3.996  1.4479 -0.6212  0.4987
 8005SOL     OW24913   1.057   1.146   4.212  0.2548  0.1102 -0.0258
 8005SOL    HW124914   1.029   1.066   4.160  0.8584  0.2794 -0.6252
 8005SOL    HW224915   1.120   1.202   4.157  0.1873  0.7672  0.5429
 8006SOL     OW24916   4.862   6.726   1.838 -0.6457  0.8957 -0.0016
 8006SOL    HW124917   4.891   6.768   1.751  0.9333  0.3568  0.2310
 8006SOL    HW224918   4.802   6.649   1.818  0.4151  0.2084 -0.7100
 8007SOL     OW24919   6.601   1.689   2.715 -0.4493 -0.1020  0.0581
 8007SOL    HW124920   6.615   1.731   2.626  0.0791 -0.0672  0.1553
 8007SOL    HW224921   6.645   1.599   2.717 -1.6427 -0.7112 -0.1768
 8008SOL     OW24922   4.820   4.719   0.986  0.2583  0.3749  0.3759
 8008SOL    HW124923   4.831   4.620   0.991 -1.4578 -0.0456 -2.3145
 8008SOL    HW224924   4.724   4.742   0.971  0.4791  2.5389  1.7697
 8009SOL     OW24925   0.484   5.327   3.596  0.1696  0.3439 -0.3365
 8009SOL    HW124926   0.465   5.231   3.616  0.1504  0.1034 -1.4546
 8009SOL    HW224927   0.402   5.381   3.612 -0.5487 -0.2033 -2.0347
 8010SOL     OW24928   2.844   2.688   6.344 -0.1552 -0.4657 -0.4748
 8010SOL    HW124929   2.936   2.704   6.379 -0.4086 -2.6767  1.4847
 8010SOL    HW224930   2.777   2.725   6.409 -0.6264 -2.3155  0.1512
 8011SOL     OW24931   2.687   3.155   6.932 -0.0837 -0.1224 -0.0446
 8011SOL    HW124932   2.675   3.058   6.952 -2.0357  0.2302  0.7734
 8011SOL    HW224933   2.611   3.206   6.972  0.0854  1.5731 -1.7672
 8012SOL     OW24934   1.830   5.122   3.297 -0.3434  0.2800 -0.2347
 8012SOL    HW124935   1.792   5.038   3.337 -0.9048  0.3649 -0.5662
 8012SOL    HW224936   1.809   5.124   3.199  1.1275  0.0108 -0.5685
 8013SOL     OW24937   6.131   5.750   4.798 -0.3189 -0.2719  0.1496
 8013SOL    HW124938   6.087   5.751   4.708  0.1510  0.5635 -0.0850
 8013SOL    HW224939   6.214   5.806   4.794 -0.6848  0.3710  1.2945
 8014SOL     OW24940   1.619   6.154   6.809 -0.4844  0.8088 -0.0367
 8014SOL    HW124941   1.714   6.148   6.776 -0.7523 -0.0214 -0.7014
 8014SOL    HW224942   1.567   6.213   6.748 -0.8021 -0.1422 -0.7238
 8015SOL     OW24943   6.024   2.712   4.471  0.1946 -0.2440  0.7434
 8015SOL    HW124944   5.972   2.736   4.553  0.9510 -0.9209  1.4472
 8015SOL    HW224945   5.969   2.729   4.390 -0.3701  0.9715  1.3591
 8016SOL     OW24946   2.734   4.705   2.973 -0.3276  0.2509 -0.0027
 8016SOL    HW124947   2.770   4.613   2.985 -1.4937 -0.2040  0.2061
 8016SOL    HW224948   2.746   4.758   3.057  0.4624  0.3371 -0.1677
 8017SOL     OW24949   6.197   3.831   6.571  0.4966  0.0757 -0.8282
 8017SOL    HW124950   6.231   3.860   6.660 -0.9517  0.9692 -0.5401
 8017SOL    HW224951   6.171   3.735   6.575 -0.4486  0.3516  0.0053
 8018SOL     OW24952   0.185   1.346   2.483 -0.3070 -0.2495 -0.0617
 8018SOL    HW124953   0.261   1.372   2.544 -0.9336  2.2834 -0.2815
 8018SOL    HW224954   0.222   1.299   2.403  0.5713 -3.3808  1.9720
 8019SOL     OW24955   2.447   6.094   0.978 -0.0528 -0.1821  0.2469
 8019SOL    HW124956   2.512   6.048   1.038  0.1348 -0.2374  0.0006
 8019SOL    HW224957   2.377   6.139   1.034 -0.8448 -1.6359  0.4810
 8020SOL     OW24958   6.868   5.652   0.056 -0.4104  0.0765  0.0794
 8020SOL    HW124959   6.785   5.686   0.011  0.2806  1.2712 -0.3223
 8020SOL    HW224960   6.925   5.604  -0.010 -1.3003 -1.7991  0.6086
 8021SOL     OW24961   0.240   0.759   0.552  0.0661 -0.1551 -0.4101
 8021SOL    HW124962   0.284   0.702   0.482  3.0860 -0.6612  1.6953
 8021SOL    HW224963   0.296   0.840   0.568 -1.3095  0.6445  0.4726
 8022SOL     OW24964   5.050   6.515   4.102  0.9620  0.2225  0.5663
 8022SOL    HW124965   5.055   6.612   4.125 -1.7544  0.5362  0.0952
 8022SOL    HW224966   5.043   6.504   4.003  4.0254 -0.6830  0.3445
 8023SOL     OW24967   1.364   6.207   4.252 -0.1052  0.0630  0.4739
 8023SOL    HW124968   1.277   6.246   4.221  0.0588  0.7355  0.8353
 8023SOL    HW224969   1.367   6.209   4.352  0.4431  0.3233  0.4573
 8024SOL     OW24970   5.562   5.725   4.089 -0.2359 -0.2955 -0.0067
 8024SOL    HW124971   5.604   5.798   4.035 -1.0271 -1.0164 -1.6399
 8024SOL    HW224972   5.634   5.668   4.129  0.3513 -0.1044 -0.7768
 8025SOL     OW24973   2.142   5.554   1.177 -1.2457  0.5957 -0.5088
 8025SOL    HW124974   2.127   5.535   1.080 -1.4970 -0.7153 -0.2236
 8025SOL    HW224975   2.088   5.492   1.233  1.2811 -0.8349  0.4913
 8026SOL     OW24976   0.677   1.817   0.019  0.1578  0.0786  0.0706
 8026SOL    HW124977   0.634   1.907   0.010  0.3002  0.2889  1.2706
 8026SOL    HW224978   0.673   1.788   0.115  1.8082 -0.3486  0.0431
 8027SOL     OW24979   6.627   3.789   5.282 -0.0388 -0.0720  0.3124
 8027SOL    HW124980   6.724   3.763   5.278 -0.1730 -0.4666 -0.9321
 8027SOL    HW224981   6.586   3.751   5.365  0.3199 -1.9942 -0.3309
 8028SOL     OW24982   6.727   4.661   0.320 -0.0641  0.8190 -0.2948
 8028SOL    HW124983   6.740   4.629   0.226  0.2432  0.3672 -0.0993
 8028SOL    HW224984   6.811   4.706   0.351  0.1584  0.1654  0.0759
 8029SOL     OW24985   2.476   3.689   6.581  0.2530 -0.2538 -0.3782
 8029SOL    HW124986   2.381   3.679   6.550 -0.9300 -2.1290  3.2574
 8029SOL    HW224987   2.525   3.603   6.568 -0.2678 -1.0892  2.5292
 8030SOL     OW24988   6.601   3.195   0.587 -0.0751 -0.6921 -0.4120
 8030SOL    HW124989   6.650   3.132   0.647  1.4404 -0.3289 -1.2145
 8030SOL    HW224990   6.505   3.198   0.613  0.0466 -2.4561  0.3672
 8031SOL     OW24991   2.876   6.539   1.773 -0.1778 -0.1517 -0.6155
 8031SOL    HW124992   2.783   6.562   1.744 -1.3254 -2.0222  1.3395
 8031SOL    HW224993   2.882   6.441   1.793  1.6989  0.2426  1.1093
 8032SOL     OW24994   4.899   3.370   5.841  0.2155 -0.3342  0.2139
 8032SOL    HW124995   4.869   3.445   5.782 -1.2516 -1.1253 -0.0912
 8032SOL    HW224996   4.847   3.287   5.818  0.6324 -1.0222  1.6567
 8033SOL     OW24997   5.815   1.458   0.793  0.0974  0.4846 -0.4143
 8033SOL    HW124998   5.895   1.404   0.769  0.4561  0.5084  0.6634
 8033SOL    HW224999   5.836   1.556   0.785  0.3468  0.5003  0.3486
 8034SOL     OW25000   6.733   3.689   5.950  0.2781  0.0208  0.8332
 8034SOL    HW125001   6.647   3.730   5.919  0.4088  1.6320  2.4746
 8034SOL    HW225002   6.760   3.617   5.886 -0.3536  1.9621 -1.7745
 8035SOL     OW25003   4.921   4.986   6.907 -0.4164 -0.1495  0.0336
 8035SOL    HW125004   4.943   5.042   6.986 -0.3100 -0.0181 -0.0878
 8035SOL    HW225005   4.968   5.022   6.826 -2.3585  1.1359 -0.5920
 8036SOL     OW25006   1.317   5.478   2.400 -0.2230  0.3854  0.1110
 8036SOL    HW125007   1.390   5.430   2.448 -0.4085  1.0209  1.0696
 8036SOL    HW225008   1.355   5.529   2.323  0.3446  0.6413  0.5528
 8037SOL     OW25009   2.285   2.987   1.707 -0.2168  0.1041 -0.5380
 8037SOL    HW125010   2.251   2.985   1.613  2.3691 -0.8034 -1.5120
 8037SOL    HW225011   2.295   2.894   1.741  0.2816  0.3895  0.1164
 8038SOL     OW25012   5.902   1.944   3.090  0.2644 -0.2964  0.4461
 8038SOL    HW125013   5.973   1.992   3.142 -0.5729  0.6229  0.7822
 8038SOL    HW225014   5.898   1.849   3.119  1.0201 -0.2273  0.7881
 8039SOL     OW25015   0.650   4.541   3.775 -0.2839 -0.1895 -0.1947
 8039SOL    HW125016   0.597   4.597   3.712 -1.5846 -0.8597  0.2743
 8039SOL    HW225017   0.589   4.490   3.835  0.8977 -0.7737  0.5645
 8040SOL     OW25018   4.512   0.413   6.097 -0.5678  0.0117  0.1608
 8040SOL    HW125019   4.476   0.330   6.139 -2.0439  1.3038  1.5917
 8040SOL    HW225020   4.437   0.477   6.079  0.3187  0.4580 -2.4028
 8041SOL     OW25021   2.440   2.274   0.205  0.2187 -0.0988  0.1497
 8041SOL    HW125022   2.378   2.326   0.265  0.9764  1.5358 -0.4150
 8041SOL    HW225023   2.427   2.176   0.221 -0.8276  0.2476  1.7223
 8042SOL     OW25024   3.228   4.705   1.189  0.2780  0.2188 -0.5687
 8042SOL    HW125025   3.232   4.696   1.288  0.4588  1.7687 -0.3992
 8042SOL    HW225026   3.214   4.802   1.165  0.9685 -0.0156 -2.0562
 8043SOL     OW25027   4.186   1.473   1.558 -0.1357 -0.2528 -0.3255
 8043SOL    HW125028   4.214   1.392   1.609 -2.1177 -0.1595  1.0435
 8043SOL    HW225029   4.096   1.503   1.590  1.0726  3.3023  0.2535
 8044SOL     OW25030   4.284   3.961   1.396 -0.0378 -0.3113  0.3670
 8044SOL    HW125031   4.264   3.879   1.343 -1.4854  0.0932  0.2463
 8044SOL    HW225032   4.278   3.939   1.494 -2.2133  0.0075  0.3514
 8045SOL     OW25033   5.377   2.481   2.764  0.4757 -0.2423 -0.3027
 8045SOL    HW125034   5.379   2.466   2.862 -0.7361  2.5700  0.2396
 8045SOL    HW225035   5.464   2.522   2.735  0.3835  0.0273 -0.1975
 8046SOL     OW25036   1.523   5.351   4.948 -0.6532 -0.3609  0.2145
 8046SOL    HW125037   1.499   5.266   4.993  0.8177  0.0374  1.8600
 8046SOL    HW225038   1.491   5.429   5.003  0.8580  0.1332  0.4466
 8047SOL     OW25039   3.764   0.312   5.605 -0.8581  0.3402  0.0613
 8047SOL    HW125040   3.690   0.340   5.667 -0.4101  1.6754  0.0125
 8047SOL    HW225041   3.796   0.391   5.553 -0.5797 -0.5816 -1.2105
 8048SOL     OW25042   6.460   1.842   5.607  0.2474  0.1601 -0.2588
 8048SOL    HW125043   6.431   1.936   5.592  1.7195  0.7269  0.3033
 8048SOL    HW225044   6.508   1.809   5.526  1.9372  0.7831  0.4473
 8049SOL     OW25045   0.290   5.189   0.883 -0.5726  0.2125 -0.0130
 8049SOL    HW125046   0.365   5.169   0.946  0.0782  0.6327 -0.6393
 8049SOL    HW225047   0.327   5.211   0.793 -1.4162  1.0721 -0.1623
 8050SOL     OW25048   6.880   2.803   1.017 -0.5235 -0.2142 -0.1152
 8050SOL    HW125049   6.938   2.868   0.968 -0.7477 -0.7331 -1.0942
 8050SOL    HW225050   6.798   2.850   1.050  0.4194  0.5230  1.2762
 8051SOL     OW25051   1.342   3.307   2.710  0.3719 -0.1960 -0.1654
 8051SOL    HW125052   1.309   3.229   2.763  0.9753 -1.8080 -2.0255
 8051SOL    HW225053   1.438   3.292   2.686  0.2963  0.7774 -1.1621
 8052SOL     OW25054   2.485   0.792   2.881 -0.1070 -0.4481 -0.2486
 8052SOL    HW125055   2.537   0.864   2.927  1.3833 -2.6521  1.7653
 8052SOL    HW225056   2.509   0.790   2.784 -0.5176  1.9706 -0.4582
 8053SOL     OW25057   3.842   3.271   1.838 -0.1235 -0.1619  0.5009
 8053SOL    HW125058   3.884   3.231   1.920  1.2127 -0.9043 -0.5061
 8053SOL    HW225059   3.761   3.219   1.813  0.1117 -0.6382  0.7083
 8054SOL     OW25060   5.304   6.954   3.663  0.6088 -0.2187 -0.4886
 8054SOL    HW125061   5.326   6.863   3.628  1.1792  0.4210 -1.8498
 8054SOL    HW225062   5.290   7.017   3.587 -0.9370  0.5942  0.4089
 8055SOL     OW25063   6.811   2.647   5.473 -0.0444 -0.2541 -0.1530
 8055SOL    HW125064   6.818   2.697   5.387  2.6468  2.4560  1.4732
 8055SOL    HW225065   6.721   2.664   5.514  0.5141  2.9160  0.0156
 8056SOL     OW25066   3.869   1.724   3.722  0.1918 -0.7210  0.1932
 8056SOL    HW125067   3.893   1.629   3.699 -2.8268 -1.8596  1.1469
 8056SOL    HW225068   3.770   1.735   3.714 -0.3113  0.8148  5.0447
 8057SOL     OW25069   5.649   1.573   3.304  0.7378  0.4835 -0.7537
 8057SOL    HW125070   5.719   1.519   3.259  0.6756  0.5017 -0.8715
 8057SOL    HW225071   5.572   1.513   3.330  0.4786  0.5903 -1.2684
 8058SOL     OW25072   3.884   1.227   3.229 -0.5121  0.2505 -0.0510
 8058SOL    HW125073   3.893   1.266   3.321 -0.2379 -1.1794  0.5493
 8058SOL    HW225074   3.882   1.128   3.235 -0.3905  0.1323 -1.6121
 8059SOL     OW25075   2.005   1.168   3.101 -0.0936 -0.6635  0.6028
 8059SOL    HW125076   2.090   1.176   3.049 -1.3191  0.3593 -1.3524
 8059SOL    HW225077   1.991   1.072   3.127  1.5106 -0.8832  0.7309
 8060SOL     OW25078   0.970   3.218   4.505 -0.4696  0.2936 -0.1983
 8060SOL    HW125079   0.928   3.241   4.593  0.9970  0.5979  0.4513
 8060SOL    HW225080   1.056   3.170   4.521  0.1323  0.9066 -1.4511
 8061SOL     OW25081   0.281   6.554   3.756 -0.5089  0.6273 -0.3568
 8061SOL    HW125082   0.268   6.483   3.687  0.0076 -1.6909  1.7892
 8061SOL    HW225083   0.193   6.574   3.800 -0.3699  0.0100  0.2165
 8062SOL     OW25084   6.663   4.316   0.526 -0.1176 -0.0745 -0.8792
 8062SOL    HW125085   6.645   4.411   0.552  0.9263  0.2812 -1.4085
 8062SOL    HW225086   6.718   4.313   0.443 -1.4694 -1.1741 -1.7823
 8063SOL     OW25087   1.458   2.191   5.696  0.0436 -0.1689 -0.1358
 8063SOL    HW125088   1.546   2.229   5.724 -0.1012  0.5844 -0.6589
 8063SOL    HW225089   1.471   2.097   5.666 -0.0814 -1.6966  4.0472
 8064SOL     OW25090   6.157   2.436   0.820  0.0983 -0.2934  0.1053
 8064SOL    HW125091   6.217   2.476   0.890 -0.3196 -0.8302  0.7861
 8064SOL    HW225092   6.211   2.413   0.739  1.0774 -1.7906  1.1099
 8065SOL     OW25093   5.867   1.293   6.588 -0.1536 -0.0492 -0.2652
 8065SOL    HW125094   5.883   1.392   6.582 -1.1447  0.0921 -0.8706
 8065SOL    HW225095   5.830   1.260   6.501  1.4949 -1.2290 -0.5652
 8066SOL     OW25096   1.085   6.801   2.440 -0.9104  0.3806 -0.3670
 8066SOL    HW125097   1.052   6.892   2.465 -0.3212  0.6201 -0.4606
 8066SOL    HW225098   1.100   6.797   2.342  2.8081  1.4622  0.0170
 8067SOL     OW25099   4.805   1.905   2.026 -0.1943  0.6406 -0.4058
 8067SOL    HW125100   4.877   1.872   1.966 -1.2176  0.7053 -1.7244
 8067SOL    HW225101   4.794   1.842   2.103  0.3533 -0.0897 -0.9091
 8068SOL     OW25102   6.137   5.462   5.749 -0.0858 -0.1938 -0.1365
 8068SOL    HW125103   6.112   5.368   5.724  0.5503 -0.8402  1.5027
 8068SOL    HW225104   6.236   5.474   5.739 -0.0980  0.1355  0.1114
 8069SOL     OW25105   0.989   5.768   2.520 -0.3375  0.1191  0.0611
 8069SOL    HW125106   1.026   5.761   2.427 -0.0906 -0.5707  0.2034
 8069SOL    HW225107   0.976   5.864   2.544 -0.4729  0.3000 -0.7138
 8070SOL     OW25108   3.717   1.169   1.520  0.2285  0.3586  0.2345
 8070SOL    HW125109   3.639   1.107   1.522  0.8253 -0.4430 -0.4444
 8070SOL    HW225110   3.728   1.212   1.609 -1.3428  0.9458  0.1780
 8071SOL     OW25111   4.108   6.118   5.970 -0.0043 -0.0983  0.0841
 8071SOL    HW125112   4.145   6.070   6.050  1.1148  1.2414  0.4058
 8071SOL    HW225113   4.014   6.146   5.989 -0.9312 -2.6458 -0.3515
 8072SOL     OW25114   4.917   7.022   4.050  0.1039  0.3238  0.2759
 8072SOL    HW125115   4.991   6.958   4.071  2.2817  1.9049 -2.0327
 8072SOL    HW225116   4.880   7.059   4.136  1.5954 -0.9038  1.5230
 8073SOL     OW25117   2.386   6.805   0.323 -0.2858  0.2208  0.5905
 8073SOL    HW125118   2.389   6.855   0.409 -0.7075  2.0079 -0.3850
 8073SOL    HW225119   2.479   6.797   0.286 -0.2393  0.4389  0.6605
 8074SOL     OW25120   2.632   3.107   6.646  0.0344  0.1326 -0.3943
 8074SOL    HW125121   2.716   3.141   6.604  0.7048 -0.8251  0.1181
 8074SOL    HW225122   2.632   3.130   6.743 -1.1868  1.7445 -0.7371
 8075SOL     OW25123   5.921   2.603   1.470 -0.0439  0.0600  0.2424
 8075SOL    HW125124   5.940   2.513   1.431  0.1257 -0.5980  1.7540
 8075SOL    HW225125   5.830   2.634   1.441  0.2455 -0.1885 -0.9817
 8076SOL     OW25126   3.585   2.019   0.643  0.4665 -0.1659 -0.2260
 8076SOL    HW125127   3.569   1.935   0.695  2.2555 -0.5174 -0.1602
 8076SOL    HW225128   3.620   1.995   0.552  1.7516  0.4849  0.0693
 8077SOL     OW25129   1.188   2.150   5.808 -0.4100  0.0359 -0.2633
 8077SOL    HW125130   1.280   2.126   5.778 -0.4610 -0.1225 -0.2944
 8077SOL    HW225131   1.129   2.070   5.803 -0.8200  0.3842 -1.2741
 8078SOL     OW25132   4.137   4.022   5.797  0.4516  0.0417  0.1796
 8078SOL    HW125133   4.227   3.996   5.830 -0.1668 -1.8778  0.4866
 8078SOL    HW225134   4.078   4.045   5.874  0.5285  0.8039  0.0156
 8079SOL     OW25135   1.386   1.305   2.127  0.4588 -0.0903 -0.1253
 8079SOL    HW125136   1.416   1.371   2.058  2.5251  0.4254  1.1842
 8079SOL    HW225137   1.338   1.353   2.201 -0.0363 -0.3820 -0.2504
 8080SOL     OW25138   5.131   4.361   6.869 -0.2207 -0.2430 -0.2589
 8080SOL    HW125139   5.132   4.289   6.800  0.7936 -1.0290  0.5602
 8080SOL    HW225140   5.036   4.383   6.891 -0.5487 -1.2464 -0.5982
 8081SOL     OW25141   6.290   2.391   3.108  0.3579  0.1365 -0.3796
 8081SOL    HW125142   6.232   2.464   3.073  2.5822  1.5367 -1.3979
 8081SOL    HW225143   6.355   2.364   3.037  1.5141 -0.7423  0.9646
 8082SOL     OW25144   6.803   5.771   4.730  0.0675 -0.9184 -0.4730
 8082SOL    HW125145   6.862   5.698   4.765 -0.5392 -1.0692  0.2500
 8082SOL    HW225146   6.717   5.772   4.780 -0.2556 -0.2166 -1.0189
 8083SOL     OW25147   0.704   1.695   4.639  0.6412 -0.4137  0.5122
 8083SOL    HW125148   0.783   1.639   4.663 -0.3371 -1.7548  0.6817
 8083SOL    HW225149   0.644   1.644   4.578 -1.5930 -0.5920  2.7089
 8084SOL     OW25150   6.076   0.122   0.714 -0.3265  0.0491 -0.2111
 8084SOL    HW125151   6.064   0.215   0.749  3.6780  0.5246  0.2895
 8084SOL    HW225152   5.988   0.088   0.680 -2.1599  3.5610  0.5623
 8085SOL     OW25153   6.873   1.529   1.594 -0.4554 -0.3623 -0.1712
 8085SOL    HW125154   6.937   1.596   1.631 -0.1815 -0.9665  0.4580
 8085SOL    HW225155   6.899   1.506   1.500 -0.3370  0.1346 -0.2615
 8086SOL     OW25156   0.367   4.079   0.267  0.7903  0.3193  0.8140
 8086SOL    HW125157   0.437   4.014   0.236 -0.3226 -0.7882  0.5333
 8086SOL    HW225158   0.315   4.113   0.188 -0.2658 -0.4059  1.1716
 8087SOL     OW25159   2.469   6.221   1.388  0.7405  0.1525 -0.2633
 8087SOL    HW125160   2.550   6.279   1.398  0.9080 -0.4023  2.4508
 8087SOL    HW225161   2.474   6.145   1.453 -0.9632 -1.1431 -1.5416
 8088SOL     OW25162   3.928   1.705   2.538  0.2912 -0.7010  0.1480
 8088SOL    HW125163   3.847   1.752   2.503  0.2428 -0.7224  0.2328
 8088SOL    HW225164   3.971   1.760   2.610  2.3314  1.0287 -2.1870
 8089SOL     OW25165   0.563   3.728   1.361  0.6072 -0.3284  0.3994
 8089SOL    HW125166   0.581   3.721   1.263  0.4356  0.4838  0.3010
 8089SOL    HW225167   0.586   3.642   1.405  1.8336 -0.3295 -0.1769
 8090SOL     OW25168   5.062   0.054   4.329  0.4508 -0.5675  0.1517
 8090SOL    HW125169   4.975   0.035   4.375 -0.1586 -0.7679 -1.0439
 8090SOL    HW225170   5.108   0.131   4.374 -0.6777  0.0028  0.3572
 8091SOL     OW25171   2.174   3.278   5.589 -0.1138  0.1235 -0.3649
 8091SOL    HW125172   2.174   3.304   5.685  1.3761 -1.7451  0.1953
 8091SOL    HW225173   2.260   3.234   5.566  0.2322  1.9651 -3.0156
 8092SOL     OW25174   0.118   1.272   4.826  0.0435 -0.5273  0.3164
 8092SOL    HW125175   0.207   1.237   4.853  1.9299  1.2925 -2.8736
 8092SOL    HW225176   0.121   1.372   4.822 -1.4521 -0.4968 -1.6970
 8093SOL     OW25177   4.573   5.018   0.107  0.1899 -0.2218  0.5654
 8093SOL    HW125178   4.618   4.947   0.054 -0.7592 -1.0257  0.8163
 8093SOL    HW225179   4.523   5.079   0.046 -0.7481 -1.0363  0.4952
 8094SOL     OW25180   6.884   3.183   3.153 -0.5837 -0.5867 -0.4371
 8094SOL    HW125181   6.807   3.118   3.157 -1.4155  0.4268  1.2161
 8094SOL    HW225182   6.850   3.272   3.123  0.0676 -0.2827 -0.2711
 8095SOL     OW25183   6.276   2.262   3.621  0.6535 -0.2175 -1.0034
 8095SOL    HW125184   6.257   2.355   3.653 -1.0621 -0.3622 -1.4973
 8095SOL    HW225185   6.322   2.265   3.533  3.2537  0.1555  0.2867
 8096SOL     OW25186   2.315   0.112   1.336  0.1327  0.5917 -0.4110
 8096SOL    HW125187   2.255   0.066   1.270 -1.3269  2.7725 -0.6893
 8096SOL    HW225188   2.336   0.204   1.303  1.5278  0.7905  0.9484
 8097SOL     OW25189   5.260   2.285   5.193  0.2288 -0.3311 -0.0376
 8097SOL    HW125190   5.168   2.269   5.226 -0.4974  0.6661 -1.4367
 8097SOL    HW225191   5.312   2.338   5.260  0.0671 -1.5875  1.1031
 8098SOL     OW25192   3.231   0.427   4.280 -0.1943 -0.1101 -0.5188
 8098SOL    HW125193   3.214   0.346   4.336  0.9194  0.6878  1.0536
 8098SOL    HW225194   3.148   0.451   4.231 -1.0992 -1.0987  0.4629
 8099SOL     OW25195   5.753   5.427   5.388 -0.0932  0.2113  0.0071
 8099SOL    HW125196   5.846   5.393   5.371  0.0987  0.6377  0.1864
 8099SOL    HW225197   5.722   5.479   5.309 -0.2181 -0.0124 -0.0921
 8100SOL     OW25198   1.065   4.366   1.244  0.3926  0.2570 -0.8775
 8100SOL    HW125199   1.157   4.402   1.258 -0.1514  1.4228 -0.1170
 8100SOL    HW225200   1.067   4.266   1.248  1.6626  0.2559 -1.1765
 8101SOL     OW25201   0.877   4.613   2.075 -0.1973 -0.2203 -0.3700
 8101SOL    HW125202   0.786   4.626   2.034 -1.2586  0.3112  1.9783
 8101SOL    HW225203   0.894   4.516   2.089 -0.0457 -0.3729 -1.5036
 8102SOL     OW25204   6.160   6.662   6.304 -0.2140 -0.0546  0.1088
 8102SOL    HW125205   6.200   6.629   6.219  1.6267  0.0025  0.8941
 8102SOL    HW225206   6.227   6.653   6.378 -1.0040  1.8457  1.1329
 8103SOL     OW25207   2.487   3.162   1.740 -0.0582  0.5159  0.5867
 8103SOL    HW125208   2.458   3.252   1.707 -2.1792 -0.4932 -0.4734
 8103SOL    HW225209   2.407   3.104   1.752  1.3544 -1.6681 -0.0665
 8104SOL     OW25210   3.679   6.010   7.016 -0.1974 -0.8221  1.0561
 8104SOL    HW125211   3.596   6.027   6.963  1.0560  1.8837 -0.2361
 8104SOL    HW225212   3.733   5.938   6.971  0.2483  0.5706 -0.7562
 8105SOL     OW25213   2.116   2.117   1.519 -0.0361  0.0358  0.3030
 8105SOL    HW125214   2.149   2.063   1.441  1.0489 -0.2328  0.9283
 8105SOL    HW225215   2.018   2.134   1.509 -0.1745 -1.1147 -0.4531
 8106SOL     OW25216   0.890   4.199   5.331 -0.0686 -0.3544  0.3651
 8106SOL    HW125217   0.972   4.213   5.386  0.8964 -1.2979 -0.7656
 8106SOL    HW225218   0.878   4.101   5.315 -2.9563 -0.5333  2.7316
 8107SOL     OW25219   0.853   1.135   5.323 -0.4589 -0.1738 -0.5727
 8107SOL    HW125220   0.820   1.108   5.232  0.5955 -0.0114 -1.0198
 8107SOL    HW225221   0.856   1.235   5.328 -1.5335 -0.1661  0.0273
 8108SOL     OW25222   2.613   4.667   4.949 -0.4694  0.0943 -0.2668
 8108SOL    HW125223   2.564   4.606   5.011  0.2911 -0.4535 -0.1789
 8108SOL    HW225224   2.709   4.673   4.978  0.1457 -0.9466 -1.9214
 8109SOL     OW25225   2.262   5.013   3.992  0.2466 -0.1354  0.8271
 8109SOL    HW125226   2.169   5.005   4.026  0.5918 -1.3480  1.5401
 8109SOL    HW225227   2.284   4.936   3.932  0.7341  0.2300  0.5220
 8110SOL     OW25228   0.476   5.473   1.527  0.3679 -0.3303  0.3129
 8110SOL    HW125229   0.513   5.545   1.587  1.8112 -2.2353  1.8551
 8110SOL    HW225230   0.390   5.440   1.564  0.5483 -0.5284  0.5621
 8111SOL     OW25231   4.637   6.081   3.492  0.2103 -0.4880  1.0747
 8111SOL    HW125232   4.717   6.135   3.517  0.9067 -1.9424  2.0744
 8111SOL    HW225233   4.660   5.984   3.491 -1.3370 -0.8871  0.5786
 8112SOL     OW25234   5.343   2.161   3.699  0.0307 -0.1797 -0.3140
 8112SOL    HW125235   5.307   2.119   3.782  0.1106 -0.4444 -0.4130
 8112SOL    HW225236   5.421   2.109   3.666 -2.1304 -2.2286 -2.5529
 8113SOL     OW25237   3.120   3.296   5.848 -0.0037 -0.3377  0.4416
 8113SOL    HW125238   3.138   3.263   5.756 -1.2777 -1.2609  0.4920
 8113SOL    HW225239   3.053   3.371   5.845 -1.2676 -1.4224  0.6974
 8114SOL     OW25240   2.527   4.210   1.548  0.1371  0.0496  0.6574
 8114SOL    HW125241   2.613   4.209   1.599 -0.7891  2.0553  2.4359
 8114SOL    HW225242   2.485   4.120   1.550  1.3005 -0.4920  1.3540
 8115SOL     OW25243   2.296   2.424   0.373 -0.0494  0.0409  0.4648
 8115SOL    HW125244   2.198   2.443   0.367  0.0254  0.3124  0.1206
 8115SOL    HW225245   2.348   2.503   0.342  0.2969  0.1616  1.3152
 8116SOL     OW25246   6.266   6.528   4.044 -0.1878  0.6343 -0.5546
 8116SOL    HW125247   6.314   6.464   3.984 -0.0751 -0.8335  1.0398
 8116SOL    HW225248   6.198   6.479   4.098 -1.7801  2.2733 -0.9553
 8117SOL     OW25249   3.252   0.976   3.563 -0.5740  0.7258 -0.0368
 8117SOL    HW125250   3.185   1.025   3.507  0.6164  0.0184 -2.2041
 8117SOL    HW225251   3.254   0.880   3.536  0.7323  0.5657  0.5461
 8118SOL     OW25252   2.678   0.718   1.647 -0.0466 -0.0586  0.4042
 8118SOL    HW125253   2.616   0.639   1.643 -0.2345  0.1285 -0.4322
 8118SOL    HW225254   2.627   0.802   1.629  0.1808  0.2487  1.1592
 8119SOL     OW25255   0.724   6.652   3.258 -0.0934 -0.1682 -0.3447
 8119SOL    HW125256   0.756   6.718   3.189 -1.4699 -0.9999 -1.8314
 8119SOL    HW225257   0.802   6.624   3.314  1.0250  0.7713 -1.3407
 8120SOL     OW25258   4.419   5.943   1.909  0.0904 -0.1638 -0.1179
 8120SOL    HW125259   4.508   5.981   1.934  0.1436  0.6904 -1.5196
 8120SOL    HW225260   4.347   6.009   1.930 -0.2204 -0.7711  0.8183
 8121SOL     OW25261   0.257   6.143   4.262  0.0269 -0.2608 -0.1730
 8121SOL    HW125262   0.216   6.146   4.353 -3.9972 -0.7391 -1.7187
 8121SOL    HW225263   0.231   6.226   4.212  2.9630  0.4502 -0.6952
 8122SOL     OW25264   6.256   5.537   1.769  0.0181  0.3761 -0.2996
 8122SOL    HW125265   6.227   5.581   1.854  0.6367  1.1783 -0.4917
 8122SOL    HW225266   6.261   5.438   1.782  3.3413  0.6794  1.6323
 8123SOL     OW25267   3.277   5.376   0.683 -1.2453  0.7492 -0.5659
 8123SOL    HW125268   3.304   5.469   0.710 -2.4681  0.3805  2.1557
 8123SOL    HW225269   3.190   5.352   0.725 -0.2715 -2.1610  0.0285
 8124SOL     OW25270   1.489   5.295   1.987 -0.2743  0.3773 -0.2150
 8124SOL    HW125271   1.443   5.349   1.917 -0.1099  0.3518 -0.3416
 8124SOL    HW225272   1.429   5.221   2.018 -0.1870  0.1391 -0.6201
 8125SOL     OW25273   6.044   3.685   2.565  0.1628  0.1334  0.0622
 8125SOL    HW125274   6.069   3.594   2.599  1.5846  0.8032  0.9073
 8125SOL    HW225275   6.048   3.751   2.640  1.1751  1.2487 -0.9341
 8126SOL     OW25276   5.903   5.962   2.216 -0.6655  0.1818 -0.0380
 8126SOL    HW125277   5.912   5.922   2.125  0.0998  0.5364 -0.1276
 8126SOL    HW225278   5.979   6.025   2.232 -1.2652  0.7774  0.5156
 8127SOL     OW25279   3.366   5.124   1.601  0.0363  0.3721 -0.2680
 8127SOL    HW125280   3.269   5.113   1.622  0.1408  1.5185  0.9917
 8127SOL    HW225281   3.405   5.036   1.574 -1.3500 -0.0952 -0.8475
 8128SOL     OW25282   2.856   2.283   4.307 -0.0478  0.0242  0.2413
 8128SOL    HW125283   2.937   2.306   4.362 -0.3390 -0.2160  0.7823
 8128SOL    HW225284   2.883   2.225   4.230  0.4123  0.6162 -0.0516
 8129SOL     OW25285   5.262   5.592   6.504 -0.1735 -0.1152 -0.0460
 8129SOL    HW125286   5.260   5.666   6.437  0.9971  0.0540  0.0833
 8129SOL    HW225287   5.277   5.505   6.458 -1.4939 -0.2921 -0.1922
 8130SOL     OW25288   0.482   0.449   6.473  0.4816 -0.3643 -0.3257
 8130SOL    HW125289   0.532   0.405   6.398 -1.7288 -0.0190 -2.1250
 8130SOL    HW225290   0.500   0.548   6.472  1.3583 -0.4961  0.4017
 8131SOL     OW25291   2.875   6.660   0.751 -0.1269  0.1717 -0.2428
 8131SOL    HW125292   2.792   6.715   0.747 -0.6613 -0.5291  0.7719
 8131SOL    HW225293   2.922   6.664   0.663 -0.9965  0.9443 -0.6853
 8132SOL     OW25294   4.386   4.947   2.377 -0.0006 -0.8707  0.3041
 8132SOL    HW125295   4.354   4.883   2.447  0.5460 -1.2712  0.1926
 8132SOL    HW225296   4.384   4.903   2.288 -0.9005 -0.2903  0.0231
 8133SOL     OW25297   0.846   6.258   2.052  0.1014  0.2798  0.1996
 8133SOL    HW125298   0.930   6.208   2.071 -0.2211 -0.0905  0.6844
 8133SOL    HW225299   0.791   6.206   1.987  0.2170  0.4892 -0.0661
 8134SOL     OW25300   2.391   2.570   2.061  0.0106 -0.0322  0.2775
 8134SOL    HW125301   2.473   2.520   2.034 -0.5415 -0.9851  0.3201
 8134SOL    HW225302   2.380   2.650   2.002  0.6306 -0.2370 -0.1275
 8135SOL     OW25303   4.525   0.262   2.251  0.5491 -0.3074 -0.3751
 8135SOL    HW125304   4.574   0.175   2.240  2.4887  0.7290 -0.3726
 8135SOL    HW225305   4.570   0.316   2.322 -0.6774  0.6880 -0.3350
 8136SOL     OW25306   0.061   6.831   1.377  0.0887  0.7781 -0.1815
 8136SOL    HW125307   0.075   6.734   1.401 -1.6856  0.7007  0.6790
 8136SOL    HW225308   0.016   6.837   1.288  1.3975  0.8933 -0.8689
 8137SOL     OW25309   3.385   3.515   5.605 -0.2315  0.2999  0.7186
 8137SOL    HW125310   3.406   3.452   5.680 -2.4302 -1.1501  0.2316
 8137SOL    HW225311   3.446   3.498   5.528  0.1619 -0.2141  1.1413
 8138SOL     OW25312   6.149   0.651   4.291 -0.0781  0.4940  1.0098
 8138SOL    HW125313   6.180   0.735   4.336 -1.5438  0.9183  1.2536
 8138SOL    HW225314   6.085   0.603   4.350  0.2234 -0.4512  0.5821
 8139SOL     OW25315   0.999   2.782   6.143  0.2995 -0.0544  0.1623
 8139SOL    HW125316   0.939   2.714   6.185 -1.1987  0.3142 -1.2431
 8139SOL    HW225317   1.093   2.749   6.144 -0.5088 -2.7614 -1.5055
 8140SOL     OW25318   6.220   6.624   0.587 -0.0371  0.4225 -0.0214
 8140SOL    HW125319   6.308   6.629   0.634  0.5535 -0.1994 -0.9999
 8140SOL    HW225320   6.228   6.670   0.498 -1.0239  1.2950  0.3379
 8141SOL     OW25321   5.891   0.628   5.536  0.4347 -0.0502 -0.0496
 8141SOL    HW125322   5.851   0.719   5.546  3.4495  1.4289 -0.0803
 8141SOL    HW225323   5.883   0.578   5.622 -0.2783  0.6849  0.3208
 8142SOL     OW25324   3.211   4.264   1.042 -0.4100  0.2975 -0.5180
 8142SOL    HW125325   3.274   4.265   0.964 -0.2245 -0.0179 -0.3756
 8142SOL    HW225326   3.263   4.254   1.127 -0.6476  0.1145 -0.3930
 8143SOL     OW25327   5.846   3.661   6.497 -0.3355 -0.4988 -0.1111
 8143SOL    HW125328   5.785   3.603   6.443 -0.4678 -1.2922  0.8513
 8143SOL    HW225329   5.928   3.610   6.521 -0.7705 -0.5637  1.3544
 8144SOL     OW25330   2.816   6.896   0.025 -0.4906  0.6819 -0.0703
 8144SOL    HW125331   2.874   6.977   0.035  0.2086  0.5281 -2.2610
 8144SOL    HW225332   2.857   6.835  -0.043 -1.8763 -0.7257  0.3170
 8145SOL     OW25333   5.056   5.286   6.733  0.0445  0.0720  0.4116
 8145SOL    HW125334   5.094   5.201   6.768 -0.4872  0.6925  2.6372
 8145SOL    HW225335   5.089   5.363   6.787  0.9445  1.4053 -1.8972
 8146SOL     OW25336   0.789   6.365   6.237  0.7286 -0.2705 -0.1725
 8146SOL    HW125337   0.840   6.398   6.158  2.0007 -0.0774  0.7075
 8146SOL    HW225338   0.692   6.390   6.226  1.0419  0.6028 -1.2020
 8147SOL     OW25339   3.332   1.001   6.023 -0.7151 -0.3756 -0.1652
 8147SOL    HW125340   3.274   0.935   6.070 -0.1390 -0.0905  0.9930
 8147SOL    HW225341   3.275   1.065   5.972 -1.3078 -1.3465 -0.7646
 8148SOL     OW25342   3.026   4.101   0.962 -0.1791  0.1077 -0.0554
 8148SOL    HW125343   2.953   4.159   0.997  0.1376 -0.0032  0.8186
 8148SOL    HW225344   3.114   4.138   0.990  0.0661 -0.2669 -0.3181
 8149SOL     OW25345   1.285   0.381   4.392  0.5141 -0.0536  0.2045
 8149SOL    HW125346   1.373   0.423   4.417 -0.1607  1.8808 -0.4902
 8149SOL    HW225347   1.236   0.441   4.329 -2.3741  0.0788  2.3856
 8150SOL     OW25348   1.669   3.722   6.598 -0.0377 -0.1551 -0.9465
 8150SOL    HW125349   1.574   3.693   6.590  0.4099 -1.3169 -2.6391
 8150SOL    HW225350   1.729   3.641   6.597  0.9793  0.5619 -0.0689
 8151SOL     OW25351   5.962   4.957   2.769 -0.4561 -0.1953  0.1634
 8151SOL    HW125352   5.875   4.910   2.788  0.5103 -1.8511  0.6693
 8151SOL    HW225353   5.984   4.948   2.672 -0.3599 -0.6527  0.2262
 8152SOL     OW25354   4.197   2.284   3.660 -0.0339 -0.0619 -0.0972
 8152SOL    HW125355   4.114   2.338   3.659 -0.8058 -1.2021 -0.0627
 8152SOL    HW225356   4.212   2.244   3.569 -1.4982 -2.6840  0.6906
 8153SOL     OW25357   1.410   3.253   1.116 -0.6690 -0.1166 -0.3903
 8153SOL    HW125358   1.421   3.206   1.028  1.0109 -0.1990 -0.1603
 8153SOL    HW225359   1.499   3.282   1.150 -1.4314  1.1064  0.6591
 8154SOL     OW25360   0.817   0.752   3.660 -0.3448  0.1882  0.4955
 8154SOL    HW125361   0.794   0.834   3.712 -1.4004 -0.5398  1.1972
 8154SOL    HW225362   0.804   0.771   3.562  0.1327  1.0712  0.5849
 8155SOL     OW25363   2.777   3.907   5.519 -0.0446  0.2909  0.2205
 8155SOL    HW125364   2.847   3.848   5.478 -0.0560  0.1223  0.4383
 8155SOL    HW225365   2.696   3.907   5.461  1.1079  2.7366 -1.5488
 8156SOL     OW25366   0.745   2.124   0.229  0.6373 -0.1405  0.3052
 8156SOL    HW125367   0.743   2.202   0.293 -0.3868  0.2843 -0.2175
 8156SOL    HW225368   0.830   2.072   0.242  0.8336  0.4306  1.4155
 8157SOL     OW25369   5.311   6.167   4.292  0.1490 -0.0398 -0.9517
 8157SOL    HW125370   5.310   6.134   4.197  1.7631 -0.8741 -0.7270
 8157SOL    HW225371   5.367   6.105   4.348  1.4092  1.8387 -0.0203
 8158SOL     OW25372   6.439   4.975   6.479  0.3101 -0.1329  0.3660
 8158SOL    HW125373   6.350   4.946   6.444 -0.3816  0.9750  1.1233
 8158SOL    HW225374   6.507   4.904   6.462 -0.9527 -1.4766  0.7171
 8159SOL     OW25375   2.729   5.203   6.464  0.1368 -0.4946  0.3099
 8159SOL    HW125376   2.725   5.288   6.412  0.1563 -0.5556  0.2067
 8159SOL    HW225377   2.700   5.219   6.558 -1.8498 -0.7454 -0.1978
 8160SOL     OW25378   6.336   3.710   2.139 -0.1277  0.0848 -0.3726
 8160SOL    HW125379   6.334   3.802   2.099  2.3525  1.7132  2.8355
 8160SOL    HW225380   6.353   3.716   2.237 -1.7002 -3.8220  0.3181
 8161SOL     OW25381   0.713   1.312   1.628  0.0664 -0.1303 -0.5289
 8161SOL    HW125382   0.775   1.316   1.707 -1.3669  0.4531  0.6231
 8161SOL    HW225383   0.703   1.217   1.598 -0.2797 -0.5386  0.7967
 8162SOL     OW25384   1.452   3.693   4.925 -0.4877 -0.7258  0.1908
 8162SOL    HW125385   1.484   3.717   4.834  0.2029  0.0205  0.6074
 8162SOL    HW225386   1.376   3.630   4.919  0.1947 -1.4709 -0.8726
 8163SOL     OW25387   5.162   4.682   5.215 -0.0509 -0.2947  0.5160
 8163SOL    HW125388   5.091   4.745   5.184 -0.1857 -0.8528 -0.3481
 8163SOL    HW225389   5.171   4.688   5.314 -1.8980 -0.8140  0.7496
 8164SOL     OW25390   5.419   1.219   2.136 -0.0656  0.1691 -0.3095
 8164SOL    HW125391   5.378   1.204   2.046 -1.5537 -1.0171  0.5098
 8164SOL    HW225392   5.349   1.249   2.200  0.1753 -2.3094  1.2477
 8165SOL     OW25393   6.432   3.227   4.381 -0.4698  0.5204  0.3668
 8165SOL    HW125394   6.473   3.266   4.299  1.9329 -2.1521  0.1461
 8165SOL    HW225395   6.475   3.267   4.462  1.6906 -1.1156  0.1447
 8166SOL     OW25396   1.466   0.970   2.508 -0.5579 -0.0242 -0.6004
 8166SOL    HW125397   1.526   0.919   2.446  0.1215 -2.5131  1.8862
 8166SOL    HW225398   1.517   1.043   2.552  0.7949 -2.0106  1.3690
 8167SOL     OW25399   1.640   2.807   1.186  0.4177 -0.0435 -0.2654
 8167SOL    HW125400   1.582   2.738   1.143  1.9151 -1.1798 -0.5147
 8167SOL    HW225401   1.702   2.764   1.251  1.9561  0.9394 -1.0223
 8168SOL     OW25402   3.156   5.648   1.502  0.2932  0.7474  1.1415
 8168SOL    HW125403   3.127   5.583   1.432  1.3516  0.1658  1.2267
 8168SOL    HW225404   3.208   5.722   1.460  1.3828  0.1218  1.3519
 8169SOL     OW25405   4.805   4.794   0.022  0.3773 -0.0383 -0.2301
 8169SOL    HW125406   4.734   4.746  -0.029 -0.3611  0.0298  0.7062
 8169SOL    HW225407   4.846   4.864  -0.036 -0.7716  0.3654 -0.5925
 8170SOL     OW25408   0.596   3.820   4.977 -0.1914  0.1968  0.2549
 8170SOL    HW125409   0.501   3.790   4.962 -1.0757  2.5567  0.5632
 8170SOL    HW225410   0.640   3.836   4.888 -1.1698  2.0521  0.0582
 8171SOL     OW25411   2.167   1.647   3.665  0.2660 -0.2260 -0.1307
 8171SOL    HW125412   2.078   1.655   3.709  0.6468 -1.4009  0.9237
 8171SOL    HW225413   2.165   1.572   3.599  1.1094 -1.9608  1.7046
 8172SOL     OW25414   0.180   2.936   6.920 -0.2219 -0.3400 -0.2403
 8172SOL    HW125415   0.143   3.005   6.982 -0.0788 -0.2684 -0.2349
 8172SOL    HW225416   0.174   2.968   6.826 -0.8712 -0.6411 -0.3095
 8173SOL     OW25417   6.561   0.378   0.916  0.1100  0.3641 -0.2779
 8173SOL    HW125418   6.606   0.455   0.959 -0.3495  0.0550  0.7828
 8173SOL    HW225419   6.473   0.361   0.961  1.0310 -1.9737  0.8264
 8174SOL     OW25420   2.514   5.488   5.333  0.0610 -0.4415  0.3798
 8174SOL    HW125421   2.492   5.416   5.267 -0.6298 -0.8403  1.0322
 8174SOL    HW225422   2.528   5.447   5.424 -2.0644  0.3990  1.1436
 8175SOL     OW25423   4.638   2.870   5.219  0.3106 -0.3632  0.3168
 8175SOL    HW125424   4.549   2.903   5.250  1.4186  2.4416  0.8043
 8175SOL    HW225425   4.674   2.805   5.285 -0.5236 -0.0146  1.1325
 8176SOL     OW25426   3.764   6.527   2.810  0.6412 -0.7245 -0.2080
 8176SOL    HW125427   3.697   6.560   2.743 -0.0567 -0.8890  0.3984
 8176SOL    HW225428   3.856   6.555   2.782  0.3286 -0.5420 -1.0809
 8177SOL     OW25429   1.811   1.047   2.817  0.0632 -0.0448 -0.4409
 8177SOL    HW125430   1.758   0.978   2.867 -0.2886 -0.5529 -1.4898
 8177SOL    HW225431   1.901   1.010   2.796  0.1743  0.1324 -0.2809
 8178SOL     OW25432   2.603   6.339   2.042 -0.1044  0.3825 -1.0255
 8178SOL    HW125433   2.654   6.310   1.961  2.6908  1.0613  0.3866
 8178SOL    HW225434   2.645   6.421   2.080 -1.6039  0.3123  0.9277
 8179SOL     OW25435   5.652   1.514   4.272 -0.0805 -0.8227  0.6216
 8179SOL    HW125436   5.703   1.536   4.189  1.1951 -0.2442  1.5181
 8179SOL    HW225437   5.692   1.433   4.315  0.8192  0.2544  1.8967
 8180SOL     OW25438   3.484   0.593   6.809  0.2153  0.3564 -0.2328
 8180SOL    HW125439   3.479   0.665   6.740  0.8346  2.3338  1.6799
 8180SOL    HW225440   3.531   0.514   6.771  0.1512  1.1958 -2.1986
 8181SOL     OW25441   5.910   1.786   5.857  0.7191  0.0618 -0.1023
 8181SOL    HW125442   5.920   1.796   5.758 -1.4812  0.3623 -0.3555
 8181SOL    HW225443   5.870   1.697   5.878  0.6670  0.2170  0.4761
 8182SOL     OW25444   3.188   4.056   3.004 -0.2224 -0.4745  0.1988
 8182SOL    HW125445   3.142   3.986   2.950 -1.1196 -0.7309  1.2654
 8182SOL    HW225446   3.242   4.114   2.943 -0.6540 -1.1662 -0.8820
 8183SOL     OW25447   6.047   6.544   5.868 -0.5158  0.1300 -0.6958
 8183SOL    HW125448   6.068   6.508   5.777 -1.6204 -0.1046 -0.8781
 8183SOL    HW225449   6.011   6.470   5.926  1.1393  0.0466  0.2751
 8184SOL     OW25450   1.572   0.264   4.566 -0.5954 -0.0329 -0.0054
 8184SOL    HW125451   1.663   0.266   4.525 -0.3010 -1.0903  0.5682
 8184SOL    HW225452   1.546   0.357   4.594  0.1651  0.3280 -0.4550
 8185SOL     OW25453   1.005   4.672   5.890  0.2844  0.2352 -0.2778
 8185SOL    HW125454   0.992   4.702   5.985  0.5188  1.3582 -0.5837
 8185SOL    HW225455   0.941   4.720   5.831  1.7319  1.3477 -1.0006
 8186SOL     OW25456   6.896   6.668   0.413  0.3487 -0.2815  0.0899
 8186SOL    HW125457   6.801   6.640   0.398  0.6180 -2.1846  1.5255
 8186SOL    HW225458   6.900   6.768   0.421 -1.5898 -0.1862  0.4338
 8187SOL     OW25459   2.070   0.070   3.746  0.3212  0.0922  0.2225
 8187SOL    HW125460   2.077   0.153   3.802 -0.1189 -0.3607  0.9676
 8187SOL    HW225461   1.977   0.033   3.754  0.5604 -0.5537  0.0151
 8188SOL     OW25462   0.816   2.316   2.496  0.2375  0.3590 -0.1888
 8188SOL    HW125463   0.764   2.243   2.452 -1.5396  1.2872  0.2702
 8188SOL    HW225464   0.881   2.276   2.561 -1.7425 -0.8272  1.1904
 8189SOL     OW25465   5.189   5.305   3.404  0.9301  0.6297 -0.1820
 8189SOL    HW125466   5.273   5.359   3.399  0.5583  1.3146  0.6849
 8189SOL    HW225467   5.207   5.219   3.450  1.3540  0.3505 -0.8550
 8190SOL     OW25468   6.782   4.494   3.541 -0.1125  0.4117  0.1279
 8190SOL    HW125469   6.694   4.447   3.546  0.5492 -0.8450  0.4738
 8190SOL    HW225470   6.777   4.568   3.474 -1.6186  0.8129  0.6452
 8191SOL     OW25471   4.192   4.603   1.879  0.0631 -0.1708 -0.3047
 8191SOL    HW125472   4.155   4.686   1.838  2.4927  0.1306 -2.1057
 8191SOL    HW225473   4.135   4.525   1.855 -0.8152  0.6090 -0.7798
 8192SOL     OW25474   0.090   6.524   2.997 -0.7280 -0.1447 -0.2976
 8192SOL    HW125475   0.060   6.460   3.068 -2.1410  0.2893 -0.4673
 8192SOL    HW225476   0.073   6.618   3.028  0.9369  0.1657 -0.2251
 8193SOL     OW25477   0.109   3.781   3.801 -0.6437 -0.0482  0.2687
 8193SOL    HW125478   0.011   3.765   3.785 -0.3238 -1.0597 -0.8701
 8193SOL    HW225479   0.155   3.694   3.814  0.1402  0.4125  0.6446
 8194SOL     OW25480   5.017   0.142   1.750  0.1319 -0.0235  0.0136
 8194SOL    HW125481   5.063   0.176   1.668 -0.6594  0.0692 -0.3986
 8194SOL    HW225482   5.085   0.103   1.812  0.8197  0.5491 -0.3662
 8195SOL     OW25483   5.906   0.078   5.092 -0.1571 -0.2420 -0.3546
 8195SOL    HW125484   5.908  -0.022   5.088  0.3229 -0.2170 -1.1733
 8195SOL    HW225485   5.862   0.113   5.009 -1.7223  0.2078  0.6232
 8196SOL     OW25486   3.937   1.479   3.623 -0.1821  0.0887  0.0578
 8196SOL    HW125487   3.844   1.466   3.588 -0.0575 -1.0236  0.1030
 8196SOL    HW225488   4.003   1.452   3.552  0.0909 -0.2137  0.4229
 8197SOL     OW25489   5.940   3.396   4.283 -0.2050  0.3227 -0.6279
 8197SOL    HW125490   5.994   3.448   4.349  0.2607 -0.1356 -0.6434
 8197SOL    HW225491   5.852   3.371   4.324 -1.1977  2.5991 -1.1950
 8198SOL     OW25492   1.445   5.831   0.747 -0.0643 -0.1252 -0.0986
 8198SOL    HW125493   1.371   5.778   0.705 -1.2669  2.2009 -1.0703
 8198SOL    HW225494   1.406   5.904   0.803  1.3818  2.5181 -2.3595
 8199SOL     OW25495   4.782   1.321   1.037 -0.1484 -0.0356  0.4776
 8199SOL    HW125496   4.713   1.373   0.987 -0.6639 -0.6556  0.5344
 8199SOL    HW225497   4.801   1.235   0.990  1.2162  0.4893  0.0022
 8200SOL     OW25498   4.620   4.262   0.676 -0.8020  0.0944 -0.4438
 8200SOL    HW125499   4.660   4.171   0.672  0.1213  0.5346 -1.9185
 8200SOL    HW225500   4.650   4.315   0.597 -2.4878  1.2056 -0.3799
 8201SOL     OW25501   5.698   0.962   4.319 -0.0738 -0.1023 -0.1453
 8201SOL    HW125502   5.724   0.918   4.234 -0.7800  0.5046 -0.6938
 8201SOL    HW225503   5.687   0.893   4.391  0.4737 -0.6191 -0.5538
 8202SOL     OW25504   2.108   6.722   2.272 -0.0437 -0.5031  0.2179
 8202SOL    HW125505   2.092   6.751   2.177  0.6359  0.7788  0.4726
 8202SOL    HW225506   2.024   6.684   2.311 -0.8125  0.6123 -0.3238
 8203SOL     OW25507   0.362   4.558   1.830 -0.3296  0.3023 -0.1285
 8203SOL    HW125508   0.323   4.547   1.739 -0.1156  0.9773 -0.3051
 8203SOL    HW225509   0.393   4.469   1.864 -1.9039 -0.2382 -0.0185
 8204SOL     OW25510   0.630   4.469   1.022 -0.0997  0.2554  0.2203
 8204SOL    HW125511   0.557   4.409   1.054 -1.2386  0.8720 -1.0964
 8204SOL    HW225512   0.595   4.528   0.949  1.6293  0.8281 -0.1979
 8205SOL     OW25513   0.794   5.030   0.359 -0.2633 -0.6692 -0.5820
 8205SOL    HW125514   0.717   5.019   0.297 -1.0402 -0.9734  0.4099
 8205SOL    HW225515   0.836   4.941   0.377  0.0724 -0.5578 -0.7990
 8206SOL     OW25516   3.330   5.662   0.472  0.2723  0.0842 -0.0718
 8206SOL    HW125517   3.303   5.672   0.568 -0.5259 -2.0432 -0.0030
 8206SOL    HW225518   3.430   5.657   0.466  0.3445  0.5833  0.6035
 8207SOL     OW25519   3.202   3.660   4.616  0.1330  0.6070 -0.4189
 8207SOL    HW125520   3.245   3.609   4.541 -0.0561  0.8887 -0.7218
 8207SOL    HW225521   3.262   3.735   4.644 -0.2922  1.2092 -1.0701
 8208SOL     OW25522   2.184   0.491   5.324 -0.6565 -0.2210  0.2415
 8208SOL    HW125523   2.117   0.558   5.359 -0.8125 -0.5081  0.5009
 8208SOL    HW225524   2.155   0.399   5.351  0.0562 -0.3155  0.7106
 8209SOL     OW25525   4.601   1.499   3.367  0.1754 -0.4263  0.5241
 8209SOL    HW125526   4.503   1.507   3.347 -0.1602 -0.7252  1.9299
 8209SOL    HW225527   4.624   1.402   3.378  0.2989 -0.2776  1.6686
 8210SOL     OW25528   1.864   1.658   7.013 -0.0606 -0.1268  0.8419
 8210SOL    HW125529   1.906   1.693   6.930 -0.8548 -0.0812  0.4453
 8210SOL    HW225530   1.856   1.559   7.008  0.2984 -0.1674  1.0597
 8211SOL     OW25531   5.922   5.717   0.517  0.2892 -0.3215 -0.1924
 8211SOL    HW125532   5.927   5.720   0.417 -1.4912 -0.5496 -0.3194
 8211SOL    HW225533   5.857   5.646   0.544 -0.6637  0.9687  1.0613
 8212SOL     OW25534   1.193   2.650   0.814 -0.0870  0.1179 -0.3035
 8212SOL    HW125535   1.190   2.677   0.717 -0.0304  0.5645 -0.1854
 8212SOL    HW225536   1.217   2.554   0.821  1.2590  0.4093 -0.6865
 8213SOL     OW25537   5.926   5.754   0.229  0.6705 -0.0556 -0.6462
 8213SOL    HW125538   6.023   5.752   0.205  0.4959 -0.6257 -1.3003
 8213SOL    HW225539   5.879   5.822   0.172  0.4794 -0.5612 -1.0910
 8214SOL     OW25540   5.334   4.926   3.054  0.2682 -0.1994  0.0344
 8214SOL    HW125541   5.433   4.935   3.071 -0.1075  0.3843  2.1574
 8214SOL    HW225542   5.286   5.001   3.097 -1.3804 -2.1889  1.8861
 8215SOL     OW25543   3.730   6.771   1.727  0.0396 -0.3555 -0.5104
 8215SOL    HW125544   3.722   6.760   1.826 -0.5093 -0.5156 -0.5705
 8215SOL    HW225545   3.642   6.752   1.684 -0.7550  3.2520 -0.7337
 8216SOL     OW25546   4.930   4.262   2.825 -0.0215 -0.1658 -0.3641
 8216SOL    HW125547   4.866   4.314   2.881  1.0855 -0.8391  1.5991
 8216SOL    HW225548   5.002   4.323   2.791 -0.7577  0.2654 -1.1851
 8217SOL     OW25549   1.912   4.667   0.137 -0.4344 -0.2059 -0.3297
 8217SOL    HW125550   1.930   4.754   0.091  1.4110 -0.9997 -1.2023
 8217SOL    HW225551   1.814   4.646   0.133 -0.6061  0.7790 -2.0045
 8218SOL     OW25552   6.303   3.483   1.494 -0.1715  0.2376  0.3053
 8218SOL    HW125553   6.206   3.504   1.484 -0.2298 -0.5914 -1.2411
 8218SOL    HW225554   6.357   3.567   1.484 -0.6168  0.3498 -1.6204
 8219SOL     OW25555   0.082   3.384   0.906 -1.0058  0.1238  0.7521
 8219SOL    HW125556   0.008   3.362   0.969 -1.1532 -2.1267 -0.1354
 8219SOL    HW225557   0.043   3.422   0.822 -0.8465  2.4878  1.6551
 8220SOL     OW25558   4.203   3.132   1.780 -0.5097 -0.4041  0.3713
 8220SOL    HW125559   4.291   3.106   1.739 -0.7112 -0.9391  0.2638
 8220SOL    HW225560   4.198   3.232   1.787  0.2163 -0.3770  0.6321
 8221SOL     OW25561   5.647   2.981   3.922  0.1563  0.3889  0.7014
 8221SOL    HW125562   5.552   2.956   3.940  0.2829 -0.2784  0.4679
 8221SOL    HW225563   5.678   3.047   3.991 -0.1974 -0.0792  1.3129
 8222SOL     OW25564   6.441   3.319   2.671 -0.4878 -0.3594  0.1214
 8222SOL    HW125565   6.523   3.311   2.727  0.0170  0.1157 -0.5214
 8222SOL    HW225566   6.467   3.337   2.576 -1.2870 -2.4409 -0.5378
 8223SOL     OW25567   1.030   2.698   4.617  0.4088  0.3669  0.0401
 8223SOL    HW125568   0.953   2.682   4.556  1.4200 -0.9086 -0.9673
 8223SOL    HW225569   0.997   2.707   4.711 -0.8902 -1.1285 -0.2314
 8224SOL     OW25570   0.674   2.345   2.902 -0.3150  0.7603  0.0745
 8224SOL    HW125571   0.773   2.332   2.915 -0.3357  0.3634 -0.1354
 8224SOL    HW225572   0.658   2.408   2.827 -0.2199 -1.1456 -1.6342
 8225SOL     OW25573   6.721   0.901   1.622  0.0021  0.2782  0.1809
 8225SOL    HW125574   6.674   0.898   1.534  1.0076  0.0364 -0.3665
 8225SOL    HW225575   6.803   0.958   1.614 -0.6982  1.5025  1.3753
 8226SOL     OW25576   2.422   5.479   1.191 -0.3876 -0.2482  0.1075
 8226SOL    HW125577   2.323   5.496   1.192 -0.4641 -0.6791  0.1465
 8226SOL    HW225578   2.465   5.531   1.264 -0.4959  0.4722 -0.3350
 8227SOL     OW25579   0.995   3.849   3.236  0.2002 -0.0594  0.2429
 8227SOL    HW125580   0.911   3.805   3.266  0.3141 -0.4374  0.0111
 8227SOL    HW225581   1.067   3.781   3.226  0.1961  0.0642 -0.7985
 8228SOL     OW25582   0.659   6.500   3.037  0.0755 -0.3182 -0.0914
 8228SOL    HW125583   0.673   6.568   3.109  0.9103 -1.1984  0.5968
 8228SOL    HW225584   0.570   6.515   2.994  0.0201  0.8758  0.3944
 8229SOL     OW25585   3.297   3.112   0.524  0.4281  0.5737  0.5673
 8229SOL    HW125586   3.306   3.152   0.433  0.3152  0.2257  0.4037
 8229SOL    HW225587   3.235   3.168   0.579  0.6488  0.8911  0.4937
 8230SOL     OW25588   4.638   5.947   4.662 -0.4626 -0.0295 -0.0063
 8230SOL    HW125589   4.720   5.926   4.609 -0.0244 -1.2917  1.1008
 8230SOL    HW225590   4.663   6.007   4.739 -0.5467 -0.4880  0.3830
 8231SOL     OW25591   3.571   6.341   0.899 -0.1018  0.4079  0.1911
 8231SOL    HW125592   3.586   6.438   0.880 -3.2036  0.7486 -1.0776
 8231SOL    HW225593   3.611   6.286   0.826  0.1763  0.8515  0.0028
 8232SOL     OW25594   2.689   2.021   5.853  0.4292  0.1179  0.3492
 8232SOL    HW125595   2.601   2.059   5.826  1.4382  2.9468  0.7044
 8232SOL    HW225596   2.728   1.969   5.777 -1.1948 -0.5764 -0.0470
 8233SOL     OW25597   6.883   6.612   5.489 -0.2368  0.1194 -0.2254
 8233SOL    HW125598   6.852   6.679   5.556  1.2264  0.8516 -0.2233
 8233SOL    HW225599   6.956   6.653   5.433  0.6305 -1.4203 -0.2800
 8234SOL     OW25600   2.688   2.461   6.297 -0.5802 -0.3615 -0.0254
 8234SOL    HW125601   2.761   2.518   6.335  0.4906 -0.7954 -1.3593
 8234SOL    HW225602   2.623   2.519   6.249 -0.1867 -0.1299 -0.2867
 8235SOL     OW25603   3.345   1.422   6.922  0.1382  0.4753  0.5663
 8235SOL    HW125604   3.289   1.403   6.842 -1.2090 -0.8841  1.7780
 8235SOL    HW225605   3.294   1.480   6.986 -0.2523 -1.3967  2.0241
 8236SOL     OW25606   3.740   3.170   0.161  0.4163 -0.4634 -0.3045
 8236SOL    HW125607   3.830   3.174   0.117  1.2041  0.8923  1.2739
 8236SOL    HW225608   3.752   3.179   0.260 -1.3804 -1.8636  0.0836
 8237SOL     OW25609   5.953   0.624   6.612 -0.0301  0.1889 -0.1646
 8237SOL    HW125610   6.035   0.635   6.557 -0.1532  1.9076 -0.0527
 8237SOL    HW225611   5.882   0.685   6.578 -1.0073 -0.6845  0.2510
 8238SOL     OW25612   2.052   0.547   1.091  0.4334 -0.0220  0.4540
 8238SOL    HW125613   2.107   0.554   1.174 -0.4872 -0.6584  1.1410
 8238SOL    HW225614   2.112   0.533   1.012  1.3440  0.9964  0.9379
 8239SOL     OW25615   5.498   0.857   5.511  0.3409 -0.4989 -0.4684
 8239SOL    HW125616   5.433   0.840   5.437  1.3982  1.3081 -1.8609
 8239SOL    HW225617   5.448   0.894   5.590 -0.4557 -0.0628 -1.1607
 8240SOL     OW25618   3.547   3.839   3.930  0.3027 -0.2376  0.2154
 8240SOL    HW125619   3.499   3.778   3.993 -0.6880  1.0444  0.7302
 8240SOL    HW225620   3.508   3.931   3.935  1.6003  0.4020 -0.7283
 8241SOL     OW25621   5.018   6.449   0.902 -0.2254  1.0649 -0.4533
 8241SOL    HW125622   4.925   6.483   0.919 -0.1529  0.3068  1.8085
 8241SOL    HW225623   5.046   6.390   0.978  2.1022  1.2392 -1.1096
 8242SOL     OW25624   0.455   2.612   5.493 -0.0156  0.0671 -0.0019
 8242SOL    HW125625   0.499   2.570   5.414  1.7122 -0.1938  1.0404
 8242SOL    HW225626   0.448   2.711   5.479 -0.8412 -0.1201 -0.9754
 8243SOL     OW25627   2.446   3.001   5.778  0.2756  0.2980  0.5139
 8243SOL    HW125628   2.447   3.013   5.877 -0.0541 -1.9152  0.8316
 8243SOL    HW225629   2.514   2.933   5.751 -0.5527 -0.1365 -0.6085
 8244SOL     OW25630   0.692   3.711   3.826  0.2805  0.3288  0.2625
 8244SOL    HW125631   0.642   3.755   3.752 -0.4006 -0.0577  0.4850
 8244SOL    HW225632   0.642   3.629   3.856  0.4064  0.6295  1.3334
 8245SOL     OW25633   3.611   2.890   6.224  1.3772  0.0600 -0.3392
 8245SOL    HW125634   3.693   2.849   6.265 -0.2440 -2.0207  1.0442
 8245SOL    HW225635   3.605   2.862   6.128  1.2151 -1.5962  0.1239
 8246SOL     OW25636   5.476   5.657   5.623 -0.2514 -0.6287 -0.1798
 8246SOL    HW125637   5.431   5.569   5.607 -0.7136 -0.3992 -0.1621
 8246SOL    HW225638   5.407   5.727   5.644  0.0424 -0.0994 -0.9117
 8247SOL     OW25639   0.271   1.054   0.012 -0.3185  0.1548 -0.2640
 8247SOL    HW125640   0.340   1.040  -0.059  0.0350 -2.4671  0.4991
 8247SOL    HW225641   0.280   0.984   0.082 -2.3707  1.0767  1.0307
 8248SOL     OW25642   6.733   5.389   4.512 -0.0963  0.0004  0.6367
 8248SOL    HW125643   6.734   5.489   4.507  1.3777  0.0025  0.4312
 8248SOL    HW225644   6.666   5.353   4.447  0.2820  0.8398 -0.2460
 8249SOL     OW25645   0.379   4.314   3.099  0.8269  0.1364 -0.1728
 8249SOL    HW125646   0.469   4.341   3.134  0.0360  2.2953  0.3006
 8249SOL    HW225647   0.312   4.319   3.173  0.1207 -0.5118 -0.7586
 8250SOL     OW25648   4.039   3.768   2.653 -0.5181 -0.5246 -0.9060
 8250SOL    HW125649   4.099   3.718   2.592 -0.8229  0.4258 -2.0202
 8250SOL    HW225650   3.983   3.832   2.600 -0.8023  0.3198  0.3615
 8251SOL     OW25651   4.105   2.266   3.073 -0.0197 -0.4547 -0.0237
 8251SOL    HW125652   4.145   2.290   2.985  0.4333 -0.7401  0.0950
 8251SOL    HW225653   4.142   2.327   3.144 -0.7265  0.0681 -0.0967
 8252SOL     OW25654   1.979   3.397   4.986  0.2429 -0.9423  0.7709
 8252SOL    HW125655   1.904   3.364   5.043 -0.5513 -1.3041 -0.4325
 8252SOL    HW225656   1.942   3.457   4.915  1.4606  1.2906  1.9121
 8253SOL     OW25657   2.471   3.758   6.231 -0.7328 -0.5371 -1.0613
 8253SOL    HW125658   2.505   3.767   6.137  0.3462 -0.7312 -0.7033
 8253SOL    HW225659   2.509   3.675   6.272 -2.2741 -1.1802 -0.8857
 8254SOL     OW25660   2.441   4.429   2.156 -0.3346 -0.9158 -0.3267
 8254SOL    HW125661   2.496   4.503   2.118  0.1751 -1.8183 -1.4085
 8254SOL    HW225662   2.443   4.433   2.256 -0.5052  0.6405 -0.3624
 8255SOL     OW25663   2.839   4.780   2.699 -0.2733  0.0139  0.5423
 8255SOL    HW125664   2.788   4.787   2.785 -0.0549 -0.0147  0.6735
 8255SOL    HW225665   2.794   4.714   2.640  0.7479 -1.5459  1.4570
 8256SOL     OW25666   6.523   3.141   3.377  0.0415 -0.7660 -0.0891
 8256SOL    HW125667   6.556   3.233   3.357  1.2297 -1.4229 -1.2878
 8256SOL    HW225668   6.435   3.147   3.424  0.6974  1.0019  1.0188
 8257SOL     OW25669   5.862   4.017   5.905 -0.0939  0.2386  0.3820
 8257SOL    HW125670   5.918   4.078   5.849 -0.4926  0.9381  0.7321
 8257SOL    HW225671   5.921   3.952   5.952  0.3828  0.6701  0.3856
 8258SOL     OW25672   5.739   0.943   1.069  0.5123 -0.3793 -0.8212
 8258SOL    HW125673   5.776   1.036   1.077  1.4636 -0.6322 -1.8295
 8258SOL    HW225674   5.799   0.890   1.009 -1.0313 -1.1048 -1.7717
 8259SOL     OW25675   4.939   6.506   0.607 -0.6106  0.2097 -0.0375
 8259SOL    HW125676   4.902   6.544   0.692 -0.5936 -0.3910  0.2412
 8259SOL    HW225677   4.876   6.526   0.531 -1.4585 -0.7084  0.4101
 8260SOL     OW25678   2.238   3.857   1.020 -0.2022  0.2595  0.4301
 8260SOL    HW125679   2.323   3.908   1.030  0.2333  0.2482 -2.4663
 8260SOL    HW225680   2.238   3.781   1.085  2.4889 -0.3420 -0.1332
 8261SOL     OW25681   5.552   2.228   1.255 -0.6974 -0.5034 -0.1444
 8261SOL    HW125682   5.565   2.325   1.276 -0.9070 -0.7305  1.1203
 8261SOL    HW225683   5.637   2.178   1.271 -1.2358 -0.9199  1.7686
 8262SOL     OW25684   1.342   2.512   1.682 -0.2073  0.5245 -0.2640
 8262SOL    HW125685   1.253   2.554   1.663 -0.0235  0.5264 -1.1376
 8262SOL    HW225686   1.363   2.522   1.780 -0.4346  1.9166 -0.3393
 8263SOL     OW25687   4.921   2.119   6.748  0.0230 -0.5286  0.4386
 8263SOL    HW125688   4.936   2.045   6.682 -0.8643 -0.5467  0.2531
 8263SOL    HW225689   5.005   2.172   6.758 -0.6395  1.5678 -3.2620
 8264SOL     OW25690   6.912   3.788   2.326  0.1302  0.2661 -0.2414
 8264SOL    HW125691   6.990   3.751   2.375  0.9631  1.8092 -0.3601
 8264SOL    HW225692   6.841   3.815   2.392 -0.2553 -0.9370 -0.1260
 8265SOL     OW25693   2.176   6.069   5.035  0.3416 -0.3239  0.0148
 8265SOL    HW125694   2.080   6.040   5.042  0.6195 -1.4436 -0.5379
 8265SOL    HW225695   2.198   6.129   5.112 -0.4625 -1.0483  0.8426
 8266SOL     OW25696   4.345   1.045   4.220  0.1769 -0.5290  0.0907
 8266SOL    HW125697   4.441   1.032   4.193  0.2546  0.2497 -0.0371
 8266SOL    HW225698   4.342   1.075   4.315  0.0976  0.0036 -0.0773
 8267SOL     OW25699   6.365   3.901   0.082 -0.0203  0.0465 -0.2374
 8267SOL    HW125700   6.447   3.931   0.034  0.1203 -0.5226 -0.3611
 8267SOL    HW225701   6.339   3.810   0.051 -0.6974  0.2152 -0.1914
 8268SOL     OW25702   3.435   6.273   6.427 -0.1404  0.0305  0.3178
 8268SOL    HW125703   3.432   6.373   6.428  2.7837  0.2541  3.1285
 8268SOL    HW225704   3.505   6.243   6.362  0.3523 -0.0402  0.8679
 8269SOL     OW25705   4.147   2.523   1.268  0.1666 -0.4217  0.2980
 8269SOL    HW125706   4.135   2.621   1.284  0.7757 -0.2274 -0.3545
 8269SOL    HW225707   4.098   2.496   1.185 -0.8730 -0.8967  1.0451
 8270SOL     OW25708   2.443   5.110   4.637  0.2772 -0.2095  0.1663
 8270SOL    HW125709   2.380   5.072   4.704  0.7181  1.4303  1.5818
 8270SOL    HW225710   2.391   5.147   4.560 -0.3592 -0.5652  0.4162
 8271SOL     OW25711   0.856   3.270   1.380  0.5207  0.3933 -0.5657
 8271SOL    HW125712   0.820   3.323   1.302 -1.6224  1.2149  0.8744
 8271SOL    HW225713   0.910   3.329   1.439  0.0660  0.4282 -0.1707
 8272SOL     OW25714   5.031   6.983   5.871  0.2887 -0.7854 -0.2212
 8272SOL    HW125715   5.035   6.903   5.812 -0.7186 -2.1363  1.4540
 8272SOL    HW225716   5.058   6.958   5.964 -1.4839  0.4382  0.6778
 8273SOL     OW25717   0.975   6.037   0.876 -0.0844 -0.6085 -0.6349
 8273SOL    HW125718   1.053   6.088   0.911  0.2176 -1.6929  0.3720
 8273SOL    HW225719   0.954   6.066   0.783  0.9742  0.2930 -0.6106
 8274SOL     OW25720   5.752   3.815   3.939 -0.4255 -0.2731  0.2549
 8274SOL    HW125721   5.724   3.865   3.858  1.3205 -0.2727 -0.3832
 8274SOL    HW225722   5.805   3.734   3.912 -0.4153 -0.6556  1.3671
 8275SOL     OW25723   5.299   1.989   0.750 -0.1227  0.7066  0.3990
 8275SOL    HW125724   5.223   1.960   0.809 -0.4120 -0.7444 -0.6318
 8275SOL    HW225725   5.274   2.073   0.703 -0.6004  0.9078  0.9914
 8276SOL     OW25726   2.480   0.537   1.735  0.0482  0.1095  0.3420
 8276SOL    HW125727   2.474   0.439   1.717 -0.3306 -0.4398  3.0570
 8276SOL    HW225728   2.540   0.553   1.813  0.0636  2.0768 -0.0082
 8277SOL     OW25729   0.071   2.152   0.258  0.2768  0.1363 -0.0295
 8277SOL    HW125730   0.032   2.099   0.333  1.7813  2.7776  2.8287
 8277SOL    HW225731  -0.003   2.185   0.198 -0.9494 -2.0885  0.1470
 8278SOL     OW25732   6.866   0.564   1.235  0.4377 -0.0802  0.3384
 8278SOL    HW125733   6.784   0.516   1.203  0.5401 -0.6904  0.9597
 8278SOL    HW225734   6.946   0.527   1.190  0.3245  0.9577 -0.7535
 8279SOL     OW25735   0.923   0.699   4.643 -0.1724 -0.6754  0.0455
 8279SOL    HW125736   0.882   0.788   4.661  1.4643  0.4261 -1.3395
 8279SOL    HW225737   0.873   0.653   4.570 -0.8239 -0.7694  0.5402
 8280SOL     OW25738   3.868   3.019   4.982 -0.6758 -0.2295  0.0307
 8280SOL    HW125739   3.879   3.114   5.012 -0.1300 -0.4659  0.5967
 8280SOL    HW225740   3.888   3.013   4.884  3.0457 -0.3633  0.6469
 8281SOL     OW25741   4.891   6.394   3.542 -0.0629  0.9566  0.1436
 8281SOL    HW125742   4.951   6.412   3.464  0.1291 -0.3146 -0.0153
 8281SOL    HW225743   4.809   6.451   3.534  0.6412  1.9455 -0.1756
 8282SOL     OW25744   4.662   2.250   2.437  0.2323  0.0792  0.1451
 8282SOL    HW125745   4.595   2.322   2.453  0.8841  0.4707  1.1885
 8282SOL    HW225746   4.729   2.280   2.369  1.0339  0.8398  1.2377
 8283SOL     OW25747   2.058   3.192   6.910  0.1588 -0.0347  0.6110
 8283SOL    HW125748   2.091   3.107   6.952  1.3352 -0.4549 -1.0834
 8283SOL    HW225749   2.132   3.233   6.856 -0.4180  2.0328  1.3134
 8284SOL     OW25750   6.299   4.478   6.654  0.0742  0.0721  0.5166
 8284SOL    HW125751   6.222   4.522   6.608 -0.2933  0.1508  1.1895
 8284SOL    HW225752   6.268   4.393   6.696  0.6995 -0.6678 -0.4742
 8285SOL     OW25753   3.017   3.929   4.636  0.1292  0.0851 -0.1190
 8285SOL    HW125754   3.009   3.844   4.583  0.2158 -0.8735  1.3540
 8285SOL    HW225755   3.010   3.908   4.734  1.0322  1.6832  0.3170
 8286SOL     OW25756   5.186   0.996   0.960  0.3774  0.3910 -0.7432
 8286SOL    HW125757   5.131   1.035   1.034  2.1304 -0.9311  1.4052
 8286SOL    HW225758   5.281   1.026   0.971  1.1776 -1.9245 -0.8348
 8287SOL     OW25759   2.740   5.870   2.887  0.3642 -0.4604  0.0950
 8287SOL    HW125760   2.772   5.928   2.961 -0.5211  1.3890 -0.8867
 8287SOL    HW225761   2.724   5.926   2.806  0.8092 -2.3303 -1.3628
 8288SOL     OW25762   1.923   1.944   4.292 -0.6498 -0.0248 -0.2530
 8288SOL    HW125763   1.977   1.933   4.209 -1.7844  1.5695 -1.2518
 8288SOL    HW225764   1.826   1.933   4.271 -0.8912 -0.7545  1.0995
 8289SOL     OW25765   6.462   5.580   2.015  0.4087 -0.0737 -0.3492
 8289SOL    HW125766   6.384   5.565   2.076  1.0665 -1.0851  0.2914
 8289SOL    HW225767   6.528   5.640   2.059 -0.2345  1.2301 -1.1162
 8290SOL     OW25768   6.672   1.834   2.461  0.4964 -0.2209 -0.3039
 8290SOL    HW125769   6.761   1.876   2.442  0.5431  0.8798  1.9412
 8290SOL    HW225770   6.604   1.872   2.398  0.5324  3.4773  1.5854
 8291SOL     OW25771   3.139   6.944   1.512 -0.1669  0.0158  0.4168
 8291SOL    HW125772   3.150   6.910   1.418 -0.5244 -0.1969  0.4535
 8291SOL    HW225773   3.073   6.888   1.561  1.4493 -1.1007  1.4154
 8292SOL     OW25774   3.490   2.005   5.406  0.3093  0.7863  0.2196
 8292SOL    HW125775   3.588   2.021   5.392  0.5920 -1.9609 -1.7445
 8292SOL    HW225776   3.440   2.029   5.323 -0.0812 -1.5690 -0.2965
 8293SOL     OW25777   6.544   5.659   4.817  0.1923  0.2522 -0.0581
 8293SOL    HW125778   6.503   5.569   4.830 -1.2834  0.7842 -0.7787
 8293SOL    HW225779   6.510   5.699   4.731  3.6728 -0.0143 -1.7433
 8294SOL     OW25780   4.897   3.844   1.145  0.1222  0.4909 -0.0349
 8294SOL    HW125781   4.815   3.797   1.111  0.1997  0.2243  0.1485
 8294SOL    HW225782   4.896   3.846   1.245  0.9682 -0.6496  0.0180
 8295SOL     OW25783   3.511   2.290   5.887  0.1088  0.3058  0.1441
 8295SOL    HW125784   3.494   2.220   5.817  1.2386 -0.2164  0.3643
 8295SOL    HW225785   3.540   2.245   5.972  2.4236  1.0709 -0.1805
 8296SOL     OW25786   0.605   4.344   0.068  0.4315 -0.4999 -0.5115
 8296SOL    HW125787   0.522   4.343   0.012  0.2779 -0.7337 -0.2854
 8296SOL    HW225788   0.652   4.432   0.057 -1.1281  0.6266  1.2156
 8297SOL     OW25789   1.893   2.823   2.203 -0.2121 -0.1128 -0.3405
 8297SOL    HW125790   1.862   2.790   2.114  0.6865 -0.4696 -0.5327
 8297SOL    HW225791   1.863   2.917   2.215  1.0317  0.5033 -1.7366
 8298SOL     OW25792   6.330   2.506   2.744  0.2682  0.0720 -0.3368
 8298SOL    HW125793   6.255   2.548   2.794  1.4602  1.2221  0.5517
 8298SOL    HW225794   6.294   2.445   2.674 -1.4690  0.2042  0.4058
 8299SOL     OW25795   0.569   1.358   2.262  0.0232 -0.0652  0.0708
 8299SOL    HW125796   0.626   1.301   2.205 -0.4136  0.3539 -0.8082
 8299SOL    HW225797   0.509   1.301   2.318  1.1607 -0.4990  0.8780
 8300SOL     OW25798   0.665   4.804   1.638 -0.0936  0.8675  0.5506
 8300SOL    HW125799   0.639   4.817   1.734  0.1912 -0.4312  0.8256
 8300SOL    HW225800   0.752   4.850   1.621  0.3132  0.3575  1.1741
 8301SOL     OW25801   3.317   3.859   4.267 -0.0271  0.0241  0.0367
 8301SOL    HW125802   3.280   3.798   4.197 -0.5625 -0.2125  0.5146
 8301SOL    HW225803   3.245   3.879   4.334 -0.6504  3.1189 -1.3672
 8302SOL     OW25804   6.352   5.545   4.377 -0.2636  0.0664  0.0941
 8302SOL    HW125805   6.278   5.478   4.377  0.3388 -0.6131 -0.7129
 8302SOL    HW225806   6.368   5.577   4.470 -0.5489 -0.9127  0.4928
 8303SOL     OW25807   6.130   1.610   0.473 -0.2224  0.4891  0.0205
 8303SOL    HW125808   6.035   1.585   0.456 -0.5008  0.3785  1.5916
 8303SOL    HW225809   6.188   1.529   0.467 -0.4669  0.2647  0.5517
 8304SOL     OW25810   5.832   4.436   0.459 -0.5977  0.4335 -0.3565
 8304SOL    HW125811   5.804   4.341   0.465 -0.4737  0.4520  0.6200
 8304SOL    HW225812   5.792   4.488   0.534 -1.6787  1.4315 -1.5652
 8305SOL     OW25813   4.429   5.496   4.400 -0.2100 -1.0795 -0.4196
 8305SOL    HW125814   4.486   5.415   4.403 -0.9370 -1.5856  0.2809
 8305SOL    HW225815   4.487   5.578   4.396  0.5273 -1.6215 -0.9655
 8306SOL     OW25816   0.340   2.404   2.462 -0.2366 -0.3933  0.0944
 8306SOL    HW125817   0.345   2.380   2.365 -0.3370  1.9940 -0.5606
 8306SOL    HW225818   0.429   2.439   2.492 -0.4377 -0.3603  0.6547
 8307SOL     OW25819   4.517   3.565   0.488  0.0892  0.1016  0.6536
 8307SOL    HW125820   4.539   3.467   0.490  1.4294  0.3667  0.0832
 8307SOL    HW225821   4.601   3.618   0.500 -0.4080  1.1840 -0.4257
 8308SOL     OW25822   3.405   0.035   1.829  0.0114  0.3019  0.2111
 8308SOL    HW125823   3.484   0.001   1.880 -0.7532 -0.1355  1.1585
 8308SOL    HW225824   3.424   0.126   1.793  2.1326 -1.0497 -2.4036
 8309SOL     OW25825   6.978   0.193   2.152 -0.8522  0.3608 -0.8908
 8309SOL    HW125826   6.911   0.221   2.221 -0.7356 -0.9966 -0.1992
 8309SOL    HW225827   6.947   0.224   2.062 -1.4091  1.4566 -0.3512
 8310SOL     OW25828   6.128   3.441   5.904  0.2593 -0.6627  0.6214
 8310SOL    HW125829   6.221   3.476   5.905 -0.1087  0.3401  1.6305
 8310SOL    HW225830   6.090   3.451   5.812  0.3638  1.1168  0.7304
 8311SOL     OW25831   6.393   1.879   0.015 -0.2548 -0.3365  0.7074
 8311SOL    HW125832   6.365   1.895   0.110  1.2667  4.1318  0.6610
 8311SOL    HW225833   6.333   1.929  -0.047  0.6328 -0.5797 -0.3896
 8312SOL     OW25834   4.583   0.233   0.184 -0.7543  0.3746  0.0576
 8312SOL    HW125835   4.493   0.272   0.163 -0.1050  1.1442 -1.4875
 8312SOL    HW225836   4.627   0.204   0.099 -0.1886 -1.5388  0.9383
 8313SOL     OW25837   2.657   2.595   5.229  0.6572 -0.8167  0.3292
 8313SOL    HW125838   2.587   2.666   5.227  2.0709  0.7053  1.3629
 8313SOL    HW225839   2.675   2.569   5.324  2.6875  0.1716  0.2845
 8314SOL     OW25840   0.554   5.658   5.289  0.2838  0.1248 -0.0224
 8314SOL    HW125841   0.506   5.591   5.233 -0.6196  0.4788  0.3125
 8314SOL    HW225842   0.623   5.705   5.233  1.2162 -1.3443 -0.1586
 8315SOL     OW25843   4.871   4.439   6.905 -0.8036  0.2401 -0.4225
 8315SOL    HW125844   4.818   4.360   6.872 -2.0508  1.6653 -2.0201
 8315SOL    HW225845   4.821   4.484   6.978 -0.6951  0.2924 -0.3798
 8316SOL     OW25846   3.925   6.399   6.530  0.1276  0.1108 -0.1920
 8316SOL    HW125847   3.830   6.418   6.557  0.0383 -2.0476  1.2209
 8316SOL    HW225848   3.931   6.307   6.491  2.0912 -1.2726  2.9265
 8317SOL     OW25849   2.945   4.122   1.301  0.5899 -0.2210  0.2108
 8317SOL    HW125850   2.956   4.222   1.297 -3.9262  0.6792  2.9583
 8317SOL    HW225851   2.987   4.087   1.384 -0.1240 -0.0796  0.6447
 8318SOL     OW25852   5.040   1.018   4.103  0.2157 -0.3558 -0.2147
 8318SOL    HW125853   5.054   1.046   4.198 -0.2402 -0.4869 -0.1056
 8318SOL    HW225854   5.089   0.932   4.086 -1.5122 -1.5670  0.5616
 8319SOL     OW25855   4.625   0.431   2.471  0.0544 -0.6144 -0.7086
 8319SOL    HW125856   4.669   0.385   2.548 -0.9233 -0.7174 -0.2015
 8319SOL    HW225857   4.635   0.530   2.482 -1.1071 -0.5831  0.1875
 8320SOL     OW25858   3.488   5.568   2.127  0.2061  1.2584 -0.3065
 8320SOL    HW125859   3.488   5.545   2.030  1.3006  0.3084 -0.0992
 8320SOL    HW225860   3.465   5.665   2.138  0.8150  1.5661 -1.5553
 8321SOL     OW25861   1.078   1.586   2.111  0.1520  0.2265  0.1491
 8321SOL    HW125862   1.086   1.509   2.048 -0.9917  2.2895 -2.7265
 8321SOL    HW225863   0.991   1.578   2.162  1.6441 -2.0963  2.6181
 8322SOL     OW25864   4.207   0.147   6.727  0.1171  0.0395 -0.6231
 8322SOL    HW125865   4.195   0.221   6.794  0.9423  0.2546 -0.7050
 8322SOL    HW225866   4.224   0.061   6.774  0.5822  0.1698 -0.5492
 8323SOL     OW25867   2.939   0.812   2.973 -0.5294 -0.0869 -0.1953
 8323SOL    HW125868   2.967   0.718   2.991  0.2504  0.4286  1.4971
 8323SOL    HW225869   2.884   0.846   3.050  0.4528  1.3140 -0.0801
 8324SOL     OW25870   6.193   0.449   1.992 -0.3644 -0.2097 -0.8678
 8324SOL    HW125871   6.224   0.524   1.934 -0.6960  0.7322  0.1379
 8324SOL    HW225872   6.269   0.418   2.050 -0.0427 -1.1272 -1.7431
 8325SOL     OW25873   3.791   4.906   6.526  0.4958  0.5173 -0.3468
 8325SOL    HW125874   3.775   4.863   6.614  1.4126 -0.0065 -0.4166
 8325SOL    HW225875   3.731   4.865   6.457  1.3399 -0.6500 -0.4042
 8326SOL     OW25876   3.609   1.650   6.865 -0.0313  0.0890  0.2480
 8326SOL    HW125877   3.550   1.627   6.942  0.3131  0.8130  0.7349
 8326SOL    HW225878   3.632   1.747   6.868 -0.8153  0.3585 -1.3328
 8327SOL     OW25879   5.095   0.214   6.583  0.3131 -0.5932  0.5108
 8327SOL    HW125880   5.075   0.140   6.647  2.2843 -2.0006 -0.4207
 8327SOL    HW225881   5.168   0.271   6.620  1.5110 -1.4566 -0.4709
 8328SOL     OW25882   6.843   3.506   4.713 -0.8772 -0.2739 -0.8253
 8328SOL    HW125883   6.789   3.434   4.755 -1.1633  1.4121  1.9154
 8328SOL    HW225884   6.932   3.511   4.758 -1.2627  1.7210 -0.1837
 8329SOL     OW25885   6.888   0.503   5.308  0.1465  0.3029 -0.1317
 8329SOL    HW125886   6.863   0.578   5.369  0.0737  0.0089  0.2040
 8329SOL    HW225887   6.975   0.463   5.338 -0.6159 -0.8049  0.6943
 8330SOL     OW25888   3.132   6.443   1.396  0.0484  1.0875  0.4740
 8330SOL    HW125889   3.222   6.453   1.352 -0.6597  1.2129 -1.0231
 8330SOL    HW225890   3.060   6.467   1.330 -1.1065  0.5901  1.5123
 8331SOL     OW25891   3.355   0.058   1.443 -0.5156  0.0110 -0.8221
 8331SOL    HW125892   3.407  -0.021   1.411 -1.2519 -0.7036 -0.2818
 8331SOL    HW225893   3.283   0.028   1.506 -1.4099  1.0021 -1.3313
 8332SOL     OW25894   5.429   6.639   4.223  0.0773 -0.4711 -0.1683
 8332SOL    HW125895   5.434   6.731   4.184  2.9748  0.1194  1.2459
 8332SOL    HW225896   5.432   6.572   4.149 -2.5468  0.4914 -1.2555
 8333SOL     OW25897   0.420   5.240   0.652 -0.2668  0.5170  0.7354
 8333SOL    HW125898   0.516   5.223   0.628 -0.2031 -0.7032  1.6927
 8333SOL    HW225899   0.363   5.235   0.570  0.4662  1.1720  0.1691
 8334SOL     OW25900   6.068   0.223   4.267  0.5430 -0.0460 -0.3037
 8334SOL    HW125901   6.109   0.286   4.201  0.6490  0.8966  0.6312
 8334SOL    HW225902   6.129   0.214   4.347  0.3167 -0.9891 -0.2250
 8335SOL     OW25903   5.197   6.949   5.415 -0.4431  0.2703  0.0873
 8335SOL    HW125904   5.192   6.865   5.468 -0.4892  0.6350  0.6696
 8335SOL    HW225905   5.291   6.964   5.384 -0.4386 -0.0035 -0.0314
 8336SOL     OW25906   6.763   4.161   0.732  0.0021 -0.4686  0.5773
 8336SOL    HW125907   6.752   4.068   0.698 -0.3918  0.8264 -3.2933
 8336SOL    HW225908   6.693   4.220   0.692  1.4464  1.8880  1.2984
 8337SOL     OW25909   0.100   0.811   3.592 -0.3068  0.2740 -0.2430
 8337SOL    HW125910   0.007   0.811   3.628 -0.1953 -1.2162  0.0968
 8337SOL    HW225911   0.099   0.780   3.497 -0.3763  2.3316 -0.9541
 8338SOL     OW25912   1.297   3.709   6.925 -0.1264  0.2830  0.0012
 8338SOL    HW125913   1.348   3.740   6.844  1.0190  2.5701  1.5099
 8338SOL    HW225914   1.352   3.723   7.007 -1.8777 -0.4640  1.3708
 8339SOL     OW25915   6.082   1.090   3.061 -0.0074 -0.7722  0.3977
 8339SOL    HW125916   6.099   1.059   2.967  1.5134 -0.0158  0.3944
 8339SOL    HW225917   6.052   1.012   3.116 -0.1943 -1.3842 -0.5439
 8340SOL     OW25918   4.474   3.730   0.753 -0.0375  0.7326 -0.2504
 8340SOL    HW125919   4.395   3.721   0.814 -0.7205 -0.8809 -1.3071
 8340SOL    HW225920   4.508   3.639   0.730  1.1167  1.3639 -1.1113
 8341SOL     OW25921   1.568   0.566   6.512  0.3028  0.3276  0.5937
 8341SOL    HW125922   1.627   0.532   6.439 -1.6929  0.3363 -1.1362
 8341SOL    HW225923   1.487   0.506   6.519 -0.7870  1.7989  1.0028
 8342SOL     OW25924   5.635   1.410   2.175 -0.2541 -0.4284  0.2131
 8342SOL    HW125925   5.566   1.341   2.154  0.9536 -1.6986  0.1937
 8342SOL    HW225926   5.726   1.373   2.154  0.4185  1.3720 -0.2859
 8343SOL     OW25927   6.860   5.046   0.638  0.3835 -0.8016 -0.2273
 8343SOL    HW125928   6.923   5.118   0.670 -0.5958 -0.3565  0.7743
 8343SOL    HW225929   6.899   4.956   0.659  0.0148 -0.5301  1.8561
 8344SOL     OW25930   4.810   0.835   4.180 -0.6371  0.5725  0.8014
 8344SOL    HW125931   4.815   0.808   4.276  0.8975 -0.3760  0.4954
 8344SOL    HW225932   4.902   0.853   4.145 -0.7768 -1.8193 -1.1851
 8345SOL     OW25933   6.000   0.983   4.681 -0.2411  0.2379 -0.1777
 8345SOL    HW125934   5.960   1.060   4.731 -0.6095 -0.8320  1.2430
 8345SOL    HW225935   5.955   0.898   4.709 -0.0046 -0.4898 -1.8771
 8346SOL     OW25936   3.782   0.276   1.843  0.2043  0.3980 -0.5166
 8346SOL    HW125937   3.878   0.304   1.843 -0.1897  1.8301 -0.3330
 8346SOL    HW225938   3.768   0.202   1.778  2.3921 -3.3876  2.8544
 8347SOL     OW25939   3.352   6.454   4.038  0.6537 -0.9408 -0.4670
 8347SOL    HW125940   3.313   6.546   4.043  0.3099 -1.0494 -1.1652
 8347SOL    HW225941   3.418   6.450   3.963  1.0135 -1.1357 -0.1411
 8348SOL     OW25942   1.668   0.271   0.209  0.4051 -0.2141  0.2633
 8348SOL    HW125943   1.690   0.346   0.271 -0.0178 -0.6809  0.9847
 8348SOL    HW225944   1.591   0.297   0.151 -1.5372 -0.9982  2.3193
 8349SOL     OW25945   4.886   6.439   6.989 -0.2094 -0.2854 -0.0240
 8349SOL    HW125946   4.811   6.418   6.927 -0.0512 -0.5982 -0.1131
 8349SOL    HW225947   4.934   6.521   6.957 -0.3514 -0.2355 -0.1115
 8350SOL     OW25948   5.682   0.580   4.536 -0.7111 -0.2366  0.1382
 8350SOL    HW125949   5.683   0.539   4.627  0.8361 -0.6759 -0.0492
 8350SOL    HW225950   5.624   0.662   4.538 -3.7786 -2.2426  0.5464
 8351SOL     OW25951   3.929   6.429   3.255 -0.4359 -0.3422 -0.0549
 8351SOL    HW125952   3.861   6.493   3.220 -0.6417 -0.1797  0.6287
 8351SOL    HW225953   4.013   6.436   3.201 -0.6041  0.2054 -0.2478
 8352SOL     OW25954   0.230   6.050   2.302 -0.1135 -0.2895 -0.0306
 8352SOL    HW125955   0.313   6.105   2.295 -0.7932  0.7268 -0.1837
 8352SOL    HW225956   0.161   6.085   2.240 -1.5614  0.5085  1.9366
 8353SOL     OW25957   0.624   3.949   1.508 -0.3783 -0.8583 -0.4213
 8353SOL    HW125958   0.617   3.877   1.440  0.3124  0.0568 -1.5081
 8353SOL    HW225959   0.678   4.025   1.471  1.3673 -0.9456  1.6739
 8354SOL     OW25960   3.136   0.105   1.020 -0.0305  0.7889  0.1958
 8354SOL    HW125961   3.200   0.138   0.952  0.6885  1.5315  1.2077
 8354SOL    HW225962   3.181   0.038   1.079 -0.8789 -0.4728 -0.5392
 8355SOL     OW25963   2.447   0.052   1.657 -0.6474 -0.1627 -0.6360
 8355SOL    HW125964   2.380   0.122   1.632  1.6185  2.4533  0.0779
 8355SOL    HW225965   2.517   0.047   1.586  1.4275  1.4216  1.1484
 8356SOL     OW25966   4.349   6.440   6.857 -0.5041 -0.4025 -0.6532
 8356SOL    HW125967   4.308   6.472   6.772  0.3133 -1.2285 -1.3737
 8356SOL    HW225968   4.436   6.396   6.838 -0.3133 -0.6176  0.6165
 8357SOL     OW25969   5.688   6.296   4.953  0.0256  0.0317 -0.2581
 8357SOL    HW125970   5.673   6.236   5.031 -0.3593 -0.3684 -0.6304
 8357SOL    HW225971   5.614   6.363   4.949  0.8475  1.0116  0.5842
 8358SOL     OW25972   1.791   2.351   4.571 -0.0741 -0.2529  0.0697
 8358SOL    HW125973   1.842   2.354   4.657  0.2112 -2.4022  0.0302
 8358SOL    HW225974   1.847   2.306   4.501 -1.4739 -1.4194 -0.3447
 8359SOL     OW25975   4.748   4.080   4.666 -0.0295  0.4478 -0.8025
 8359SOL    HW125976   4.770   4.093   4.763  0.0710  1.4159 -0.9524
 8359SOL    HW225977   4.679   4.008   4.658 -2.3769  2.4526  0.2514
 8360SOL     OW25978   4.959   2.013   4.195 -0.0324 -0.1244  0.2462
 8360SOL    HW125979   5.015   2.094   4.176 -3.0462  1.8135 -1.0847
 8360SOL    HW225980   4.955   1.956   4.114  0.7251 -0.7800  0.6527
 8361SOL     OW25981   3.467   0.193   3.755 -0.2594 -0.3697  0.1175
 8361SOL    HW125982   3.432   0.277   3.714  0.8465  0.3052  0.5078
 8361SOL    HW225983   3.409   0.166   3.831 -0.8169 -0.1553 -0.2227
 8362SOL     OW25984   3.302   1.706   0.479  0.2035  0.2233  0.7031
 8362SOL    HW125985   3.282   1.766   0.401  0.0551  1.1835  1.4603
 8362SOL    HW225986   3.334   1.617   0.445  1.0003  0.9148 -0.4466
 8363SOL     OW25987   5.928   4.059   6.680 -0.0663  0.1223 -0.5200
 8363SOL    HW125988   5.840   4.062   6.633 -0.5990 -1.5932  0.2862
 8363SOL    HW225989   5.983   3.984   6.642  0.4242  0.1980  0.0289
 8364SOL     OW25990   6.629   5.537   3.609  0.3300  0.1304  0.0970
 8364SOL    HW125991   6.669   5.462   3.662  2.7065  1.2426  0.0157
 8364SOL    HW225992   6.569   5.591   3.668 -2.3704 -2.3974 -0.1299
 8365SOL     OW25993   0.984   4.032   5.903 -0.3612  0.2624 -0.4002
 8365SOL    HW125994   1.067   4.087   5.893  0.5673 -1.2460 -1.4315
 8365SOL    HW225995   0.949   4.040   5.996  0.2392  1.8572 -0.2793
 8366SOL     OW25996   1.382   1.117   3.799  0.2176 -0.3963 -0.9446
 8366SOL    HW125997   1.449   1.191   3.792  0.2371 -0.2410  0.6439
 8366SOL    HW225998   1.429   1.029   3.792  0.5743 -0.2854 -0.0476
 8367SOL     OW25999   5.076   4.010   4.325 -0.7104 -0.0703 -0.3934
 8367SOL    HW126000   5.105   3.988   4.419  0.1441  1.4604 -0.2601
 8367SOL    HW226001   5.151   4.057   4.278 -1.9036  1.2174 -1.0764
 8368SOL     OW26002   2.020   5.981   6.471  0.0214  0.1100 -0.4979
 8368SOL    HW126003   2.004   5.930   6.556 -2.4837  1.8820  0.2239
 8368SOL    HW226004   1.939   5.973   6.412  1.3947 -0.4138 -2.4092
 8369SOL     OW26005   2.944   5.967   6.772 -0.2785 -0.7697  0.5486
 8369SOL    HW126006   2.872   5.993   6.835 -0.4651  1.8580 -0.6143
 8369SOL    HW226007   2.942   6.028   6.692  2.2070 -1.6423 -0.2793
 8370SOL     OW26008   0.964   0.821   0.753 -0.4922 -0.1951  0.2400
 8370SOL    HW126009   1.064   0.821   0.751 -0.4830  1.1089 -0.6335
 8370SOL    HW226010   0.931   0.726   0.750  0.7155 -0.6695 -3.2544
 8371SOL     OW26011   1.723   2.488   0.027 -0.0752 -0.1244 -0.1583
 8371SOL    HW126012   1.644   2.434  -0.004  1.6987 -3.5251  0.7203
 8371SOL    HW226013   1.798   2.476  -0.039  0.3019  1.5757 -0.0636
 8372SOL     OW26014   0.646   2.930   0.480 -0.2062 -0.6172  0.1635
 8372SOL    HW126015   0.668   3.019   0.439 -1.4809 -0.8527 -1.1002
 8372SOL    HW226016   0.702   2.859   0.438  0.1758 -0.5368  0.5341
 8373SOL     OW26017   1.503   6.615   4.924 -0.0452 -0.0909 -0.2813
 8373SOL    HW126018   1.599   6.618   4.895 -0.0821  0.0120 -0.3939
 8373SOL    HW226019   1.460   6.703   4.904  0.2074  0.3619  1.0568
 8374SOL     OW26020   5.227   0.344   6.770 -0.0152 -0.6468 -0.7322
 8374SOL    HW126021   5.290   0.320   6.845 -1.2605 -1.3867  0.1174
 8374SOL    HW226022   5.190   0.435   6.785 -1.3843 -1.3484  0.3956
 8375SOL     OW26023   5.278   2.445   6.191 -0.6534  0.5134  0.2720
 8375SOL    HW126024   5.249   2.485   6.278 -0.4814 -1.5044  1.3078
 8375SOL    HW226025   5.378   2.450   6.184 -0.6566  0.5614  0.2596
 8376SOL     OW26026   6.225   6.916   3.558  0.2913  0.0053  0.6038
 8376SOL    HW126027   6.189   6.896   3.649  1.5898  1.4218  1.4596
 8376SOL    HW226028   6.303   6.856   3.539 -0.0513 -0.3691  0.3656
 8377SOL     OW26029   4.675   6.104   0.076 -0.0279 -0.4088 -0.3819
 8377SOL    HW126030   4.613   6.070   0.005  0.0086 -0.6204 -0.3154
 8377SOL    HW226031   4.652   6.198   0.099  0.0460 -0.2965 -0.7695
 8378SOL     OW26032   5.728   3.879   2.838 -0.8857  0.1018  0.6340
 8378SOL    HW126033   5.692   3.820   2.766 -0.7727 -2.0166  2.2135
 8378SOL    HW226034   5.715   3.975   2.812 -1.7058 -0.5727 -1.7274
 8379SOL     OW26035   5.016   2.196   2.590 -0.2708  0.2538 -0.1031
 8379SOL    HW126036   4.941   2.228   2.647 -0.1021  0.9590 -0.2624
 8379SOL    HW226037   5.103   2.227   2.629 -0.0536 -0.6689  0.1518
 8380SOL     OW26038   6.936   0.428   3.923 -0.8479  0.6834 -1.0240
 8380SOL    HW126039   6.966   0.469   3.837  0.6221  1.9483  0.0241
 8380SOL    HW226040   6.903   0.500   3.984 -0.9726 -0.0758 -0.1776
 8381SOL     OW26041   1.681   4.877   3.314 -0.2313 -0.1404  0.2082
 8381SOL    HW126042   1.670   4.791   3.364  0.6065 -0.1496  0.3926
 8381SOL    HW226043   1.592   4.921   3.304 -1.0704 -2.0604 -1.7781
 8382SOL     OW26044   6.224   3.052   2.511  0.1680 -0.1092 -0.1006
 8382SOL    HW126045   6.204   2.969   2.564  0.0170 -0.4876 -0.7328
 8382SOL    HW226046   6.175   3.048   2.424 -1.7748  1.7288  0.8055
 8383SOL     OW26047   3.358   1.334   4.567  0.3211 -0.2977  0.0063
 8383SOL    HW126048   3.282   1.270   4.580  0.0869 -0.2893 -1.2446
 8383SOL    HW226049   3.357   1.369   4.473  1.3305  0.4114  0.2435
 8384SOL     OW26050   0.691   0.102   3.462  0.4834 -0.1027  0.4716
 8384SOL    HW126051   0.681   0.108   3.561  0.2463  1.1482  0.3874
 8384SOL    HW226052   0.748   0.178   3.430 -2.0110  1.4041 -0.6791
 8385SOL     OW26053   5.343   4.136   2.950  0.0086 -0.0061 -0.5837
 8385SOL    HW126054   5.245   4.116   2.941  0.2124 -2.0381  1.0117
 8385SOL    HW226055   5.390   4.056   2.986  2.4408  0.6423 -2.0693
 8386SOL     OW26056   1.224   3.727   3.658  0.0311  0.3032  0.4073
 8386SOL    HW126057   1.124   3.733   3.666  0.2087  2.4770  1.8704
 8386SOL    HW226058   1.261   3.817   3.636  1.7809 -0.0907  1.5310
 8387SOL     OW26059   0.927   2.457   6.650  0.0459  0.0465  0.4796
 8387SOL    HW126060   0.925   2.357   6.655  1.8471 -0.0041  0.6849
 8387SOL    HW226061   0.977   2.486   6.569  1.7544  0.7381  1.7212
 8388SOL     OW26062   1.882   6.916   3.729 -0.1336 -0.4200  0.0505
 8388SOL    HW126063   1.848   6.849   3.796  0.7242 -0.3804  0.5426
 8388SOL    HW226064   1.930   6.868   3.655  2.4216 -0.3103  1.5110
 8389SOL     OW26065   1.192   1.625   3.509  0.0914 -0.4746 -0.1273
 8389SOL    HW126066   1.257   1.679   3.563  2.2908 -0.9469 -2.1327
 8389SOL    HW226067   1.178   1.669   3.420 -1.5288 -0.9639 -0.1390
 8390SOL     OW26068   6.006   2.677   6.984  0.2314 -0.3884  0.0740
 8390SOL    HW126069   5.945   2.641   6.914  1.5760 -0.2302 -1.2524
 8390SOL    HW226070   6.044   2.601   7.038  1.5680 -0.8419 -1.4376
 8391SOL     OW26071   0.382   0.934   2.122  0.1441 -0.0234 -0.3748
 8391SOL    HW126072   0.436   0.983   2.053  0.8583  1.1993  0.9760
 8391SOL    HW226073   0.431   0.937   2.209 -2.0129  0.9780  0.8847
 8392SOL     OW26074   4.089   3.379   5.456  0.1090 -0.1678  0.5865
 8392SOL    HW126075   4.073   3.477   5.465 -1.1232 -0.4785  2.1331
 8392SOL    HW226076   4.014   3.329   5.498  0.6091 -1.7999 -0.3605
 8393SOL     OW26077   5.701   6.959   0.394  0.6469  0.3933 -0.8329
 8393SOL    HW126078   5.715   6.864   0.365 -0.2404  0.5603 -1.8797
 8393SOL    HW226079   5.735   7.020   0.323  0.9737  0.8679 -0.2737
 8394SOL     OW26080   6.393   2.966   2.153 -0.1559  0.4409  0.0720
 8394SOL    HW126081   6.439   3.008   2.231  0.6173  2.0239 -1.1560
 8394SOL    HW226082   6.461   2.947   2.082 -0.7794 -1.3430 -0.0846
 8395SOL     OW26083   3.959   0.781   3.625 -0.9932 -0.0357 -0.1287
 8395SOL    HW126084   3.941   0.720   3.702  1.0382  0.1124  0.5204
 8395SOL    HW226085   3.929   0.873   3.647 -1.5262 -0.2399  0.0038
 8396SOL     OW26086   5.559   3.511   3.114  0.2203  0.1081 -0.7141
 8396SOL    HW126087   5.524   3.524   3.207  1.4704 -0.9021 -0.0565
 8396SOL    HW226088   5.553   3.414   3.090  1.0143  0.1781 -1.2238
 8397SOL     OW26089   6.908   1.955   2.470 -0.2511 -0.7011 -0.4036
 8397SOL    HW126090   6.917   2.029   2.403 -2.3101 -0.8106 -0.8850
 8397SOL    HW226091   6.983   1.960   2.535 -0.2814  1.8240 -0.4328
 8398SOL     OW26092   3.522   0.698   5.616  0.8561 -0.5448 -0.1721
 8398SOL    HW126093   3.587   0.764   5.653  1.7028  0.5933 -3.3589
 8398SOL    HW226094   3.439   0.745   5.588  1.9724 -0.3598 -3.7156
 8399SOL     OW26095   4.962   2.813   0.756 -0.5292 -0.2180  0.0296
 8399SOL    HW126096   5.002   2.842   0.668 -2.0975  0.0809 -0.6210
 8399SOL    HW226097   5.035   2.796   0.821  0.6365  0.8974 -0.9223
 8400SOL     OW26098   2.802   1.077   3.927  0.3284 -0.4311 -0.1687
 8400SOL    HW126099   2.868   1.098   3.855 -0.1211 -0.4976 -0.6062
 8400SOL    HW226100   2.739   1.154   3.937  1.5740  0.4430  1.5293
 8401SOL     OW26101   1.490   6.062   6.406  1.0335 -0.3408 -1.0350
 8401SOL    HW126102   1.563   5.996   6.422 -2.0419 -3.7322  0.5003
 8401SOL    HW226103   1.474   6.115   6.489  0.7815 -0.6988 -0.8513
 8402SOL     OW26104   3.785   0.953   5.033 -0.2770  0.0002  0.0308
 8402SOL    HW126105   3.847   0.988   4.963 -0.2019 -0.4241 -0.1213
 8402SOL    HW226106   3.698   1.001   5.027  0.0118  0.5546  0.2031
 8403SOL     OW26107   5.914   4.404   5.471  0.0880  0.4329  0.5945
 8403SOL    HW126108   5.824   4.447   5.481  0.6185  1.2599  2.0511
 8403SOL    HW226109   5.933   4.392   5.373 -1.3653  0.7329  0.2370
 8404SOL     OW26110   0.668   1.121   0.253  0.5518  0.2282 -0.0278
 8404SOL    HW126111   0.610   1.199   0.229 -1.6315 -1.4703 -0.6155
 8404SOL    HW226112   0.760   1.136   0.218 -0.5331  1.3199 -2.7035
 8405SOL     OW26113   5.121   7.003   6.125 -0.2869  0.5447 -0.3486
 8405SOL    HW126114   5.177   6.940   6.072 -1.5456 -0.1146 -0.9518
 8405SOL    HW226115   5.176   7.081   6.153  0.6160  0.5498 -1.9913
 8406SOL     OW26116   2.935   1.166   6.026 -0.1464  0.2524  0.2556
 8406SOL    HW126117   3.018   1.150   6.079 -0.5508 -0.5372  0.6729
 8406SOL    HW226118   2.955   1.227   5.950  0.7479  0.2976  0.5177
 8407SOL     OW26119   4.606   6.581   4.573 -0.6814  0.2004 -0.4746
 8407SOL    HW126120   4.689   6.625   4.609  0.0723 -1.4388 -0.1195
 8407SOL    HW226121   4.621   6.555   4.478 -0.9241  0.2336 -0.5213
 8408SOL     OW26122   5.500   1.469   1.216 -0.4640 -0.0289 -0.0088
 8408SOL    HW126123   5.415   1.429   1.182 -1.1162 -0.1775  1.6861
 8408SOL    HW226124   5.495   1.569   1.210 -1.0454 -0.0100  0.6912
 8409SOL     OW26125   4.442   0.958   6.948 -0.4928  0.4546  0.0253
 8409SOL    HW126126   4.355   0.992   6.912 -0.4265  0.2194 -0.3723
 8409SOL    HW226127   4.427   0.915   7.037 -0.4601  2.1163  0.8600
 8410SOL     OW26128   6.839   2.819   2.997 -0.6934  0.0422  0.9478
 8410SOL    HW126129   6.771   2.882   2.959 -0.6177  0.9857  2.2928
 8410SOL    HW226130   6.803   2.778   3.081  0.3435  0.5037  1.6456
 8411SOL     OW26131   1.549   5.918   1.742  0.3603  0.7660  0.4096
 8411SOL    HW126132   1.555   5.887   1.647  1.1477  2.0807  0.0113
 8411SOL    HW226133   1.586   6.010   1.749  1.0685  0.3762  2.1567
 8412SOL     OW26134   2.154   3.693   6.199  0.0636  0.2392 -0.0966
 8412SOL    HW126135   2.059   3.715   6.175 -0.0309  1.3403  1.1220
 8412SOL    HW226136   2.215   3.760   6.158  0.3400 -0.5715 -1.0220
 8413SOL     OW26137   3.690   5.235   4.323  0.0402  0.0289 -0.5388
 8413SOL    HW126138   3.685   5.185   4.410 -0.6825 -0.6369 -0.9555
 8413SOL    HW226139   3.628   5.313   4.327 -0.1455 -0.1165 -0.5215
 8414SOL     OW26140   2.105   1.169   2.615  0.6514 -0.0140  0.3324
 8414SOL    HW126141   2.051   1.253   2.617  0.1864 -0.2067 -1.7642
 8414SOL    HW226142   2.203   1.193   2.611  0.6498  0.3599  1.9251
 8415SOL     OW26143   2.419   0.457   6.937  0.9699  0.4963 -0.0840
 8415SOL    HW126144   2.442   0.378   6.993  1.3976 -0.0337 -0.9899
 8415SOL    HW226145   2.333   0.497   6.970  0.6918 -0.3995  0.3161
 8416SOL     OW26146   6.336   2.091   5.568  0.4575  0.6492  0.5370
 8416SOL    HW126147   6.259   2.078   5.506  1.2415 -2.9941  0.1189
 8416SOL    HW226148   6.410   2.139   5.519 -0.1659  0.8464 -0.2357
 8417SOL     OW26149   0.017   3.287   4.687  0.3295 -0.0592 -0.3627
 8417SOL    HW126150   0.072   3.308   4.606 -1.1527  2.8884 -0.7472
 8417SOL    HW226151  -0.068   3.242   4.658  0.5279 -0.5104 -0.2511
 8418SOL     OW26152   1.129   0.326   4.609  0.2026 -0.1418  0.5964
 8418SOL    HW126153   1.131   0.251   4.676  1.4805 -0.2391  0.4731
 8418SOL    HW226154   1.188   0.304   4.532 -2.5304 -0.8094 -1.4934
 8419SOL     OW26155   4.530   6.837   3.667 -0.4852 -0.3488  0.3800
 8419SOL    HW126156   4.434   6.840   3.637 -0.0169 -1.1131 -1.2887
 8419SOL    HW226157   4.554   6.925   3.708 -1.2527  0.7173 -1.3235
 8420SOL     OW26158   4.936   0.913   1.345  0.0589 -0.0180 -0.8317
 8420SOL    HW126159   4.893   0.877   1.428  2.1959 -2.2302 -0.5531
 8420SOL    HW226160   4.919   0.850   1.269  2.5776 -0.9435 -0.7242
 8421SOL     OW26161   2.610   5.306   5.556 -0.4438 -0.6017 -0.1016
 8421SOL    HW126162   2.680   5.313   5.627  0.5865 -1.1973 -1.0169
 8421SOL    HW226163   2.534   5.249   5.589 -1.3226  1.4055  1.5044
 8422SOL     OW26164   6.981   2.788   4.777  0.0015  0.3088 -0.4623
 8422SOL    HW126165   7.050   2.761   4.710  2.1078  1.6374  1.0474
 8422SOL    HW226166   6.964   2.712   4.840  1.1261  0.3731 -0.0532
 8423SOL     OW26167   6.510   5.759   6.211  0.2650  0.1891  0.3120
 8423SOL    HW126168   6.496   5.739   6.114  2.2651 -2.2251  0.4504
 8423SOL    HW226169   6.426   5.738   6.261  0.2045 -1.6269 -0.4959
 8424SOL     OW26170   4.213   0.537   4.680 -0.2422 -0.2477  0.2698
 8424SOL    HW126171   4.275   0.603   4.639  1.5220 -3.2145 -2.2861
 8424SOL    HW226172   4.244   0.514   4.772  0.7661  0.4107  0.1044
 8425SOL     OW26173   3.956   3.979   3.175  0.1728 -0.2240  0.3870
 8425SOL    HW126174   3.890   3.942   3.110 -0.2535 -0.9098  1.2024
 8425SOL    HW226175   3.908   4.016   3.254  0.7196  0.1440  0.5521
 8426SOL     OW26176   2.792   2.843   1.011  0.0253 -0.1378 -0.0427
 8426SOL    HW126177   2.776   2.753   1.051  0.5048 -0.6164 -0.9147
 8426SOL    HW226178   2.827   2.905   1.082 -1.2897 -0.3263  0.8085
 8427SOL     OW26179   3.172   4.058   4.463 -0.0317 -0.5057 -0.4784
 8427SOL    HW126180   3.244   4.124   4.488  1.1965 -1.9868  0.0376
 8427SOL    HW226181   3.118   4.036   4.545 -0.7304  0.1555 -0.7439
 8428SOL     OW26182   1.120   0.474   2.394 -0.1484  0.0821 -0.0663
 8428SOL    HW126183   1.116   0.439   2.301  0.4746  0.0901 -0.0990
 8428SOL    HW226184   1.205   0.525   2.407  0.1368 -0.5668  0.7275
 8429SOL     OW26185   2.821   6.725   4.700  0.3570 -0.4792 -0.5440
 8429SOL    HW126186   2.886   6.744   4.627  0.0915 -0.7202 -0.8442
 8429SOL    HW226187   2.747   6.792   4.698  0.7375 -0.0309 -0.0237
 8430SOL     OW26188   3.990   1.248   4.689 -0.1584  0.0532 -0.2713
 8430SOL    HW126189   4.044   1.330   4.707 -0.1096  0.1222 -0.7190
 8430SOL    HW226190   3.892   1.270   4.698 -0.2466  0.6548 -2.2270
 8431SOL     OW26191   0.472   3.415   5.955 -0.0281  0.1146  0.2770
 8431SOL    HW126192   0.531   3.396   5.877 -1.2486  2.1238 -1.2435
 8431SOL    HW226193   0.489   3.348   6.027  2.7096 -0.5035 -0.8203
 8432SOL     OW26194   6.036   5.051   6.561 -0.1250 -0.0461 -0.0835
 8432SOL    HW126195   6.087   5.003   6.491  0.5751  0.1324  0.2938
 8432SOL    HW226196   6.088   5.131   6.591 -0.1963 -0.3800  0.9671
 8433SOL     OW26197   5.859   1.237   2.053  0.4720  0.0119 -0.3745
 8433SOL    HW126198   5.955   1.256   2.035  0.9274 -1.3644  0.4852
 8433SOL    HW226199   5.846   1.139   2.067 -1.0329  0.1925 -0.2826
 8434SOL     OW26200   1.179   3.939   6.113  0.6371 -0.0308 -0.2285
 8434SOL    HW126201   1.174   4.033   6.080 -1.7374 -0.0625 -0.1133
 8434SOL    HW226202   1.091   3.911   6.150  1.3952 -2.1779  0.1429
 8435SOL     OW26203   5.803   1.384   3.898 -0.0674 -0.3750  0.1833
 8435SOL    HW126204   5.835   1.302   3.944  0.6383  0.0651  0.4956
 8435SOL    HW226205   5.878   1.427   3.848  0.8356  2.4381  3.5254
 8436SOL     OW26206   1.311   3.156   3.385  0.2083 -0.4582  0.2810
 8436SOL    HW126207   1.336   3.147   3.482 -3.3445  1.4696  1.5785
 8436SOL    HW226208   1.351   3.240   3.348  0.8851 -0.7506  0.3534
 8437SOL     OW26209   1.135   6.441   1.087 -0.3375  0.1940 -0.2447
 8437SOL    HW126210   1.143   6.357   1.034  1.0427 -0.2489  0.6212
 8437SOL    HW226211   1.046   6.444   1.132 -0.5258 -0.6445 -0.5480
 8438SOL     OW26212   0.560   4.175   0.915 -0.6878  0.1777 -0.0582
 8438SOL    HW126213   0.585   4.199   1.009  0.8642 -2.1558  0.1886
 8438SOL    HW226214   0.481   4.231   0.887  1.3915  4.0269  1.0436
 8439SOL     OW26215   5.000   4.972   2.209  0.2200  0.1686 -0.8265
 8439SOL    HW126216   5.021   5.048   2.147  1.2631  1.5898  1.1450
 8439SOL    HW226217   5.033   4.887   2.169 -0.0094  0.8696 -2.6299
 8440SOL     OW26218   2.264   1.536   2.454  0.5067 -0.0112 -0.4116
 8440SOL    HW126219   2.314   1.465   2.405  0.0755 -1.2166  0.8394
 8440SOL    HW226220   2.307   1.551   2.543 -0.9552 -0.6317  0.4333
 8441SOL     OW26221   6.317   3.943   6.120  0.1906  0.0710  0.3342
 8441SOL    HW126222   6.279   4.005   6.188  0.8141  1.4282 -0.4921
 8441SOL    HW226223   6.302   3.981   6.028  1.5381 -0.4622 -0.1351
 8442SOL     OW26224   3.849   2.639   1.309  0.0083  0.0239 -0.4526
 8442SOL    HW126225   3.907   2.710   1.269 -1.4910  0.4293 -2.0055
 8442SOL    HW226226   3.785   2.605   1.240  0.7781 -3.0151  0.1778
 8443SOL     OW26227   1.968   2.451   2.503  0.2238 -0.1567  0.5838
 8443SOL    HW126228   1.987   2.524   2.438 -0.0863  0.1888  0.8809
 8443SOL    HW226229   1.961   2.364   2.454  0.6933 -0.0056  0.2436
 8444SOL     OW26230   4.455   5.734   5.571  0.7529 -0.0415  0.1306
 8444SOL    HW126231   4.416   5.712   5.661 -0.6175  1.2805 -0.1137
 8444SOL    HW226232   4.549   5.699   5.567  0.1825 -1.8693  1.3337
 8445SOL     OW26233   4.566   0.717   6.871 -0.3901  0.0207  0.2655
 8445SOL    HW126234   4.562   0.657   6.951 -1.9716 -1.4723 -0.8622
 8445SOL    HW226235   4.527   0.806   6.895 -5.0504 -1.7240  0.2118
 8446SOL     OW26236   5.553   4.698   5.927  0.6812  0.2165 -0.6025
 8446SOL    HW126237   5.492   4.648   5.987  1.2304 -0.2653 -0.4418
 8446SOL    HW226238   5.572   4.788   5.966 -0.5703  0.7064 -1.0571
 8447SOL     OW26239   2.680   6.312   3.900  0.0925 -0.1291 -0.0296
 8447SOL    HW126240   2.705   6.266   3.985  2.0323  0.8444 -0.0095
 8447SOL    HW226241   2.627   6.394   3.921  0.1630 -0.1455  0.2145
 8448SOL     OW26242   4.182   5.370   3.048  0.2168  0.2113  0.6142
 8448SOL    HW126243   4.183   5.445   3.114 -0.8586 -0.3174  1.2693
 8448SOL    HW226244   4.209   5.285   3.094  0.3985  0.0073  0.1380
 8449SOL     OW26245   2.942   2.210   2.635  0.3657 -0.0653  0.4224
 8449SOL    HW126246   2.856   2.164   2.656  0.1180  0.6394  1.0130
 8449SOL    HW226247   2.957   2.211   2.536 -0.5395  0.2117  0.2801
 8450SOL     OW26248   2.023   1.225   4.847 -0.0209  0.3083  0.3422
 8450SOL    HW126249   2.017   1.161   4.770 -1.6915 -2.2399  2.4449
 8450SOL    HW226250   2.114   1.268   4.848  0.9092 -1.4558 -1.5672
 8451SOL     OW26251   3.077   2.401   0.424  0.5289 -0.5903 -0.2495
 8451SOL    HW126252   3.068   2.429   0.328 -1.3623 -0.1358  0.0120
 8451SOL    HW226253   2.999   2.437   0.476  1.2936 -1.1990  1.3775
 8452SOL     OW26254   4.930   1.461   6.654 -0.7041  0.7858  0.3460
 8452SOL    HW126255   5.028   1.449   6.671 -0.1474  2.1827 -1.4281
 8452SOL    HW226256   4.902   1.552   6.685 -0.3427  2.1672 -2.9585
 8453SOL     OW26257   6.991   6.847   1.138 -0.3894 -0.2188 -0.1604
 8453SOL    HW126258   7.074   6.887   1.099 -0.3279 -0.7272 -0.5595
 8453SOL    HW226259   6.958   6.774   1.079  0.7905 -2.3569  1.6612
 8454SOL     OW26260   6.910   4.822   6.354  0.2629 -0.3674 -0.0793
 8454SOL    HW126261   6.893   4.811   6.452  1.7366 -1.8101  0.0701
 8454SOL    HW226262   6.991   4.879   6.340  1.0065 -1.4464 -0.3548
 8455SOL     OW26263   0.557   0.610   2.624 -0.3002 -0.4002 -0.3079
 8455SOL    HW126264   0.480   0.637   2.566  1.7212  1.2293 -2.4248
 8455SOL    HW226265   0.557   0.665   2.707 -0.9763  0.1220 -0.6478
 8456SOL     OW26266   0.936   3.794   3.694 -0.2468  0.6727 -0.2169
 8456SOL    HW126267   0.855   3.754   3.738  0.3397 -0.6969 -0.3149
 8456SOL    HW226268   0.908   3.850   3.617 -1.0626 -1.4391 -1.5421
 8457SOL     OW26269   0.095   0.811   3.310  0.1815 -0.5886  0.1555
 8457SOL    HW126270   0.003   0.828   3.273 -0.3366  0.4785  1.8296
 8457SOL    HW226271   0.137   0.898   3.334  0.7645 -1.2095  1.4291
 8458SOL     OW26272   1.450   6.265   5.412 -0.4326 -0.5227 -0.7210
 8458SOL    HW126273   1.416   6.286   5.320 -0.1244 -0.6755 -0.8698
 8458SOL    HW226274   1.542   6.304   5.423 -0.6046 -0.2060 -0.3569
 8459SOL     OW26275   1.899   4.915   4.864 -0.0450  0.2562 -0.4912
 8459SOL    HW126276   1.970   4.920   4.793 -0.0805 -0.7359 -0.6098
 8459SOL    HW226277   1.938   4.876   4.947 -0.2800  0.3710 -0.3253
 8460SOL     OW26278   4.075   3.715   4.958  0.0357  0.2043  0.5593
 8460SOL    HW126279   4.117   3.668   4.881 -0.1439  0.2533  0.4320
 8460SOL    HW226280   4.146   3.739   5.025  0.0915 -0.4650  0.7450
 8461SOL     OW26281   5.886   2.960   3.455 -0.1214  0.2159 -0.0280
 8461SOL    HW126282   5.924   2.985   3.544  0.0965  2.7751 -0.7671
 8461SOL    HW226283   5.958   2.963   3.385 -1.0327  2.3951 -0.9593
 8462SOL     OW26284   1.348   2.341   0.532 -0.1855  0.6496 -0.2257
 8462SOL    HW126285   1.429   2.290   0.558 -0.5581 -0.5489 -1.2875
 8462SOL    HW226286   1.273   2.277   0.512 -1.4102  1.7198  0.7712
 8463SOL     OW26287   0.504   5.843   1.958  0.1755 -0.0596 -0.1718
 8463SOL    HW126288   0.459   5.927   1.928 -0.4082 -0.0712  0.6370
 8463SOL    HW226289   0.449   5.800   2.030  1.8740  0.3565  1.4508
 8464SOL     OW26290   5.972   2.610   4.763  0.0693 -0.0732 -0.9346
 8464SOL    HW126291   5.895   2.657   4.806  0.0155 -0.2987 -0.7809
 8464SOL    HW226292   6.035   2.677   4.724  0.3590  0.1537 -0.0901
 8465SOL     OW26293   2.930   0.897   7.017  0.1340 -0.3684  0.6376
 8465SOL    HW126294   2.979   0.984   7.014 -0.4288 -0.0497  0.5020
 8465SOL    HW226295   2.987   0.825   6.977 -0.9368  0.7377 -3.4148
 8466SOL     OW26296   0.239   0.647   4.068 -0.1093 -0.1163  0.3241
 8466SOL    HW126297   0.329   0.658   4.026 -0.3999 -0.9909 -0.5741
 8466SOL    HW226298   0.249   0.601   4.156  0.4354  1.0585  0.9079
 8467SOL     OW26299   2.349   6.341   0.224 -0.3544 -0.3121 -0.1887
 8467SOL    HW126300   2.307   6.415   0.277  1.2393 -0.3525  1.2165
 8467SOL    HW226301   2.371   6.375   0.132 -0.2463  0.7843  0.2204
 8468SOL     OW26302   1.982   1.439   1.006  0.1687  0.0966 -0.0221
 8468SOL    HW126303   2.029   1.362   0.962  1.6115  1.8820 -1.8442
 8468SOL    HW226304   2.047   1.515   1.016 -1.8052  1.9449 -0.6333
 8469SOL     OW26305   3.385   1.757   5.498 -0.0449  0.2185 -0.1799
 8469SOL    HW126306   3.449   1.685   5.472 -0.7117  0.2166 -1.9674
 8469SOL    HW226307   3.428   1.846   5.487 -0.6071  0.2597 -2.2885
 8470SOL     OW26308   1.431   1.959   0.409 -0.4801  0.4385 -0.5824
 8470SOL    HW126309   1.442   2.032   0.476  0.6860  0.3304 -0.6219
 8470SOL    HW226310   1.519   1.913   0.396 -1.2146 -1.0585 -0.4717
 8471SOL     OW26311   4.078   1.002   4.185 -0.2793  0.4581 -0.1726
 8471SOL    HW126312   4.045   0.965   4.271 -2.0490  0.1948 -0.9232
 8471SOL    HW226313   4.178   1.010   4.188 -0.3084  0.4664  1.8698
 8472SOL     OW26314   2.902   6.013   3.778  0.2325  0.1782  0.2818
 8472SOL    HW126315   2.956   5.972   3.705  3.0196  1.2738  1.5424
 8472SOL    HW226316   2.919   5.963   3.863 -1.6376 -0.0646  0.5478
 8473SOL     OW26317   6.697   4.326   6.118 -0.1311  0.7142  0.0123
 8473SOL    HW126318   6.742   4.387   6.183 -0.5232  0.3338  0.6610
 8473SOL    HW226319   6.762   4.256   6.087  0.2572  1.3302 -0.5678
 8474SOL     OW26320   2.980   6.038   0.841 -0.1000  0.5290 -0.5442
 8474SOL    HW126321   3.036   6.053   0.923  0.3917  0.0284 -0.7786
 8474SOL    HW226322   2.887   6.012   0.868 -0.0790  0.8477 -0.1506
 8475SOL     OW26323   5.116   3.240   3.048 -0.3370 -0.1141 -0.2425
 8475SOL    HW126324   5.170   3.277   3.124 -1.0941 -0.1397  0.3154
 8475SOL    HW226325   5.120   3.303   2.970 -1.5877  1.1783  0.6837
 8476SOL     OW26326   5.476   1.044   0.996  0.2455 -0.3214  0.1928
 8476SOL    HW126327   5.551   0.989   1.032  1.2483  1.0098  0.2217
 8476SOL    HW226328   5.496   1.141   1.010 -0.5007  0.1578 -1.7248
 8477SOL     OW26329   2.495   6.032   2.993  0.1850  0.0190  0.0383
 8477SOL    HW126330   2.528   5.977   3.070  4.0444 -0.1736 -1.5688
 8477SOL    HW226331   2.520   5.987   2.907 -1.4567  1.6465 -1.3693
 8478SOL     OW26332   2.607   0.172   5.288  0.3484  0.4314  0.0418
 8478SOL    HW126333   2.605   0.179   5.387  0.4587 -0.8974  0.1598
 8478SOL    HW226334   2.540   0.235   5.248  1.2623  1.9820  0.8651
 8479SOL     OW26335   4.946   2.143   2.077 -0.3861  0.1205  0.7198
 8479SOL    HW126336   4.935   2.209   2.151 -0.2966 -0.4360  1.2316
 8479SOL    HW226337   4.872   2.076   2.080 -0.4120  0.1233  0.2739
 8480SOL     OW26338   1.892   0.538   1.794 -0.6012 -0.1582 -0.8266
 8480SOL    HW126339   1.937   0.538   1.883  1.4483 -1.5305 -1.7932
 8480SOL    HW226340   1.854   0.448   1.776 -1.0103  0.1135 -1.3429
 8481SOL     OW26341   6.445   6.418   0.592  0.1664 -0.2747 -0.1372
 8481SOL    HW126342   6.399   6.393   0.677 -0.0263  2.5079  0.6730
 8481SOL    HW226343   6.498   6.340   0.559 -2.0346 -2.3586  0.9341
 8482SOL     OW26344   1.045   6.980   2.094 -0.4240  0.2148  0.1302
 8482SOL    HW126345   1.113   7.048   2.065  0.7267 -0.2428  1.6040
 8482SOL    HW226346   1.007   7.007   2.182 -1.4572 -0.0478 -0.2216
 8483SOL     OW26347   6.804   0.034   1.496  0.3530 -0.0259 -0.4490
 8483SOL    HW126348   6.785  -0.013   1.410  0.6867 -1.3215  0.1607
 8483SOL    HW226349   6.752  -0.009   1.570 -0.6384  1.6321 -0.1111
 8484SOL     OW26350   5.564   2.114   4.545  0.3810 -0.4420 -0.1435
 8484SOL    HW126351   5.597   2.020   4.532  2.1168  0.0804  0.2140
 8484SOL    HW226352   5.560   2.160   4.456  1.4633 -0.2696 -0.1187
 8485SOL     OW26353   0.920   2.718   5.861 -0.3345  0.5694 -0.3420
 8485SOL    HW126354   0.865   2.788   5.816  1.2558  2.5117  0.5576
 8485SOL    HW226355   0.952   2.753   5.950 -0.1087 -1.6169  0.5053
 8486SOL     OW26356   4.723   0.175   4.246  0.0280 -0.4043 -0.2185
 8486SOL    HW126357   4.804   0.232   4.232  0.0751 -0.4928 -0.3115
 8486SOL    HW226358   4.744   0.105   4.315 -0.4382  0.4963  0.8656
 8487SOL     OW26359   2.597   1.155   0.038 -0.1658 -0.0486 -0.1442
 8487SOL    HW126360   2.542   1.234   0.068  0.5302 -0.2043  1.6502
 8487SOL    HW226361   2.672   1.140   0.102  0.6440 -1.2416 -1.3167
 8488SOL     OW26362   5.536   6.030   3.454 -0.1125 -0.0242 -0.1720
 8488SOL    HW126363   5.440   6.018   3.427  0.0311  0.3267 -0.8678
 8488SOL    HW226364   5.561   5.959   3.520 -0.9685  0.1335  0.3384
 8489SOL     OW26365   2.484   6.058   1.953 -0.0504  0.0430  0.5259
 8489SOL    HW126366   2.491   6.098   2.044  1.9957 -2.6895  1.7348
 8489SOL    HW226367   2.412   5.989   1.952 -0.7691  0.7784 -0.2844
 8490SOL     OW26368   4.430   5.646   1.499  0.6040 -0.0029  0.2192
 8490SOL    HW126369   4.371   5.724   1.520  0.3828 -0.4553  1.3623
 8490SOL    HW226370   4.514   5.653   1.552  1.8038  0.8511 -1.7024
 8491SOL     OW26371   2.995   0.528   2.816  0.0135  0.1323 -0.0083
 8491SOL    HW126372   2.937   0.455   2.778  0.9822 -0.8212  0.2715
 8491SOL    HW226373   3.006   0.514   2.914 -0.4273  1.1262  0.1901
 8492SOL     OW26374   5.992   3.829   5.732  0.2697 -0.6898  0.1053
 8492SOL    HW126375   5.976   3.885   5.651 -1.0827 -0.8797  0.2322
 8492SOL    HW226376   5.911   3.775   5.753  0.2898 -0.0538  2.0609
 8493SOL     OW26377   3.834   1.490   0.881 -0.1740  0.4353  0.0195
 8493SOL    HW126378   3.868   1.426   0.950  0.0543 -0.4682 -0.9145
 8493SOL    HW226379   3.897   1.568   0.872  0.7107 -0.3145 -0.4013
 8494SOL     OW26380   4.620   3.795   6.287  0.4986  0.1208  0.1289
 8494SOL    HW126381   4.531   3.798   6.240  0.8681 -3.5056 -1.1280
 8494SOL    HW226382   4.607   3.815   6.384 -1.9895 -1.5376  0.2511
 8495SOL     OW26383   6.980   1.618   0.909  0.2196 -0.1709  0.2185
 8495SOL    HW126384   6.998   1.524   0.880 -0.9367 -0.3542  0.0491
 8495SOL    HW226385   7.051   1.678   0.873  1.3732 -1.0682  0.9292
 8496SOL     OW26386   1.039   0.889   2.282  0.0636 -0.9160  0.1639
 8496SOL    HW126387   1.126   0.891   2.331 -0.5392 -2.6358  1.3956
 8496SOL    HW226388   1.001   0.982   2.277  1.3435 -0.3441  0.7418
 8497SOL     OW26389   6.239   4.226   2.798 -0.1783 -0.6465 -0.6735
 8497SOL    HW126390   6.180   4.185   2.729 -0.7697 -1.1879  0.1471
 8497SOL    HW226391   6.331   4.239   2.759 -0.4036 -1.2713 -1.4439
 8498SOL     OW26392   6.977   1.046   1.598  0.5820 -0.2682  0.0876
 8498SOL    HW126393   7.029   1.049   1.684 -0.9449 -0.4714  1.0524
 8498SOL    HW226394   7.013   0.973   1.540  1.1095 -0.6707  0.9018
 8499SOL     OW26395   0.900   3.120   6.690 -0.2560 -0.2807  0.2613
 8499SOL    HW126396   0.822   3.173   6.724 -1.5713 -1.6523 -0.5052
 8499SOL    HW226397   0.888   3.024   6.714  0.4011 -0.7644 -1.2599
 8500SOL     OW26398   4.399   6.979   4.510 -0.4560  0.0952 -0.5779
 8500SOL    HW126399   4.430   7.062   4.464 -1.8664  0.8307 -0.2706
 8500SOL    HW226400   4.382   6.908   4.443  0.8678 -0.0123 -0.8376
 8501SOL     OW26401   3.744   4.159   6.559  0.6362 -0.5252 -0.0784
 8501SOL    HW126402   3.697   4.202   6.481  1.9141  0.4604 -0.3381
 8501SOL    HW226403   3.832   4.122   6.528 -0.0790 -2.6671  0.3244
 8502SOL     OW26404   0.246   5.284   1.901 -0.6186  0.5123 -0.4161
 8502SOL    HW126405   0.159   5.233   1.902  0.0412 -0.7072 -1.5898
 8502SOL    HW226406   0.318   5.227   1.940  0.3236  0.1297 -2.5815
 8503SOL     OW26407   4.324   5.007   5.098  0.4889  0.3505  0.3064
 8503SOL    HW126408   4.294   5.020   5.192 -2.8536  1.8054 -0.7793
 8503SOL    HW226409   4.252   5.040   5.036  2.6187 -0.3744 -2.7679
 8504SOL     OW26410   2.239   5.899   2.962 -0.4468 -0.2265  0.7848
 8504SOL    HW126411   2.253   5.800   2.962 -0.3567 -0.2764 -1.5026
 8504SOL    HW226412   2.325   5.945   2.941 -0.7133  0.2588  0.7293
 8505SOL     OW26413   4.784   2.875   4.989 -0.9577 -0.7324  0.4033
 8505SOL    HW126414   4.723   2.867   5.067 -1.2134 -3.0620  0.0304
 8505SOL    HW226415   4.858   2.809   4.997  0.6318  0.9113  0.0212
 8506SOL     OW26416   1.260   0.617   1.310 -0.4490 -0.2825  0.1521
 8506SOL    HW126417   1.216   0.547   1.367  0.2424 -0.8453  0.0057
 8506SOL    HW226418   1.228   0.608   1.216 -0.9523  0.1117  0.2763
 8507SOL     OW26419   1.036   4.989   5.975  0.5174  0.2193  0.7219
 8507SOL    HW126420   1.058   5.051   6.050 -0.8564  1.9571 -0.2077
 8507SOL    HW226421   1.090   5.015   5.894  0.8322 -0.6016  0.6650
 8508SOL     OW26422   0.444   4.653   6.432  0.4241 -0.5635 -0.5138
 8508SOL    HW126423   0.361   4.648   6.376  0.8371 -1.9162 -1.0416
 8508SOL    HW226424   0.423   4.699   6.518 -0.9153 -0.9886 -0.5851
 8509SOL     OW26425   6.110   1.686   6.230  0.3909  0.4723 -0.5622
 8509SOL    HW126426   6.146   1.608   6.282 -0.8750  1.7522  2.4629
 8509SOL    HW226427   6.037   1.655   6.169 -1.0934 -0.6124  1.6433
 8510SOL     OW26428   6.014   6.084   1.011 -0.0472  0.2505 -0.4537
 8510SOL    HW126429   6.088   6.017   1.007 -2.0649 -2.1851  0.7146
 8510SOL    HW226430   5.968   6.088   0.922 -0.2991 -0.4027 -0.3574
 8511SOL     OW26431   5.910   5.719   1.536  0.4844 -0.2042  0.5968
 8511SOL    HW126432   5.919   5.619   1.538  0.4155 -0.2063  1.0243
 8511SOL    HW226433   5.988   5.760   1.583  1.0312 -0.0136 -0.4560
 8512SOL     OW26434   2.803   1.607   5.845  0.4227 -0.8651 -0.2658
 8512SOL    HW126435   2.870   1.534   5.861 -1.0667 -1.9910  1.1134
 8512SOL    HW226436   2.735   1.607   5.919  0.9898  2.6693  0.4655
 8513SOL     OW26437   6.777   3.627   6.659  0.2659  0.4226  0.4766
 8513SOL    HW126438   6.812   3.546   6.706  1.1997  0.2657 -0.4633
 8513SOL    HW226439   6.767   3.608   6.562 -2.8802  0.3356  0.7121
 8514SOL     OW26440   1.244   2.391   5.521 -0.0692 -0.2942 -0.3891
 8514SOL    HW126441   1.192   2.457   5.576 -0.4084  0.1888 -1.2699
 8514SOL    HW226442   1.338   2.387   5.555  0.1315  1.1207 -0.6951
 8515SOL     OW26443   5.146   1.562   3.864  0.3086  0.8907  0.0185
 8515SOL    HW126444   5.102   1.490   3.811 -2.5811  2.5966 -0.1052
 8515SOL    HW226445   5.159   1.643   3.806 -1.9087  2.4145  1.4745
 8516SOL     OW26446   4.898   2.701   3.124 -0.2450  0.2672  0.4448
 8516SOL    HW126447   4.844   2.785   3.125 -1.0915 -0.2638  1.7922
 8516SOL    HW226448   4.943   2.689   3.213 -0.1049 -0.6792  0.2563
 8517SOL     OW26449   1.802   0.913   6.811 -0.0036  0.0919 -0.3981
 8517SOL    HW126450   1.887   0.907   6.759  2.1225 -0.0572  2.8132
 8517SOL    HW226451   1.775   0.821   6.842 -1.7549  0.0526 -1.8650
 8518SOL     OW26452   4.671   0.133   6.678  0.4338  0.6957  0.2243
 8518SOL    HW126453   4.586   0.169   6.639  0.5131  0.7024  0.0555
 8518SOL    HW226454   4.703   0.056   6.623  1.3204  1.6160 -0.5831
 8519SOL     OW26455   0.436   5.188   0.246  0.1516  0.2443  0.1503
 8519SOL    HW126456   0.535   5.190   0.230  0.1732 -1.7318 -0.2082
 8519SOL    HW226457   0.392   5.256   0.188  1.1087 -0.5443 -1.6002
 8520SOL     OW26458   3.505   2.990   4.356 -0.1548  0.2417 -0.3386
 8520SOL    HW126459   3.473   3.046   4.432  0.2063  1.6820 -1.1939
 8520SOL    HW226460   3.604   2.978   4.363  0.1211  1.6624 -1.3378
 8521SOL     OW26461   3.090   6.666   3.736  0.3210  0.4994 -0.0913
 8521SOL    HW126462   3.104   6.699   3.830 -1.3770 -0.6564  0.6205
 8521SOL    HW226463   3.160   6.705   3.676  1.1074  1.7165  1.5395
 8522SOL     OW26464   0.760   0.587   6.082 -0.6019 -0.3683  0.0198
 8522SOL    HW126465   0.771   0.528   6.162  0.8710 -2.5332 -1.6539
 8522SOL    HW226466   0.665   0.584   6.051 -0.8928 -0.5529  0.9125
 8523SOL     OW26467   4.072   0.974   1.922  0.3525 -0.4208  0.1008
 8523SOL    HW126468   4.008   0.898   1.934  0.3646 -0.2253  1.6237
 8523SOL    HW226469   4.022   1.057   1.897  0.0116 -0.3123  1.1081
 8524SOL     OW26470   2.761   4.767   1.250 -0.0623  0.1802 -0.1952
 8524SOL    HW126471   2.663   4.751   1.255  0.2085 -2.3720 -1.8274
 8524SOL    HW226472   2.788   4.783   1.155  1.4694 -2.4272 -0.2908
 8525SOL     OW26473   5.874   3.316   0.886 -0.0356 -0.0327 -0.0029
 8525SOL    HW126474   5.781   3.352   0.880  0.1225  0.2252 -1.3997
 8525SOL    HW226475   5.930   3.376   0.942 -0.1797  1.0592 -0.9868
 8526SOL     OW26476   0.747   5.586   0.431  0.0874 -0.2518  0.8763
 8526SOL    HW126477   0.799   5.535   0.499  2.8691  3.1740  1.6581
 8526SOL    HW226478   0.807   5.611   0.355 -1.7297 -0.0133 -0.5579
 8527SOL     OW26479   1.671   3.084   6.982  0.3426 -0.2081  0.0013
 8527SOL    HW126480   1.719   3.116   6.901 -3.0693  0.7246 -1.8055
 8527SOL    HW226481   1.676   2.985   6.987  0.1662 -0.3190 -1.6627
 8528SOL     OW26482   6.178   1.169   0.333  0.7617  0.4975  0.2080
 8528SOL    HW126483   6.084   1.166   0.297  0.0829 -1.0956  1.8899
 8528SOL    HW226484   6.211   1.075   0.346  2.5827  1.0341 -0.2458
 8529SOL     OW26485   6.602   5.379   0.358  0.9935  0.3852  0.4495
 8529SOL    HW126486   6.652   5.346   0.438  2.6203  0.8459 -0.3300
 8529SOL    HW226487   6.534   5.447   0.386 -0.5205 -1.5694  1.7514
 8530SOL     OW26488   4.034   3.267   2.753  0.4857  0.1628  0.2646
 8530SOL    HW126489   3.972   3.345   2.748  1.7359  1.1434 -0.4282
 8530SOL    HW226490   4.075   3.263   2.844 -0.2454 -0.2382  0.5881
 8531SOL     OW26491   4.790   7.006   1.737  0.1917 -0.4629 -0.1874
 8531SOL    HW126492   4.859   7.070   1.768 -0.5326  1.4780 -2.3445
 8531SOL    HW226493   4.831   6.939   1.675  0.5875 -0.9078  0.5472
 8532SOL     OW26494   2.661   6.064   6.602 -0.1682  0.2606  0.0277
 8532SOL    HW126495   2.652   6.096   6.696 -0.2384 -1.3825  0.6065
 8532SOL    HW226496   2.645   5.966   6.598 -1.8990  0.5361 -1.9654
 8533SOL     OW26497   2.906   4.801   4.545 -0.4347  0.0877 -0.0880
 8533SOL    HW126498   2.819   4.787   4.592 -0.3520 -0.4425 -0.0913
 8533SOL    HW226499   2.888   4.820   4.448 -0.5562  0.2069 -0.0434
 8534SOL     OW26500   2.151   3.107   2.635  0.3280  0.3303 -0.5621
 8534SOL    HW126501   2.126   3.145   2.546 -0.5410  0.9884 -0.0513
 8534SOL    HW226502   2.135   3.175   2.707 -1.0535 -0.8899  0.3544
 8535SOL     OW26503   5.806   2.920   1.858 -0.2780  0.6658 -0.7349
 8535SOL    HW126504   5.850   2.988   1.917 -1.3304  1.2777 -0.6461
 8535SOL    HW226505   5.835   2.828   1.887  0.9757  1.0494 -0.7194
 8536SOL     OW26506   1.916   2.073   3.671 -0.4197 -0.1038 -0.6512
 8536SOL    HW126507   1.964   2.076   3.759 -2.8028 -0.7527  0.7654
 8536SOL    HW226508   1.958   2.004   3.612 -0.4507 -1.6298  1.0501
 8537SOL     OW26509   3.911   2.011   1.061 -0.5116  0.5390 -0.6175
 8537SOL    HW126510   3.832   1.991   1.003 -0.8095  0.4344 -0.1816
 8537SOL    HW226511   3.882   2.063   1.140  0.2076  2.4414 -1.5489
 8538SOL     OW26512   5.789   3.677   5.810 -0.2723  0.3136 -0.6193
 8538SOL    HW126513   5.780   3.668   5.909 -1.5780  4.0549 -0.2405
 8538SOL    HW226514   5.717   3.624   5.765  0.9712 -2.2888  0.2485
 8539SOL     OW26515   6.008   5.735   1.975 -0.3271  0.0798  0.2063
 8539SOL    HW126516   5.939   5.790   1.929 -0.1100  0.5106  0.3962
 8539SOL    HW226517   6.084   5.793   2.004  0.7504 -0.5997 -1.1826
 8540SOL     OW26518   3.977   1.434   1.321 -0.3208  0.4293  0.2270
 8540SOL    HW126519   4.072   1.454   1.300  0.0977 -0.8321  0.7620
 8540SOL    HW226520   3.955   1.468   1.413  0.0350 -0.4405  0.6514
 8541SOL     OW26521   3.068   3.156   5.561 -0.4377 -0.3699 -0.4454
 8541SOL    HW126522   3.151   3.172   5.509 -0.0368 -0.7149  0.0731
 8541SOL    HW226523   3.003   3.230   5.544  0.4683  0.5907  0.1205
 8542SOL     OW26524   4.027   3.631   6.226 -0.0052 -0.2680  0.4514
 8542SOL    HW126525   3.955   3.669   6.284 -0.7167  0.2692 -0.7359
 8542SOL    HW226526   4.087   3.705   6.194 -1.3086 -0.0563 -1.7487
 8543SOL     OW26527   3.446   1.463   1.274  0.2285  0.1743  0.5288
 8543SOL    HW126528   3.447   1.389   1.207  0.4319  1.9118 -1.5300
 8543SOL    HW226529   3.355   1.473   1.313  0.1145 -0.9000  0.5568
 8544SOL     OW26530   0.018   1.549   2.478  0.1782 -0.9690 -0.2816
 8544SOL    HW126531   0.052   1.608   2.552  1.1431 -0.0125 -1.4525
 8544SOL    HW226532   0.071   1.464   2.477  1.2218 -0.3358 -0.8181
 8545SOL     OW26533   4.527   5.843   4.070 -0.1548  0.1587  0.0225
 8545SOL    HW126534   4.461   5.796   4.128  0.6229 -0.5916  0.3278
 8545SOL    HW226535   4.520   5.808   3.977 -2.0881  2.0578 -0.6342
 8546SOL     OW26536   3.136   1.928   6.199  0.1558 -0.6508 -0.0169
 8546SOL    HW126537   3.088   2.007   6.160 -2.9001 -2.5591 -0.4520
 8546SOL    HW226538   3.228   1.923   6.160 -1.1380  0.1462 -3.5785
 8547SOL     OW26539   1.228   3.431   2.033  0.4590 -0.2431 -0.0742
 8547SOL    HW126540   1.265   3.493   1.964 -0.4608  1.6107  1.0385
 8547SOL    HW226541   1.303   3.400   2.093  0.6438  1.5567  0.6842
 8548SOL     OW26542   5.581   3.941   5.403  0.8799 -0.4108 -0.1845
 8548SOL    HW126543   5.540   3.871   5.345  2.3713 -0.6345 -0.9948
 8548SOL    HW226544   5.601   3.902   5.493  3.5169 -1.6999 -1.2167
 8549SOL     OW26545   6.250   3.311   4.619 -0.1971  0.0081 -0.1855
 8549SOL    HW126546   6.245   3.404   4.585 -0.7479 -0.4950 -1.5450
 8549SOL    HW226547   6.229   3.247   4.545 -2.3699 -1.1013  1.2585
 8550SOL     OW26548   2.790   4.175   5.560  0.4001  0.4528 -0.1358
 8550SOL    HW126549   2.784   4.076   5.566 -2.9987  0.5100 -0.6485
 8550SOL    HW226550   2.783   4.203   5.464 -0.6048  1.2070  0.1365
 8551SOL     OW26551   3.456   3.457   2.371  0.2175  0.0261  0.9969
 8551SOL    HW126552   3.393   3.390   2.412  0.8538  0.2394  2.3919
 8551SOL    HW226553   3.550   3.431   2.391  0.5924 -0.2017 -0.9410
 8552SOL     OW26554   4.271   0.572   2.644  0.0361  0.3638  0.5079
 8552SOL    HW126555   4.342   0.636   2.674  2.0387 -1.2246 -0.5332
 8552SOL    HW226556   4.267   0.573   2.544  0.0668 -1.0940  0.4846
 8553SOL     OW26557   5.628   4.087   1.299 -0.1801  0.2061  0.0054
 8553SOL    HW126558   5.551   4.112   1.358 -1.1733 -0.7588 -0.8417
 8553SOL    HW226559   5.594   4.041   1.218  1.3113 -0.2964 -0.3643
 8554SOL     OW26560   6.396   2.389   6.702  0.3535 -0.1649  0.2518
 8554SOL    HW126561   6.470   2.432   6.754  0.6732  0.2479 -0.5247
 8554SOL    HW226562   6.419   2.390   6.604 -0.5102 -0.3701  0.0376
 8555SOL     OW26563   3.582   0.143   3.159  0.7843 -0.4798 -0.1782
 8555SOL    HW126564   3.536   0.120   3.073  0.4771  2.5471 -0.9384
 8555SOL    HW226565   3.680   0.126   3.149  0.7891  0.0845 -1.2286
 8556SOL     OW26566   4.765   0.714   3.090  0.4772 -0.8509  0.3864
 8556SOL    HW126567   4.718   0.639   3.136 -2.5520  0.8998  0.3689
 8556SOL    HW226568   4.722   0.731   3.001  2.9105 -0.8065 -0.8634
 8557SOL     OW26569   6.199   6.467   6.766  0.3290  0.5319  0.1268
 8557SOL    HW126570   6.131   6.515   6.711  1.2306  3.3229  1.2641
 8557SOL    HW226571   6.189   6.493   6.862  0.9567 -1.5482  0.7975
 8558SOL     OW26572   0.834   6.186   4.255 -0.3979 -0.9328 -0.0224
 8558SOL    HW126573   0.878   6.239   4.328 -1.0872  1.0773 -0.9981
 8558SOL    HW226574   0.740   6.165   4.282  0.0032 -2.1217  0.5483
 8559SOL     OW26575   2.061   1.287   6.157  0.6469 -0.4429  0.2782
 8559SOL    HW126576   2.041   1.311   6.062  0.4692  2.3810  0.9549
 8559SOL    HW226577   1.977   1.259   6.203  0.5110 -0.6108 -0.0675
 8560SOL     OW26578   5.515   3.030   6.847 -0.0458  0.1602  0.0015
 8560SOL    HW126579   5.561   2.943   6.831 -1.7421 -0.5258 -1.4777
 8560SOL    HW226580   5.524   3.089   6.767 -0.1776  0.7511  0.4079
 8561SOL     OW26581   4.469   0.378   5.554 -0.3549 -0.2825 -0.3268
 8561SOL    HW126582   4.564   0.399   5.532 -0.8788  1.8135 -0.8435
 8561SOL    HW226583   4.438   0.299   5.501  0.1608  1.0211 -2.7135
 8562SOL     OW26584   5.668   5.794   5.798 -0.5244  0.5015 -0.5229
 8562SOL    HW126585   5.755   5.752   5.772  0.1993  0.9772  1.0212
 8562SOL    HW226586   5.595   5.760   5.738  0.3189 -1.6207 -0.4305
 8563SOL     OW26587   2.399   2.743   5.499  0.3809  0.7071 -0.6246
 8563SOL    HW126588   2.315   2.790   5.525 -0.1104  0.3769 -1.5380
 8563SOL    HW226589   2.393   2.716   5.403  1.1295 -0.1890 -0.4341
 8564SOL     OW26590   1.634   6.314   4.391  0.4835 -0.2952  0.0719
 8564SOL    HW126591   1.640   6.232   4.335 -1.4142  0.8030 -1.8884
 8564SOL    HW226592   1.539   6.329   4.418  0.5738  1.8396 -0.6139
 8565SOL     OW26593   4.888   2.426   1.648  0.3510 -0.4924  0.0946
 8565SOL    HW126594   4.800   2.390   1.617  0.1355 -0.0693  0.1999
 8565SOL    HW226595   4.908   2.391   1.739 -0.4629  0.6149  0.7340
 8566SOL     OW26596   0.575   2.271   4.131  0.4783 -0.4784 -0.0780
 8566SOL    HW126597   0.636   2.320   4.069  1.1396 -1.9577 -0.6537
 8566SOL    HW226598   0.621   2.188   4.163 -0.8942 -1.1580  0.2072
 8567SOL     OW26599   3.186   6.205   6.974  0.2333 -0.2876 -0.1073
 8567SOL    HW126600   3.272   6.217   7.025 -0.0735  0.3333  0.2794
 8567SOL    HW226601   3.136   6.127   7.011  0.0354  0.1293  0.5206
 8568SOL     OW26602   5.830   1.449   5.830 -0.4613  0.1757  0.5145
 8568SOL    HW126603   5.773   1.454   5.748  0.6608  0.1586 -0.2763
 8568SOL    HW226604   5.926   1.444   5.805 -0.0833  0.2599  1.8386
 8569SOL     OW26605   3.813   0.686   5.023  0.0554 -0.1143  0.0722
 8569SOL    HW126606   3.776   0.633   5.099 -0.6342 -0.1473 -0.2792
 8569SOL    HW226607   3.787   0.782   5.033  0.7708  0.0548  0.3744
 8570SOL     OW26608   6.387   4.306   5.058  0.0422 -0.2446 -0.1743
 8570SOL    HW126609   6.345   4.218   5.083 -0.5389 -0.0810 -0.5589
 8570SOL    HW226610   6.323   4.359   5.002  0.6977  0.0842 -0.6306
 8571SOL     OW26611   0.171   5.318   5.179  0.2854 -0.0492  0.3747
 8571SOL    HW126612   0.120   5.376   5.243  0.1985  0.5109 -0.1910
 8571SOL    HW226613   0.128   5.227   5.176  0.1081  0.0117  0.8761
 8572SOL     OW26614   4.422   4.611   5.299 -0.7483 -0.8082  0.3968
 8572SOL    HW126615   4.357   4.575   5.232  1.8410 -1.4737 -1.9337
 8572SOL    HW226616   4.442   4.542   5.368 -0.6835 -1.4820 -0.2895
 8573SOL     OW26617   4.848   0.315   1.883  0.6379  0.0198  0.6606
 8573SOL    HW126618   4.798   0.365   1.813  0.9929  0.1144  0.4700
 8573SOL    HW226619   4.922   0.263   1.839  1.0379  0.3008  0.9951
 8574SOL     OW26620   0.794   4.624   6.115  0.4496 -0.1920  1.1423
 8574SOL    HW126621   0.756   4.557   6.051  0.9039 -0.5002  1.1870
 8574SOL    HW226622   0.758   4.606   6.207  0.0315  0.0612  1.0282
 8575SOL     OW26623   1.903   3.118   5.847 -0.0507 -0.0375  0.1278
 8575SOL    HW126624   1.853   3.151   5.927  0.0128  0.3456  0.0150
 8575SOL    HW226625   1.933   3.197   5.792 -1.6961 -0.3323 -1.2705
 8576SOL     OW26626   0.841   1.289   1.230 -0.3048 -0.5873 -0.4958
 8576SOL    HW126627   0.879   1.196   1.228  0.9276 -0.0752 -2.1659
 8576SOL    HW226628   0.852   1.327   1.322 -1.3268 -2.2698  0.3686
 8577SOL     OW26629   6.840   4.947   5.410  0.2425 -0.0899 -0.3058
 8577SOL    HW126630   6.818   4.935   5.507  0.0002  1.0057 -0.2066
 8577SOL    HW226631   6.845   4.858   5.365  0.6402 -0.6212  0.7746
 8578SOL     OW26632   5.458   0.456   3.665 -0.1654 -0.5164 -0.0596
 8578SOL    HW126633   5.440   0.523   3.737  2.5412 -1.6480  1.8552
 8578SOL    HW226634   5.422   0.367   3.694 -1.0175 -0.5525 -1.1759
 8579SOL     OW26635   1.606   4.632   3.459  0.1309  0.8713 -0.5347
 8579SOL    HW126636   1.588   4.536   3.438  1.2725  0.1733  1.4152
 8579SOL    HW226637   1.600   4.647   3.558  0.4463  2.7004 -0.7477
 8580SOL     OW26638   1.653   4.625   0.139 -0.3235  0.1583  0.2859
 8580SOL    HW126639   1.616   4.533   0.132  0.5536 -0.0851 -1.7516
 8580SOL    HW226640   1.638   4.660   0.231 -2.7934 -1.0970  0.4355
 8581SOL     OW26641   2.943   3.413   4.843 -0.1931 -0.5049 -0.5331
 8581SOL    HW126642   2.960   3.315   4.840  0.4663 -0.4679  0.9237
 8581SOL    HW226643   2.885   3.440   4.766  0.3301 -1.8817 -1.4360
 8582SOL     OW26644   3.103   5.116   6.738  0.1089 -0.3515 -0.0933
 8582SOL    HW126645   3.124   5.019   6.724  0.2645 -0.2270 -0.7599
 8582SOL    HW226646   3.047   5.149   6.662  0.2381  0.1313  0.0206
 8583SOL     OW26647   5.923   6.687   3.754 -0.0490  0.5034 -0.2351
 8583SOL    HW126648   5.857   6.760   3.743 -1.2560 -0.0448  2.5633
 8583SOL    HW226649   5.920   6.626   3.674 -2.0072  1.1968 -0.7294
 8584SOL     OW26650   1.985   5.911   2.863 -0.7090 -0.2412  0.5543
 8584SOL    HW126651   1.981   5.987   2.798 -0.6096 -0.9326 -0.2665
 8584SOL    HW226652   2.079   5.899   2.895 -0.5152 -0.7292 -0.1770
 8585SOL     OW26653   1.740   0.511   2.495  0.2751 -0.1112 -0.3875
 8585SOL    HW126654   1.836   0.503   2.522  0.3534  1.0590 -0.2494
 8585SOL    HW226655   1.682   0.509   2.577  0.1874 -0.6249 -0.4571
 8586SOL     OW26656   3.720   5.120   4.591 -0.3723 -0.1104 -0.4443
 8586SOL    HW126657   3.669   5.047   4.636 -1.0182 -0.4178 -1.6372
 8586SOL    HW226658   3.817   5.098   4.591 -0.4004 -0.2554  0.4943
 8587SOL     OW26659   0.405   2.043   2.297 -0.1388  0.9599  0.6641
 8587SOL    HW126660   0.410   2.021   2.199  1.5722 -1.1307  1.1537
 8587SOL    HW226661   0.351   1.973   2.344 -2.1649  2.7042  1.0889
 8588SOL     OW26662   4.342   2.070   6.022  0.1021 -0.1064  0.2157
 8588SOL    HW126663   4.249   2.034   6.015  0.1478 -0.0071 -1.3029
 8588SOL    HW226664   4.401   2.003   6.066 -0.5362 -0.4450  0.5676
 8589SOL     OW26665   2.219   0.837   4.763  0.1223  0.1992 -0.4010
 8589SOL    HW126666   2.175   0.807   4.847  1.4916  0.9804  0.6434
 8589SOL    HW226667   2.279   0.914   4.783 -0.2108  0.9949 -2.2724
 8590SOL     OW26668   0.616   6.597   4.545  0.5973  0.4203  0.5424
 8590SOL    HW126669   0.599   6.549   4.459  0.7395 -0.3989  0.9663
 8590SOL    HW226670   0.529   6.629   4.583  0.3567 -0.6068  0.8870
 8591SOL     OW26671   1.223   1.817   1.007  0.2092  0.0151  0.5043
 8591SOL    HW126672   1.250   1.730   1.049 -1.9166 -1.1096 -0.2838
 8591SOL    HW226673   1.136   1.805   0.959  1.2519  1.8616 -2.0841
 8592SOL     OW26674   6.549   5.297   5.121  0.6070  0.4843 -0.2707
 8592SOL    HW126675   6.497   5.369   5.168 -0.0593  0.2088 -0.5759
 8592SOL    HW226676   6.584   5.232   5.188  1.0231  0.9683 -0.0135
 8593SOL     OW26677   6.962   4.197   4.334  0.0993 -0.3847 -0.0022
 8593SOL    HW126678   6.887   4.171   4.395  0.4965  0.0708  0.6958
 8593SOL    HW226679   6.929   4.200   4.240 -0.8153  0.0450  0.3264
 8594SOL     OW26680   2.920   3.258   3.324  0.2937 -0.9827  0.2234
 8594SOL    HW126681   2.872   3.195   3.263  1.9385  0.2164 -2.5117
 8594SOL    HW226682   3.015   3.228   3.335  0.5379 -0.1012  0.6050
 8595SOL     OW26683   2.529   4.108   0.745  0.0701  0.3346  0.1219
 8595SOL    HW126684   2.552   4.137   0.652  1.9868  0.1819  0.5151
 8595SOL    HW226685   2.471   4.026   0.741 -0.0552  0.4610 -0.9312
 8596SOL     OW26686   6.737   3.409   1.428 -0.8644  0.1582  0.3165
 8596SOL    HW126687   6.837   3.414   1.428 -0.9185  1.9710 -1.3103
 8596SOL    HW226688   6.703   3.424   1.521  0.3595 -0.9891  0.9833
 8597SOL     OW26689   1.586   2.617   0.218 -0.7725  0.1615 -0.1100
 8597SOL    HW126690   1.638   2.573   0.144 -0.1528 -0.8056  0.8789
 8597SOL    HW226691   1.497   2.573   0.228 -0.7473  0.1121 -0.1018
 8598SOL     OW26692   5.116   4.436   2.342 -0.3475  0.2742  0.1250
 8598SOL    HW126693   5.069   4.520   2.368 -1.0170 -0.2565  0.6767
 8598SOL    HW226694   5.213   4.456   2.327 -0.3293  1.0000  1.0608
 8599SOL     OW26695   1.419   3.374   0.228 -0.0136  0.0396  0.2399
 8599SOL    HW126696   1.382   3.343   0.315  0.9204 -1.3215  0.1849
 8599SOL    HW226697   1.428   3.297   0.165 -0.3851  0.9413 -0.9746
 8600SOL     OW26698   5.210   2.993   0.029  0.0598  0.0522 -0.1249
 8600SOL    HW126699   5.229   3.047  -0.053  0.2250  0.5086  0.2149
 8600SOL    HW226700   5.212   3.051   0.110 -0.8007 -0.2632  0.1393
 8601SOL     OW26701   5.974   0.973   6.532  0.0666  0.6541  0.5758
 8601SOL    HW126702   5.887   0.932   6.506  0.9992 -1.1964  0.2563
 8601SOL    HW226703   5.956   1.055   6.587 -1.8948  2.0895 -1.9701
 8602SOL     OW26704   2.261   5.690   2.459  0.0326  0.3286  0.2520
 8602SOL    HW126705   2.250   5.593   2.480 -2.1905  0.7227  1.2385
 8602SOL    HW226706   2.233   5.745   2.538 -2.5576  1.7988 -1.5262
 8603SOL     OW26707   6.058   3.807   1.855  0.5057  0.3887  0.2415
 8603SOL    HW126708   6.053   3.764   1.945 -1.6830  0.2450  0.1121
 8603SOL    HW226709   5.976   3.784   1.803  0.4372  2.6679 -0.7727
 8604SOL     OW26710   6.917   1.684   4.111 -0.2577  0.5928 -0.2184
 8604SOL    HW126711   6.910   1.784   4.105  0.9135  0.7533  0.7614
 8604SOL    HW226712   6.981   1.651   4.042  1.4189  0.8260  1.1744
 8605SOL     OW26713   1.760   4.987   1.613 -0.1700 -0.2497  0.3193
 8605SOL    HW126714   1.688   5.056   1.624  0.9226  0.7870  1.2317
 8605SOL    HW226715   1.817   4.986   1.694  0.9729 -0.9034 -0.4740
 8606SOL     OW26716   3.320   4.172   6.187  0.2205 -1.0934 -0.0456
 8606SOL    HW126717   3.406   4.151   6.140 -0.0436 -1.3358 -0.4278
 8606SOL    HW226718   3.254   4.099   6.168 -0.5907 -0.1212 -1.0926
 8607SOL     OW26719   4.417   5.065   1.366  0.0870 -0.9083  0.0809
 8607SOL    HW126720   4.392   5.141   1.307  1.0471 -0.8669 -0.2886
 8607SOL    HW226721   4.378   5.079   1.457  2.0617  1.1694  0.6902
 8608SOL     OW26722   5.336   1.056   1.834 -0.2792  0.0001  0.2836
 8608SOL    HW126723   5.259   1.077   1.775  0.2853 -0.6145 -0.6844
 8608SOL    HW226724   5.420   1.090   1.792  0.0386  0.2870  1.1290
 8609SOL     OW26725   2.708   1.092   4.715 -0.2033  0.3414 -0.3377
 8609SOL    HW126726   2.662   1.180   4.725  2.5065  1.6947  1.3820
 8609SOL    HW226727   2.791   1.092   4.770  0.0189 -3.2526 -0.4726
 8610SOL     OW26728   1.066   6.125   5.501  0.8339  0.2570 -0.1369
 8610SOL    HW126729   0.974   6.159   5.518  0.7976 -1.1622  3.1340
 8610SOL    HW226730   1.061   6.037   5.453  0.3146 -0.8618  1.8857
 8611SOL     OW26731   2.371   2.209   2.576 -0.3704 -0.0341  0.2113
 8611SOL    HW126732   2.441   2.265   2.531  1.8888 -1.9142  1.1803
 8611SOL    HW226733   2.331   2.260   2.651  1.3731  0.4642  0.8553
 8612SOL     OW26734   4.951   3.425   4.903 -0.5042 -0.1077 -0.3819
 8612SOL    HW126735   4.918   3.334   4.930 -2.9405  0.4944 -1.1292
 8612SOL    HW226736   4.920   3.493   4.969 -0.2253  0.4191 -0.7889
 8613SOL     OW26737   6.933   0.895   0.167  0.4196  0.8661 -0.1384
 8613SOL    HW126738   6.949   0.979   0.220 -0.3443  0.6197  0.4989
 8613SOL    HW226739   6.838   0.892   0.136 -0.0948 -0.6179  1.4206
 8614SOL     OW26740   1.164   3.531   2.629 -0.1942 -0.5071 -0.3746
 8614SOL    HW126741   1.251   3.486   2.649 -0.0777 -0.6816 -1.2045
 8614SOL    HW226742   1.089   3.471   2.655 -0.0866 -0.1738  0.7597
 8615SOL     OW26743   4.317   1.741   6.367  0.1250  0.3711 -0.2250
 8615SOL    HW126744   4.360   1.664   6.320 -1.2633 -1.2807  1.0872
 8615SOL    HW226745   4.353   1.746   6.460 -1.2336  0.0247  0.3399
 8616SOL     OW26746   3.372   2.598   0.487 -0.7083  0.0989 -0.7507
 8616SOL    HW126747   3.312   2.605   0.566 -0.7549  0.7294 -0.8387
 8616SOL    HW226748   3.390   2.689   0.450 -2.4253 -0.3191 -2.7760
 8617SOL     OW26749   4.962   2.035   1.626 -0.5757  0.0449  0.4688
 8617SOL    HW126750   4.964   1.962   1.694 -0.3331 -0.2705  0.1289
 8617SOL    HW226751   4.893   2.014   1.557 -0.3818  0.0460  0.2732
 8618SOL     OW26752   4.035   1.551   2.348  0.0936 -0.6904 -0.2263
 8618SOL    HW126753   3.986   1.608   2.414 -1.0371 -0.1530 -1.4674
 8618SOL    HW226754   4.126   1.589   2.332  0.4590 -0.9557  1.1676
 8619SOL     OW26755   5.378   0.452   0.717  0.2091  0.2255 -0.2523
 8619SOL    HW126756   5.319   0.529   0.691  0.9021  0.3413 -1.5279
 8619SOL    HW226757   5.358   0.426   0.812 -0.5060  1.5330 -0.0190
 8620SOL     OW26758   5.905   4.640   3.344  0.5733 -0.0138  0.5359
 8620SOL    HW126759   5.927   4.680   3.255  0.5248 -0.5771  0.2729
 8620SOL    HW226760   5.902   4.713   3.413  2.2174  0.2293  0.3861
 8621SOL     OW26761   5.187   1.158   3.915 -0.0888  0.1840 -0.3640
 8621SOL    HW126762   5.256   1.214   3.961  1.0805 -0.3155 -1.4407
 8621SOL    HW226763   5.136   1.106   3.983  1.2380 -0.1399  0.4221
 8622SOL     OW26764   4.421   2.430   1.777  0.4115 -0.7192  0.9370
 8622SOL    HW126765   4.379   2.437   1.686 -2.2665 -3.3577  1.8219
 8622SOL    HW226766   4.501   2.491   1.781 -0.1272  0.4949 -2.6880
 8623SOL     OW26767   0.305   0.406   3.379 -0.3151 -0.1309 -0.2297
 8623SOL    HW126768   0.324   0.500   3.350 -0.1609  0.3815  1.4478
 8623SOL    HW226769   0.346   0.389   3.468 -1.1787 -1.4876 -0.0535
 8624SOL     OW26770   6.459   3.851   4.091  0.6134  0.0186 -0.0463
 8624SOL    HW126771   6.535   3.812   4.143  1.0215  2.0273  0.9565
 8624SOL    HW226772   6.380   3.863   4.152  0.9356  1.9221  0.0720
 8625SOL     OW26773   2.421   2.355   5.456 -0.3791  0.0194 -0.2825
 8625SOL    HW126774   2.517   2.373   5.434 -0.7733  0.0122 -2.2735
 8625SOL    HW226775   2.398   2.396   5.543  1.3340  0.3415  0.0582
 8626SOL     OW26776   3.264   4.410   1.640 -0.0362  0.2421  0.0045
 8626SOL    HW126777   3.212   4.488   1.676 -1.7911  0.1178 -2.0836
 8626SOL    HW226778   3.204   4.330   1.636  0.8889 -0.4229 -0.6692
 8627SOL     OW26779   1.151   2.116   0.513 -0.2577 -0.5102  0.1426
 8627SOL    HW126780   1.162   2.023   0.478 -2.4914 -0.7970  0.0129
 8627SOL    HW226781   1.115   2.113   0.606  2.1075  0.2734  1.1667
 8628SOL     OW26782   1.505   2.253   1.613 -0.2087 -0.6388 -0.5081
 8628SOL    HW126783   1.476   2.348   1.621  1.3306 -0.2256  0.8064
 8628SOL    HW226784   1.512   2.228   1.516 -0.2623  0.7015 -0.8721
 8629SOL     OW26785   6.999   5.148   3.978  0.0303 -0.2719  0.4713
 8629SOL    HW126786   7.073   5.171   3.914  0.6177  3.1238  2.1251
 8629SOL    HW226787   7.035   5.146   4.071 -1.5839 -0.7279  1.1258
 8630SOL     OW26788   5.893   4.787   3.133 -0.3720 -0.2637 -0.6113
 8630SOL    HW126789   5.917   4.763   3.039 -0.2964 -1.6899 -0.2547
 8630SOL    HW226790   5.947   4.866   3.163  0.4106 -0.4942 -1.3901
 8631SOL     OW26791   4.527   4.947   3.811  0.7155 -0.0784  0.3152
 8631SOL    HW126792   4.441   4.989   3.841  0.2559 -1.2155  0.6444
 8631SOL    HW226793   4.554   4.876   3.876  0.5289 -1.5290 -1.1178
 8632SOL     OW26794   4.295   0.230   3.366  0.7740  0.4497 -0.3347
 8632SOL    HW126795   4.371   0.182   3.411 -0.3286 -0.7626  0.2999
 8632SOL    HW226796   4.314   0.237   3.268  2.1668  1.0875 -0.0375
 8633SOL     OW26797   1.373   5.777   3.988  0.6829  0.2591  0.1164
 8633SOL    HW126798   1.423   5.770   3.902 -0.2967  1.2167 -0.5559
 8633SOL    HW226799   1.437   5.776   4.065  1.7282  1.4717 -0.7104
 8634SOL     OW26800   5.846   6.554   3.021 -0.2977 -0.1602 -0.3894
 8634SOL    HW126801   5.908   6.591   3.090  0.1012 -3.1687  1.0386
 8634SOL    HW226802   5.751   6.577   3.045  0.0285  1.7286 -0.8044
 8635SOL     OW26803   0.788   4.542   0.189  0.3521 -0.5284  0.2190
 8635SOL    HW126804   0.888   4.539   0.189  0.4117  0.7449 -0.2220
 8635SOL    HW226805   0.752   4.466   0.242  1.4645 -3.2417 -2.6087
 8636SOL     OW26806   5.545   6.067   6.742 -0.4241  0.1726  0.7562
 8636SOL    HW126807   5.615   6.092   6.809  1.8946 -1.0937 -1.0254
 8636SOL    HW226808   5.571   6.102   6.652 -2.2382 -0.1541  0.0602
 8637SOL     OW26809   1.976   0.727   2.054 -0.6724 -0.0170 -0.0741
 8637SOL    HW126810   1.881   0.703   2.036 -1.3688  2.3661  0.0003
 8637SOL    HW226811   1.987   0.751   2.151 -0.3914  1.2007 -0.3885
 8638SOL     OW26812   5.424   6.228   2.763  0.2758  0.1078  0.0548
 8638SOL    HW126813   5.471   6.205   2.678  0.3576 -0.2563  0.1941
 8638SOL    HW226814   5.488   6.220   2.839  0.4212  1.2370  0.0661
 8639SOL     OW26815   0.625   3.250   1.963  0.3309 -0.3616 -0.0995
 8639SOL    HW126816   0.605   3.153   1.952  0.5559 -0.4374  0.1400
 8639SOL    HW226817   0.662   3.266   2.055  0.4146 -0.0706 -0.1825
 8640SOL     OW26818   4.636   5.271   1.450 -0.1375 -0.8055 -0.0100
 8640SOL    HW126819   4.626   5.345   1.384 -0.8347 -0.4643  0.4710
 8640SOL    HW226820   4.624   5.183   1.404 -3.6585 -0.5305  0.1287
 8641SOL     OW26821   5.219   5.662   1.893 -0.7883 -0.2155 -0.2707
 8641SOL    HW126822   5.233   5.640   1.990  1.9729 -0.7122 -0.6974
 8641SOL    HW226823   5.208   5.578   1.841  0.8893 -0.1720 -0.7528
 8642SOL     OW26824   5.463   3.038   2.398 -0.0402  0.1523 -0.0025
 8642SOL    HW126825   5.523   2.958   2.400 -0.0775  0.1329  1.4366
 8642SOL    HW226826   5.484   3.093   2.317 -0.2751 -1.4918 -1.2321
 8643SOL     OW26827   3.196   6.846   7.023 -0.0170  0.8738  0.2830
 8643SOL    HW126828   3.149   6.929   6.994  1.5259  1.6416 -0.1460
 8643SOL    HW226829   3.175   6.826   7.118 -1.4413  0.9926  0.0092
 8644SOL     OW26830   4.842   5.430   6.332 -0.1168 -0.2429 -0.3003
 8644SOL    HW126831   4.761   5.487   6.347 -0.8792 -1.3973  0.1812
 8644SOL    HW226832   4.849   5.407   6.235  2.2240  3.4913 -1.2223
 8645SOL     OW26833   0.880   5.484   0.897  0.5733 -0.2222  0.1436
 8645SOL    HW126834   0.787   5.520   0.888  0.0837 -1.6703 -0.8304
 8645SOL    HW226835   0.907   5.487   0.993 -1.0704 -1.1837  0.6743
 8646SOL     OW26836   5.009   6.828   1.561  0.0116  0.6650  0.3912
 8646SOL    HW126837   4.971   6.792   1.475 -1.9760  1.0078  1.0800
 8646SOL    HW226838   5.091   6.881   1.541  0.4808 -0.5496 -1.1172
 8647SOL     OW26839   5.578   4.588   2.824  0.1044  0.6842  0.5756
 8647SOL    HW126840   5.524   4.610   2.905  1.3358 -0.0856  1.6408
 8647SOL    HW226841   5.587   4.489   2.816  0.7885  0.7833  0.0493
 8648SOL     OW26842   5.899   1.449   4.914 -0.3886  0.2885  0.6709
 8648SOL    HW126843   5.869   1.489   5.001 -0.3089  0.9660  0.3910
 8648SOL    HW226844   5.933   1.521   4.854  0.4244 -0.2817  0.4236
 8649SOL     OW26845   5.944   6.021   5.381  0.2200  0.1875 -0.0827
 8649SOL    HW126846   5.858   5.970   5.375  0.0163  0.2245  1.8641
 8649SOL    HW226847   5.924   6.116   5.408  0.8036  0.4670 -0.6249
 8650SOL     OW26848   2.748   5.020   3.489  0.0915  0.2944  0.9675
 8650SOL    HW126849   2.667   5.076   3.472 -0.9979 -1.3733  0.4351
 8650SOL    HW226850   2.800   5.059   3.565 -0.5537  2.0621  0.5581
 8651SOL     OW26851   4.245   2.348   1.437  0.3578 -0.3395 -0.1577
 8651SOL    HW126852   4.228   2.380   1.530  0.2872 -0.7159 -0.0382
 8651SOL    HW226853   4.206   2.412   1.372 -0.5634 -0.6263  0.0919
 8652SOL     OW26854   1.463   4.392   3.948 -0.5735  0.1284 -0.1006
 8652SOL    HW126855   1.402   4.384   3.869  0.0461 -0.0306 -0.5704
 8652SOL    HW226856   1.467   4.304   3.996 -1.2952  0.3486  0.3704
 8653SOL     OW26857   4.851   4.329   6.445 -0.0144 -0.4040  0.1860
 8653SOL    HW126858   4.834   4.257   6.378 -0.2622 -2.2303  2.1233
 8653SOL    HW226859   4.947   4.357   6.440  0.2761 -1.4182 -0.0774
 8654SOL     OW26860   1.158   6.974   3.105 -0.9869 -0.3277 -0.3592
 8654SOL    HW126861   1.205   6.886   3.111 -1.8804 -0.7393  0.9832
 8654SOL    HW226862   1.122   6.986   3.012 -0.3179 -1.0830 -0.7255
 8655SOL     OW26863   0.663   6.850   2.431 -0.8012 -0.2504  0.0745
 8655SOL    HW126864   0.574   6.893   2.415 -0.3918  0.1189 -1.4143
 8655SOL    HW226865   0.734   6.920   2.432 -0.1390 -0.7900 -2.2236
 8656SOL     OW26866   0.301   2.276   6.719  0.2369 -0.0781  0.0327
 8656SOL    HW126867   0.371   2.208   6.745 -0.7262 -1.5175 -1.0210
 8656SOL    HW226868   0.234   2.284   6.793 -0.7578 -1.8317 -0.6152
 8657SOL     OW26869   3.485   3.890   0.355 -0.1583 -0.5077 -0.8052
 8657SOL    HW126870   3.554   3.905   0.285  1.1969 -3.2615 -0.2012
 8657SOL    HW226871   3.509   3.940   0.438  0.6742 -0.7631 -0.8841
 8658SOL     OW26872   0.318   5.481   0.825 -0.5188 -0.0010 -0.0059
 8658SOL    HW126873   0.233   5.496   0.775  0.0078 -1.1929 -1.3137
 8658SOL    HW226874   0.363   5.398   0.791  1.3448  0.7902  0.4031
 8659SOL     OW26875   4.412   6.931   3.321  0.5535 -0.0171 -0.9707
 8659SOL    HW126876   4.320   6.921   3.281 -0.1183  1.9321 -0.0689
 8659SOL    HW226877   4.451   6.841   3.337 -0.4181 -0.8960 -3.0796
 8660SOL     OW26878   4.386   4.885   0.758 -0.1275 -0.9648 -0.0464
 8660SOL    HW126879   4.358   4.795   0.791  1.3398 -1.8466 -1.0740
 8660SOL    HW226880   4.473   4.910   0.800  0.5741 -1.0482 -1.3836
 8661SOL     OW26881   5.429   3.490   0.226 -0.3969  0.3824  0.4502
 8661SOL    HW126882   5.500   3.432   0.267 -0.7824 -0.0678  0.4820
 8661SOL    HW226883   5.473   3.568   0.180  0.2503 -0.7549 -0.9552
 8662SOL     OW26884   2.024   6.617   6.297 -0.4619  0.4005 -0.2679
 8662SOL    HW126885   2.005   6.521   6.275  2.7726 -0.3252 -0.4204
 8662SOL    HW226886   2.012   6.631   6.396 -2.0256  0.1741 -0.4031
 8663SOL     OW26887   1.762   1.371   6.921  0.3483 -0.8618  0.2256
 8663SOL    HW126888   1.669   1.387   6.890  0.4075 -1.1028 -0.0826
 8663SOL    HW226889   1.774   1.275   6.943  0.0030 -0.5309  2.0502
 8664SOL     OW26890   3.370   6.624   0.310 -0.0082  0.0164 -0.0726
 8664SOL    HW126891   3.283   6.649   0.268  0.5810  0.0219 -1.3456
 8664SOL    HW226892   3.405   6.700   0.364 -0.1742  0.4935 -0.6258
 8665SOL     OW26893   3.673   5.382   4.709 -0.4248  0.0154 -0.0509
 8665SOL    HW126894   3.677   5.299   4.653  1.1345  0.0436 -0.0124
 8665SOL    HW226895   3.605   5.370   4.781 -2.6778  0.0812 -2.0554
 8666SOL     OW26896   5.441   4.337   3.838 -0.6894 -0.4115 -0.0012
 8666SOL    HW126897   5.453   4.432   3.866  1.3593 -0.4162 -0.7639
 8666SOL    HW226898   5.390   4.334   3.752 -2.2403 -0.1349  0.8625
 8667SOL     OW26899   6.474   2.985   4.214 -0.0817 -0.1714 -0.2274
 8667SOL    HW126900   6.398   3.015   4.156  1.1933  0.0962 -1.8202
 8667SOL    HW226901   6.496   3.056   4.281 -0.5204  0.2001 -0.4730
 8668SOL     OW26902   4.913   0.642   2.427  0.1712 -0.3816  0.0760
 8668SOL    HW126903   4.833   0.681   2.472  0.8830  0.3708  0.7219
 8668SOL    HW226904   4.995   0.689   2.459  0.8188 -0.7220 -1.0371
 8669SOL     OW26905   3.718   6.554   4.427 -0.0206  0.0309 -0.7605
 8669SOL    HW126906   3.719   6.472   4.483 -0.6319  1.3162  1.2450
 8669SOL    HW226907   3.812   6.584   4.410  0.1876  0.2658  0.6539
 8670SOL     OW26908   4.352   6.690   2.815 -0.6347  0.2983  0.1321
 8670SOL    HW126909   4.293   6.768   2.835 -0.8829  0.0379  0.4337
 8670SOL    HW226910   4.350   6.671   2.717 -0.3850  0.8170  0.0257
 8671SOL     OW26911   0.359   6.324   3.203 -0.0454  0.6329  0.4183
 8671SOL    HW126912   0.423   6.286   3.270  1.1238 -0.0095 -0.9803
 8671SOL    HW226913   0.410   6.380   3.138 -1.0778  0.9429 -0.1368
 8672SOL     OW26914   3.574   5.627   6.743 -0.1861  0.9101  0.2611
 8672SOL    HW126915   3.594   5.588   6.654 -0.8674 -1.0402  0.9226
 8672SOL    HW226916   3.569   5.555   6.812  0.4329  2.3655  1.9308
 8673SOL     OW26917   4.501   1.819   0.406  0.2021 -0.4399 -0.5514
 8673SOL    HW126918   4.446   1.749   0.450  1.6570 -0.8402  0.7180
 8673SOL    HW226919   4.594   1.786   0.393  0.5564  0.7443 -1.2772
 8674SOL     OW26920   3.054   6.870   3.975 -0.0790  0.2107  0.2826
 8674SOL    HW126921   2.963   6.883   3.937 -0.6990 -0.7236  1.3922
 8674SOL    HW226922   3.059   6.783   4.023  1.0599  0.7425  1.2138
 8675SOL     OW26923   2.462   0.955   1.598  0.0512 -0.5474  0.7900
 8675SOL    HW126924   2.468   1.009   1.682  0.7097 -0.5777  0.7648
 8675SOL    HW226925   2.369   0.919   1.589  0.0588 -0.8320  1.6862
 8676SOL     OW26926   4.623   2.607   5.052  0.0509 -0.4423 -0.1801
 8676SOL    HW126927   4.589   2.699   5.072  0.1981 -0.4019 -0.1153
 8676SOL    HW226928   4.594   2.581   4.960  0.4454 -0.1217 -0.4026
 8677SOL     OW26929   1.448   3.833   5.437  0.1768  0.0392 -0.1305
 8677SOL    HW126930   1.361   3.790   5.460 -0.3626  1.5158  0.7544
 8677SOL    HW226931   1.498   3.852   5.522  0.8079  0.3243 -0.5633
 8678SOL     OW26932   2.234   6.969   5.480  0.7857 -0.8118 -0.2931
 8678SOL    HW126933   2.325   6.956   5.519  0.5509 -1.5162  0.0384
 8678SOL    HW226934   2.242   6.982   5.381  1.3366  0.4149 -0.1096
 8679SOL     OW26935   6.459   1.580   6.172  0.3304  0.0745 -0.3084
 8679SOL    HW126936   6.486   1.652   6.236  1.3014  0.5008 -1.1618
 8679SOL    HW226937   6.362   1.590   6.150  0.2281  0.5363  0.3297
 8680SOL     OW26938   6.734   4.319   0.056  0.3312 -0.3668  0.0000
 8680SOL    HW126939   6.768   4.253  -0.011  0.1523  0.7184 -1.1967
 8680SOL    HW226940   6.793   4.400   0.055  0.1141 -0.1890  0.9120
 8681SOL     OW26941   2.910   3.480   5.881  0.2318 -0.2437 -0.1530
 8681SOL    HW126942   2.858   3.462   5.798 -2.4571  1.4721  1.0253
 8681SOL    HW226943   2.889   3.571   5.916 -0.4802 -1.6139  3.5201
 8682SOL     OW26944   1.873   4.461   4.248 -0.0559 -0.3805  0.0657
 8682SOL    HW126945   1.953   4.507   4.210 -1.3348  1.1007 -0.9634
 8682SOL    HW226946   1.792   4.488   4.197 -1.1771 -2.2228  0.7711
 8683SOL     OW26947   4.695   1.610   6.476  0.3476  0.2791  0.8703
 8683SOL    HW126948   4.699   1.562   6.388  0.3103 -0.1337  1.0904
 8683SOL    HW226949   4.787   1.630   6.507  0.3545  0.6010  0.6420
 8684SOL     OW26950   5.747   2.997   4.193 -0.5734  1.0392  0.5029
 8684SOL    HW126951   5.775   2.901   4.202  0.2265  0.9137 -2.3578
 8684SOL    HW226952   5.647   3.003   4.203 -0.6086 -0.0486  0.9443
 8685SOL     OW26953   6.740   1.667   4.508  0.0085  0.6245  0.0278
 8685SOL    HW126954   6.717   1.596   4.575  0.1678  0.1732 -0.3869
 8685SOL    HW226955   6.683   1.747   4.523  0.4483  0.7504  1.0719
 8686SOL     OW26956   0.114   2.560   3.171  0.2295 -0.3217 -0.1832
 8686SOL    HW126957   0.076   2.591   3.084  0.0792 -2.5755 -0.9864
 8686SOL    HW226958   0.191   2.499   3.154  0.6598 -0.2313  1.2950
 8687SOL     OW26959   3.094   1.609   3.505 -0.1208  0.2141 -0.8086
 8687SOL    HW126960   3.032   1.672   3.551  1.6481  1.6804 -0.3194
 8687SOL    HW226961   3.107   1.638   3.410  2.0050  1.7445 -0.1481
 8688SOL     OW26962   0.108   7.006   3.879 -0.0825 -0.5222 -0.2369
 8688SOL    HW126963   0.035   7.055   3.831 -0.4123  0.1721  0.9322
 8688SOL    HW226964   0.181   7.070   3.902  0.5731 -1.0708 -0.7625
 8689SOL     OW26965   4.823   5.389   0.339  0.1716  0.0167 -0.6179
 8689SOL    HW126966   4.753   5.320   0.323  1.2414 -1.1511 -0.4176
 8689SOL    HW226967   4.836   5.400   0.438  0.5719 -0.1056 -0.6536
 8690SOL     OW26968   1.877   0.763   3.741  0.1734  0.4677 -0.2270
 8690SOL    HW126969   1.809   0.807   3.682  0.6643  1.1754 -0.2677
 8690SOL    HW226970   1.964   0.812   3.735  0.6483 -0.3366 -0.0501
 8691SOL     OW26971   5.352   1.184   1.261 -0.0657  0.1218 -0.1310
 8691SOL    HW126972   5.310   1.268   1.229 -1.0125  0.2578  1.3609
 8691SOL    HW226973   5.282   1.112   1.267  0.3885 -0.3029  0.1737
 8692SOL     OW26974   0.970   3.024   4.266  0.3483  0.6462  0.3439
 8692SOL    HW126975   0.912   3.040   4.186 -0.6715  1.0015  1.1320
 8692SOL    HW226976   0.914   2.994   4.343  1.0410  2.0175  1.4349
 8693SOL     OW26977   4.590   1.439   0.895  0.1702  0.2240  0.3773
 8693SOL    HW126978   4.582   1.536   0.919  1.5260  0.1809  1.1022
 8693SOL    HW226979   4.587   1.430   0.795  1.1288  1.1495  0.2399
 8694SOL     OW26980   2.752   0.822   5.922 -0.1139 -0.1334 -0.1465
 8694SOL    HW126981   2.667   0.868   5.944  0.0860 -0.3627  1.2484
 8694SOL    HW226982   2.753   0.795   5.826 -0.7578  1.6207 -0.6746
 8695SOL     OW26983   3.407   4.183   4.488 -0.2361 -0.3168 -0.3507
 8695SOL    HW126984   3.411   4.251   4.414  1.4966 -0.7263 -0.6657
 8695SOL    HW226985   3.457   4.101   4.460 -0.5866 -0.9463  0.8250
 8696SOL     OW26986   1.733   5.252   1.212 -0.6202 -0.1293 -0.1543
 8696SOL    HW126987   1.751   5.348   1.190  4.7002 -0.0592  2.8903
 8696SOL    HW226988   1.796   5.194   1.161 -2.4144 -1.9644 -0.4410
 8697SOL     OW26989   5.342   6.249   5.656 -0.0737  0.1255 -0.2843
 8697SOL    HW126990   5.266   6.187   5.674  0.5517 -0.6878 -0.4313
 8697SOL    HW226991   5.410   6.203   5.600  0.4910  0.8844 -0.2314
 8698SOL     OW26992   6.554   6.415   4.449  0.1119  0.2165 -0.1877
 8698SOL    HW126993   6.484   6.466   4.499 -0.4457 -0.3809 -0.3410
 8698SOL    HW226994   6.537   6.424   4.350  0.7225  0.7182 -0.2532
 8699SOL     OW26995   1.559   0.968   5.410 -0.8315  0.3588  0.2618
 8699SOL    HW126996   1.515   1.017   5.484 -1.5688  0.6716 -0.3706
 8699SOL    HW226997   1.631   1.025   5.370 -0.4208  0.1828  0.7295
 8700SOL     OW26998   3.004   6.503   0.984 -0.2099  0.4226  0.3885
 8700SOL    HW126999   2.948   6.558   0.923  0.0269  0.1928 -0.0399
 8700SOL    HW227000   3.044   6.426   0.933 -0.2969  0.0249  0.9094
 8701SOL     OW27001   1.438   5.609   5.062 -0.4078  0.1819 -0.6988
 8701SOL    HW127002   1.501   5.684   5.041 -2.2026  2.3248  1.1647
 8701SOL    HW227003   1.344   5.638   5.044 -1.0912 -2.1519 -1.2290
 8702SOL     OW27004   4.504   5.490   2.140  0.5208  0.5794  0.7145
 8702SOL    HW127005   4.551   5.447   2.217  1.9339  1.4391  0.3880
 8702SOL    HW227006   4.506   5.590   2.151  0.9282  0.7316 -0.5029
 8703SOL     OW27007   5.610   5.602   0.037  0.0520 -0.1533 -0.3778
 8703SOL    HW127008   5.578   5.511   0.009  0.7330 -1.5475  2.8599
 8703SOL    HW227009   5.588   5.616   0.134  1.2937  2.5411 -0.4054
 8704SOL     OW27010   0.181   3.617   2.977 -0.0697 -0.5269 -0.4514
 8704SOL    HW127011   0.248   3.691   2.990 -0.1590 -0.1978 -1.7137
 8704SOL    HW227012   0.199   3.544   3.043  0.4546  0.3146  0.3608
 8705SOL     OW27013   6.158   0.058   3.351 -0.7342  0.4460  0.3987
 8705SOL    HW127014   6.195   0.012   3.432  1.9241 -0.4567 -1.1964
 8705SOL    HW227015   6.077   0.010   3.319  0.4535 -1.5918  0.3119
 8706SOL     OW27016   5.996   2.864   6.155  0.4642 -0.5114  0.0290
 8706SOL    HW127017   5.911   2.906   6.186  1.0591  0.1933  0.7571
 8706SOL    HW227018   6.042   2.925   6.092  2.5489  1.1982  2.9551
 8707SOL     OW27019   5.827   1.631   5.106  0.1786 -0.1654  0.2241
 8707SOL    HW127020   5.893   1.704   5.126 -1.1044  0.7654  1.2465
 8707SOL    HW227021   5.741   1.671   5.076 -0.8883 -1.1719  1.7581
 8708SOL     OW27022   3.356   1.786   1.243 -0.3639 -0.4141  0.1563
 8708SOL    HW127023   3.268   1.778   1.196  0.1488  0.5249 -1.0248
 8708SOL    HW227024   3.376   1.882   1.260  1.2698 -0.4355 -1.3160
 8709SOL     OW27025   5.960   2.654   0.730 -0.6642 -0.2669  0.5465
 8709SOL    HW127026   5.888   2.630   0.665  1.1711  0.0935 -1.7533
 8709SOL    HW227027   6.016   2.574   0.749  0.1342  0.1175 -0.1133
 8710SOL     OW27028   0.119   2.204   3.391  0.5634 -0.6852  0.0595
 8710SOL    HW127029   0.090   2.146   3.315  0.3034 -0.1510 -0.2514
 8710SOL    HW227030   0.092   2.163   3.478  1.5647 -1.7084 -0.0856
 8711SOL     OW27031   1.587   0.872   3.115  0.0062 -0.1833  0.5811
 8711SOL    HW127032   1.557   0.885   3.021  0.6182  2.0628  0.6358
 8711SOL    HW227033   1.687   0.864   3.117 -0.0031 -0.2043  1.0303
 8712SOL     OW27034   3.247   0.814   5.500  0.1120 -0.4670  0.5895
 8712SOL    HW127035   3.257   0.715   5.515  1.0636 -0.1408  2.3944
 8712SOL    HW227036   3.197   0.854   5.576 -0.4484  0.4335 -0.2386
 8713SOL     OW27037   6.512   4.860   3.967 -0.1936 -0.3962 -0.3518
 8713SOL    HW127038   6.604   4.885   3.937 -0.7125  1.1872 -0.7711
 8713SOL    HW227039   6.514   4.832   4.063  0.4802  1.5298  0.2471
 8714SOL     OW27040   1.434   2.004   3.602  0.0714 -0.6131  0.1301
 8714SOL    HW127041   1.355   1.952   3.634 -2.2120  2.0151 -0.8294
 8714SOL    HW227042   1.423   2.024   3.505  0.5341  2.0119  0.5443
 8715SOL     OW27043   4.919   2.323   2.353 -0.1240 -0.3739  0.2898
 8715SOL    HW127044   4.942   2.280   2.440 -1.0696  1.7948  1.7059
 8715SOL    HW227045   4.969   2.409   2.344  0.0863 -0.6274 -1.4382
 8716SOL     OW27046   1.661   6.909   2.356 -0.1996  0.1692  0.4184
 8716SOL    HW127047   1.589   6.961   2.311 -0.4452 -0.1785  0.4148
 8716SOL    HW227048   1.656   6.924   2.455  0.0626  0.5731  0.3777
 8717SOL     OW27049   3.522   2.798   6.805  0.4522 -0.1740  0.3740
 8717SOL    HW127050   3.547   2.832   6.895 -1.1855  1.1191  0.3724
 8717SOL    HW227051   3.437   2.840   6.775 -0.7066 -2.8630 -0.4755
 8718SOL     OW27052   0.191   1.985   5.186  0.1988 -0.1724 -0.2333
 8718SOL    HW127053   0.197   1.916   5.114  0.8375 -1.0481  0.6240
 8718SOL    HW227054   0.246   2.065   5.160  0.7556 -0.6458 -0.5370
 8719SOL     OW27055   5.824   1.878   5.598  0.1889 -0.4294 -0.2288
 8719SOL    HW127056   5.752   1.852   5.533  0.9333 -1.2969 -0.7357
 8719SOL    HW227057   5.787   1.943   5.664 -0.8667 -0.3130 -0.9028
 8720SOL     OW27058   5.055   2.171   5.558 -0.4247 -0.1905 -0.4466
 8720SOL    HW127059   5.101   2.177   5.469  0.4330 -1.7522 -0.1429
 8720SOL    HW227060   5.066   2.079   5.596  0.1067  0.7011  1.7462
 8721SOL     OW27061   0.258   1.255   4.587  0.0600 -0.2234  0.3226
 8721SOL    HW127062   0.206   1.296   4.662 -1.8902 -1.5649 -0.2201
 8721SOL    HW227063   0.239   1.306   4.503  1.0465  0.3432  0.4235
 8722SOL     OW27064   1.864   3.457   6.157  0.4259 -0.0378 -0.3161
 8722SOL    HW127065   1.795   3.403   6.205  0.6853 -0.4685 -0.4199
 8722SOL    HW227066   1.820   3.531   6.107 -0.1406 -1.2514 -1.6849
 8723SOL     OW27067   0.224   5.496   0.402  0.3936 -0.0062 -0.1766
 8723SOL    HW127068   0.220   5.589   0.439 -0.2830  0.3991 -1.2153
 8723SOL    HW227069   0.318   5.462   0.409  0.5543  0.5633  0.6540
 8724SOL     OW27070   6.647   5.914   6.558 -0.0599 -0.1338 -0.6294
 8724SOL    HW127071   6.556   5.955   6.545  0.2444  0.5031 -0.8113
 8724SOL    HW227072   6.641   5.839   6.624 -0.4994  0.7175  0.3237
 8725SOL     OW27073   0.012   6.598   1.852 -0.0338 -0.0536  0.2218
 8725SOL    HW127074   0.091   6.586   1.912  0.4977 -0.6077 -0.5746
 8725SOL    HW227075   0.009   6.693   1.819 -0.1926  0.1910  0.9119
 8726SOL     OW27076   6.278   5.588   0.644  0.2934  0.3134  0.1022
 8726SOL    HW127077   6.332   5.574   0.727 -0.4287  1.8004  0.8635
 8726SOL    HW227078   6.229   5.675   0.650  0.3422  0.5503 -1.9617
 8727SOL     OW27079   0.044   6.319   1.045  0.2159  0.1660  0.0804
 8727SOL    HW127080   0.111   6.321   1.119 -1.1390 -0.0257  1.3408
 8727SOL    HW227081  -0.026   6.388   1.062 -0.9364 -0.9140 -0.2257
 8728SOL     OW27082   3.193   6.857   5.671  0.4520  0.5470 -0.0085
 8728SOL    HW127083   3.222   6.931   5.611 -0.6573  0.5103 -0.6177
 8728SOL    HW227084   3.132   6.795   5.621 -1.9172  1.4479  1.5719
 8729SOL     OW27085   5.063   5.665   5.806  0.7715 -0.1490  0.0576
 8729SOL    HW127086   5.063   5.587   5.744 -0.6219 -0.8858  0.9209
 8729SOL    HW227087   4.969   5.689   5.829  1.2203 -0.5745  2.6444
 8730SOL     OW27088   0.190   6.633   2.216 -0.0689  0.1016  0.5684
 8730SOL    HW127089   0.200   6.668   2.123 -0.3327  0.7867  0.7847
 8730SOL    HW227090   0.279   6.629   2.260  0.1256 -0.7804  0.0951
 8731SOL     OW27091   6.392   2.025   2.762  0.3937 -0.2159 -0.5469
 8731SOL    HW127092   6.367   2.007   2.667 -4.0641  1.2186  0.1512
 8731SOL    HW227093   6.374   1.943   2.817  2.0060 -0.7088 -0.6897
 8732SOL     OW27094   4.947   4.154   0.248 -0.2173  0.1099  0.2255
 8732SOL    HW127095   4.991   4.168   0.159 -0.1386  0.2817  0.2930
 8732SOL    HW227096   4.854   4.119   0.233  0.1029 -0.7143  0.0909
 8733SOL     OW27097   1.903   5.035   1.855 -0.5681  0.3371  0.1899
 8733SOL    HW127098   1.905   5.094   1.936  1.9070 -0.7716  1.0301
 8733SOL    HW227099   1.987   5.048   1.802 -1.0927 -0.6740 -0.9436
 8734SOL     OW27100   5.360   5.867   0.246 -0.4282  0.7632 -0.2918
 8734SOL    HW127101   5.314   5.781   0.270 -1.0056  0.9841 -0.5939
 8734SOL    HW227102   5.322   5.941   0.301  0.5203  0.7256  0.4367
 8735SOL     OW27103   0.030   2.199   6.450  0.6308  0.2050  0.5046
 8735SOL    HW127104   0.113   2.220   6.399 -0.6302  1.6486 -1.0647
 8735SOL    HW227105  -0.046   2.184   6.387 -0.3770 -0.8962  1.9009
 8736SOL     OW27106   0.430   5.254   5.351 -0.4075 -0.0868  0.7524
 8736SOL    HW127107   0.464   5.334   5.401 -2.3607  0.8226  0.7166
 8736SOL    HW227108   0.331   5.248   5.361 -0.2455 -2.9844  1.3831
 8737SOL     OW27109   2.807   5.661   5.349 -0.2659  0.6613  0.0905
 8737SOL    HW127110   2.853   5.605   5.417 -2.3494 -0.1971  0.8941
 8737SOL    HW227111   2.798   5.609   5.264 -0.7016  0.4025  0.2906
 8738SOL     OW27112   6.651   2.575   4.450  0.0619  0.5746 -0.4011
 8738SOL    HW127113   6.698   2.531   4.527 -1.2935  1.6012  1.0736
 8738SOL    HW227114   6.657   2.674   4.459  0.4152  0.7215 -1.9915
 8739SOL     OW27115   1.212   4.418   6.810  0.3689 -0.3848  0.0434
 8739SOL    HW127116   1.225   4.361   6.891  0.8205  1.1358  1.0743
 8739SOL    HW227117   1.116   4.445   6.802  0.2183 -0.9869 -0.2611
 8740SOL     OW27118   1.005   0.483   0.033 -0.0515  0.0470 -0.5161
 8740SOL    HW127119   1.022   0.385   0.039  0.4626  0.1178 -0.8522
 8740SOL    HW227120   1.047   0.529   0.111  1.2266  0.2071 -1.2801
 8741SOL     OW27121   1.988   2.417   0.871  0.2772  0.4953 -0.6421
 8741SOL    HW127122   1.992   2.318   0.863  1.9959  0.6457 -2.0052
 8741SOL    HW227123   1.946   2.456   0.789  0.6608  0.9686 -0.6197
 8742SOL     OW27124   5.719   5.598   3.109 -0.4459  0.5312  0.3398
 8742SOL    HW127125   5.737   5.641   3.021  0.0519  0.1517  0.2522
 8742SOL    HW227126   5.758   5.654   3.182 -0.8137  0.8182  0.3174
 8743SOL     OW27127   0.435   5.048   4.403 -0.3210 -0.6177 -0.4380
 8743SOL    HW127128   0.444   4.988   4.324  1.0276 -0.1994 -0.6309
 8743SOL    HW227129   0.469   5.139   4.379 -1.3734 -0.0540  0.1557
 8744SOL     OW27130   3.877   4.077   4.482 -0.4520 -0.2727 -0.5656
 8744SOL    HW127131   3.839   4.117   4.398 -0.4154  0.1594 -0.3803
 8744SOL    HW227132   3.837   4.122   4.562  0.0179 -0.2143 -0.3619
 8745SOL     OW27133   6.466   1.627   1.358 -0.0452  0.8176  0.1734
 8745SOL    HW127134   6.401   1.694   1.322 -0.0534  0.1106 -1.1842
 8745SOL    HW227135   6.424   1.536   1.357  1.5327 -0.0011 -2.5897
 8746SOL     OW27136   5.055   3.650   6.227 -0.0603  0.0235  0.1000
 8746SOL    HW127137   5.005   3.567   6.201 -0.5558 -0.7395  3.1278
 8746SOL    HW227138   5.084   3.643   6.323  0.8769  2.8904  0.1098
 8747SOL     OW27139   0.803   2.401   3.630 -0.2895 -0.2752 -0.4193
 8747SOL    HW127140   0.890   2.406   3.581 -0.6971  0.2294 -1.0990
 8747SOL    HW227141   0.814   2.344   3.712  0.7786  0.1036 -0.2873
 8748SOL     OW27142   2.698   0.306   1.224 -0.0685  0.0096 -0.1249
 8748SOL    HW127143   2.734   0.326   1.315 -2.3913  1.7626  0.4706
 8748SOL    HW227144   2.726   0.377   1.160 -1.2373  0.6368  0.0323
 8749SOL     OW27145   3.345   2.109   3.971 -0.6786  0.2272 -0.0408
 8749SOL    HW127146   3.420   2.157   3.927  0.7363 -1.4120  0.4410
 8749SOL    HW227147   3.362   2.103   4.070 -0.3549 -1.8776 -0.1653
 8750SOL     OW27148   1.878   2.385   5.460  0.5329  0.1175 -0.1618
 8750SOL    HW127149   1.927   2.305   5.425 -0.7755 -0.8030  0.0274
 8750SOL    HW227150   1.781   2.363   5.469  0.2289  1.5763  0.3870
 8751SOL     OW27151   0.822   6.948   2.746  0.4580  0.0517 -0.1671
 8751SOL    HW127152   0.767   7.031   2.738 -0.1966 -0.2228  1.1965
 8751SOL    HW227153   0.762   6.869   2.756  1.0758 -0.5706 -1.1967
 8752SOL     OW27154   4.435   0.805   0.163  0.2437 -0.2607 -0.2951
 8752SOL    HW127155   4.368   0.779   0.232 -1.6809  0.7011 -1.7032
 8752SOL    HW227156   4.527   0.799   0.201 -0.6463 -1.3375  1.8007
 8753SOL     OW27157   5.003   1.600   4.126  0.3499  0.0109  0.2333
 8753SOL    HW127158   4.906   1.599   4.100  0.1655 -1.1938  0.8964
 8753SOL    HW227159   5.059   1.584   4.044 -0.1883 -2.7974  0.3061
 8754SOL     OW27160   1.925   0.066   5.830 -0.4547 -0.3797  0.2770
 8754SOL    HW127161   1.979  -0.017   5.843  1.2042  0.1447 -2.3717
 8754SOL    HW227162   1.973   0.144   5.871 -0.9618 -0.4048  0.9308
 8755SOL     OW27163   1.255   2.392   0.813 -0.2910 -0.1449  0.3619
 8755SOL    HW127164   1.304   2.372   0.727 -0.2624  1.1073  0.0739
 8755SOL    HW227165   1.166   2.347   0.811 -0.7981  0.8469 -0.8735
 8756SOL     OW27166   2.725   5.395   3.592  0.2553 -0.4221 -0.0937
 8756SOL    HW127167   2.745   5.356   3.682 -1.1883 -0.2830  0.3013
 8756SOL    HW227168   2.718   5.494   3.600  3.6963  0.0377 -1.0571
 8757SOL     OW27169   5.255   6.000   3.369 -0.2531  0.5130 -0.6803
 8757SOL    HW127170   5.267   6.093   3.335  0.5988  1.2636  1.5064
 8757SOL    HW227171   5.189   6.000   3.444  1.0318 -0.2903  0.5143
 8758SOL     OW27172   4.834   6.192   0.756 -0.2830 -0.8851  0.4824
 8758SOL    HW127173   4.847   6.128   0.832 -1.2341 -2.0692 -0.3037
 8758SOL    HW227174   4.754   6.249   0.773 -0.0346 -0.6055  0.7204
 8759SOL     OW27175   5.023   1.172   5.050  0.3135  0.3260 -0.1031
 8759SOL    HW127176   4.988   1.243   5.111 -0.4162 -0.4414  0.3930
 8759SOL    HW227177   5.120   1.157   5.069  0.4618  1.1431 -0.1738
 8760SOL     OW27178   0.659   4.301   2.618  0.2200  0.4711  0.6797
 8760SOL    HW127179   0.564   4.308   2.650  0.2750 -0.1567  0.9930
 8760SOL    HW227180   0.671   4.358   2.537 -0.2439  1.1039  1.0540
 8761SOL     OW27181   5.873   6.546   1.036  0.1477  0.4654  0.0993
 8761SOL    HW127182   5.935   6.470   1.060  0.3692  1.0569  1.4983
 8761SOL    HW227183   5.925   6.616   0.987 -0.0692 -0.2731 -1.2504
 8762SOL     OW27184   6.841   5.064   6.846 -0.0708 -0.3362 -1.0335
 8762SOL    HW127185   6.885   5.139   6.895 -0.1821  0.4612 -2.1215
 8762SOL    HW227186   6.796   5.002   6.912 -1.3879  1.4407 -0.1816
 8763SOL     OW27187   5.972   4.876   6.785  0.1384 -0.5112  0.6902
 8763SOL    HW127188   5.964   4.779   6.762 -1.6172  0.0854 -1.6212
 8763SOL    HW227189   6.002   4.927   6.705  1.4051  0.8634  1.9732
 8764SOL     OW27190   5.191   2.981   6.705  0.1144 -0.2836  0.2506
 8764SOL    HW127191   5.255   3.037   6.758  0.2250 -0.6878  0.5542
 8764SOL    HW227192   5.100   3.024   6.706  0.2921  0.0957  0.1390
 8765SOL     OW27193   0.762   0.762   5.297 -0.1198  0.3177  0.4941
 8765SOL    HW127194   0.666   0.784   5.281 -0.2870 -0.3773  0.5187
 8765SOL    HW227195   0.805   0.733   5.211 -0.9732 -3.2439  1.1308
 8766SOL     OW27196   2.212   4.072   3.148  0.0345  0.8313 -0.0493
 8766SOL    HW127197   2.236   4.166   3.168 -1.2411  1.4067 -1.0212
 8766SOL    HW227198   2.190   4.024   3.233 -1.9989  2.2361  0.3088
 8767SOL     OW27199   6.050   0.514   4.969 -0.1057  0.2219  0.0336
 8767SOL    HW127200   6.150   0.510   4.978 -0.0473  0.4264 -0.4930
 8767SOL    HW227201   6.013   0.421   4.971  0.0307  0.1756  0.8594
 8768SOL     OW27202   6.912   4.794   0.686 -0.3456  0.1720 -0.0569
 8768SOL    HW127203   6.942   4.769   0.778  0.8459  0.5822 -0.3083
 8768SOL    HW227204   6.924   4.716   0.625 -1.4873 -0.2175  0.1983
 8769SOL     OW27205   3.511   0.933   5.105 -0.0183  0.2100  0.5110
 8769SOL    HW127206   3.463   0.857   5.061  1.1908 -0.7938  0.8598
 8769SOL    HW227207   3.586   0.897   5.161  0.4595  1.6537  0.8425
 8770SOL     OW27208   4.058   1.165   3.593 -0.6540 -0.1702  0.1078
 8770SOL    HW127209   4.073   1.172   3.692 -2.4202 -0.0126  0.3822
 8770SOL    HW227210   3.963   1.143   3.575 -0.6827  1.1807 -1.6209
 8771SOL     OW27211   3.296   2.345   6.061 -0.3412  0.2642  0.7030
 8771SOL    HW127212   3.327   2.362   6.154  1.4726  1.4194 -0.0499
 8771SOL    HW227213   3.374   2.314   6.006 -1.2875 -0.0005 -0.5216
 8772SOL     OW27214   5.930   6.817   6.526 -0.0023  0.2115 -0.7567
 8772SOL    HW127215   5.832   6.797   6.534  0.0264 -0.0686 -1.0860
 8772SOL    HW227216   5.947   6.864   6.439 -0.1194  2.0010  0.1540
 8773SOL     OW27217   3.120   1.086   3.133  0.5076 -0.0462  0.5992
 8773SOL    HW127218   3.111   1.033   3.049 -2.8963  0.9547  0.1815
 8773SOL    HW227219   3.156   1.177   3.112 -0.7128  0.3413  0.1082
 8774SOL     OW27220   2.503   5.678   5.730  0.6315  0.5465 -0.0795
 8774SOL    HW127221   2.573   5.748   5.739 -0.0228  1.7553 -3.0266
 8774SOL    HW227222   2.453   5.693   5.644 -1.9231 -1.4317  0.9535
 8775SOL     OW27223   5.752   1.620   3.588  0.3676  0.5072  0.2787
 8775SOL    HW127224   5.779   1.639   3.493  0.8450  1.5935  0.6195
 8775SOL    HW227225   5.828   1.642   3.649  0.4909 -1.2829  0.8429
 8776SOL     OW27226   3.184   4.156   5.223  0.0203  0.6205 -0.0627
 8776SOL    HW127227   3.162   4.248   5.254  0.6674  1.2526 -1.3867
 8776SOL    HW227228   3.131   4.134   5.141  0.1706 -0.0312  0.0061
 8777SOL     OW27229   6.431   6.043   1.405 -0.4105 -0.1045 -0.3471
 8777SOL    HW127230   6.404   5.967   1.464 -1.8197 -0.4097 -1.3251
 8777SOL    HW227231   6.440   6.010   1.311 -0.1944  0.7768 -0.6445
 8778SOL     OW27232   1.021   3.359   2.763 -0.1240  0.1019  0.1041
 8778SOL    HW127233   0.934   3.316   2.738 -0.4268 -0.1418  1.5013
 8778SOL    HW227234   1.076   3.296   2.817 -0.7495  1.5044  2.5562
 8779SOL     OW27235   0.297   4.723   0.214  0.1986 -0.2474 -0.1375
 8779SOL    HW127236   0.288   4.754   0.119  2.0789  0.0948 -0.2403
 8779SOL    HW227237   0.356   4.787   0.264 -0.2546 -0.7730  1.1028
 8780SOL     OW27238   2.565   5.213   3.461 -0.2059  0.5025 -0.5980
 8780SOL    HW127239   2.508   5.246   3.385 -0.1639  1.6314 -0.1532
 8780SOL    HW227240   2.624   5.287   3.493 -0.9833  0.3778  1.2350
 8781SOL     OW27241   0.879   1.352   3.134  0.2205 -0.0174  0.3696
 8781SOL    HW127242   0.976   1.376   3.129  0.4147 -0.7262  0.6339
 8781SOL    HW227243   0.854   1.292   3.058 -0.3525  1.2819 -0.5000
 8782SOL     OW27244   4.560   2.191   2.868 -0.7177  0.3535  0.3527
 8782SOL    HW127245   4.527   2.276   2.826  2.5602  1.2389 -0.7743
 8782SOL    HW227246   4.597   2.212   2.959  0.5198  0.2884 -0.1145
 8783SOL     OW27247   0.139   4.163   4.688 -0.6128 -0.2507 -0.3034
 8783SOL    HW127248   0.097   4.246   4.650 -2.7945 -1.8632 -1.6223
 8783SOL    HW227249   0.188   4.187   4.772 -1.3846  2.3350 -0.4923
 8784SOL     OW27250   5.347   2.334   6.976  0.0540  0.1759  0.0769
 8784SOL    HW127251   5.411   2.361   7.047 -1.8392  0.9890  1.5647
 8784SOL    HW227252   5.315   2.415   6.926 -0.0271 -0.1886 -0.4778
 8785SOL     OW27253   5.290   3.422   5.587 -0.7156  0.2492 -0.1851
 8785SOL    HW127254   5.241   3.363   5.651  0.3740 -0.2470  0.2169
 8785SOL    HW227255   5.245   3.420   5.498 -1.3523 -0.2802  0.1401
 8786SOL     OW27256   1.117   6.946   1.135  0.2904  0.1321 -0.2394
 8786SOL    HW127257   1.092   6.854   1.165  0.1931 -0.1850 -1.2518
 8786SOL    HW227258   1.184   6.985   1.199 -0.1286 -0.3890  0.5397
 8787SOL     OW27259   6.715   0.936   6.617  0.3435 -0.1421 -0.1314
 8787SOL    HW127260   6.647   0.898   6.680 -0.7445 -0.0797 -1.2297
 8787SOL    HW227261   6.683   1.023   6.581 -0.4282 -1.4140 -2.8561
 8788SOL     OW27262   0.180   2.707   5.971  0.0514 -0.1601 -0.3586
 8788SOL    HW127263   0.235   2.656   5.904 -1.0687 -1.2710 -0.4918
 8788SOL    HW227264   0.206   2.803   5.970  0.8857 -0.3745 -1.5390
 8789SOL     OW27265   1.320   0.009   1.309  0.2591 -0.5984 -0.5160
 8789SOL    HW127266   1.334  -0.000   1.407  0.8227  0.0102 -0.5336
 8789SOL    HW227267   1.408   0.004   1.262  0.0448 -0.3596 -0.9477
 8790SOL     OW27268   3.871   2.108   2.221  0.0747  0.2552 -0.4070
 8790SOL    HW127269   3.944   2.177   2.216 -0.0208  0.4696  0.9128
 8790SOL    HW227270   3.797   2.133   2.159  0.6707  0.5665 -1.0123
 8791SOL     OW27271   6.170   0.390   5.263  0.3703 -0.6186 -0.2336
 8791SOL    HW127272   6.135   0.477   5.298 -1.1587 -0.8626 -1.0435
 8791SOL    HW227273   6.224   0.344   5.333 -1.5004 -0.4943  1.3570
 8792SOL     OW27274   4.777   0.671   2.187 -0.2971 -0.0996  0.2779
 8792SOL    HW127275   4.814   0.617   2.111  3.4250  3.0402 -0.4380
 8792SOL    HW227276   4.841   0.668   2.264 -1.3498  1.0920  1.2462
 8793SOL     OW27277   0.996   4.099   0.094  0.0579  0.1221 -0.0779
 8793SOL    HW127278   1.004   4.098   0.194 -1.4682  0.9908  0.0837
 8793SOL    HW227279   0.904   4.069   0.068 -0.1516  1.5836 -1.1351
 8794SOL     OW27280   0.776   4.469   2.828 -0.2158  0.2296 -0.2110
 8794SOL    HW127281   0.722   4.422   2.758 -0.8425  0.9671 -0.2336
 8794SOL    HW227282   0.765   4.423   2.916 -2.9477  1.7627  0.3755
 8795SOL     OW27283   1.831   5.727   4.904  0.4433 -0.0373 -0.1720
 8795SOL    HW127284   1.874   5.717   4.994  0.0960  1.0863  0.1393
 8795SOL    HW227285   1.738   5.761   4.915  0.0668 -0.8059 -0.9233
 8796SOL     OW27286   4.999   3.594   5.264 -0.3152  0.2900 -0.2144
 8796SOL    HW127287   4.943   3.617   5.185 -0.7703 -1.3532 -0.4012
 8796SOL    HW227288   5.087   3.558   5.233 -0.0255  0.7366  0.0631
 8797SOL     OW27289   7.021   5.236   0.039 -0.4506 -0.2714 -0.0993
 8797SOL    HW127290   7.041   5.149   0.084 -2.5733 -0.2072  1.1112
 8797SOL    HW227291   6.957   5.288   0.095 -0.2547  1.5100 -1.4483
 8798SOL     OW27292   2.648   3.838   6.734  0.2100 -0.2783  0.7827
 8798SOL    HW127293   2.683   3.921   6.691 -0.2047 -0.2979  0.3987
 8798SOL    HW227294   2.579   3.796   6.674  2.2779 -2.3500 -0.3244
 8799SOL     OW27295   2.796   0.800   2.601  0.1268 -0.1973  0.7772
 8799SOL    HW127296   2.837   0.835   2.516  1.0643 -0.3015  1.1753
 8799SOL    HW227297   2.764   0.706   2.587  0.5687 -0.3260  0.6253
 8800SOL     OW27298   4.539   3.905   0.296  0.7400 -0.4663 -0.2603
 8800SOL    HW127299   4.449   3.912   0.252  0.4826 -0.4083  0.2636
 8800SOL    HW227300   4.585   3.822   0.264 -0.8535 -2.2681  1.8544
 8801SOL     OW27301   4.340   0.074   4.900 -0.5873 -0.2761  0.8156
 8801SOL    HW127302   4.299   0.073   4.991  0.1052 -0.1824  1.1370
 8801SOL    HW227303   4.285   0.131   4.839  0.5305  2.2119  1.9534
 8802SOL     OW27304   4.002   6.883   1.837  0.0378  0.3067 -0.1787
 8802SOL    HW127305   3.952   6.956   1.789 -0.0809  2.4732  2.9083
 8802SOL    HW227306   4.097   6.912   1.852  0.4447 -0.9171 -0.2793
 8803SOL     OW27307   4.663   6.064   0.566  0.6203  0.0901  0.5146
 8803SOL    HW127308   4.575   6.111   0.574 -0.3514 -1.6565  0.5834
 8803SOL    HW227309   4.734   6.117   0.611 -0.4040  1.5004  0.5216
 8804SOL     OW27310   3.896   0.883   1.185  0.2568 -0.1365  0.1499
 8804SOL    HW127311   3.884   0.972   1.229 -1.6290 -0.4793  0.4171
 8804SOL    HW227312   3.960   0.891   1.109  2.3893  0.8005  1.9571
 8805SOL     OW27313   1.793   0.065   4.274 -0.2979  0.0095  0.7407
 8805SOL    HW127314   1.760   0.102   4.361 -0.6046  0.7833  0.3062
 8805SOL    HW227315   1.843  -0.020   4.291  0.6992  0.7712  1.8114
 8806SOL     OW27316   0.878   4.073   1.044 -0.2350 -0.1640 -0.3643
 8806SOL    HW127317   0.869   4.173   1.041 -1.9147 -0.2799 -0.0826
 8806SOL    HW227318   0.813   4.036   1.110  0.2300 -1.4677 -0.6155
 8807SOL     OW27319   1.684   5.854   0.881  0.2663 -0.2022 -0.8903
 8807SOL    HW127320   1.604   5.846   0.822 -0.5109 -0.9898  0.2168
 8807SOL    HW227321   1.761   5.807   0.838  0.2685  0.8859 -2.1453
 8808SOL     OW27322   5.937   2.297   0.685  0.3973  0.0031 -0.3358
 8808SOL    HW127323   5.991   2.335   0.760  0.5751  1.8330 -1.3159
 8808SOL    HW227324   5.993   2.295   0.602 -0.1990 -0.7460 -0.7292
 8809SOL     OW27325   5.912   2.915   1.157 -0.1795  0.1679  0.1005
 8809SOL    HW127326   5.878   2.943   1.247  1.3111 -1.0470  1.0991
 8809SOL    HW227327   5.967   2.988   1.118 -1.7018  1.1205 -0.3451
 8810SOL     OW27328   4.870   0.159   3.293  0.3950  0.2940  0.1491
 8810SOL    HW127329   4.804   0.108   3.238  1.3842 -2.3009  1.1932
 8810SOL    HW227330   4.833   0.171   3.386  0.1181  1.6471 -0.1245
 8811SOL     OW27331   1.669   1.868   3.686 -0.3638  0.1219 -0.2448
 8811SOL    HW127332   1.676   1.941   3.754 -0.0599  0.3967 -0.5684
 8811SOL    HW227333   1.595   1.889   3.622  1.2940  1.4476 -1.8590
 8812SOL     OW27334   3.288   6.517   6.442  0.0623 -0.1280 -0.5294
 8812SOL    HW127335   3.347   6.574   6.499 -0.2105  0.1316 -0.5014
 8812SOL    HW227336   3.257   6.570   6.363 -0.7448 -0.0092 -0.1467
 8813SOL     OW27337   1.429   5.323   1.061 -0.1999 -0.2317  0.0764
 8813SOL    HW127338   1.449   5.396   1.126 -0.6908  0.4098 -0.4825
 8813SOL    HW227339   1.508   5.310   1.000 -0.8471  1.2916 -1.1751
 8814SOL     OW27340   4.621   0.159   5.934 -0.1620  0.5938 -0.0655
 8814SOL    HW127341   4.626   0.259   5.932  0.4619  0.6519  2.0367
 8814SOL    HW227342   4.637   0.127   6.027 -0.1265 -1.4962 -0.7446
 8815SOL     OW27343   6.662   6.957   3.590  0.6120  0.9310  0.1337
 8815SOL    HW127344   6.616   6.981   3.505 -1.3981 -2.8669 -0.0708
 8815SOL    HW227345   6.757   6.930   3.570  0.4545  1.0126 -0.7662
 8816SOL     OW27346   4.736   6.185   1.804 -0.2217  0.3839 -0.0156
 8816SOL    HW127347   4.788   6.236   1.873 -0.1252  0.0224  0.1786
 8816SOL    HW227348   4.690   6.250   1.743  0.3022  0.7030 -0.0772
 8817SOL     OW27349   6.989   1.726   4.714  0.3528 -0.0403  0.5161
 8817SOL    HW127350   7.020   1.781   4.637 -1.3326  0.2496  0.0043
 8817SOL    HW227351   6.892   1.745   4.732  0.1841 -1.5686  1.4296
 8818SOL     OW27352   1.505   2.482   5.598 -0.3607 -0.8457  0.4302
 8818SOL    HW127353   1.529   2.472   5.694  0.7944 -1.7542  0.0688
 8818SOL    HW227354   1.556   2.559   5.559 -1.5121  0.1070  0.7363
 8819SOL     OW27355   5.405   1.327   4.086  0.0803 -0.2941  0.0698
 8819SOL    HW127356   5.483   1.297   4.141  0.3939  1.3365  0.5561
 8819SOL    HW227357   5.360   1.404   4.131 -0.3281  0.3611 -1.4069
 8820SOL     OW27358   1.356   2.787   2.642 -0.1415 -0.1514  0.0459
 8820SOL    HW127359   1.325   2.747   2.729  0.4503  0.1148  0.3874
 8820SOL    HW227360   1.278   2.829   2.595 -0.5519 -0.6868  0.2325
 8821SOL     OW27361   2.096   5.184   5.450  1.1430 -0.1396 -0.1714
 8821SOL    HW127362   2.053   5.135   5.526 -0.2196 -1.0299 -1.4382
 8821SOL    HW227363   2.029   5.194   5.376  2.5112  0.4123 -1.3680
 8822SOL     OW27364   1.197   0.586   2.793 -0.2230  0.1268 -0.0106
 8822SOL    HW127365   1.159   0.574   2.884 -2.4804 -0.3595 -0.9380
 8822SOL    HW227366   1.134   0.546   2.726  0.6656  1.7068 -1.8864
 8823SOL     OW27367   2.554   4.836   1.818  0.2518 -0.1477  0.0191
 8823SOL    HW127368   2.533   4.791   1.731  1.2212 -0.3546 -0.1108
 8823SOL    HW227369   2.648   4.870   1.817 -0.5496  2.2880 -0.0615
 8824SOL     OW27370   4.296   3.575   0.077 -0.1258 -0.1522  0.1167
 8824SOL    HW127371   4.327   3.481   0.064 -1.6453 -0.5889 -0.6128
 8824SOL    HW227372   4.204   3.574   0.116 -0.7959  0.9968 -1.3596
 8825SOL     OW27373   2.115   0.739   1.758 -0.4370 -0.2426  0.3007
 8825SOL    HW127374   2.085   0.832   1.781  0.7155 -0.3411  2.4369
 8825SOL    HW227375   2.037   0.686   1.725 -1.6443  0.7952  1.3688
 8826SOL     OW27376   5.213   0.942   1.426 -0.6152  0.0032  0.0930
 8826SOL    HW127377   5.145   0.885   1.380  0.2570  0.7761 -2.2839
 8826SOL    HW227378   5.284   0.883   1.465 -0.1416 -0.6391 -1.6488
 8827SOL     OW27379   6.477   2.226   3.845  0.7194 -0.4670  0.4944
 8827SOL    HW127380   6.531   2.143   3.834 -0.5664 -1.5816  2.0847
 8827SOL    HW227381   6.406   2.230   3.775  1.1960 -0.3468  0.0117
 8828SOL     OW27382   2.229   4.537   3.658 -0.2437  0.2101  0.3347
 8828SOL    HW127383   2.248   4.630   3.628  2.9934 -0.2449  0.6045
 8828SOL    HW227384   2.283   4.517   3.740  0.6705 -2.4795 -0.8130
 8829SOL     OW27385   1.889   2.110   1.267 -0.2403  0.5558  0.5067
 8829SOL    HW127386   1.804   2.086   1.315 -0.3224 -1.6117 -0.6365
 8829SOL    HW227387   1.869   2.179   1.197 -1.5297 -1.2911 -1.0593
 8830SOL     OW27388   1.496   3.439   0.725 -0.1677 -0.3193  0.1109
 8830SOL    HW127389   1.593   3.431   0.749 -0.5113  0.0469  1.7667
 8830SOL    HW227390   1.450   3.351   0.741  0.1203 -0.8930 -1.9724
 8831SOL     OW27391   0.357   6.859   1.640 -0.1756  0.6218 -0.9529
 8831SOL    HW127392   0.371   6.853   1.541 -0.5428  0.3463 -0.9874
 8831SOL    HW227393   0.295   6.934   1.661 -2.1199 -0.8627 -1.1305
 8832SOL     OW27394   0.879   6.555   2.740  0.3817 -0.4580  0.2801
 8832SOL    HW127395   0.796   6.612   2.734  0.0196 -1.0516 -0.5079
 8832SOL    HW227396   0.940   6.593   2.810  1.7049  2.9354 -2.3980
 8833SOL     OW27397   1.450   0.100   4.400 -0.5118  0.1392 -0.1886
 8833SOL    HW127398   1.355   0.100   4.429 -0.3645  0.9971  0.3228
 8833SOL    HW227399   1.498   0.177   4.441  0.4106 -0.2832 -0.4357
 8834SOL     OW27400   5.408   3.694   4.733  0.5393 -0.2188  0.2756
 8834SOL    HW127401   5.370   3.693   4.825 -2.2538 -1.1396 -0.8000
 8834SOL    HW227402   5.453   3.782   4.717  0.0054  0.4406  2.0740
 8835SOL     OW27403   5.871   1.511   0.408 -0.1755  0.4289  0.6723
 8835SOL    HW127404   5.871   1.457   0.324 -0.2618  2.1179 -0.4617
 8835SOL    HW227405   5.781   1.506   0.451  0.0151 -0.8447  0.9534
 8836SOL     OW27406   5.553   6.632   2.323  0.6099 -0.3008  0.3601
 8836SOL    HW127407   5.530   6.714   2.269  1.6711  0.4332  1.0012
 8836SOL    HW227408   5.468   6.586   2.350 -0.1094  1.5611  1.4822
 8837SOL     OW27409   1.018   2.005   2.256 -0.5058 -0.5219  0.0721
 8837SOL    HW127410   1.023   2.033   2.352  0.0443 -0.2219 -0.0385
 8837SOL    HW227411   1.067   1.919   2.244 -0.4719 -0.4979  0.0388
 8838SOL     OW27412   3.875   7.019   4.339  0.7876  0.3743  0.7628
 8838SOL    HW127413   3.929   7.103   4.344  0.2335  0.7653  0.2523
 8838SOL    HW227414   3.937   6.941   4.328  1.2779  0.7627  0.6881
 8839SOL     OW27415   5.244   4.420   4.836  0.1234 -0.2507  0.0280
 8839SOL    HW127416   5.305   4.468   4.773  1.5434 -1.2529  0.5816
 8839SOL    HW227417   5.291   4.340   4.874 -0.6917  0.2777  2.3161
 8840SOL     OW27418   3.885   0.592   1.496  0.8954 -0.2530  0.7710
 8840SOL    HW127419   3.800   0.587   1.548  0.9538 -0.8103  0.8187
 8840SOL    HW227420   3.877   0.662   1.425 -0.9293 -2.6613 -1.5932
 8841SOL     OW27421   5.386   6.387   3.520 -0.1071 -0.2938 -0.3890
 8841SOL    HW127422   5.327   6.332   3.580  0.6395 -1.3493 -0.6110
 8841SOL    HW227423   5.373   6.359   3.425  1.3236 -1.1015 -0.3672
 8842SOL     OW27424   0.825   2.051   2.058 -0.1570  0.5661 -0.2101
 8842SOL    HW127425   0.908   2.016   2.102  0.2225  0.3166 -1.1011
 8842SOL    HW227426   0.759   2.077   2.128 -0.1103 -1.0997  0.4959
 8843SOL     OW27427   0.166   4.754   4.887 -0.4923  0.9697 -0.0757
 8843SOL    HW127428   0.188   4.840   4.842 -0.8352  0.7216 -0.7324
 8843SOL    HW227429   0.067   4.740   4.885 -0.6351  1.4594  1.7008
 8844SOL     OW27430   5.750   1.091   5.110 -0.4792 -0.1849 -0.0192
 8844SOL    HW127431   5.789   1.032   5.181  1.4005  0.9703 -0.0188
 8844SOL    HW227432   5.806   1.085   5.027 -0.7894  0.8858 -0.3183
 8845SOL     OW27433   4.886   2.289   0.314 -0.0632 -0.0399  0.2613
 8845SOL    HW127434   4.981   2.285   0.345 -0.3905  1.1619  1.5063
 8845SOL    HW227435   4.853   2.383   0.320 -0.7924 -0.1093 -1.8832
 8846SOL     OW27436   3.448   5.510   3.827  0.5825  0.9807 -0.5348
 8846SOL    HW127437   3.442   5.458   3.742 -0.3238 -1.1175  0.7127
 8846SOL    HW227438   3.417   5.603   3.812 -1.1960  0.1885 -2.1744
 8847SOL     OW27439   0.267   1.374   3.190  0.0049  0.2296 -0.2598
 8847SOL    HW127440   0.351   1.378   3.136 -1.2721  2.4049 -2.2838
 8847SOL    HW227441   0.276   1.433   3.271  0.6492 -0.1293 -0.0659
 8848SOL     OW27442   1.105   0.945   3.241 -0.3980  0.1011  0.3590
 8848SOL    HW127443   1.169   0.873   3.268  1.5264  2.0858  1.4320
 8848SOL    HW227444   1.041   0.964   3.316 -2.5701 -2.0659 -0.8081
 8849SOL     OW27445   0.245   7.011   0.234  0.0557 -0.7790  0.0617
 8849SOL    HW127446   0.238   6.932   0.294  0.1975 -0.5932  0.3235
 8849SOL    HW227447   0.204   6.990   0.145  0.5127 -1.3044 -0.0263
 8850SOL     OW27448   3.734   2.405   6.114  0.3290 -0.2270  0.1904
 8850SOL    HW127449   3.702   2.313   6.092 -2.4078  0.6151  0.2331
 8850SOL    HW227450   3.713   2.426   6.210  1.9304  0.0937  0.4999
 8851SOL     OW27451   1.908   3.924   2.342 -0.1676  0.0041 -0.4607
 8851SOL    HW127452   1.928   3.840   2.292 -2.0455  0.0821 -1.4494
 8851SOL    HW227453   1.906   4.001   2.278  0.5138  0.6450  0.2690
 8852SOL     OW27454   1.072   1.529   5.778 -0.2438  0.4435  0.7772
 8852SOL    HW127455   1.073   1.485   5.868  0.5472 -1.3209 -0.0461
 8852SOL    HW227456   1.152   1.501   5.726  0.8341  3.6484  0.4888
 8853SOL     OW27457   5.922   1.164   0.231 -0.1913 -0.3006  0.7331
 8853SOL    HW127458   5.841   1.147   0.286  0.0015 -1.0419  0.7954
 8853SOL    HW227459   5.916   1.255   0.189 -1.4522 -0.7024  0.0146
 8854SOL     OW27460   6.928   2.657   5.872 -0.7109 -0.0828 -0.1200
 8854SOL    HW127461   6.854   2.685   5.934 -0.2215 -1.0101  0.9257
 8854SOL    HW227462   7.017   2.676   5.915 -0.2970 -3.8534  1.1206
 8855SOL     OW27463   3.838   4.615   1.708 -0.1315 -0.5842  0.4489
 8855SOL    HW127464   3.740   4.620   1.728  0.0129  2.6575  0.8244
 8855SOL    HW227465   3.863   4.520   1.691 -2.8674 -1.8313  2.5618
 8856SOL     OW27466   5.408   6.656   5.657 -0.5669 -0.2257 -0.3189
 8856SOL    HW127467   5.436   6.752   5.656  1.4806 -0.6825  1.9282
 8856SOL    HW227468   5.362   6.636   5.744 -0.2301 -1.4625 -0.4043
 8857SOL     OW27469   6.908   1.542   6.416  0.1782  0.3766  0.3729
 8857SOL    HW127470   6.907   1.542   6.316  0.1042  2.2922  0.3413
 8857SOL    HW227471   6.956   1.460   6.448  0.4839 -0.1145 -1.2241
 8858SOL     OW27472   0.168   0.157   5.592  0.4956 -0.1658 -0.5144
 8858SOL    HW127473   0.140   0.167   5.688 -1.1434  0.1844 -0.9928
 8858SOL    HW227474   0.107   0.093   5.546  0.4952  0.6048 -1.6166
 8859SOL     OW27475   1.485   6.897   2.869 -0.3763 -0.3932  0.1524
 8859SOL    HW127476   1.476   6.952   2.952 -1.5023 -0.4822  0.1076
 8859SOL    HW227477   1.483   6.956   2.789  4.0272  0.0805  0.1849
 8860SOL     OW27478   0.027   4.136   1.771  0.2327  0.0436 -0.2201
 8860SOL    HW127479  -0.002   4.117   1.677  1.1059  0.2664 -0.5411
 8860SOL    HW227480   0.060   4.051   1.813 -0.8064 -0.2018  0.1316
 8861SOL     OW27481   3.057   2.447   0.173 -0.6206 -0.6247 -0.2761
 8861SOL    HW127482   2.986   2.507   0.137 -0.5521 -0.0936  0.4544
 8861SOL    HW227483   3.066   2.367   0.114 -0.0036  0.5626 -1.8597
 8862SOL     OW27484   5.404   4.411   5.068 -0.3502 -0.2764 -0.1940
 8862SOL    HW127485   5.391   4.482   4.999 -0.9387 -1.1296 -0.9963
 8862SOL    HW227486   5.321   4.402   5.123  0.0385  0.2512  0.4785
 8863SOL     OW27487   1.351   5.101   2.144  0.1459 -0.7681 -0.1080
 8863SOL    HW127488   1.271   5.111   2.204 -0.0003 -1.0508 -0.2530
 8863SOL    HW227489   1.325   5.047   2.064  0.6304 -1.3687  0.1310
 8864SOL     OW27490   6.859   1.093   4.359  0.2463  0.2958 -0.4540
 8864SOL    HW127491   6.847   1.186   4.326  1.4087  0.7610  0.3533
 8864SOL    HW227492   6.945   1.056   4.324 -0.4077 -0.6460 -1.1152
 8865SOL     OW27493   3.300   3.303   6.693  0.3383  0.2786 -0.4066
 8865SOL    HW127494   3.249   3.323   6.777 -0.2543  1.4151 -1.0133
 8865SOL    HW227495   3.398   3.314   6.709  0.1707  1.3457 -0.0891
 8866SOL     OW27496   0.880   0.282   1.701 -0.2833  0.2462 -0.4243
 8866SOL    HW127497   0.953   0.345   1.726 -0.8613  0.7521  0.0173
 8866SOL    HW227498   0.917   0.207   1.646  0.3550  1.1756 -1.2891
 8867SOL     OW27499   0.486   1.178   1.514 -0.4182 -0.4967  0.1223
 8867SOL    HW127500   0.567   1.123   1.495  0.1294 -0.0604  1.1534
 8867SOL    HW227501   0.512   1.273   1.528 -1.3085 -0.0296 -1.1893
 8868SOL     OW27502   1.600   3.390   2.933 -0.3370 -0.5056  0.1369
 8868SOL    HW127503   1.641   3.309   2.975 -0.1501 -0.6915 -0.3898
 8868SOL    HW227504   1.616   3.387   2.834 -1.3028 -0.3875 -0.0293
 8869SOL     OW27505   6.876   1.362   3.055  0.0517  0.0765  0.2114
 8869SOL    HW127506   6.777   1.376   3.053 -0.0638 -0.0979  2.5714
 8869SOL    HW227507   6.921   1.441   3.013 -1.0071  1.6753  1.9091
 8870SOL     OW27508   0.880   0.328   3.400  0.3421 -0.2406  0.0485
 8870SOL    HW127509   0.947   0.352   3.470 -0.6773  0.6541  0.7432
 8870SOL    HW227510   0.883   0.396   3.327  1.1938 -1.0086 -0.6610
 8871SOL     OW27511   2.191   0.440   2.323 -0.3799  0.2648  0.3724
 8871SOL    HW127512   2.236   0.524   2.293 -1.1347  1.1819  1.7352
 8871SOL    HW227513   2.240   0.361   2.285  1.3416  1.2621  0.4173
 8872SOL     OW27514   1.125   3.682   4.171  0.4482  0.0346 -0.0866
 8872SOL    HW127515   1.211   3.729   4.156 -0.0445  0.4461 -1.8244
 8872SOL    HW227516   1.064   3.739   4.226  0.7281  0.4111 -0.1686
 8873SOL     OW27517   2.905   2.276   3.137  0.5043  0.4368  0.0079
 8873SOL    HW127518   2.809   2.290   3.110  0.4058  0.4436  0.3505
 8873SOL    HW227519   2.964   2.286   3.057  0.0828 -1.2390 -0.5477
 8874SOL     OW27520   3.456   0.931   2.040  0.3251 -0.0735  0.1350
 8874SOL    HW127521   3.447   0.832   2.052  1.7967 -0.0768  1.4837
 8874SOL    HW227522   3.523   0.967   2.105 -0.8125  1.9556  0.2682
 8875SOL     OW27523   6.991   3.344   5.578 -0.1045 -0.2365 -0.3563
 8875SOL    HW127524   6.896   3.338   5.547 -0.5604  0.3011  0.8950
 8875SOL    HW227525   7.052   3.324   5.501 -1.2189 -0.4832 -1.2036
 8876SOL     OW27526   2.471   0.476   0.401  0.4740 -0.0162  0.2337
 8876SOL    HW127527   2.492   0.539   0.325 -0.1003  0.0872  0.1606
 8876SOL    HW227528   2.508   0.386   0.380  0.4258  0.0446 -0.1165
 8877SOL     OW27529   0.516   4.574   3.002 -0.3602 -0.1656  0.1406
 8877SOL    HW127530   0.555   4.625   2.926  0.5208  0.4647  0.9795
 8877SOL    HW227531   0.417   4.563   2.988 -0.2858  0.3412 -0.8547
 8878SOL     OW27532   4.915   2.663   1.231 -0.3787 -0.5582 -0.0989
 8878SOL    HW127533   4.899   2.762   1.226  1.0395 -0.3058  0.1445
 8878SOL    HW227534   4.864   2.625   1.308 -0.5121  0.0680  0.1309
 8879SOL     OW27535   0.003   4.762   2.401  0.4341 -0.3763 -0.2802
 8879SOL    HW127536  -0.055   4.832   2.359 -0.4028 -1.4545 -0.9951
 8879SOL    HW227537   0.079   4.805   2.449 -1.1928  1.1118  1.0548
 8880SOL     OW27538   4.924   0.675   3.805 -0.1170 -0.1558  0.0678
 8880SOL    HW127539   4.944   0.598   3.746  0.5857  0.1824 -0.1473
 8880SOL    HW227540   4.920   0.759   3.751 -0.3373  0.0345  0.3742
 8881SOL     OW27541   5.067   6.894   2.536 -0.3249 -0.5525  0.2881
 8881SOL    HW127542   5.049   6.978   2.586 -1.7953  0.7156 -2.1626
 8881SOL    HW227543   5.162   6.892   2.506 -0.5795  0.9065 -0.6992
 8882SOL     OW27544   3.221   6.390   0.367 -0.0351 -0.2549  0.1947
 8882SOL    HW127545   3.260   6.474   0.328  0.3704 -0.6567 -0.2680
 8882SOL    HW227546   3.145   6.360   0.310  0.3387 -0.6527 -0.0937
 8883SOL     OW27547   0.863   5.902   4.272 -0.7107 -0.2926 -0.1481
 8883SOL    HW127548   0.855   6.001   4.265  1.0389 -0.1216 -0.1334
 8883SOL    HW227549   0.931   5.878   4.341  0.1410 -1.4630 -1.3488
 8884SOL     OW27550   3.663   2.963   4.677  0.4222 -0.3684 -0.0165
 8884SOL    HW127551   3.741   3.004   4.724 -0.3268  2.2307 -0.8928
 8884SOL    HW227552   3.687   2.948   4.581 -0.3721  1.2010 -0.4824
 8885SOL     OW27553   5.450   0.674   0.498  0.1055  0.3703  0.2641
 8885SOL    HW127554   5.352   0.680   0.518 -0.3439 -0.3162 -1.5625
 8885SOL    HW227555   5.475   0.579   0.480  1.4255  0.3318  2.0039
 8886SOL     OW27556   3.507   4.867   1.183 -0.2088  0.7414  0.0517
 8886SOL    HW127557   3.594   4.839   1.143  1.1418  1.0472  2.5682
 8886SOL    HW227558   3.442   4.792   1.178  1.0126 -0.3719  0.3096
 8887SOL     OW27559   3.847   0.962   3.131  0.6041 -0.4324 -0.7802
 8887SOL    HW127560   3.846   0.903   3.212 -1.6769 -1.4811 -1.5133
 8887SOL    HW227561   3.858   0.907   3.049 -0.5421  0.2651 -1.4212
 8888SOL     OW27562   4.116   1.371   3.117  0.5915 -0.5760  0.1879
 8888SOL    HW127563   4.049   1.327   3.176 -0.4422 -3.1118 -2.6331
 8888SOL    HW227564   4.078   1.455   3.079 -0.3331 -1.0631  0.0115
 8889SOL     OW27565   0.367   4.367   0.854  0.3813 -0.5236 -0.1304
 8889SOL    HW127566   0.390   4.361   0.757 -1.5177  0.2555 -0.6729
 8889SOL    HW227567   0.351   4.463   0.879 -2.9516 -0.9689 -0.0745
 8890SOL     OW27568   0.925   0.680   1.412  0.4135  0.7135  0.2456
 8890SOL    HW127569   0.986   0.712   1.484 -1.2915  1.3338  1.4787
 8890SOL    HW227570   0.932   0.741   1.333  2.7408 -0.3190 -0.4338
 8891SOL     OW27571   5.785   2.446   3.513 -0.6968  0.0355  0.0157
 8891SOL    HW127572   5.841   2.442   3.596 -1.5502  0.8317  0.6506
 8891SOL    HW227573   5.724   2.524   3.518 -0.5202  0.3041 -1.5410
 8892SOL     OW27574   0.794   5.073   4.711  0.5311 -0.7545 -0.1526
 8892SOL    HW127575   0.742   4.989   4.698 -1.0463 -0.4934  3.2347
 8892SOL    HW227576   0.782   5.105   4.805  0.9125  3.4024 -1.3178
 8893SOL     OW27577   0.461   2.878   5.572 -0.1931  0.2788  0.0675
 8893SOL    HW127578   0.444   2.928   5.657  0.1846  1.6902 -0.6682
 8893SOL    HW227579   0.536   2.921   5.522 -1.1465  0.1470 -1.5272
 8894SOL     OW27580   5.350   3.026   2.638  0.1321  0.2439  0.0859
 8894SOL    HW127581   5.252   3.016   2.622 -0.0754  1.7081  0.2946
 8894SOL    HW227582   5.398   3.024   2.550 -0.1554  0.2218 -0.0742
 8895SOL     OW27583   6.227   4.624   2.342  0.1445  0.3851  0.3381
 8895SOL    HW127584   6.140   4.667   2.317 -0.5079 -1.1165 -0.0896
 8895SOL    HW227585   6.303   4.683   2.312 -0.7075  1.5259  0.3589
 8896SOL     OW27586   1.080   2.158   3.747 -0.1391  0.1786 -0.4848
 8896SOL    HW127587   1.014   2.093   3.710  0.4820  0.4995 -2.2173
 8896SOL    HW227588   1.171   2.140   3.710 -0.3295  3.4597 -3.0929
 8897SOL     OW27589   1.185   3.294   4.817 -0.3882 -0.3368  0.3299
 8897SOL    HW127590   1.226   3.207   4.842  0.4300 -0.6008 -1.7390
 8897SOL    HW227591   1.245   3.369   4.845  0.9661 -0.6664 -1.5346
 8898SOL     OW27592   6.856   4.237   2.627 -0.1500 -0.1184  0.1720
 8898SOL    HW127593   6.828   4.321   2.581  0.8455 -0.3216 -0.8688
 8898SOL    HW227594   6.898   4.175   2.560  1.7247 -0.2705  1.4077
 8899SOL     OW27595   1.777   3.648   1.712 -0.0507  0.0777  0.2041
 8899SOL    HW127596   1.838   3.617   1.784 -0.3005  0.2991  0.5117
 8899SOL    HW227597   1.806   3.739   1.681  0.3195 -0.1977 -0.2821
 8900SOL     OW27598   3.832   1.713   4.241 -0.3681  0.1540 -0.6337
 8900SOL    HW127599   3.822   1.809   4.266 -1.7036  0.5874 -2.6047
 8900SOL    HW227600   3.891   1.706   4.160  0.0376 -0.7326 -0.2734
 8901SOL     OW27601   1.915   5.657   6.596  0.1897 -0.5832  0.4483
 8901SOL    HW127602   1.872   5.609   6.519 -0.4277  0.5794  0.0551
 8901SOL    HW227603   2.015   5.651   6.587  0.2062  1.6410 -1.8552
 8902SOL     OW27604   0.076   5.031   5.418  0.2408 -0.0789 -0.3652
 8902SOL    HW127605  -0.021   5.009   5.420  0.5537 -1.7960 -1.5655
 8902SOL    HW227606   0.112   5.032   5.512 -0.8934  0.5332  0.0868
 8903SOL     OW27607   0.030   1.152   6.618 -0.1696  0.4441 -0.2374
 8903SOL    HW127608  -0.069   1.157   6.627 -0.4620 -1.8470 -1.4116
 8903SOL    HW227609   0.065   1.085   6.684  0.1897 -0.9020 -1.7265
 8904SOL     OW27610   6.915   6.480   2.492  0.2689  0.4601  0.2190
 8904SOL    HW127611   6.958   6.522   2.572 -1.0712 -1.4807  2.0528
 8904SOL    HW227612   6.984   6.426   2.443  1.4757  2.8802 -0.9339
 8905SOL     OW27613   1.241   2.670   0.539 -0.1955  0.4501 -0.0479
 8905SOL    HW127614   1.173   2.597   0.535 -0.1589  0.1658  2.6232
 8905SOL    HW227615   1.242   2.720   0.452 -2.1016 -1.0219 -0.9882
 8906SOL     OW27616   6.869   1.197   6.863 -0.2505 -0.0452  0.2782
 8906SOL    HW127617   6.811   1.203   6.945 -1.0849 -0.4311 -0.2664
 8906SOL    HW227618   6.899   1.103   6.850  1.2038  0.2877  1.0065
 8907SOL     OW27619   3.799   4.079   5.219  0.0788 -0.0492 -0.1132
 8907SOL    HW127620   3.834   4.034   5.301 -0.6729  0.5711  0.5759
 8907SOL    HW227621   3.750   4.162   5.246 -0.9398 -0.3034 -1.1149
 8908SOL     OW27622   3.024   5.181   6.212 -0.5036 -0.0804 -0.4232
 8908SOL    HW127623   3.081   5.262   6.203  0.6817 -0.9699 -1.2828
 8908SOL    HW227624   3.077   5.099   6.188 -1.6282 -1.1346  0.5038
 8909SOL     OW27625   1.913   4.803   3.191  0.6038  0.2826  0.5562
 8909SOL    HW127626   1.816   4.823   3.206  0.6931  2.0367 -0.8483
 8909SOL    HW227627   1.964   4.824   3.275 -0.0748  0.5046  0.9221
 8910SOL     OW27628   1.746   1.618   4.174 -0.5176 -0.7646  0.3290
 8910SOL    HW127629   1.817   1.639   4.241  0.2399 -0.2329 -0.5974
 8910SOL    HW227630   1.664   1.584   4.220  0.1191 -0.7848  1.4706
 8911SOL     OW27631   4.663   0.669   6.100 -0.0066  0.3078 -0.4812
 8911SOL    HW127632   4.615   0.584   6.078 -0.9764  0.7865 -0.2728
 8911SOL    HW227633   4.689   0.667   6.197  4.3395 -1.8370 -1.4614
 8912SOL     OW27634   3.228   3.626   2.370  0.5857  0.0724 -0.2401
 8912SOL    HW127635   3.301   3.557   2.365  0.5033  0.0424 -1.1689
 8912SOL    HW227636   3.140   3.583   2.350  0.4991  0.3961 -0.5605
 8913SOL     OW27637   5.147   5.609   6.980 -0.3221  0.5125  0.7193
 8913SOL    HW127638   5.124   5.617   6.883 -0.7460  1.9661  0.9195
 8913SOL    HW227639   5.215   5.678   7.004  1.4449 -1.2453  1.0015
 8914SOL     OW27640   5.490   6.720   0.035  0.1305  0.4786 -0.0509
 8914SOL    HW127641   5.488   6.808   0.082 -2.1072 -0.5717  2.0110
 8914SOL    HW227642   5.581   6.679   0.046  0.8044  1.9331  0.0479
 8915SOL     OW27643   2.277   4.871   5.198  0.5689  0.4824  0.2383
 8915SOL    HW127644   2.289   4.790   5.257 -0.1392 -0.3299 -0.6971
 8915SOL    HW227645   2.267   4.841   5.103  0.8972  1.7254 -0.1971
 8916SOL     OW27646   4.598   2.144   1.322 -0.3886 -0.5152 -0.6612
 8916SOL    HW127647   4.522   2.145   1.257 -1.4249  0.9006  0.4844
 8916SOL    HW227648   4.663   2.216   1.298 -0.9640  0.2641  0.0155
 8917SOL     OW27649   6.867   2.209   0.112  0.2385 -0.0500  0.3084
 8917SOL    HW127650   6.840   2.255   0.027  1.3674 -2.4819 -1.5083
 8917SOL    HW227651   6.794   2.146   0.140  0.0897  0.3626  0.8662
 8918SOL     OW27652   0.470   4.024   2.969  0.3477 -0.4561  0.2978
 8918SOL    HW127653   0.441   3.973   2.888 -0.5663 -0.3748  0.5551
 8918SOL    HW227654   0.435   4.117   2.964 -0.9948 -0.8593  1.4526
 8919SOL     OW27655   6.329   2.056   1.574 -0.0521 -0.1611 -0.0606
 8919SOL    HW127656   6.335   2.014   1.664 -0.4791  0.1885  0.1307
 8919SOL    HW227657   6.421   2.084   1.544 -0.0700  0.8833  0.8201
 8920SOL     OW27658   0.368   1.438   1.171 -0.3655 -0.2639  0.0989
 8920SOL    HW127659   0.377   1.491   1.255 -0.0682 -0.1366 -0.0118
 8920SOL    HW227660   0.337   1.346   1.192  0.2068 -0.3908  0.3929
 8921SOL     OW27661   2.144   3.516   1.523  0.0343 -0.3339 -0.2177
 8921SOL    HW127662   2.168   3.605   1.563 -0.1045  0.1476 -1.1673
 8921SOL    HW227663   2.099   3.459   1.592  0.6830  0.0974  0.5732
 8922SOL     OW27664   3.310   4.878   2.626  0.4448 -0.4118 -0.0813
 8922SOL    HW127665   3.273   4.903   2.537 -0.9871 -1.2889  0.2352
 8922SOL    HW227666   3.236   4.850   2.687  1.6138 -2.0957  0.6570
 8923SOL     OW27667   3.616   6.928   4.238 -0.1575 -0.3727 -0.2063
 8923SOL    HW127668   3.705   6.967   4.260  0.3583 -1.1952 -0.7652
 8923SOL    HW227669   3.596   6.851   4.299  0.0489 -0.9190 -0.8093
 8924SOL     OW27670   5.662   6.502   4.227  0.0859  0.4220 -0.0000
 8924SOL    HW127671   5.712   6.571   4.175 -0.1494  0.9279  0.4366
 8924SOL    HW227672   5.578   6.543   4.264  1.0248  0.5424  2.1357
 8925SOL     OW27673   2.544   0.409   3.967  0.5280 -0.1984  0.0272
 8925SOL    HW127674   2.490   0.335   4.006  0.5420 -0.3049 -0.1558
 8925SOL    HW227675   2.597   0.453   4.039 -1.2191  1.1311  0.5773
 8926SOL     OW27676   5.753   1.018   0.552  0.1331  0.4444 -0.3842
 8926SOL    HW127677   5.683   0.989   0.618 -0.0545 -0.6514 -1.0467
 8926SOL    HW227678   5.708   1.057   0.471  0.3694  2.1392  0.2467
 8927SOL     OW27679   2.046   2.192   5.747 -0.0982  0.0063 -0.3532
 8927SOL    HW127680   2.080   2.203   5.654 -0.9621  1.6124 -0.5016
 8927SOL    HW227681   1.968   2.130   5.747  1.1483 -1.6555 -0.3603
 8928SOL     OW27682   1.961   4.898   0.016  0.6849 -0.2835  0.5465
 8928SOL    HW127683   2.041   4.932   0.066  1.1577  0.2575 -0.5151
 8928SOL    HW227684   1.980   4.905  -0.083  0.1554 -2.1773  0.2882
 8929SOL     OW27685   1.027   1.677   3.720  0.2855  0.1974 -0.7758
 8929SOL    HW127686   1.064   1.624   3.643 -1.5389 -0.3538 -1.3334
 8929SOL    HW227687   0.977   1.615   3.782  0.7414  0.8166  0.2433
 8930SOL     OW27688   2.123   3.713   3.097 -0.3020  0.1944 -0.1404
 8930SOL    HW127689   2.124   3.693   3.195 -1.4436  0.0675 -0.1430
 8930SOL    HW227690   2.105   3.629   3.046 -1.9814  0.6192 -0.3182
 8931SOL     OW27691   4.178   4.251   6.541 -1.0506  0.1390 -0.5516
 8931SOL    HW127692   4.186   4.318   6.614  1.0384 -0.6529  0.0232
 8931SOL    HW227693   4.185   4.296   6.452 -1.1765  0.8353 -0.2111
 8932SOL     OW27694   1.459   3.654   5.708  0.4100 -0.3448 -0.1890
 8932SOL    HW127695   1.419   3.562   5.702  0.5367 -0.3647 -0.8817
 8932SOL    HW227696   1.417   3.704   5.783 -1.1549 -0.2566 -1.0716
 8933SOL     OW27697   4.197   2.319   0.459  0.4950 -0.5546  0.6352
 8933SOL    HW127698   4.251   2.397   0.492  0.4578 -0.8829  1.5028
 8933SOL    HW227699   4.203   2.245   0.526  0.3377 -1.2116 -0.0707
 8934SOL     OW27700   1.834   4.339   2.001 -0.0002 -0.2389 -0.3526
 8934SOL    HW127701   1.832   4.439   2.003  2.2853 -0.1390  1.7432
 8934SOL    HW227702   1.774   4.303   2.072  0.5646 -0.2783  0.1104
 8935SOL     OW27703   5.575   5.331   6.966 -0.2952  0.0970 -0.3549
 8935SOL    HW127704   5.497   5.268   6.957  0.3662 -0.5573 -1.7356
 8935SOL    HW227705   5.646   5.289   7.022 -0.6904  0.4666  0.4378
 8936SOL     OW27706   2.608   4.181   0.510  0.1197  0.5461  0.0238
 8936SOL    HW127707   2.639   4.271   0.479 -1.0583  0.6427 -0.9881
 8936SOL    HW227708   2.649   4.110   0.452  1.4143  0.3649  1.1125
 8937SOL     OW27709   1.710   0.976   0.462 -0.0603  0.3978  0.7764
 8937SOL    HW127710   1.721   1.061   0.410 -0.5273 -0.7489 -1.3092
 8937SOL    HW227711   1.800   0.939   0.486  0.1622  0.9864  0.8490
 8938SOL     OW27712   3.582   4.813   6.004  0.3163 -0.3701  0.5025
 8938SOL    HW127713   3.567   4.864   5.919 -0.1079 -0.6037  0.4356
 8938SOL    HW227714   3.523   4.733   6.006  1.4857 -1.2756  0.2780
 8939SOL     OW27715   6.816   1.235   5.920  0.8518  0.2285  0.1568
 8939SOL    HW127716   6.749   1.172   5.960  2.3800 -1.2617  0.5073
 8939SOL    HW227717   6.835   1.206   5.826  2.4881 -0.6680  0.7216
 8940SOL     OW27718   6.235   6.902   2.078  0.3159 -0.1226 -0.3842
 8940SOL    HW127719   6.270   6.809   2.092 -0.4973 -0.1687  1.5527
 8940SOL    HW227720   6.283   6.965   2.138  0.8876  0.7606 -1.7154
 8941SOL     OW27721   2.904   0.481   6.034 -0.2684 -0.1035  0.1194
 8941SOL    HW127722   2.820   0.511   6.079  0.3158  0.6736  0.7084
 8941SOL    HW227723   2.916   0.531   5.948 -0.8300 -0.8238 -0.3961
 8942SOL     OW27724   2.441   2.083   5.492  0.2355  0.0084 -0.2107
 8942SOL    HW127725   2.423   2.034   5.406  0.7328  0.4372 -0.5683
 8942SOL    HW227726   2.410   2.178   5.483 -2.5209 -0.6449  1.1334
 8943SOL     OW27727   4.370   4.509   2.089 -0.0977 -0.5752 -0.1421
 8943SOL    HW127728   4.410   4.422   2.061 -1.1819 -0.7199 -1.2931
 8943SOL    HW227729   4.298   4.535   2.026 -1.1824  0.1558  1.3289
 8944SOL     OW27730   2.638   5.513   3.163  0.2678 -0.1011 -0.4676
 8944SOL    HW127731   2.556   5.466   3.195  0.8630 -1.0497 -0.3221
 8944SOL    HW227732   2.719   5.468   3.199  0.8472  2.5979  1.9162
 8945SOL     OW27733   1.808   1.034   5.264 -0.0661 -0.0925  0.7488
 8945SOL    HW127734   1.895   0.986   5.265  0.5417  0.8832 -1.2039
 8945SOL    HW227735   1.816   1.118   5.210 -2.2759 -0.1234  0.2700
 8946SOL     OW27736   3.981   6.481   4.407 -0.4393  0.4708  0.7383
 8946SOL    HW127737   4.008   6.385   4.398  0.8029  0.8476  0.2664
 8946SOL    HW227738   4.004   6.515   4.498  0.1550  0.6262  0.5332
 8947SOL     OW27739   3.567   4.185   4.909  0.8461  0.3623 -0.3456
 8947SOL    HW127740   3.595   4.184   5.005  1.3809 -0.3584 -0.5033
 8947SOL    HW227741   3.469   4.165   4.903  0.8773  0.0940  0.0261
 8948SOL     OW27742   0.079   5.623   3.129  0.0741 -0.7151 -0.1052
 8948SOL    HW127743   0.160   5.571   3.158  0.0980 -0.0350  1.1353
 8948SOL    HW227744   0.098   5.668   3.042  1.9830  1.4046  1.2818
 8949SOL     OW27745   2.451   5.283   6.273 -0.6734  0.4541  0.1930
 8949SOL    HW127746   2.501   5.208   6.230  1.0217  2.3531 -1.3432
 8949SOL    HW227747   2.361   5.251   6.301  0.8055 -2.7569  1.7924
 8950SOL     OW27748   4.999   2.670   5.058  0.4753  0.0046 -0.3962
 8950SOL    HW127749   4.946   2.602   5.007  0.8838 -1.3722  0.9405
 8950SOL    HW227750   4.974   2.665   5.155  1.8737  0.4585  0.0041
 8951SOL     OW27751   2.482   0.145   0.738  0.5391  0.3552  0.0759
 8951SOL    HW127752   2.508   0.082   0.811 -1.5125 -0.7417 -0.0670
 8951SOL    HW227753   2.388   0.176   0.752  0.3590  0.7250 -1.6808
 8952SOL     OW27754   6.831   5.896   2.547 -0.6647  0.0763 -0.2281
 8952SOL    HW127755   6.907   5.875   2.608 -0.5850 -1.5222 -0.8052
 8952SOL    HW227756   6.766   5.955   2.593 -0.5376 -0.9653  1.3703
 8953SOL     OW27757   2.235   4.526   5.157  0.4395 -0.2231 -0.0028
 8953SOL    HW127758   2.283   4.591   5.216  1.5447  0.8446 -1.9543
 8953SOL    HW227759   2.298   4.455   5.126  0.4931  0.4326 -1.5223
 8954SOL     OW27760   3.204   0.173   4.659 -0.4278 -0.5352 -0.0915
 8954SOL    HW127761   3.290   0.123   4.649  0.4950  1.0755 -0.5120
 8954SOL    HW227762   3.154   0.137   4.738  0.3445 -1.8722 -0.1771
 8955SOL     OW27763   6.687   3.212   1.887  0.0998 -0.2041 -0.3150
 8955SOL    HW127764   6.617   3.265   1.839  0.4865 -0.0633 -0.7313
 8955SOL    HW227765   6.644   3.135   1.934 -0.1944 -0.9362 -1.7083
 8956SOL     OW27766   5.561   1.561   6.250 -0.2954 -0.0620 -0.1986
 8956SOL    HW127767   5.656   1.590   6.261 -0.1288  0.0480 -1.7300
 8956SOL    HW227768   5.552   1.507   6.167 -1.7035  0.5495 -0.4721
 8957SOL     OW27769   3.082   6.098   1.291 -0.6572  0.4778  0.0790
 8957SOL    HW127770   3.141   6.020   1.312 -0.1545  0.3608 -1.6243
 8957SOL    HW227771   3.123   6.182   1.326 -0.9306  0.0694  1.4352
 8958SOL     OW27772   1.968   1.534   2.866 -0.3317 -0.2316 -0.5079
 8958SOL    HW127773   1.928   1.468   2.930  1.1387 -0.9497 -0.2906
 8958SOL    HW227774   1.961   1.499   2.773 -1.6902  0.4229 -0.6837
 8959SOL     OW27775   1.997   6.082   1.618  0.0249 -0.5797  0.2843
 8959SOL    HW127776   2.087   6.082   1.574 -0.7430  1.8483 -1.5047
 8959SOL    HW227777   1.938   6.017   1.571  0.2442 -0.6268  0.0680
 8960SOL     OW27778   3.097   6.297   2.418 -0.3483  0.0557  0.0741
 8960SOL    HW127779   3.024   6.305   2.350  1.3188  0.8473 -1.7100
 8960SOL    HW227780   3.178   6.346   2.387  0.1605  1.4538  3.2031
 8961SOL     OW27781   1.164   2.327   2.809 -0.3368 -0.1088 -0.2197
 8961SOL    HW127782   1.205   2.325   2.718 -2.2480  2.8009 -1.2562
 8961SOL    HW227783   1.217   2.387   2.868 -0.6359  0.1656 -0.2299
 8962SOL     OW27784   4.285   2.064   4.381  0.0469  0.0187  0.1464
 8962SOL    HW127785   4.236   2.148   4.357 -1.4592 -0.4984  1.2626
 8962SOL    HW227786   4.270   2.043   4.478 -0.1360 -1.8705 -0.2564
 8963SOL     OW27787   1.633   1.087   3.340  0.7659 -0.4600 -0.1414
 8963SOL    HW127788   1.651   1.074   3.242 -0.1518  0.8525 -0.4950
 8963SOL    HW227789   1.541   1.056   3.362 -0.3029  2.2884 -0.3940
 8964SOL     OW27790   6.336   3.687   3.514 -0.0856 -0.4353 -0.3944
 8964SOL    HW127791   6.402   3.758   3.490  1.0376 -1.3184  0.0500
 8964SOL    HW227792   6.305   3.641   3.431 -0.6332  0.3906 -0.6626
 8965SOL     OW27793   1.711   5.640   1.891 -0.5692 -0.4503 -0.3496
 8965SOL    HW127794   1.664   5.704   1.830  0.7092 -0.4290 -1.3496
 8965SOL    HW227795   1.749   5.689   1.969  0.0772 -0.0394 -0.9168
 8966SOL     OW27796   3.933   0.537   4.245  0.6510 -0.1358  0.2995
 8966SOL    HW127797   3.924   0.616   4.184  1.3583  0.5499  1.0434
 8966SOL    HW227798   3.935   0.569   4.340  0.2736 -1.1180  0.6508
 8967SOL     OW27799   4.987   6.556   1.262 -0.5454  0.6381 -0.9308
 8967SOL    HW127800   4.949   6.489   1.198 -2.6425 -1.2433  2.0328
 8967SOL    HW227801   4.956   6.535   1.355  1.3480  3.9105  0.6224
 8968SOL     OW27802   3.693   5.810   4.787  0.4045 -0.3809  0.1339
 8968SOL    HW127803   3.621   5.742   4.770  0.8564 -1.1857  1.2807
 8968SOL    HW227804   3.717   5.855   4.702  0.0047 -1.5799 -0.6463
 8969SOL     OW27805   6.620   1.630   4.885 -0.0134 -0.6876  0.3185
 8969SOL    HW127806   6.686   1.558   4.904  0.1954 -0.6488 -0.2429
 8969SOL    HW227807   6.528   1.592   4.882  0.0494 -0.8486  0.5011
 8970SOL     OW27808   3.760   2.894   1.874 -0.5724  0.0852  0.2882
 8970SOL    HW127809   3.846   2.945   1.880  0.1370 -1.1179  0.7865
 8970SOL    HW227810   3.701   2.922   1.950 -0.0773 -0.0249  0.7253
 8971SOL     OW27811   4.418   0.760   3.266 -0.1448  0.0283  0.3750
 8971SOL    HW127812   4.455   0.682   3.317 -0.3158 -0.2267  0.1134
 8971SOL    HW227813   4.440   0.844   3.314 -0.3392 -0.2131  0.8981
 8972SOL     OW27814   5.335   0.056   2.898 -0.0593 -0.1165  0.4205
 8972SOL    HW127815   5.365  -0.024   2.951 -1.4332 -0.4870  0.6804
 8972SOL    HW227816   5.415   0.103   2.861  0.9056 -0.3568  2.0875
 8973SOL     OW27817   3.232   5.543   5.597  0.3263 -0.2511 -0.2529
 8973SOL    HW127818   3.267   5.623   5.549  0.6093 -0.0948  0.2091
 8973SOL    HW227819   3.200   5.570   5.688 -0.8238 -0.4184 -0.5917
 8974SOL     OW27820   0.066   3.120   5.075 -0.3577 -0.4345  0.2790
 8974SOL    HW127821   0.104   3.130   4.982 -1.7389  0.2307 -0.2443
 8974SOL    HW227822   0.091   3.200   5.129 -1.1153  0.0802 -0.1145
 8975SOL     OW27823   3.612   0.405   6.619  0.2823 -0.0362  0.0662
 8975SOL    HW127824   3.701   0.362   6.608  0.8800  1.3419 -0.8615
 8975SOL    HW227825   3.551   0.346   6.671  1.6624 -1.1028  0.4930
 8976SOL     OW27826   0.869   5.534   3.785 -0.2037 -0.1322 -0.4022
 8976SOL    HW127827   0.806   5.542   3.862 -1.4283  0.6463 -1.4458
 8976SOL    HW227828   0.822   5.561   3.700  1.3178 -0.2516 -1.3221
 8977SOL     OW27829   4.870   1.968   0.225 -0.0576 -0.3314  0.2904
 8977SOL    HW127830   4.853   2.051   0.171  0.5642  0.1042  0.7432
 8977SOL    HW227831   4.913   1.993   0.312 -0.6009 -1.0675  0.7831
 8978SOL     OW27832   3.850   3.704   0.986  0.6692  0.2747  0.1570
 8978SOL    HW127833   3.806   3.648   0.915  0.0364  1.8332 -0.7308
 8978SOL    HW227834   3.892   3.784   0.944  2.0321  0.2256  1.3398
 8979SOL     OW27835   2.159   5.729   6.937  0.6420 -0.0240 -0.0952
 8979SOL    HW127836   2.151   5.645   6.882  1.4577  0.5114 -1.0543
 8979SOL    HW227837   2.255   5.758   6.939  0.4217  0.6657  0.5794
 8980SOL     OW27838   2.988   3.922   3.735 -0.1662 -0.1433  0.4406
 8980SOL    HW127839   2.893   3.900   3.711  0.5140 -1.6600 -1.0446
 8980SOL    HW227840   3.037   3.953   3.653  0.3916  1.6259  1.3941
 8981SOL     OW27841   3.347   2.150   4.518 -0.1079  0.1330  0.3070
 8981SOL    HW127842   3.264   2.204   4.533 -0.1810  0.2310 -0.4218
 8981SOL    HW227843   3.380   2.115   4.606 -2.4535 -2.1676  0.4271
 8982SOL     OW27844   2.590   4.699   0.864  0.2521 -0.2080  0.4221
 8982SOL    HW127845   2.536   4.649   0.797 -2.2772  0.8151  1.5649
 8982SOL    HW227846   2.605   4.793   0.833  0.2454 -0.1158  0.6915
 8983SOL     OW27847   5.198   4.206   0.107 -0.4283  0.1573 -0.2210
 8983SOL    HW127848   5.203   4.280   0.040 -0.8138  0.1841 -0.2234
 8983SOL    HW227849   5.284   4.201   0.159 -0.2064  0.2661 -0.5774
 8984SOL     OW27850   2.364   6.619   3.603 -0.7115 -0.0833  0.8939
 8984SOL    HW127851   2.376   6.525   3.635  1.5688  0.0433  0.6032
 8984SOL    HW227852   2.360   6.681   3.682  2.6152 -0.0112  1.1782
 8985SOL     OW27853   3.621   2.138   6.084  0.8797  0.2206 -0.0727
 8985SOL    HW127854   3.639   2.089   6.169  0.9938  0.5828  0.1159
 8985SOL    HW227855   3.702   2.134   6.025  0.4089 -1.0056 -0.6589
 8986SOL     OW27856   5.486   1.065   2.655  0.1377  0.3773 -0.0973
 8986SOL    HW127857   5.468   0.981   2.705 -1.8086  0.4840 -0.5284
 8986SOL    HW227858   5.573   1.058   2.607  0.2635 -1.1547  0.3189
 8987SOL     OW27859   4.213   6.632   0.717  0.3961  0.0676  0.2745
 8987SOL    HW127860   4.223   6.727   0.746 -0.4440  0.2388  0.0143
 8987SOL    HW227861   4.122   6.618   0.678  1.2279 -0.3459 -1.6027
 8988SOL     OW27862   6.852   4.115   6.030 -0.6608 -0.1444 -0.0036
 8988SOL    HW127863   6.922   4.122   6.101 -2.3063 -3.2630  2.1761
 8988SOL    HW227864   6.893   4.080   5.946  1.2665  3.3516 -0.7150
 8989SOL     OW27865   2.876   0.199   0.688 -0.4005  0.2221 -0.1032
 8989SOL    HW127866   2.793   0.251   0.670  1.0010  3.0951  1.0719
 8989SOL    HW227867   2.886   0.185   0.786  0.1637 -0.7029 -0.2827
 8990SOL     OW27868   5.803   4.770   5.054 -0.2996 -0.3705 -0.3289
 8990SOL    HW127869   5.791   4.709   4.976 -0.4419  1.1180 -1.5204
 8990SOL    HW227870   5.728   4.836   5.057  0.2909  0.2927  0.4164
 8991SOL     OW27871   2.976   5.589   6.205 -0.1569  0.2325  0.0884
 8991SOL    HW127872   3.042   5.513   6.209  0.2297  0.6394  2.8461
 8991SOL    HW227873   3.017   5.672   6.242 -1.8039  0.8178  0.7078
 8992SOL     OW27874   1.235   3.433   1.223  0.1126  0.5533 -0.1023
 8992SOL    HW127875   1.292   3.366   1.175 -1.3629 -1.4091  0.7505
 8992SOL    HW227876   1.161   3.463   1.162 -0.2229  0.0792  0.0662
 8993SOL     OW27877   4.822   3.187   1.712 -0.0681  0.0413 -0.1629
 8993SOL    HW127878   4.741   3.156   1.763 -0.2915  0.1600 -0.4446
 8993SOL    HW227879   4.898   3.124   1.730  0.3412  0.9697  1.6096
 8994SOL     OW27880   2.965   5.157   3.302 -0.1958  0.4153  0.8875
 8994SOL    HW127881   2.882   5.204   3.335 -1.5982 -1.3853  0.0872
 8994SOL    HW227882   3.043   5.188   3.356 -1.3160  2.3564  1.5403
 8995SOL     OW27883   1.428   6.381   1.988 -0.0632  0.5367  0.1104
 8995SOL    HW127884   1.447   6.432   2.071  0.1247 -1.1015  1.1208
 8995SOL    HW227885   1.419   6.283   2.010 -0.4693  0.1201 -1.7218
 8996SOL     OW27886   3.576   4.216   0.167 -0.0780 -0.4613  0.5453
 8996SOL    HW127887   3.567   4.117   0.155  0.1314 -0.4769  0.5248
 8996SOL    HW227888   3.621   4.255   0.087 -0.4513 -0.3053  0.4078
 8997SOL     OW27889   6.408   0.868   5.090  0.1364  0.0316  0.2399
 8997SOL    HW127890   6.342   0.940   5.071  0.7287  0.8271  1.1650
 8997SOL    HW227891   6.360   0.780   5.095 -1.0537  0.7273  2.0282
 8998SOL     OW27892   1.241   5.995   4.690  0.1430 -0.6337  0.1150
 8998SOL    HW127893   1.155   5.951   4.718 -0.0462 -1.0742 -1.1211
 8998SOL    HW227894   1.307   5.926   4.663 -0.6898 -0.2615 -3.4364
 8999SOL     OW27895   4.670   6.418   6.832  0.2577 -0.1524  0.5579
 8999SOL    HW127896   4.700   6.424   6.736 -1.5929 -2.2300 -0.2412
 8999SOL    HW227897   4.617   6.335   6.845 -0.5486  0.6730  3.1543
 9000SOL     OW27898   2.937   2.750   0.765  0.1616  0.3161  0.4053
 9000SOL    HW127899   2.939   2.848   0.750  0.7891  0.3568  0.6778
 9000SOL    HW227900   2.917   2.732   0.862 -0.6766  0.1539  0.2053
 9001SOL     OW27901   6.414   6.358   2.607 -0.3039  0.4440 -0.0336
 9001SOL    HW127902   6.380   6.266   2.586 -0.3745  0.6233 -0.7341
 9001SOL    HW227903   6.500   6.374   2.557 -0.6488  1.0100 -0.4527
 9002SOL     OW27904   5.645   5.847   6.402  0.2898  0.5726 -0.0832
 9002SOL    HW127905   5.632   5.825   6.498  0.1014  1.2747  0.0585
 9002SOL    HW227906   5.707   5.780   6.360 -0.8391 -0.6660  0.1367
 9003SOL     OW27907   0.214   0.535   1.590 -0.0645  0.4452 -0.4173
 9003SOL    HW127908   0.239   0.613   1.647  0.5080  0.7232 -1.0348
 9003SOL    HW227909   0.296   0.492   1.553 -0.4357  1.3432 -2.4425
 9004SOL     OW27910   6.010   5.388   1.895 -0.0587 -0.1516 -0.1302
 9004SOL    HW127911   6.019   5.296   1.857  0.4309  0.0989 -0.6480
 9004SOL    HW227912   6.063   5.394   1.980  0.6740 -0.0916 -0.5836
 9005SOL     OW27913   4.854   7.007   6.201  0.8599  0.1816  0.5126
 9005SOL    HW127914   4.812   6.925   6.162 -0.0363  0.7039  0.3565
 9005SOL    HW227915   4.949   7.013   6.170  1.1628 -1.1590  1.0901
 9006SOL     OW27916   2.573   1.774   6.845 -0.4776  0.4943 -0.2548
 9006SOL    HW127917   2.552   1.775   6.747 -1.4474 -0.1539 -0.0619
 9006SOL    HW227918   2.496   1.736   6.896  0.9285 -1.5031  0.5266
 9007SOL     OW27919   2.596   2.113   1.386  0.0012  0.1382 -0.1172
 9007SOL    HW127920   2.572   2.188   1.324  0.4965 -0.7210 -1.3787
 9007SOL    HW227921   2.545   2.123   1.471 -0.2422  1.6823 -0.4064
 9008SOL     OW27922   1.102   5.422   3.906  0.5249  0.0789 -0.5709
 9008SOL    HW127923   1.020   5.467   3.870  0.1244  1.2814  1.6394
 9008SOL    HW227924   1.172   5.419   3.835 -0.0822  2.6241 -1.3880
 9009SOL     OW27925   4.680   0.376   2.765 -0.4945 -0.1507 -0.1246
 9009SOL    HW127926   4.702   0.327   2.850 -0.1318  1.0045  0.4689
 9009SOL    HW227927   4.600   0.334   2.723 -2.1051  0.5843  1.9969
 9010SOL     OW27928   1.009   5.167   4.222 -0.1354 -0.0505  0.6339
 9010SOL    HW127929   0.970   5.134   4.308 -0.1010  0.3178  0.7921
 9010SOL    HW227930   1.019   5.266   4.226 -0.9959  0.0913 -0.1394
 9011SOL     OW27931   1.818   1.768   2.486  0.3109 -0.2925  0.1420
 9011SOL    HW127932   1.916   1.778   2.468  0.0323  0.4362 -1.1091
 9011SOL    HW227933   1.793   1.672   2.481  0.7829 -0.3868 -0.5745
 9012SOL     OW27934   1.486   6.734   6.481 -0.0300  0.0114 -0.0540
 9012SOL    HW127935   1.580   6.747   6.451 -0.2492  1.4364 -0.1979
 9012SOL    HW227936   1.476   6.768   6.575 -0.4500  0.1383 -0.1413
 9013SOL     OW27937   4.330   0.809   4.111  0.5564  0.2681  0.3207
 9013SOL    HW127938   4.299   0.899   4.142  0.3459 -0.3130  1.9021
 9013SOL    HW227939   4.316   0.742   4.184  1.9039 -0.8042 -0.3599
 9014SOL     OW27940   5.320   2.585   5.618  0.3737  0.3498  0.2601
 9014SOL    HW127941   5.377   2.662   5.588  1.5258 -0.3411  0.5934
 9014SOL    HW227942   5.356   2.549   5.704  0.7135 -1.4159 -0.5700
 9015SOL     OW27943   3.384   6.338   4.288  0.1504  0.7008  0.4408
 9015SOL    HW127944   3.353   6.401   4.359  1.5047  1.4173  0.4273
 9015SOL    HW227945   3.381   6.385   4.199  0.4437  0.4983  0.3241
 9016SOL     OW27946   3.633   4.810   6.277 -0.2167 -0.2369 -0.2253
 9016SOL    HW127947   3.594   4.792   6.187 -0.5196  0.2318 -0.1847
 9016SOL    HW227948   3.673   4.725   6.313 -0.9279 -0.6477 -0.3896
 9017SOL     OW27949   6.162   0.376   4.628  0.1023 -0.2699  0.5470
 9017SOL    HW127950   6.070   0.346   4.606  0.2915 -1.5567  1.4355
 9017SOL    HW227951   6.160   0.473   4.654 -0.7127  0.1860 -1.0570
 9018SOL     OW27952   3.581   5.158   0.328  0.0542  0.3104  0.1782
 9018SOL    HW127953   3.629   5.071   0.320  0.1517  0.4527 -0.8901
 9018SOL    HW227954   3.646   5.230   0.352  0.2032  0.3274 -0.2782
 9019SOL     OW27955   1.207   1.604   5.117 -0.2101 -0.2745  0.3749
 9019SOL    HW127956   1.185   1.578   5.211 -0.2169  0.8824  0.7142
 9019SOL    HW227957   1.132   1.658   5.080 -0.3699 -1.0436 -0.4339
 9020SOL     OW27958   5.465   4.650   2.578  0.2488 -1.0557 -0.4784
 9020SOL    HW127959   5.394   4.712   2.613  0.1421 -0.8954 -0.9680
 9020SOL    HW227960   5.520   4.616   2.654 -0.4230 -1.2702 -0.0794
 9021SOL     OW27961   1.310   1.468   5.635 -0.6837  0.0168 -0.1028
 9021SOL    HW127962   1.352   1.425   5.715 -0.1855  2.1729  0.8703
 9021SOL    HW227963   1.377   1.525   5.588 -0.5107 -2.3217 -3.0496
 9022SOL     OW27964   4.101   3.359   6.622  0.1244 -0.1345 -0.5685
 9022SOL    HW127965   4.118   3.297   6.545  0.4396 -1.1000  0.2622
 9022SOL    HW227966   4.008   3.346   6.655  0.5349 -0.9686  0.3001
 9023SOL     OW27967   5.148   4.010   0.419 -0.0645 -0.6479  0.1814
 9023SOL    HW127968   5.072   4.034   0.360 -1.1459 -1.3517  1.2539
 9023SOL    HW227969   5.187   4.094   0.459  0.0350 -0.2570 -0.7239
 9024SOL     OW27970   2.782   5.858   0.464  0.1924 -0.2207 -0.3414
 9024SOL    HW127971   2.878   5.885   0.454 -0.7367  3.7143 -0.0991
 9024SOL    HW227972   2.769   5.814   0.553  1.4444  1.1600  0.5688
 9025SOL     OW27973   6.034   3.584   1.451  0.5012  0.2198  0.4054
 9025SOL    HW127974   5.958   3.561   1.512  1.4024  0.4755  1.6533
 9025SOL    HW227975   6.044   3.684   1.447  2.0510  0.1559  1.8953
 9026SOL     OW27976   4.965   2.177   0.654 -0.4716  0.3471  0.2151
 9026SOL    HW127977   4.934   2.249   0.717 -0.2092  0.5151  0.1519
 9026SOL    HW227978   5.064   2.178   0.650 -0.3648 -1.1050  1.5101
 9027SOL     OW27979   0.888   3.895   2.748 -0.2294 -0.5891  0.2859
 9027SOL    HW127980   0.968   3.851   2.707  2.1892  0.6064  3.3415
 9027SOL    HW227981   0.817   3.827   2.762  1.4966 -2.4664  0.4153
 9028SOL     OW27982   3.810   4.284   1.134 -0.1378  0.0917 -1.0218
 9028SOL    HW127983   3.840   4.308   1.227 -0.2673 -1.3454 -0.5760
 9028SOL    HW227984   3.890   4.265   1.077 -0.0826 -0.3687 -0.8010
 9029SOL     OW27985   6.036   6.640   2.280 -0.3043  0.0632 -0.0476
 9029SOL    HW127986   5.950   6.684   2.256 -0.0430  1.1659  0.9256
 9029SOL    HW227987   6.025   6.540   2.278 -1.9227  0.1808  1.1371
 9030SOL     OW27988   3.391   0.871   3.289  0.5705 -0.1466  0.4457
 9030SOL    HW127989   3.334   0.894   3.368  1.3100 -0.3851  1.0590
 9030SOL    HW227990   3.402   0.772   3.283  0.5475 -0.1282  0.0621
 9031SOL     OW27991   6.190   0.502   3.857  0.2116 -0.7022 -0.0935
 9031SOL    HW127992   6.283   0.525   3.828  0.0813 -0.2557 -0.1719
 9031SOL    HW227993   6.133   0.486   3.776  0.2862 -1.2590 -0.0408
 9032SOL     OW27994   6.030   3.400   1.223  0.0955  0.2982  0.2252
 9032SOL    HW127995   6.018   3.453   1.307 -0.0359  1.0133 -0.2386
 9032SOL    HW227996   6.039   3.462   1.145 -0.4974 -0.3660 -0.3901
 9033SOL     OW27997   0.157   6.433   3.356 -0.2104 -0.0426 -0.3561
 9033SOL    HW127998   0.220   6.377   3.302  2.1600 -0.2032  2.3681
 9033SOL    HW227999   0.150   6.395   3.448  0.0848  3.0931  1.0717
 9034SOL     OW28000   5.707   0.362   5.062 -0.3489 -0.2534  0.3505
 9034SOL    HW128001   5.649   0.281   5.062 -0.7813  0.0484 -0.0088
 9034SOL    HW228002   5.743   0.378   5.154 -1.7703  0.2166  0.8429
 9035SOL     OW28003   4.061   5.942   6.471 -0.4782  0.2769 -0.2759
 9035SOL    HW128004   4.109   6.016   6.518  0.6024 -0.4554 -0.2034
 9035SOL    HW228005   3.991   5.904   6.532  0.7076 -0.4591  0.6632
 9036SOL     OW28006   0.678   4.477   4.251 -0.0378  0.2417 -0.1048
 9036SOL    HW128007   0.687   4.384   4.214  0.1567  0.7832 -1.4746
 9036SOL    HW228008   0.767   4.509   4.281  0.1662  0.4867 -0.9317
 9037SOL     OW28009   5.288   2.375   2.360 -0.0570  0.0043  0.2486
 9037SOL    HW128010   5.202   2.423   2.346 -0.4186 -0.6302  0.2927
 9037SOL    HW228011   5.364   2.439   2.343 -0.5219  1.0814  1.9756
 9038SOL     OW28012   3.538   3.988   4.359  0.0739 -0.2362  0.3118
 9038SOL    HW128013   3.466   3.933   4.316  0.3127  0.2190 -0.6900
 9038SOL    HW228014   3.585   3.933   4.429  0.3155 -1.3135 -0.6735
 9039SOL     OW28015   6.386   6.254   6.744  0.0789  0.0431 -0.3602
 9039SOL    HW128016   6.417   6.261   6.839  0.9059  0.9966 -0.6786
 9039SOL    HW228017   6.317   6.325   6.727  0.4605  0.3444 -0.6612
 9040SOL     OW28018   2.675   0.025   1.512 -0.0442  0.3378  0.1090
 9040SOL    HW128019   2.716  -0.040   1.575  1.1764  0.8700 -0.1022
 9040SOL    HW228020   2.734   0.036   1.432 -1.0316  0.4842 -0.6181
 9041SOL     OW28021   6.583   6.720   2.556  0.0050 -0.2419  0.2712
 9041SOL    HW128022   6.544   6.808   2.582  1.6067  0.2063  1.2911
 9041SOL    HW228023   6.640   6.731   2.475  1.0031 -0.1218  0.9778
 9042SOL     OW28024   3.856   3.151   6.030  0.3536  0.3632  0.1097
 9042SOL    HW128025   3.778   3.130   6.091  0.2372  0.6071  0.0469
 9042SOL    HW228026   3.908   3.068   6.014 -1.2466 -0.3552 -1.7636
 9043SOL     OW28027   2.033   2.256   6.810 -0.5773 -0.2486 -0.3110
 9043SOL    HW128028   2.012   2.242   6.713 -3.0002 -1.0881  0.2616
 9043SOL    HW228029   2.031   2.354   6.831 -0.8028 -0.1101 -0.9669
 9044SOL     OW28030   0.214   0.053   4.948  0.7029 -1.1192 -0.0651
 9044SOL    HW128031   0.242  -0.040   4.971 -0.7562 -0.7465  4.0698
 9044SOL    HW228032   0.126   0.051   4.900  2.2626 -1.8622 -3.0894
 9045SOL     OW28033   3.919   0.803   3.357  0.2941  0.0000  0.6826
 9045SOL    HW128034   3.944   0.802   3.454 -0.6266 -0.7604  0.9192
 9045SOL    HW228035   4.002   0.810   3.301  0.7758  1.6246  1.5351
 9046SOL     OW28036   2.419   1.035   0.800 -0.4903  0.1586  0.0765
 9046SOL    HW128037   2.481   1.021   0.723  0.6216 -0.2847  1.0260
 9046SOL    HW228038   2.413   1.133   0.821 -0.9650  0.3009 -0.6930
 9047SOL     OW28039   1.295   3.925   5.840  0.1488 -0.2714  0.3725
 9047SOL    HW128040   1.216   3.945   5.782  1.3750  0.9877 -0.9562
 9047SOL    HW228041   1.271   3.942   5.935 -0.7908  1.5058 -0.1348
 9048SOL     OW28042   6.717   0.853   5.500  0.1863 -0.5105 -0.0913
 9048SOL    HW128043   6.648   0.809   5.443  0.1085 -0.7348  0.1789
 9048SOL    HW228044   6.803   0.803   5.494  0.8131  0.6674 -1.7121
 9049SOL     OW28045   2.740   6.991   4.158 -0.4426 -0.2008  0.0733
 9049SOL    HW128046   2.669   7.061   4.150 -0.7677 -0.4373  0.8459
 9049SOL    HW228047   2.715   6.911   4.104 -0.5140 -0.0801 -0.0732
 9050SOL     OW28048   0.899   6.165   1.632  0.1878 -0.0329  0.0235
 9050SOL    HW128049   0.952   6.084   1.657  1.4545  0.8340  0.2200
 9050SOL    HW228050   0.863   6.154   1.540  0.6611 -0.6641 -0.0940
 9051SOL     OW28051   2.585   1.888   1.249 -0.2041 -1.0611  0.1043
 9051SOL    HW128052   2.638   1.908   1.167  0.2734 -2.2285  0.1076
 9051SOL    HW228053   2.570   1.972   1.301 -0.7581 -0.2596 -1.3052
 9052SOL     OW28054   1.776   3.641   5.314 -0.0183 -0.0170  0.4291
 9052SOL    HW128055   1.756   3.648   5.216  0.3583  1.8582  0.4590
 9052SOL    HW228056   1.870   3.609   5.327  0.7149  1.8629  0.0989
 9053SOL     OW28057   0.384   1.968   0.832  0.0694 -0.0569  0.3381
 9053SOL    HW128058   0.437   2.022   0.767 -0.8086 -0.8051 -1.0545
 9053SOL    HW228059   0.445   1.913   0.889  0.8362  0.3441 -0.0910
 9054SOL     OW28060   0.840   6.037   3.364 -0.1764 -0.0503  0.6939
 9054SOL    HW128061   0.876   5.995   3.447 -0.2641 -1.2494  0.1418
 9054SOL    HW228062   0.913   6.084   3.315  0.4615 -1.6049  0.0987
 9055SOL     OW28063   6.338   4.317   5.655  0.1852 -0.5087 -0.3191
 9055SOL    HW128064   6.345   4.346   5.559  0.0315 -0.7372 -0.4010
 9055SOL    HW228065   6.264   4.368   5.699  0.1322 -0.5371 -0.3742
 9056SOL     OW28066   6.352   1.783   4.531 -0.3786  0.3662 -0.5037
 9056SOL    HW128067   6.430   1.840   4.506 -0.1650 -0.0464 -0.7920
 9056SOL    HW228068   6.353   1.700   4.475  0.4769 -0.9010  1.3116
 9057SOL     OW28069   4.630   0.496   3.179  0.4364 -0.1887 -0.2007
 9057SOL    HW128070   4.574   0.482   3.260  2.1883 -0.6526  0.9781
 9057SOL    HW228071   4.626   0.415   3.121 -1.1144  0.2852 -0.8015
 9058SOL     OW28072   3.240   0.464   4.726 -0.4713  0.5932 -0.0825
 9058SOL    HW128073   3.322   0.496   4.774  0.4604 -0.7610 -0.6937
 9058SOL    HW228074   3.247   0.365   4.712 -3.2087  0.0476  1.7077
 9059SOL     OW28075   1.136   1.755   3.286  0.0403  0.8253  0.2263
 9059SOL    HW128076   1.207   1.733   3.219 -0.7530 -1.4679  0.0674
 9059SOL    HW228077   1.062   1.805   3.239  0.2159  0.6343 -0.2666
 9060SOL     OW28078   5.439   2.296   4.349 -0.4497 -0.5047 -0.2927
 9060SOL    HW128079   5.486   2.365   4.405 -1.3777  0.5019 -0.7141
 9060SOL    HW228080   5.351   2.274   4.389 -0.0322 -1.6914 -0.0059
 9061SOL     OW28081   1.627   3.695   2.674  0.7745 -0.2677 -0.3716
 9061SOL    HW128082   1.694   3.637   2.628  2.2559  0.5303  0.7175
 9061SOL    HW228083   1.576   3.747   2.605  0.6214 -1.5276 -1.2627
 9062SOL     OW28084   3.118   4.950   0.212 -0.3542  0.2761  0.4047
 9062SOL    HW128085   3.079   5.027   0.162 -1.9030 -0.4646  0.4023
 9062SOL    HW228086   3.213   4.971   0.237  0.0663  1.1604 -1.7180
 9063SOL     OW28087   2.180   1.013   1.396 -0.1130 -0.1503  0.2929
 9063SOL    HW128088   2.209   1.085   1.459 -1.5625  1.0228 -0.3172
 9063SOL    HW228089   2.240   1.013   1.316 -0.6316  1.0239 -0.1230
 9064SOL     OW28090   3.767   5.473   1.139  0.2231  0.2692 -0.3072
 9064SOL    HW128091   3.803   5.425   1.219 -0.9881  1.4656  1.0240
 9064SOL    HW228092   3.807   5.564   1.134 -0.0049  0.3432 -0.8376
 9065SOL     OW28093   3.260   0.347   0.346  0.3856 -0.0124  0.4691
 9065SOL    HW128094   3.341   0.330   0.401  0.6605  0.6770  0.2822
 9065SOL    HW228095   3.267   0.296   0.260  1.0448  0.7398  0.0629
 9066SOL     OW28096   6.538   6.677   0.587  0.2093 -0.6410  0.2244
 9066SOL    HW128097   6.555   6.686   0.489 -0.7778  2.0602  0.1946
 9066SOL    HW228098   6.525   6.581   0.611 -1.5980 -1.2179 -2.6588
 9067SOL     OW28099   1.162   6.800   3.614  0.3864 -0.2155  1.1080
 9067SOL    HW128100   1.161   6.833   3.709 -1.3117  1.1169  0.6920
 9067SOL    HW228101   1.235   6.846   3.564  0.1186  0.4909  1.3472
 9068SOL     OW28102   1.667   0.235   5.993 -0.3894  0.3193  0.1479
 9068SOL    HW128103   1.687   0.281   5.907 -0.6274  1.4140  0.6526
 9068SOL    HW228104   1.569   0.245   6.014 -0.0559  1.4054  1.2850
 9069SOL     OW28105   0.744   1.259   0.704 -0.5277  0.0448  0.3069
 9069SOL    HW128106   0.647   1.243   0.726 -0.9152 -1.2268 -2.0102
 9069SOL    HW228107   0.800   1.190   0.749 -1.0733 -1.2345 -0.9137
 9070SOL     OW28108   1.756   4.814   3.617  0.5048 -0.5241 -0.4102
 9070SOL    HW128109   1.777   4.756   3.539  1.5624 -0.8879  0.1305
 9070SOL    HW228110   1.718   4.759   3.692 -0.2229 -0.2243 -0.5495
 9071SOL     OW28111   3.217   5.962   6.771  0.2250  0.0211 -0.2690
 9071SOL    HW128112   3.118   5.974   6.770  0.3867  2.0541  1.5629
 9071SOL    HW228113   3.252   5.967   6.678 -1.0331  3.2489 -0.6805
 9072SOL     OW28114   4.168   4.765   0.080 -0.3674 -0.4223 -0.2736
 9072SOL    HW128115   4.177   4.863   0.064  1.3061 -0.8510 -2.5524
 9072SOL    HW228116   4.105   4.749   0.156  1.4934  2.4730  2.1049
 9073SOL     OW28117   0.792   0.489   2.749 -0.1286 -0.5848  0.2274
 9073SOL    HW128118   0.828   0.563   2.805  0.6556 -1.7003  1.2511
 9073SOL    HW228119   0.703   0.514   2.713 -0.5552  0.2544  1.8067
 9074SOL     OW28120   2.809   6.730   3.264 -0.6094 -0.1329 -0.6594
 9074SOL    HW128121   2.722   6.702   3.305 -0.7866  0.0551 -0.9118
 9074SOL    HW228122   2.839   6.660   3.199 -0.8288  0.0477 -0.9555
 9075SOL     OW28123   1.469   0.075   2.001 -0.2402  0.0474  0.3823
 9075SOL    HW128124   1.471   0.121   2.090  0.1604  0.6236  0.0839
 9075SOL    HW228125   1.552   0.099   1.949  0.8248 -2.3260  0.8564
 9076SOL     OW28126   2.067   1.538   5.655  0.0062 -0.3648  0.6014
 9076SOL    HW128127   2.129   1.548   5.733  3.2436  0.4640 -1.8480
 9076SOL    HW228128   2.112   1.484   5.584 -2.3501 -0.1562 -1.1551
 9077SOL     OW28129   5.441   0.022   0.445 -0.0260 -0.2076  0.3539
 9077SOL    HW128130   5.536   0.030   0.475  0.2617 -1.3928 -0.1762
 9077SOL    HW228131   5.395  -0.050   0.497 -0.0986 -0.8825 -0.5975
 9078SOL     OW28132   5.715   4.121   5.286 -0.0937  0.2420  0.3369
 9078SOL    HW128133   5.679   4.214   5.280 -1.1484 -0.1877 -0.4807
 9078SOL    HW228134   5.650   4.064   5.337 -0.2428 -0.3888 -0.5295
 9079SOL     OW28135   3.455   6.775   5.614 -0.1942 -0.4504  0.2176
 9079SOL    HW128136   3.357   6.770   5.630 -0.7370  0.0618 -2.4167
 9079SOL    HW228137   3.487   6.869   5.625 -0.6785  0.0156 -1.8988
 9080SOL     OW28138   3.659   0.816   5.295 -0.7636 -0.1458 -0.2558
 9080SOL    HW128139   3.586   0.749   5.308 -2.2587  1.4361 -0.1255
 9080SOL    HW228140   3.692   0.847   5.384  1.4795 -2.2021 -0.2482
 9081SOL     OW28141   6.287   0.894   2.730  0.3064 -0.1327  0.0442
 9081SOL    HW128142   6.318   0.832   2.658  2.1730  1.7300 -0.8777
 9081SOL    HW228143   6.190   0.878   2.749  0.4674 -2.5539 -0.8817
 9082SOL     OW28144   3.442   0.304   1.507 -0.1060 -0.0757 -0.3399
 9082SOL    HW128145   3.393   0.368   1.448  1.4981  0.1709 -1.4505
 9082SOL    HW228146   3.426   0.210   1.476  0.7891  0.0576 -1.2499
 9083SOL     OW28147   5.489   2.730   4.580  0.6094  0.4542  0.3367
 9083SOL    HW128148   5.395   2.759   4.561  0.7481  1.0398  0.5019
 9083SOL    HW228149   5.496   2.631   4.574  0.1990  0.4705 -0.6845
 9084SOL     OW28150   3.696   3.122   2.271  0.1224 -0.1547 -0.0578
 9084SOL    HW128151   3.668   3.197   2.331  1.6867 -1.6807  2.8097
 9084SOL    HW228152   3.774   3.152   2.215  1.0181  0.2974  1.3650
 9085SOL     OW28153   0.945   3.529   6.670 -0.8384 -0.2323 -0.0926
 9085SOL    HW128154   1.036   3.491   6.685 -1.4681 -0.9933  2.3015
 9085SOL    HW228155   0.930   3.604   6.735 -1.9267 -0.0978 -0.4836
 9086SOL     OW28156   6.082   3.274   6.141  0.1984  0.0749  0.0687
 9086SOL    HW128157   6.161   3.216   6.162 -1.3295 -2.0183  0.3417
 9086SOL    HW228158   6.095   3.315   6.051  2.0663  0.6873  0.5599
 9087SOL     OW28159   6.781   2.783   2.650  0.2082 -0.4438  0.5498
 9087SOL    HW128160   6.878   2.785   2.672 -0.1239  1.5728  2.1231
 9087SOL    HW228161   6.731   2.733   2.721  0.0219 -1.1821 -0.0775
 9088SOL     OW28162   0.186   5.351   3.159 -0.1780  0.8392  0.3985
 9088SOL    HW128163   0.125   5.329   3.084  2.1054 -0.0978 -1.3209
 9088SOL    HW228164   0.273   5.384   3.122  0.9875  0.4822  2.6487
 9089SOL     OW28165   4.888   5.986   4.486 -0.1728  0.1532  0.0825
 9089SOL    HW128166   4.917   5.982   4.391 -0.8657 -1.3108 -0.0921
 9089SOL    HW228167   4.952   5.934   4.543  0.2718  1.0693  0.4399
 9090SOL     OW28168   5.587   0.878   3.620  0.4920  0.5850  0.4025
 9090SOL    HW128169   5.589   0.977   3.633 -2.4880  0.6774  0.8665
 9090SOL    HW228170   5.563   0.857   3.525 -2.1180  0.4954  0.9801
 9091SOL     OW28171   4.282   3.250   5.307  0.3721 -0.4100  0.0888
 9091SOL    HW128172   4.372   3.288   5.328  0.5974 -0.7481 -0.2609
 9091SOL    HW228173   4.214   3.292   5.366  0.6316  0.4849 -0.2271
 9092SOL     OW28174   5.497   4.805   1.941 -0.5413  0.1344 -0.4582
 9092SOL    HW128175   5.445   4.784   2.024  0.2331  1.0139  0.2718
 9092SOL    HW228176   5.439   4.790   1.861 -1.1684 -1.1473  0.2005
 9093SOL     OW28177   4.145   4.874   3.971  0.5712 -0.5312  0.0116
 9093SOL    HW128178   4.186   4.845   4.057  1.2528  0.1939 -0.0543
 9093SOL    HW228179   4.160   4.973   3.959  0.1922 -0.5634 -0.7722
 9094SOL     OW28180   2.370   4.296   0.427  0.5502 -0.2269 -0.3696
 9094SOL    HW128181   2.449   4.241   0.453  2.3623  2.2912 -0.1988
 9094SOL    HW228182   2.318   4.321   0.509 -0.1776 -1.4761 -0.4315
 9095SOL     OW28183   0.115   6.576   0.008 -0.3195  0.3673  1.1262
 9095SOL    HW128184   0.055   6.536   0.077 -0.0377 -1.2620  0.4899
 9095SOL    HW228185   0.210   6.565   0.036 -0.2163  0.0013  0.6421
 9096SOL     OW28186   6.910   3.752   2.663  0.3023 -0.0776  0.2051
 9096SOL    HW128187   6.818   3.713   2.673  0.1383  0.2799  0.1377
 9096SOL    HW228188   6.950   3.724   2.576  0.4864 -0.6938  0.4818
 9097SOL     OW28189   6.593   1.760   5.394 -0.0043 -0.1925  0.1992
 9097SOL    HW128190   6.602   1.692   5.321 -2.9179  0.3151 -0.7497
 9097SOL    HW228191   6.667   1.827   5.385  1.2355 -1.5735 -0.6187
 9098SOL     OW28192   2.207   4.687   3.107  0.6829 -0.1757 -0.4926
 9098SOL    HW128193   2.235   4.640   3.191 -0.4120  0.9272  0.5361
 9098SOL    HW228194   2.111   4.715   3.115  0.1795 -1.0947 -2.6244
 9099SOL     OW28195   2.533   0.216   0.318  0.3044  0.0211 -0.0830
 9099SOL    HW128196   2.545   0.213   0.219 -0.1871  0.8254 -0.1692
 9099SOL    HW228197   2.611   0.171   0.362  0.6041 -0.1968 -0.8205
 9100SOL     OW28198   2.993   5.634   3.713 -0.2983  0.5434 -0.1599
 9100SOL    HW128199   2.909   5.678   3.682 -0.6294  0.4987  0.6460
 9100SOL    HW228200   2.979   5.597   3.805  0.6706  0.7306  0.0744
 9101SOL     OW28201   0.961   0.529   0.737 -0.0712  0.4574  0.1578
 9101SOL    HW128202   0.950   0.430   0.747  1.3740  0.2602 -0.0202
 9101SOL    HW228203   1.042   0.549   0.682 -0.0139  1.7490  0.6588
 9102SOL     OW28204   4.986   1.255   2.163  0.0441  0.3497  0.6213
 9102SOL    HW128205   4.943   1.252   2.253  0.1250 -1.0265  0.6424
 9102SOL    HW228206   5.018   1.163   2.139  2.2923  1.1807  0.2743
 9103SOL     OW28207   0.360   1.174   1.750  0.2203  0.2778 -0.2079
 9103SOL    HW128208   0.381   1.270   1.767 -1.4312  0.7365 -0.5923
 9103SOL    HW228209   0.393   1.147   1.660  2.0205  0.0403  0.4919
 9104SOL     OW28210   5.714   2.098   5.726 -0.3173  0.5285  0.3414
 9104SOL    HW128211   5.666   2.152   5.657 -0.8032 -1.5368 -1.0233
 9104SOL    HW228212   5.652   2.080   5.803 -0.8292  0.1557 -0.1572
 9105SOL     OW28213   3.815   0.556   4.797  0.4989 -0.5003  0.1048
 9105SOL    HW128214   3.879   0.480   4.808  1.2441  0.2447  1.0524
 9105SOL    HW228215   3.824   0.619   4.874  0.4003  0.9217 -0.9882
 9106SOL     OW28216   0.228   2.910   5.442  0.0502 -0.3288 -0.2780
 9106SOL    HW128217   0.320   2.907   5.481 -0.6858  0.9406  1.6744
 9106SOL    HW228218   0.162   2.878   5.510 -1.2950  1.9447 -0.4412
 9107SOL     OW28219   3.475   0.468   0.695 -0.1397  0.5712 -0.0602
 9107SOL    HW128220   3.450   0.428   0.783 -0.6218  0.5096 -0.2262
 9107SOL    HW228221   3.411   0.541   0.671 -0.3896  0.1614 -0.6627
 9108SOL     OW28222   6.830   1.569   5.512  0.1371 -0.4277 -0.2374
 9108SOL    HW128223   6.844   1.491   5.573  1.5502  0.1800  0.2566
 9108SOL    HW228224   6.737   1.604   5.524 -0.0988 -1.2484  0.4662
 9109SOL     OW28225   6.162   4.529   1.688  0.2096 -0.7788  0.1275
 9109SOL    HW128226   6.095   4.491   1.623  0.8548 -1.2738 -0.2614
 9109SOL    HW228227   6.130   4.512   1.781 -0.9116  0.2738 -0.0357
 9110SOL     OW28228   5.996   4.539   3.810  0.3135  0.0087  0.3464
 9110SOL    HW128229   6.003   4.545   3.711  0.2903 -1.0323  0.2793
 9110SOL    HW228230   6.033   4.452   3.842  2.9169  1.4275  1.5259
 9111SOL     OW28231   2.637   2.874   5.533  0.4481 -0.5623  0.0718
 9111SOL    HW128232   2.547   2.839   5.507 -1.3155  3.0115  0.8370
 9111SOL    HW228233   2.655   2.961   5.487  1.3042  1.2444  3.4744
 9112SOL     OW28234   6.265   5.557   2.238 -0.1667 -0.6888 -0.2747
 9112SOL    HW128235   6.169   5.567   2.267 -0.1586 -1.0907 -0.1053
 9112SOL    HW228236   6.313   5.498   2.303  0.2665 -0.2691 -0.2057
 9113SOL     OW28237   1.353   0.979   4.143 -0.4482  0.5409  0.9471
 9113SOL    HW128238   1.436   0.940   4.102 -1.7122 -0.6752 -0.6019
 9113SOL    HW228239   1.362   0.980   4.243  1.1202 -0.2918  0.8433
 9114SOL     OW28240   5.500   2.409   0.187 -0.3788  0.3747 -0.6573
 9114SOL    HW128241   5.591   2.396   0.225  0.7338 -0.0307 -3.2262
 9114SOL    HW228242   5.432   2.408   0.260  1.5730 -0.1849  1.2368
 9115SOL     OW28243   4.272   2.965   6.625 -0.4993  0.8892 -0.3845
 9115SOL    HW128244   4.323   2.967   6.540 -0.1142  1.5783 -0.1446
 9115SOL    HW228245   4.189   2.910   6.613 -0.0760  0.3726 -0.9820
 9116SOL     OW28246   3.492   5.912   2.043 -0.0802  0.3783 -0.0313
 9116SOL    HW128247   3.568   5.934   1.982 -0.8575  0.5089 -0.9785
 9116SOL    HW228248   3.520   5.926   2.138  1.0413  0.5129 -0.3690
 9117SOL     OW28249   3.540   6.107   5.997  0.1995  0.1742 -0.4221
 9117SOL    HW128250   3.491   6.187   5.964  0.5753  0.7098  0.2883
 9117SOL    HW228251   3.476   6.034   6.019 -0.1849  0.4679 -0.5742
 9118SOL     OW28252   6.447   4.496   1.711  0.1872 -0.2905 -0.5345
 9118SOL    HW128253   6.371   4.538   1.661  0.1344  0.2991  0.0172
 9118SOL    HW228254   6.500   4.568   1.756 -0.1770 -0.8380  0.8240
 9119SOL     OW28255   4.574   2.365   6.338  0.1675  0.0309 -0.2764
 9119SOL    HW128256   4.483   2.398   6.313 -0.0607 -0.9631 -0.8064
 9119SOL    HW228257   4.566   2.280   6.389  0.8170 -0.6864 -1.3146
 9120SOL     OW28258   5.658   3.710   4.380  0.3477  0.2428  0.0244
 9120SOL    HW128259   5.747   3.671   4.357 -0.1903 -1.9877  1.3783
 9120SOL    HW228260   5.668   3.772   4.458  0.7689  0.4258 -0.1706
 9121SOL     OW28261   2.447   2.371   5.169 -0.3312  0.0223  1.0262
 9121SOL    HW128262   2.470   2.333   5.258  0.7181 -1.3939  0.1959
 9121SOL    HW228263   2.531   2.386   5.117 -0.9732 -0.1032 -0.0748
 9122SOL     OW28264   0.369   3.983   1.684 -0.0991  0.1478 -0.0736
 9122SOL    HW128265   0.347   3.927   1.764 -0.2213 -1.2310 -1.0543
 9122SOL    HW228266   0.461   3.963   1.653  0.0199  0.8240 -0.1781
 9123SOL     OW28267   1.507   4.417   5.636 -0.3525 -0.2706  0.0379
 9123SOL    HW128268   1.560   4.339   5.603 -0.5077 -0.3335 -0.0629
 9123SOL    HW228269   1.553   4.502   5.610 -1.4996 -0.2388 -2.2187
 9124SOL     OW28270   6.665   5.452   0.887 -0.2886  0.1296 -0.2568
 9124SOL    HW128271   6.694   5.409   0.972  0.4661  1.8062  0.3823
 9124SOL    HW228272   6.710   5.407   0.810  1.4085  0.4954  0.4735
 9125SOL     OW28273   5.308   0.728   1.588 -0.4546  0.1541  0.2236
 9125SOL    HW128274   5.357   0.643   1.608 -1.3955 -0.5218 -0.2994
 9125SOL    HW228275   5.246   0.748   1.664 -0.5622  0.1392  0.1383
 9126SOL     OW28276   2.381   3.608   0.006  0.2304  0.9685 -0.2992
 9126SOL    HW128277   2.291   3.569  -0.014 -0.7024  3.4473 -1.3288
 9126SOL    HW228278   2.387   3.631   0.103  0.1743 -0.1407 -0.0171
 9127SOL     OW28279   5.318   6.861   4.574  0.1803 -0.1978 -0.8316
 9127SOL    HW128280   5.293   6.852   4.671  1.0923 -2.0903 -0.7248
 9127SOL    HW228281   5.407   6.906   4.568  0.6580 -1.1102 -0.7074
 9128SOL     OW28282   5.900   2.542   0.445 -0.7425 -0.2014 -0.4021
 9128SOL    HW128283   5.927   2.451   0.413 -1.0283 -0.4589  0.0821
 9128SOL    HW228284   5.852   2.534   0.532  1.3110  0.6185  0.8597
 9129SOL     OW28285   0.910   1.862   2.511  0.5403  0.2437  0.5781
 9129SOL    HW128286   0.840   1.857   2.439  0.4906  1.6220  0.5026
 9129SOL    HW228287   0.981   1.793   2.493 -0.7754 -1.1742  0.6574
 9130SOL     OW28288   3.216   3.301   5.325  0.5147 -0.3885  0.0958
 9130SOL    HW128289   3.283   3.256   5.384  1.0826  0.9734  0.5214
 9130SOL    HW228290   3.264   3.354   5.255 -0.0843  1.1988  0.8574
 9131SOL     OW28291   6.930   5.866   1.316 -0.3600 -0.5410  0.3736
 9131SOL    HW128292   6.913   5.947   1.372  0.8143 -1.2649  1.8563
 9131SOL    HW228293   6.845   5.816   1.303 -1.0917  0.8485 -0.4962
 9132SOL     OW28294   2.601   4.784   3.520  0.5406  0.1910  0.3135
 9132SOL    HW128295   2.663   4.862   3.509  0.6565 -0.0640 -0.9880
 9132SOL    HW228296   2.624   4.735   3.604  2.8932 -0.5805 -0.7048
 9133SOL     OW28297   6.606   1.444   3.076 -0.2581 -0.5961 -0.0134
 9133SOL    HW128298   6.620   1.461   3.174 -2.6871 -3.0833  0.8934
 9133SOL    HW228299   6.556   1.521   3.036  0.9793  0.5627  0.6006
 9134SOL     OW28300   4.394   6.114   6.178  0.1153 -0.1865  0.0297
 9134SOL    HW128301   4.466   6.052   6.208  1.0544  0.7673 -0.1685
 9134SOL    HW228302   4.411   6.205   6.216 -1.3496 -0.0793  0.4977
 9135SOL     OW28303   6.352   6.104   2.570 -0.1060  0.2778  0.3656
 9135SOL    HW128304   6.379   6.011   2.545  0.6593 -0.1420  2.5031
 9135SOL    HW228305   6.339   6.109   2.669 -2.2276  1.9563  0.0718
 9136SOL     OW28306   0.329   4.021   0.525  0.1214  0.5333  0.2734
 9136SOL    HW128307   0.375   4.038   0.438 -2.0809 -1.0469 -1.3229
 9136SOL    HW228308   0.394   3.982   0.591  1.6294  0.8572 -0.9764
 9137SOL     OW28309   5.083   5.614   6.724  0.2842  0.5657  0.8460
 9137SOL    HW128310   5.161   5.629   6.663 -1.0101  1.5244 -0.6519
 9137SOL    HW228311   5.027   5.538   6.689  0.1899  0.3164  1.5318
 9138SOL     OW28312   1.712   3.686   5.047 -0.2385  0.6739 -0.1457
 9138SOL    HW128313   1.644   3.624   5.007  2.1975 -1.1780 -1.7434
 9138SOL    HW228314   1.701   3.777   5.007 -1.1204  0.1597 -1.1419
 9139SOL     OW28315   1.215   1.124   1.956  0.4457  0.1153 -0.9151
 9139SOL    HW128316   1.277   1.185   2.005  0.0384  0.2757 -0.5988
 9139SOL    HW228317   1.247   1.030   1.965  0.6377  0.1955 -0.7515
 9140SOL     OW28318   1.437   2.431   4.822 -0.4163  0.3446 -0.4279
 9140SOL    HW128319   1.478   2.438   4.913 -0.8383 -0.5735 -0.1496
 9140SOL    HW228320   1.352   2.483   4.819 -1.3687 -1.0729  0.3092
 9141SOL     OW28321   0.877   0.017   1.051 -0.5761 -0.1029  0.0286
 9141SOL    HW128322   0.965  -0.029   1.064  0.1000  1.4369  1.1389
 9141SOL    HW228323   0.823  -0.035   0.985  0.4696 -2.0146  0.5819
 9142SOL     OW28324   6.976   3.190   4.297 -0.3593 -0.1510 -0.0121
 9142SOL    HW128325   7.011   3.180   4.204  0.5689  1.2708  0.1550
 9142SOL    HW228326   6.935   3.281   4.307  0.0927 -0.0606  1.1325
 9143SOL     OW28327   5.675   4.737   2.429 -0.4445 -0.2856 -0.1064
 9143SOL    HW128328   5.616   4.726   2.509  0.2154  0.8213  0.5590
 9143SOL    HW228329   5.746   4.667   2.430 -1.5090 -1.4162 -0.7320
 9144SOL     OW28330   4.509   4.342   5.174 -0.2487  0.3101  0.0589
 9144SOL    HW128331   4.432   4.402   5.154  0.1712  1.1542  0.9080
 9144SOL    HW228332   4.476   4.254   5.206 -0.8706  0.1992 -0.8676
 9145SOL     OW28333   4.603   6.905   4.086 -0.0684 -0.1363 -0.5032
 9145SOL    HW128334   4.513   6.872   4.056 -0.1946 -0.7333  0.4815
 9145SOL    HW228335   4.616   6.999   4.056 -0.5743 -0.4010 -1.5793
 9146SOL     OW28336   6.809   2.096   4.414 -0.4158  0.1088 -0.4823
 9146SOL    HW128337   6.905   2.119   4.403 -0.4912 -0.0883 -1.7091
 9146SOL    HW228338   6.778   2.124   4.504  0.7664  0.2474 -0.1000
 9147SOL     OW28339   2.674   0.263   5.835  0.1754 -0.1787 -0.5887
 9147SOL    HW128340   2.689   0.361   5.847  2.1887 -0.7109  2.2401
 9147SOL    HW228341   2.599   0.233   5.895 -0.3832 -0.4219 -1.3834
 9148SOL     OW28342   4.033   5.487   2.835 -0.0803 -0.0413 -0.2531
 9148SOL    HW128343   4.106   5.519   2.775  0.5021 -2.2845 -0.8380
 9148SOL    HW228344   4.071   5.427   2.905 -0.9961  1.1554  1.3602
 9149SOL     OW28345   4.918   3.397   6.753  0.3201  0.6173  0.3115
 9149SOL    HW128346   4.952   3.491   6.760 -1.4214  1.2474  1.0126
 9149SOL    HW228347   4.932   3.363   6.661  0.7574  1.6572 -0.0243
 9150SOL     OW28348   1.459   3.667   0.382  0.1297 -0.4338 -0.1720
 9150SOL    HW128349   1.394   3.683   0.457  0.5558 -0.5952  0.2408
 9150SOL    HW228350   1.533   3.735   0.388 -0.5955  0.4828 -1.3292
 9151SOL     OW28351   2.960   1.887   4.757 -0.0149  0.0516 -0.0542
 9151SOL    HW128352   2.996   1.979   4.769 -0.0825 -0.0460  0.9813
 9151SOL    HW228353   3.002   1.826   4.824 -1.0924 -0.3444  0.2805
 9152SOL     OW28354   2.521   4.549   0.321 -0.1872  0.2902  0.0414
 9152SOL    HW128355   2.504   4.453   0.302 -0.0833  0.0566  1.0960
 9152SOL    HW228356   2.452   4.584   0.384  0.8821  0.3848  1.1958
 9153SOL     OW28357   0.946   3.954   6.832  0.0205  0.1443  0.3374
 9153SOL    HW128358   0.860   3.979   6.876 -0.4746 -1.1135  0.1357
 9153SOL    HW228359   1.007   3.912   6.899 -0.0880 -0.2589  0.1899
 9154SOL     OW28360   4.234   5.169   3.269 -0.1076 -0.6602 -0.0459
 9154SOL    HW128361   4.154   5.146   3.326  0.5309 -0.5354  0.9133
 9154SOL    HW228362   4.306   5.208   3.326 -0.3068  1.7097 -1.2776
 9155SOL     OW28363   1.365   0.261   2.870 -0.0934  0.3070  0.3236
 9155SOL    HW128364   1.384   0.203   2.949 -0.2380  2.0187  1.6707
 9155SOL    HW228365   1.414   0.226   2.790  0.9786 -0.8175  1.4411
 9156SOL     OW28366   0.402   4.180   6.395 -0.1238  0.3439  0.0629
 9156SOL    HW128367   0.477   4.167   6.460  0.1802  0.6794 -0.2211
 9156SOL    HW228368   0.435   4.230   6.316 -0.6467  0.4800 -0.0692
 9157SOL     OW28369   0.399   4.899   5.090 -0.1876 -0.8552  0.4662
 9157SOL    HW128370   0.471   4.951   5.137 -0.3920 -0.0079 -0.1423
 9157SOL    HW228371   0.440   4.819   5.046  0.3186 -0.6071  0.4699
 9158SOL     OW28372   6.369   3.596   4.542  0.3244 -0.5816  0.3721
 9158SOL    HW128373   6.408   3.676   4.588  0.1174 -0.2235 -0.0677
 9158SOL    HW228374   6.434   3.563   4.472  0.1381 -0.4061  0.1141
 9159SOL     OW28375   2.357   6.295   2.502 -0.3731 -0.6071 -0.4981
 9159SOL    HW128376   2.331   6.373   2.446 -1.2771 -0.9049 -0.5058
 9159SOL    HW228377   2.456   6.296   2.517 -0.4478  0.9115  0.0653
 9160SOL     OW28378   0.464   2.243   5.080  0.1811  0.8785 -0.0128
 9160SOL    HW128379   0.402   2.321   5.078  0.6105  1.2740  1.5088
 9160SOL    HW228380   0.552   2.269   5.042 -0.2748  0.5426 -1.3907
 9161SOL     OW28381   5.028   3.020   1.691 -0.3467  0.2407 -0.0636
 9161SOL    HW128382   5.082   2.977   1.618  0.4130  0.2139  0.5055
 9161SOL    HW228383   5.000   2.950   1.757 -0.4211  0.3798  0.0517
 9162SOL     OW28384   4.961   1.756   1.264  0.9221 -0.0267 -0.0333
 9162SOL    HW128385   4.871   1.741   1.306  0.1868  0.4591 -1.3937
 9162SOL    HW228386   4.956   1.833   1.201  1.8247 -1.0963 -1.4797
 9163SOL     OW28387   1.248   4.416   4.850 -0.1597  0.1580 -0.4007
 9163SOL    HW128388   1.259   4.461   4.761  2.1552  0.6757  0.0654
 9163SOL    HW228389   1.339   4.393   4.886 -1.0666 -0.3547  1.6645
 9164SOL     OW28390   3.111   6.537   0.614 -0.1504  0.0972  0.6873
 9164SOL    HW128391   3.176   6.576   0.680  0.2623 -1.0218  0.9628
 9164SOL    HW228392   3.162   6.498   0.537 -0.5569  0.1543  0.3875
 9165SOL     OW28393   5.560   1.865   0.549 -0.5190  0.0351 -0.6463
 9165SOL    HW128394   5.600   1.948   0.511 -0.5091  0.1901 -0.2965
 9165SOL    HW228395   5.461   1.867   0.534 -0.5121  0.0847 -0.6861
 9166SOL     OW28396   3.645   6.345   2.114 -0.2249  0.4112  0.2756
 9166SOL    HW128397   3.714   6.311   2.178 -0.1064  1.0951  0.5168
 9166SOL    HW228398   3.570   6.279   2.109  0.3087 -0.2049  0.2239
 9167SOL     OW28399   1.683   1.242   3.046  0.2193  0.3648  0.3217
 9167SOL    HW128400   1.741   1.194   2.981 -1.9353 -0.6097 -0.9757
 9167SOL    HW228401   1.726   1.329   3.071  1.8309  0.0604 -1.2006
 9168SOL     OW28402   6.941   0.425   5.684 -0.5670 -0.0686 -0.1758
 9168SOL    HW128403   6.915   0.518   5.707  1.7539  0.4488  0.6170
 9168SOL    HW228404   6.987   0.424   5.595  0.3118 -0.2583  0.2662
 9169SOL     OW28405   5.103   6.656   0.273  0.1289  0.2854  0.2604
 9169SOL    HW128406   5.009   6.688   0.255 -1.0126 -1.8062  2.0378
 9169SOL    HW228407   5.125   6.673   0.369  0.6845 -1.2840  0.4296
 9170SOL     OW28408   2.024   1.169   0.499 -0.6547  0.2027 -0.1913
 9170SOL    HW128409   2.058   1.203   0.587 -0.4855 -1.6399  0.5042
 9170SOL    HW228410   1.931   1.201   0.484 -0.3565  1.2985  0.2050
 9171SOL     OW28411   3.958   5.449   1.940  0.4760  0.1259  0.1574
 9171SOL    HW128412   4.038   5.492   1.897  0.0984  0.9100  0.2144
 9171SOL    HW228413   3.985   5.365   1.986  2.1172  2.3743  3.7310
 9172SOL     OW28414   4.508   1.019   3.600  0.6967  0.0123  0.0951
 9172SOL    HW128415   4.485   1.052   3.509 -1.8117  1.8474  1.2831
 9172SOL    HW228416   4.468   0.927   3.613  1.6885 -0.5694 -0.8603
 9173SOL     OW28417   6.410   3.139   5.739 -0.3044 -0.2589  0.5265
 9173SOL    HW128418   6.490   3.101   5.692 -1.1521 -0.4901 -0.8016
 9173SOL    HW228419   6.437   3.176   5.828  1.1358 -0.9705  0.4049
 9174SOL     OW28420   6.813   3.367   6.718 -0.6363 -0.1464  0.0930
 9174SOL    HW128421   6.735   3.316   6.682 -0.6564 -1.2403  1.6089
 9174SOL    HW228422   6.857   3.314   6.790  0.2871  1.3316  0.6581
 9175SOL     OW28423   2.065   2.209   0.128 -0.0440 -0.0289 -0.1950
 9175SOL    HW128424   2.065   2.125   0.075 -0.4518 -0.4365  0.4321
 9175SOL    HW228425   2.142   2.266   0.102  1.1058 -1.2611  0.4105
 9176SOL     OW28426   1.842   0.644   2.767 -0.0220  0.2081  0.0453
 9176SOL    HW128427   1.856   0.602   2.856 -1.1956 -0.5532 -0.1034
 9176SOL    HW228428   1.744   0.648   2.747  0.1812  1.1106 -0.8661
 9177SOL     OW28429   1.114   4.101   3.558 -0.2625 -0.3326 -0.5921
 9177SOL    HW128430   1.026   4.067   3.524 -0.9316 -0.0530  0.7818
 9177SOL    HW228431   1.130   4.192   3.520 -2.1705  1.0249  1.5931
 9178SOL     OW28432   2.771   4.665   0.439 -0.5082 -0.1933  0.1104
 9178SOL    HW128433   2.685   4.693   0.481 -0.3368  1.4870 -0.5416
 9178SOL    HW228434   2.785   4.719   0.355  1.3906 -0.0804  0.4608
 9179SOL     OW28435   2.327   4.801   3.569 -0.0956 -0.4878  0.3039
 9179SOL    HW128436   2.426   4.809   3.554 -0.0250 -1.9108 -0.1554
 9179SOL    HW228437   2.281   4.882   3.533  0.5415 -1.5139 -3.2169
 9180SOL     OW28438   3.232   0.320   5.047  0.4550  0.3478  0.0776
 9180SOL    HW128439   3.180   0.252   4.995  0.3858  0.4683 -0.0093
 9180SOL    HW228440   3.287   0.375   4.984  1.5093 -0.4656  0.2449
 9181SOL     OW28441   5.501   2.251   3.135  0.1649 -0.2701  0.1230
 9181SOL    HW128442   5.553   2.188   3.077 -2.3763 -0.7549 -1.8178
 9181SOL    HW228443   5.528   2.239   3.230  2.3303 -1.6553 -0.5935
 9182SOL     OW28444   6.408   2.620   3.311  0.1227 -0.0061  0.3624
 9182SOL    HW128445   6.457   2.582   3.233 -0.9464  0.7555 -0.7069
 9182SOL    HW228446   6.393   2.548   3.379  2.0634 -0.4100  0.4108
 9183SOL     OW28447   2.695   1.248   5.981  0.8528  0.5531  0.2063
 9183SOL    HW128448   2.659   1.173   5.926 -0.3938  1.4091 -0.2102
 9183SOL    HW228449   2.794   1.239   5.991  0.6640 -1.4501  0.6721
 9184SOL     OW28450   4.038   6.532   1.103  0.3624  0.2822 -0.1871
 9184SOL    HW128451   3.990   6.499   1.184  0.6569 -1.4471 -0.6572
 9184SOL    HW228452   3.979   6.521   1.023  1.2092 -1.1349 -0.6559
 9185SOL     OW28453   2.495   0.065   6.437 -0.0732  0.3388 -0.8391
 9185SOL    HW128454   2.530  -0.005   6.499 -1.4627 -0.5169 -0.9849
 9185SOL    HW228455   2.471   0.147   6.488 -0.5921 -0.1278 -0.3251
 9186SOL     OW28456   6.445   6.979   0.246  0.6640 -0.1381 -0.0367
 9186SOL    HW128457   6.494   7.041   0.307 -1.4415  1.5573  0.0507
 9186SOL    HW228458   6.380   7.031   0.191 -0.4491 -2.1616 -0.7439
 9187SOL     OW28459   6.426   2.077   6.431 -0.0644  0.8132  0.4329
 9187SOL    HW128460   6.408   2.132   6.350  1.2979  0.0197 -0.4536
 9187SOL    HW228461   6.496   2.121   6.487  1.2850 -0.1408 -0.4587
 9188SOL     OW28462   3.090   5.304   3.559  0.2257  0.2422 -0.3713
 9188SOL    HW128463   3.163   5.239   3.579 -0.6939 -1.2897 -1.7024
 9188SOL    HW228464   3.124   5.376   3.500  0.8458 -0.0424 -0.3655
 9189SOL     OW28465   2.945   1.019   6.733 -0.5440 -0.1940 -0.2263
 9189SOL    HW128466   2.858   1.065   6.748 -1.8346 -2.7830  0.9506
 9189SOL    HW228467   2.928   0.925   6.704  1.7741 -1.4185  1.9378
 9190SOL     OW28468   3.459   0.589   5.344 -0.6895  0.3008  0.4405
 9190SOL    HW128469   3.377   0.606   5.289 -0.9521  0.0378  0.7446
 9190SOL    HW228470   3.431   0.558   5.435 -0.2520  0.3540  0.5919
 9191SOL     OW28471   4.041   0.325   0.956  0.1457  0.0184  0.1589
 9191SOL    HW128472   4.077   0.338   1.049 -0.2554  0.0683  0.3080
 9191SOL    HW228473   4.117   0.307   0.893  0.6223  1.9884  0.1332
 9192SOL     OW28474   4.710   5.630   5.625  0.3508  0.1501 -0.2716
 9192SOL    HW128475   4.745   5.619   5.718 -0.3270  2.8951  0.4046
 9192SOL    HW228476   4.772   5.688   5.573 -0.9181  1.4007 -0.4415
 9193SOL     OW28477   4.129   3.519   3.358  0.0075 -0.1543  0.0119
 9193SOL    HW128478   4.128   3.548   3.454  1.5234 -0.6027  0.1899
 9193SOL    HW228479   4.134   3.600   3.299 -0.8296  0.1196  0.2927
 9194SOL     OW28480   2.284   4.680   1.661 -0.2227  0.4824 -0.5917
 9194SOL    HW128481   2.329   4.664   1.748 -0.0068  2.0054 -0.3934
 9194SOL    HW228482   2.343   4.737   1.603 -0.3192 -0.5888 -1.7829
 9195SOL     OW28483   0.334   3.406   4.293 -0.2663 -0.3540  0.1699
 9195SOL    HW128484   0.366   3.366   4.207 -1.4240  1.5963 -1.2381
 9195SOL    HW228485   0.412   3.443   4.343  0.1362  1.0697 -1.4520
 9196SOL     OW28486   5.227   5.931   2.549 -0.7113  0.4053  0.0151
 9196SOL    HW128487   5.325   5.937   2.531 -0.3693 -2.5950  0.4211
 9196SOL    HW228488   5.209   5.955   2.644 -0.6385  2.3957 -0.4208
 9197SOL     OW28489   5.185   2.903   2.056  0.0895 -0.2485  0.1448
 9197SOL    HW128490   5.211   2.980   1.998  0.7853  0.2747  1.1368
 9197SOL    HW228491   5.257   2.833   2.052  0.1609 -0.1904  0.4180
 9198SOL     OW28492   6.717   4.002   4.929  0.2795  0.1982  0.2108
 9198SOL    HW128493   6.657   4.053   4.868  2.1627  2.1893 -0.0889
 9198SOL    HW228494   6.806   3.990   4.886  0.4546 -1.8355  1.0347
 9199SOL     OW28495   1.384   1.896   0.122  0.1112 -0.2322  0.1815
 9199SOL    HW128496   1.369   1.927   0.216  0.4109  0.5621 -0.0284
 9199SOL    HW228497   1.433   1.809   0.123 -1.8471 -1.3917  0.8188
 9200SOL     OW28498   6.649   6.428   2.494 -0.9239  0.2550 -0.2143
 9200SOL    HW128499   6.626   6.522   2.520  0.0188 -0.1780  2.4796
 9200SOL    HW228500   6.745   6.424   2.468 -1.4647  0.3620 -2.4415
 9201SOL     OW28501   6.429   2.922   0.852  0.1131 -0.0667  0.1255
 9201SOL    HW128502   6.388   3.013   0.859 -0.8781 -0.5965  1.9839
 9201SOL    HW228503   6.377   2.866   0.789 -1.8421 -0.5743  2.0801
 9202SOL     OW28504   4.206   5.347   4.370 -0.2375  0.1929  0.5803
 9202SOL    HW128505   4.118   5.393   4.371  0.1279  1.0040  3.5646
 9202SOL    HW228506   4.279   5.413   4.388  1.2425 -0.2453 -2.8681
 9203SOL     OW28507   5.064   3.184   0.911  0.4589  0.0128  0.7277
 9203SOL    HW128508   5.106   3.207   0.999  0.6575 -0.9345  0.8884
 9203SOL    HW228509   5.118   3.226   0.837  0.3494  0.7248  1.0439
 9204SOL     OW28510   4.631   5.533   2.657 -0.0607 -0.6177  0.4073
 9204SOL    HW128511   4.668   5.537   2.750  0.1749  1.7504  0.2897
 9204SOL    HW228512   4.707   5.521   2.592 -0.0132 -0.4641  0.4330
 9205SOL     OW28513   2.638   0.559   1.974 -0.3545 -0.2464 -0.2491
 9205SOL    HW128514   2.595   0.482   2.020  0.2892 -1.2279 -1.2407
 9205SOL    HW228515   2.668   0.626   2.042 -0.3402 -1.1778  0.6847
 9206SOL     OW28516   0.501   4.920   4.163 -0.2567  0.2951  0.3232
 9206SOL    HW128517   0.514   4.825   4.136 -1.4854  0.5451 -1.3130
 9206SOL    HW228518   0.513   4.979   4.083  0.7710  1.5706  1.3649
 9207SOL     OW28519   5.114   0.407   0.156 -0.1501 -0.1531  0.4076
 9207SOL    HW128520   5.166   0.486   0.187 -0.1498 -0.6021  1.5891
 9207SOL    HW228521   5.073   0.427   0.066 -0.6171  1.3915  0.9324
 9208SOL     OW28522   3.946   5.011   2.224 -0.3101  0.0193  0.1301
 9208SOL    HW128523   3.919   4.960   2.305 -0.9622  0.7313  0.3744
 9208SOL    HW228524   3.883   4.991   2.149  0.8073 -1.3242 -0.4954
 9209SOL     OW28525   3.413   5.631   3.246  0.2493  0.1704 -0.3760
 9209SOL    HW128526   3.492   5.582   3.283 -0.8443 -3.5114 -2.4199
 9209SOL    HW228527   3.331   5.606   3.298 -0.2030  0.4687 -0.9340
 9210SOL     OW28528   6.829   6.213   4.805  0.6988 -0.7571 -0.2472
 9210SOL    HW128529   6.812   6.311   4.812 -2.0328 -1.1774  0.3672
 9210SOL    HW228530   6.805   6.169   4.891  1.3745 -2.0401 -0.6864
 9211SOL     OW28531   6.233   2.622   6.115 -0.0986  0.2505  0.0361
 9211SOL    HW128532   6.259   2.713   6.082 -1.1788  0.0783 -1.3844
 9211SOL    HW228533   6.133   2.618   6.127 -0.0070 -0.5911  0.6195
 9212SOL     OW28534   5.591   3.478   6.897  0.0776  0.0297  0.2902
 9212SOL    HW128535   5.615   3.573   6.916 -0.0926  0.0040  0.6334
 9212SOL    HW228536   5.635   3.418   6.964  1.1505 -0.2435 -0.6238
 9213SOL     OW28537   6.015   6.785   1.805  0.1242 -0.0351 -0.5923
 9213SOL    HW128538   5.941   6.759   1.742  0.5931 -2.7258 -0.1794
 9213SOL    HW228539   5.977   6.808   1.894 -0.2725 -0.9010 -0.5276
 9214SOL     OW28540   1.555   1.586   6.478 -0.1013 -0.2020  0.0120
 9214SOL    HW128541   1.588   1.634   6.560 -2.4885 -0.5651  1.2835
 9214SOL    HW228542   1.478   1.637   6.439  0.1506 -0.7472 -1.2279
 9215SOL     OW28543   5.157   2.548   4.550 -0.0312  0.2172 -0.0542
 9215SOL    HW128544   5.184   2.579   4.641  0.7235  1.1040 -0.5521
 9215SOL    HW228545   5.058   2.551   4.542 -0.1121 -0.0380  0.7957
 9216SOL     OW28546   1.112   5.018   3.954 -0.3000  0.5653  0.0669
 9216SOL    HW128547   1.179   5.055   3.888 -1.8069  0.9670 -1.3051
 9216SOL    HW228548   1.104   5.081   4.031  0.2528  0.9726 -0.1956
 9217SOL     OW28549   4.102   2.680   5.902  0.3016  0.3774  0.5037
 9217SOL    HW128550   4.165   2.671   5.824 -1.4251 -0.5574 -0.8472
 9217SOL    HW228551   4.089   2.590   5.944 -0.9539  0.3314  0.0631
 9218SOL     OW28552   6.055   5.626   3.824 -0.1398  0.1940  0.4821
 9218SOL    HW128553   6.134   5.663   3.873  0.0620 -0.2124  0.4625
 9218SOL    HW228554   6.077   5.535   3.789  0.4681  1.2572 -2.1367
 9219SOL     OW28555   4.554   2.658   6.864  0.3434  0.0373 -0.3953
 9219SOL    HW128556   4.613   2.694   6.937 -0.1993 -0.8152  0.4783
 9219SOL    HW228557   4.607   2.648   6.780  0.9302  1.2257 -0.1898
 9220SOL     OW28558   1.920   6.509   4.131  0.2323  0.4595  0.3018
 9220SOL    HW128559   1.837   6.524   4.186 -0.3703  0.0764 -0.4830
 9220SOL    HW228560   1.927   6.580   4.061 -1.0141 -1.0947 -1.4915
 9221SOL     OW28561   1.283   0.336   0.784 -0.2517  0.4970  0.1347
 9221SOL    HW128562   1.190   0.313   0.812 -1.0272  0.5807 -2.1456
 9221SOL    HW228563   1.345   0.264   0.813 -1.4723 -0.8853 -0.5399
 9222SOL     OW28564   2.919   5.051   1.752 -0.0350 -0.3929  0.0518
 9222SOL    HW128565   2.921   4.955   1.778 -0.0419  0.0265  1.6730
 9222SOL    HW228566   2.901   5.108   1.832  1.5746  1.0782 -0.5508
 9223SOL     OW28567   5.295   0.858   4.064 -0.8049 -0.2153  0.0125
 9223SOL    HW128568   5.343   0.875   3.978 -1.9998  1.6133 -0.3617
 9223SOL    HW228569   5.231   0.782   4.053  1.5116 -2.3562  0.3755
 9224SOL     OW28570   0.983   4.756   3.344 -0.9282 -0.3692  0.4204
 9224SOL    HW128571   0.896   4.726   3.304  0.0404 -2.3009 -0.3518
 9224SOL    HW228572   1.051   4.685   3.333  0.1748  0.1567  3.0742
 9225SOL     OW28573   0.084   4.237   0.375  0.0388 -0.5042 -0.0883
 9225SOL    HW128574   0.066   4.233   0.474 -0.3078  0.9580 -0.0660
 9225SOL    HW228575   0.179   4.213   0.357  0.2667 -0.1797  0.6609
 9226SOL     OW28576   2.064   0.285   4.354  0.1783  0.2555  0.0681
 9226SOL    HW128577   2.115   0.368   4.330  0.0690  0.4678  0.5619
 9226SOL    HW228578   2.097   0.250   4.442  0.7078 -0.6208 -0.4555
 9227SOL     OW28579   2.253   3.398   0.760  0.2641  0.1212  0.1223
 9227SOL    HW128580   2.202   3.440   0.835 -0.2255  1.4734 -0.9207
 9227SOL    HW228581   2.201   3.408   0.675 -1.2647 -5.0555  0.1357
 9228SOL     OW28582   3.688   4.044   5.848  0.2463  0.5456 -0.4286
 9228SOL    HW128583   3.654   4.100   5.773  0.6827 -0.9037 -1.7641
 9228SOL    HW228584   3.727   3.960   5.811  1.3699  0.2330  1.3640
 9229SOL     OW28585   0.572   4.307   6.782  0.4978  0.5789 -0.0893
 9229SOL    HW128586   0.544   4.264   6.696 -1.2593  3.0878 -0.9207
 9229SOL    HW228587   0.656   4.360   6.766  0.3401  0.8012 -0.1826
 9230SOL     OW28588   3.501   5.358   4.929 -0.6774 -0.5891 -0.1906
 9230SOL    HW128589   3.551   5.360   5.016 -0.4055  0.5187 -0.3550
 9230SOL    HW228590   3.416   5.307   4.941 -0.7108 -0.3280  0.7651
 9231SOL     OW28591   6.887   6.973   2.251 -0.2253  0.1402  0.3860
 9231SOL    HW128592   6.920   7.056   2.207 -0.4194 -0.0125 -0.0533
 9231SOL    HW228593   6.860   6.993   2.345  1.6935  0.1469  0.9744
 9232SOL     OW28594   0.611   4.538   1.564 -0.0464 -0.0262  0.3730
 9232SOL    HW128595   0.616   4.637   1.576  0.4848 -0.0375  0.2596
 9232SOL    HW228596   0.651   4.492   1.644  0.1379 -0.1429  0.2147
 9233SOL     OW28597   1.505   0.390   0.036 -0.4148  0.4459  0.0378
 9233SOL    HW128598   1.437   0.453  -0.001  0.4559  0.3805 -1.8005
 9233SOL    HW228599   1.596   0.428   0.022  0.1877 -1.4097 -1.6899
 9234SOL     OW28600   2.899   3.396   5.589 -0.0671 -0.4609  0.2430
 9234SOL    HW128601   2.823   3.397   5.525 -0.2410  0.3933  0.4472
 9234SOL    HW228602   2.956   3.477   5.574  0.0149 -0.3712  1.0060
 9235SOL     OW28603   2.878   2.202   1.396 -0.5336 -0.4744  0.3779
 9235SOL    HW128604   2.799   2.150   1.427  0.7882 -2.2479  0.8763
 9235SOL    HW228605   2.870   2.297   1.428 -2.0945 -0.7927  1.0148
 9236SOL     OW28606   0.051   3.146   0.083  0.6995 -0.0803 -0.6543
 9236SOL    HW128607  -0.037   3.166   0.040  1.2987  0.2196 -1.7653
 9236SOL    HW228608   0.113   3.223   0.069  1.1492 -0.2911  0.1206
 9237SOL     OW28609   6.079   6.352   4.115 -0.5707  0.4791  0.6542
 9237SOL    HW128610   6.011   6.383   4.048  2.4047  3.9684 -1.0760
 9237SOL    HW228611   6.107   6.259   4.092 -2.0133  0.3743 -0.8950
 9238SOL     OW28612   1.248   2.851   6.527  0.0297 -0.2631  0.0040
 9238SOL    HW128613   1.201   2.937   6.547 -2.0418 -1.3551  0.1321
 9238SOL    HW228614   1.266   2.803   6.613  1.0522 -0.0505 -0.0785
 9239SOL     OW28615   6.616   6.826   0.809 -0.2659  0.1395  0.0671
 9239SOL    HW128616   6.555   6.905   0.812  2.5579  2.6539 -2.3402
 9239SOL    HW228617   6.601   6.776   0.724 -0.4925 -0.5868  0.5274
 9240SOL     OW28618   5.291   2.867   4.811  0.1622  0.4660  0.1513
 9240SOL    HW128619   5.389   2.847   4.804  0.0298 -0.2298  0.2623
 9240SOL    HW228620   5.245   2.838   4.727 -0.0242  0.3467  0.2936
 9241SOL     OW28621   4.339   0.161   5.444  0.4541  0.3589  0.1380
 9241SOL    HW128622   4.352   0.072   5.489  1.7723  1.2553  1.6545
 9241SOL    HW228623   4.263   0.210   5.488 -0.5537 -0.1601 -0.9799
 9242SOL     OW28624   2.335   2.111   6.589 -0.7375 -0.4536  0.4531
 9242SOL    HW128625   2.414   2.171   6.578 -1.0812 -0.0188  0.3609
 9242SOL    HW228626   2.279   2.143   6.665 -0.0004 -1.6772  1.5575
 9243SOL     OW28627   1.911   5.723   5.155 -0.2648  0.0681 -0.5987
 9243SOL    HW128628   1.866   5.680   5.233  2.9361  0.1632  1.5023
 9243SOL    HW228629   1.991   5.669   5.128 -0.1841  1.0668 -2.5487
 9244SOL     OW28630   3.020   5.517   6.763  0.6934  0.2680 -0.1712
 9244SOL    HW128631   3.078   5.558   6.833  0.9460 -0.8405  0.2928
 9244SOL    HW228632   2.992   5.587   6.698 -3.1302  2.4223  3.3250
 9245SOL     OW28633   1.126   4.362   3.380  0.0327 -0.6631  0.5743
 9245SOL    HW128634   1.212   4.339   3.424 -0.5332 -0.3162  1.9017
 9245SOL    HW228635   1.138   4.444   3.324  0.2556  0.2106  1.8688
 9246SOL     OW28636   6.423   6.088   6.508 -0.6676  0.1137 -0.5526
 9246SOL    HW128637   6.481   6.136   6.442 -0.6987  0.4557 -0.3288
 9246SOL    HW228638   6.401   6.149   6.584  0.7843 -0.7897  0.6559
 9247SOL     OW28639   2.579   5.314   2.430  0.5246 -0.5820  0.2846
 9247SOL    HW128640   2.573   5.223   2.471  1.3476 -0.6552  0.2675
 9247SOL    HW228641   2.555   5.310   2.333 -0.3190 -0.6165  0.4939
 9248SOL     OW28642   1.739   0.483   0.379  0.6462  0.4698 -0.0052
 9248SOL    HW128643   1.803   0.560   0.381  1.2356 -0.0162  0.9269
 9248SOL    HW228644   1.668   0.497   0.447  0.0375  0.7670 -0.6926
 9249SOL     OW28645   3.479   1.155   0.939 -0.2637  0.2070 -0.9429
 9249SOL    HW128646   3.486   1.254   0.926 -0.0345  0.3229  0.0253
 9249SOL    HW228647   3.394   1.122   0.898 -1.3816  1.1274  0.5409
 9250SOL     OW28648   2.439   5.101   3.655  0.1708 -0.3827  0.5109
 9250SOL    HW128649   2.475   5.136   3.742 -2.2712  3.0499  0.3744
 9250SOL    HW228650   2.481   5.152   3.579  0.9270 -2.0702 -0.2407
 9251SOL     OW28651   4.010   1.387   2.606 -0.0789  0.1757 -0.6785
 9251SOL    HW128652   3.930   1.447   2.600  0.4750  1.1684  1.0231
 9251SOL    HW228653   4.080   1.419   2.542 -0.8151 -0.4039 -1.8186
 9252SOL     OW28654   6.998   1.869   5.814  0.0090 -0.3699  0.1141
 9252SOL    HW128655   7.047   1.935   5.870  0.4285 -1.1825  0.7258
 9252SOL    HW228656   7.063   1.818   5.758 -0.3871  0.2986 -0.9843
 9253SOL     OW28657   3.258   5.898   4.132  0.5173 -0.1073  0.6881
 9253SOL    HW128658   3.335   5.840   4.103 -1.0677 -2.3722  0.8014
 9253SOL    HW228659   3.241   5.884   4.229  0.5836  1.1821  0.8973
 9254SOL     OW28660   1.803   5.134   3.016  0.4406  0.4223  0.2647
 9254SOL    HW128661   1.794   5.225   2.976 -0.2243  0.8072  1.2595
 9254SOL    HW228662   1.714   5.089   3.017  0.3261  0.6247  1.7543
 9255SOL     OW28663   5.882   2.960   3.016  0.1775 -0.5153 -0.0448
 9255SOL    HW128664   5.880   2.863   3.037  0.2728 -0.9323 -1.8138
 9255SOL    HW228665   5.842   2.976   2.926  3.0813  0.6400 -1.2621
 9256SOL     OW28666   1.216   0.503   1.030  0.5580  0.4870  0.8194
 9256SOL    HW128667   1.143   0.553   0.984  0.3343  0.5910  1.2857
 9256SOL    HW228668   1.288   0.481   0.964  0.8505  1.7587  0.6812
 9257SOL     OW28669   6.253   1.010   4.809  0.2384  0.0788 -0.1587
 9257SOL    HW128670   6.262   1.110   4.801  0.0676  0.2116  1.0244
 9257SOL    HW228671   6.178   0.978   4.752 -1.4576  1.0116  1.4150
 9258SOL     OW28672   4.185   4.253   1.221  0.0292  1.0155 -0.0073
 9258SOL    HW128673   4.177   4.268   1.320 -0.8493  1.3800 -0.1203
 9258SOL    HW228674   4.206   4.156   1.204 -0.4659  0.8027  0.5203
 9259SOL     OW28675   6.651   2.925   6.721 -0.0777 -0.2746 -0.1625
 9259SOL    HW128676   6.708   2.909   6.802 -2.6759 -0.1369  1.8369
 9259SOL    HW228677   6.572   2.864   6.724 -0.4005 -0.0590 -2.5118
 9260SOL     OW28678   3.806   4.553   5.836  0.3679  0.2824 -0.2617
 9260SOL    HW128679   3.743   4.561   5.760  0.8005  1.7073 -0.5122
 9260SOL    HW228680   3.872   4.480   5.818  1.3073  1.4612 -1.9284
 9261SOL     OW28681   0.312   3.491   0.543 -0.4300  0.2589  0.3890
 9261SOL    HW128682   0.338   3.559   0.475  0.7010  0.7754  1.3064
 9261SOL    HW228683   0.283   3.536   0.627 -2.7496 -0.3486 -0.0063
 9262SOL     OW28684   0.386   6.396   5.988 -0.5568 -0.0123  0.5759
 9262SOL    HW128685   0.318   6.468   5.973 -2.8003 -2.1125 -0.0819
 9262SOL    HW228686   0.371   6.356   6.079  0.8977  0.5076  1.0776
 9263SOL     OW28687   1.871   3.101   2.259  0.5075 -0.1471  0.4881
 9263SOL    HW128688   1.804   3.088   2.186  0.3247 -1.6044  0.8909
 9263SOL    HW228689   1.935   3.173   2.233 -0.9911  1.0423 -0.0556
 9264SOL     OW28690   5.039   2.650   5.658 -0.5357 -0.3247 -0.2712
 9264SOL    HW128691   5.019   2.590   5.735 -0.8916  0.4411  0.2485
 9264SOL    HW228692   5.138   2.652   5.642 -0.4136 -0.1607  0.4501
 9265SOL     OW28693   5.964   1.118   4.425 -0.2455 -0.1450 -0.3194
 9265SOL    HW128694   5.963   1.076   4.516  0.9395  0.4118 -0.0323
 9265SOL    HW228695   6.003   1.054   4.359 -0.9265 -0.4763 -0.4111
 9266SOL     OW28696   6.411   5.755   0.848 -0.0208  0.0614  0.1851
 9266SOL    HW128697   6.479   5.682   0.859 -0.1929 -0.1780 -0.3524
 9266SOL    HW228698   6.444   5.821   0.780  1.3530  1.9100  2.4577
 9267SOL     OW28699   0.364   3.715   3.383  0.3398 -0.0024 -0.2065
 9267SOL    HW128700   0.281   3.747   3.337 -0.4713 -2.6637 -0.7496
 9267SOL    HW228701   0.342   3.636   3.440  2.3591 -0.2571  0.2855
 9268SOL     OW28702   1.550   1.228   0.710  0.1929  0.0446 -0.1968
 9268SOL    HW128703   1.571   1.295   0.780 -1.3347 -1.6689  2.0688
 9268SOL    HW228704   1.616   1.152   0.715 -1.4374 -1.3726  1.3371
 9269SOL     OW28705   1.324   6.829   1.798 -0.1210 -0.3368  0.1338
 9269SOL    HW128706   1.284   6.755   1.744 -2.2831 -0.0449  1.2383
 9269SOL    HW228707   1.306   6.813   1.895 -0.7969  1.7012  0.3874
 9270SOL     OW28708   1.867   0.301   5.226  0.1204 -0.3480 -0.7049
 9270SOL    HW128709   1.850   0.379   5.165 -0.3191 -1.1180 -1.5967
 9270SOL    HW228710   1.780   0.262   5.255  0.3271 -0.0622  0.3568
 9271SOL     OW28711   0.298   4.013   5.405 -0.2004 -0.0178  0.3668
 9271SOL    HW128712   0.252   4.095   5.441  0.0406  0.1608  0.2653
 9271SOL    HW228713   0.397   4.028   5.404 -0.1738 -0.2131  0.1011
 9272SOL     OW28714   5.358   0.803   3.794 -0.5583 -0.2649  0.0470
 9272SOL    HW128715   5.443   0.825   3.745 -0.9297  0.3909 -0.3122
 9272SOL    HW228716   5.280   0.837   3.742 -1.0130 -0.4036  0.6326
 9273SOL     OW28717   5.490   4.481   1.370  0.5591  0.6907 -0.3941
 9273SOL    HW128718   5.424   4.523   1.308  1.3432  0.2566 -1.5549
 9273SOL    HW228719   5.527   4.398   1.328 -1.6760 -1.8804  2.1814
 9274SOL     OW28720   6.673   3.361   6.229 -0.0797  0.2977  0.3162
 9274SOL    HW128721   6.723   3.428   6.284 -1.4569  0.8466  0.9588
 9274SOL    HW228722   6.738   3.301   6.182  1.1708 -0.3001  2.6574
 9275SOL     OW28723   5.213   1.687   6.988  0.1500  0.0938  0.0377
 9275SOL    HW128724   5.198   1.710   7.084  1.3142 -0.4936  0.3800
 9275SOL    HW228725   5.193   1.766   6.931  1.4788  1.1417  0.9544
 9276SOL     OW28726   2.491   3.480   0.726 -0.6028 -0.6234  0.3730
 9276SOL    HW128727   2.475   3.568   0.682 -0.8020  0.0762  1.7936
 9276SOL    HW228728   2.405   3.430   0.732 -0.5777 -0.7150 -0.0019
 9277SOL     OW28729   4.140   6.615   3.652  0.7245  0.1768  0.0163
 9277SOL    HW128730   4.051   6.620   3.606  0.6887  4.1915  0.1720
 9277SOL    HW228731   4.136   6.548   3.726 -2.1388  0.1989 -0.0098
 9278SOL     OW28732   5.445   0.041   5.327  0.4075  0.5120 -1.1806
 9278SOL    HW128733   5.521  -0.019   5.302  1.2112  0.5942  0.8158
 9278SOL    HW228734   5.481   0.132   5.350 -0.0999  0.2687  0.7997
 9279SOL     OW28735   5.275   5.663   2.165  0.0418  0.0875 -0.1220
 9279SOL    HW128736   5.357   5.719   2.154  0.1689  0.0496  0.5741
 9279SOL    HW228737   5.207   5.713   2.217 -1.0875  0.8071 -2.1861
 9280SOL     OW28738   1.648   4.754   1.770  0.5300  0.4923  0.1645
 9280SOL    HW128739   1.677   4.834   1.717 -0.5111  1.0182  0.3574
 9280SOL    HW228740   1.639   4.675   1.710  0.2814  0.8505 -0.2749
 9281SOL     OW28741   1.029   6.543   1.426  0.1753 -0.0212 -0.4498
 9281SOL    HW128742   0.951   6.503   1.377 -0.5380  0.2456  0.4387
 9281SOL    HW228743   1.081   6.470   1.471 -1.3008 -0.0048  1.4224
 9282SOL     OW28744   3.802   6.398   4.798 -0.0988 -0.2703  0.6537
 9282SOL    HW128745   3.791   6.497   4.801 -2.1417 -0.3406 -1.4458
 9282SOL    HW228746   3.898   6.374   4.812  0.3943  1.9529  1.4316
 9283SOL     OW28747   3.919   6.319   0.551  0.1635 -0.1636 -0.0156
 9283SOL    HW128748   3.947   6.293   0.459  0.5168  0.2714 -0.0359
 9283SOL    HW228749   4.001   6.328   0.609  0.0575  0.9216 -0.0188
 9284SOL     OW28750   3.218   5.484   1.239 -0.5589 -0.0134 -0.6687
 9284SOL    HW128751   3.215   5.387   1.261 -0.3509  0.0530 -0.3384
 9284SOL    HW228752   3.190   5.498   1.144  0.8353 -0.5391 -1.1755
 9285SOL     OW28753   6.644   5.985   3.697 -0.1225  0.5405 -0.6264
 9285SOL    HW128754   6.734   5.942   3.710 -0.5983 -0.5893 -0.9197
 9285SOL    HW228755   6.654   6.084   3.698  0.7817  0.4799  1.7657
 9286SOL     OW28756   4.341   0.470   0.791 -0.0878  0.2459  0.2719
 9286SOL    HW128757   4.395   0.419   0.725  0.6342 -0.3633  1.3020
 9286SOL    HW228758   4.260   0.508   0.746  0.7298  0.4179 -1.0853
 9287SOL     OW28759   6.446   2.273   2.895 -1.0327  0.0072 -0.8308
 9287SOL    HW128760   6.410   2.336   2.826 -2.1171 -1.0291 -1.2552
 9287SOL    HW228761   6.454   2.182   2.854 -1.3229 -0.5337  0.2956
 9288SOL     OW28762   5.490   1.078   3.938 -0.0002  0.2232  0.2833
 9288SOL    HW128763   5.484   1.006   4.007  2.7603  0.8319  1.2746
 9288SOL    HW228764   5.440   1.158   3.970 -1.4753 -0.5623  0.0379
 9289SOL     OW28765   6.665   5.645   2.492 -0.0022 -0.1329 -0.3122
 9289SOL    HW128766   6.725   5.724   2.504  0.2988 -0.4133  0.0341
 9289SOL    HW228767   6.679   5.580   2.566 -0.0685 -0.6313 -0.7291
 9290SOL     OW28768   4.767   2.932   3.442  0.3232  0.0293 -0.0429
 9290SOL    HW128769   4.791   3.006   3.505  1.0982 -0.2211 -0.0379
 9290SOL    HW228770   4.819   2.942   3.357 -0.0578 -0.1406 -0.3019
 9291SOL     OW28771   0.073   4.001   4.470 -0.5747  0.0947 -0.5966
 9291SOL    HW128772   0.100   4.041   4.557  0.4420 -0.3016 -0.7097
 9291SOL    HW228773   0.050   4.074   4.405  0.1574  0.4659 -0.4536
 9292SOL     OW28774   1.276   6.878   5.905 -0.3241  0.0353 -0.2113
 9292SOL    HW128775   1.226   6.916   5.984 -1.7048 -0.8153 -0.6293
 9292SOL    HW228776   1.285   6.779   5.916 -0.8030 -0.1380 -1.2485
 9293SOL     OW28777   5.105   0.590   6.780  0.6914  0.4473 -0.0600
 9293SOL    HW128778   5.031   0.623   6.721 -1.7943 -0.9001  2.0994
 9293SOL    HW228779   5.133   0.663   6.842 -1.3282  0.0612  1.4037
 9294SOL     OW28780   4.348   0.044   0.154 -0.3932  0.0142  0.1974
 9294SOL    HW128781   4.351   0.144   0.156  0.4689  0.0149 -0.3921
 9294SOL    HW228782   4.410   0.010   0.084  0.1884 -0.9841  1.1579
 9295SOL     OW28783   5.561   3.151   2.165 -0.0625 -0.4471  0.5782
 9295SOL    HW128784   5.571   3.242   2.127 -0.4162  0.4387  2.4629
 9295SOL    HW228785   5.553   3.084   2.091 -0.2048  1.0781 -0.8429
 9296SOL     OW28786   6.489   3.769   5.867 -0.1427 -0.2875  0.0529
 9296SOL    HW128787   6.405   3.821   5.851  0.5649  0.9795  0.2722
 9296SOL    HW228788   6.469   3.672   5.867 -1.3951 -0.0652 -1.1862
 9297SOL     OW28789   6.656   5.661   2.209  0.3407  0.2659 -0.2986
 9297SOL    HW128790   6.658   5.643   2.308 -0.3361  0.7518 -0.1920
 9297SOL    HW228791   6.746   5.640   2.170  0.6976  0.3261  0.4634
 9298SOL     OW28792   6.492   3.922   5.086 -0.1997 -0.5419  0.9790
 9298SOL    HW128793   6.551   3.941   5.008 -0.0766 -2.1723  0.6245
 9298SOL    HW228794   6.545   3.878   5.158 -0.6596 -0.5800  1.3001
 9299SOL     OW28795   2.273   4.262   4.616 -0.5357  0.1765  0.4483
 9299SOL    HW128796   2.197   4.300   4.564 -2.2812 -3.2802  0.1782
 9299SOL    HW228797   2.237   4.212   4.695  1.4696 -1.2297  0.5515
 9300SOL     OW28798   3.185   4.991   5.431 -0.8476 -0.3193 -0.1045
 9300SOL    HW128799   3.095   4.998   5.474 -1.1395 -0.6866 -0.6455
 9300SOL    HW228800   3.184   4.918   5.363 -0.4262  0.3194 -0.8139
 9301SOL     OW28801   0.757   4.500   4.611 -0.3159 -0.3264 -0.5151
 9301SOL    HW128802   0.777   4.409   4.573 -2.5215  0.1211 -3.0649
 9301SOL    HW228803   0.837   4.533   4.661  1.7321 -2.3527 -2.1984
 9302SOL     OW28804   3.101   4.915   3.746  0.3249 -0.3952 -0.3245
 9302SOL    HW128805   3.195   4.923   3.779  1.0555  0.6524 -2.4639
 9302SOL    HW228806   3.102   4.884   3.650 -1.3824  1.3820 -0.9888
 9303SOL     OW28807   2.746   5.934   0.885  0.1398 -0.1667  0.1796
 9303SOL    HW128808   2.741   5.865   0.958  1.2618 -0.3348  0.1244
 9303SOL    HW228809   2.657   5.942   0.840  0.0343 -1.7276  0.0631
 9304SOL     OW28810   6.193   6.812   0.024  0.0098 -0.8058 -0.0292
 9304SOL    HW128811   6.232   6.808  -0.068 -0.9591 -0.9638 -0.4423
 9304SOL    HW228812   6.204   6.723   0.068  0.4162 -0.7498 -0.0112
 9305SOL     OW28813   5.589   1.822   1.077 -0.2297 -0.3071 -0.8746
 9305SOL    HW128814   5.556   1.913   1.052  0.3483  0.0283 -0.4537
 9305SOL    HW228815   5.537   1.788   1.155 -1.2964 -0.8882 -1.8072
 9306SOL     OW28816   6.691   5.431   6.625  0.3867 -0.0379 -0.1903
 9306SOL    HW128817   6.621   5.461   6.560  0.1721  1.0792  0.5276
 9306SOL    HW228818   6.657   5.354   6.678  0.3965 -0.6704 -1.0958
 9307SOL     OW28819   2.810   3.678   0.360 -0.1961 -0.1445  0.4650
 9307SOL    HW128820   2.907   3.675   0.386 -0.1855  0.9665  0.6114
 9307SOL    HW228821   2.754   3.688   0.442 -0.5329 -1.8836  0.4849
 9308SOL     OW28822   2.093   3.904   2.136  0.0236  0.7993 -0.2322
 9308SOL    HW128823   2.174   3.931   2.084  0.9878 -0.8025  0.3563
 9308SOL    HW228824   2.058   3.983   2.186  0.4094  1.8314 -1.5214
 9309SOL     OW28825   4.185   4.538   0.487 -0.4397 -0.2304 -0.0128
 9309SOL    HW128826   4.275   4.580   0.476 -0.5378 -0.2817 -1.1847
 9309SOL    HW228827   4.190   4.442   0.459 -1.2203  0.2119 -1.7893
 9310SOL     OW28828   0.232   0.827   4.717 -0.7225  0.2154  0.3859
 9310SOL    HW128829   0.178   0.883   4.780 -2.7318  0.0953 -1.1188
 9310SOL    HW228830   0.173   0.760   4.673  0.6833  0.0418 -1.3386
 9311SOL     OW28831   6.357   5.098   6.717  0.5630 -0.4558  0.0688
 9311SOL    HW128832   6.345   5.028   6.787  2.5360 -2.6252 -1.5697
 9311SOL    HW228833   6.401   5.057   6.637 -0.4663  2.1630 -1.9913
 9312SOL     OW28834   5.956   3.790   3.198 -0.6821  0.2191 -0.5511
 9312SOL    HW128835   5.922   3.795   3.292 -1.0225  0.5909 -0.6891
 9312SOL    HW228836   5.878   3.779   3.135 -0.4066 -0.7362 -0.7419
 9313SOL     OW28837   0.465   0.471   4.635 -0.3758 -0.1467 -0.2202
 9313SOL    HW128838   0.563   0.452   4.630 -0.1092  1.2934 -1.0358
 9313SOL    HW228839   0.448   0.540   4.705 -0.6604  0.3654 -0.7832
 9314SOL     OW28840   5.132   5.137   1.115  0.0337 -0.0135 -0.2370
 9314SOL    HW128841   5.179   5.060   1.072 -0.7647 -1.3433  1.1679
 9314SOL    HW228842   5.097   5.109   1.204  0.0952  2.1226  0.5280
 9315SOL     OW28843   3.647   0.286   4.935  0.0312  0.3513 -0.4161
 9315SOL    HW128844   3.725   0.342   4.907 -0.0191  0.2534 -0.7483
 9315SOL    HW228845   3.676   0.192   4.950 -0.0174  0.3224 -0.5050
 9316SOL     OW28846   6.169   6.949   1.235 -0.9162 -0.1392  0.5636
 9316SOL    HW128847   6.183   7.039   1.277 -0.4897  0.5429 -0.9526
 9316SOL    HW228848   6.163   6.959   1.135  2.2144 -2.0907  0.0380
 9317SOL     OW28849   0.620   5.607   2.946  0.1247 -0.0474  0.1539
 9317SOL    HW128850   0.648   5.556   2.865 -2.5136 -0.0816 -0.8224
 9317SOL    HW228851   0.638   5.704   2.932  2.1553 -0.3095  0.6866
 9318SOL     OW28852   2.383   0.019   2.660 -0.0066  0.3992 -0.0128
 9318SOL    HW128853   2.388  -0.073   2.622  1.4892 -0.4783  2.1149
 9318SOL    HW228854   2.471   0.043   2.702 -0.8386  2.1695  0.8626
 9319SOL     OW28855   1.767   6.937   0.718  0.1641  0.1758 -0.3694
 9319SOL    HW128856   1.798   6.932   0.623 -1.1922  2.8242 -1.0602
 9319SOL    HW228857   1.673   6.905   0.724  0.6098 -1.0641  0.3397
 9320SOL     OW28858   5.581   5.584   6.488  0.5286 -0.6280  0.4381
 9320SOL    HW128859   5.510   5.626   6.430 -0.6095 -0.7945  1.6553
 9320SOL    HW228860   5.545   5.573   6.580  2.2283 -0.5787  1.1349
 9321SOL     OW28861   2.547   1.263   1.538  0.1052  0.4121  0.2023
 9321SOL    HW128862   2.587   1.174   1.514 -1.0230  0.0671 -0.4375
 9321SOL    HW228863   2.576   1.332   1.471  1.4376  0.6780  1.0108
 9322SOL     OW28864   6.132   3.650   0.221  0.6681 -0.7233 -0.5135
 9322SOL    HW128865   6.173   3.707   0.150  0.6673 -0.5192 -0.3508
 9322SOL    HW228866   6.161   3.682   0.311 -0.8647  0.2447 -0.3354
 9323SOL     OW28867   6.615   0.870   3.978  0.0788 -0.6149  0.3724
 9323SOL    HW128868   6.517   0.887   3.968  0.1633 -0.2701  0.1286
 9323SOL    HW228869   6.667   0.951   3.952  0.3862 -0.2745  1.9233
 9324SOL     OW28870   0.881   5.448   0.630  0.1284  0.6451  0.1021
 9324SOL    HW128871   0.912   5.365   0.585 -1.2193  0.5310 -0.6927
 9324SOL    HW228872   0.891   5.439   0.729 -1.8287 -1.3217  0.2005
 9325SOL     OW28873   1.539   5.181   2.537 -0.0209 -0.2072  0.0932
 9325SOL    HW128874   1.568   5.154   2.445  0.5972 -1.2210  0.5643
 9325SOL    HW228875   1.588   5.263   2.565  1.0361 -0.8335  0.1413
 9326SOL     OW28876   6.103   5.613   1.173  0.6026 -0.2878 -0.2354
 9326SOL    HW128877   6.075   5.532   1.225  0.1288  1.0823  1.7788
 9326SOL    HW228878   6.141   5.680   1.236  1.0857  1.0230 -1.8770
 9327SOL     OW28879   0.113   0.721   2.676 -0.5050  0.3578  0.2006
 9327SOL    HW128880   0.211   0.710   2.687 -0.6742 -1.5441  0.0725
 9327SOL    HW228881   0.093   0.747   2.582 -0.1694  0.2612  0.1019
 9328SOL     OW28882   1.964   5.541   2.236  0.6048  0.8822  0.1519
 9328SOL    HW128883   1.938   5.638   2.239 -0.1305  0.6823  0.2796
 9328SOL    HW228884   2.043   5.530   2.176  0.8454  1.5986  0.3291
 9329SOL     OW28885   2.281   3.915   5.554  0.0197  0.1005  0.8717
 9329SOL    HW128886   2.378   3.896   5.537  0.2749  2.1402 -0.2428
 9329SOL    HW228887   2.226   3.848   5.504  0.8637  1.7411 -2.5825
 9330SOL     OW28888   0.762   6.877   1.347 -0.2282  0.1218  0.0335
 9330SOL    HW128889   0.713   6.964   1.350  1.2203  0.9836 -0.2144
 9330SOL    HW228890   0.770   6.841   1.440 -1.7568 -0.3176  0.0225
 9331SOL     OW28891   2.471   4.626   4.713 -0.1529  0.3157  0.2298
 9331SOL    HW128892   2.380   4.594   4.740 -0.9143  2.0489 -0.1525
 9331SOL    HW228893   2.531   4.626   4.793 -0.0574 -2.0870  0.2305
 9332SOL     OW28894   6.973   4.695   1.402 -0.2787  0.5156 -0.7730
 9332SOL    HW128895   6.946   4.770   1.463  1.0795  0.2719  0.1531
 9332SOL    HW228896   6.934   4.711   1.311 -1.3505  1.4955 -0.1727
 9333SOL     OW28897   1.908   5.257   0.946 -0.0195 -0.0009  0.3413
 9333SOL    HW128898   1.973   5.252   1.022  1.3145 -0.3259 -0.7833
 9333SOL    HW228899   1.956   5.238   0.860 -1.4178  0.7148 -0.6283
 9334SOL     OW28900   6.324   6.301   0.821  0.2468  0.0183  0.2301
 9334SOL    HW128901   6.229   6.284   0.796  0.1124 -1.6854  1.6689
 9334SOL    HW228902   6.359   6.224   0.874  2.3935  0.6815 -0.0899
 9335SOL     OW28903   2.430   3.103   0.833 -0.8566  0.2927  0.2302
 9335SOL    HW128904   2.354   3.097   0.897  0.1929 -2.1494  1.4006
 9335SOL    HW228905   2.514   3.129   0.882  0.0682 -2.0982  0.0595
 9336SOL     OW28906   3.511   5.438   5.828  0.6562  0.2527  0.1552
 9336SOL    HW128907   3.571   5.359   5.814 -1.0500 -0.5277 -4.2203
 9336SOL    HW228908   3.550   5.518   5.782  0.6185  1.0697  1.4904
 9337SOL     OW28909   5.400   1.784   3.862  0.5004 -0.1738 -0.0347
 9337SOL    HW128910   5.331   1.799   3.792 -0.4899 -1.2863  0.6606
 9337SOL    HW228911   5.405   1.686   3.884 -1.0909  0.3338  3.2485
 9338SOL     OW28912   5.049   6.243   2.349  0.5541 -0.7357  0.4869
 9338SOL    HW128913   5.029   6.341   2.352  2.0011 -0.4514  1.2031
 9338SOL    HW228914   5.141   6.228   2.312  0.3388 -1.8345  0.3485
 9339SOL     OW28915   6.140   4.139   3.657  0.2401  0.0304  0.5690
 9339SOL    HW128916   6.193   4.222   3.637  0.4986 -0.0095  1.0803
 9339SOL    HW228917   6.171   4.099   3.743 -1.2785  0.5466  1.3855
 9340SOL     OW28918   2.316   4.029   1.993 -0.1892 -0.0343 -0.1006
 9340SOL    HW128919   2.357   3.989   1.911 -1.6718  0.1200 -0.9507
 9340SOL    HW228920   2.312   4.128   1.983  1.8375  0.2560  1.2443
 9341SOL     OW28921   6.700   5.687   0.753  0.0140 -0.2872  0.2319
 9341SOL    HW128922   6.679   5.603   0.803 -1.2869 -0.3742 -0.4173
 9341SOL    HW228923   6.733   5.757   0.817 -1.3709 -0.4819  1.1912
 9342SOL     OW28924   3.153   0.851   4.359 -0.2980 -0.0489  0.7761
 9342SOL    HW128925   3.107   0.762   4.356  0.0623 -0.2496  1.1151
 9342SOL    HW228926   3.234   0.845   4.417  0.5137  0.1346 -0.3043
 9343SOL     OW28927   5.168   3.774   0.557  0.1488 -0.5152  0.6283
 9343SOL    HW128928   5.157   3.706   0.484 -0.5606 -0.1856  0.4120
 9343SOL    HW228929   5.142   3.864   0.522  1.2809 -0.0948  0.8558
 9344SOL     OW28930   0.231   0.460   6.164 -0.4653  0.3135  0.0175
 9344SOL    HW128931   0.270   0.381   6.211 -0.8060  0.3336  0.3318
 9344SOL    HW228932   0.193   0.524   6.231 -1.5318  0.0418 -0.3008
 9345SOL     OW28933   0.812   6.138   1.345  0.3024  0.2902  0.4767
 9345SOL    HW128934   0.858   6.050   1.335  0.9801  0.9160 -3.7325
 9345SOL    HW228935   0.713   6.124   1.346  0.4150 -0.5622  1.4447
 9346SOL     OW28936   5.260   2.172   1.274 -0.4823  0.0294 -0.5020
 9346SOL    HW128937   5.359   2.168   1.279 -0.5604 -1.4116  0.8568
 9346SOL    HW228938   5.223   2.191   1.365 -1.4394  3.1181 -1.3939
 9347SOL     OW28939   4.432   6.046   2.452 -0.3222  0.2910 -0.1680
 9347SOL    HW128940   4.470   5.972   2.508  0.4652  1.0761  0.3616
 9347SOL    HW228941   4.499   6.072   2.382 -0.1862  1.1880  0.2966
 9348SOL     OW28942   2.683   5.961   1.306 -0.2084 -0.1846  0.2115
 9348SOL    HW128943   2.595   5.969   1.353  0.2736  0.1116  1.0998
 9348SOL    HW228944   2.756   5.960   1.374  0.4198 -1.5181 -0.4402
 9349SOL     OW28945   1.794   5.868   6.734 -0.0777  0.8545 -0.6926
 9349SOL    HW128946   1.869   5.910   6.786 -0.5088 -0.4760  1.1240
 9349SOL    HW228947   1.830   5.791   6.681 -0.0835  0.3777 -0.0236
 9350SOL     OW28948   6.809   0.902   0.513 -0.0420 -0.5664 -0.3595
 9350SOL    HW128949   6.750   0.972   0.554  0.3953 -0.8749  0.8288
 9350SOL    HW228950   6.865   0.860   0.584 -0.9671 -2.7860 -0.8802
 9351SOL     OW28951   5.507   3.465   6.339  0.0023  0.3092  0.2718
 9351SOL    HW128952   5.501   3.532   6.413 -0.6446 -0.5123  0.9891
 9351SOL    HW228953   5.421   3.463   6.288 -0.3011 -0.5657  0.7977
 9352SOL     OW28954   1.181   5.015   0.704 -0.1375  1.0488 -0.2042
 9352SOL    HW128955   1.265   5.067   0.720  0.3276 -0.0395  1.0377
 9352SOL    HW228956   1.179   4.935   0.764 -0.9533 -0.2287 -1.8520
 9353SOL     OW28957   0.618   3.093   3.807  0.0030 -0.0966 -0.7210
 9353SOL    HW128958   0.674   3.010   3.814  0.2939  0.0762 -0.9980
 9353SOL    HW228959   0.678   3.173   3.801 -0.2767  0.2156  0.4785
 9354SOL     OW28960   5.647   2.464   0.926  0.2942 -0.2022 -0.4393
 9354SOL    HW128961   5.670   2.520   1.005 -0.9954 -0.0045 -0.1829
 9354SOL    HW228962   5.648   2.367   0.952 -0.0050 -0.1437 -0.2066
 9355SOL     OW28963   6.654   1.683   2.129 -0.3814  0.2236 -0.0026
 9355SOL    HW128964   6.651   1.780   2.102  0.5444 -0.2694 -2.0531
 9355SOL    HW228965   6.732   1.668   2.190 -0.3717  0.7111  0.1140
 9356SOL     OW28966   3.726   2.170   3.512 -0.4281  0.6253  0.0953
 9356SOL    HW128967   3.657   2.198   3.578 -1.4229 -1.1302 -0.1153
 9356SOL    HW228968   3.756   2.076   3.533 -1.4917 -0.3796 -2.4464
 9357SOL     OW28969   3.784   6.195   0.735  0.4517 -0.6682  0.6602
 9357SOL    HW128970   3.836   6.226   0.814 -2.0533  0.4668  1.9807
 9357SOL    HW228971   3.816   6.243   0.653 -1.2270  3.4348  2.1388
 9358SOL     OW28972   5.354   4.370   2.829 -0.2951 -0.0334  1.0231
 9358SOL    HW128973   5.430   4.363   2.764 -0.7034 -1.0931  0.6340
 9358SOL    HW228974   5.345   4.283   2.878 -0.9546  0.2468  1.4012
 9359SOL     OW28975   4.785   4.168   6.257  0.1503  0.0498  0.1050
 9359SOL    HW128976   4.785   4.193   6.160  0.6673  3.3707  0.8426
 9359SOL    HW228977   4.691   4.172   6.292 -0.0768 -1.4546 -0.3010
 9360SOL     OW28978   1.020   6.166   5.062  0.0056  0.0069 -0.3208
 9360SOL    HW128979   0.997   6.123   4.974 -0.3183 -1.4082  0.4236
 9360SOL    HW228980   0.955   6.239   5.082 -0.6947 -0.5077 -0.6730
 9361SOL     OW28981   2.727   0.779   2.128  0.3559  0.0111  0.0659
 9361SOL    HW128982   2.705   0.761   2.224 -2.0030 -1.4212 -0.6504
 9361SOL    HW228983   2.681   0.862   2.097  1.3368  0.6251  0.2226
 9362SOL     OW28984   4.041   1.968   3.213  0.0915 -0.1935  0.0024
 9362SOL    HW128985   3.944   1.979   3.191 -0.8492 -4.2968  1.1604
 9362SOL    HW228986   4.052   1.964   3.313  1.4309 -0.0098 -0.1256
 9363SOL     OW28987   3.265   0.188   2.241 -0.1372 -0.2131 -0.0426
 9363SOL    HW128988   3.195   0.132   2.197 -0.2997 -1.3368  1.5411
 9363SOL    HW228989   3.290   0.264   2.181 -3.7350  1.1262 -0.1106
 9364SOL     OW28990   5.109   5.408   1.074 -0.0915  0.4792 -0.8143
 9364SOL    HW128991   5.073   5.435   0.985  1.4749  1.2417 -1.2628
 9364SOL    HW228992   5.116   5.308   1.079 -1.4124  0.3580 -1.0119
 9365SOL     OW28993   2.515   1.765   1.871 -0.0598 -0.7513 -0.1905
 9365SOL    HW128994   2.573   1.821   1.931  0.0226 -0.1040 -0.8479
 9365SOL    HW228995   2.553   1.767   1.778  0.2545 -2.3761 -0.1206
 9366SOL     OW28996   3.397   2.045   1.996 -0.4428  0.0709  0.0407
 9366SOL    HW128997   3.331   2.054   2.071 -1.0308 -0.3266 -0.4157
 9366SOL    HW228998   3.486   2.079   2.026 -0.9582  1.0477  0.5172
 9367SOL     OW28999   0.126   6.921   3.134 -0.0685 -0.1865 -0.2029
 9367SOL    HW129000   0.072   6.974   3.069  1.2153 -0.4026 -1.5138
 9367SOL    HW229001   0.077   6.837   3.159 -0.5935 -0.0851 -0.8861
 9368SOL     OW29002   6.078   4.201   1.248  0.3665  0.4842  0.3652
 9368SOL    HW129003   5.997   4.259   1.258  0.6189  1.0777 -0.8399
 9368SOL    HW229004   6.117   4.213   1.157  0.6355 -1.3450  0.1947
 9369SOL     OW29005   1.377   1.428   5.021 -0.5798 -0.2302 -0.1318
 9369SOL    HW129006   1.376   1.346   5.079  2.1787  0.5000  1.0817
 9369SOL    HW229007   1.314   1.496   5.058 -0.5449 -0.6251  0.6699
 9370SOL     OW29008   6.159   6.119   2.351 -0.2583  0.3354 -0.2172
 9370SOL    HW129009   6.185   6.134   2.446  1.8109 -0.6975 -0.5603
 9370SOL    HW229010   6.233   6.152   2.291 -0.8295 -0.4419 -1.3917
 9371SOL     OW29011   6.879   6.529   1.114  0.1147  0.0033 -0.1471
 9371SOL    HW129012   6.789   6.498   1.143  0.0692  0.9212  0.7613
 9371SOL    HW229013   6.870   6.614   1.063  0.3396 -0.7795 -1.5265
 9372SOL     OW29014   3.772   5.088   6.281 -0.3024  0.3336  0.0460
 9372SOL    HW129015   3.717   5.005   6.279  0.6403 -0.3038 -0.0524
 9372SOL    HW229016   3.869   5.064   6.282 -0.0142  1.4338  0.0738
 9373SOL     OW29017   6.070   1.706   2.753  0.0606 -0.0250 -0.0206
 9373SOL    HW129018   5.997   1.771   2.774 -0.0903 -0.1082 -0.2757
 9373SOL    HW229019   6.047   1.656   2.669  0.3308 -0.1728 -0.0094
 9374SOL     OW29020   6.174   4.216   0.542  0.1105 -0.3419  0.5492
 9374SOL    HW129021   6.111   4.176   0.608 -0.0786 -0.1109  0.5104
 9374SOL    HW229022   6.268   4.212   0.578 -0.0097 -0.0857  0.8919
 9375SOL     OW29023   6.406   1.294   5.170  0.7745 -0.4738  0.1642
 9375SOL    HW129024   6.437   1.240   5.248 -1.9792 -0.8619  1.1079
 9375SOL    HW229025   6.306   1.289   5.163  0.7523  1.2238 -2.1871
 9376SOL     OW29026   1.428   3.134   0.121 -0.0946  0.3681 -0.3427
 9376SOL    HW129027   1.381   3.049   0.097  0.7532 -0.1665 -0.1806
 9376SOL    HW229028   1.506   3.147   0.059  1.2166 -0.2433  1.0894
 9377SOL     OW29029   0.720   4.393   1.764 -0.1533 -0.4825  0.1938
 9377SOL    HW129030   0.815   4.423   1.762 -0.5103  0.7831  1.1294
 9377SOL    HW229031   0.713   4.309   1.819  0.4835 -0.8705 -0.3051
 9378SOL     OW29032   4.754   6.583   2.286 -0.3366 -0.4911  0.2088
 9378SOL    HW129033   4.784   6.652   2.351 -2.4456 -1.7242  2.6442
 9378SOL    HW229034   4.675   6.617   2.235  0.3913 -0.0943 -0.6920
 9379SOL     OW29035   5.728   5.872   0.044  0.2601  0.7319  0.0706
 9379SOL    HW129036   5.767   5.893  -0.046  1.3011 -0.5409  0.2078
 9379SOL    HW229037   5.684   5.782   0.041 -0.4184  1.0340  0.6355
 9380SOL     OW29038   5.685   5.296   5.619  0.2038 -0.1273 -0.4133
 9380SOL    HW129039   5.598   5.246   5.613  0.4983 -0.7324  0.2650
 9380SOL    HW229040   5.689   5.364   5.546 -1.9019  1.5956  0.9201
 9381SOL     OW29041   2.237   0.879   0.675  0.5654 -0.2309 -0.1102
 9381SOL    HW129042   2.285   0.895   0.589 -1.5139  1.9377 -1.0018
 9381SOL    HW229043   2.267   0.946   0.743  1.2174 -1.0467  0.4049
 9382SOL     OW29044   4.498   0.735   1.490  0.3613  0.1494  0.4257
 9382SOL    HW129045   4.499   0.695   1.581  0.4148 -0.9826 -0.0619
 9382SOL    HW229046   4.425   0.693   1.436  0.6352  0.4679 -0.2014
 9383SOL     OW29047   6.734   5.503   5.292  0.3733 -0.0767  0.3023
 9383SOL    HW129048   6.684   5.540   5.213  0.3023 -0.3994  0.1949
 9383SOL    HW229049   6.714   5.558   5.373 -1.4259 -1.1104  0.6168
 9384SOL     OW29050   5.544   0.082   1.854 -0.4921 -0.2230  0.5812
 9384SOL    HW129051   5.543   0.020   1.775 -1.9973 -0.3571  0.6767
 9384SOL    HW229052   5.638   0.093   1.887  0.2854  0.3725 -1.6333
 9385SOL     OW29053   2.046   2.401   3.620  0.0021 -0.3711 -0.0663
 9385SOL    HW129054   2.083   2.491   3.601  0.8186 -0.7071 -0.0825
 9385SOL    HW229055   2.047   2.345   3.537 -0.1216 -0.5265  0.0351
 9386SOL     OW29056   3.026   6.692   4.900 -0.2964 -0.1151  0.2245
 9386SOL    HW129057   2.955   6.712   4.832  0.7607 -0.3945 -1.0094
 9386SOL    HW229058   3.110   6.665   4.853  1.2747  2.1339  1.5442
 9387SOL     OW29059   4.106   5.508   1.102 -0.8082 -0.1198 -0.1116
 9387SOL    HW129060   4.040   5.583   1.107 -2.5784 -1.6534  1.2075
 9387SOL    HW229061   4.131   5.480   1.195  2.4674  0.9620 -0.5486
 9388SOL     OW29062   0.486   5.877   2.476 -0.0629  0.0842 -0.1559
 9388SOL    HW129063   0.508   5.906   2.569  0.0711 -0.5121  0.0046
 9388SOL    HW229064   0.567   5.886   2.418 -0.0455  0.1176 -0.1266
 9389SOL     OW29065   3.694   2.396   5.339 -0.4059  0.1815  0.0312
 9389SOL    HW129066   3.727   2.453   5.414 -1.4174  0.1899  0.4937
 9389SOL    HW229067   3.598   2.372   5.355  0.0675 -1.9361  0.0230
 9390SOL     OW29068   3.089   5.873   2.784 -0.1740  0.8684  0.2519
 9390SOL    HW129069   3.064   5.891   2.689 -3.6158  0.6607  0.9728
 9390SOL    HW229070   3.091   5.774   2.799  0.7084  0.8949  0.3446
 9391SOL     OW29071   4.558   0.469   6.645 -0.0567  0.5157 -0.7767
 9391SOL    HW129072   4.525   0.528   6.718  2.2371  1.9449 -0.7940
 9391SOL    HW229073   4.642   0.423   6.676  0.6944  0.7980 -2.3153
 9392SOL     OW29074   0.900   0.040   5.619  0.0077  0.3117 -0.5688
 9392SOL    HW129075   0.805   0.060   5.646  0.1011  0.6863 -0.5108
 9392SOL    HW229076   0.929   0.107   5.550  1.0925  1.8321  1.2811
 9393SOL     OW29077   1.682   2.585   4.469  0.0713 -0.0305 -0.3896
 9393SOL    HW129078   1.730   2.506   4.507  0.0661 -0.5065 -1.3604
 9393SOL    HW229079   1.609   2.613   4.532  0.1310 -0.7433  0.0001
 9394SOL     OW29080   0.610   1.114   1.140 -0.0814  0.6183  0.0775
 9394SOL    HW129081   0.608   1.214   1.141  1.4334  0.6715  0.6786
 9394SOL    HW229082   0.704   1.082   1.155 -0.6203 -0.9105  0.4453
 9395SOL     OW29083   1.111   1.988   6.087 -0.1369 -0.8234  0.3238
 9395SOL    HW129084   1.018   2.025   6.076  0.6789  1.3626  0.3310
 9395SOL    HW229085   1.176   2.063   6.092  1.7680 -2.3429 -0.5981
 9396SOL     OW29086   6.995   1.332   0.484 -0.1729 -0.2595  0.2671
 9396SOL    HW129087   6.911   1.380   0.509  0.3147  0.6316  0.2819
 9396SOL    HW229088   7.073   1.379   0.526  0.2916 -1.3948  0.7226
 9397SOL     OW29089   1.361   2.520   0.277 -0.3013 -0.2217 -0.2012
 9397SOL    HW129090   1.391   2.501   0.370 -0.7000  1.7341  0.3588
 9397SOL    HW229091   1.270   2.481   0.262 -1.2441  1.4176  1.0193
 9398SOL     OW29092   1.710   1.632   1.038  0.0747  0.5736 -0.3477
 9398SOL    HW129093   1.747   1.646   1.130  1.8639  0.8999 -1.0658
 9398SOL    HW229094   1.739   1.707   0.979 -2.2785  1.1430 -0.8672
 9399SOL     OW29095   6.486   2.471   0.377  0.1381  0.8006 -0.3054
 9399SOL    HW129096   6.564   2.428   0.422  1.0680  3.6919  1.0661
 9399SOL    HW229097   6.464   2.421   0.293  2.3729 -1.0667  0.1175
 9400SOL     OW29098   2.168   2.185   3.404 -0.8754  0.0628  0.1138
 9400SOL    HW129099   2.191   2.088   3.413 -1.6708 -0.3326 -1.6179
 9400SOL    HW229100   2.247   2.241   3.428  0.2362 -1.0824 -0.7470
 9401SOL     OW29101   4.208   0.423   4.138 -0.0164  0.0992 -0.1991
 9401SOL    HW129102   4.271   0.473   4.197 -1.1853 -0.1281  1.2987
 9401SOL    HW229103   4.123   0.476   4.128 -0.3923 -0.5481 -0.4841
 9402SOL     OW29104   1.518   4.449   6.581 -0.0423  0.2270 -0.1398
 9402SOL    HW129105   1.596   4.492   6.627  0.0930 -1.6568  1.5378
 9402SOL    HW229106   1.436   4.458   6.638 -0.1421 -1.1577 -0.0224
 9403SOL     OW29107   5.918   7.010   3.232 -0.1597  0.3826 -0.1755
 9403SOL    HW129108   5.888   7.032   3.140 -2.8731  2.2271  1.0419
 9403SOL    HW229109   5.854   6.946   3.274 -0.0166  1.0122  1.0541
 9404SOL     OW29110   0.667   2.514   4.341  0.8611 -0.0402  0.8515
 9404SOL    HW129111   0.725   2.448   4.294 -0.1075 -0.5247  0.3121
 9404SOL    HW229112   0.589   2.467   4.382  0.2848  0.7213  0.6587
 9405SOL     OW29113   1.632   1.000   1.467  0.6184  0.0095  0.3030
 9405SOL    HW129114   1.642   1.095   1.496 -2.7850  0.2542  1.1626
 9405SOL    HW229115   1.697   0.942   1.516  1.1598  1.5898  1.5246
 9406SOL     OW29116   5.990   0.113   5.616 -0.4877 -0.6621  0.3432
 9406SOL    HW129117   5.984   0.014   5.625  2.5752 -1.0143 -0.3427
 9406SOL    HW229118   6.002   0.138   5.520  0.8309  0.1408  0.6799
 9407SOL     OW29119   4.063   5.800   3.639  0.1660  0.1203  0.4497
 9407SOL    HW129120   4.075   5.750   3.553 -1.1017  0.0313  0.3012
 9407SOL    HW229121   3.967   5.824   3.649  0.5681  1.5018  1.1011
 9408SOL     OW29122   1.077   1.453   0.215 -0.2861 -0.8371 -0.4301
 9408SOL    HW129123   1.004   1.458   0.284 -0.5239  0.8010 -0.7688
 9408SOL    HW229124   1.040   1.475   0.125 -0.1287 -3.6172 -1.2847
 9409SOL     OW29125   5.504   2.753   3.030  0.8083  0.6180 -1.2982
 9409SOL    HW129126   5.477   2.660   3.053 -0.5412  1.3482  0.3215
 9409SOL    HW229127   5.570   2.786   3.097 -0.7027  1.6738 -0.2605
 9410SOL     OW29128   3.699   0.244   2.316  0.0861  0.3154  0.2385
 9410SOL    HW129129   3.655   0.324   2.356  0.1444  1.7023 -2.2355
 9410SOL    HW229130   3.629   0.183   2.277  0.0811 -0.5494  1.5445
 9411SOL     OW29131   4.400   6.657   2.528  0.1852 -0.8885 -0.0075
 9411SOL    HW129132   4.464   6.611   2.590  1.0571 -0.9428 -0.9198
 9411SOL    HW229133   4.439   6.744   2.499 -1.0732  0.0590  1.0163
 9412SOL     OW29134   6.532   2.591   2.571  0.3958 -0.3621 -0.2626
 9412SOL    HW129135   6.494   2.662   2.512 -1.9615  0.2255  1.7994
 9412SOL    HW229136   6.461   2.556   2.633  2.0563 -2.8702  0.4212
 9413SOL     OW29137   4.772   6.726   4.259  0.1461 -0.5670 -0.5222
 9413SOL    HW129138   4.709   6.761   4.189 -0.4989  0.4350  0.5190
 9413SOL    HW229139   4.759   6.628   4.270 -2.1038 -0.2147  0.4687
 9414SOL     OW29140   2.922   1.365   3.402 -0.3414  0.0515 -0.5845
 9414SOL    HW129141   2.916   1.352   3.303  1.5536 -0.9704 -0.5963
 9414SOL    HW229142   2.924   1.463   3.422 -1.5032  0.2919 -1.4636
 9415SOL     OW29143   3.296   2.099   2.431 -0.3592 -0.1780 -0.4209
 9415SOL    HW129144   3.394   2.081   2.438 -0.1823 -1.0433 -3.4796
 9415SOL    HW229145   3.280   2.195   2.411 -0.1966  0.0664  0.5882
 9416SOL     OW29146   1.202   2.213   2.014 -0.0027 -0.0586 -0.3017
 9416SOL    HW129147   1.208   2.129   1.961 -0.9267 -0.3371  0.0127
 9416SOL    HW229148   1.167   2.287   1.956 -0.4961 -0.2281 -0.2185
 9417SOL     OW29149   2.536   5.725   3.013  1.0004  0.0762  0.3693
 9417SOL    HW129150   2.614   5.766   2.965 -0.0478  1.3878 -0.3009
 9417SOL    HW229151   2.568   5.655   3.076  2.6423  0.0420 -0.4582
 9418SOL     OW29152   3.123   2.725   6.439 -0.4850  0.2920 -0.0258
 9418SOL    HW129153   3.145   2.693   6.530  0.3700  1.0091  0.0362
 9418SOL    HW229154   3.198   2.703   6.376 -0.0776  1.6783 -0.0796
 9419SOL     OW29155   1.666   5.552   1.452  0.5546  0.0328  0.2866
 9419SOL    HW129156   1.690   5.466   1.497 -0.7483 -0.7629 -0.4575
 9419SOL    HW229157   1.705   5.553   1.360 -1.0423 -0.6916 -0.4444
 9420SOL     OW29158   2.885   0.933   4.192 -0.0761 -0.4030 -0.3761
 9420SOL    HW129159   2.892   1.023   4.150 -0.0721 -0.9703 -1.6665
 9420SOL    HW229160   2.905   0.939   4.290  0.1140  0.9491 -0.4841
 9421SOL     OW29161   2.587   5.385   4.860 -0.6913  0.5379 -0.0888
 9421SOL    HW129162   2.603   5.349   4.769 -0.7535  0.1379  0.0576
 9421SOL    HW229163   2.495   5.360   4.891  0.2916 -1.7275  1.1846
 9422SOL     OW29164   5.078   1.125   1.564 -0.7898 -0.1199 -0.1727
 9422SOL    HW129165   5.126   1.213   1.567 -0.0648 -0.5263  1.5797
 9422SOL    HW229166   5.133   1.059   1.514 -0.1116 -0.2396  0.7137
 9423SOL     OW29167   3.686   0.490   5.190  0.6360 -0.0777  0.1533
 9423SOL    HW129168   3.647   0.465   5.279  1.7313 -0.4560  0.5404
 9423SOL    HW229169   3.663   0.420   5.123  0.5849 -0.2572  0.3576
 9424SOL     OW29170   3.087   5.676   4.743 -0.3203 -0.3113  0.0318
 9424SOL    HW129171   3.097   5.579   4.720  0.8909  0.3379 -2.5532
 9424SOL    HW229172   3.142   5.697   4.824 -0.0749 -1.6357  0.2359
 9425SOL     OW29173   2.134   6.333   3.606 -0.2191 -0.5028 -0.3508
 9425SOL    HW129174   2.155   6.369   3.515  1.3465  0.0307  0.1778
 9425SOL    HW229175   2.175   6.242   3.616 -2.6734 -1.7569 -1.0721
 9426SOL     OW29176   4.028   6.589   2.752 -0.0539 -0.3352 -0.3077
 9426SOL    HW129177   4.064   6.635   2.670  0.1468 -0.3224 -0.2136
 9426SOL    HW229178   4.072   6.500   2.762 -0.8233 -0.7720 -0.7778
 9427SOL     OW29179   2.919   5.955   1.446  0.1931 -0.0053  0.3505
 9427SOL    HW129180   2.984   5.999   1.384 -0.5371 -0.6875 -0.9436
 9427SOL    HW229181   2.965   5.883   1.498  1.1239  1.4304  1.6327
 9428SOL     OW29182   5.677   5.754   1.694 -0.4212  0.2195 -0.2561
 9428SOL    HW129183   5.586   5.751   1.652 -0.4880 -1.7857 -0.0310
 9428SOL    HW229184   5.746   5.728   1.627 -0.0988  0.7635 -0.1469
 9429SOL     OW29185   1.796   2.844   2.743  0.1972  0.1643 -0.0677
 9429SOL    HW129186   1.803   2.821   2.840  0.9894 -2.5154 -0.6806
 9429SOL    HW229187   1.707   2.884   2.725  0.4095  1.7237  1.9004
 9430SOL     OW29188   6.712   7.023   2.744  0.6026  0.4324 -0.0692
 9430SOL    HW129189   6.614   7.004   2.738  0.1914  2.4995 -0.8989
 9430SOL    HW229190   6.726   7.114   2.784  2.1110  0.7354 -1.1884
 9431SOL     OW29191   6.491   4.452   2.186 -0.4400 -0.6441  0.3184
 9431SOL    HW129192   6.432   4.419   2.113  0.2208 -2.5219  0.5756
 9431SOL    HW229193   6.459   4.418   2.274 -0.6512  0.7743  0.8201
 9432SOL     OW29194   6.933   0.406   4.894 -0.3114  0.5888 -0.1620
 9432SOL    HW129195   7.024   0.378   4.925 -1.0947 -1.0480  0.7884
 9432SOL    HW229196   6.930   0.404   4.794  1.5564  3.6715 -0.4187
 9433SOL     OW29197   2.806   5.628   2.788  0.5791 -0.7080  0.0894
 9433SOL    HW129198   2.771   5.718   2.815  1.0909 -0.2195 -0.8390
 9433SOL    HW229199   2.887   5.639   2.731  0.5134 -1.7580 -0.2337
 9434SOL     OW29200   5.078   4.016   3.752  0.4288  0.1265  0.0961
 9434SOL    HW129201   5.065   3.979   3.660  0.2632  1.0535 -0.2659
 9434SOL    HW229202   5.024   4.099   3.762  1.8974  1.0786  0.4000
 9435SOL     OW29203   1.714   2.460   1.400 -0.3437  1.0082  0.1348
 9435SOL    HW129204   1.739   2.422   1.311  0.6170 -0.3820  0.9621
 9435SOL    HW229205   1.621   2.497   1.396 -0.3951  0.7659 -1.3674
 9436SOL     OW29206   2.685   1.317   4.293 -0.5170  0.0155 -0.0921
 9436SOL    HW129207   2.636   1.250   4.349 -1.4338  0.4200 -0.3785
 9436SOL    HW229208   2.699   1.401   4.345 -2.6592  0.9242 -0.8713
 9437SOL     OW29209   0.318   5.296   3.872  0.0522  0.0632 -0.3575
 9437SOL    HW129210   0.341   5.317   3.968 -1.0072  0.7861 -0.2485
 9437SOL    HW229211   0.345   5.374   3.815 -0.8942  0.3724 -0.3999
 9438SOL     OW29212   2.686   5.193   3.822  0.2518 -0.4867 -0.3156
 9438SOL    HW129213   2.771   5.168   3.776  1.2095  1.1291  0.4843
 9438SOL    HW229214   2.707   5.245   3.905 -1.4939 -1.2033  0.6264
 9439SOL     OW29215   1.967   2.835   6.182  0.2410 -0.4747  0.4106
 9439SOL    HW129216   1.910   2.873   6.108  1.2002 -0.1547 -0.1743
 9439SOL    HW229217   1.992   2.908   6.245  0.3791 -0.5300  0.4185
 9440SOL     OW29218   3.885   6.900   3.903  0.7716  0.2605  0.2535
 9440SOL    HW129219   3.815   6.958   3.945 -1.5312 -2.0760 -0.0815
 9440SOL    HW229220   3.889   6.918   3.805  1.1660  0.8954  0.3841
 9441SOL     OW29221   1.779   5.952   6.296  0.3799  0.0432  0.1709
 9441SOL    HW129222   1.744   6.041   6.325 -0.8075  0.3039 -1.8707
 9441SOL    HW229223   1.853   5.965   6.230 -0.7334 -0.4215 -1.2133
 9442SOL     OW29224   2.466   3.980   6.934  0.4280  0.0872  0.7335
 9442SOL    HW129225   2.449   4.015   6.842  0.5332  1.4177  1.1919
 9442SOL    HW229226   2.386   3.997   6.992 -0.7726 -3.1961  0.2656
 9443SOL     OW29227   2.049   4.851   1.648 -0.2537  0.1340  0.2291
 9443SOL    HW129228   1.966   4.856   1.592 -0.3045  1.4551  0.3848
 9443SOL    HW229229   2.103   4.772   1.621  0.0299  1.0348 -2.1290
 9444SOL     OW29230   2.169   1.631   5.177  0.3611  0.2304  0.2827
 9444SOL    HW129231   2.177   1.614   5.079  0.3322  1.5927  0.0335
 9444SOL    HW229232   2.096   1.573   5.215 -0.7089  0.8123 -0.8025
 9445SOL     OW29233   6.424   3.393   1.240 -0.2310 -0.4488  0.1980
 9445SOL    HW129234   6.361   3.389   1.318 -0.0788 -0.5805  0.3139
 9445SOL    HW229235   6.481   3.475   1.247 -0.7950 -0.0146 -0.2199
 9446SOL     OW29236   5.326   3.703   6.181  0.0447  0.3622 -0.3941
 9446SOL    HW129237   5.236   3.670   6.155  0.1923 -0.5602  0.2255
 9446SOL    HW229238   5.322   3.743   6.273  0.0070  1.5210 -0.8739
 9447SOL     OW29239   5.965   2.317   2.320 -0.1598 -0.0193  0.4686
 9447SOL    HW129240   5.925   2.263   2.246  0.1197  1.6655 -0.9713
 9447SOL    HW229241   6.022   2.257   2.378  2.6239 -0.8533 -2.7857
 9448SOL     OW29242   4.866   5.991   0.920 -0.3424  0.0554 -0.3068
 9448SOL    HW129243   4.955   5.960   0.954 -0.0971  1.1814  0.1124
 9448SOL    HW229244   4.799   5.986   0.994 -0.3735  0.2268 -0.3233
 9449SOL     OW29245   7.001   6.429   5.904 -0.1328 -0.3500  0.7673
 9449SOL    HW129246   7.033   6.513   5.859 -1.2426  0.2035  0.9732
 9449SOL    HW229247   6.998   6.354   5.837 -1.6663  0.4372 -0.1135
 9450SOL     OW29248   3.870   6.562   3.481 -0.1498 -0.0316 -0.2997
 9450SOL    HW129249   3.842   6.652   3.448  1.0636  0.4570 -0.0455
 9450SOL    HW229250   3.876   6.498   3.404 -0.4900  0.2493 -0.5595
 9451SOL     OW29251   2.951   3.525   3.965 -0.3032  0.7205  0.3323
 9451SOL    HW129252   2.940   3.617   3.927 -0.7832  0.6505  0.2945
 9451SOL    HW229253   2.987   3.531   4.058  0.9418  0.8919 -0.1459
 9452SOL     OW29254   3.289   3.881   0.132 -0.3475 -0.0742 -0.4594
 9452SOL    HW129255   3.348   3.846   0.060 -1.5628 -3.4637 -0.0041
 9452SOL    HW229256   3.338   3.879   0.219 -0.6698 -1.7679 -0.2761
 9453SOL     OW29257   3.958   4.342   0.383  0.3535 -0.0078  0.3985
 9453SOL    HW129258   3.924   4.395   0.460  1.6446 -0.5817  1.4027
 9453SOL    HW229259   4.046   4.302   0.407 -0.6165 -2.7137 -0.2707
 9454SOL     OW29260   2.906   3.268   6.799 -0.3119 -0.3184  0.3070
 9454SOL    HW129261   2.836   3.228   6.860  1.9977 -2.2447  1.8885
 9454SOL    HW229262   2.934   3.199   6.732 -0.6744  0.8275 -1.0817
 9455SOL     OW29263   3.196   1.619   5.876  0.3074  0.3995  0.0591
 9455SOL    HW129264   3.281   1.624   5.930 -0.9174 -0.4262  2.2300
 9455SOL    HW229265   3.187   1.700   5.819  1.2906  1.8184  1.8037
 9456SOL     OW29266   6.645   3.464   0.501  0.6486 -0.1918  0.1304
 9456SOL    HW129267   6.546   3.453   0.500  0.5430  0.7315 -0.2158
 9456SOL    HW229268   6.686   3.388   0.551 -0.4086  0.7290  2.5522
 9457SOL     OW29269   0.181   3.440   6.930 -0.4102  0.1245  0.5102
 9457SOL    HW129270   0.265   3.387   6.919 -0.4853 -0.2418  1.5858
 9457SOL    HW229271   0.120   3.423   6.852 -0.2526 -1.0462  0.6226
 9458SOL     OW29272   0.981   6.849   4.686  0.2015  0.7962 -0.2153
 9458SOL    HW129273   0.926   6.792   4.625 -0.1690 -0.5493  1.2986
 9458SOL    HW229274   1.028   6.919   4.633  0.8701 -1.0438 -2.2238
 9459SOL     OW29275   5.362   6.501   2.148 -0.3015  0.3469 -0.3177
 9459SOL    HW129276   5.333   6.593   2.121 -2.8092  0.1955  1.4642
 9459SOL    HW229277   5.351   6.491   2.247  0.2934 -1.7553 -0.4244
 9460SOL     OW29278   0.718   3.576   5.587  0.5049 -0.5619  0.3333
 9460SOL    HW129279   0.816   3.578   5.602  0.7240 -1.6855 -0.7744
 9460SOL    HW229280   0.676   3.658   5.626  1.8127 -0.2855  1.1990
 9461SOL     OW29281   2.317   6.778   4.233  0.6764 -0.7724  0.0773
 9461SOL    HW129282   2.278   6.687   4.245  1.2900 -0.9927  0.4594
 9461SOL    HW229283   2.268   6.826   4.160 -0.9079 -0.6695  1.1818
 9462SOL     OW29284   5.594   3.183   3.466 -0.1537 -0.5745  0.0949
 9462SOL    HW129285   5.505   3.155   3.429 -0.5423 -1.1326  1.3758
 9462SOL    HW229286   5.629   3.110   3.526 -0.0884  0.7132  1.6928
 9463SOL     OW29287   6.666   2.076   1.018  0.5811  0.0122 -0.8686
 9463SOL    HW129288   6.736   2.079   1.089  0.7787  2.0261 -1.1048
 9463SOL    HW229289   6.585   2.030   1.053  1.5963 -1.4093 -0.2457
 9464SOL     OW29290   4.484   5.339   6.224 -0.7478  0.1067  0.5191
 9464SOL    HW129291   4.426   5.371   6.149 -0.2183 -0.9005 -0.3477
 9464SOL    HW229292   4.527   5.417   6.269 -1.7268  0.7810  0.3325
 9465SOL     OW29293   5.163   5.995   3.966  0.3902 -0.8165  0.1464
 9465SOL    HW129294   5.081   6.050   3.980  1.0289  0.1628  0.1791
 9465SOL    HW229295   5.144   5.900   3.989 -0.4518 -0.4305  1.1291
 9466SOL     OW29296   3.389   1.212   0.239 -0.3936  0.0286 -0.1653
 9466SOL    HW129297   3.452   1.221   0.162 -2.7810 -1.2563 -2.4102
 9466SOL    HW229298   3.396   1.121   0.278 -0.8132 -0.1104 -0.4049
 9467SOL     OW29299   1.255   1.037   2.365  0.6726 -0.0006 -0.0429
 9467SOL    HW129300   1.263   1.102   2.290  0.2733  1.3315  1.0193
 9467SOL    HW229301   1.342   1.033   2.416  0.0138  1.5199  1.2853
 9468SOL     OW29302   6.111   2.483   5.598 -0.1694 -0.0289 -0.1552
 9468SOL    HW129303   6.039   2.415   5.604 -0.1820  0.0109  0.1433
 9468SOL    HW229304   6.091   2.559   5.660 -1.0413  1.0750 -1.6868
 9469SOL     OW29305   6.828   4.681   3.366 -0.1865  0.6264 -0.0007
 9469SOL    HW129306   6.833   4.670   3.267 -0.4810  0.7575 -0.0304
 9469SOL    HW229307   6.913   4.724   3.399  0.1758  0.0117 -0.1145
 9470SOL     OW29308   6.047   3.850   0.762 -0.1716 -0.5619  0.5001
 9470SOL    HW129309   6.025   3.938   0.720 -0.3864 -1.5919 -1.6766
 9470SOL    HW229310   6.146   3.836   0.761 -0.2105 -0.8115 -0.1800
 9471SOL     OW29311   5.531   2.200   6.651 -0.4093 -0.1549  0.4521
 9471SOL    HW129312   5.608   2.184   6.588 -0.9745  2.0336 -0.9363
 9471SOL    HW229313   5.554   2.274   6.714 -1.6890  1.3042 -0.7038
 9472SOL     OW29314   6.750   2.390   5.399  0.0051  0.1301  0.5634
 9472SOL    HW129315   6.776   2.481   5.432 -0.9614  0.4984  0.3421
 9472SOL    HW229316   6.819   2.324   5.427  1.0757  1.0422  0.1352
 9473SOL     OW29317   2.568   4.493   5.185 -0.5600 -0.2039  0.1686
 9473SOL    HW129318   2.521   4.439   5.255 -2.0583  1.4072  0.4640
 9473SOL    HW229319   2.614   4.571   5.228  1.0538 -0.8187 -0.3341
 9474SOL     OW29320   2.825   5.403   3.336  0.5089 -0.1520 -0.0559
 9474SOL    HW129321   2.795   5.383   3.429  0.9649 -0.5624  0.0046
 9474SOL    HW229322   2.902   5.467   3.340  2.0830 -1.9674 -0.0168
 9475SOL     OW29323   1.464   4.038   0.370  0.3146 -0.1439  0.2959
 9475SOL    HW129324   1.418   4.046   0.458  0.2154 -1.6300  0.4056
 9475SOL    HW229325   1.541   3.975   0.379  0.6398  0.1227 -0.5530
 9476SOL     OW29326   2.935   3.621   5.003 -0.2635 -0.0860 -0.1444
 9476SOL    HW129327   2.906   3.539   4.954 -1.5421  1.2484 -1.7166
 9476SOL    HW229328   2.938   3.698   4.940 -0.5881  1.4116  1.5991
 9477SOL     OW29329   0.868   2.279   6.983 -0.0509 -0.5881 -0.5352
 9477SOL    HW129330   0.810   2.350   6.943  2.4502  2.4644  0.9447
 9477SOL    HW229331   0.853   2.275   7.081  2.7267  0.9412  0.0507
 9478SOL     OW29332   5.879   3.608   4.713 -0.3770  0.1098  0.5170
 9478SOL    HW129333   5.956   3.642   4.767 -2.0278 -0.3924  3.4362
 9478SOL    HW229334   5.875   3.509   4.719 -0.9579  0.0916 -0.0350
 9479SOL     OW29335   5.072   6.795   4.460  0.1952 -0.0910  0.1199
 9479SOL    HW129336   5.151   6.835   4.506 -0.2298  0.7130  0.1521
 9479SOL    HW229337   4.988   6.825   4.504 -0.1609 -0.3319 -0.3871
 9480SOL     OW29338   5.855   3.013   6.894  0.1994  0.4076  0.2549
 9480SOL    HW129339   5.948   3.013   6.860  0.6239  1.1178  1.3416
 9480SOL    HW229340   5.806   3.093   6.858 -0.5718 -0.8940 -1.7282
 9481SOL     OW29341   6.563   3.299   4.944 -0.1997  0.7042  0.0588
 9481SOL    HW129342   6.660   3.286   4.922 -0.6146  0.1728 -1.5280
 9481SOL    HW229343   6.542   3.397   4.943  0.2417  0.8012  0.0718
 9482SOL     OW29344   5.408   0.830   2.008  0.4598  0.7000 -0.2170
 9482SOL    HW129345   5.508   0.839   2.007  0.5720 -0.4073 -0.9360
 9482SOL    HW229346   5.367   0.904   1.955  0.9392  0.7698 -0.4954
 9483SOL     OW29347   2.057   3.301   6.066  0.1076 -0.5045 -0.2472
 9483SOL    HW129348   1.993   3.378   6.061  0.2586 -0.4249 -1.2365
 9483SOL    HW229349   2.123   3.317   6.139 -0.3426 -0.0808  0.0806
 9484SOL     OW29350   4.701   2.698   2.397  0.3473 -0.3433 -0.1602
 9484SOL    HW129351   4.765   2.772   2.373  1.8330 -1.9786 -1.5532
 9484SOL    HW229352   4.707   2.626   2.328 -1.2276 -1.6789  1.0314
 9485SOL     OW29353   1.677   2.320   2.842  0.1286  0.6980  0.5281
 9485SOL    HW129354   1.625   2.401   2.869  1.6851  1.4795  1.2905
 9485SOL    HW229355   1.755   2.308   2.903  0.3212 -1.0060  0.0122
 9486SOL     OW29356   3.875   6.708   2.003  0.3251  0.3480  0.1681
 9486SOL    HW129357   3.905   6.614   1.989 -0.6071 -0.1751  1.5573
 9486SOL    HW229358   3.934   6.770   1.951  1.0011 -0.9865 -0.6836
 9487SOL     OW29359   3.562   3.187   4.806  0.2137 -0.0744  0.1512
 9487SOL    HW129360   3.575   3.106   4.748  1.2502 -0.3447  0.7227
 9487SOL    HW229361   3.585   3.269   4.754 -0.7682 -0.1371 -0.4083
 9488SOL     OW29362   0.390   2.137   1.858  0.1675 -0.3741 -0.3592
 9488SOL    HW129363   0.417   2.146   1.762  0.1575 -3.5684 -0.7726
 9488SOL    HW229364   0.397   2.042   1.886 -0.6321  0.3238  2.6247
 9489SOL     OW29365   3.614   6.661   0.060  0.1952  0.2567 -0.0938
 9489SOL    HW129366   3.566   6.578   0.090 -0.0685  0.3160 -0.3379
 9489SOL    HW229367   3.548   6.736   0.056  0.6104  0.6923  0.9738
 9490SOL     OW29368   4.212   1.495   0.683  0.0481 -0.1113 -0.5048
 9490SOL    HW129369   4.169   1.570   0.733 -0.1512 -0.4750 -0.1159
 9490SOL    HW229370   4.231   1.420   0.746  3.2589  0.8217 -0.1887
 9491SOL     OW29371   0.353   4.698   5.928 -0.8793  0.2035  0.5963
 9491SOL    HW129372   0.292   4.730   5.856  0.1442 -2.7286 -1.7736
 9491SOL    HW229373   0.446   4.730   5.910 -0.6814 -0.2237  0.8420
 9492SOL     OW29374   2.325   3.377   1.330 -0.5828 -0.2968  0.5413
 9492SOL    HW129375   2.300   3.351   1.237 -1.7178  0.6693  0.5435
 9492SOL    HW229376   2.244   3.413   1.377  0.3481  0.9053  1.3049
 9493SOL     OW29377   6.332   0.433   2.739  0.2711 -0.4495  0.1060
 9493SOL    HW129378   6.305   0.339   2.717  0.3853 -1.1450  2.5738
 9493SOL    HW229379   6.285   0.462   2.822  0.9245  1.3635 -0.1224
 9494SOL     OW29380   3.672   3.350   6.226  0.1702 -0.0866 -0.5263
 9494SOL    HW129381   3.641   3.393   6.311 -0.9875 -2.8658  0.6018
 9494SOL    HW229382   3.633   3.399   6.148  0.6775  2.1135  0.5164
 9495SOL     OW29383   0.421   2.963   3.064 -0.0215 -0.2956  0.0472
 9495SOL    HW129384   0.439   2.869   3.037 -0.3288 -0.0649 -0.9768
 9495SOL    HW229385   0.342   2.998   3.015 -0.8149  0.0358  1.4930
 9496SOL     OW29386   5.308   3.938   1.745 -0.0250  0.1871  0.2440
 9496SOL    HW129387   5.262   3.851   1.725 -0.9622  0.8839 -0.6798
 9496SOL    HW229388   5.253   3.991   1.809 -0.2807  0.8168 -0.4885
 9497SOL     OW29389   6.841   0.139   6.047 -0.1336 -0.3725 -0.1241
 9497SOL    HW129390   6.894   0.224   6.059  0.9425 -0.8120 -1.5218
 9497SOL    HW229391   6.827   0.096   6.137 -1.2501  1.5639  0.7071
 9498SOL     OW29392   2.261   1.082   6.147  0.0881 -0.3157 -0.1810
 9498SOL    HW129393   2.182   1.143   6.139 -0.8674 -1.3633  0.9885
 9498SOL    HW229394   2.250   1.005   6.084  0.2484 -0.4044 -0.0988
 9499SOL     OW29395   4.303   4.040   6.214  0.0142 -0.2990 -0.2002
 9499SOL    HW129396   4.209   4.056   6.182  0.8230  0.2994 -2.5046
 9499SOL    HW229397   4.331   3.947   6.192  0.4674  0.0151 -1.0133
 9500SOL     OW29398   5.919   4.457   1.400  0.0644 -0.1837  0.0117
 9500SOL    HW129399   6.002   4.403   1.412  0.1206 -0.4268 -1.3378
 9500SOL    HW229400   5.872   4.465   1.488  0.4813 -1.7200  0.4117
 9501SOL     OW29401   3.134   1.347   3.056  0.1164  0.3385  0.7793
 9501SOL    HW129402   3.080   1.410   3.113 -3.2059  0.9692 -2.6037
 9501SOL    HW229403   3.221   1.390   3.033 -0.8692  2.5398  0.8429
 9502SOL     OW29404   5.094   3.769   4.667  0.5816  0.0087 -0.3861
 9502SOL    HW129405   5.105   3.867   4.653  2.6080 -0.3864 -1.9572
 9502SOL    HW229406   5.128   3.744   4.757  1.9214  0.4946 -0.7424
 9503SOL     OW29407   2.770   5.327   1.568  0.2140  0.1555  0.3169
 9503SOL    HW129408   2.775   5.362   1.662  0.1476 -0.4391  0.5455
 9503SOL    HW229409   2.851   5.272   1.549  0.8063  1.2435 -0.3804
 9504SOL     OW29410   4.587   3.108   0.922 -0.2273 -0.2592  0.5455
 9504SOL    HW129411   4.540   3.030   0.880 -0.8614  0.3487  0.1007
 9504SOL    HW229412   4.684   3.088   0.930  0.0122 -0.2114 -1.7066
 9505SOL     OW29413   5.694   5.208   3.377  0.0456 -0.1500 -0.8059
 9505SOL    HW129414   5.767   5.171   3.435 -0.1694  0.6225 -0.0322
 9505SOL    HW229415   5.732   5.237   3.289  0.8460  1.1260 -0.0546
 9506SOL     OW29416   1.502   3.270   1.443  0.0383 -0.0142 -0.1127
 9506SOL    HW129417   1.552   3.200   1.393 -0.7889  0.8657 -2.2592
 9506SOL    HW229418   1.566   3.339   1.477  0.5633 -0.4268 -0.2443
 9507SOL     OW29419   1.053   1.440   4.457  0.5414  0.2509  0.6576
 9507SOL    HW129420   1.152   1.444   4.465  0.6000 -0.8945  0.6794
 9507SOL    HW229421   1.015   1.390   4.535 -0.1010  1.0739  0.8928
 9508SOL     OW29422   5.427   0.774   6.423 -0.4433  0.3310 -0.4613
 9508SOL    HW129423   5.346   0.761   6.366 -1.1407  2.3778 -0.0162
 9508SOL    HW229424   5.412   0.733   6.513 -1.0892  0.8603 -0.3189
 9509SOL     OW29425   3.161   6.332   6.019  0.5398 -0.4355 -0.5101
 9509SOL    HW129426   3.163   6.376   6.109  1.6909 -1.3651 -0.0548
 9509SOL    HW229427   3.098   6.382   5.959 -0.7051 -0.1415  0.9695
 9510SOL     OW29428   0.291   4.111   2.107  0.0059 -0.6780  0.4927
 9510SOL    HW129429   0.219   4.154   2.163 -0.3502 -1.3342  0.5522
 9510SOL    HW229430   0.297   4.158   2.019 -1.0845 -1.1278  0.1553
 9511SOL     OW29431   1.698   3.203   0.580 -0.3650  0.2297  0.0028
 9511SOL    HW129432   1.677   3.283   0.523 -0.6059  0.1120 -0.0766
 9511SOL    HW229433   1.740   3.132   0.524  0.8532  0.7081  0.2912
 9512SOL     OW29434   0.037   2.657   4.498 -0.6008 -0.4105 -0.2071
 9512SOL    HW129435  -0.030   2.708   4.443  0.6369  0.6111 -0.8057
 9512SOL    HW229436   0.113   2.629   4.440 -1.6616 -3.9071 -0.1735
 9513SOL     OW29437   1.976   5.478   5.546  0.3837 -0.2689  0.4675
 9513SOL    HW129438   1.989   5.397   5.603 -1.4032 -0.2875  0.8988
 9513SOL    HW229439   2.004   5.560   5.596  0.1449 -0.4192  0.8504
 9514SOL     OW29440   1.453   1.978   5.941  0.3969  0.0336 -0.1621
 9514SOL    HW129441   1.450   1.918   6.021  0.0660  0.5769  0.2441
 9514SOL    HW229442   1.543   2.021   5.935  0.6844 -0.6079 -0.5398
 9515SOL     OW29443   2.320   4.855   4.243  0.1440  0.1802 -0.1623
 9515SOL    HW129444   2.318   4.890   4.336 -1.8280 -1.2679  0.4083
 9515SOL    HW229445   2.316   4.932   4.178 -1.4208  1.1422  0.9992
 9516SOL     OW29446   5.489   6.974   5.865  0.1985 -0.4583  0.1861
 9516SOL    HW129447   5.505   7.072   5.873 -0.9141 -0.1486 -1.0637
 9516SOL    HW229448   5.402   6.951   5.909  0.7327 -0.9917  0.9803
 9517SOL     OW29449   0.971   4.570   4.077 -0.1603  0.3240 -0.2152
 9517SOL    HW129450   1.011   4.594   3.988  0.6545  1.1781  0.3612
 9517SOL    HW229451   0.919   4.485   4.068  1.0014 -0.3225 -1.2223
 9518SOL     OW29452   0.802   2.946   4.485 -0.0712 -0.2168  0.4643
 9518SOL    HW129453   0.740   3.018   4.456  0.0050  0.5033  1.9790
 9518SOL    HW229454   0.807   2.945   4.585  1.8379 -0.6729  0.4060
 9519SOL     OW29455   4.101   3.727   3.173  0.2068  0.4077 -0.2324
 9519SOL    HW129456   4.150   3.694   3.092  1.1749  0.5043  0.3067
 9519SOL    HW229457   4.066   3.819   3.155  0.6467  0.5361 -0.4522
 9520SOL     OW29458   3.712   6.697   6.442 -0.1477  0.3821 -0.0547
 9520SOL    HW129459   3.702   6.777   6.500  0.0171  0.2550  0.1491
 9520SOL    HW229460   3.704   6.614   6.497 -0.3356  0.2560 -0.2659
 9521SOL     OW29461   2.742   0.075   0.412  0.2319 -0.2945 -0.0372
 9521SOL    HW129462   2.737  -0.009   0.467  0.2577 -0.3879 -0.1765
 9521SOL    HW229463   2.788   0.147   0.464 -0.3227 -0.1871  0.3134
 9522SOL     OW29464   5.383   6.944   2.537 -0.0154 -0.1297 -0.6050
 9522SOL    HW129465   5.349   6.863   2.489  1.8455 -1.5909  0.4133
 9522SOL    HW229466   5.419   7.010   2.470 -0.9383 -0.4048 -1.4007
 9523SOL     OW29467   0.190   4.352   5.849 -0.3693  0.1089 -0.0303
 9523SOL    HW129468   0.095   4.321   5.858 -0.2109 -1.0312 -1.7354
 9523SOL    HW229469   0.246   4.312   5.921 -0.9420 -0.3013  0.1914
 9524SOL     OW29470   2.565   4.861   0.170  0.1244  0.0758 -0.5530
 9524SOL    HW129471   2.532   4.834   0.080 -0.3566 -1.5334  0.0649
 9524SOL    HW229472   2.664   4.853   0.173  0.2733  1.3984 -1.3130
 9525SOL     OW29473   2.157   2.993   0.268 -0.5706 -0.1697  0.1272
 9525SOL    HW129474   2.218   2.931   0.317 -0.2661 -0.0847 -0.1432
 9525SOL    HW229475   2.121   3.061   0.332  0.4956  0.4614  0.0764
 9526SOL     OW29476   5.229   5.233   1.433 -0.1298 -0.6622 -0.4256
 9526SOL    HW129477   5.317   5.276   1.418 -0.0942 -0.6643 -0.2249
 9526SOL    HW229478   5.178   5.283   1.504  0.0841 -1.1906  0.1077
 9527SOL     OW29479   5.257   6.409   2.673 -0.3951  0.0566 -0.3875
 9527SOL    HW129480   5.333   6.353   2.706  0.1850  1.0036 -0.0646
 9527SOL    HW229481   5.174   6.354   2.669  0.1371 -0.7939  0.0042
 9528SOL     OW29482   4.648   0.707   2.520 -0.4035 -0.5557 -0.5185
 9528SOL    HW129483   4.599   0.792   2.501 -0.8630 -0.8695 -0.7418
 9528SOL    HW229484   4.648   0.689   2.618 -0.7690 -0.5735 -0.5216
 9529SOL     OW29485   4.707   2.669   0.761  0.0724  0.9877 -0.6092
 9529SOL    HW129486   4.708   2.633   0.855  1.1288  0.3165 -0.8582
 9529SOL    HW229487   4.780   2.736   0.750  0.2322  0.7385 -1.0715
 9530SOL     OW29488   0.957   2.515   3.181  0.0566 -0.2845  0.0033
 9530SOL    HW129489   0.886   2.516   3.251 -1.2989  0.1195 -1.3364
 9530SOL    HW229490   0.932   2.576   3.106  2.3294  0.7112 -0.0445
 9531SOL     OW29491   3.069   5.137   0.001 -0.0287 -0.0709  0.0352
 9531SOL    HW129492   3.092   5.139  -0.096  0.0515  1.3595  0.0611
 9531SOL    HW229493   3.053   5.231   0.033  0.1546 -0.5015  1.4473
 9532SOL     OW29494   4.795   3.989   3.283  0.2266  0.1157  0.5968
 9532SOL    HW129495   4.806   3.891   3.299  1.7682 -0.1609 -1.6707
 9532SOL    HW229496   4.796   4.007   3.185  0.1451  2.4409  0.9605
 9533SOL     OW29497   0.753   3.750   3.309 -0.5931 -0.6597 -0.0735
 9533SOL    HW129498   0.676   3.802   3.274 -0.4756 -0.4296  0.0048
 9533SOL    HW229499   0.742   3.735   3.407  0.1594  0.6315  0.2320
 9534SOL     OW29500   5.743   5.374   6.758  0.2562 -0.0516  0.1003
 9534SOL    HW129501   5.754   5.472   6.743  1.3743 -0.1588  0.1480
 9534SOL    HW229502   5.687   5.359   6.839 -3.2984  0.5208 -2.0605
 9535SOL     OW29503   5.794   1.663   2.258 -0.5634 -0.3085 -0.3535
 9535SOL    HW129504   5.729   1.727   2.300  1.1132  1.3009 -0.0784
 9535SOL    HW229505   5.754   1.571   2.257 -2.6515  0.5311  0.1732
 9536SOL     OW29506   4.278   5.109   3.901 -0.5312  0.1315 -0.6426
 9536SOL    HW129507   4.306   5.147   3.989 -0.4854 -0.7842 -0.2416
 9536SOL    HW229508   4.229   5.178   3.848  1.3255  1.3893 -0.8299
 9537SOL     OW29509   0.703   0.406   3.965  0.0311  0.4120  0.2440
 9537SOL    HW129510   0.715   0.382   3.869 -0.2513  0.0098  0.3074
 9537SOL    HW229511   0.787   0.450   3.999  0.1507  0.5060 -0.1672
 9538SOL     OW29512   4.663   6.943   4.646 -0.4404  0.4723 -0.1643
 9538SOL    HW129513   4.571   6.959   4.613 -1.1707 -0.2272  1.3926
 9538SOL    HW229514   4.688   7.015   4.711  1.1884  2.1572 -2.4817
 9539SOL     OW29515   3.980   3.845   2.893 -0.1207 -0.0063 -0.1681
 9539SOL    HW129516   4.040   3.915   2.932 -0.7611  0.0875  0.6612
 9539SOL    HW229517   3.984   3.850   2.793 -0.2508  1.2938 -0.1223
 9540SOL     OW29518   5.475   5.380   1.452  0.7325 -0.2395  0.1019
 9540SOL    HW129519   5.435   5.459   1.500  1.7788  1.0728 -1.1056
 9540SOL    HW229520   5.562   5.407   1.411 -0.0278 -1.3239 -2.4068
 9541SOL     OW29521   1.431   4.733   4.691  0.4984  0.1138  0.1609
 9541SOL    HW129522   1.514   4.765   4.645 -0.8709  1.0956 -1.7347
 9541SOL    HW229523   1.437   4.755   4.789  1.8254  1.5044 -0.1955
 9542SOL     OW29524   5.415   5.244   3.752  0.5371 -0.4555  0.3168
 9542SOL    HW129525   5.361   5.165   3.723 -1.3825  1.4213 -1.5943
 9542SOL    HW229526   5.509   5.216   3.769  0.1699 -2.9798 -1.3252
 9543SOL     OW29527   4.114   0.285   5.569 -0.0701 -0.0022  0.4562
 9543SOL    HW129528   4.072   0.376   5.572 -0.8259 -0.2994 -0.5626
 9543SOL    HW229529   4.064   0.223   5.630 -0.1304  0.0358  0.4454
 9544SOL     OW29530   5.333   3.619   5.147  0.3488 -0.6689  0.1075
 9544SOL    HW129531   5.280   3.537   5.124 -0.3718  0.2363 -1.6859
 9544SOL    HW229532   5.278   3.700   5.130  2.0632  0.2987 -1.2193
 9545SOL     OW29533   7.024   4.360   2.165  0.3330  0.6239  0.0733
 9545SOL    HW129534   7.073   4.419   2.230 -0.0724  0.9324  0.1032
 9545SOL    HW229535   6.926   4.362   2.186  0.2058  0.6840 -0.5184
 9546SOL     OW29536   2.415   0.351   1.223  0.1597  0.0250 -0.3278
 9546SOL    HW129537   2.382   0.433   1.271  0.3624 -0.1797  0.1685
 9546SOL    HW229538   2.515   0.350   1.226  0.1575 -1.5010  1.8741
 9547SOL     OW29539   4.785   0.394   3.955 -0.2761  0.0891  0.4016
 9547SOL    HW129540   4.742   0.459   4.018  0.3962 -1.2530  2.3436
 9547SOL    HW229541   4.884   0.403   3.960 -0.1692 -1.0290  0.6857
 9548SOL     OW29542   1.630   5.701   6.204  0.0363  0.3469  0.0049
 9548SOL    HW129543   1.547   5.672   6.250 -1.1516  0.1934 -2.1185
 9548SOL    HW229544   1.673   5.775   6.256 -1.2310  0.2161  1.3009
 9549SOL     OW29545   4.265   2.020   3.055  1.1362 -0.0255  0.2518
 9549SOL    HW129546   4.263   2.113   3.017 -0.2658  0.2111  0.8324
 9549SOL    HW229547   4.183   2.005   3.110  0.7885 -1.9730 -0.7047
 9550SOL     OW29548   5.818   2.911   2.324  0.4861 -0.5101 -0.1115
 9550SOL    HW129549   5.767   2.837   2.369 -0.1167  1.2495  2.3314
 9550SOL    HW229550   5.916   2.894   2.333  0.3690 -0.6036  1.3093
 9551SOL     OW29551   4.478   1.280   0.105  0.2738 -0.0941 -0.1910
 9551SOL    HW129552   4.546   1.242   0.167 -0.3593 -3.1552 -1.2159
 9551SOL    HW229553   4.387   1.272   0.145  0.1890  1.5130  0.0345
 9552SOL     OW29554   4.319   2.515   0.869 -0.0008  0.3440 -0.1121
 9552SOL    HW129555   4.269   2.429   0.884  2.1581 -1.0191 -0.2110
 9552SOL    HW229556   4.268   2.591   0.909 -2.0167 -0.9606 -0.0619
 9553SOL     OW29557   6.264   1.227   0.087  0.3124 -0.2984  0.2444
 9553SOL    HW129558   6.183   1.223   0.028  1.5596 -0.8798 -1.5314
 9553SOL    HW229559   6.238   1.208   0.181 -1.7504  0.4752 -0.1095
 9554SOL     OW29560   5.961   0.464   2.895  0.2357 -0.0101  0.4257
 9554SOL    HW129561   6.038   0.510   2.939  1.4655 -0.9017 -0.7165
 9554SOL    HW229562   5.938   0.382   2.947  0.1558  0.1825  0.6934
 9555SOL     OW29563   0.848   2.769   2.491  0.5688 -0.4477 -0.1634
 9555SOL    HW129564   0.920   2.700   2.500  0.2880 -0.7578 -0.2833
 9555SOL    HW229565   0.832   2.789   2.395 -0.3799 -1.3147 -0.2002
 9556SOL     OW29566   2.533   5.608   6.657  0.2451 -0.8498  0.0558
 9556SOL    HW129567   2.556   5.684   6.596 -1.0598 -1.7548 -1.6528
 9556SOL    HW229568   2.559   5.631   6.751 -1.3572  2.2971 -0.1455
 9557SOL     OW29569   4.844   1.716   0.822  0.5029 -0.0255  0.3641
 9557SOL    HW129570   4.930   1.740   0.866  0.5569 -0.0916  0.2936
 9557SOL    HW229571   4.780   1.793   0.830  0.5962  0.0536  0.3433
 9558SOL     OW29572   6.104   5.865   6.588  0.5463 -0.4982 -0.4695
 9558SOL    HW129573   6.039   5.939   6.572 -0.6317 -1.6354 -1.1812
 9558SOL    HW229574   6.057   5.789   6.632  2.2703  0.0355  2.5346
 9559SOL     OW29575   1.698   3.935   5.910 -0.2649 -0.1726 -0.4668
 9559SOL    HW129576   1.794   3.950   5.890  0.1726 -0.7756  1.0252
 9559SOL    HW229577   1.663   4.010   5.965 -0.5037 -0.2095 -0.5670
 9560SOL     OW29578   2.922   5.859   2.426  0.6941 -0.6546 -0.0288
 9560SOL    HW129579   2.868   5.920   2.484  1.3439  0.1123 -0.2043
 9560SOL    HW229580   3.015   5.854   2.463  0.8689 -0.8689 -0.4972
 9561SOL     OW29581   0.530   0.240   0.481 -0.4408  0.2219 -0.5873
 9561SOL    HW129582   0.483   0.173   0.424  0.2190  0.2514 -1.1849
 9561SOL    HW229583   0.621   0.207   0.505 -0.4893  0.4685 -0.0384
 9562SOL     OW29584   2.764   6.152   1.587 -0.4027 -0.1813 -0.2466
 9562SOL    HW129585   2.831   6.083   1.559  0.4902  0.9809 -1.0916
 9562SOL    HW229586   2.768   6.229   1.523 -0.7337  1.0573  1.1816
 9563SOL     OW29587   0.967   0.252   0.788  0.0378 -0.6905  0.0940
 9563SOL    HW129588   0.981   0.159   0.754 -0.6190 -0.5897 -0.4675
 9563SOL    HW229589   0.894   0.251   0.857 -2.2316 -0.1477 -2.1778
 9564SOL     OW29590   0.191   2.378   1.717  0.6287  0.5290  0.3117
 9564SOL    HW129591   0.268   2.343   1.770  0.2953  1.1220  1.2057
 9564SOL    HW229592   0.170   2.314   1.643  1.7299  0.1767  0.2852
 9565SOL     OW29593   3.269   1.383   5.174 -0.6506 -0.4095  0.2319
 9565SOL    HW129594   3.329   1.337   5.240 -2.7690  0.0487  2.6616
 9565SOL    HW229595   3.323   1.419   5.099  1.8216 -1.6751  1.2908
 9566SOL     OW29596   4.718   1.113   1.263  0.2508  0.0072  0.0279
 9566SOL    HW129597   4.774   1.101   1.344 -0.0239  1.0010  0.3791
 9566SOL    HW229598   4.754   1.189   1.209  1.1514 -1.3868 -1.4246
 9567SOL     OW29599   1.846   4.266   2.462 -0.3830  0.9923 -0.0999
 9567SOL    HW129600   1.890   4.255   2.373 -2.7541 -2.4992 -1.0484
 9567SOL    HW229601   1.905   4.227   2.533 -0.4888 -0.7330 -0.9047
 9568SOL     OW29602   4.000   2.927   1.586 -0.3305 -0.1660 -0.4032
 9568SOL    HW129603   3.985   3.004   1.648 -0.3500 -1.5810  1.4321
 9568SOL    HW229604   4.045   2.853   1.635  1.1333 -0.7758 -2.5292
 9569SOL     OW29605   6.278   0.548   2.305 -0.1663 -0.4157 -0.1865
 9569SOL    HW129606   6.216   0.507   2.371 -0.0571 -0.4477 -0.1027
 9569SOL    HW229607   6.282   0.647   2.318 -1.8169 -0.1220 -1.5526
 9570SOL     OW29608   0.596   3.474   3.930  0.4447  0.0374 -0.1873
 9570SOL    HW129609   0.673   3.431   3.977 -0.2435 -0.7246  0.2583
 9570SOL    HW229610   0.511   3.448   3.974 -0.2956 -1.3277 -2.2853
 9571SOL     OW29611   2.332   1.056   1.810 -0.9028  0.9566 -0.3464
 9571SOL    HW129612   2.258   0.993   1.834 -0.8235  0.4918 -1.2897
 9571SOL    HW229613   2.302   1.118   1.738 -0.6003  1.2301 -0.2394
 9572SOL     OW29614   1.824   4.152   1.817 -0.0893 -0.4074 -0.1380
 9572SOL    HW129615   1.849   4.064   1.855  1.3000  0.1004  0.1885
 9572SOL    HW229616   1.838   4.224   1.885  1.0811  0.3354 -1.1011
 9573SOL     OW29617   0.573   6.478   4.276  0.0936  0.1046  0.0172
 9573SOL    HW129618   0.624   6.472   4.190 -0.5843 -0.3923 -0.3586
 9573SOL    HW229619   0.491   6.533   4.262 -0.6264 -0.9286  0.0290
 9574SOL     OW29620   2.140   2.403   1.978  0.5410  0.6418  0.2608
 9574SOL    HW129621   2.158   2.325   1.918 -0.4563  0.1353  0.5966
 9574SOL    HW229622   2.226   2.437   2.015  0.9316 -0.8740  0.8187
 9575SOL     OW29623   6.786   5.914   0.377 -0.7276  0.0614  0.1422
 9575SOL    HW129624   6.813   5.819   0.389 -1.2806 -0.1207 -0.0617
 9575SOL    HW229625   6.862   5.965   0.337 -0.7986 -0.5279 -0.7626
 9576SOL     OW29626   6.144   0.260   6.814  0.1821  0.2892  0.5179
 9576SOL    HW129627   6.098   0.345   6.838 -0.2764  0.3105 -0.3792
 9576SOL    HW229628   6.075   0.190   6.793  0.4597  0.8050 -2.5545
 9577SOL     OW29629   5.781   4.140   2.748  0.1319 -0.4747 -0.8706
 9577SOL    HW129630   5.849   4.200   2.790 -0.2290 -0.4157 -0.3627
 9577SOL    HW229631   5.693   4.188   2.743 -0.5745 -1.4768  0.9914
 9578SOL     OW29632   0.789   5.238   2.212 -0.5182 -0.0415 -0.0124
 9578SOL    HW129633   0.812   5.218   2.307 -0.5491  0.6002  0.1334
 9578SOL    HW229634   0.843   5.181   2.151  1.6494  1.5584  0.3028
 9579SOL     OW29635   6.375   0.020   1.838  0.2133 -0.1238  0.8057
 9579SOL    HW129636   6.376  -0.006   1.935 -1.0604  0.4621  0.9879
 9579SOL    HW229637   6.449   0.086   1.821 -0.4345  0.8728  1.7090
 9580SOL     OW29638   4.938   4.315   3.483 -0.3665 -0.1139 -0.1236
 9580SOL    HW129639   4.848   4.355   3.463 -0.8680 -0.8880  0.5352
 9580SOL    HW229640   4.966   4.257   3.406  0.4612  1.6153 -1.1816
 9581SOL     OW29641   6.442   1.946   1.106 -0.0912  0.0148  0.2459
 9581SOL    HW129642   6.373   1.939   1.034  1.0902 -0.1736 -0.9156
 9581SOL    HW229643   6.410   1.898   1.188 -1.7400  0.7869  0.0933
 9582SOL     OW29644   6.582   6.305   5.134  0.3301  0.2831 -0.1554
 9582SOL    HW129645   6.646   6.333   5.206 -1.2953 -0.0477  1.4902
 9582SOL    HW229646   6.515   6.378   5.118 -0.2571 -0.2658 -0.2244
 9583SOL     OW29647   2.317   4.296   1.970  0.9290 -0.5904  0.3149
 9583SOL    HW129648   2.355   4.343   2.049 -0.5290 -0.9407  1.2540
 9583SOL    HW229649   2.355   4.335   1.886  2.6702 -0.3636  1.1671
 9584SOL     OW29650   3.181   5.219   4.003  0.3918  0.2834  0.3271
 9584SOL    HW129651   3.159   5.127   4.036 -1.1810  0.7247  0.6155
 9584SOL    HW229652   3.111   5.283   4.036  2.4767  1.9555  1.7668
 9585SOL     OW29653   4.815   0.788   6.718  0.5380 -0.1496 -0.0540
 9585SOL    HW129654   4.847   0.883   6.712  0.9177 -0.1555  1.4737
 9585SOL    HW229655   4.728   0.785   6.766  0.0199 -0.5054 -0.9750
 9586SOL     OW29656   2.260   4.896   2.474  0.2721  0.6146  0.2273
 9586SOL    HW129657   2.228   4.935   2.388 -1.8165  1.5346  1.3649
 9586SOL    HW229658   2.294   4.969   2.534 -0.6112  0.3110  1.1185
 9587SOL     OW29659   2.920   5.553   2.405  0.1388 -0.0626  0.4142
 9587SOL    HW129660   2.851   5.621   2.432 -1.4862 -1.4278 -0.1372
 9587SOL    HW229661   2.990   5.597   2.349 -1.6557  0.9234 -1.1648
 9588SOL     OW29662   0.061   4.112   0.034  0.4074  0.1687 -0.1387
 9588SOL    HW129663   0.070   4.032   0.094  0.3378  0.9819  0.9764
 9588SOL    HW229664  -0.031   4.114  -0.005 -0.0077  0.3925  0.8376
 9589SOL     OW29665   0.263   4.526   6.961 -0.2298  0.7970  0.4380
 9589SOL    HW129666   0.198   4.530   6.885  0.2937  1.9659  0.0343
 9589SOL    HW229667   0.274   4.431   6.990 -2.7673  0.6283  1.0909
 9590SOL     OW29668   5.983   0.381   1.273  0.1868  0.3777 -0.0839
 9590SOL    HW129669   6.050   0.454   1.283 -0.9471  1.2362  1.7629
 9590SOL    HW229670   5.929   0.373   1.357 -1.1577 -1.1707 -1.0240
 9591SOL     OW29671   5.158   2.257   1.014 -0.5266 -0.3860  0.1722
 9591SOL    HW129672   5.187   2.235   1.107 -0.3246 -1.6953 -0.1733
 9591SOL    HW229673   5.239   2.268   0.955 -0.6483  0.5953  0.1715
 9592SOL     OW29674   2.932   0.377   5.647  0.2536  0.1342  0.3673
 9592SOL    HW129675   2.948   0.292   5.597  2.5001  0.6991  0.0066
 9592SOL    HW229676   2.895   0.446   5.586  2.1626  0.5593 -0.3708
 9593SOL     OW29677   0.950   2.090   5.359  0.1507 -0.3113 -0.3129
 9593SOL    HW129678   0.983   2.132   5.275 -0.4595 -0.0295 -0.4227
 9593SOL    HW229679   0.852   2.069   5.349 -0.0506  0.1809  0.4948
 9594SOL     OW29680   2.556   0.163   4.837 -0.1474  0.1634 -0.1679
 9594SOL    HW129681   2.649   0.198   4.854 -0.3214  0.5496 -0.0023
 9594SOL    HW229682   2.543   0.152   4.738 -0.7474  2.4526 -0.4045
 9595SOL     OW29683   1.038   2.762   1.221  0.1401 -0.6562 -0.1126
 9595SOL    HW129684   1.017   2.767   1.123  2.3421 -1.4330 -0.6692
 9595SOL    HW229685   1.005   2.846   1.265 -3.4342 -1.4704 -0.9054
 9596SOL     OW29686   1.847   5.128   6.343 -0.2904 -0.5390  0.1733
 9596SOL    HW129687   1.778   5.178   6.290  1.9737 -0.0674 -2.5839
 9596SOL    HW229688   1.898   5.192   6.400  0.4285 -0.1633 -0.8474
 9597SOL     OW29689   1.043   3.747   0.023  0.5941 -0.2071 -0.0839
 9597SOL    HW129690   1.049   3.801   0.107 -1.2202  2.4241 -1.5260
 9597SOL    HW229691   1.135   3.729  -0.012  1.4896 -2.3335  2.9073
 9598SOL     OW29692   6.908   3.995   5.790  0.4036 -0.0967 -0.3007
 9598SOL    HW129693   6.957   3.928   5.845  0.0629 -0.0331  0.0938
 9598SOL    HW229694   6.839   3.949   5.734 -1.3079  0.0653  1.5396
 9599SOL     OW29695   6.465   6.516   3.233  0.3144 -0.5297  0.5217
 9599SOL    HW129696   6.477   6.469   3.146  0.5638  1.2717 -0.4659
 9599SOL    HW229697   6.530   6.481   3.300  1.1319 -0.9273 -0.4617
 9600SOL     OW29698   3.785   2.015   1.876 -0.1007  0.0772  0.1123
 9600SOL    HW129699   3.872   2.034   1.831 -1.0112  2.8287 -0.7193
 9600SOL    HW229700   3.752   2.098   1.921 -2.3143 -0.8669  0.3615
 9601SOL     OW29701   1.715   4.584   6.721  0.3803  0.4281  0.5401
 9601SOL    HW129702   1.769   4.637   6.657  0.0630  0.6875  0.4887
 9601SOL    HW229703   1.678   4.644   6.792 -1.5827  0.6246 -0.5872
 9602SOL     OW29704   5.511   6.590   5.139  0.8564 -0.5277  0.4588
 9602SOL    HW129705   5.576   6.650   5.186  0.0342  2.3249 -1.7362
 9602SOL    HW229706   5.554   6.553   5.056  0.9665 -2.1109  1.1890
 9603SOL     OW29707   4.894   6.333   6.636  0.0871  0.1629  0.1087
 9603SOL    HW129708   4.917   6.236   6.644  0.0988  0.1228 -0.3777
 9603SOL    HW229709   4.971   6.383   6.597  0.0115  0.3355  0.1774
 9604SOL     OW29710   5.263   0.453   6.432 -0.2968 -0.3516 -0.2984
 9604SOL    HW129711   5.205   0.523   6.474 -1.1657 -0.3009 -1.5142
 9604SOL    HW229712   5.276   0.475   6.335  0.1179 -1.4360 -0.4991
 9605SOL     OW29713   6.348   6.804   0.842 -0.2131 -0.3620 -0.1446
 9605SOL    HW129714   6.368   6.707   0.827  0.1509 -0.1986 -0.7938
 9605SOL    HW229715   6.398   6.837   0.922  4.2467  0.6019 -2.9684
 9606SOL     OW29716   2.032   0.875   5.351 -0.0154  0.0016  0.9353
 9606SOL    HW129717   2.113   0.875   5.409  0.1432 -0.0255  0.7142
 9606SOL    HW229718   1.992   0.783   5.349  0.8616 -0.3711 -0.2265
 9607SOL     OW29719   0.209   1.631   6.457  0.0987  0.1199  0.1852
 9607SOL    HW129720   0.185   1.555   6.518  3.2310 -0.8744  0.3366
 9607SOL    HW229721   0.184   1.717   6.501  0.7807 -0.6435  2.2039
 9608SOL     OW29722   5.552   3.369   2.490  0.2510  0.0874 -0.2076
 9608SOL    HW129723   5.562   3.275   2.524  0.4899 -0.0190 -0.5690
 9608SOL    HW229724   5.551   3.432   2.567  0.2815 -0.1967  0.0279
 9609SOL     OW29725   3.891   1.574   5.444  0.0137  0.0295 -0.0670
 9609SOL    HW129726   3.899   1.476   5.461 -0.8997  0.0108  0.3317
 9609SOL    HW229727   3.955   1.623   5.503 -0.9310 -0.2296  1.2407
 9610SOL     OW29728   7.020   5.559   4.410 -0.4000 -0.2599 -0.5673
 9610SOL    HW129729   7.005   5.461   4.426 -0.4270 -0.1235  0.2825
 9610SOL    HW229730   6.942   5.611   4.445  0.2837  0.1739  0.3395
 9611SOL     OW29731   2.829   5.673   5.042  0.3119 -0.9665 -0.7918
 9611SOL    HW129732   2.906   5.616   5.069 -1.3454 -3.3905 -0.8701
 9611SOL    HW229733   2.804   5.652   4.947  0.2218  0.6213 -1.1493
 9612SOL     OW29734   6.991   1.683   4.392 -0.6893 -0.6228  0.3368
 9612SOL    HW129735   6.899   1.674   4.431 -0.6950  1.4794  0.9390
 9612SOL    HW229736   6.984   1.710   4.296 -0.7344  0.4432  0.6279
 9613SOL     OW29737   5.630   4.567   4.464 -0.3032  0.2536 -0.5379
 9613SOL    HW129738   5.532   4.582   4.450 -0.2806  0.0721 -0.9014
 9613SOL    HW229739   5.670   4.528   4.382 -0.1236 -0.6383 -0.0388
 9614SOL     OW29740   4.938   3.837   2.236  0.0946 -0.1944 -0.5883
 9614SOL    HW129741   5.019   3.889   2.263 -1.6301  1.5706  1.6671
 9614SOL    HW229742   4.941   3.746   2.277  0.6446  0.1021  0.0368
 9615SOL     OW29743   1.051   3.892   0.927  0.2027 -0.0778  0.0502
 9615SOL    HW129744   0.991   3.945   0.987 -1.2297 -0.7794 -0.7063
 9615SOL    HW229745   1.123   3.849   0.980  1.0152  2.0562  0.7833
 9616SOL     OW29746   3.761   2.263   6.581 -0.0771  0.4517  0.9273
 9616SOL    HW129747   3.672   2.232   6.546 -0.5335  1.3822  1.2470
 9616SOL    HW229748   3.789   2.345   6.531  1.0540 -0.3592  0.1855
 9617SOL     OW29749   2.245   1.465   3.889 -0.0263  0.4274  0.1613
 9617SOL    HW129750   2.148   1.443   3.883  0.4784 -1.8252 -0.7626
 9617SOL    HW229751   2.276   1.507   3.803 -0.3119  1.8948  0.7473
 9618SOL     OW29752   2.733   1.256   0.886 -0.0186 -0.2394  0.1551
 9618SOL    HW129753   2.734   1.165   0.842  0.7951 -0.8588  1.3905
 9618SOL    HW229754   2.722   1.245   0.984  0.0613  1.0192  0.3173
 9619SOL     OW29755   3.918   6.837   5.586  0.2492  0.4646 -0.3606
 9619SOL    HW129756   3.863   6.818   5.504 -0.0915  0.6285 -0.1685
 9619SOL    HW229757   3.900   6.930   5.618 -1.3173 -0.3393  1.2121
 9620SOL     OW29758   5.673   2.199   6.051 -0.2824 -0.0779  0.8048
 9620SOL    HW129759   5.757   2.147   6.040  0.3722  0.7874  1.5660
 9620SOL    HW229760   5.612   2.151   6.115 -0.9057 -1.3002 -0.6428
 9621SOL     OW29761   1.161   4.520   4.272 -0.0454 -0.5638  0.1680
 9621SOL    HW129762   1.103   4.536   4.193 -1.2521 -0.7173  1.0017
 9621SOL    HW229763   1.170   4.605   4.325  0.7636 -0.4585 -0.1208
 9622SOL     OW29764   4.854   5.460   1.506  0.1313  0.1391  0.2897
 9622SOL    HW129765   4.785   5.533   1.512  1.0941  1.0335  0.7383
 9622SOL    HW229766   4.837   5.405   1.424 -2.5013 -1.1092  1.5403
 9623SOL     OW29767   2.686   3.258   6.229  0.2045  0.0317  0.1230
 9623SOL    HW129768   2.669   3.170   6.272  0.7111  0.5143  1.3697
 9623SOL    HW229769   2.769   3.252   6.173 -1.1087 -0.9194 -1.7918
 9624SOL     OW29770   5.085   2.062   3.586 -0.0012  1.0305 -0.6195
 9624SOL    HW129771   5.173   2.108   3.586 -0.4090  1.8562 -1.2747
 9624SOL    HW229772   5.057   2.042   3.680  0.0593  2.4148 -0.2747
 9625SOL     OW29773   3.900   5.110   0.351  0.2434  0.2844  0.3037
 9625SOL    HW129774   3.841   5.059   0.415  0.2083 -0.8932 -0.6291
 9625SOL    HW229775   3.868   5.204   0.344 -1.0302 -0.1207  0.4319
 9626SOL     OW29776   3.462   5.974   0.437  0.1487  0.0098  0.4924
 9626SOL    HW129777   3.391   6.000   0.371  0.4384 -0.1313  0.1201
 9626SOL    HW229778   3.493   5.881   0.417  1.0208  0.3683  0.1359
 9627SOL     OW29779   0.562   0.863   6.235 -0.2787 -0.1690 -0.0894
 9627SOL    HW129780   0.648   0.882   6.188 -1.0689  1.0956 -1.0887
 9627SOL    HW229781   0.488   0.860   6.169 -1.2035  0.0637  0.9055
 9628SOL     OW29782   3.636   6.216   2.474 -0.1460 -0.0396  0.1210
 9628SOL    HW129783   3.732   6.206   2.448  0.3596 -0.9377  2.0814
 9628SOL    HW229784   3.579   6.161   2.413  0.7558 -0.6199 -0.2213
 9629SOL     OW29785   1.435   5.486   0.557 -0.4098 -0.2200 -0.4653
 9629SOL    HW129786   1.518   5.441   0.522 -0.0782 -0.2117  0.2848
 9629SOL    HW229787   1.420   5.571   0.508 -0.8680 -0.9908 -1.6900
 9630SOL     OW29788   5.271   1.209   6.881  0.6015 -0.2977 -0.2497
 9630SOL    HW129789   5.307   1.302   6.867  0.9331 -0.7579 -3.1041
 9630SOL    HW229790   5.213   1.208   6.962  0.8421  2.3374  0.0441
 9631SOL     OW29791   4.762   0.441   1.615  0.4113 -0.0273  0.2360
 9631SOL    HW129792   4.859   0.466   1.614  0.1393  1.1022  0.3555
 9631SOL    HW229793   4.736   0.405   1.526  1.0183 -0.6825  0.3140
 9632SOL     OW29794   6.532   6.306   3.040  0.5818  0.1049 -0.4225
 9632SOL    HW129795   6.625   6.341   3.030  0.8477 -0.4183  0.1291
 9632SOL    HW229796   6.534   6.206   3.038 -0.1820  0.0905 -2.1631
 9633SOL     OW29797   6.075   4.690   0.037  0.2196  0.0433  0.1229
 9633SOL    HW129798   6.136   4.714   0.113  1.0589  0.0006 -0.5261
 9633SOL    HW229799   5.982   4.718   0.059  0.4905  0.2340  1.0765
 9634SOL     OW29800   1.406   4.182   6.800 -0.1751  0.6297 -0.7862
 9634SOL    HW129801   1.379   4.211   6.709 -1.0637  1.9898 -0.1234
 9634SOL    HW229802   1.326   4.180   6.860  0.8590  3.3132  0.8575
 9635SOL     OW29803   1.379   3.319   5.524 -0.1315 -0.0523  0.1044
 9635SOL    HW129804   1.411   3.237   5.571 -0.4663 -0.4071 -0.2736
 9635SOL    HW229805   1.451   3.351   5.462 -0.8267 -1.4558 -1.5273
 9636SOL     OW29806   3.763   0.999   0.553 -0.1075 -0.2425  0.2555
 9636SOL    HW129807   3.768   1.072   0.622  4.0868 -0.0125 -0.0133
 9636SOL    HW229808   3.732   1.038   0.466 -1.3804  0.3798  0.9623
 9637SOL     OW29809   1.637   1.724   6.700  0.0620 -0.0135 -0.8896
 9637SOL    HW129810   1.543   1.758   6.700 -0.3111 -1.0139 -0.6765
 9637SOL    HW229811   1.698   1.795   6.734 -0.7979  0.2025  0.2763
 9638SOL     OW29812   5.615   1.579   0.500 -0.3261  0.2141 -0.0939
 9638SOL    HW129813   5.605   1.678   0.506  0.4328  0.3691 -1.1111
 9638SOL    HW229814   5.638   1.543   0.591  2.6519  1.4000 -0.2328
 9639SOL     OW29815   3.781   2.008   3.145  0.5394 -0.0436  0.2323
 9639SOL    HW129816   3.737   1.967   3.225  2.2463 -0.7145  0.8625
 9639SOL    HW229817   3.720   2.001   3.066 -0.0338 -1.9548  0.7986
 9640SOL     OW29818   2.628   1.031   2.068 -0.7343 -0.5836 -0.4978
 9640SOL    HW129819   2.695   1.091   2.024  0.9089 -2.0342 -0.0616
 9640SOL    HW229820   2.541   1.080   2.077 -0.0310  1.0399 -1.9057
 9641SOL     OW29821   5.237   6.500   6.820  0.0490  0.3859 -0.2182
 9641SOL    HW129822   5.155   6.539   6.861  0.7165  1.0915  0.4788
 9641SOL    HW229823   5.272   6.427   6.878  0.4913  0.7858  0.0296
 9642SOL     OW29824   2.889   0.555   5.064  0.5087 -0.4758  0.3449
 9642SOL    HW129825   2.938   0.582   4.981  1.3578 -1.7885  0.3892
 9642SOL    HW229826   2.889   0.631   5.129  0.9748  0.1234 -0.3367
 9643SOL     OW29827   4.293   4.978   3.081 -0.5172  0.4832  0.6385
 9643SOL    HW129828   4.250   5.037   3.150 -0.8278 -0.8826  1.6489
 9643SOL    HW229829   4.320   5.034   3.002 -0.0708  2.1167  1.8737
 9644SOL     OW29830   2.238   0.279   6.370  0.4527  0.0208  0.3167
 9644SOL    HW129831   2.187   0.194   6.359  2.4646 -1.3274  0.8867
 9644SOL    HW229832   2.261   0.292   6.467  0.4824  1.0386  0.1836
 9645SOL     OW29833   2.855   6.064   0.220 -0.7112 -0.0229 -0.2060
 9645SOL    HW129834   2.870   5.966   0.226 -0.6203  0.0918  2.2446
 9645SOL    HW229835   2.854   6.104   0.312 -2.4268  2.0165 -1.0172
 9646SOL     OW29836   3.389   5.104   4.598 -0.1394  0.0998  0.3459
 9646SOL    HW129837   3.300   5.060   4.606 -0.9757  1.9908  2.4556
 9646SOL    HW229838   3.455   5.056   4.656 -0.9174  1.2083  2.2266
 9647SOL     OW29839   4.380   4.828   5.445  0.0002 -0.1319 -0.9334
 9647SOL    HW129840   4.464   4.867   5.482  0.1608 -1.3703  0.0697
 9647SOL    HW229841   4.402   4.748   5.389 -0.5311 -0.8746 -0.1047
 9648SOL     OW29842   4.225   3.128   1.191 -0.1730  0.0013 -0.5098
 9648SOL    HW129843   4.229   3.066   1.270 -2.3050  0.7693  0.2595
 9648SOL    HW229844   4.161   3.202   1.210  1.6931  2.0587 -1.7241
 9649SOL     OW29845   1.323   5.678   2.148 -0.9279  0.7977 -0.5884
 9649SOL    HW129846   1.358   5.772   2.152 -0.8891  0.7682 -0.2202
 9649SOL    HW229847   1.379   5.626   2.083 -0.4595  0.8277 -0.2174
 9650SOL     OW29848   2.249   6.485   2.320  0.0296 -0.3618  0.3370
 9650SOL    HW129849   2.195   6.569   2.311 -0.7604 -0.8682  0.2017
 9650SOL    HW229850   2.272   6.450   2.229 -1.3179 -1.3145  0.3149
 9651SOL     OW29851   4.883   2.450   3.759  0.0971 -0.5042  0.8409
 9651SOL    HW129852   4.865   2.462   3.856 -0.8620  0.3907  0.5587
 9651SOL    HW229853   4.982   2.445   3.744  0.2555 -0.5224  1.8409
 9652SOL     OW29854   0.263   5.341   1.644 -0.9627 -0.0783 -0.6030
 9652SOL    HW129855   0.188   5.397   1.609 -0.4506 -0.1599 -1.9263
 9652SOL    HW229856   0.258   5.335   1.743 -0.7913  2.6602 -0.3657
 9653SOL     OW29857   5.564   5.383   4.264  0.3746 -0.4914 -0.3682
 9653SOL    HW129858   5.473   5.404   4.228 -0.0883  0.6012  1.3450
 9653SOL    HW229859   5.628   5.373   4.187 -0.6600  1.2009 -1.5191
 9654SOL     OW29860   2.523   3.204   1.105 -0.7624 -0.2807 -0.4732
 9654SOL    HW129861   2.598   3.160   1.057 -1.5415  0.0391 -2.0430
 9654SOL    HW229862   2.478   3.138   1.165  0.2286 -0.6772 -0.1478
 9655SOL     OW29863   6.430   2.045   6.100  0.1906  0.3322 -0.1645
 9655SOL    HW129864   6.334   2.024   6.117 -0.0843  1.7008  0.0832
 9655SOL    HW229865   6.455   2.016   6.007  0.0197 -1.5561  0.3437
 9656SOL     OW29866   3.019   2.237   2.910 -0.0187 -0.4302  0.4959
 9656SOL    HW129867   3.115   2.208   2.910  0.3837  0.6932  2.5074
 9656SOL    HW229868   2.994   2.271   2.819  2.4583  2.1224  0.6298
 9657SOL     OW29869   0.531   0.650   3.653 -0.5290  0.2638 -0.4741
 9657SOL    HW129870   0.484   0.737   3.670 -0.7628  0.4398 -1.9076
 9657SOL    HW229871   0.629   0.661   3.670 -0.4883  0.9570 -1.1010
 9658SOL     OW29872   4.064   0.504   3.264 -0.2806  0.1585  0.0224
 9658SOL    HW129873   4.083   0.501   3.362 -0.3565 -1.8769  0.0115
 9658SOL    HW229874   4.084   0.596   3.229  1.3236  0.4730  1.6199
 9659SOL     OW29875   5.698   5.526   1.014  0.1245  0.0569  0.1444
 9659SOL    HW129876   5.785   5.516   0.965 -0.1570  1.3850 -0.6904
 9659SOL    HW229877   5.703   5.607   1.072 -0.8423  0.6628 -0.5908
 9660SOL     OW29878   0.841   6.005   0.009  0.1988  0.0705 -0.3085
 9660SOL    HW129879   0.757   5.965  -0.027  0.0774 -1.4306  1.5070
 9660SOL    HW229880   0.835   6.105   0.003 -0.3023 -0.0201 -3.1561
 9661SOL     OW29881   4.485   0.228   2.649  0.3237  0.5377  0.1237
 9661SOL    HW129882   4.528   0.147   2.609  0.0608  0.6162 -0.3265
 9661SOL    HW229883   4.436   0.278   2.577  0.8061  1.3072  0.3190
 9662SOL     OW29884   4.645   2.193   4.184  0.0249 -0.0355 -0.6019
 9662SOL    HW129885   4.634   2.276   4.238  3.0786 -0.0573  0.2107
 9662SOL    HW229886   4.616   2.113   4.237  2.6255 -0.0165  1.0137
 9663SOL     OW29887   0.098   4.670   4.082 -0.2657  0.1973  0.2150
 9663SOL    HW129888   0.123   4.757   4.040 -0.0065  0.4961  0.9639
 9663SOL    HW229889   0.154   4.656   4.164 -1.2247 -0.0327  0.8515
 9664SOL     OW29890   3.786   4.843   1.159 -0.3951  0.2590 -0.0350
 9664SOL    HW129891   3.780   4.753   1.116  1.2698  0.6509 -1.1796
 9664SOL    HW229892   3.759   4.835   1.255  0.0023 -1.5300 -0.0295
 9665SOL     OW29893   5.622   4.750   3.255  0.1034  0.3074  0.1797
 9665SOL    HW129894   5.715   4.720   3.236  0.8254  2.2669  0.4387
 9665SOL    HW229895   5.561   4.670   3.256  1.3722 -0.7971 -2.1095
 9666SOL     OW29896   4.763   5.792   0.522  0.2143  0.0090 -0.8311
 9666SOL    HW129897   4.740   5.887   0.541  1.2455 -0.1782  1.8754
 9666SOL    HW229898   4.854   5.787   0.481  2.3472  0.2010  3.2746
 9667SOL     OW29899   3.978   3.910   3.516  0.2572  0.3621 -0.2645
 9667SOL    HW129900   3.891   3.947   3.484 -0.7164 -0.1109  1.6571
 9667SOL    HW229901   4.047   3.918   3.444 -1.8981 -1.2045 -2.6445
 9668SOL     OW29902   5.498   1.020   4.918  0.4701  0.3525 -0.3581
 9668SOL    HW129903   5.411   1.039   4.961  1.7860 -0.3512  2.9034
 9668SOL    HW229904   5.553   1.103   4.914  0.9814  0.0980  0.9802
 9669SOL     OW29905   1.296   5.752   5.610  0.2347  0.0690  0.5217
 9669SOL    HW129906   1.394   5.744   5.591 -0.0775 -2.5746 -0.4029
 9669SOL    HW229907   1.278   5.838   5.656  2.3393  2.9351 -3.3727
 9670SOL     OW29908   6.184   4.192   5.401 -0.1955  0.2317 -0.4485
 9670SOL    HW129909   6.087   4.201   5.422 -0.1957  1.3988 -0.8437
 9670SOL    HW229910   6.221   4.282   5.378  0.6846 -0.3882 -1.5600
 9671SOL     OW29911   2.088   0.690   6.726 -0.1729 -0.0037  0.2763
 9671SOL    HW129912   2.042   0.619   6.672 -1.6936  0.5323  0.8254
 9671SOL    HW229913   2.154   0.647   6.787  1.3924 -0.6423 -1.7713
 9672SOL     OW29914   2.602   4.588   4.471 -0.1283  0.1434  0.6839
 9672SOL    HW129915   2.558   4.604   4.559 -0.2171 -0.7646  0.8172
 9672SOL    HW229916   2.688   4.539   4.484 -1.2294 -2.0485  0.1565
 9673SOL     OW29917   1.704   2.992   5.455 -0.4402  0.0897 -0.4698
 9673SOL    HW129918   1.775   2.922   5.444 -0.7468  0.0164 -2.1971
 9673SOL    HW229919   1.733   3.076   5.411 -1.1304  0.2785 -0.5670
 9674SOL     OW29920   1.862   6.334   3.591  1.0800  0.2764 -0.1467
 9674SOL    HW129921   1.961   6.328   3.593  0.9813 -3.3385 -0.0445
 9674SOL    HW229922   1.829   6.327   3.497  0.8968  1.3058 -0.1677
 9675SOL     OW29923   0.440   3.364   2.278 -0.4299  0.1443 -0.0604
 9675SOL    HW129924   0.384   3.447   2.270  0.7748  0.8073 -2.6518
 9675SOL    HW229925   0.383   3.283   2.265 -1.4037  0.5805  1.2474
 9676SOL     OW29926   0.705   2.124   3.313 -0.3957 -0.4405  0.0536
 9676SOL    HW129927   0.702   2.224   3.321  0.0255 -0.2415 -1.7614
 9676SOL    HW229928   0.637   2.083   3.374 -1.3656  1.0156 -0.0027
 9677SOL     OW29929   1.992   3.367   4.519  0.5978  0.1475  0.0543
 9677SOL    HW129930   1.953   3.458   4.504  0.3207 -0.0197 -0.2367
 9677SOL    HW229931   2.063   3.373   4.590  0.7723  0.6411 -0.1568
 9678SOL     OW29932   4.028   3.822   4.446  0.1073 -0.2660 -0.0365
 9678SOL    HW129933   4.037   3.860   4.354  0.3327 -1.9377 -0.7434
 9678SOL    HW229934   4.030   3.896   4.513  0.2314  0.9623 -1.3489
 9679SOL     OW29935   0.488   3.279   0.590 -0.1019  0.1883  0.4109
 9679SOL    HW129936   0.544   3.312   0.666 -0.5324  2.8362 -0.2892
 9679SOL    HW229937   0.422   3.350   0.564 -0.0678 -0.6465 -2.3325
 9680SOL     OW29938   5.650   6.372   2.367  0.2852 -0.0950 -0.9485
 9680SOL    HW129939   5.621   6.467   2.352 -1.1815 -0.3023  0.3601
 9680SOL    HW229940   5.727   6.371   2.431  0.0349  0.1891 -0.6380
 9681SOL     OW29941   3.452   6.510   5.412  0.1006 -0.2634  0.3314
 9681SOL    HW129942   3.462   6.568   5.331 -0.8878  0.0389  0.4168
 9681SOL    HW229943   3.464   6.566   5.494  3.1643 -0.9226  0.4472
 9682SOL     OW29944   6.123   6.577   1.970 -0.0041 -0.1917 -0.1126
 9682SOL    HW129945   6.104   6.647   1.902  0.8077  0.1264 -0.0252
 9682SOL    HW229946   6.191   6.612   2.035 -0.0276 -0.8543  0.2750
 9683SOL     OW29947   6.366   5.953   4.883 -0.2431 -0.2189 -0.1533
 9683SOL    HW129948   6.447   5.959   4.825 -1.1003  2.1633 -1.2517
 9683SOL    HW229949   6.392   5.971   4.978  0.7347 -1.1340 -0.2297
 9684SOL     OW29950   6.885   3.825   4.384 -0.1222  0.0086 -0.7584
 9684SOL    HW129951   6.850   3.863   4.298 -0.4093  0.5545 -0.4023
 9684SOL    HW229952   6.963   3.879   4.415 -0.5278  0.3115 -0.2528
 9685SOL     OW29953   2.608   2.688   6.926  0.2008  0.1771  0.1963
 9685SOL    HW129954   2.648   2.671   6.836 -0.7361 -1.0471 -0.0305
 9685SOL    HW229955   2.642   2.620   6.991  0.2467  0.5419  0.5533
 9686SOL     OW29956   6.099   1.790   2.441  0.1894  0.0759  0.3350
 9686SOL    HW129957   6.042   1.863   2.478  0.0347 -0.4984  1.2740
 9686SOL    HW229958   6.048   1.703   2.445 -0.0419  0.0511 -1.7404
 9687SOL     OW29959   3.554   2.082   3.736 -0.1532  0.3552 -0.0957
 9687SOL    HW129960   3.489   2.013   3.701 -0.0894  0.0167  0.4453
 9687SOL    HW229961   3.636   2.036   3.768 -0.9269  0.4617  2.1784
 9688SOL     OW29962   6.250   1.549   6.004 -0.5483  0.2960 -0.0812
 9688SOL    HW129963   6.184   1.503   5.945  0.7487 -0.0851 -1.2753
 9688SOL    HW229964   6.256   1.646   5.980 -0.1834  0.1863 -0.4547
 9689SOL     OW29965   1.313   6.187   5.899 -0.5122 -0.6054 -0.6521
 9689SOL    HW129966   1.286   6.276   5.861 -1.5068 -1.1895 -1.3794
 9689SOL    HW229967   1.243   6.156   5.963 -0.0643 -0.7697 -0.2388
 9690SOL     OW29968   4.625   4.957   0.932 -0.9026 -0.4031 -0.1538
 9690SOL    HW129969   4.645   5.038   0.987 -0.6129 -0.4023 -0.2592
 9690SOL    HW229970   4.706   4.932   0.879 -1.6161  0.4849 -1.7284
 9691SOL     OW29971   0.905   6.278   6.981  0.1419  0.1973 -0.8768
 9691SOL    HW129972   0.846   6.283   6.901  0.7725  1.8698 -1.2918
 9691SOL    HW229973   0.966   6.358   6.982  0.8345 -0.3096  0.7378
 9692SOL     OW29974   2.401   5.431   1.735  0.1523 -0.3194  0.3501
 9692SOL    HW129975   2.307   5.429   1.769  0.1838  0.3894  0.4862
 9692SOL    HW229976   2.402   5.461   1.640  0.3471  0.9965  0.7543
 9693SOL     OW29977   6.123   5.833   0.647 -0.1036  0.2424  0.2917
 9693SOL    HW129978   6.062   5.793   0.578  0.8484 -0.0841 -0.3889
 9693SOL    HW229979   6.076   5.836   0.735 -0.5990 -1.3992  0.1327
 9694SOL     OW29980   1.823   1.837   0.903  0.5008  0.4719 -0.3704
 9694SOL    HW129981   1.852   1.784   0.824  0.6115  0.6042 -0.4201
 9694SOL    HW229982   1.764   1.913   0.873 -2.4889 -1.5342 -0.0208
 9695SOL     OW29983   0.816   3.737   0.868  0.5489 -0.2129  0.5409
 9695SOL    HW129984   0.890   3.799   0.894  0.8249 -0.7156  0.9597
 9695SOL    HW229985   0.730   3.768   0.911  0.5845  0.1602  0.3478
 9696SOL     OW29986   3.328   2.920   0.761  0.0791 -0.1977  0.6030
 9696SOL    HW129987   3.323   2.924   0.861  0.5708  2.0301  0.5835
 9696SOL    HW229988   3.282   3.000   0.723 -1.8669 -2.0043 -1.0679
 9697SOL     OW29989   6.941   5.453   5.979  0.8786 -0.1147 -0.3183
 9697SOL    HW129990   6.851   5.479   6.016  0.7583  2.1753 -2.0063
 9697SOL    HW229991   6.930   5.380   5.912  0.1480  0.6882 -1.0918
 9698SOL     OW29992   5.305   6.554   5.354  0.1899  0.1608 -0.3811
 9698SOL    HW129993   5.391   6.539   5.404 -0.1160  1.7761  0.7000
 9698SOL    HW229994   5.324   6.562   5.256  1.5606  2.3427  0.0020
 9699SOL     OW29995   2.029   0.170   0.502  0.0062 -0.0396  0.3448
 9699SOL    HW129996   2.033   0.151   0.404 -1.8126  0.5004  0.1283
 9699SOL    HW229997   2.073   0.258   0.520  0.1991 -0.0594 -0.0153
 9700SOL     OW29998   3.303   2.937   3.563 -0.2386  0.1837  0.4532
 9700SOL    HW129999   3.385   2.991   3.583  0.6715 -0.9015 -0.2697
 9700SOL    HW230000   3.294   2.865   3.632  0.7722 -1.1840 -0.8058
 9701SOL     OW30001   5.226   5.709   3.785  0.1831 -0.2751 -0.6028
 9701SOL    HW130002   5.299   5.671   3.728 -0.3357  1.2766 -2.3765
 9701SOL    HW230003   5.193   5.639   3.848  1.6959 -1.6493 -1.2823
 9702SOL     OW30004   3.645   6.193   1.148 -0.6880  0.2251  0.1062
 9702SOL    HW130005   3.690   6.271   1.105 -1.0496  0.3483 -0.0563
 9702SOL    HW230006   3.557   6.177   1.103  0.2405 -1.5273 -1.2415
 9703SOL     OW30007   2.653   6.591   3.500 -0.0271 -0.1324  0.2358
 9703SOL    HW130008   2.716   6.579   3.577 -0.9520 -2.1073  0.7563
 9703SOL    HW230009   2.564   6.620   3.534  0.1694  1.1918 -0.3456
 9704SOL     OW30010   2.790   2.195   4.954  0.4215 -0.2527 -0.1991
 9704SOL    HW130011   2.861   2.175   5.021  2.3715  1.7842 -1.5064
 9704SOL    HW230012   2.759   2.290   4.966 -1.0158 -0.6456 -0.6222
 9705SOL     OW30013   5.258   2.005   0.209 -0.7607 -0.0462 -0.8460
 9705SOL    HW130014   5.319   1.982   0.134 -0.9970 -0.1322 -1.0111
 9705SOL    HW230015   5.197   1.928   0.228  0.2681 -0.6064  0.4027
 9706SOL     OW30016   4.884   3.537   3.278 -0.2983  0.3747  0.2626
 9706SOL    HW130017   4.923   3.625   3.304  1.2440 -0.5899  1.4237
 9706SOL    HW230018   4.859   3.486   3.361  0.6596 -1.0423 -0.2895
 9707SOL     OW30019   0.923   4.897   5.513  0.3410  0.3457  0.4590
 9707SOL    HW130020   1.010   4.938   5.540  0.7301 -0.1493  0.0008
 9707SOL    HW230021   0.920   4.802   5.542 -0.3616  0.5565  1.1102
 9708SOL     OW30022   2.276   1.215   1.568 -0.4448  0.1807 -0.8700
 9708SOL    HW130023   2.241   1.307   1.549  1.0122  1.0682  0.5829
 9708SOL    HW230024   2.374   1.212   1.548 -0.2699 -0.7564  0.0623
 9709SOL     OW30025   0.836   4.990   3.113  0.3877 -0.5712  0.2622
 9709SOL    HW130026   0.805   5.057   3.045  0.3209 -1.9090 -1.0772
 9709SOL    HW230027   0.934   5.004   3.131  0.5553 -0.5952 -0.5900
 9710SOL     OW30028   0.162   0.913   3.833 -0.4801  0.6733  0.1105
 9710SOL    HW130029   0.144   0.850   3.758 -1.2153 -0.2018  1.0044
 9710SOL    HW230030   0.112   0.884   3.914  1.0291  1.0605  1.2228
 9711SOL     OW30031   0.599   3.896   6.619  0.2917  0.5462 -0.1304
 9711SOL    HW130032   0.612   3.907   6.718  2.2401  1.0932 -0.4147
 9711SOL    HW230033   0.643   3.811   6.589 -0.0777  0.5077 -0.5817
 9712SOL     OW30034   4.978   3.597   3.980  0.1090  0.3601 -0.8282
 9712SOL    HW130035   4.923   3.670   3.940  1.5073  1.0182 -1.6339
 9712SOL    HW230036   5.011   3.625   4.070 -2.2990 -0.7615  0.4782
 9713SOL     OW30037   6.612   5.999   4.781  0.5617 -0.0743  0.2607
 9713SOL    HW130038   6.649   6.045   4.701 -2.0708  1.9900  0.1262
 9713SOL    HW230039   6.651   6.039   4.864  0.4971  0.3526  0.0838
 9714SOL     OW30040   3.445   2.138   1.549 -0.9004  0.4213 -0.5600
 9714SOL    HW130041   3.533   2.173   1.580  0.2345  1.8060 -4.6186
 9714SOL    HW230042   3.374   2.164   1.614  1.0328  3.4967  0.5547
 9715SOL     OW30043   1.826   4.954   6.568 -0.4664 -0.0241 -0.2542
 9715SOL    HW130044   1.813   4.857   6.548 -1.8787  0.3323 -1.2053
 9715SOL    HW230045   1.842   5.004   6.483 -1.9388  0.8729 -0.0410
 9716SOL     OW30046   4.447   1.336   4.052  0.5114 -0.1933 -0.1969
 9716SOL    HW130047   4.434   1.253   3.998  1.0148  0.5645 -1.5325
 9716SOL    HW230048   4.417   1.320   4.146 -1.4406 -1.2254 -0.9436
 9717SOL     OW30049   4.686   0.016   2.596  0.2849 -0.3792 -0.4980
 9717SOL    HW130050   4.705  -0.033   2.681 -0.1357  0.2227 -0.0498
 9717SOL    HW230051   4.762   0.078   2.576  0.2920 -0.3748 -0.4560
 9718SOL     OW30052   5.862   4.392   1.964  0.0317 -0.4248  0.3486
 9718SOL    HW130053   5.843   4.351   2.053  0.9661  0.3084  0.9041
 9718SOL    HW230054   5.776   4.419   1.921 -0.3810  0.0561  1.4452
 9719SOL     OW30055   0.139   2.799   6.398  0.3960  0.2353 -0.2116
 9719SOL    HW130056   0.145   2.710   6.354 -0.1592 -0.4878  1.1138
 9719SOL    HW230057   0.145   2.788   6.497 -1.0720  1.5264  0.0571
 9720SOL     OW30058   1.919   6.323   1.252  0.1525  0.8321 -0.0139
 9720SOL    HW130059   1.909   6.353   1.157 -1.8388 -0.0988 -0.1559
 9720SOL    HW230060   1.891   6.397   1.313 -1.8479  0.3342 -0.2767
 9721SOL     OW30061   0.207   1.773   5.018 -0.1358  1.0693 -0.7243
 9721SOL    HW130062   0.251   1.689   5.053 -1.3083  0.3242 -0.9789
 9721SOL    HW230063   0.253   1.801   4.934  0.9683  1.3243 -0.0667
 9722SOL     OW30064   1.281   6.929   5.096  0.4382 -0.3876  0.7330
 9722SOL    HW130065   1.258   6.844   5.142  2.6262 -1.1431  0.5252
 9722SOL    HW230066   1.282   7.004   5.163 -1.2127 -0.5269  0.9629
 9723SOL     OW30067   1.417   0.577   2.977  0.1033  0.6568 -0.0261
 9723SOL    HW130068   1.379   0.670   2.976 -1.2259  0.1404  1.1164
 9723SOL    HW230069   1.358   0.516   2.924  0.3513  0.2306  0.1819
 9724SOL     OW30070   3.793   1.593   1.196  0.0843  0.4419  0.5527
 9724SOL    HW130071   3.838   1.611   1.109  0.2654  2.3287  0.9836
 9724SOL    HW230072   3.847   1.528   1.249  1.4372  1.3893  0.3732
 9725SOL     OW30073   3.794   3.616   4.494 -0.3420 -0.3401 -0.5846
 9725SOL    HW130074   3.876   3.673   4.488 -0.8154  0.5037  0.5718
 9725SOL    HW230075   3.750   3.611   4.404  1.7226 -1.9972 -1.5759
 9726SOL     OW30076   5.553   6.394   3.116 -0.0702  0.1672 -0.1015
 9726SOL    HW130077   5.463   6.426   3.086 -2.1889 -4.4842  0.3603
 9726SOL    HW230078   5.588   6.328   3.050  2.2933  0.6144  0.6027
 9727SOL     OW30079   1.693   6.978   6.872 -0.0768 -0.1177  0.0453
 9727SOL    HW130080   1.740   6.890   6.881  1.1407  0.4093 -0.8709
 9727SOL    HW230081   1.595   6.964   6.882  0.0752 -1.6122 -0.2307
 9728SOL     OW30082   3.682   3.951   0.165 -0.6670 -0.4958  0.0897
 9728SOL    HW130083   3.764   3.985   0.212 -0.7304  0.6009 -0.5567
 9728SOL    HW230084   3.709   3.879   0.100 -0.0349  0.5825 -0.8845
 9729SOL     OW30085   1.012   0.019   2.368 -0.1847 -0.1604  0.1053
 9729SOL    HW130086   0.944   0.060   2.429 -0.8597  2.1607 -2.0722
 9729SOL    HW230087   1.102   0.059   2.387 -0.1545 -0.3591  0.3892
 9730SOL     OW30088   4.922   5.993   2.255  0.1451  0.0935  0.3118
 9730SOL    HW130089   4.974   5.907   2.261 -1.6178 -1.1916 -1.3706
 9730SOL    HW230090   4.985   6.070   2.251  1.8442 -1.2247  0.5361
 9731SOL     OW30091   3.339   5.226   2.007 -0.6215  0.0397  0.4917
 9731SOL    HW130092   3.266   5.274   1.959  0.7093  0.8621 -0.7851
 9731SOL    HW230093   3.341   5.130   1.977 -0.7550  0.1783  0.0363
 9732SOL     OW30094   5.962   6.363   2.027 -1.0746  0.3337  0.0418
 9732SOL    HW130095   5.958   6.355   2.127 -3.4131 -0.1742 -0.0353
 9732SOL    HW230096   6.018   6.441   2.002  0.6754 -0.3231  1.6927
 9733SOL     OW30097   3.556   3.448   6.472 -0.2848 -0.1636 -0.4584
 9733SOL    HW130098   3.458   3.463   6.456 -0.4909  0.5116  1.2204
 9733SOL    HW230099   3.570   3.416   6.566  1.1140 -0.2800 -0.6843
 9734SOL     OW30100   4.959   2.390   5.730 -0.3221 -0.2967 -0.3930
 9734SOL    HW130101   4.998   2.356   5.645  0.7435  0.5241 -0.2539
 9734SOL    HW230102   4.925   2.313   5.785 -0.2722 -0.8947 -1.1892
 9735SOL     OW30103   3.600   4.133   1.025  0.4174 -0.0040 -0.9240
 9735SOL    HW130104   3.654   4.053   1.048  1.6747  1.0791  0.0255
 9735SOL    HW230105   3.646   4.215   1.058 -0.8640  1.1189 -1.8140
 9736SOL     OW30106   3.067   0.541   1.276  1.1800  0.0402  0.3302
 9736SOL    HW130107   3.020   0.618   1.233  2.9660  0.1852 -1.4807
 9736SOL    HW230108   3.040   0.456   1.230  0.4742 -0.2596  1.2509
 9737SOL     OW30109   4.516   1.952   4.261  0.1682  0.0947  0.1826
 9737SOL    HW130110   4.592   1.959   4.325  1.0138 -1.1588 -0.6163
 9737SOL    HW230111   4.434   1.993   4.300  1.1893  1.2729  1.1629
 9738SOL     OW30112   3.727   0.659   0.794  0.4879 -0.3089 -0.6136
 9738SOL    HW130113   3.682   0.746   0.815  0.0125 -0.9590  1.2650
 9738SOL    HW230114   3.658   0.593   0.764  0.7129 -0.3123 -1.1278
 9739SOL     OW30115   0.467   5.651   2.358  0.6144 -0.1823  0.0217
 9739SOL    HW130116   0.560   5.614   2.356  0.9242  0.6121 -0.4011
 9739SOL    HW230117   0.466   5.738   2.405  0.1328 -0.0469 -0.2284
 9740SOL     OW30118   5.792   3.200   3.215  0.5343  0.0036  0.1760
 9740SOL    HW130119   5.799   3.159   3.305  1.0454 -1.3392 -0.4494
 9740SOL    HW230120   5.696   3.213   3.191  0.3898  0.0525  0.7690
 9741SOL     OW30121   2.495   0.828   2.608 -0.1795 -0.0771 -0.2110
 9741SOL    HW130122   2.442   0.891   2.551 -0.3784 -0.6790 -0.6997
 9741SOL    HW230123   2.591   0.832   2.582 -0.2970 -0.4931 -0.7396
 9742SOL     OW30124   4.451   2.398   3.617  0.0351 -0.6042 -0.5871
 9742SOL    HW130125   4.403   2.405   3.530 -1.9282 -0.3431  0.4647
 9742SOL    HW230126   4.385   2.399   3.692  1.7364  1.3455  1.0360
 9743SOL     OW30127   1.669   1.080   6.005 -0.6779 -0.3149  0.3677
 9743SOL    HW130128   1.633   1.002   6.058 -0.3290 -1.0898 -0.5110
 9743SOL    HW230129   1.625   1.083   5.916  0.9805 -0.9379 -0.5089
 9744SOL     OW30130   2.363   1.507   2.710  0.1873 -0.0099  0.3227
 9744SOL    HW130131   2.295   1.541   2.775 -0.3576 -0.5296  0.0328
 9744SOL    HW230132   2.454   1.516   2.750 -0.0469  0.6777  0.7214
 9745SOL     OW30133   0.404   1.556   4.363 -0.3261 -0.0646 -0.8582
 9745SOL    HW130134   0.451   1.644   4.350 -2.5429  1.0708 -1.7479
 9745SOL    HW230135   0.470   1.482   4.356  1.3370  1.4400 -1.9342
 9746SOL     OW30136   0.519   0.661   4.010  0.4488  0.0062 -0.7287
 9746SOL    HW130137   0.541   0.564   4.017 -0.4691 -0.2065 -0.6102
 9746SOL    HW230138   0.551   0.696   3.922  2.6077  0.1157  0.0389
 9747SOL     OW30139   5.865   1.459   1.155 -0.0401  0.2315 -0.8435
 9747SOL    HW130140   5.875   1.452   1.254 -1.0705  0.6580 -0.6880
 9747SOL    HW230141   5.820   1.546   1.132 -2.5287 -1.1224 -1.4383
 9748SOL     OW30142   2.216   3.906   2.921  0.1482 -0.0906 -0.2501
 9748SOL    HW130143   2.217   3.996   2.966  0.4460  0.1798 -0.7877
 9748SOL    HW230144   2.217   3.834   2.990  0.8967  0.3225  0.1777
 9749SOL     OW30145   0.385   3.953   3.533  0.1492 -0.1794  0.3171
 9749SOL    HW130146   0.393   3.861   3.495 -1.5052 -0.3258  0.2678
 9749SOL    HW230147   0.409   4.020   3.462 -0.7256 -0.5183 -0.3107
 9750SOL     OW30148   4.974   6.266   4.234 -0.1116  0.0679 -0.2481
 9750SOL    HW130149   4.991   6.285   4.331  1.1995 -0.0628 -0.4270
 9750SOL    HW230150   5.037   6.321   4.178 -1.1496  0.4805 -1.0572
 9751SOL     OW30151   1.159   1.828   0.417 -0.3912 -0.5877  0.2130
 9751SOL    HW130152   1.255   1.839   0.391  0.2482  0.6950  2.8359
 9751SOL    HW230153   1.151   1.763   0.492 -1.4925 -0.1107  0.5286
 9752SOL     OW30154   4.082   0.946   5.437  0.4212  0.0431 -0.3380
 9752SOL    HW130155   4.095   1.039   5.470 -1.1808  0.1568  0.0903
 9752SOL    HW230156   4.087   0.882   5.513  0.4970 -0.1104 -0.4709
 9753SOL     OW30157   1.093   0.499   5.650 -0.4560 -0.1337 -0.2948
 9753SOL    HW130158   1.092   0.592   5.688  1.2846 -0.9400  1.9427
 9753SOL    HW230159   1.171   0.489   5.588 -0.6504 -0.1027 -0.5444
 9754SOL     OW30160   6.637   2.664   1.607 -0.1706 -0.2023  0.4748
 9754SOL    HW130161   6.547   2.706   1.598  0.0089  0.0703 -0.0572
 9754SOL    HW230162   6.645   2.585   1.546  1.1775  1.8744 -2.2127
 9755SOL     OW30163   3.487   5.418   5.537 -0.2263  0.0986  0.1435
 9755SOL    HW130164   3.409   5.474   5.564  1.0632  2.0040  0.1364
 9755SOL    HW230165   3.510   5.435   5.441 -0.9479 -1.9289 -0.4453
 9756SOL     OW30166   5.552   2.369   5.844 -0.1517 -0.0890  0.6268
 9756SOL    HW130167   5.458   2.360   5.877  0.0194  1.7764  1.7716
 9756SOL    HW230168   5.616   2.355   5.919  0.4586 -0.3535  0.0685
 9757SOL     OW30169   0.618   1.718   5.047 -0.2925  0.4955  0.6992
 9757SOL    HW130170   0.587   1.813   5.052 -2.4018 -0.1990  1.5545
 9757SOL    HW230171   0.570   1.670   4.974  0.9639  0.1262  0.0821
 9758SOL     OW30172   3.184   0.090   0.221  0.4109 -0.5925  0.5126
 9758SOL    HW130173   3.154   0.081   0.315  0.6975 -1.9319  0.4876
 9758SOL    HW230174   3.280   0.063   0.213  0.7390  0.6022  0.0225
 9759SOL     OW30175   2.213   5.014   2.245 -0.3487  0.0561  0.5319
 9759SOL    HW130176   2.287   4.992   2.182 -1.3244  2.0481 -1.4506
 9759SOL    HW230177   2.193   5.112   2.241 -3.9498 -0.5618 -0.0738
 9760SOL     OW30178   4.400   4.707   0.438  0.1717  0.2799 -0.3883
 9760SOL    HW130179   4.381   4.793   0.486  0.0428  1.8423 -3.0604
 9760SOL    HW230180   4.488   4.713   0.392 -0.3584 -0.5484 -1.5815
 9761SOL     OW30181   6.279   4.779   2.785 -0.1146 -0.0274  0.3895
 9761SOL    HW130182   6.374   4.798   2.758 -0.1397 -2.4435 -1.8899
 9761SOL    HW230183   6.218   4.812   2.713 -0.8666  0.0726  1.0760
 9762SOL     OW30184   3.131   6.505   2.143  0.3289 -0.4735  0.1208
 9762SOL    HW130185   3.212   6.505   2.202 -0.3538  1.3072  1.1504
 9762SOL    HW230186   3.059   6.561   2.186 -1.4500 -1.9685 -0.7758
 9763SOL     OW30187   2.605   1.860   1.583 -0.0506 -0.5812 -0.4523
 9763SOL    HW130188   2.698   1.832   1.607  0.5542 -0.6034 -2.6365
 9763SOL    HW230189   2.556   1.782   1.544 -0.7344 -0.3692 -0.0280
 9764SOL     OW30190   2.301   2.921   3.429  0.0358  0.0028 -0.3883
 9764SOL    HW130191   2.233   2.872   3.375  0.3498 -0.3062 -0.5064
 9764SOL    HW230192   2.390   2.877   3.419  0.1276  0.0156  0.2729
 9765SOL     OW30193   6.060   1.302   6.933  0.1588 -0.2274  0.0975
 9765SOL    HW130194   6.026   1.237   6.865 -0.4163 -0.0033  0.1686
 9765SOL    HW230195   6.132   1.358   6.892 -2.1882  1.9486 -1.3099
 9766SOL     OW30196   2.271   1.928   3.496 -0.1918 -0.0913  0.5157
 9766SOL    HW130197   2.335   1.881   3.436 -1.1182 -1.6495  0.6817
 9766SOL    HW230198   2.312   1.941   3.586  1.4945  2.9416 -0.5610
 9767SOL     OW30199   4.247   6.202   4.579  0.4226 -0.3109  0.3470
 9767SOL    HW130200   4.304   6.209   4.497 -0.1881 -1.2919 -0.1781
 9767SOL    HW230201   4.198   6.115   4.578 -0.6502  0.2623  1.0785
 9768SOL     OW30202   4.479   2.316   3.994 -0.0099  0.5194 -0.8713
 9768SOL    HW130203   4.516   2.251   4.059  1.0798  1.2042 -0.7650
 9768SOL    HW230204   4.524   2.405   4.007 -1.0634  1.1438 -1.3670
 9769SOL     OW30205   6.447   0.724   1.256 -0.3785  0.4028 -0.6041
 9769SOL    HW130206   6.434   0.659   1.331 -1.5536  1.6644  0.3411
 9769SOL    HW230207   6.359   0.742   1.212 -0.1528  1.6300 -0.5924
 9770SOL     OW30208   0.872   2.445   5.893 -0.1021 -0.3480  0.2779
 9770SOL    HW130209   0.891   2.539   5.866  0.1115 -0.5448 -0.2619
 9770SOL    HW230210   0.927   2.423   5.974  0.9887 -0.4834 -0.4796
 9771SOL     OW30211   2.056   5.833   3.871  0.2969  0.9493  0.4860
 9771SOL    HW130212   2.149   5.833   3.835  0.4110  0.7498  0.7716
 9771SOL    HW230213   2.050   5.767   3.947  0.1400  1.5659  1.0204
 9772SOL     OW30214   5.779   0.539   0.290  0.0266 -0.5738 -0.0859
 9772SOL    HW130215   5.802   0.593   0.371 -1.5842 -0.4538  0.3280
 9772SOL    HW230216   5.774   0.598   0.210  2.0802 -0.7652 -0.3962
 9773SOL     OW30217   4.725   4.189   3.871 -0.1257  0.1094 -0.5196
 9773SOL    HW130218   4.753   4.103   3.914  3.5468  0.1387 -2.4271
 9773SOL    HW230219   4.696   4.254   3.941 -1.4704 -2.0958  1.1038
 9774SOL     OW30220   6.653   4.337   4.633 -0.2270  0.2219  0.4059
 9774SOL    HW130221   6.638   4.305   4.727  0.4135 -0.0016  0.4427
 9774SOL    HW230222   6.648   4.436   4.630 -2.5767  0.1422  0.2358
 9775SOL     OW30223   1.873   1.570   4.415  0.3451 -0.2291 -0.4577
 9775SOL    HW130224   1.968   1.600   4.421 -0.0674  1.4361 -1.6363
 9775SOL    HW230225   1.871   1.473   4.390  1.7380 -0.0645 -1.3483
 9776SOL     OW30226   0.861   4.626   5.470  0.0649  0.4295  0.1654
 9776SOL    HW130227   0.776   4.637   5.419  1.4463  0.1778 -2.3317
 9776SOL    HW230228   0.857   4.542   5.524 -0.6459 -0.5222 -1.3083
 9777SOL     OW30229   4.239   4.715   5.661  0.3721 -0.0857 -0.5481
 9777SOL    HW130230   4.332   4.702   5.696  0.9827 -1.4624 -2.4656
 9777SOL    HW230231   4.243   4.767   5.576 -0.8066  1.1105  0.0923
 9778SOL     OW30232   3.093   2.085   3.297 -0.9174  0.0508 -0.0755
 9778SOL    HW130233   3.137   2.071   3.208  1.3308  0.5272  0.8932
 9778SOL    HW230234   3.052   2.176   3.300  2.3495  1.6518  0.5737
 9779SOL     OW30235   4.054   1.165   3.946 -0.1186 -0.1663 -0.3764
 9779SOL    HW130236   4.045   1.116   4.033 -0.7683 -1.0054 -0.9070
 9779SOL    HW230237   3.963   1.187   3.911  0.1562  1.3993 -0.1740
 9780SOL     OW30238   3.241   4.276   0.503  0.0444 -0.1174 -0.4167
 9780SOL    HW130239   3.169   4.222   0.457  0.2111 -1.6054  0.9783
 9780SOL    HW230240   3.198   4.339   0.568 -0.1204  1.0513 -1.6285
 9781SOL     OW30241   1.702   4.728   2.145  0.0873 -0.3090 -0.3319
 9781SOL    HW130242   1.607   4.707   2.170 -0.1068  0.6969 -0.1785
 9781SOL    HW230243   1.763   4.687   2.212 -0.2198 -1.1670 -0.5627
 9782SOL     OW30244   5.156   1.404   6.426  0.3150  0.5757 -0.3388
 9782SOL    HW130245   5.160   1.502   6.410  0.9395  0.5777 -0.1968
 9782SOL    HW230246   5.062   1.371   6.412 -0.0353  1.2993  0.2829
 9783SOL     OW30247   5.400   0.667   2.245 -0.5905  0.1946 -0.2475
 9783SOL    HW130248   5.417   0.736   2.174 -0.4460 -0.1751 -0.5810
 9783SOL    HW230249   5.452   0.690   2.327  1.5521 -0.8825 -1.2284
 9784SOL     OW30250   6.440   0.882   6.284  0.4794  0.0521 -0.3630
 9784SOL    HW130251   6.392   0.891   6.197  0.7888 -0.1502 -0.5565
 9784SOL    HW230252   6.536   0.909   6.272  0.0178  2.2761  0.4406
 9785SOL     OW30253   1.883   3.235   1.547 -1.1801  0.1416 -0.2023
 9785SOL    HW130254   1.935   3.244   1.632 -0.4570 -0.6303 -0.5512
 9785SOL    HW230255   1.816   3.309   1.541  0.1057  1.3724  0.1023
 9786SOL     OW30256   2.594   6.514   2.484 -0.0411 -0.5527 -0.0570
 9786SOL    HW130257   2.568   6.555   2.572 -0.5704 -1.9845  0.4836
 9786SOL    HW230258   2.677   6.461   2.495  0.3460 -0.0770 -0.6299
 9787SOL     OW30259   6.607   6.371   3.473  0.5760 -0.6137  0.4531
 9787SOL    HW130260   6.553   6.295   3.437  1.0114 -0.6209 -0.2050
 9787SOL    HW230261   6.629   6.353   3.569  1.0464 -1.5429  0.1903
 9788SOL     OW30262   5.935   2.509   6.197  0.0861 -0.1343 -0.1365
 9788SOL    HW130263   5.964   2.448   6.124 -0.0719  1.3897 -1.5253
 9788SOL    HW230264   5.984   2.486   6.282 -0.6654 -2.7634 -0.3246
 9789SOL     OW30265   7.019   5.975   6.206 -0.0396  0.1510 -0.6681
 9789SOL    HW130266   6.981   6.057   6.248 -0.1453  0.3073 -1.0604
 9789SOL    HW230267   6.962   5.896   6.229 -0.4154  0.3277 -0.9728
 9790SOL     OW30268   1.685   0.580   3.810  0.1514  0.0542 -0.6791
 9790SOL    HW130269   1.756   0.647   3.792  0.3759  0.1756  0.5423
 9790SOL    HW230270   1.698   0.541   3.901  0.5749 -2.3552 -1.7045
 9791SOL     OW30271   0.371   3.250   5.630 -0.0209  0.2174  0.0771
 9791SOL    HW130272   0.443   3.316   5.650  0.0966 -0.2998  1.4307
 9791SOL    HW230273   0.391   3.164   5.676 -0.5815 -0.5265 -1.0192
 9792SOL     OW30274   2.592   5.460   0.780  0.5163 -0.1540 -0.1371
 9792SOL    HW130275   2.604   5.364   0.755 -1.4451 -0.2604 -0.8670
 9792SOL    HW230276   2.499   5.489   0.756  0.9670  1.8458  0.3664
 9793SOL     OW30277   5.257   5.419   2.729 -0.1549 -0.1101  0.6495
 9793SOL    HW130278   5.327   5.468   2.677 -0.9059 -0.5548 -0.8510
 9793SOL    HW230279   5.204   5.361   2.667 -0.3901 -1.5266  2.1074
 9794SOL     OW30280   3.668   2.693   5.384  0.1373 -0.1181  0.2957
 9794SOL    HW130281   3.696   2.717   5.291 -1.9178 -2.9828 -1.2211
 9794SOL    HW230282   3.591   2.751   5.411  0.9167  0.9123  0.3623
 9795SOL     OW30283   2.598   5.249   2.157  0.1804 -0.0493  0.7706
 9795SOL    HW130284   2.689   5.290   2.161  0.7205 -0.9937 -0.8223
 9795SOL    HW230285   2.593   5.188   2.078 -1.8066 -0.1176  0.9087
 9796SOL     OW30286   3.070   3.679   0.466  0.4533  0.2645 -0.0296
 9796SOL    HW130287   3.057   3.765   0.516 -1.6669 -0.5782  1.0113
 9796SOL    HW230288   3.168   3.663   0.453  0.9971  1.7569  1.6818
 9797SOL     OW30289   4.802   1.367   4.476  0.6875 -0.2511 -0.5787
 9797SOL    HW130290   4.805   1.271   4.448  0.0676 -0.3534 -0.3048
 9797SOL    HW230291   4.893   1.394   4.508  1.0398 -0.5475 -1.2942
 9798SOL     OW30292   3.896   5.706   1.154  0.1062  0.3433  0.0038
 9798SOL    HW130293   3.857   5.775   1.093  2.6285  0.6376 -1.3953
 9798SOL    HW230294   3.875   5.730   1.249 -2.4990  0.7679 -0.5943
 9799SOL     OW30295   3.260   3.844   1.391  0.2261 -0.4799  0.2631
 9799SOL    HW130296   3.273   3.854   1.293 -0.7887 -2.1758 -0.0810
 9799SOL    HW230297   3.201   3.918   1.425  2.0522  1.1665 -0.0349
 9800SOL     OW30298   3.390   4.913   2.224 -0.0203  0.1200  0.1232
 9800SOL    HW130299   3.463   4.980   2.231  0.2890 -0.0269 -1.3520
 9800SOL    HW230300   3.409   4.851   2.148 -1.9254  0.3897 -0.6283
 9801SOL     OW30301   6.646   6.256   0.497  0.0422  0.2488 -0.7807
 9801SOL    HW130302   6.727   6.315   0.507  0.1932  0.1864 -1.5716
 9801SOL    HW230303   6.668   6.164   0.529 -0.4249  0.7744  1.2004
 9802SOL     OW30304   1.807   5.598   4.112 -0.1259 -0.3723  0.5329
 9802SOL    HW130305   1.773   5.675   4.058 -1.3568 -2.4607 -1.8668
 9802SOL    HW230306   1.903   5.582   4.091  0.3076  0.8112  1.4979
 9803SOL     OW30307   6.517   0.105   0.466 -0.4478  0.4504  0.1413
 9803SOL    HW130308   6.479   0.196   0.448 -1.4634  0.1669  0.8087
 9803SOL    HW230309   6.459   0.057   0.530  0.1760 -0.6252 -0.0837
 9804SOL     OW30310   5.556   4.926   5.179 -0.1163 -0.5095 -0.5579
 9804SOL    HW130311   5.469   4.969   5.157  0.7229 -0.4791 -4.6902
 9804SOL    HW230312   5.625   4.996   5.199 -0.4761 -0.4381  0.5164
 9805SOL     OW30313   4.234   3.024   0.885  0.5870 -0.1214 -0.0603
 9805SOL    HW130314   4.197   3.062   0.800  0.4502 -2.1096 -0.9475
 9805SOL    HW230315   4.255   3.099   0.949 -0.5715  1.3404 -1.3076
 9806SOL     OW30316   6.884   0.557   0.532  0.3041 -0.0980  0.3296
 9806SOL    HW130317   6.819   0.625   0.500  0.5136  0.6637  1.4779
 9806SOL    HW230318   6.963   0.603   0.573  2.1678 -0.9445 -2.0833
 9807SOL     OW30319   1.221   3.027   6.926  0.4681 -0.4021 -0.6471
 9807SOL    HW130320   1.212   2.931   6.950  1.0218 -0.3705 -0.2721
 9807SOL    HW230321   1.171   3.083   6.992  2.3165 -0.2918  0.7438
 9808SOL     OW30322   1.890   0.875   4.954  0.4962  0.4281  0.3014
 9808SOL    HW130323   1.952   0.798   4.942 -0.6883 -0.4489 -0.3693
 9808SOL    HW230324   1.940   0.960   4.935  1.4347 -0.2588 -0.4614
 9809SOL     OW30325   0.910   6.772   6.552 -0.6127  0.6327  0.3060
 9809SOL    HW130326   0.880   6.855   6.599 -0.6764  1.2759 -0.8332
 9809SOL    HW230327   0.845   6.749   6.481 -0.4675 -0.2695  0.4614
 9810SOL     OW30328   3.181   1.055   2.021 -0.2562  0.7218  0.1269
 9810SOL    HW130329   3.243   0.989   2.063  0.8071  1.3692 -0.3906
 9810SOL    HW230330   3.108   1.007   1.974 -0.1027 -0.0610  0.6672
 9811SOL     OW30331   1.752   0.218   3.495  0.5306 -0.2393  0.0328
 9811SOL    HW130332   1.748   0.289   3.424  0.4500 -0.6283 -0.3559
 9811SOL    HW230333   1.797   0.255   3.576 -0.1215  0.4760  0.0903
 9812SOL     OW30334   5.184   3.873   6.376  0.1616 -0.2593  0.0375
 9812SOL    HW130335   5.206   3.964   6.412  0.4883  0.5139 -1.9994
 9812SOL    HW230336   5.085   3.863   6.368  0.1592  0.5690 -1.2399
 9813SOL     OW30337   6.899   4.808   6.669  0.2999  0.2938 -0.3331
 9813SOL    HW130338   6.877   4.892   6.719 -1.4818  1.0337 -2.2031
 9813SOL    HW230339   6.993   4.813   6.636  1.1096  0.3118  1.8102
 9814SOL     OW30340   6.825   5.914   5.470  0.1750  0.5542 -0.4033
 9814SOL    HW130341   6.787   5.991   5.522  2.2643  0.1995  1.8483
 9814SOL    HW230342   6.901   5.947   5.413  2.5636  0.0155  2.2337
 9815SOL     OW30343   6.414   6.741   3.488 -0.0653 -0.3512  0.6881
 9815SOL    HW130344   6.376   6.654   3.518 -0.2387  0.0090  1.5746
 9815SOL    HW230345   6.432   6.739   3.390 -1.6537 -0.7922  0.3832
 9816SOL     OW30346   6.334   0.948   0.089  0.1067 -0.2896  0.2485
 9816SOL    HW130347   6.237   0.952   0.111 -1.1623 -1.5127 -4.0590
 9816SOL    HW230348   6.368   1.041   0.074 -1.6307  0.0672 -2.1170
 9817SOL     OW30349   2.613   1.857   0.408 -0.2021  0.3782 -0.6267
 9817SOL    HW130350   2.711   1.860   0.389 -0.2706  1.0623 -0.8915
 9817SOL    HW230351   2.576   1.770   0.374  0.3209  0.0768 -0.4460
 9818SOL     OW30352   1.091   0.112   3.599 -0.4588 -0.4786  0.3266
 9818SOL    HW130353   1.174   0.070   3.560 -0.3897 -1.2837  1.3095
 9818SOL    HW230354   1.011   0.082   3.546 -0.1371  0.3585 -0.6738
 9819SOL     OW30355   6.134   2.226   5.134  0.2251  0.2746  0.3033
 9819SOL    HW130356   6.083   2.140   5.139 -0.8168  0.9141  1.3970
 9819SOL    HW230357   6.171   2.247   5.225  2.2134 -0.0009 -0.3863
 9820SOL     OW30358   5.393   1.851   5.865  0.4868  0.1360 -0.1647
 9820SOL    HW130359   5.411   1.939   5.821  1.6646 -0.4735 -0.9446
 9820SOL    HW230360   5.464   1.832   5.933 -0.8492  0.6736  1.4814
 9821SOL     OW30361   3.760   2.619   0.719 -0.3076 -0.9833 -0.7167
 9821SOL    HW130362   3.784   2.711   0.750 -0.9259 -0.2113 -2.4182
 9821SOL    HW230363   3.799   2.552   0.781 -1.0404  0.4448  1.3780
 9822SOL     OW30364   3.886   5.274   4.010 -0.3751  0.2729  0.0320
 9822SOL    HW130365   3.919   5.368   4.008  0.4316 -0.0031 -0.1526
 9822SOL    HW230366   3.831   5.259   4.092  0.3356  0.6309  0.5807
 9823SOL     OW30367   4.233   0.357   4.450 -0.1329 -0.0274  0.1376
 9823SOL    HW130368   4.265   0.432   4.392 -1.9582  0.4651 -0.2849
 9823SOL    HW230369   4.203   0.392   4.538  1.0368 -0.5653  0.7740
 9824SOL     OW30370   1.005   5.667   6.146 -0.2900  0.2288 -0.0898
 9824SOL    HW130371   0.913   5.627   6.137 -0.3478  0.2727  0.3104
 9824SOL    HW230372   1.019   5.734   6.073 -0.2049 -0.4918 -0.7574
 9825SOL     OW30373   0.549   4.669   4.673  0.5269 -0.0069 -0.0776
 9825SOL    HW130374   0.567   4.765   4.652  1.0347 -0.5355 -2.2917
 9825SOL    HW230375   0.636   4.621   4.685  0.4302 -0.7721 -2.0531
 9826SOL     OW30376   1.693   0.431   5.799 -0.4621  0.6042 -0.3888
 9826SOL    HW130377   1.742   0.497   5.856 -0.4838  1.0649 -0.8955
 9826SOL    HW230378   1.745   0.414   5.716 -0.8431  0.6005 -0.6312
 9827SOL     OW30379   0.324   5.949   6.997  0.1770  0.1116 -0.4063
 9827SOL    HW130380   0.230   5.918   6.984  0.9196 -3.3819  1.2675
 9827SOL    HW230381   0.326   6.020   7.067 -1.1076 -1.5879  1.4898
 9828SOL     OW30382   4.531   1.928   5.572 -0.5879 -1.1054 -0.0526
 9828SOL    HW130383   4.488   1.988   5.639  2.6522 -0.9817  2.1178
 9828SOL    HW230384   4.575   1.983   5.501  0.0643 -1.0197  0.4152
 9829SOL     OW30385   0.213   5.551   4.109  0.3232  0.2790  0.3206
 9829SOL    HW130386   0.263   5.466   4.123  0.4574  0.1776 -0.7457
 9829SOL    HW230387   0.262   5.626   4.155  2.5433  0.5302 -2.2145
 9830SOL     OW30388   6.114   0.710   4.018 -0.3477 -0.5242 -0.3748
 9830SOL    HW130389   6.119   0.625   3.964 -0.2734 -0.6086 -0.2359
 9830SOL    HW230390   6.139   0.690   4.113 -2.8681 -0.8889  0.2871
 9831SOL     OW30391   5.828   5.918   1.902 -0.2702 -0.4835 -0.0920
 9831SOL    HW130392   5.786   5.884   1.818 -0.3416  0.0218 -0.2608
 9831SOL    HW230393   5.861   6.011   1.888  0.8196 -0.8356  0.0713
 9832SOL     OW30394   3.657   5.890   5.031 -0.7677 -0.1212 -0.0290
 9832SOL    HW130395   3.694   5.890   4.938 -2.1806  0.7473 -0.6196
 9832SOL    HW230396   3.559   5.906   5.028 -0.9373 -0.7170  1.5954
 9833SOL     OW30397   2.896   3.604   3.635 -0.6075 -0.3354 -0.1187
 9833SOL    HW130398   2.866   3.521   3.683 -0.4504  0.0377  0.6531
 9833SOL    HW230399   2.935   3.580   3.546  1.2329 -1.3008  0.8851
 9834SOL     OW30400   3.054   6.204   4.955 -0.4154  0.2565  0.0153
 9834SOL    HW130401   3.118   6.179   4.882 -0.4792  0.1952 -0.0197
 9834SOL    HW230402   2.963   6.170   4.932 -0.3516 -0.1390  0.3255
 9835SOL     OW30403   3.906   4.107   4.971 -0.4251 -0.5886  0.3129
 9835SOL    HW130404   3.864   4.075   5.057  1.7820 -1.6879  1.0432
 9835SOL    HW230405   3.980   4.171   4.992  0.0294 -0.7411 -0.7831
 9836SOL     OW30406   6.751   3.144   4.035 -0.2286 -0.5396  0.2857
 9836SOL    HW130407   6.795   3.084   3.968 -0.9187  0.2846 -0.9431
 9836SOL    HW230408   6.789   3.236   4.027 -0.2243 -0.4540  1.1434
 9837SOL     OW30409   0.984   6.904   4.372  0.3224  0.0889 -0.3487
 9837SOL    HW130410   0.989   6.898   4.273  0.7650 -1.2377 -0.2699
 9837SOL    HW230411   0.955   6.816   4.410  0.4265  0.4878  0.7105
 9838SOL     OW30412   5.822   4.324   0.137  0.1986  0.0528  0.3242
 9838SOL    HW130413   5.825   4.401   0.200  1.2055  0.0555  0.2982
 9838SOL    HW230414   5.881   4.343   0.059 -2.2679  0.7354 -1.4712
 9839SOL     OW30415   3.457   0.494   2.889 -0.8122  0.8521 -0.1886
 9839SOL    HW130416   3.380   0.459   2.942 -0.6303  1.0530  0.2110
 9839SOL    HW230417   3.534   0.431   2.896  0.0979  2.1064  1.9189
 9840SOL     OW30418   6.020   2.272   6.047  0.4852 -0.1178  0.3849
 9840SOL    HW130419   6.082   2.269   5.969  1.7907  1.7228  1.2862
 9840SOL    HW230420   5.953   2.198   6.039  2.0614 -1.4598 -1.2080
 9841SOL     OW30421   0.277   1.671   1.857 -0.4761  0.4512  0.4141
 9841SOL    HW130422   0.225   1.739   1.806 -0.2368  1.1526  1.0879
 9841SOL    HW230423   0.215   1.604   1.898 -0.7048  0.2001 -0.3252
 9842SOL     OW30424   1.612   6.367   0.954 -0.7108  0.1224  0.2719
 9842SOL    HW130425   1.545   6.426   0.998 -0.8683 -0.5710  0.9829
 9842SOL    HW230426   1.704   6.392   0.985 -0.4228  2.1483 -1.9190
 9843SOL     OW30427   6.712   1.119   0.647 -0.5887  0.1998  0.2522
 9843SOL    HW130428   6.639   1.125   0.714  0.1442  1.2831  0.9851
 9843SOL    HW230429   6.681   1.159   0.560 -0.3398  2.2459  1.0568
 9844SOL     OW30430   5.434   6.491   4.561 -0.4755  0.1008 -0.2560
 9844SOL    HW130431   5.344   6.526   4.537  0.3104  1.2873 -1.7054
 9844SOL    HW230432   5.504   6.554   4.526  0.9131 -0.8118  0.7818
 9845SOL     OW30433   1.477   3.620   3.356  0.0855  0.0986 -0.6665
 9845SOL    HW130434   1.564   3.649   3.397 -0.3656  2.1767 -1.0754
 9845SOL    HW230435   1.455   3.680   3.279 -2.0218  0.0540 -0.1562
 9846SOL     OW30436   5.269   3.129   1.115  0.0267  0.0197 -0.0030
 9846SOL    HW130437   5.335   3.204   1.123  0.2965 -0.3217  1.2574
 9846SOL    HW230438   5.229   3.111   1.205 -1.5339 -0.0152 -0.6747
 9847SOL     OW30439   3.712   3.727   7.015  0.5027  0.3047 -0.3383
 9847SOL    HW130440   3.797   3.727   6.964  0.7454 -0.5604  0.0444
 9847SOL    HW230441   3.686   3.633   7.037 -0.3884  0.5750 -0.1820
 9848SOL     OW30442   3.554   2.873   5.943 -0.1502 -0.2083 -0.4505
 9848SOL    HW130443   3.510   2.888   5.855 -0.8791 -0.0544 -0.0670
 9848SOL    HW230444   3.552   2.776   5.966  0.9036 -0.3809 -1.0407
 9849SOL     OW30445   1.534   1.654   2.278 -0.1134  0.1910 -0.2264
 9849SOL    HW130446   1.509   1.743   2.315  0.3632  0.7291 -1.1523
 9849SOL    HW230447   1.628   1.632   2.305 -0.1425  0.0853 -0.2110
 9850SOL     OW30448   2.716   6.141   5.334 -0.4796  0.0866  0.9773
 9850SOL    HW130449   2.691   6.166   5.427  0.1573  0.1646  1.1301
 9850SOL    HW230450   2.815   6.149   5.323 -0.4808 -0.5596  0.4826
 9851SOL     OW30451   5.288   4.975   3.757 -0.7318 -0.3992 -0.1567
 9851SOL    HW130452   5.376   4.954   3.800 -1.3557 -1.5419  0.6391
 9851SOL    HW230453   5.224   4.900   3.776 -2.2878  1.0408  0.4890
 9852SOL     OW30454   1.789   5.947   1.406  0.0660  0.2119 -0.1215
 9852SOL    HW130455   1.756   5.870   1.461  0.4328  0.3449  0.2929
 9852SOL    HW230456   1.741   6.030   1.433  0.4845  0.3400  0.2358
 9853SOL     OW30457   5.791   4.459   2.468  0.1065 -0.1441  0.6713
 9853SOL    HW130458   5.723   4.493   2.402  1.5891  0.8993 -0.3921
 9853SOL    HW230459   5.866   4.416   2.418  0.6590 -0.4797  1.7724
 9854SOL     OW30460   4.537   4.835   1.676 -0.1696 -0.4587 -0.3580
 9854SOL    HW130461   4.553   4.841   1.775  0.9637 -0.4279 -0.5302
 9854SOL    HW230462   4.439   4.843   1.658 -0.7919 -3.6815  1.0005
 9855SOL     OW30463   1.329   5.665   0.292  0.5414  0.4872 -1.0073
 9855SOL    HW130464   1.284   5.631   0.209 -2.0439  2.9010 -0.7548
 9855SOL    HW230465   1.304   5.761   0.307  1.0162  0.2110  2.4910
 9856SOL     OW30466   5.105   4.637   2.893  0.2959 -0.5173 -0.0126
 9856SOL    HW130467   5.047   4.628   2.974 -0.3302 -1.5941 -0.5673
 9856SOL    HW230468   5.049   4.667   2.816  0.8297  0.1786 -0.1365
 9857SOL     OW30469   4.193   6.186   5.235  0.0134  0.2809 -0.2680
 9857SOL    HW130470   4.164   6.246   5.161 -1.2546 -0.2236 -0.2056
 9857SOL    HW230471   4.127   6.191   5.310  1.1290  0.5762  0.7349
 9858SOL     OW30472   6.700   5.925   0.958 -0.2177  0.3014 -0.1732
 9858SOL    HW130473   6.657   5.997   0.904  0.1532  0.6402 -0.0284
 9858SOL    HW230474   6.779   5.963   1.007 -0.5902  0.0256  0.6664
 9859SOL     OW30475   0.585   4.878   3.139  0.1628 -0.2679 -0.2379
 9859SOL    HW130476   0.511   4.945   3.133  1.5959  1.4280  0.0236
 9859SOL    HW230477   0.670   4.919   3.103  1.2875 -1.6372  0.7434
 9860SOL     OW30478   1.608   3.333   4.321  0.3013 -0.3210 -0.2650
 9860SOL    HW130479   1.634   3.423   4.355 -0.3307 -0.3559  0.3383
 9860SOL    HW230480   1.540   3.343   4.248 -0.1251 -0.3161  0.1269
 9861SOL     OW30481   2.086   1.856   5.324  0.1278 -0.0586 -0.0384
 9861SOL    HW130482   2.106   1.770   5.277  0.3766 -0.7989  1.3610
 9861SOL    HW230483   2.171   1.897   5.356 -0.1828 -0.7866  1.8072
 9862SOL     OW30484   0.840   2.137   1.124  0.1363 -0.3413 -0.2622
 9862SOL    HW130485   0.861   2.204   1.196  1.9952  0.4450 -1.4435
 9862SOL    HW230486   0.742   2.122   1.120 -0.2159  1.3201  0.9405
 9863SOL     OW30487   4.723   4.957   2.135  0.4303 -0.1303  0.0005
 9863SOL    HW130488   4.675   5.045   2.129  0.8632  0.1911  1.0709
 9863SOL    HW230489   4.814   4.971   2.173  0.0204 -1.2041  1.4520
 9864SOL     OW30490   2.387   5.377   6.716 -0.2657  0.5549 -0.2783
 9864SOL    HW130491   2.424   5.464   6.682 -0.3358  0.5410 -0.3870
 9864SOL    HW230492   2.463   5.314   6.733 -0.3352 -0.0770 -2.1191
 9865SOL     OW30493   3.201   0.719   3.792  0.8294 -0.2772 -0.9234
 9865SOL    HW130494   3.261   0.689   3.866 -0.5658 -1.6380 -0.3035
 9865SOL    HW230495   3.128   0.777   3.830 -1.8217 -3.5560 -0.5432
 9866SOL     OW30496   0.005   6.185   6.403 -0.0699 -0.2262 -0.3667
 9866SOL    HW130497  -0.004   6.115   6.474 -1.1337 -0.7560 -1.0032
 9866SOL    HW230498   0.069   6.255   6.434  1.6296 -1.8438 -0.0209
 9867SOL     OW30499   4.204   2.081   1.494 -0.1452 -0.0051 -0.0297
 9867SOL    HW130500   4.229   2.178   1.495 -1.2371  0.2933 -0.0665
 9867SOL    HW230501   4.187   2.052   1.400 -3.1292  0.7060  0.1834
 9868SOL     OW30502   2.885   5.093   2.108  0.8489  0.8617 -0.0338
 9868SOL    HW130503   2.951   5.017   2.112 -0.2581 -0.2030 -1.0218
 9868SOL    HW230504   2.851   5.112   2.200  1.6443  0.6268  0.3185
 9869SOL     OW30505   6.774   1.112   3.176 -0.5485  0.3182  0.2445
 9869SOL    HW130506   6.823   1.180   3.121  1.4028 -0.6679  0.6804
 9869SOL    HW230507   6.733   1.156   3.256 -0.6183  1.2169 -0.2773
 9870SOL     OW30508   0.763   3.259   2.746 -0.1412  0.4379  0.2672
 9870SOL    HW130509   0.692   3.303   2.801 -1.1420 -0.0950 -0.5395
 9870SOL    HW230510   0.760   3.160   2.760  0.1585  0.3751 -0.0895
 9871SOL     OW30511   5.332   4.055   4.940  0.3891  0.0189  0.4986
 9871SOL    HW130512   5.292   4.017   5.023 -0.1714  0.1803  0.3009
 9871SOL    HW230513   5.264   4.056   4.867  0.6875  0.4910  0.2204
 9872SOL     OW30514   1.238   0.927   4.720  0.0685 -0.2096  0.0535
 9872SOL    HW130515   1.186   0.845   4.694 -1.2300  0.4168  0.6251
 9872SOL    HW230516   1.236   0.993   4.645  0.4997 -0.3919 -0.1245
 9873SOL     OW30517   1.103   6.595   6.653 -0.0233 -0.0451  0.4624
 9873SOL    HW130518   1.100   6.504   6.611  0.1007  0.7566 -1.3742
 9873SOL    HW230519   1.053   6.660   6.595  1.4216  1.4052  0.7662
 9874SOL     OW30520   6.819   1.961   4.168  0.0943  0.0168 -0.6131
 9874SOL    HW130521   6.888   1.986   4.100  0.5010  0.7521  0.0527
 9874SOL    HW230522   6.817   2.030   4.240 -0.3673 -0.7195  0.0959
 9875SOL     OW30523   6.266   6.739   0.318 -0.4885  0.0976  0.1941
 9875SOL    HW130524   6.183   6.793   0.304 -0.3280  0.2560 -0.1621
 9875SOL    HW230525   6.345   6.791   0.287 -0.3065 -0.2372  0.0884
 9876SOL     OW30526   1.945   2.958   5.069  0.9724  0.7562 -0.3416
 9876SOL    HW130527   1.975   2.887   5.133  0.1448  0.3484 -0.3838
 9876SOL    HW230528   2.012   2.967   4.995  0.4974 -0.8922 -1.0258
 9877SOL     OW30529   1.942   0.043   4.632  0.2097  0.3525 -0.4997
 9877SOL    HW130530   1.860   0.008   4.588  0.8398  0.4093 -1.7802
 9877SOL    HW230531   2.009  -0.030   4.642  0.7329  0.6996 -1.2785
 9878SOL     OW30532   3.747   1.446   6.339  0.0331  0.6081  0.4833
 9878SOL    HW130533   3.663   1.401   6.309  0.0694 -0.3094  1.6787
 9878SOL    HW230534   3.732   1.489   6.428  1.3183 -1.2352  1.6496
 9879SOL     OW30535   4.917   5.415   2.687 -0.5258  0.6513 -0.4891
 9879SOL    HW130536   4.897   5.460   2.600 -1.5965 -1.2534 -1.3036
 9879SOL    HW230537   4.835   5.367   2.719 -0.3362  1.7986  1.9239
 9880SOL     OW30538   5.248   1.393   1.146 -0.1912 -0.2250  0.0782
 9880SOL    HW130539   5.261   1.375   1.048 -0.7584 -3.0285  0.4267
 9880SOL    HW230540   5.162   1.442   1.159 -0.9785 -1.2999 -0.7795
 9881SOL     OW30541   0.284   6.657   3.377  0.2081 -0.0810  0.0044
 9881SOL    HW130542   0.375   6.643   3.416 -0.7179  0.2148  2.4429
 9881SOL    HW230543   0.240   6.568   3.363  0.3711 -0.1662  0.0278
 9882SOL     OW30544   2.914   3.623   4.630 -0.1147 -0.3386 -0.1426
 9882SOL    HW130545   2.920   3.546   4.566  1.0594 -0.3001 -0.1004
 9882SOL    HW230546   3.006   3.644   4.665 -0.5397  0.5808  0.4395
 9883SOL     OW30547   1.397   3.830   4.075 -0.0841  0.7135 -0.4328
 9883SOL    HW130548   1.446   3.760   4.023 -2.1437 -1.2145  0.0500
 9883SOL    HW230549   1.374   3.907   4.014  3.9740  2.0875 -0.5077
 9884SOL     OW30550   2.855   2.735   5.461  0.4816  0.0197 -0.0748
 9884SOL    HW130551   2.876   2.804   5.392 -0.5319 -1.2150 -1.6694
 9884SOL    HW230552   2.781   2.767   5.520  0.5391  0.5777 -0.3024
 9885SOL     OW30553   4.539   1.955   4.675  0.3976 -0.4111  0.0763
 9885SOL    HW130554   4.539   1.949   4.775  1.5466  0.9119  0.1867
 9885SOL    HW230555   4.447   1.976   4.643  0.3586  0.9745  1.0118
 9886SOL     OW30556   1.908   0.022   2.334 -0.2500 -0.0422  0.2848
 9886SOL    HW130557   1.819  -0.016   2.361 -0.2732  0.5083  1.0429
 9886SOL    HW230558   1.974   0.007   2.407  0.2728 -0.4119 -0.2630
 9887SOL     OW30559   2.325   1.176   6.800 -0.0848  0.1245 -0.1444
 9887SOL    HW130560   2.294   1.223   6.717  1.2029 -0.8708 -1.2187
 9887SOL    HW230561   2.389   1.235   6.849 -0.2275  0.3938 -0.2772
 9888SOL     OW30562   5.496   6.220   4.587 -0.4682  0.2844  0.3841
 9888SOL    HW130563   5.455   6.311   4.576 -1.2936 -0.2517 -1.6821
 9888SOL    HW230564   5.595   6.228   4.592 -0.4704  1.2784 -0.6542
 9889SOL     OW30565   0.376   6.527   2.991 -0.1375  0.5395 -0.3409
 9889SOL    HW130566   0.286   6.534   3.034 -0.7168 -0.8159 -1.2466
 9889SOL    HW230567   0.372   6.567   2.900  0.2393  0.6485 -0.3093
 9890SOL     OW30568   1.436   3.265   2.126 -0.2182 -0.6066 -0.2482
 9890SOL    HW130569   1.513   3.321   2.157 -0.8485  0.3752 -0.4222
 9890SOL    HW230570   1.417   3.195   2.194  0.2195 -0.2490  0.2534
 9891SOL     OW30571   5.203   6.732   2.115 -0.2687 -0.3202 -0.3669
 9891SOL    HW130572   5.153   6.811   2.079 -1.3321 -0.8118 -0.0045
 9891SOL    HW230573   5.150   6.649   2.099  1.2462 -1.0915 -1.5313
 9892SOL     OW30574   1.654   4.616   1.511 -0.2587 -0.6208 -0.0556
 9892SOL    HW130575   1.705   4.531   1.525  1.0140 -0.0916 -1.3859
 9892SOL    HW230576   1.710   4.682   1.462 -2.4429 -0.2660 -2.2677
 9893SOL     OW30577   6.253   3.901   5.821 -0.1144 -0.3896 -0.0375
 9893SOL    HW130578   6.155   3.888   5.804 -1.0082  1.7696  2.7845
 9893SOL    HW230579   6.286   3.979   5.768 -0.8845  1.1365  1.6101
 9894SOL     OW30580   5.295   4.248   0.499  0.3180  0.1979 -0.1948
 9894SOL    HW130581   5.263   4.305   0.424  0.9653 -0.0064 -0.6326
 9894SOL    HW230582   5.387   4.277   0.526  0.8052 -0.8726 -0.6730
 9895SOL     OW30583   5.180   0.643   0.612  0.1104  0.3488  0.3370
 9895SOL    HW130584   5.125   0.714   0.656 -1.1711 -0.1934 -0.3363
 9895SOL    HW230585   5.128   0.557   0.611  0.8100 -0.0768 -0.6882
 9896SOL     OW30586   2.153   2.880   6.776 -0.8835  0.1316 -0.6281
 9896SOL    HW130587   2.183   2.940   6.850 -0.5917 -0.3929 -0.3167
 9896SOL    HW230588   2.195   2.790   6.787 -0.2744  0.2436 -1.8205
 9897SOL     OW30589   0.633   1.928   3.509  0.5691 -0.6418  0.0060
 9897SOL    HW130590   0.607   1.833   3.528 -0.5371 -0.8258 -2.1074
 9897SOL    HW230591   0.733   1.935   3.508  0.6697 -1.7752  0.1752
 9898SOL     OW30592   6.973   5.665   5.796  0.5756  0.3082 -0.6523
 9898SOL    HW130593   6.968   5.614   5.882  2.3236 -0.1438 -0.7707
 9898SOL    HW230594   6.956   5.604   5.720 -1.0934  0.7351 -0.6427
 9899SOL     OW30595   3.683   6.074   2.720 -0.3662  0.4420 -0.3451
 9899SOL    HW130596   3.591   6.059   2.757 -0.8056  1.1407 -1.1190
 9899SOL    HW230597   3.676   6.124   2.634  0.7559  0.6661 -0.3150
 9900SOL     OW30598   4.775   5.968   2.475  0.2268 -0.1541 -0.1684
 9900SOL    HW130599   4.852   5.940   2.532  0.0665 -1.6190 -0.6380
 9900SOL    HW230600   4.804   5.971   2.379 -0.2083 -0.3695 -0.3071
 9901SOL     OW30601   3.305   1.059   3.844 -0.3883 -0.1332 -0.2973
 9901SOL    HW130602   3.264   1.025   3.929 -0.7735 -0.4123 -0.5883
 9901SOL    HW230603   3.252   1.025   3.766 -0.4527  0.6915 -0.6241
 9902SOL     OW30604   4.147   3.975   6.625 -0.3642  0.3016 -0.2443
 9902SOL    HW130605   4.221   3.948   6.686  0.6237 -0.4761 -1.7112
 9902SOL    HW230606   4.155   4.072   6.604 -0.3038  0.4183  0.3056
 9903SOL     OW30607   3.231   0.621   0.320  0.3878 -0.0097 -0.0956
 9903SOL    HW130608   3.209   0.524   0.325  0.0408  0.0304 -0.6889
 9903SOL    HW230609   3.255   0.645   0.226 -1.8320  0.9352 -0.4852
 9904SOL     OW30610   5.877   0.580   1.765 -0.2939  0.0985  0.0270
 9904SOL    HW130611   5.922   0.506   1.714  2.2618  0.7631  1.1634
 9904SOL    HW230612   5.823   0.541   1.840 -0.6608 -0.6864 -0.6337
 9905SOL     OW30613   1.288   1.305   1.602 -0.3020 -0.0192 -0.1562
 9905SOL    HW130614   1.339   1.285   1.519  0.6035  3.3311 -0.5619
 9905SOL    HW230615   1.212   1.367   1.581  1.5158  3.0757  1.7260
 9906SOL     OW30616   2.985   3.740   0.873  0.3965  0.1682 -0.0957
 9906SOL    HW130617   2.989   3.754   0.972 -0.6588 -0.1963  0.0063
 9906SOL    HW230618   2.920   3.804   0.833 -0.3301 -0.7059 -0.3422
 9907SOL     OW30619   0.858   5.637   4.702  0.4579 -0.7289 -0.2409
 9907SOL    HW130620   0.894   5.549   4.672 -2.2881 -1.9202 -0.3529
 9907SOL    HW230621   0.765   5.649   4.665 -0.3172  0.9315  2.0354
 9908SOL     OW30622   5.750   3.842   4.625 -0.0839  0.0389  0.1879
 9908SOL    HW130623   5.819   3.882   4.564  1.0877 -1.2815  0.5817
 9908SOL    HW230624   5.792   3.767   4.677 -1.7903 -0.6679  0.5885
 9909SOL     OW30625   2.817   6.978   2.222 -0.3326  0.2916 -0.8524
 9909SOL    HW130626   2.860   6.888   2.214 -2.6792 -0.8862 -1.2127
 9909SOL    HW230627   2.780   6.989   2.315 -0.5203  0.6527 -0.9680
 9910SOL     OW30628   0.347   0.305   5.462 -0.1665  0.1862 -0.3346
 9910SOL    HW130629   0.274   0.259   5.513  0.8306 -0.9405  0.0944
 9910SOL    HW230630   0.398   0.238   5.409  1.5058  0.7247  0.5378
 9911SOL     OW30631   2.879   5.609   3.043  0.0553  0.0930 -0.0647
 9911SOL    HW130632   2.789   5.614   3.085 -0.4626 -0.9173 -1.0104
 9911SOL    HW230633   2.871   5.621   2.944  1.1084  1.1415 -0.0527
 9912SOL     OW30634   4.029   0.796   6.717 -0.8041 -0.1381  0.0088
 9912SOL    HW130635   4.014   0.893   6.699 -2.2254 -0.8545 -3.5395
 9912SOL    HW230636   3.953   0.760   6.772 -0.6795  0.5642  0.6612
 9913SOL     OW30637   4.871   3.594   2.999  1.1587 -0.8873  0.1430
 9913SOL    HW130638   4.878   3.566   3.094  0.3809 -1.7514 -0.0400
 9913SOL    HW230639   4.779   3.631   2.982  1.3307 -0.6257 -0.2393
 9914SOL     OW30640   0.907   4.185   4.792  0.4687 -0.0471  0.7571
 9914SOL    HW130641   0.901   4.086   4.802  0.8320 -0.1854 -0.2733
 9914SOL    HW230642   0.962   4.207   4.712  0.2916  0.9934  0.9053
 9915SOL     OW30643   5.822   5.040   4.789  0.0083 -0.3897 -0.5765
 9915SOL    HW130644   5.903   4.985   4.769  0.5939 -0.5720  1.9393
 9915SOL    HW230645   5.843   5.106   4.862 -2.0421 -0.2959  0.0129
 9916SOL     OW30646   3.361   2.286   0.043  0.3255 -0.3375  0.3631
 9916SOL    HW130647   3.458   2.277   0.063  0.7307  3.3955  0.8279
 9916SOL    HW230648   3.318   2.344   0.112 -1.6086  0.4093 -1.3700
 9917SOL     OW30649   3.775   2.599   5.780 -0.2410 -0.0968  0.1126
 9917SOL    HW130650   3.708   2.608   5.855 -1.4144  2.2451 -1.1132
 9917SOL    HW230651   3.752   2.518   5.726 -2.1289  0.6042 -0.2413
 9918SOL     OW30652   3.064   1.753   4.956 -0.3731 -0.0041  0.3668
 9918SOL    HW130653   3.052   1.799   5.044  0.7026 -0.2596  0.6570
 9918SOL    HW230654   3.075   1.655   4.971  3.0200  0.2690  0.2719
 9919SOL     OW30655   0.393   4.905   1.567  0.2729  0.0967 -0.1570
 9919SOL    HW130656   0.368   4.859   1.482  0.0045  1.5372 -0.9047
 9919SOL    HW230657   0.492   4.902   1.580  0.5019  1.2299 -1.3932
 9920SOL     OW30658   3.029   1.149   3.778 -0.3051  0.7270 -0.2909
 9920SOL    HW130659   3.067   1.233   3.738  2.8609 -0.6003 -0.3304
 9920SOL    HW230660   3.029   1.157   3.878 -1.0220  1.1479 -0.3174
 9921SOL     OW30661   4.399   6.827   1.336  0.2344 -0.2072  0.0578
 9921SOL    HW130662   4.456   6.886   1.394 -0.3003 -0.0884  0.4779
 9921SOL    HW230663   4.375   6.876   1.252 -3.5350  1.9134  2.0692
 9922SOL     OW30664   6.705   1.391   3.795 -0.2609 -0.3789  0.4614
 9922SOL    HW130665   6.608   1.414   3.785  0.0746  1.3055  0.6711
 9922SOL    HW230666   6.715   1.309   3.851 -1.5846 -1.1829 -0.4117
 9923SOL     OW30667   6.887   6.970   0.430 -0.1556  0.1339  0.1277
 9923SOL    HW130668   6.824   7.023   0.487 -1.4471  0.8633 -1.8537
 9923SOL    HW230669   6.842   6.946   0.344  1.0675 -2.5405  0.1214
 9924SOL     OW30670   5.397   2.836   3.970 -0.0915  0.2471 -0.0896
 9924SOL    HW130671   5.322   2.902   3.967 -1.0566 -0.7601  0.8275
 9924SOL    HW230672   5.380   2.763   3.904 -0.1358 -0.1927  0.3997
 9925SOL     OW30673   4.157   1.972   5.444 -0.5079  0.0424 -0.3367
 9925SOL    HW130674   4.079   1.956   5.385 -0.5701 -1.2779  0.0826
 9925SOL    HW230675   4.212   1.889   5.450 -0.5011  0.1425  1.4412
 9926SOL     OW30676   2.513   2.423   4.065 -0.3844 -0.3064 -0.6405
 9926SOL    HW130677   2.554   2.391   3.979 -0.2886 -0.4681 -0.5361
 9926SOL    HW230678   2.420   2.387   4.072  0.7035 -3.1852  0.8890
 9927SOL     OW30679   1.922   2.504   3.142 -0.0804 -0.0209  0.6720
 9927SOL    HW130680   2.020   2.484   3.139 -0.5288 -2.6493  0.9437
 9927SOL    HW230681   1.877   2.437   3.201 -1.9803  1.5493  1.0829
 9928SOL     OW30682   6.462   4.242   1.354 -0.2768 -0.0946  0.4732
 9928SOL    HW130683   6.537   4.291   1.398  0.1641  0.4937 -0.8867
 9928SOL    HW230684   6.392   4.306   1.325 -0.1479 -0.3686 -0.4635
 9929SOL     OW30685   1.606   5.179   7.003 -0.4666  0.0140  0.1639
 9929SOL    HW130686   1.681   5.133   7.052  0.5530 -1.2775 -2.4083
 9929SOL    HW230687   1.519   5.141   7.034 -0.0082  0.3934  2.0644
 9930SOL     OW30688   5.734   5.982   6.164 -0.0734  0.0743 -0.7114
 9930SOL    HW130689   5.695   5.961   6.253 -1.0907  0.1765 -1.1259
 9930SOL    HW230690   5.834   5.982   6.171 -0.1120 -1.0360  0.1734
 9931SOL     OW30691   2.096   3.494   0.990 -0.1678 -0.3828  0.6525
 9931SOL    HW130692   2.028   3.425   1.016 -1.0262  0.0721 -0.2972
 9931SOL    HW230693   2.143   3.527   1.072 -1.6921 -0.1012  1.4620
 9932SOL     OW30694   2.548   1.353   1.797 -0.5062  0.1723 -0.1758
 9932SOL    HW130695   2.495   1.322   1.875 -0.6167 -0.7493 -0.6048
 9932SOL    HW230696   2.534   1.291   1.720  2.1574 -0.8436  0.0595
 9933SOL     OW30697   1.097   1.482   1.551  0.3640 -0.0744  0.1851
 9933SOL    HW130698   0.998   1.477   1.541  0.4719 -0.0334 -1.0290
 9933SOL    HW230699   1.123   1.571   1.589 -0.0827 -0.2085  0.8008
 9934SOL     OW30700   4.876   2.152   4.759 -0.1678 -0.4017  0.2483
 9934SOL    HW130701   4.955   2.214   4.756 -0.5819  0.2374  1.6282
 9934SOL    HW230702   4.835   2.156   4.850 -1.9462 -0.5529 -0.5185
 9935SOL     OW30703   2.148   1.611   5.909  0.1662  0.0945 -0.4600
 9935SOL    HW130704   2.149   1.588   6.007 -1.7265  2.1232  0.1115
 9935SOL    HW230705   2.203   1.693   5.894 -1.3724  1.1225 -0.6657
 9936SOL     OW30706   5.503   6.439   0.759  0.1708 -0.7861  0.6089
 9936SOL    HW130707   5.561   6.508   0.715 -0.6535  0.0719  0.8383
 9936SOL    HW230708   5.461   6.479   0.840 -0.0417 -1.6826  0.9475
 9937SOL     OW30709   2.234   0.533   4.364 -0.8197  0.0356  0.2197
 9937SOL    HW130710   2.257   0.544   4.460 -1.1255 -0.9673  0.4229
 9937SOL    HW230711   2.232   0.622   4.319 -2.8400  0.7850  1.6324
 9938SOL     OW30712   0.385   3.141   1.604 -0.1233 -0.0326  0.0265
 9938SOL    HW130713   0.386   3.157   1.702  0.7220  0.4528 -0.0503
 9938SOL    HW230714   0.474   3.166   1.565 -0.7177  0.5721 -0.9876
 9939SOL     OW30715   3.490   3.506   1.710  0.6820  0.1875 -0.0745
 9939SOL    HW130716   3.522   3.414   1.734  4.1916  1.2843  0.0105
 9939SOL    HW230717   3.505   3.568   1.788  1.9718  1.5607 -1.3456
 9940SOL     OW30718   1.885   1.106   3.713 -0.1617  0.1642  0.5477
 9940SOL    HW130719   1.826   1.045   3.661  0.2910  1.5082 -1.6723
 9940SOL    HW230720   1.979   1.099   3.679 -0.0735  1.9483  0.3599
 9941SOL     OW30721   6.145   4.294   1.502 -0.0914 -0.2619 -0.1178
 9941SOL    HW130722   6.137   4.236   1.421 -1.0242 -1.0924  0.5404
 9941SOL    HW230723   6.207   4.370   1.482  0.3627 -0.9088 -1.3290
 9942SOL     OW30724   5.984   0.001   4.661 -0.5735  0.6744  0.0996
 9942SOL    HW130725   5.893   0.029   4.693 -0.6900  1.5949 -0.9732
 9942SOL    HW230726   6.047   0.002   4.738 -0.8537  2.8048  0.3807
 9943SOL     OW30727   0.693   5.312   6.380 -0.0471 -0.0824 -0.0561
 9943SOL    HW130728   0.742   5.229   6.356 -2.0424 -0.5106 -3.1472
 9943SOL    HW230729   0.598   5.289   6.403  0.0216  1.1442  1.7148
 9944SOL     OW30730   1.759   5.538   1.170  0.1930  0.1370  0.4288
 9944SOL    HW130731   1.830   5.587   1.119  0.8586  0.2912  1.4625
 9944SOL    HW230732   1.669   5.563   1.135  0.6357  0.0074 -0.8521
 9945SOL     OW30733   6.061   4.184   5.772 -0.5112 -0.3136 -0.0895
 9945SOL    HW130734   6.055   4.277   5.736 -0.1433  0.5801  1.9720
 9945SOL    HW230735   6.143   4.176   5.830 -0.5415 -1.9303 -0.2206
 9946SOL     OW30736   6.804   1.318   0.213 -0.3797  0.3682  0.7032
 9946SOL    HW130737   6.850   1.240   0.255  1.0129  1.1661  0.7266
 9946SOL    HW230738   6.862   1.400   0.223 -1.3458  1.1858 -0.2078
 9947SOL     OW30739   1.570   6.631   2.922 -0.3532 -0.4038  0.2976
 9947SOL    HW130740   1.560   6.731   2.918  0.4304 -0.3463 -0.4177
 9947SOL    HW230741   1.482   6.588   2.903 -0.2503  0.1318 -1.5157
 9948SOL     OW30742   4.607   1.642   4.855 -0.0676 -0.3318  0.5588
 9948SOL    HW130743   4.681   1.690   4.809  0.6264 -1.4147  0.5155
 9948SOL    HW230744   4.635   1.620   4.949  0.0970 -1.6802  0.2129
 9949SOL     OW30745   0.006   4.597   1.822 -0.1316 -0.3314  0.5937
 9949SOL    HW130746   0.025   4.507   1.861  0.1909 -0.2733  0.5767
 9949SOL    HW230747  -0.077   4.635   1.862  0.6952  0.1379  1.9352
 9950SOL     OW30748   4.516   4.123   6.430 -0.5695 -0.3533 -0.2281
 9950SOL    HW130749   4.454   4.113   6.352  1.0445 -2.1874 -1.3829
 9950SOL    HW230750   4.518   4.037   6.481 -0.3047  0.2629  0.8082
 9951SOL     OW30751   5.979   3.052   3.705 -0.4550  0.0210  0.2586
 9951SOL    HW130752   5.927   2.983   3.756 -1.9026 -0.2631 -1.5093
 9951SOL    HW230753   5.952   3.143   3.736 -2.9445 -0.0719 -1.3480
 9952SOL     OW30754   0.861   4.511   0.568  0.0322  0.3518 -0.0517
 9952SOL    HW130755   0.884   4.437   0.631 -0.4864 -0.1284 -0.4103
 9952SOL    HW230756   0.943   4.540   0.519  0.4195  0.6560  0.7554
 9953SOL     OW30757   4.128   6.065   4.188 -0.0917 -0.1773 -0.2150
 9953SOL    HW130758   4.175   6.111   4.264 -1.2839  1.2232 -0.2829
 9953SOL    HW230759   4.156   5.969   4.185  2.4637  0.4962 -0.0561
 9954SOL     OW30760   6.504   2.255   0.872 -0.2860  0.2399  0.0153
 9954SOL    HW130761   6.568   2.211   0.936 -3.4365 -2.4573  1.6694
 9954SOL    HW230762   6.455   2.328   0.919 -0.1792  0.6366 -0.4771
 9955SOL     OW30763   4.948   4.559   1.593  0.1212  0.1450 -0.7451
 9955SOL    HW130764   4.849   4.560   1.599  0.1205 -0.9013 -0.4353
 9955SOL    HW230765   4.979   4.641   1.544 -0.7198  1.9328  1.5160
 9956SOL     OW30766   2.095   5.059   6.198 -0.1704 -0.2929  0.1039
 9956SOL    HW130767   2.074   4.965   6.171  1.3115 -0.3970 -0.8580
 9956SOL    HW230768   2.017   5.099   6.245 -2.0631 -0.9298 -2.3025
 9957SOL     OW30769   6.548   0.247   6.534  0.1813  0.0919  0.2522
 9957SOL    HW130770   6.593   0.271   6.448  1.2217  1.0974  1.0528
 9957SOL    HW230771   6.614   0.206   6.596 -0.6993 -1.2092  0.3829
 9958SOL     OW30772   5.967   1.085   5.806 -0.0130  0.2095 -0.1821
 9958SOL    HW130773   6.051   1.129   5.775 -0.5971  2.1221  0.7372
 9958SOL    HW230774   5.896   1.095   5.736 -0.1529  0.8338  0.0344
 9959SOL     OW30775   5.754   5.691   1.240  0.0262 -0.4692 -0.1530
 9959SOL    HW130776   5.840   5.743   1.237 -0.6126  0.5594 -2.2693
 9959SOL    HW230777   5.677   5.754   1.229 -0.8462 -1.7125 -1.3337
 9960SOL     OW30778   2.015   2.497   0.329  0.0251 -0.0185  0.2015
 9960SOL    HW130779   2.010   2.589   0.291 -0.0291 -0.8549 -1.9601
 9960SOL    HW230780   1.923   2.461   0.344  0.0456  0.2559  1.0348
 9961SOL     OW30781   1.980   6.218   5.860  0.0121 -0.3644  0.1363
 9961SOL    HW130782   1.886   6.219   5.828  0.0412  1.6921 -0.0111
 9961SOL    HW230783   1.995   6.138   5.918 -1.6498 -1.0188 -0.2998
 9962SOL     OW30784   3.013   1.757   0.897 -0.4920 -0.1857  0.1997
 9962SOL    HW130785   2.948   1.704   0.842 -0.6205 -0.7653  0.8950
 9962SOL    HW230786   3.105   1.744   0.861 -0.6854  0.1839 -0.4423
 9963SOL     OW30787   0.621   6.908   4.426 -0.7036  0.1719  0.0682
 9963SOL    HW130788   0.721   6.919   4.424 -0.5658 -1.0096 -1.6168
 9963SOL    HW230789   0.598   6.823   4.473 -0.9348  0.4145  0.4042
 9964SOL     OW30790   5.366   5.947   5.946  0.2684  0.0188  0.0497
 9964SOL    HW130791   5.405   6.032   5.980  1.1694 -0.2947 -0.1559
 9964SOL    HW230792   5.440   5.885   5.919 -0.3126  0.8778 -4.1179
 9965SOL     OW30793   0.805   5.061   4.047 -0.5870 -0.2282 -0.5982
 9965SOL    HW130794   0.802   5.126   3.971 -1.1855  1.5310  0.8387
 9965SOL    HW230795   0.855   5.102   4.123 -1.6433 -1.1335  0.6320
 9966SOL     OW30796   2.042   4.069   1.048 -0.8410 -0.0145 -0.5648
 9966SOL    HW130797   1.979   4.054   1.124 -1.3737  1.4973 -0.6820
 9966SOL    HW230798   2.111   3.997   1.048 -1.6444 -0.8176  0.5083
 9967SOL     OW30799   6.727   0.255   2.869  0.5482 -0.1628 -0.0628
 9967SOL    HW130800   6.805   0.290   2.817 -0.3036  0.6612 -0.8253
 9967SOL    HW230801   6.672   0.332   2.901  0.5733 -0.6992  1.3146
 9968SOL     OW30802   4.119   3.311   0.280 -0.0731 -0.5680  0.0579
 9968SOL    HW130803   4.201   3.262   0.309  0.5553 -0.3489 -1.2685
 9968SOL    HW230804   4.083   3.364   0.357  1.5298  0.0115  0.4486
 9969SOL     OW30805   1.476   0.381   4.054  0.6758  0.4279  0.1408
 9969SOL    HW130806   1.569   0.414   4.039  0.8050 -0.1750 -0.3829
 9969SOL    HW230807   1.468   0.343   4.146  1.0905 -0.0142 -0.0077
 9970SOL     OW30808   2.407   2.628   0.281 -0.8019 -0.4736  0.3938
 9970SOL    HW130809   2.354   2.700   0.325 -0.4328  0.1497 -0.1790
 9970SOL    HW230810   2.496   2.664   0.252  0.0772 -1.5723  1.6022
 9971SOL     OW30811   1.468   0.745   4.670 -0.0826  0.3038  0.0416
 9971SOL    HW130812   1.401   0.811   4.702 -1.6039 -1.2912  0.2808
 9971SOL    HW230813   1.560   0.778   4.692 -0.7664  2.3982 -0.0352
 9972SOL     OW30814   2.423   4.756   6.098 -0.0216  0.0438  0.0318
 9972SOL    HW130815   2.368   4.732   6.019  0.4931 -2.1726  0.3019
 9972SOL    HW230816   2.363   4.768   6.178 -0.4607  1.5724 -0.4863
 9973SOL     OW30817   1.908   2.536   1.862 -0.2187 -0.1971 -0.2464
 9973SOL    HW130818   1.825   2.549   1.917 -0.2452  1.5264 -0.6599
 9973SOL    HW230819   1.978   2.491   1.918 -1.2721 -1.3115  0.2290
 9974SOL     OW30820   0.216   3.396   1.232 -0.6251 -0.3128 -0.1399
 9974SOL    HW130821   0.166   3.312   1.253  0.4388 -0.6206  1.2905
 9974SOL    HW230822   0.152   3.467   1.205 -1.8304 -0.7459  1.4729
 9975SOL     OW30823   0.408   2.488   6.573 -0.2793  0.1246 -0.1861
 9975SOL    HW130824   0.346   2.432   6.629 -1.5135  0.8583 -0.7738
 9975SOL    HW230825   0.370   2.579   6.562  1.4148  0.9176  0.2366
 9976SOL     OW30826   3.701   5.009   4.999 -0.4356 -0.1694 -0.5041
 9976SOL    HW130827   3.667   4.971   4.913  1.6801 -1.3143 -0.9006
 9976SOL    HW230828   3.756   5.090   4.980  1.6975 -1.5515 -0.5019
 9977SOL     OW30829   4.273   5.590   5.775 -0.0141  0.5527 -0.4986
 9977SOL    HW130830   4.238   5.553   5.689 -0.7522 -2.3033  0.8764
 9977SOL    HW230831   4.196   5.612   5.835  0.4099 -1.4291  0.8808
 9978SOL     OW30832   5.418   3.364   1.057 -0.5835  0.0145 -0.6182
 9978SOL    HW130833   5.382   3.457   1.051  0.2832  0.3991 -0.1042
 9978SOL    HW230834   5.512   3.363   1.022 -0.1733 -0.4167  0.4604
 9979SOL     OW30835   3.566   3.354   3.728 -0.1917  0.5127 -0.3197
 9979SOL    HW130836   3.514   3.396   3.802 -1.1214  0.4668 -0.9279
 9979SOL    HW230837   3.609   3.425   3.672  0.7898  0.5390  0.4361
 9980SOL     OW30838   1.855   1.059   6.449  0.1172  0.0791 -0.1126
 9980SOL    HW130839   1.929   1.010   6.496 -0.2964 -0.2779  0.1804
 9980SOL    HW230840   1.789   1.092   6.517  0.4075  1.0711 -0.3063
 9981SOL     OW30841   6.552   2.060   6.798 -0.1449 -0.1322  0.2050
 9981SOL    HW130842   6.594   2.102   6.717 -2.1449 -0.6476 -1.1657
 9981SOL    HW230843   6.610   1.986   6.830  1.0228  0.5182 -0.3192
 9982SOL     OW30844   1.501   1.590   3.598 -0.6281  0.1124 -0.1893
 9982SOL    HW130845   1.498   1.661   3.527 -0.4719  0.3961  0.0820
 9982SOL    HW230846   1.494   1.633   3.688 -0.6778 -0.2324 -0.0258
 9983SOL     OW30847   6.313   2.429   1.306  0.3882  0.3380 -0.5991
 9983SOL    HW130848   6.277   2.511   1.262  0.0372 -0.3452 -1.6459
 9983SOL    HW230849   6.266   2.349   1.270 -0.5744 -0.2256  1.7383
 9984SOL     OW30850   3.904   5.515   0.506 -0.4648 -0.1328 -0.2060
 9984SOL    HW130851   3.915   5.463   0.590  0.9255 -1.2050 -1.0003
 9984SOL    HW230852   3.922   5.612   0.524 -2.5027  0.0540  1.1658
 9985SOL     OW30853   5.905   5.088   0.496  0.6254  0.1644 -0.0077
 9985SOL    HW130854   5.855   5.010   0.458 -0.5991  1.1228 -0.4201
 9985SOL    HW230855   5.949   5.061   0.581  2.0554 -1.5824 -1.2060
 9986SOL     OW30856   4.409   4.012   6.950 -0.2326  0.5857  0.2751
 9986SOL    HW130857   4.340   4.065   6.902 -0.4321  0.9071  0.9040
 9986SOL    HW230858   4.370   3.975   7.035  0.8785  2.3732  1.6273
 9987SOL     OW30859   4.746   1.744   0.322 -0.7380  0.0650 -0.4020
 9987SOL    HW130860   4.810   1.737   0.398 -0.7702 -0.1008 -0.3888
 9987SOL    HW230861   4.767   1.825   0.268 -0.8633  0.3132 -0.0803
 9988SOL     OW30862   0.111   6.330   2.775 -0.1009  0.0120 -0.1188
 9988SOL    HW130863   0.106   6.396   2.850 -0.2362  1.1316 -1.0928
 9988SOL    HW230864   0.037   6.263   2.785 -0.1978  0.2224  0.6635
 9989SOL     OW30865   5.469   6.685   1.610  0.1718  0.3812  0.0279
 9989SOL    HW130866   5.482   6.624   1.532  0.7918  0.1948  0.2752
 9989SOL    HW230867   5.485   6.635   1.695  2.3166  1.2709  0.1930
 9990SOL     OW30868   1.122   5.115   2.296 -0.2889  0.4925 -0.3562
 9990SOL    HW130869   1.084   5.152   2.380  0.3324  1.0522 -0.3083
 9990SOL    HW230870   1.065   5.040   2.263  0.4205 -0.9654  1.5260
 9991SOL     OW30871   3.038   3.522   0.705  0.4333 -0.5179 -0.5009
 9991SOL    HW130872   3.039   3.573   0.618 -1.4617  1.0429  0.3257
 9991SOL    HW230873   3.016   3.584   0.780 -1.6961 -2.4861  0.6198
 9992SOL     OW30874   3.798   5.254   6.075  0.3240 -0.6648 -0.0972
 9992SOL    HW130875   3.751   5.179   6.122 -0.2459  0.5429  1.3483
 9992SOL    HW230876   3.883   5.275   6.123 -0.4904  0.8888  0.7356
 9993SOL     OW30877   2.834   5.151   4.470 -0.4438  0.2825  0.2344
 9993SOL    HW130878   2.775   5.075   4.444 -0.4080 -0.3993  1.9924
 9993SOL    HW230879   2.913   5.155   4.408  0.6250 -2.4312  1.2511
 9994SOL     OW30880   5.188   4.564   5.708 -0.2542 -0.8973 -0.0435
 9994SOL    HW130881   5.108   4.542   5.652  0.3270 -2.0777 -0.4415
 9994SOL    HW230882   5.214   4.483   5.762  0.5399 -0.4546  0.2468
 9995SOL     OW30883   6.445   1.850   4.936  0.6467  0.0441  0.0153
 9995SOL    HW130884   6.511   1.777   4.918  0.1523 -0.4191  0.0699
 9995SOL    HW230885   6.375   1.850   4.864 -0.5350 -0.8899  1.1135
 9996SOL     OW30886   2.388   5.621   1.526  0.4239 -0.1371 -0.5096
 9996SOL    HW130887   2.450   5.546   1.502 -0.0841 -0.9119  0.4967
 9996SOL    HW230888   2.438   5.690   1.580  0.5417 -0.5084 -0.1356
 9997SOL     OW30889   6.664   0.238   3.439 -0.5589  0.0591 -0.2587
 9997SOL    HW130890   6.678   0.335   3.420  0.6576  0.4826  2.3740
 9997SOL    HW230891   6.744   0.186   3.409 -1.0942 -0.1233 -1.4183
 9998SOL     OW30892   5.032   4.180   0.995  0.4782  0.5608  0.2032
 9998SOL    HW130893   5.047   4.170   0.897  0.3219 -0.1331  0.2441
 9998SOL    HW230894   4.935   4.191   1.013  0.6700  2.7252  0.1286
 9999SOL     OW30895   2.712   6.105   4.461 -0.2532 -0.4053 -0.3921
 9999SOL    HW130896   2.684   6.013   4.490 -2.0042 -0.5093 -2.1878
 9999SOL    HW230897   2.693   6.170   4.535  1.4518 -1.4953  1.0825
10000SOL     OW30898   4.153   2.211   2.080  0.1706 -0.2449 -0.3522
10000SOL    HW130899   4.149   2.113   2.101  0.0027  0.2973  2.6259
10000SOL    HW230900   4.096   2.231   2.000  1.1909 -2.7036 -1.7913
10001SOL     OW30901   2.933   0.707   1.507 -0.0203  0.0241 -0.0070
10001SOL    HW130902   2.952   0.655   1.424 -2.2090  1.0195 -1.2128
10001SOL    HW230903   2.839   0.691   1.536  0.1132  1.1915  1.1772
10002SOL     OW30904   2.597   1.000   3.006  0.3197 -0.1273 -0.6529
10002SOL    HW130905   2.674   1.011   2.942  1.8851  0.2301  1.1982
10002SOL    HW230906   2.566   1.089   3.037 -0.5276 -0.2960 -0.9811
10003SOL     OW30907   0.731   0.179   2.697  0.1048 -0.1221  0.0306
10003SOL    HW130908   0.776   0.268   2.705  0.0761 -0.1020 -0.0302
10003SOL    HW230909   0.637   0.186   2.730  0.0320 -0.0746 -0.1807
10004SOL     OW30910   1.475   3.367   3.255  0.3634  0.3293 -0.9070
10004SOL    HW130911   1.488   3.460   3.290  1.1238  0.3082 -1.1270
10004SOL    HW230912   1.407   3.368   3.182 -0.9637  0.4348  0.2835
10005SOL     OW30913   4.449   6.190   3.290  0.4396  0.4563 -0.0272
10005SOL    HW130914   4.492   6.164   3.377 -1.5214 -1.1211  0.5366
10005SOL    HW230915   4.389   6.117   3.259 -0.8241  2.0165 -1.4373
10006SOL     OW30916   5.605   1.960   6.920 -0.4439  0.0355 -0.3225
10006SOL    HW130917   5.516   1.974   6.876 -0.2255  2.0146 -0.2338
10006SOL    HW230918   5.678   1.977   6.854 -0.1235  0.2524  0.0856
10007SOL     OW30919   1.948   5.908   4.347  0.1656 -0.4607 -0.1224
10007SOL    HW130920   2.028   5.965   4.327  0.2503 -0.0894  1.2030
10007SOL    HW230921   1.878   5.963   4.391 -2.7915  0.4265 -5.1769
10008SOL     OW30922   3.869   0.320   6.247  0.0343  0.3842  0.2245
10008SOL    HW130923   3.826   0.239   6.208 -0.6755  1.5709 -1.5955
10008SOL    HW230924   3.817   0.351   6.326 -0.0080 -0.5896  0.5900
10009SOL     OW30925   0.804   4.702   3.107  0.4518  0.3157  0.5641
10009SOL    HW130926   0.824   4.798   3.127  0.0816  0.9716 -1.8512
10009SOL    HW230927   0.827   4.682   3.012 -0.5791 -1.6920  0.6693
10010SOL     OW30928   0.699   6.108   1.859  0.4473 -0.7240  0.5543
10010SOL    HW130929   0.707   6.164   1.777 -1.4146 -0.9571  0.1727
10010SOL    HW230930   0.760   6.029   1.851 -0.5070 -1.3454 -1.1418
10011SOL     OW30931   4.721   3.098   6.421 -0.3499  0.6838  0.0772
10011SOL    HW130932   4.639   3.139   6.381 -0.8098  0.4153  0.7249
10011SOL    HW230933   4.706   2.999   6.431 -0.6365  0.8754  1.8040
10012SOL     OW30934   5.876   1.888   2.825  0.2998  0.2449 -0.5754
10012SOL    HW130935   5.873   1.922   2.919 -1.8240  2.6015 -1.3631
10012SOL    HW230936   5.784   1.861   2.797  1.0068 -1.0009 -1.8294
10013SOL     OW30937   0.562   0.679   5.499 -0.2446 -0.2300  0.0203
10013SOL    HW130938   0.548   0.613   5.573  1.6854 -1.9482 -1.0234
10013SOL    HW230939   0.660   0.688   5.481 -0.5941  1.1670 -1.4277
10014SOL     OW30940   0.850   1.922   3.814 -0.0238  0.2681 -0.0612
10014SOL    HW130941   0.912   1.929   3.737  1.0570 -1.0015  0.6519
10014SOL    HW230942   0.866   1.836   3.862 -2.4569 -0.1928  0.0638
10015SOL     OW30943   5.410   5.952   0.578 -0.4589 -0.3894  0.0988
10015SOL    HW130944   5.442   6.006   0.656 -0.6570  0.1019 -0.1564
10015SOL    HW230945   5.361   6.011   0.514 -0.4450 -0.8210 -0.3176
10016SOL     OW30946   4.515   1.808   6.604 -0.3088  0.2067 -0.2905
10016SOL    HW130947   4.572   1.877   6.649  0.9370 -2.0997  1.9685
10016SOL    HW230948   4.574   1.739   6.561 -1.4609 -0.6252 -0.5826
10017SOL     OW30949   3.818   1.141   2.428  0.0480  0.2271 -0.3595
10017SOL    HW130950   3.876   1.173   2.354  1.0062  2.2287  1.1751
10017SOL    HW230951   3.797   1.217   2.490 -0.2843 -1.4679  1.7167
10018SOL     OW30952   5.070   4.099   4.841  0.1596 -0.4217  0.4940
10018SOL    HW130953   4.991   4.064   4.892  1.3278  0.3348  2.9796
10018SOL    HW230954   5.058   4.197   4.826  1.1867 -0.0138  2.1153
10019SOL     OW30955   6.493   4.166   2.688  0.3101 -0.6044  0.2404
10019SOL    HW130956   6.451   4.084   2.648  0.7877 -0.7336  0.0067
10019SOL    HW230957   6.556   4.138   2.761  0.6897 -0.4609 -0.0317
10020SOL     OW30958   4.090   0.276   0.297 -0.2639 -0.3763  0.3050
10020SOL    HW130959   3.990   0.275   0.294 -0.3136  1.2494  0.3165
10020SOL    HW230960   4.123   0.194   0.343 -1.6855  0.0298  2.1379
10021SOL     OW30961   2.049   4.936   6.773 -0.2440 -0.2150 -0.1367
10021SOL    HW130962   1.971   4.947   6.711 -1.8165 -0.4587  1.7085
10021SOL    HW230963   2.113   5.011   6.760 -0.8734  0.1066 -1.5618
10022SOL     OW30964   2.385   6.551   0.735  0.4991  0.3004  0.5082
10022SOL    HW130965   2.461   6.513   0.788  0.0136  0.4493  1.3315
10022SOL    HW230966   2.406   6.645   0.711  0.1422  0.6861  1.6454
10023SOL     OW30967   6.690   0.934   5.024  0.3649  0.5333 -0.0663
10023SOL    HW130968   6.592   0.913   5.029  0.2651  0.6651 -1.1275
10023SOL    HW230969   6.730   0.928   5.115 -0.2661 -1.2641  0.1472
10024SOL     OW30970   1.921   3.921   2.795 -0.3785  0.3985  0.1169
10024SOL    HW130971   1.869   3.917   2.880 -0.3035 -0.7470  0.1201
10024SOL    HW230972   2.005   3.972   2.809 -0.6379  0.7025  0.5820
10025SOL     OW30973   1.879   2.685   0.727 -0.3866  0.1400  0.0908
10025SOL    HW130974   1.924   2.763   0.772  1.0975 -0.8559  0.4138
10025SOL    HW230975   1.804   2.652   0.784 -1.4533  1.7108 -0.3497
10026SOL     OW30976   5.683   1.301   5.291  0.7884 -0.2318 -0.0130
10026SOL    HW130977   5.710   1.223   5.235  1.4005 -0.1537  0.1640
10026SOL    HW230978   5.757   1.369   5.291 -0.1588  0.8525 -1.0603
10027SOL     OW30979   2.560   1.347   4.758  0.1158  1.0093 -0.2453
10027SOL    HW130980   2.623   1.420   4.785 -0.1169  1.2143 -0.2530
10027SOL    HW230981   2.465   1.380   4.766  0.0314  0.9323 -0.9176
10028SOL     OW30982   3.459   0.625   0.963 -0.3678 -0.1356  0.3070
10028SOL    HW130983   3.529   0.641   1.033 -1.1912  0.7927  0.9538
10028SOL    HW230984   3.426   0.713   0.928  0.2124 -0.6009 -1.4551
10029SOL     OW30985   6.098   2.488   4.377 -0.5250 -0.0659  0.4937
10029SOL    HW130986   6.064   2.576   4.410  0.0930  1.2171 -2.1001
10029SOL    HW230987   6.197   2.483   4.390 -0.5911 -0.5146  0.8660
10030SOL     OW30988   2.401   6.879   3.743 -0.2107  0.9030  0.1913
10030SOL    HW130989   2.482   6.887   3.685  0.2278  1.7868  0.9192
10030SOL    HW230990   2.319   6.896   3.688  0.0316 -0.5428 -0.6753
10031SOL     OW30991   1.743   6.069   2.899 -0.3363 -0.7517 -0.6896
10031SOL    HW130992   1.779   6.156   2.865  1.3626 -0.7327  0.9895
10031SOL    HW230993   1.818   6.008   2.921 -1.4841 -2.2808 -0.8262
10032SOL     OW30994   2.529   6.619   3.142  0.0121  0.0928 -0.4115
10032SOL    HW130995   2.591   6.659   3.075 -0.1793 -0.4941 -0.9533
10032SOL    HW230996   2.583   6.569   3.210  0.2033  0.6341 -0.1620
10033SOL     OW30997   4.740   1.241   5.786  0.1940 -0.1025 -0.2150
10033SOL    HW130998   4.795   1.172   5.833 -1.9936 -0.7621  1.5522
10033SOL    HW230999   4.680   1.197   5.720 -0.8362  0.1025  0.5491
10034SOL     OW31000   3.135   6.882   1.225  0.6160  0.1380  0.0577
10034SOL    HW131001   3.050   6.881   1.173  0.2549 -0.5476  0.6574
10034SOL    HW231002   3.199   6.815   1.186  0.1338 -0.7904  0.8322
10035SOL     OW31003   0.876   3.089   3.569  0.1279 -0.3372  0.1857
10035SOL    HW131004   0.858   3.025   3.645 -0.3583 -0.1082  0.2699
10035SOL    HW231005   0.898   3.179   3.607 -2.6277  0.4725  0.0959
10036SOL     OW31006   6.623   0.540   6.233 -0.1233  0.3127 -0.4059
10036SOL    HW131007   6.525   0.547   6.213 -0.1890  0.4918 -0.0262
10036SOL    HW231008   6.648   0.609   6.300 -0.0115 -0.5825  0.5059
10037SOL     OW31009   6.410   0.584   6.719 -0.1794 -0.2211  0.2135
10037SOL    HW131010   6.389   0.583   6.621  0.0937  0.7208  0.1406
10037SOL    HW231011   6.335   0.628   6.769  0.5118  0.9996  0.2102
10038SOL     OW31012   3.894   5.676   0.771 -0.2555  0.4282 -0.7453
10038SOL    HW131013   3.986   5.714   0.781 -1.0241  2.5310 -1.0540
10038SOL    HW231014   3.831   5.725   0.830 -0.8915 -2.4543  1.1721
10039SOL     OW31015   6.179   5.249   2.143  0.5855  0.8917 -0.2538
10039SOL    HW131016   6.233   5.333   2.138  1.1033  0.5087 -1.7873
10039SOL    HW231017   6.233   5.172   2.109  0.3355 -0.2174  1.7192
10040SOL     OW31018   2.336   4.664   0.078  0.6351 -0.0015  0.3168
10040SOL    HW131019   2.352   4.651   0.176 -1.0376 -2.8815  0.3099
10040SOL    HW231020   2.379   4.589   0.027 -1.2734 -0.4072 -0.8043
10041SOL     OW31021   0.679   5.423   6.854  0.6276  0.1249 -0.4278
10041SOL    HW131022   0.695   5.459   6.762 -0.2923  0.6556 -0.3844
10041SOL    HW231023   0.607   5.476   6.899 -1.3999 -2.2447 -0.6624
10042SOL     OW31024   5.557   0.832   4.556 -0.2679  0.6570  0.5812
10042SOL    HW131025   5.578   0.861   4.650  0.3451 -0.5955  0.8538
10042SOL    HW231026   5.474   0.877   4.525 -0.9393  0.4830  2.0402
10043SOL     OW31027   0.644   1.151   2.898 -0.3573 -0.1122  1.1282
10043SOL    HW131028   0.724   1.140   2.957  0.7321  1.0725 -0.0509
10043SOL    HW231029   0.667   1.121   2.805 -1.3055  0.1432  0.8026
10044SOL     OW31030   1.851   0.045   6.344  0.5091  0.1823 -0.7594
10044SOL    HW131031   1.946   0.014   6.347  0.5516  0.3807  0.0281
10044SOL    HW231032   1.824   0.079   6.434 -0.9741 -1.8715 -0.3659
10045SOL     OW31033   4.612   5.902   5.287 -0.3628  0.6230 -0.0040
10045SOL    HW131034   4.640   5.866   5.198 -1.9778 -1.9682  0.4206
10045SOL    HW231035   4.512   5.897   5.295 -0.2507  0.5979  2.0160
10046SOL     OW31036   1.333   0.873   1.943  0.5181 -0.1896  0.0609
10046SOL    HW131037   1.360   0.816   2.020  1.0421  1.3615  1.0810
10046SOL    HW231038   1.411   0.884   1.881  0.3180 -0.8190 -0.3163
10047SOL     OW31039   2.165   2.191   1.807  0.2125 -0.3460  0.6034
10047SOL    HW131040   2.221   2.159   1.731  0.9348  0.2119  0.8872
10047SOL    HW231041   2.075   2.147   1.803 -0.0723  0.3208 -1.0558
10048SOL     OW31042   3.159   2.222   1.155 -0.3763 -0.1514  0.5592
10048SOL    HW131043   3.078   2.269   1.190  0.5552 -0.1147  2.8206
10048SOL    HW231044   3.131   2.149   1.092 -2.1787 -0.3859  1.5755
10049SOL     OW31045   2.297   5.622   2.977 -0.4573  0.2298  0.0154
10049SOL    HW131046   2.288   5.590   2.883  1.4041 -0.4219  0.0053
10049SOL    HW231047   2.388   5.664   2.989 -0.6293  0.2295  1.5312
10050SOL     OW31048   5.361   0.347   3.312  0.2201  0.6386 -0.4454
10050SOL    HW131049   5.396   0.432   3.354 -1.5699  1.2901 -0.1835
10050SOL    HW231050   5.315   0.369   3.226 -0.3685 -0.0417 -0.3133
10051SOL     OW31051   4.120   2.739   1.725  0.6520 -0.0244 -0.2488
10051SOL    HW131052   4.210   2.753   1.685  0.7116 -1.4073 -0.6556
10051SOL    HW231053   4.101   2.641   1.732 -0.2203  0.2208  1.2133
10052SOL     OW31054   0.017   5.272   6.380 -0.1063  0.3714  0.1024
10052SOL    HW131055   0.055   5.315   6.298  0.5559  1.8270  1.1173
10052SOL    HW231056  -0.079   5.250   6.364 -0.1174  1.0701 -0.9037
10053SOL     OW31057   2.271   6.264   3.134 -0.1663  0.2455  0.3465
10053SOL    HW131058   2.301   6.275   3.039 -1.1975 -0.2033 -0.0405
10053SOL    HW231059   2.351   6.270   3.195  0.9696 -2.3758 -0.7387
10054SOL     OW31060   2.695   5.719   4.039 -0.5139  0.4039 -0.1681
10054SOL    HW131061   2.749   5.786   4.090  0.5175 -1.3629  1.1733
10054SOL    HW231062   2.612   5.696   4.091 -0.3605 -0.0931 -0.1423
10055SOL     OW31063   4.403   2.272   0.244  0.5204 -0.0842  0.4577
10055SOL    HW131064   4.382   2.209   0.169  0.8327 -0.4244  0.6546
10055SOL    HW231065   4.329   2.270   0.311  0.6779 -0.4907  0.6261
10056SOL     OW31066   4.689   5.612   3.366  0.6280  0.1491  0.1812
10056SOL    HW131067   4.712   5.618   3.268  0.5608 -1.6742  0.0175
10056SOL    HW231068   4.712   5.520   3.399  0.6717  0.7578  1.9004
10057SOL     OW31069   1.638   2.927   3.198 -0.1388  0.3440  0.0106
10057SOL    HW131070   1.543   2.953   3.181 -0.8468 -1.3216  1.1063
10057SOL    HW231071   1.666   2.958   3.289 -0.3478 -0.9220  0.5301
10058SOL     OW31072   1.432   3.874   4.360 -0.0255  0.0423 -0.7154
10058SOL    HW131073   1.350   3.830   4.396  0.4578 -0.0513  0.2996
10058SOL    HW231074   1.422   3.888   4.261 -1.6481  0.8930 -0.4537
10059SOL     OW31075   6.708   6.109   2.009 -0.0478 -0.1486 -0.0837
10059SOL    HW131076   6.619   6.099   1.964  1.2585 -1.7877 -2.5395
10059SOL    HW231077   6.738   6.021   2.045  1.2351  0.0233 -0.6688
10060SOL     OW31078   1.803   2.734   1.413  0.1351  0.1811  0.5190
10060SOL    HW131079   1.805   2.791   1.495 -0.9019 -0.3985  0.9643
10060SOL    HW231080   1.798   2.638   1.439 -0.4277  0.0019 -0.2193
10061SOL     OW31081   5.764   2.143   6.497  0.2419 -0.5202  0.3137
10061SOL    HW131082   5.794   2.219   6.439  0.3051  0.8691  2.0609
10061SOL    HW231083   5.819   2.062   6.478 -0.5321 -0.5141 -2.3732
10062SOL     OW31084   5.634   5.826   3.581  0.5284 -0.1233  0.4589
10062SOL    HW131085   5.684   5.808   3.497 -1.0168  1.8930 -0.9999
10062SOL    HW231086   5.680   5.781   3.658  1.3332 -3.0782 -1.5667
10063SOL     OW31087   1.989   4.906   3.735  0.0456  0.4090 -0.2561
10063SOL    HW131088   1.972   4.832   3.800  3.9306 -1.3952 -1.0545
10063SOL    HW231089   1.931   4.892   3.654  0.0381 -1.2516 -0.0078
10064SOL     OW31090   5.316   5.692   4.843 -0.4217  0.0398 -0.3389
10064SOL    HW131091   5.249   5.641   4.789  0.6672  0.8216 -2.5297
10064SOL    HW231092   5.385   5.732   4.783  1.8674 -0.4328  1.8037
10065SOL     OW31093   1.005   0.120   6.194 -0.0255 -0.0873  0.2597
10065SOL    HW131094   0.945   0.138   6.271 -0.3028  1.5030 -0.2885
10065SOL    HW231095   1.062   0.201   6.176  1.4514 -1.1252  0.0269
10066SOL     OW31096   3.001   0.522   3.076  0.0105  0.0895  0.3560
10066SOL    HW131097   3.046   0.567   3.153  0.9154  1.4726 -0.9279
10066SOL    HW231098   2.956   0.439   3.108  3.5971 -1.5208  1.7804
10067SOL     OW31099   5.984   6.374   1.372 -0.1728 -0.8500  0.1718
10067SOL    HW131100   5.887   6.384   1.392 -1.0150 -4.5508 -1.1747
10067SOL    HW231101   5.998   6.379   1.273  1.0459 -0.4034  0.3467
10068SOL     OW31102   4.541   1.504   0.347  0.1568 -0.1612 -0.1909
10068SOL    HW131103   4.599   1.551   0.282 -0.1735 -0.3886 -0.6572
10068SOL    HW231104   4.456   1.555   0.360  0.1508 -0.2015 -0.0689
10069SOL     OW31105   5.474   1.421   3.007  0.5162 -0.4861  0.0136
10069SOL    HW131106   5.519   1.398   3.093  0.0022  2.6577  1.2625
10069SOL    HW231107   5.380   1.386   3.008  0.4953 -0.4215  0.7515
10070SOL     OW31108   0.713   5.674   4.403 -0.0849 -0.1036 -0.3374
10070SOL    HW131109   0.738   5.607   4.334 -1.9362 -0.2590 -0.9085
10070SOL    HW231110   0.781   5.747   4.405  1.5614 -1.6056 -0.2170
10071SOL     OW31111   4.363   6.844   5.831  0.0211  0.4125 -0.0894
10071SOL    HW131112   4.403   6.759   5.866  0.8984  1.2147  0.9258
10071SOL    HW231113   4.270   6.826   5.798  1.1608 -1.5290 -2.5688
10072SOL     OW31114   1.445   0.922   4.396  0.3429 -0.0160  0.2725
10072SOL    HW131115   1.534   0.876   4.403 -0.3288 -1.6172 -1.0622
10072SOL    HW231116   1.434   0.985   4.473  2.2820 -0.3631  0.8952
10073SOL     OW31117   0.207   0.237   0.554 -0.3083 -0.0161 -0.4363
10073SOL    HW131118   0.111   0.262   0.564  0.0687  1.0998  0.5820
10073SOL    HW231119   0.265   0.318   0.565  0.8952 -1.0706  1.7183
10074SOL     OW31120   3.158   0.136   5.758 -0.0349  0.0198  0.5802
10074SOL    HW131121   3.108   0.130   5.672  1.1664  1.3446 -0.2332
10074SOL    HW231122   3.101   0.182   5.826  0.8122  3.7505 -1.0137
10075SOL     OW31123   0.979   2.336   4.602 -0.3452  0.2281 -0.6372
10075SOL    HW131124   0.948   2.242   4.618 -0.2098  0.0003 -1.6769
10075SOL    HW231125   1.073   2.336   4.568 -0.5928  0.6864 -1.3543
10076SOL     OW31126   0.286   5.758   4.289  0.3040  0.6499  0.1139
10076SOL    HW131127   0.254   5.796   4.376  0.4919  2.7962 -0.6829
10076SOL    HW231128   0.385   5.764   4.284  0.5971 -2.1563  0.8721
10077SOL     OW31129   1.576   0.024   1.174  0.0540  0.0914  0.3708
10077SOL    HW131130   1.590  -0.057   1.118  0.6054 -1.6846  2.8959
10077SOL    HW231131   1.625   0.102   1.134  3.4192 -1.9301  0.2007
10078SOL     OW31132   0.387   6.464   5.651  0.1669 -0.1624 -0.2161
10078SOL    HW131133   0.449   6.516   5.593 -0.7256  0.0620 -0.9851
10078SOL    HW231134   0.438   6.423   5.727  1.2068  0.1861 -0.7204
10079SOL     OW31135   5.086   3.203   4.058 -0.3397  0.3407 -0.2288
10079SOL    HW131136   5.103   3.231   4.152 -0.3687  0.7905 -0.3589
10079SOL    HW231137   5.014   3.260   4.018  1.3378  1.7714 -1.3122
10080SOL     OW31138   1.998   2.179   6.544 -0.1550 -0.0265 -0.3076
10080SOL    HW131139   2.018   2.227   6.458 -1.1827 -0.8431 -1.0346
10080SOL    HW231140   1.962   2.088   6.523 -1.1033  0.0312  0.9762
10081SOL     OW31141   6.298   2.456   0.592 -0.4063 -0.0886 -0.0458
10081SOL    HW131142   6.264   2.506   0.512 -0.2418 -2.3372 -1.6245
10081SOL    HW231143   6.398   2.458   0.591 -0.3736  1.7201  1.4085
10082SOL     OW31144   1.293   0.379   1.807 -0.0750 -0.5722 -0.4621
10082SOL    HW131145   1.382   0.400   1.846  0.2329 -0.4776 -1.1983
10082SOL    HW231146   1.292   0.403   1.710 -2.1187  3.0318  0.2858
10083SOL     OW31147   5.967   5.305   3.995  0.6566  0.6871  0.2256
10083SOL    HW131148   5.995   5.237   4.064  1.1025 -1.3006 -1.7769
10083SOL    HW231149   6.045   5.326   3.936 -0.3921  0.0018 -1.4926
10084SOL     OW31150   2.487   0.157   6.005 -0.0194 -0.4550  0.6755
10084SOL    HW131151   2.475   0.249   6.042 -2.3497  0.1856 -1.4052
10084SOL    HW231152   2.397   0.118   5.983  0.9939 -2.7440  0.3603
10085SOL     OW31153   0.184   6.936   3.527 -0.3855 -0.1643  0.3390
10085SOL    HW131154   0.195   6.849   3.479  0.2764  0.3109 -0.3877
10085SOL    HW231155   0.264   6.952   3.585 -0.3182  0.1457  0.1639
10086SOL     OW31156   5.536   5.263   1.774 -0.5798  1.7504  0.6731
10086SOL    HW131157   5.570   5.284   1.683  0.3578  0.9964  0.8306
10086SOL    HW231158   5.612   5.239   1.834 -1.4190 -2.1046  0.4899
10087SOL     OW31159   2.739   0.299   4.615 -0.5145 -0.1949  0.0494
10087SOL    HW131160   2.821   0.327   4.665 -0.1193 -0.0818 -0.6489
10087SOL    HW231161   2.745   0.201   4.593  0.3589  0.1979 -1.6679
10088SOL     OW31162   6.706   0.038   4.031  0.4111  0.0923  0.1900
10088SOL    HW131163   6.614   0.062   3.999  0.6293 -0.4807 -0.9072
10088SOL    HW231164   6.743   0.113   4.086 -1.1004 -0.0763  1.5118
10089SOL     OW31165   0.938   1.098   2.111 -0.5157 -0.1582 -0.3475
10089SOL    HW131166   0.974   1.087   2.019 -1.4943  1.3057 -0.9416
10089SOL    HW231167   0.994   1.164   2.162 -0.8026  0.1212 -0.3881
10090SOL     OW31168   1.243   6.627   1.615  0.2050 -0.3381 -0.0180
10090SOL    HW131169   1.201   6.577   1.691  1.1662 -0.2084  0.6037
10090SOL    HW231170   1.170   6.663   1.556 -0.5410 -2.3121 -0.4208
10091SOL     OW31171   0.367   2.503   3.825 -0.4569  0.0215  0.0490
10091SOL    HW131172   0.425   2.424   3.801 -1.5743 -0.3861 -1.4012
10091SOL    HW231173   0.275   2.472   3.846 -1.1583  1.0170 -1.4385
10092SOL     OW31174   1.691   2.480   6.251  0.4322  0.0946  0.7389
10092SOL    HW131175   1.685   2.381   6.242 -0.9638  0.0075  2.1491
10092SOL    HW231176   1.781   2.511   6.221 -0.1256 -1.1893 -2.7613
10093SOL     OW31177   0.490   5.572   6.911 -0.1574  0.3819 -0.3118
10093SOL    HW131178   0.413   5.539   6.857 -0.2327 -1.6695  0.9240
10093SOL    HW231179   0.459   5.601   7.001  0.4395 -0.1057  0.0647
10094SOL     OW31180   1.858   1.979   2.081 -0.0542  0.0629  0.4090
10094SOL    HW131181   1.915   2.061   2.085  1.1877 -0.8187  2.3599
10094SOL    HW231182   1.807   1.970   2.166 -0.5986 -0.9253 -0.0032
10095SOL     OW31183   5.739   1.304   6.847  0.2964 -0.1331  0.1778
10095SOL    HW131184   5.640   1.312   6.836  0.1968 -0.4062  0.8475
10095SOL    HW231185   5.784   1.333   6.762 -0.3110  0.8795  0.1826
10096SOL     OW31186   0.691   5.507   2.294  0.0643 -0.0702 -0.4479
10096SOL    HW131187   0.701   5.542   2.200 -0.0429  0.5868 -0.2207
10096SOL    HW231188   0.681   5.408   2.292 -0.7217  0.0137 -1.1876
10097SOL     OW31189   0.393   2.000   6.196  0.1087  0.0749 -0.5551
10097SOL    HW131190   0.406   1.937   6.272 -2.1699 -2.4899 -2.1144
10097SOL    HW231191   0.350   2.084   6.229 -1.8685 -1.4178  0.9125
10098SOL     OW31192   1.388   5.290   5.259 -0.1962 -0.1506  0.3477
10098SOL    HW131193   1.378   5.328   5.351 -0.2060  0.5933  0.0442
10098SOL    HW231194   1.481   5.255   5.248  0.4844  1.6778 -0.0479
10099SOL     OW31195   6.281   4.449   5.386 -0.2643 -0.0603  0.1748
10099SOL    HW131196   6.209   4.514   5.409 -0.3119 -1.0097  3.1344
10099SOL    HW231197   6.352   4.496   5.334 -1.4000  1.7488  0.1657
10100SOL     OW31198   6.380   6.085   5.119  0.0487 -0.0228  0.1440
10100SOL    HW131199   6.452   6.150   5.141  0.0417  0.3498 -0.8541
10100SOL    HW231200   6.291   6.131   5.127  0.1157  0.8260 -2.6296
10101SOL     OW31201   1.565   5.792   3.788 -0.2088 -0.4181  0.5951
10101SOL    HW131202   1.534   5.861   3.722  1.2112  0.0271  0.3718
10101SOL    HW231203   1.572   5.704   3.743  1.2372 -0.0169 -0.0013
10102SOL     OW31204   3.276   1.654   4.526  0.1392  0.4567  0.0941
10102SOL    HW131205   3.370   1.623   4.513  0.0895  0.0407  0.6772
10102SOL    HW231206   3.237   1.682   4.438  0.1885 -1.1261 -0.4549
10103SOL     OW31207   1.183   0.911   1.051  0.4146 -0.1599  0.3222
10103SOL    HW131208   1.226   0.967   0.980  0.9351  0.4904  1.1334
10103SOL    HW231209   1.136   0.970   1.116  1.1252 -0.6360  1.2899
10104SOL     OW31210   3.101   5.946   0.044  0.4144 -0.5684  0.1006
10104SOL    HW131211   3.101   5.857  -0.002  2.9043 -1.1690  1.1098
10104SOL    HW231212   3.123   5.933   0.140 -1.7287  0.9544  0.8580
10105SOL     OW31213   3.087   1.372   6.789  0.0499 -0.0985 -0.5196
10105SOL    HW131214   3.051   1.292   6.742  0.8562 -0.3716 -0.6762
10105SOL    HW231215   3.089   1.450   6.727  0.8888 -0.3983 -0.8769
10106SOL     OW31216   5.406   4.633   0.428  0.0734  0.3132 -0.5362
10106SOL    HW131217   5.392   4.687   0.511 -0.7043 -1.1220  0.2972
10106SOL    HW231218   5.470   4.681   0.368  1.4357  0.9399  1.3216
10107SOL     OW31219   4.850   0.247   0.723  0.2094  0.6646 -0.4443
10107SOL    HW131220   4.909   0.325   0.705  1.0743 -0.0879 -0.9503
10107SOL    HW231221   4.806   0.218   0.638  0.4066  0.1938 -0.3895
10108SOL     OW31222   7.006   0.172   1.241 -0.1078 -0.6801  0.7312
10108SOL    HW131223   6.990   0.126   1.328  0.4040 -2.9894 -0.3258
10108SOL    HW231224   7.049   0.260   1.258 -1.4885 -0.3330  2.8687
10109SOL     OW31225   3.453   5.399   3.578 -0.5320  0.1164  0.7937
10109SOL    HW131226   3.416   5.306   3.581 -1.6601  0.3955 -1.8371
10109SOL    HW231227   3.504   5.413   3.493 -0.7339  2.0158  0.9273
10110SOL     OW31228   4.590   0.151   5.329 -0.3050 -0.0222  0.1501
10110SOL    HW131229   4.607   0.052   5.322 -1.7824 -0.2173 -1.5573
10110SOL    HW231230   4.499   0.166   5.368 -0.3523  0.6265 -0.1980
10111SOL     OW31231   0.986   4.281   3.102 -0.2005  0.1312 -0.4459
10111SOL    HW131232   0.949   4.223   3.030 -0.8586  0.3113 -0.2570
10111SOL    HW231233   1.040   4.225   3.166  1.1446  0.1113 -1.5580
10112SOL     OW31234   5.070   2.610   6.507  0.5296 -0.8157 -0.0748
10112SOL    HW131235   5.049   2.605   6.409  0.3074 -0.3866 -0.0523
10112SOL    HW231236   5.047   2.523   6.550  0.0263 -0.7983 -0.2957
10113SOL     OW31237   4.060   6.437   1.753  0.1091 -0.6469  0.5616
10113SOL    HW131238   4.036   6.422   1.849  0.4449 -0.0298  0.7460
10113SOL    HW231239   4.066   6.348   1.706  2.4699 -1.1750  1.7130
10114SOL     OW31240   5.542   0.724   2.565 -0.1476  0.4555 -0.3817
10114SOL    HW131241   5.640   0.744   2.559  0.2622 -0.6456  1.7503
10114SOL    HW231242   5.505   0.764   2.649 -1.0927 -0.7821 -0.1875
10115SOL     OW31243   1.913   1.222   5.095 -0.2803  0.5194  0.0796
10115SOL    HW131244   1.944   1.220   5.000  2.0267  0.4865  0.7857
10115SOL    HW231245   1.913   1.316   5.128 -1.1740  0.5420  0.0389
10116SOL     OW31246   6.998   5.238   2.914 -0.0396  0.0544 -0.1558
10116SOL    HW131247   7.007   5.163   2.849 -1.0190 -0.7037  0.5307
10116SOL    HW231248   7.019   5.325   2.870 -0.6764 -0.4401 -1.4800
10117SOL     OW31249   5.024   1.350   5.284  0.4061 -0.2094  0.1640
10117SOL    HW131250   5.039   1.431   5.341  1.1230 -0.6761  0.6460
10117SOL    HW231251   4.977   1.280   5.338 -1.8469  0.4875 -0.7372
10118SOL     OW31252   0.189   4.987   4.222 -0.2315  0.0476 -0.0243
10118SOL    HW131253   0.174   4.969   4.125 -1.0049 -0.5293  0.1927
10118SOL    HW231254   0.223   4.904   4.266 -0.5527  0.1038  0.3313
10119SOL     OW31255   2.176   0.897   5.056  0.5238  0.1399 -0.1254
10119SOL    HW131256   2.094   0.905   5.112 -0.5749  0.5192 -1.7056
10119SOL    HW231257   2.224   0.985   5.055  0.9430 -0.0752  0.7829
10120SOL     OW31258   4.955   4.297   3.751 -0.7146 -0.8148 -0.2017
10120SOL    HW131259   4.954   4.326   3.655 -0.0258 -0.7580 -0.1967
10120SOL    HW231260   4.865   4.263   3.777 -0.9403 -0.7024 -0.8314
10121SOL     OW31261   5.333   3.924   3.766 -0.4513 -0.5595 -0.4326
10121SOL    HW131262   5.390   3.965   3.695  0.4935  1.1115  1.2092
10121SOL    HW231263   5.244   3.969   3.768  0.0732  0.4842  0.4183
10122SOL     OW31264   4.825   3.146   6.871 -0.0269 -0.5166 -0.0292
10122SOL    HW131265   4.842   3.242   6.848 -1.7860 -0.4215 -1.1563
10122SOL    HW231266   4.831   3.133   6.970  1.0746  0.5527  0.0684
10123SOL     OW31267   6.510   6.618   1.009 -0.4965 -0.4351  0.0998
10123SOL    HW131268   6.590   6.596   0.954 -0.6451  1.8315 -1.1467
10123SOL    HW231269   6.511   6.715   1.033 -1.5958 -0.8796  2.2651
10124SOL     OW31270   3.130   4.674   0.221 -0.2000  0.3370  0.0027
10124SOL    HW131271   3.139   4.774   0.222  1.2831  0.2353 -0.7045
10124SOL    HW231272   3.091   4.644   0.308 -0.8215  1.5325  0.1635
10125SOL     OW31273   2.398   6.811   1.039  0.4465  0.1177 -0.2975
10125SOL    HW131274   2.365   6.722   1.070  0.0945  0.8758  1.6463
10125SOL    HW231275   2.439   6.860   1.116  0.2334  1.8168 -1.2271
10126SOL     OW31276   4.428   2.692   1.086 -0.2970  0.5476  0.2262
10126SOL    HW131277   4.461   2.609   1.041 -0.8839  0.0972  0.6073
10126SOL    HW231278   4.505   2.742   1.124  0.0342  0.0006  0.2844
10127SOL     OW31279   3.798   3.626   6.403  0.2463  0.0131  0.0380
10127SOL    HW131280   3.737   3.566   6.454 -0.8618  1.2170  0.1712
10127SOL    HW231281   3.852   3.681   6.466  0.5264 -0.1180 -0.0865
10128SOL     OW31282   0.301   1.830   2.417  0.0724  0.2269  0.3238
10128SOL    HW131283   0.349   1.751   2.456 -1.2005  0.0730  1.6323
10128SOL    HW231284   0.237   1.798   2.347 -0.1114  0.1454  0.5285
10129SOL     OW31285   5.758   3.864   1.781 -0.0266  0.0313 -0.0347
10129SOL    HW131286   5.774   3.896   1.875 -0.5995 -0.8178  0.3622
10129SOL    HW231287   5.669   3.896   1.749  0.1279  0.2395 -0.2586
10130SOL     OW31288   6.480   4.099   0.568 -0.1570 -1.1549  0.3170
10130SOL    HW131289   6.482   4.041   0.487 -0.1859 -2.0568  0.9446
10130SOL    HW231290   6.552   4.168   0.562  0.5293 -1.8798  0.0030
10131SOL     OW31291   0.477   1.020   6.864 -0.4621  0.8688  0.4706
10131SOL    HW131292   0.562   0.973   6.886 -2.0752 -1.6891  1.6757
10131SOL    HW231293   0.476   1.044   6.767  1.5053  0.7318  0.3854
10132SOL     OW31294   2.460   0.720   4.600 -0.9649  0.7953  0.0093
10132SOL    HW131295   2.532   0.658   4.630 -0.6577  1.6699  1.1635
10132SOL    HW231296   2.375   0.699   4.648 -1.0260  0.8487 -0.0747
10133SOL     OW31297   5.457   3.055   4.204  0.3433 -0.7876 -0.2702
10133SOL    HW131298   5.434   3.095   4.115  1.8298 -1.8136 -1.1612
10133SOL    HW231299   5.416   3.110   4.277  1.9447  2.1776 -1.4331
10134SOL     OW31300   2.152   0.574   3.428  0.1820 -0.7299 -0.3071
10134SOL    HW131301   2.185   0.531   3.513  0.1609 -1.6687 -0.7570
10134SOL    HW231302   2.115   0.503   3.368  1.0473 -0.2060 -1.4894
10135SOL     OW31303   4.407   6.616   3.071  0.0760 -0.3738  0.4138
10135SOL    HW131304   4.392   6.635   2.974 -0.7429  0.6756  0.7195
10135SOL    HW231305   4.352   6.537   3.099 -0.5849  0.0191  0.2592
10136SOL     OW31306   5.899   0.543   2.204  0.6132 -0.6845  0.1749
10136SOL    HW131307   5.805   0.518   2.229  0.9669 -0.3039  1.9883
10136SOL    HW231308   5.945   0.463   2.166 -0.1494 -1.1172  0.1271
10137SOL     OW31309   5.563   4.364   5.281 -0.2346  0.0520  0.5493
10137SOL    HW131310   5.495   4.351   5.209  0.3338 -0.8134  0.1391
10137SOL    HW231311   5.587   4.461   5.288 -0.2442  0.1401 -0.4891
10138SOL     OW31312   4.059   1.802   6.317  0.0816 -0.4411  0.2769
10138SOL    HW131313   4.028   1.882   6.369 -0.4834  0.0942 -0.8382
10138SOL    HW231314   4.159   1.796   6.323  0.0855  0.0288  0.8252
10139SOL     OW31315   3.482   3.518   4.211  0.3902 -0.4370  0.3435
10139SOL    HW131316   3.436   3.577   4.145 -0.1429 -1.5935 -0.3401
10139SOL    HW231317   3.571   3.558   4.234  0.1359  0.5135 -0.2636
10140SOL     OW31318   6.394   5.501   4.110  0.2848  0.8386  0.6047
10140SOL    HW131319   6.367   5.522   4.204  1.5960  0.3905  1.0994
10140SOL    HW231320   6.493   5.515   4.100  0.6890 -1.9339  0.0902
10141SOL     OW31321   3.254   0.713   3.512 -0.1900  0.1436 -0.2571
10141SOL    HW131322   3.348   0.680   3.513 -0.4706 -0.7337 -0.7787
10141SOL    HW231323   3.217   0.715   3.605 -0.2166 -1.2354 -0.2181
10142SOL     OW31324   5.008   6.834   3.603  0.7082 -0.0031 -0.0393
10142SOL    HW131325   4.956   6.864   3.683 -1.0286  0.2275 -1.2067
10142SOL    HW231326   5.069   6.908   3.572  1.2979 -0.0531  0.9686
10143SOL     OW31327   3.765   5.363   0.345 -0.2379 -0.0139 -0.1827
10143SOL    HW131328   3.674   5.404   0.331 -1.2061 -2.0758 -0.2126
10143SOL    HW231329   3.821   5.426   0.398 -1.8232  1.1460  0.1979
10144SOL     OW31330   1.887   4.694   2.522  0.6709  0.7005 -0.5719
10144SOL    HW131331   1.883   4.595   2.513  2.2738  0.5469  0.0853
10144SOL    HW231332   1.812   4.736   2.469  0.4182 -0.8059 -1.4586
10145SOL     OW31333   4.414   6.595   4.842 -0.1383 -0.1419  0.0130
10145SOL    HW131334   4.369   6.627   4.758  1.2974 -1.2014 -1.2083
10145SOL    HW231335   4.512   6.612   4.836 -0.2690  2.5302  2.8224
10146SOL     OW31336   5.301   4.771   4.639 -0.3644 -0.1748  0.2444
10146SOL    HW131337   5.381   4.726   4.679  0.3200  1.1710  0.4505
10146SOL    HW231338   5.251   4.820   4.710 -2.4556 -2.4308  0.4798
10147SOL     OW31339   4.989   5.726   5.108 -0.1648  0.2862  0.2145
10147SOL    HW131340   4.935   5.735   5.192  0.2029  0.5414  0.4276
10147SOL    HW231341   4.997   5.815   5.064  0.6286  0.3784  0.5308
10148SOL     OW31342   4.258   5.616   0.718  0.4071  0.1873  0.0647
10148SOL    HW131343   4.306   5.604   0.630 -1.2701 -1.2480 -0.6962
10148SOL    HW231344   4.276   5.538   0.777 -1.3885 -0.6578 -0.4500
10149SOL     OW31345   3.428   1.610   6.078 -0.0862 -0.3108 -0.1206
10149SOL    HW131346   3.414   1.516   6.109 -1.4919 -0.5184 -1.2919
10149SOL    HW231347   3.478   1.609   5.991  1.7202  0.1586  0.8549
10150SOL     OW31348   5.263   4.497   0.038 -0.1908  0.2543 -0.2795
10150SOL    HW131349   5.363   4.502   0.032 -0.1845  1.3816  0.3386
10150SOL    HW231350   5.225   4.481  -0.053  0.6346 -2.7377 -0.1818
10151SOL     OW31351   0.990   6.298   6.627 -0.1863 -0.8726 -0.9207
10151SOL    HW131352   0.899   6.309   6.668 -0.8142 -0.6758 -2.3138
10151SOL    HW231353   0.981   6.252   6.539  0.8387  1.0590 -2.0840
10152SOL     OW31354   1.043   4.818   4.865 -0.3274  0.1026  0.1018
10152SOL    HW131355   1.075   4.893   4.808 -0.1036 -0.9160 -1.1721
10152SOL    HW231356   1.050   4.844   4.961  0.7479  1.3119 -0.2683
10153SOL     OW31357   6.205   5.102   3.179  0.5557  0.2460 -0.2696
10153SOL    HW131358   6.197   5.063   3.087 -0.0333  1.3162 -0.6889
10153SOL    HW231359   6.195   5.201   3.174  2.0463  0.4807  0.7703
10154SOL     OW31360   6.086   6.916   4.435  0.1650 -0.3544 -0.1946
10154SOL    HW131361   6.031   6.962   4.364 -0.0113  2.1765  1.4405
10154SOL    HW231362   6.055   6.946   4.525  3.5351  0.4399  0.8511
10155SOL     OW31363   3.182   1.156   5.822  0.7764 -0.1157  0.5029
10155SOL    HW131364   3.114   1.226   5.840  1.6601  0.3675  2.1499
10155SOL    HW231365   3.261   1.197   5.775  0.2285 -0.5579 -0.8683
10156SOL     OW31366   0.667   6.725   2.673 -0.2979 -0.0890  0.0480
10156SOL    HW131367   0.669   6.777   2.588  0.9463 -1.5421 -0.8691
10156SOL    HW231368   0.581   6.675   2.680  0.5673 -1.9589 -1.6887
10157SOL     OW31369   4.994   0.194   5.560  0.5891  0.6959 -0.1776
10157SOL    HW131370   4.998   0.101   5.525  1.3793  0.2836  0.9465
10157SOL    HW231371   5.056   0.203   5.638  2.2146  2.7333 -1.5970
10158SOL     OW31372   4.847   2.931   5.872 -0.0443 -0.2006 -0.7984
10158SOL    HW131373   4.778   2.924   5.943 -0.5635 -0.4435 -1.3195
10158SOL    HW231374   4.929   2.975   5.909 -0.6740  0.5976 -0.3136
10159SOL     OW31375   1.099   1.562   6.288  0.1733 -0.1009 -0.0351
10159SOL    HW131376   1.096   1.559   6.388  0.1288 -0.7674 -0.0471
10159SOL    HW231377   1.076   1.471   6.252  2.1077 -0.4011 -0.6125
10160SOL     OW31378   6.881   6.008   4.630  0.0908  0.0937 -0.1800
10160SOL    HW131379   6.870   6.075   4.703 -0.2611  0.5061 -0.6125
10160SOL    HW231380   6.848   5.919   4.662  2.4987 -0.4272  1.1661
10161SOL     OW31381   2.503   5.842   5.379  0.3107 -0.4992 -0.6507
10161SOL    HW131382   2.559   5.764   5.351  0.1261 -1.2554  0.9744
10161SOL    HW231383   2.410   5.831   5.345 -0.4362 -2.4087  1.7391
10162SOL     OW31384   4.285   1.134   5.828  0.3918  0.4473 -0.8632
10162SOL    HW131385   4.194   1.164   5.856 -0.2105 -1.1527 -0.9536
10162SOL    HW231386   4.328   1.085   5.904  0.6766  0.1697 -1.1998
10163SOL     OW31387   0.260   3.355   6.675 -0.4107 -0.1702 -0.1672
10163SOL    HW131388   0.340   3.394   6.721 -1.0156  1.1341 -0.1616
10163SOL    HW231389   0.276   3.354   6.576 -0.1458 -0.5025 -0.1235
10164SOL     OW31390   0.422   2.906   5.189 -0.2352 -0.3968 -0.1336
10164SOL    HW131391   0.344   2.846   5.177 -1.8870  1.8416 -1.5262
10164SOL    HW231392   0.391   2.998   5.215  1.8363  0.7194 -1.2474
10165SOL     OW31393   1.617   2.177   1.871 -0.0954 -0.2231  0.1996
10165SOL    HW131394   1.587   2.250   1.810  0.2533 -1.0211 -0.9664
10165SOL    HW231395   1.693   2.127   1.829  0.4922 -0.4893  1.5211
10166SOL     OW31396   1.169   5.958   4.129 -0.0131  0.0341 -0.3804
10166SOL    HW131397   1.086   5.974   4.075  0.1597  1.5652 -0.2349
10166SOL    HW231398   1.156   5.995   4.221  1.3935  1.8051 -0.8420
10167SOL     OW31399   4.213   1.341   0.198 -0.2263  0.3467 -0.1148
10167SOL    HW131400   4.139   1.275   0.192 -0.2431  0.3734 -0.2194
10167SOL    HW231401   4.220   1.391   0.111  1.1879 -1.0320 -0.8309
10168SOL     OW31402   4.836   3.120   3.643  0.0792 -0.6900 -0.5504
10168SOL    HW131403   4.894   3.192   3.681 -1.0157  0.5991 -1.2605
10168SOL    HW231404   4.821   3.050   3.713  1.6316 -0.5382 -0.0359
10169SOL     OW31405   6.098   3.173   3.049  0.0721  0.2020 -0.3897
10169SOL    HW131406   6.023   3.128   3.099  1.6480 -1.1746  0.8850
10169SOL    HW231407   6.092   3.272   3.062 -1.3158  0.0932 -0.0317
10170SOL     OW31408   1.200   3.644   5.435 -0.0538 -0.3751  0.6530
10170SOL    HW131409   1.282   3.586   5.434 -0.3300 -0.9019  2.9665
10170SOL    HW231410   1.137   3.613   5.363  0.2743 -2.2998  1.1262
10171SOL     OW31411   4.680   2.614   4.447  0.1415 -0.0063 -0.4172
10171SOL    HW131412   4.676   2.713   4.435  0.9004  0.0870  0.0481
10171SOL    HW231413   4.767   2.589   4.490 -1.0967 -0.6185  1.9082
10172SOL     OW31414   4.829   2.195   3.958  0.4191 -0.4223  0.7591
10172SOL    HW131415   4.763   2.227   3.889  0.2065 -2.2620  0.0351
10172SOL    HW231416   4.789   2.206   4.049 -1.4455 -2.5210  0.2910
10173SOL     OW31417   2.608   2.646   1.560 -0.1401  0.3942  0.1501
10173SOL    HW131418   2.683   2.612   1.617 -1.4874 -1.7282  0.8164
10173SOL    HW231419   2.522   2.605   1.591 -1.3888  1.6317 -1.4763
10174SOL     OW31420   6.440   3.739   1.542 -0.5178  0.2062 -0.0269
10174SOL    HW131421   6.402   3.779   1.625 -0.2050 -0.6656  0.5450
10174SOL    HW231422   6.471   3.813   1.481 -1.0105  0.8598  0.4911
10175SOL     OW31423   6.016   3.053   5.146 -1.0621  0.0232  0.2480
10175SOL    HW131424   6.021   3.013   5.055 -0.2037  0.7683 -0.0488
10175SOL    HW231425   5.924   3.088   5.163 -1.5131 -1.0713  0.0866
10176SOL     OW31426   1.271   3.433   7.015  0.7794 -0.1899  0.1563
10176SOL    HW131427   1.278   3.532   7.002 -0.6624  0.1194  1.4896
10176SOL    HW231428   1.314   3.407   7.102 -0.1887 -0.5058  0.5533
10177SOL     OW31429   3.376   6.213   5.569 -0.1970  0.1135  0.7621
10177SOL    HW131430   3.315   6.230   5.492 -0.9332  0.6801  1.4600
10177SOL    HW231431   3.324   6.178   5.647  0.7313 -1.7792  0.5910
10178SOL     OW31432   6.146   3.417   5.384 -0.5451 -0.2902 -0.1223
10178SOL    HW131433   6.169   3.362   5.464  1.3298  1.2257  0.4743
10178SOL    HW231434   6.185   3.375   5.302  0.0507 -0.3710  0.1926
10179SOL     OW31435   6.118   2.710   5.758  1.1127  0.0420 -0.4643
10179SOL    HW131436   6.024   2.737   5.781  1.7145  0.8431  1.2119
10179SOL    HW231437   6.176   2.791   5.752  1.6799 -0.4331 -1.6655
10180SOL     OW31438   3.505   6.609   5.939 -0.5335  0.1190 -0.4587
10180SOL    HW131439   3.588   6.614   5.884 -0.7616  2.7015 -0.6998
10180SOL    HW231440   3.528   6.624   6.035 -0.6700  0.4871 -0.4822
10181SOL     OW31441   4.791   4.341   1.768 -0.4860 -0.4427 -0.0987
10181SOL    HW131442   4.889   4.332   1.751 -0.5453 -0.0254 -0.7189
10181SOL    HW231443   4.776   4.402   1.846 -0.2574  0.1886 -0.5322
10182SOL     OW31444   4.323   1.427   6.389 -0.1235 -0.1859  0.6181
10182SOL    HW131445   4.229   1.459   6.399  0.3728  1.1144  1.4308
10182SOL    HW231446   4.371   1.437   6.476  1.4353  1.4936 -0.3539
10183SOL     OW31447   1.695   1.909   6.218  0.0788 -0.9497  0.3920
10183SOL    HW131448   1.693   1.966   6.135 -0.6599  1.2802  1.8394
10183SOL    HW231449   1.740   1.822   6.197  1.7358  0.3141 -1.8445
10184SOL     OW31450   3.741   0.434   6.054  0.3096  0.2131  0.1658
10184SOL    HW131451   3.674   0.487   6.107 -0.1185 -0.2129  0.0496
10184SOL    HW231452   3.806   0.391   6.117 -0.6789 -0.9580  0.4167
10185SOL     OW31453   3.625   2.309   1.678 -0.0279  0.4203  0.2050
10185SOL    HW131454   3.667   2.289   1.766  1.4627 -0.3732 -0.6323
10185SOL    HW231455   3.631   2.407   1.659  1.2294  0.3762  0.2591
10186SOL     OW31456   4.670   2.581   2.862  0.4670  0.6284  0.2309
10186SOL    HW131457   4.757   2.626   2.843  0.4579  0.5478 -0.0112
10186SOL    HW231458   4.674   2.537   2.951  0.9266  0.0196 -0.0805
10187SOL     OW31459   1.687   2.084   2.694  0.3848 -0.1471 -0.2982
10187SOL    HW131460   1.699   2.126   2.604 -0.3243  1.3684  0.2704
10187SOL    HW231461   1.677   2.156   2.763  3.1520 -1.2203  1.3595
10188SOL     OW31462   3.436   4.626   1.005  0.0149 -0.3149  0.0786
10188SOL    HW131463   3.350   4.592   1.043 -0.0778 -0.9023 -0.6368
10188SOL    HW231464   3.442   4.601   0.909  2.0031 -2.2423  0.6291
10189SOL     OW31465   0.373   0.817   5.876 -0.4004 -0.0389 -0.5155
10189SOL    HW131466   0.396   0.901   5.924 -0.3552 -0.1258 -0.3823
10189SOL    HW231467   0.376   0.832   5.778  1.3892 -0.3336 -0.5322
10190SOL     OW31468   3.901   1.833   0.543 -0.4640 -0.3472 -0.3141
10190SOL    HW131469   3.825   1.883   0.503  1.7265  0.6477 -3.7320
10190SOL    HW231470   3.940   1.771   0.474  1.2196 -1.5690  1.6048
10191SOL     OW31471   5.329   5.236   6.980  0.2270  0.5714  0.3349
10191SOL    HW131472   5.278   5.316   7.013  0.1969  0.6574  0.0862
10191SOL    HW231473   5.287   5.153   7.015 -0.5169  0.6066 -0.4248
10192SOL     OW31474   2.181   0.563   0.003  0.1797 -0.0238 -0.1333
10192SOL    HW131475   2.106   0.498  -0.005  0.3788 -0.5928  2.0471
10192SOL    HW231476   2.144   0.654   0.025  0.1031 -0.2241  0.5745
10193SOL     OW31477   3.339   3.935   5.838  0.7295  0.5671  0.0643
10193SOL    HW131478   3.351   3.955   5.740  1.5628  0.0569  0.0553
10193SOL    HW231479   3.261   3.986   5.873 -1.7382 -1.7079 -1.6532
10194SOL     OW31480   6.035   1.763   5.194  0.2031  0.2673 -0.3509
10194SOL    HW131481   6.127   1.749   5.156  0.3134 -1.6346  0.5051
10194SOL    HW231482   6.042   1.794   5.288 -0.0138 -0.3117 -0.1386
10195SOL     OW31483   5.030   4.582   1.874  0.2330  0.3885  0.1190
10195SOL    HW131484   4.998   4.611   1.784  1.2834 -1.7207 -0.9925
10195SOL    HW231485   4.958   4.530   1.920 -0.4463  1.7925  0.7279
10196SOL     OW31486   1.889   1.182   5.726 -0.7898 -0.1126  0.2087
10196SOL    HW131487   1.934   1.259   5.771  1.7933 -1.8519  0.8224
10196SOL    HW231488   1.921   1.175   5.632  0.7168 -1.6133  0.7729
10197SOL     OW31489   5.529   0.442   6.521  0.4302  0.5307 -0.2945
10197SOL    HW131490   5.429   0.440   6.516  0.0507  1.6827  3.4295
10197SOL    HW231491   5.566   0.484   6.438 -2.2459  1.0893 -1.3060
10198SOL     OW31492   4.814   6.913   3.074 -0.2286 -0.1365 -0.1999
10198SOL    HW131493   4.780   6.830   3.118 -0.3128  0.6504  1.2771
10198SOL    HW231494   4.912   6.923   3.093 -0.5651  0.9753  1.1472
10199SOL     OW31495   5.207   0.896   5.275 -0.2311  0.2651  0.3322
10199SOL    HW131496   5.219   0.797   5.283 -0.9578  0.1912  0.6520
10199SOL    HW231497   5.210   0.938   5.366  2.1441  0.8210  0.0455
10200SOL     OW31498   5.208   3.672   1.661 -0.3367 -0.0607 -0.9636
10200SOL    HW131499   5.276   3.633   1.723 -0.0384 -0.2252 -1.3833
10200SOL    HW231500   5.116   3.652   1.695 -0.2135  2.0066  0.7545
10201SOL     OW31501   0.649   1.750   0.282  0.0665 -0.3209 -0.7102
10201SOL    HW131502   0.724   1.727   0.345 -0.7969 -1.7136 -0.1502
10201SOL    HW231503   0.573   1.790   0.333 -0.4286 -0.9660 -0.9263
10202SOL     OW31504   4.750   1.637   4.028  0.4153  0.0005  0.2811
10202SOL    HW131505   4.706   1.724   4.004 -0.7622 -0.3552  1.1096
10202SOL    HW231506   4.725   1.567   3.960  1.7395  0.3851 -0.6551
10203SOL     OW31507   6.853   1.541   5.101  0.3094  0.0639 -0.3718
10203SOL    HW131508   6.922   1.609   5.127  0.4007  0.2482 -1.0886
10203SOL    HW231509   6.864   1.518   5.005  1.4453 -2.2767  0.2421
10204SOL     OW31510   4.894   6.136   6.081 -0.3021  0.3134 -0.7913
10204SOL    HW131511   4.914   6.071   6.154 -1.8057  0.8639  0.1638
10204SOL    HW231512   4.960   6.211   6.082  0.3175 -0.2308 -0.6984
10205SOL     OW31513   1.310   6.627   5.968  0.0856 -0.0694 -0.1922
10205SOL    HW131514   1.307   6.590   6.061 -0.5626  0.0239 -0.1772
10205SOL    HW231515   1.266   6.564   5.905 -0.3283  0.3108 -0.2875
10206SOL     OW31516   0.773   1.729   5.874  0.3319 -0.0546 -0.4508
10206SOL    HW131517   0.696   1.670   5.895  0.5622 -0.6890 -1.3054
10206SOL    HW231518   0.751   1.823   5.897 -1.6427  0.1672 -2.8733
10207SOL     OW31519   2.980   2.137   5.141  0.1332 -0.3041 -0.1699
10207SOL    HW131520   2.995   2.039   5.155  2.0496  0.1169  1.0148
10207SOL    HW231521   3.063   2.179   5.105 -0.6670  0.9053 -0.6633
10208SOL     OW31522   5.999   6.561   6.637  0.5256 -0.6216 -0.3145
10208SOL    HW131523   5.999   6.653   6.598  0.8709  0.6386  2.4330
10208SOL    HW231524   5.917   6.512   6.608  1.7267 -0.6768 -4.2733
10209SOL     OW31525   0.646   0.699   4.889 -0.5935  0.3088  0.3119
10209SOL    HW131526   0.609   0.722   4.799  0.3238  2.4799  0.4210
10209SOL    HW231527   0.636   0.601   4.905  0.2398 -0.3515 -2.6025
10210SOL     OW31528   2.845   1.090   1.499 -0.1659  0.4822 -0.2597
10210SOL    HW131529   2.884   1.182   1.493 -0.6947  0.6398 -1.7238
10210SOL    HW231530   2.919   1.024   1.515  0.2538  1.1199  0.5265
10211SOL     OW31531   6.196   6.091   4.071  0.2509  0.5313  0.0774
10211SOL    HW131532   6.291   6.116   4.055  0.3089 -1.0589 -2.4723
10211SOL    HW231533   6.192   6.012   4.133  0.4961  1.2010  0.9741
10212SOL     OW31534   2.520   0.972   5.938  0.4515  0.2539  0.1516
10212SOL    HW131535   2.500   1.053   5.883 -0.0193  0.4190  0.5563
10212SOL    HW231536   2.434   0.933   5.972  0.7140 -0.0419  0.4876
10213SOL     OW31537   1.224   3.617   1.734  0.2002  0.2870  0.0624
10213SOL    HW131538   1.224   3.615   1.634 -1.2250 -1.2486  0.0369
10213SOL    HW231539   1.161   3.688   1.766 -0.0381  0.1791 -0.1602
10214SOL     OW31540   1.536   2.176   0.920 -0.2670  0.4774 -0.0903
10214SOL    HW131541   1.568   2.258   0.967 -2.9908  1.7717 -0.2977
10214SOL    HW231542   1.505   2.109   0.988 -2.8619  1.7747  0.1222
10215SOL     OW31543   1.770   3.603   1.127  0.2710 -0.2163 -0.0412
10215SOL    HW131544   1.860   3.616   1.170  1.6973 -0.1658 -2.7816
10215SOL    HW231545   1.756   3.506   1.107 -0.6447 -0.3170  1.0255
10216SOL     OW31546   1.632   6.517   3.341 -0.0960 -0.1263 -0.2488
10216SOL    HW131547   1.650   6.577   3.263 -1.2553 -3.0562 -3.0228
10216SOL    HW231548   1.563   6.558   3.400 -1.2828  1.0388 -2.3359
10217SOL     OW31549   2.341   2.580   2.354 -0.7265  0.6365  0.1658
10217SOL    HW131550   2.371   2.564   2.260  1.6092  0.2702  0.8968
10217SOL    HW231551   2.261   2.640   2.354 -0.0641  1.6370 -2.0112
10218SOL     OW31552   0.387   2.073   2.854  0.3469 -0.0463 -0.5950
10218SOL    HW131553   0.384   2.155   2.797  1.9106  0.8180  0.4940
10218SOL    HW231554   0.448   2.088   2.931 -0.4411 -1.7607  0.4294
10219SOL     OW31555   0.349   5.557   3.327  0.5271  0.4484 -0.3816
10219SOL    HW131556   0.375   5.484   3.391  1.3162  1.3378  0.3400
10219SOL    HW231557   0.431   5.602   3.292  0.1459 -0.5009 -2.6371
10220SOL     OW31558   2.898   2.138   6.351 -0.3089  0.0495 -0.0417
10220SOL    HW131559   2.971   2.205   6.360  1.4645 -1.4677 -1.9348
10220SOL    HW231560   2.825   2.175   6.293  1.2118  0.0004 -2.0887
10221SOL     OW31561   5.541   4.817   4.209  0.2468  0.2747 -0.4893
10221SOL    HW131562   5.638   4.840   4.216  0.0547  1.2305 -0.7362
10221SOL    HW231563   5.514   4.763   4.289  0.6349  1.3471  0.3953
10222SOL     OW31564   3.031   3.263   3.962 -0.4375 -0.8158 -0.2410
10222SOL    HW131565   2.996   3.226   3.877  0.8617 -2.2754 -0.1989
10222SOL    HW231566   3.013   3.362   3.966 -1.8495 -0.9892 -1.4849
10223SOL     OW31567   1.493   0.361   0.558 -0.1905  0.0073  0.1352
10223SOL    HW131568   1.492   0.261   0.571 -2.0702 -0.2855 -1.7520
10223SOL    HW231569   1.447   0.384   0.472  0.5459  2.5067  0.3347
10224SOL     OW31570   6.821   3.422   3.042  0.2281 -0.5439 -0.6806
10224SOL    HW131571   6.805   3.518   3.064 -0.5202 -0.2466 -2.3461
10224SOL    HW231572   6.906   3.414   2.989  1.7138 -1.1709  1.6488
10225SOL     OW31573   1.848   3.287   0.063 -0.1320 -1.1442 -0.5952
10225SOL    HW131574   1.799   3.201   0.047  1.0085 -1.4590 -2.8016
10225SOL    HW231575   1.908   3.305  -0.015  1.1851  0.6244  0.7720
10226SOL     OW31576   4.859   1.324   6.414 -0.4375  0.2373  0.0019
10226SOL    HW131577   4.867   1.364   6.505  1.8929  1.0384 -0.4708
10226SOL    HW231578   4.789   1.373   6.361 -1.2345  0.2866  1.0713
10227SOL     OW31579   5.724   3.616   1.520 -0.6036  0.0678  0.7878
10227SOL    HW131580   5.742   3.624   1.422  0.9975 -0.3987  1.0247
10227SOL    HW231581   5.680   3.700   1.552  1.5840  1.4993  0.2229
10228SOL     OW31582   3.853   6.184   1.975 -0.4458 -0.7244 -0.4065
10228SOL    HW131583   3.873   6.112   1.909  0.5257 -1.9983  1.1795
10228SOL    HW231584   3.813   6.143   2.058  0.5755  0.4692  0.7265
10229SOL     OW31585   6.638   4.355   5.466  0.1225  0.2850 -0.4320
10229SOL    HW131586   6.640   4.300   5.382 -1.0697  0.2035 -0.4251
10229SOL    HW231587   6.643   4.294   5.545 -1.2420  0.1539 -0.4236
10230SOL     OW31588   0.945   5.173   2.002 -0.5213  0.6922  0.0837
10230SOL    HW131589   0.888   5.214   1.930  1.6526 -0.7042 -2.6160
10230SOL    HW231590   1.022   5.234   2.021 -0.2890  0.3860  0.1285
10231SOL     OW31591   0.483   6.313   2.693 -0.6667 -0.6498  0.3162
10231SOL    HW131592   0.410   6.316   2.625  1.0149 -2.6195 -1.7384
10231SOL    HW231593   0.469   6.385   2.761 -2.4724  1.4413 -2.1065
10232SOL     OW31594   5.662   5.973   3.171 -0.0525 -0.4410 -0.2000
10232SOL    HW131595   5.597   5.913   3.123  0.0689 -0.5895 -0.1785
10232SOL    HW231596   5.625   5.997   3.261 -0.9904  1.0665 -0.9390
10233SOL     OW31597   1.670   4.260   5.870 -0.5711  0.0815 -0.2828
10233SOL    HW131598   1.717   4.315   5.802 -0.3320  0.8847  0.5011
10233SOL    HW231599   1.571   4.269   5.858 -0.5448  1.1788  0.1870
10234SOL     OW31600   0.897   1.635   1.344 -0.2580  0.2094  0.5535
10234SOL    HW131601   0.889   1.735   1.336 -0.1448  0.2784  1.3016
10234SOL    HW231602   0.968   1.603   1.281  0.7878  0.7804  1.4232
10235SOL     OW31603   1.626   0.520   1.501  0.0392 -0.5355  0.5217
10235SOL    HW131604   1.612   0.586   1.427 -0.9671 -0.5311  0.7047
10235SOL    HW231605   1.683   0.445   1.468 -0.4402 -0.5592 -0.2821
10236SOL     OW31606   0.337   0.062   2.684  0.2746 -0.1874 -0.0828
10236SOL    HW131607   0.352   0.065   2.783  0.9508  1.2910 -0.1990
10236SOL    HW231608   0.321   0.155   2.651  1.7554 -0.4327 -1.5984
10237SOL     OW31609   0.159   2.798   3.284  0.1369 -0.1920  0.2851
10237SOL    HW131610   0.233   2.809   3.350 -0.1821  0.4834  0.5419
10237SOL    HW231611   0.144   2.701   3.267  0.9819 -0.3377  0.3348
10238SOL     OW31612   2.747   5.232   1.002 -0.3808 -0.0984 -0.0149
10238SOL    HW131613   2.819   5.225   1.072 -1.1733 -1.8963  0.6937
10238SOL    HW231614   2.789   5.239   0.912  0.6717  0.2560  0.4787
10239SOL     OW31615   1.920   0.617   5.412  0.0123  0.1038 -0.0719
10239SOL    HW131616   1.841   0.612   5.473 -0.4484 -0.4866 -0.7011
10239SOL    HW231617   1.900   0.569   5.327  0.8100  0.5243 -0.5155
10240SOL     OW31618   2.861   4.866   0.221 -0.0683 -0.4793 -0.4383
10240SOL    HW131619   2.958   4.882   0.235  0.2339 -2.9565  1.0370
10240SOL    HW231620   2.848   4.780   0.171 -1.5022  0.1414 -1.1933
10241SOL     OW31621   4.882   5.385   0.627 -0.0160  0.1877  0.6185
10241SOL    HW131622   4.806   5.372   0.691  0.1486 -0.6099  0.6639
10241SOL    HW231623   4.925   5.474   0.644 -0.5314  0.3653  1.0224
10242SOL     OW31624   0.126   2.916   1.661  0.4459  0.0462  0.0064
10242SOL    HW131625   0.226   2.922   1.665  0.3541  0.9729  1.7770
10242SOL    HW231626   0.088   2.934   1.751 -1.3385 -0.4027 -0.6192
10243SOL     OW31627   5.045   6.940   2.029 -0.1454 -0.3163 -0.2153
10243SOL    HW131628   4.951   6.934   1.995  0.1570 -1.9623 -0.8007
10243SOL    HW231629   5.107   6.961   1.954  0.0282  0.3412  0.0987
10244SOL     OW31630   1.872   4.592   1.052  0.0030  0.1944 -0.5606
10244SOL    HW131631   1.947   4.651   1.021 -0.4000  1.2666  0.4056
10244SOL    HW231632   1.819   4.641   1.121 -1.0641 -0.8856 -0.5949
10245SOL     OW31633   4.626   4.456   0.452  0.0166 -0.1560 -0.0835
10245SOL    HW131634   4.664   4.520   0.519  0.1889 -1.4201  1.0644
10245SOL    HW231635   4.657   4.481   0.361 -0.2707  1.6492  0.2742
10246SOL     OW31636   3.638   3.861   4.554 -0.1001 -0.2635 -0.3550
10246SOL    HW131637   3.704   3.922   4.599 -0.1943 -0.6076  0.2661
10246SOL    HW231638   3.672   3.767   4.556  0.0134 -0.2501 -1.2503
10247SOL     OW31639   2.544   2.267   6.134  0.3202  0.1358  0.7862
10247SOL    HW131640   2.515   2.310   6.048 -1.3875 -0.7591  0.8593
10247SOL    HW231641   2.563   2.338   6.202  0.5061  0.8324  0.0235
10248SOL     OW31642   0.974   2.602   4.925 -0.2676  0.2727  0.4003
10248SOL    HW131643   0.912   2.529   4.894  0.4767 -0.2887  0.2243
10248SOL    HW231644   0.954   2.623   5.021 -1.4864  0.8930  0.0433
10249SOL     OW31645   0.538   4.688   6.838 -0.0298 -0.0925 -0.7863
10249SOL    HW131646   0.504   4.656   6.926 -1.5204 -0.5808 -1.5109
10249SOL    HW231647   0.461   4.706   6.776  0.9772  0.2866 -1.9789
10250SOL     OW31648   4.092   0.413   1.599  1.1260 -0.4356 -0.4186
10250SOL    HW131649   4.126   0.473   1.672 -1.0722 -0.8432  1.0304
10250SOL    HW231650   4.013   0.456   1.555 -1.5479 -2.7500  1.7363
10251SOL     OW31651   1.143   1.268   4.921 -0.2142 -0.8788 -0.1024
10251SOL    HW131652   1.213   1.332   4.887 -0.7912  0.7316  1.5484
10251SOL    HW231653   1.152   1.260   5.021  0.0937 -3.7680 -0.2919
10252SOL     OW31654   4.376   4.590   6.125 -0.5840 -0.2097 -0.8650
10252SOL    HW131655   4.283   4.568   6.154  0.4397 -0.4598  2.7562
10252SOL    HW231656   4.395   4.687   6.141  0.0657 -0.3692 -0.6131
10253SOL     OW31657   3.647   5.519   6.114 -0.3426  0.6844 -0.1080
10253SOL    HW131658   3.549   5.524   6.100 -0.1452 -0.6727 -2.5440
10253SOL    HW231659   3.684   5.440   6.064  1.6362 -0.5577  2.9969
10254SOL     OW31660   6.177   1.348   6.670  0.4605  0.2260  0.0960
10254SOL    HW131661   6.240   1.274   6.694  0.9389 -0.2127 -2.2964
10254SOL    HW231662   6.230   1.432   6.654  0.1492  0.5296  0.6363
10255SOL     OW31663   3.728   4.236   1.784  0.2829  0.3738  0.1322
10255SOL    HW131664   3.663   4.312   1.781  0.2391  0.2924 -1.6700
10255SOL    HW231665   3.681   4.154   1.816  0.0930  0.8538  1.1236
10256SOL     OW31666   2.273   2.288   4.132 -0.4660 -0.1629 -0.3150
10256SOL    HW131667   2.174   2.286   4.120 -0.4522  0.3871 -0.5750
10256SOL    HW231668   2.297   2.260   4.225 -0.9122  0.3109 -0.0517
10257SOL     OW31669   3.329   6.409   2.297 -0.0503 -0.4306  0.1362
10257SOL    HW131670   3.414   6.451   2.327  0.4173 -1.3787  0.1792
10257SOL    HW231671   3.349   6.326   2.244 -0.9368 -0.5980  0.0368
10258SOL     OW31672   1.195   2.523   2.336 -0.0744  0.7758  0.5182
10258SOL    HW131673   1.146   2.440   2.308 -0.7880  1.5321 -0.5688
10258SOL    HW231674   1.293   2.505   2.336 -0.2367 -0.1548  0.5784
10259SOL     OW31675   0.147   3.196   6.051  0.0791 -0.0075  0.6359
10259SOL    HW131676   0.128   3.210   5.954 -0.6928  0.7037  0.8819
10259SOL    HW231677   0.132   3.281   6.101  0.5358 -0.3475  1.3733
10260SOL     OW31678   1.444   6.156   3.245 -0.3773 -0.3382 -0.1332
10260SOL    HW131679   1.424   6.227   3.313  3.3891 -0.8961  1.8831
10260SOL    HW231680   1.456   6.198   3.155 -0.0954  1.3310  0.6416
10261SOL     OW31681   6.715   2.499   0.052 -0.4063 -0.9444 -0.1448
10261SOL    HW131682   6.684   2.566   0.120  0.5950 -1.7021  1.0997
10261SOL    HW231683   6.676   2.409   0.074 -0.2071 -1.1655 -0.6825
10262SOL     OW31684   2.048   0.758   1.441  0.3111  0.0639 -0.1313
10262SOL    HW131685   2.113   0.832   1.425 -1.4023  1.2433 -2.2606
10262SOL    HW231686   1.981   0.787   1.509 -0.5734  0.6876 -1.2285
10263SOL     OW31687   5.927   1.249   3.619 -0.1552  0.4987  0.1387
10263SOL    HW131688   5.895   1.263   3.526  0.8037  0.6735 -0.1785
10263SOL    HW231689   5.890   1.320   3.678  1.8364  2.3815 -0.7627
10264SOL     OW31690   6.221   6.455   0.308  0.0103  0.4086 -0.5171
10264SOL    HW131691   6.272   6.535   0.339  0.3166 -0.8096  2.4237
10264SOL    HW231692   6.126   6.463   0.337 -0.2563  0.2667 -1.3385
10265SOL     OW31693   6.852   2.164   2.922 -0.5632  0.0978  0.1390
10265SOL    HW131694   6.765   2.156   2.969 -0.2715  0.7588  0.8061
10265SOL    HW231695   6.844   2.123   2.831 -1.4613 -0.1550  0.3182
10266SOL     OW31696   3.261   3.151   2.114  0.3041 -0.0456 -0.0689
10266SOL    HW131697   3.200   3.213   2.164 -0.3235 -1.4305  0.9296
10266SOL    HW231698   3.220   3.129   2.025 -0.1361 -0.1252  0.1517
10267SOL     OW31699   0.043   6.943   5.948 -0.2310 -0.0786 -0.3834
10267SOL    HW131700  -0.048   6.907   5.969  0.0788 -0.1147  0.9857
10267SOL    HW231701   0.050   6.960   5.850 -2.0798  0.9143 -0.3868
10268SOL     OW31702   5.189   0.223   1.527 -0.3084  0.2043  0.2648
10268SOL    HW131703   5.143   0.150   1.477  0.4935  0.0498 -0.2690
10268SOL    HW231704   5.286   0.202   1.536 -0.4181  0.2755  1.8424
10269SOL     OW31705   1.969   1.856   1.143 -0.1933  0.2464  0.7857
10269SOL    HW131706   1.934   1.860   1.050  1.4123 -0.1337  0.1396
10269SOL    HW231707   1.950   1.943   1.189 -0.2985  0.7394 -0.1593
10270SOL     OW31708   2.982   6.058   4.312  0.4692 -0.3796 -0.5181
10270SOL    HW131709   2.910   6.093   4.372  0.8619  1.4127 -1.0165
10270SOL    HW231710   2.942   6.033   4.223  0.0324 -2.1881  0.1469
10271SOL     OW31711   2.263   0.848   6.006  0.4918 -0.4878 -1.0407
10271SOL    HW131712   2.279   0.757   6.044  1.8345 -0.0334 -0.4633
10271SOL    HW231713   2.208   0.840   5.923 -1.0198 -1.6536  0.0002
10272SOL     OW31714   1.042   6.320   3.638  0.1606  0.0282  0.4212
10272SOL    HW131715   1.113   6.373   3.684  2.1156 -2.4921  0.5540
10272SOL    HW231716   0.966   6.380   3.614  2.2786  2.9091  0.3023
10273SOL     OW31717   2.076   4.652   4.134  0.7615 -0.4130 -0.3486
10273SOL    HW131718   1.999   4.710   4.163 -0.4834 -2.5574  0.8849
10273SOL    HW231719   2.145   4.651   4.207  1.7680  1.0819 -1.2321
10274SOL     OW31720   6.353   5.762   5.673 -0.1862  0.3348 -0.2040
10274SOL    HW131721   6.274   5.761   5.613 -0.5140  0.4414  0.2215
10274SOL    HW231722   6.414   5.836   5.647 -1.8729  2.4830  1.5558
10275SOL     OW31723   6.760   1.175   1.432 -0.2808  0.4222  0.0509
10275SOL    HW131724   6.840   1.139   1.481 -0.0552  0.9670  0.0808
10275SOL    HW231725   6.692   1.206   1.498 -0.2505  0.5474  0.0237
10276SOL     OW31726   3.105   5.385   5.866 -0.1261  0.5865  0.2712
10276SOL    HW131727   3.145   5.295   5.852 -0.5934 -0.0698  2.6928
10276SOL    HW231728   3.165   5.440   5.924 -0.2539  1.5639 -0.4811
10277SOL     OW31729   0.938   6.664   3.485  0.0731 -0.3227 -0.2601
10277SOL    HW131730   1.017   6.699   3.534  1.1980 -1.9023 -0.8631
10277SOL    HW231731   0.879   6.613   3.548  0.0057  0.0771  0.0028
10278SOL     OW31732   0.717   0.044   4.208  0.0303 -0.0925 -0.1823
10278SOL    HW131733   0.730   0.099   4.290 -0.9316  0.8209 -0.6120
10278SOL    HW231734   0.672  -0.042   4.232  0.1609 -0.0238  0.3088
10279SOL     OW31735   6.827   3.782   3.781 -0.0107  0.6770 -0.0017
10279SOL    HW131736   6.852   3.742   3.693 -0.4969  0.1146  0.1072
10279SOL    HW231737   6.736   3.748   3.808  0.4421  0.2750  1.0556
10280SOL     OW31738   0.354   5.447   5.799 -0.1269 -0.2230 -0.0672
10280SOL    HW131739   0.433   5.402   5.759  0.6851  1.0668  0.0415
10280SOL    HW231740   0.291   5.475   5.726  1.0553  1.5732 -0.4619
10281SOL     OW31741   0.934   0.942   4.039 -0.1247  0.0005  0.0472
10281SOL    HW131742   0.872   0.916   3.965 -3.1018 -0.8087  2.6248
10281SOL    HW231743   1.008   0.876   4.045 -1.3127 -1.4577 -0.5824
10282SOL     OW31744   4.224   2.236   3.931  0.3043 -0.1574 -0.4095
10282SOL    HW131745   4.221   2.247   3.832 -2.0419  0.9053 -0.2691
10282SOL    HW231746   4.296   2.295   3.968  0.0737  0.7172 -1.3256
10283SOL     OW31747   0.815   2.721   0.432  0.5421 -0.5156 -0.3365
10283SOL    HW131748   0.856   2.712   0.341 -0.1451 -0.2769 -0.6790
10283SOL    HW231749   0.885   2.747   0.498  1.1708 -1.3174 -0.6726
10284SOL     OW31750   5.884   2.695   2.761 -0.0023  0.0294 -0.1035
10284SOL    HW131751   5.858   2.721   2.667 -1.4565 -0.6348  0.0876
10284SOL    HW231752   5.806   2.653   2.807  1.4410 -2.1600  0.5249
10285SOL     OW31753   4.201   0.354   6.916  0.0899  0.2058 -0.5633
10285SOL    HW131754   4.104   0.365   6.940  0.0389 -0.2459 -0.5564
10285SOL    HW231755   4.231   0.432   6.862  0.3644  1.5896  1.4516
10286SOL     OW31756   2.909   2.261   3.650 -0.5000 -0.1230  0.1580
10286SOL    HW131757   2.988   2.220   3.695 -0.4755 -0.0444  0.1870
10286SOL    HW231758   2.922   2.260   3.551  0.1731  1.1626  0.2114
10287SOL     OW31759   2.258   5.445   2.763 -0.1420  0.1369 -0.2805
10287SOL    HW131760   2.177   5.405   2.807 -0.0414  1.7426  1.5021
10287SOL    HW231761   2.338   5.390   2.782  0.0363  1.1867  2.3181
10288SOL     OW31762   3.951   4.809   5.678  0.7899  0.0064 -0.3415
10288SOL    HW131763   4.044   4.778   5.697  0.6211 -0.2593  0.0604
10288SOL    HW231764   3.889   4.777   5.750  0.4441  0.4665 -0.4284
10289SOL     OW31765   4.302   5.498   6.618  0.0185 -0.3449 -0.4066
10289SOL    HW131766   4.214   5.496   6.665  0.8514  0.5630  1.2961
10289SOL    HW231767   4.300   5.436   6.540 -1.5911 -1.5625  0.5541
10290SOL     OW31768   3.061   3.306   2.224 -0.1993  0.1889 -0.0197
10290SOL    HW131769   2.984   3.354   2.182 -1.0115 -0.2334  0.9319
10290SOL    HW231770   3.072   3.338   2.318 -0.5218 -1.2036  0.5169
10291SOL     OW31771   1.902   1.676   0.694 -0.6135  0.7830 -0.6205
10291SOL    HW131772   1.981   1.619   0.717  0.7720  1.9803 -2.1495
10291SOL    HW231773   1.882   1.666   0.596 -0.5427  2.6176 -0.8483
10292SOL     OW31774   6.515   0.849   6.808 -0.5356  0.5915  0.5006
10292SOL    HW131775   6.494   0.751   6.814 -0.3786  0.6044  1.4417
10292SOL    HW231776   6.440   0.902   6.846  0.4614  0.6952  2.4966
10293SOL     OW31777   0.157   4.235   6.460  0.4118  0.0381  0.2702
10293SOL    HW131778   0.131   4.221   6.556  0.3015  0.5905  0.3284
10293SOL    HW231779   0.254   4.215   6.449  0.6781  1.0014  0.7339
10294SOL     OW31780   5.812   0.716   2.848  0.5161  0.4814  0.8039
10294SOL    HW131781   5.746   0.751   2.915 -0.1476  0.8389 -0.0156
10294SOL    HW231782   5.815   0.616   2.853 -0.3861  0.4357  0.5880
10295SOL     OW31783   0.561   3.443   0.827  0.0618  0.3063  0.4075
10295SOL    HW131784   0.634   3.502   0.793  0.1286 -0.6100 -1.1127
10295SOL    HW231785   0.601   3.366   0.876  0.0345  0.6918  1.0451
10296SOL     OW31786   4.209   2.065   5.111 -0.5141  0.0026 -0.0555
10296SOL    HW131787   4.209   1.966   5.098 -1.4268  0.0918 -0.9243
10296SOL    HW231788   4.115   2.097   5.120 -0.3740  1.0078 -1.7712
10297SOL     OW31789   1.956   0.653   0.378  0.0819  0.0772 -0.1170
10297SOL    HW131790   2.041   0.600   0.386 -0.2587 -0.2998  1.5092
10297SOL    HW231791   1.961   0.734   0.436 -0.1918  0.7440 -1.0058
10298SOL     OW31792   0.980   3.009   1.329  0.2864 -0.0808  0.3148
10298SOL    HW131793   0.950   3.090   1.380  0.1880  0.4982 -0.6428
10298SOL    HW231794   1.006   3.036   1.236  1.1436 -1.0070  0.2682
10299SOL     OW31795   5.896   1.055   1.680 -0.3890  0.3380  0.1756
10299SOL    HW131796   5.926   0.980   1.739 -1.2067  0.4432  0.7424
10299SOL    HW231797   5.898   1.141   1.731 -1.8218  0.3192  0.3021
10300SOL     OW31798   2.519   3.582   0.395  0.1460 -0.4918  0.2308
10300SOL    HW131799   2.585   3.596   0.470 -0.9722  1.3620  0.9288
10300SOL    HW231800   2.427   3.598   0.429 -0.4557 -0.4121 -1.3770
10301SOL     OW31801   1.745   6.230   0.402  0.0744  0.1273  0.6597
10301SOL    HW131802   1.841   6.240   0.424  0.3762 -0.3146 -0.3731
10301SOL    HW231803   1.695   6.194   0.481  1.3508 -2.7498  0.2777
10302SOL     OW31804   4.431   4.744   4.667  0.5081  0.1412 -0.1341
10302SOL    HW131805   4.356   4.726   4.732 -0.4432  1.7865 -0.7146
10302SOL    HW231806   4.455   4.659   4.620 -2.0023 -0.2082 -0.9615
10303SOL     OW31807   0.480   5.905   5.117 -0.5971 -0.4108  0.1535
10303SOL    HW131808   0.518   5.997   5.114 -1.8472  0.1724  1.0426
10303SOL    HW231809   0.534   5.844   5.060  0.9268  0.6172  0.4498
10304SOL     OW31810   0.279   5.763   0.415  0.0387 -0.0294 -0.0100
10304SOL    HW131811   0.262   5.859   0.437 -0.4093  0.0813 -0.7982
10304SOL    HW231812   0.378   5.747   0.406  0.1433  0.2245  0.6888
10305SOL     OW31813   2.084   2.888   4.660 -0.4071 -0.1358 -0.1045
10305SOL    HW131814   2.092   2.869   4.562  2.1308  0.4089 -0.0650
10305SOL    HW231815   2.052   2.806   4.708  0.4408 -1.0987 -1.1338
10306SOL     OW31816   2.730   6.943   0.820  0.2338  0.0265  0.2220
10306SOL    HW131817   2.806   7.004   0.800  0.0172  0.0790 -0.4357
10306SOL    HW231818   2.689   6.910   0.735 -1.5146  1.2697  0.5290
10307SOL     OW31819   2.812   5.018   4.918  0.5903  0.3713 -0.2324
10307SOL    HW131820   2.862   4.985   4.998  1.6861 -0.4216 -1.2153
10307SOL    HW231821   2.871   5.076   4.862 -0.6494  2.2469  0.3149
10308SOL     OW31822   4.760   5.965   0.310 -0.2252  0.1644 -0.2270
10308SOL    HW131823   4.730   6.009   0.225 -1.7253  0.0966  0.2463
10308SOL    HW231824   4.705   5.997   0.386 -0.6768 -1.7402  0.2982
10309SOL     OW31825   5.052   0.722   4.863 -0.0376  0.5506 -0.5183
10309SOL    HW131826   5.013   0.789   4.800 -0.1121  1.6307  0.6418
10309SOL    HW231827   4.980   0.659   4.892 -1.3366  3.1016  2.3481
10310SOL     OW31828   0.864   3.218   5.770  0.1308  0.1672 -0.0516
10310SOL    HW131829   0.868   3.204   5.869  2.4888  2.0349  0.2249
10310SOL    HW231830   0.916   3.145   5.725  0.9788  0.5475  0.2894
10311SOL     OW31831   5.749   3.991   0.566  0.0131 -0.5473  0.3603
10311SOL    HW131832   5.735   4.041   0.481  0.8516 -1.2831 -0.2199
10311SOL    HW231833   5.801   3.908   0.549  4.6249  1.6291  2.2321
10312SOL     OW31834   4.938   2.622   2.874 -0.1950 -0.1914  0.5730
10312SOL    HW131835   5.033   2.611   2.846 -1.0379 -0.7631 -2.5147
10312SOL    HW231836   4.933   2.640   2.972  2.9488 -1.7428  1.1311
10313SOL     OW31837   3.787   5.427   2.258 -0.1472 -0.4406 -0.1127
10313SOL    HW131838   3.727   5.467   2.190  1.1805  0.2866 -0.8937
10313SOL    HW231839   3.869   5.391   2.214  1.1385  0.8074  1.1499
10314SOL     OW31840   1.129   5.609   1.787 -0.0045 -0.0680 -0.8897
10314SOL    HW131841   1.117   5.562   1.700  0.2389  0.6462 -1.3159
10314SOL    HW231842   1.201   5.678   1.779  0.6752 -0.6157  0.1378
10315SOL     OW31843   6.577   4.828   3.518  0.4327  0.3890 -0.4375
10315SOL    HW131844   6.542   4.749   3.469  1.0572  0.3592 -0.8568
10315SOL    HW231845   6.593   4.903   3.454 -3.6536  2.2235  0.4055
10316SOL     OW31846   1.508   2.072   6.378  0.4102  0.2078  0.3331
10316SOL    HW131847   1.567   2.022   6.315  0.6441  2.5956 -1.4888
10316SOL    HW231848   1.414   2.040   6.369  0.5177  0.2120 -0.9028
10317SOL     OW31849   4.776   6.037   4.921 -0.1989  0.0881 -0.2271
10317SOL    HW131850   4.870   6.019   4.891 -0.2043  0.1546 -0.2868
10317SOL    HW231851   4.748   5.969   4.988  0.7851  1.5161  1.7080
10318SOL     OW31852   5.448   1.756   1.316 -0.1822 -0.6279  0.4920
10318SOL    HW131853   5.355   1.791   1.310 -0.8386 -2.1356  1.2606
10318SOL    HW231854   5.468   1.730   1.411  0.3479 -2.0488  0.0117
10319SOL     OW31855   2.037   5.164   4.286 -0.3107  0.3078 -0.2434
10319SOL    HW131856   1.990   5.252   4.280 -0.6620  0.1692  0.3476
10319SOL    HW231857   2.024   5.113   4.201  1.3148  1.5101 -1.2741
10320SOL     OW31858   2.545   6.962   3.528  0.9469  0.4586 -0.4938
10320SOL    HW131859   2.525   7.056   3.555 -0.0952 -0.1443  0.9832
10320SOL    HW231860   2.492   6.938   3.447 -0.5518  0.4904  0.4265
10321SOL     OW31861   4.460   1.689   2.635  0.7721  0.3294 -0.2012
10321SOL    HW131862   4.430   1.767   2.690  0.9991 -0.7705  1.5589
10321SOL    HW231863   4.519   1.721   2.560 -0.5799  1.9886 -0.6002
10322SOL     OW31864   4.821   4.086   4.100 -0.5093  0.5391  0.7676
10322SOL    HW131865   4.873   4.170   4.116  0.2726  0.3697 -0.7401
10322SOL    HW231866   4.815   4.034   4.185  2.8466 -0.0061  0.8219
10323SOL     OW31867   0.951   5.098   6.650  0.4198  0.0580 -0.0696
10323SOL    HW131868   1.030   5.040   6.671  0.7348  0.5133  0.0347
10323SOL    HW231869   0.929   5.090   6.553  0.5659 -0.1078 -0.0908
10324SOL     OW31870   2.683   3.870   1.581  0.4696  0.1996  0.2357
10324SOL    HW131871   2.606   3.820   1.620  1.7725 -0.9545  1.4183
10324SOL    HW231872   2.678   3.865   1.481  0.4203 -2.1336  0.3040
10325SOL     OW31873   5.394   4.650   4.393 -0.3194  0.1779 -0.0563
10325SOL    HW131874   5.321   4.630   4.328  0.6420 -1.3829 -0.7255
10325SOL    HW231875   5.355   4.686   4.478 -1.7367  0.5920 -0.8523
10326SOL     OW31876   4.047   2.934   6.889  0.1429  0.1947  0.7346
10326SOL    HW131877   4.084   2.870   6.822 -0.9670 -0.1302  0.4118
10326SOL    HW231878   4.038   2.889   6.978 -0.2270  0.0202  0.6131
10327SOL     OW31879   2.797   3.911   0.729 -0.1936 -0.0503 -0.2609
10327SOL    HW131880   2.712   3.958   0.752 -0.8311 -0.8921 -0.8170
10327SOL    HW231881   2.860   3.975   0.684 -0.2284  0.7627  0.8188
10328SOL     OW31882   4.860   3.888   1.655 -0.6262 -0.5295  0.1648
10328SOL    HW131883   4.853   3.882   1.754 -1.1203 -0.5179  0.1313
10328SOL    HW231884   4.882   3.798   1.618 -0.5135 -0.5486  0.2790
10329SOL     OW31885   3.101   1.107   2.443  0.2334  0.1231 -0.7367
10329SOL    HW131886   3.087   1.140   2.536  0.8897 -0.4257 -0.4358
10329SOL    HW231887   3.118   1.008   2.445 -1.2269 -0.1822 -1.5713
10330SOL     OW31888   5.100   1.635   1.592 -0.8547 -0.2247  0.0010
10330SOL    HW131889   5.111   1.639   1.691 -0.9915 -1.1056  0.0517
10330SOL    HW231890   5.147   1.555   1.556 -1.3659 -0.2740 -0.5748
10331SOL     OW31891   6.218   5.921   4.587 -0.3813 -0.3642  0.1297
10331SOL    HW131892   6.125   5.924   4.550 -1.2548 -0.9314  2.1274
10331SOL    HW231893   6.247   6.013   4.613  0.1877  0.0207 -1.6756
10332SOL     OW31894   2.271   2.026   6.286  0.4298 -0.1546  0.0093
10332SOL    HW131895   2.308   2.056   6.374 -2.2996 -0.8983  1.5276
10332SOL    HW231896   2.346   2.002   6.225  2.4505 -1.4448  2.7896
10333SOL     OW31897   1.260   2.747   2.906 -0.1326  0.2959  0.3595
10333SOL    HW131898   1.220   2.839   2.913 -0.4349  0.2159 -0.2474
10333SOL    HW231899   1.253   2.701   2.994 -0.5168  0.6349  0.5116
10334SOL     OW31900   3.248   1.849   3.980 -0.4553 -0.2814 -0.1014
10334SOL    HW131901   3.148   1.842   3.976 -0.5852  1.3184 -0.0049
10334SOL    HW231902   3.276   1.944   3.967  0.9648 -0.4320  1.5080
10335SOL     OW31903   0.087   1.202   5.294  0.1787  0.3005 -0.0653
10335SOL    HW131904   0.170   1.152   5.270  0.1267  0.7824 -1.3648
10335SOL    HW231905   0.032   1.217   5.212 -2.4771 -2.1605  1.0935
10336SOL     OW31906   4.638   1.049   4.129 -0.5354  0.0747 -0.3981
10336SOL    HW131907   4.675   0.957   4.141 -1.2419 -0.0431  1.0802
10336SOL    HW231908   4.703   1.104   4.075  0.9822 -0.6273  0.6388
10337SOL     OW31909   6.823   6.292   0.034  0.2474  0.3317  0.1014
10337SOL    HW131910   6.814   6.367  -0.032 -0.6657  0.9853  0.9340
10337SOL    HW231911   6.902   6.309   0.092  0.8468 -0.0662 -0.5755
10338SOL     OW31912   6.664   6.531   1.874 -0.3810 -0.0505 -0.3705
10338SOL    HW131913   6.717   6.587   1.810 -0.3623 -0.8720 -1.0977
10338SOL    HW231914   6.582   6.497   1.829 -0.6821 -0.1386  0.2373
10339SOL     OW31915   5.776   3.433   5.454  0.4521  0.0678  0.1130
10339SOL    HW131916   5.825   3.518   5.435  1.1894  0.1905  2.2203
10339SOL    HW231917   5.828   3.355   5.418  0.5118  0.4137 -0.5538
10340SOL     OW31918   3.110   6.663   0.210  0.1874  0.1051 -0.1429
10340SOL    HW131919   3.075   6.637   0.120  0.4622 -0.6535 -0.0417
10340SOL    HW231920   3.034   6.689   0.269  0.0791  1.5606 -0.8710
10341SOL     OW31921   1.584   5.135   2.291 -0.1286 -0.1565  0.9703
10341SOL    HW131922   1.510   5.112   2.227  0.6020 -1.7486  0.6494
10341SOL    HW231923   1.638   5.211   2.254 -1.0929  0.4722  0.8213
10342SOL     OW31924   1.733   6.695   2.175 -0.7163  0.0904  0.2540
10342SOL    HW131925   1.728   6.758   2.252  0.7229  0.5894 -0.0416
10342SOL    HW231926   1.640   6.663   2.152 -1.1002 -0.8883  2.8259
10343SOL     OW31927   4.482   5.721   3.094 -0.3683  0.5538  0.4196
10343SOL    HW131928   4.473   5.817   3.122  0.0386  0.5470  0.5789
10343SOL    HW231929   4.501   5.665   3.175  2.0179  0.6873  0.0055
10344SOL     OW31930   3.092   1.517   4.688 -0.4149 -0.1591  0.3941
10344SOL    HW131931   3.158   1.575   4.641 -0.8253  1.1242  1.3279
10344SOL    HW231932   3.050   1.454   4.623  0.4703  0.1997 -0.5423
10345SOL     OW31933   2.158   2.362   2.686  0.3532 -0.1018 -0.5844
10345SOL    HW131934   2.090   2.373   2.612  0.5380 -1.3554 -0.9513
10345SOL    HW231935   2.198   2.451   2.707 -0.2326  0.3932 -1.4941
10346SOL     OW31936   6.354   4.917   6.909  0.2624 -0.2589 -0.2968
10346SOL    HW131937   6.361   4.820   6.884 -0.5769 -0.6472  0.8483
10346SOL    HW231938   6.426   4.939   6.975 -0.7793 -0.6791  1.0350
10347SOL     OW31939   5.681   1.793   6.646 -0.0387 -0.3271 -0.0184
10347SOL    HW131940   5.737   1.876   6.639  0.5246 -0.7416 -0.6114
10347SOL    HW231941   5.609   1.796   6.576  0.5787 -0.7631 -0.6942
10348SOL     OW31942   6.258   4.783   1.947  0.1476  0.2657  0.3849
10348SOL    HW131943   6.330   4.733   1.995 -1.5166 -0.7183  1.9919
10348SOL    HW231944   6.179   4.723   1.933 -1.2245  1.9249  0.7014
10349SOL     OW31945   1.212   0.791   5.537 -0.8702  0.6527 -0.0840
10349SOL    HW131946   1.130   0.827   5.494 -1.2240  0.9260  0.8057
10349SOL    HW231947   1.198   0.782   5.636  1.1813  3.6544  0.6106
10350SOL     OW31948   3.151   6.404   5.117  0.1049 -0.3477 -0.3773
10350SOL    HW131949   3.186   6.485   5.070  0.2328  0.3025  0.7989
10350SOL    HW231950   3.131   6.333   5.050  0.0374  0.6313 -1.4311
10351SOL     OW31951   2.867   3.917   0.264 -0.1513  0.1435  0.5064
10351SOL    HW131952   2.963   3.944   0.267 -0.3083  1.1715 -1.7123
10351SOL    HW231953   2.860   3.818   0.278  1.5628 -0.4518 -2.1070
10352SOL     OW31954   3.564   3.651   4.933  0.4707  0.5071  0.3114
10352SOL    HW131955   3.655   3.684   4.909  0.7724  0.8577  1.8150
10352SOL    HW231956   3.570   3.591   5.013 -0.7149  1.5195  1.2195
10353SOL     OW31957   6.456   2.739   0.455  0.2299  1.3160 -0.2701
10353SOL    HW131958   6.530   2.774   0.512 -0.7239 -0.4982  2.2230
10353SOL    HW231959   6.474   2.644   0.432 -1.0159  1.0356 -0.1546
10354SOL     OW31960   5.694   2.356   1.810  0.5348  0.0348 -0.4403
10354SOL    HW131961   5.667   2.268   1.770 -0.5638  0.3065 -0.3466
10354SOL    HW231962   5.638   2.374   1.891  2.2740 -0.1983  0.8595
10355SOL     OW31963   5.533   3.767   2.413  0.5230  0.7347  0.9887
10355SOL    HW131964   5.623   3.775   2.455  1.4103  3.7577 -1.1327
10355SOL    HW231965   5.489   3.857   2.411 -0.2106  0.4476 -2.6656
10356SOL     OW31966   5.818   0.777   4.764  0.8487 -0.9228  0.0150
10356SOL    HW131967   5.728   0.815   4.742  1.7976  0.7804 -1.1122
10356SOL    HW231968   5.822   0.755   4.862 -1.2553 -2.4300 -0.1865
10357SOL     OW31969   4.590   1.186   6.136 -0.9134 -0.4374  0.2194
10357SOL    HW131970   4.557   1.122   6.066  1.6547 -2.1627  0.4573
10357SOL    HW231971   4.683   1.215   6.113 -2.0118  3.4499  0.0546
10358SOL     OW31972   1.570   2.173   0.644 -0.3677 -0.0593  0.3441
10358SOL    HW131973   1.552   2.179   0.742  2.7143 -1.8392  1.1346
10358SOL    HW231974   1.619   2.088   0.623 -1.2347  0.0801 -2.8259
10359SOL     OW31975   1.806   1.392   3.632  0.3278  0.7315 -0.2754
10359SOL    HW131976   1.791   1.399   3.534 -0.4833 -1.0369 -0.3209
10359SOL    HW231977   1.832   1.298   3.655 -0.3464  0.9018  1.3014
10360SOL     OW31978   6.544   4.157   2.221  0.0358 -0.2002  0.1030
10360SOL    HW131979   6.597   4.197   2.146 -1.3642  0.9848 -0.2948
10360SOL    HW231980   6.536   4.224   2.295 -1.3850 -0.1363 -0.0939
10361SOL     OW31981   1.134   4.454   2.054 -0.3389 -0.5649 -0.2112
10361SOL    HW131982   1.230   4.426   2.053 -0.0543  0.3936 -0.1013
10361SOL    HW231983   1.127   4.550   2.027 -1.2040 -0.4332  0.4624
10362SOL     OW31984   0.077   5.652   4.780 -0.0135  0.1248  0.2561
10362SOL    HW131985   0.087   5.682   4.685  1.0914 -1.4440 -0.1902
10362SOL    HW231986   0.161   5.674   4.830 -0.8798  1.6204  1.1092
10363SOL     OW31987   5.955   0.103   1.711 -0.7298  0.1278  0.0815
10363SOL    HW131988   6.048   0.126   1.741 -0.5175 -0.2740 -0.2635
10363SOL    HW231989   5.957   0.018   1.659 -1.4653 -0.5661  1.1402
10364SOL     OW31990   2.113   4.393   2.304  0.4138  0.0221  0.6323
10364SOL    HW131991   2.112   4.485   2.266 -0.2423 -0.1215  0.2989
10364SOL    HW231992   2.203   4.352   2.290  0.3413  0.1652 -0.2977
10365SOL     OW31993   5.313   6.370   1.442 -0.9856  0.4206  0.0117
10365SOL    HW131994   5.393   6.347   1.387  0.8299 -0.0125  2.6491
10365SOL    HW231995   5.300   6.301   1.514 -2.4835  1.5528  0.8945
10366SOL     OW31996   4.192   4.767   3.725 -0.3366  0.2542 -0.5338
10366SOL    HW131997   4.169   4.842   3.664 -2.3128 -0.8336 -1.1915
10366SOL    HW231998   4.170   4.793   3.819 -2.3322  0.0372 -0.9092
10367SOL     OW31999   0.373   1.469   2.675  0.1314 -0.4868  0.2522
10367SOL    HW132000   0.409   1.532   2.606 -0.5088 -0.6832 -0.2735
10367SOL    HW232001   0.369   1.516   2.764 -0.9580  0.4487 -0.2626
10368SOL     OW32002   2.225   1.976   1.326 -0.0112 -0.7195 -0.1972
10368SOL    HW132003   2.260   1.945   1.238 -2.2426 -2.7083 -0.4751
10368SOL    HW232004   2.246   1.907   1.396  1.0177  0.4563  0.7000
10369SOL     OW32005   2.441   2.575   0.888 -0.7949  0.7198 -0.5235
10369SOL    HW132006   2.535   2.543   0.901 -1.5287 -0.6175  2.1513
10369SOL    HW232007   2.443   2.669   0.855  1.4563  0.2069 -2.0676
10370SOL     OW32008   4.691   1.242   4.768  0.3692  0.4185 -0.5324
10370SOL    HW132009   4.759   1.314   4.779  1.1989 -0.4520  0.1678
10370SOL    HW232010   4.672   1.200   4.857 -1.3805  0.8978 -0.6467
10371SOL     OW32011   6.327   6.191   4.744  0.1906  0.0831  0.4920
10371SOL    HW132012   6.307   6.116   4.806 -2.5312 -0.9325 -1.4371
10371SOL    HW232013   6.421   6.183   4.711  0.4269 -1.5743  1.4926
10372SOL     OW32014   1.780   6.492   3.818  0.0416  0.0729  0.1546
10372SOL    HW132015   1.822   6.464   3.904 -0.6964  2.1175  1.2514
10372SOL    HW232016   1.822   6.441   3.742  3.0857  0.5634  1.3541
10373SOL     OW32017   1.083   5.388   5.880 -0.0821  0.0311 -0.3553
10373SOL    HW132018   1.119   5.406   5.972 -1.9453  1.2560  0.2054
10373SOL    HW232019   0.989   5.422   5.875 -0.1174 -0.2921 -2.6471
10374SOL     OW32020   2.264   3.029   4.103 -0.2973 -0.4816  0.0776
10374SOL    HW132021   2.184   2.973   4.081  0.1976 -1.7642  1.3384
10374SOL    HW232022   2.338   2.970   4.136  0.7075  0.8104  0.2246
10375SOL     OW32023   0.905   3.253   0.477 -0.1804  0.0038 -0.1447
10375SOL    HW132024   0.879   3.311   0.554  1.1652  0.5738 -0.0786
10375SOL    HW232025   0.949   3.170   0.511  0.3415  0.2173 -0.2854
10376SOL     OW32026   5.062   1.422   4.554  0.1977  0.2639 -0.5818
10376SOL    HW132027   5.139   1.377   4.509 -0.2331  0.4186 -1.5010
10376SOL    HW232028   5.092   1.508   4.594  0.2871  0.8724 -1.9024
10377SOL     OW32029   1.348   6.690   6.731  0.3289  0.3096 -0.2898
10377SOL    HW132030   1.410   6.616   6.757 -0.0223 -0.5327 -1.7169
10377SOL    HW232031   1.259   6.652   6.707 -0.1347  1.3035 -0.1859
10378SOL     OW32032   6.965   0.354   6.749  0.1036  0.2026  0.2209
10378SOL    HW132033   6.904   0.384   6.823  0.9242  0.0781  0.9543
10378SOL    HW232034   6.979   0.429   6.685  1.3332  1.1065  1.5046
10379SOL     OW32035   5.296   1.823   5.084 -0.0230 -0.2541 -0.1787
10379SOL    HW132036   5.320   1.919   5.069 -0.4494 -0.0475  0.4172
10379SOL    HW232037   5.296   1.774   4.997  1.5923 -0.0397 -0.3228
10380SOL     OW32038   2.750   1.924   3.158  0.5428 -0.3515  0.4888
10380SOL    HW132039   2.831   1.940   3.101  0.5322 -1.3989  0.1605
10380SOL    HW232040   2.704   2.011   3.175  1.9985  0.3375  1.0959
10381SOL     OW32041   6.323   3.861   4.383  0.1413  0.2412  0.5132
10381SOL    HW132042   6.267   3.808   4.319  0.3404  1.9982 -1.2117
10381SOL    HW232043   6.272   3.874   4.469 -2.2409  1.8172 -0.9982
10382SOL     OW32044   2.242   0.517   4.632  0.3628  0.1831  0.4356
10382SOL    HW132045   2.208   0.424   4.640 -0.2846  0.0626 -2.4279
10382SOL    HW232046   2.306   0.537   4.706 -0.4120 -2.0814  1.7938
10383SOL     OW32047   4.837   1.991   1.201 -0.2725  0.0356 -0.4571
10383SOL    HW132048   4.766   2.029   1.140 -1.2108 -1.8834 -0.6397
10383SOL    HW232049   4.795   1.966   1.288  0.1313 -1.2966 -0.6362
10384SOL     OW32050   5.856   6.238   6.289 -0.2761  0.2018 -0.4182
10384SOL    HW132051   5.760   6.217   6.309 -0.4344 -0.2427 -1.5869
10384SOL    HW232052   5.879   6.326   6.330 -0.7023 -0.4216  1.2778
10385SOL     OW32053   5.394   2.073   1.009  0.0663  0.8623 -0.1225
10385SOL    HW132054   5.309   2.062   1.061  1.0294  1.3634  1.6466
10385SOL    HW232055   5.378   2.049   0.914 -1.8847  0.2800  0.3049
10386SOL     OW32056   4.877   4.455   1.036 -0.1559  0.6870  0.3126
10386SOL    HW132057   4.824   4.371   1.045 -0.1241  0.5910 -0.3357
10386SOL    HW232058   4.926   4.473   1.122  0.1548 -0.1695  0.3309
10387SOL     OW32059   0.563   6.053   1.400  0.3635 -0.4224 -0.0672
10387SOL    HW132060   0.488   6.118   1.407  2.4632  2.2475 -0.8850
10387SOL    HW232061   0.535   5.966   1.441 -1.4728  1.9160  4.3393
10388SOL     OW32062   1.669   4.280   1.645 -0.2626 -0.6112 -0.2127
10388SOL    HW132063   1.734   4.336   1.594 -0.0699  0.7130  1.4148
10388SOL    HW232064   1.717   4.227   1.714 -0.6407 -1.5968 -0.6847
10389SOL     OW32065   0.044   5.893   3.219  0.0618 -0.3070 -0.3719
10389SOL    HW132066   0.114   5.821   3.225  0.8457  0.4620  0.1116
10389SOL    HW232067  -0.007   5.897   3.305  1.9054  1.5126  0.7395
10390SOL     OW32068   1.866   3.700   3.840  0.1474 -0.4995  0.1085
10390SOL    HW132069   1.864   3.623   3.903 -0.2555 -0.1682  0.5061
10390SOL    HW232070   1.874   3.785   3.891 -1.0923 -0.1624 -0.2276
10391SOL     OW32071   5.387   6.709   3.572 -0.0006 -0.3345 -0.2837
10391SOL    HW132072   5.466   6.648   3.569  1.5221  1.5671 -0.6208
10391SOL    HW232073   5.303   6.655   3.579  1.2629 -2.4389 -0.6838
10392SOL     OW32074   5.776   4.557   5.933 -0.4400  0.7010  0.2891
10392SOL    HW132075   5.752   4.471   5.979  0.0161  1.3602  1.8182
10392SOL    HW232076   5.702   4.623   5.944 -0.3875  0.8201 -0.0619
10393SOL     OW32077   0.304   2.380   3.082 -0.0111  0.1669 -0.2905
10393SOL    HW132078   0.234   2.313   3.105 -1.2757  1.5412 -0.0168
10393SOL    HW232079   0.320   2.379   2.983 -1.4225  0.7636 -0.5495
10394SOL     OW32080   4.473   0.017   1.812 -0.3122  0.1109  0.6356
10394SOL    HW132081   4.511   0.017   1.720 -1.8869 -1.0235 -0.0652
10394SOL    HW232082   4.510   0.095   1.863 -1.1203  2.1373 -1.6600
10395SOL     OW32083   0.804   1.308   3.805 -0.8453 -0.3362 -0.2668
10395SOL    HW132084   0.856   1.225   3.787 -1.0952 -0.8033  1.0341
10395SOL    HW232085   0.796   1.362   3.721  2.0581 -0.0451 -0.4584
10396SOL     OW32086   1.313   1.698   3.089 -0.2524 -0.1580  0.3420
10396SOL    HW132087   1.354   1.706   2.999 -0.3677  1.0541  0.3762
10396SOL    HW232088   1.383   1.677   3.157  0.1654  0.8502  0.2426
10397SOL     OW32089   5.234   1.258   3.284  0.5702 -0.2812 -0.3993
10397SOL    HW132090   5.186   1.172   3.304 -0.6745  0.6492  0.7692
10397SOL    HW232091   5.325   1.256   3.326 -0.5414  0.0774  2.2376
10398SOL     OW32092   6.590   5.109   2.132 -0.5403 -0.2439 -0.1923
10398SOL    HW132093   6.584   5.199   2.089 -4.3090 -0.5224 -0.5868
10398SOL    HW232094   6.618   5.119   2.227  2.2622  0.9177 -1.0090
10399SOL     OW32095   5.162   3.294   6.467  0.2710 -0.0126 -0.4038
10399SOL    HW132096   5.074   3.270   6.426 -0.7095  1.4038  0.7530
10399SOL    HW232097   5.170   3.251   6.557 -0.9550  2.6889  1.1362
10400SOL     OW32098   6.252   5.439   0.229  0.4933 -0.9263 -0.0052
10400SOL    HW132099   6.287   5.436   0.323  0.7135 -0.6690 -0.0787
10400SOL    HW232100   6.176   5.374   0.220  0.3969 -0.8730  0.3823
10401SOL     OW32101   0.742   6.119   2.317 -0.3603 -0.2583  0.6075
10401SOL    HW132102   0.795   6.162   2.244 -0.0539  1.4389  1.7827
10401SOL    HW232103   0.702   6.189   2.375 -4.8924 -1.3684 -0.7829
10402SOL     OW32104   2.091   2.547   5.531 -0.3488 -0.0828  0.2919
10402SOL    HW132105   2.150   2.543   5.451  1.5260  0.6211  1.5891
10402SOL    HW232106   2.018   2.478   5.522  0.3206 -0.6042 -1.5797
10403SOL     OW32107   5.267   2.476   1.487 -0.0991  0.4736 -0.6156
10403SOL    HW132108   5.225   2.547   1.430  0.1757 -0.5467 -2.1430
10403SOL    HW232109   5.208   2.396   1.490 -0.0657  0.4720  0.5060
10404SOL     OW32110   1.785   1.315   3.366  0.2037 -0.2648  0.2613
10404SOL    HW132111   1.715   1.246   3.348  1.2272 -1.3600  0.4229
10404SOL    HW232112   1.875   1.273   3.364  0.8819  1.1477 -0.0073
10405SOL     OW32113   6.227   0.797   1.135 -0.0093  0.3246  0.1159
10405SOL    HW132114   6.247   0.785   1.038  2.1957  0.7391  0.4663
10405SOL    HW232115   6.227   0.895   1.157 -0.0449  0.2139  0.6175
10406SOL     OW32116   0.504   5.505   5.487  0.0682  0.1212 -0.2485
10406SOL    HW132117   0.590   5.494   5.537 -1.4594  2.2967  3.1780
10406SOL    HW232118   0.517   5.572   5.413  1.1278  1.3094  0.9561
10407SOL     OW32119   2.419   0.298   6.603  0.2062  0.5126 -0.0397
10407SOL    HW132120   2.478   0.378   6.604 -0.2393  0.8400  0.1966
10407SOL    HW232121   2.382   0.281   6.695 -0.3870  0.5540 -0.2643
10408SOL     OW32122   5.299   0.447   3.035  0.1527  0.1143 -0.5475
10408SOL    HW132123   5.236   0.519   3.008  0.6327  0.6262 -0.3237
10408SOL    HW232124   5.333   0.400   2.952 -1.4297 -0.9787 -0.6121
10409SOL     OW32125   6.165   4.504   3.005  0.8546 -0.6316 -0.0702
10409SOL    HW132126   6.251   4.533   2.963  1.1908 -1.1808  0.2338
10409SOL    HW232127   6.091   4.562   2.971  0.9729 -1.5906 -2.0964
10410SOL     OW32128   4.226   5.413   2.121 -0.3340  0.1255 -0.3680
10410SOL    HW132129   4.216   5.456   2.031 -0.1860 -0.9636 -0.9151
10410SOL    HW232130   4.320   5.384   2.135 -0.9603 -2.6605 -1.2743
10411SOL     OW32131   1.171   6.215   0.942 -0.4713  0.0318 -0.5314
10411SOL    HW132132   1.259   6.169   0.952  0.2250  1.5645  0.7857
10411SOL    HW232133   1.171   6.268   0.857  0.3432  0.9532  0.0270
10412SOL     OW32134   6.729   1.835   4.773 -0.0155 -0.3852 -0.2067
10412SOL    HW132135   6.665   1.767   4.809  0.5282 -1.0085 -0.4010
10412SOL    HW232136   6.796   1.858   4.843  0.9346 -1.4650 -0.7098
10413SOL     OW32137   5.504   0.895   5.211  0.1956 -0.2632 -0.1252
10413SOL    HW132138   5.524   0.947   5.294  2.3919 -0.2710 -0.5806
10413SOL    HW232139   5.527   0.951   5.131  0.3588 -1.0777 -0.6591
10414SOL     OW32140   6.580   0.752   4.347  0.1094 -0.0500  0.3629
10414SOL    HW132141   6.602   0.787   4.255 -2.2682  0.6157 -0.0325
10414SOL    HW232142   6.649   0.784   4.412  1.3554  0.2217 -1.0342
10415SOL     OW32143   6.743   0.704   4.869 -0.0420  0.0055 -0.4635
10415SOL    HW132144   6.700   0.782   4.913  1.2857  1.0609 -0.9824
10415SOL    HW232145   6.674   0.634   4.851 -0.9542  0.3466  1.4838
10416SOL     OW32146   1.947   6.668   6.884  0.0864 -0.3508  0.0916
10416SOL    HW132147   1.856   6.683   6.921  0.2128  1.7202 -0.3545
10416SOL    HW232148   2.000   6.753   6.888  1.2551 -0.9375 -1.6649
10417SOL     OW32149   3.930   5.150   3.352  0.3503  0.1974  0.1658
10417SOL    HW132150   3.882   5.235   3.373 -1.1838 -1.0230  2.0299
10417SOL    HW232151   3.879   5.099   3.282 -0.7756 -0.7402  1.5893
10418SOL     OW32152   0.181   1.943   1.742  0.1173  0.1313 -0.0442
10418SOL    HW132153   0.115   2.014   1.769 -0.5933  0.1601 -1.6809
10418SOL    HW232154   0.220   1.967   1.653  1.3318 -0.5833  0.2755
10419SOL     OW32155   7.005   1.045   5.711 -0.2822  0.1808  0.3602
10419SOL    HW132156   6.937   0.981   5.747  1.2770 -2.8489 -1.7046
10419SOL    HW232157   6.964   1.101   5.640 -0.9564 -0.7938 -0.0387
10420SOL     OW32158   5.404   3.702   3.008 -0.0880  0.0467  0.8374
10420SOL    HW132159   5.418   3.789   3.054  1.8965  0.5814 -0.6572
10420SOL    HW232160   5.474   3.636   3.037  1.1751  0.3792 -1.2318
10421SOL     OW32161   5.903   6.779   5.818 -0.3569  0.1838  0.0629
10421SOL    HW132162   5.947   6.689   5.812  0.7633  0.5646  1.6996
10421SOL    HW232163   5.973   6.849   5.834 -1.0754  1.5535 -2.3240
10422SOL     OW32164   4.324   2.031   6.874 -0.7305  0.3729 -0.0938
10422SOL    HW132165   4.379   1.977   6.937 -2.3122  0.5377  1.5177
10422SOL    HW232166   4.373   2.115   6.850  0.2039 -0.0445  0.3201
10423SOL     OW32167   3.144   4.481   0.681  0.6141 -0.0218  0.7422
10423SOL    HW132168   3.121   4.564   0.731 -1.9388 -1.3054  1.9185
10423SOL    HW232169   3.079   4.467   0.607  1.9579 -0.2026 -0.4394
10424SOL     OW32170   4.313   6.851   2.245 -0.8085 -0.1669 -0.0227
10424SOL    HW132171   4.319   6.786   2.169  0.4269 -1.2817  0.9781
10424SOL    HW232172   4.399   6.850   2.296 -0.9903  1.8378  0.3858
10425SOL     OW32173   1.194   4.743   0.102  0.3697  0.1362 -0.2144
10425SOL    HW132174   1.283   4.787   0.106  0.1111  0.8304 -1.6480
10425SOL    HW232175   1.133   4.795   0.042 -1.4458  0.4535  1.7539
10426SOL     OW32176   6.732   4.417   1.090  0.3080 -0.0659 -0.4877
10426SOL    HW132177   6.765   4.510   1.106 -0.8929  0.3336 -0.2541
10426SOL    HW232178   6.802   4.365   1.041  1.1058  0.8742 -0.3718
10427SOL     OW32179   7.019   2.643   2.928  0.1043 -0.1403 -0.4537
10427SOL    HW132180   7.016   2.625   2.830 -2.7832 -1.9594 -0.1433
10427SOL    HW232181   6.958   2.719   2.950 -1.7885 -1.7792  0.2099
10428SOL     OW32182   3.087   5.903   6.204 -0.4950  0.1666  0.2045
10428SOL    HW132183   3.141   5.984   6.228  0.3272 -0.5515  0.8496
10428SOL    HW232184   3.049   5.914   6.112 -1.5708  1.8778  0.7988
10429SOL     OW32185   2.363   5.352   2.033  0.1821 -0.3064  0.2703
10429SOL    HW132186   2.379   5.326   1.937  1.0842 -1.6143  0.7411
10429SOL    HW232187   2.441   5.322   2.088 -0.4098  0.2847  1.4482
10430SOL     OW32188   2.894   5.212   5.149  0.5778  0.1636  0.6126
10430SOL    HW132189   2.974   5.154   5.142 -0.7065 -1.5403 -1.0806
10430SOL    HW232190   2.836   5.180   5.225 -0.2111 -0.9664 -0.4232
10431SOL     OW32191   4.828   1.727   5.273  0.7235  0.3297  0.0688
10431SOL    HW132192   4.920   1.691   5.279  0.1520 -1.1006  0.6692
10431SOL    HW232193   4.765   1.654   5.244 -0.3672  1.0191  0.6250
10432SOL     OW32194   5.378   5.740   6.267 -0.1515  0.1602  0.2788
10432SOL    HW132195   5.477   5.726   6.269 -0.1170  0.3350 -0.1518
10432SOL    HW232196   5.340   5.700   6.184 -0.5148 -0.3568  0.6937
10433SOL     OW32197   4.558   4.446   4.288 -0.0542  0.6126  0.7539
10433SOL    HW132198   4.573   4.350   4.313 -0.1872  0.8987  2.0222
10433SOL    HW232199   4.559   4.502   4.371  1.3449  1.8932 -0.0815
10434SOL     OW32200   4.620   1.315   5.174  0.0826 -1.0148 -0.2421
10434SOL    HW132201   4.668   1.246   5.121  0.6687 -1.0869  0.3659
10434SOL    HW232202   4.642   1.303   5.271  1.2642  0.8401 -0.2331
10435SOL     OW32203   3.018   0.937   0.616  0.4718  0.2464  0.1728
10435SOL    HW132204   3.106   0.978   0.638  0.7204 -0.7139  1.0753
10435SOL    HW232205   3.026   0.882   0.533  1.4035 -1.7835  1.5134
10436SOL     OW32206   5.899   5.034   5.367 -0.2075  0.0960  0.4375
10436SOL    HW132207   5.983   5.086   5.386 -0.4526  1.0042 -0.8173
10436SOL    HW232208   5.826   5.098   5.342 -0.3015 -0.8598 -1.9886
10437SOL     OW32209   1.422   0.433   4.802 -0.5542  0.4165  0.0682
10437SOL    HW132210   1.381   0.352   4.843  0.0023 -0.4891 -1.1084
10437SOL    HW232211   1.351   0.485   4.754 -0.9368  0.7105  0.9318
10438SOL     OW32212   6.683   6.768   6.794 -0.2829  0.1258  0.6646
10438SOL    HW132213   6.605   6.820   6.760  0.2397  1.1054  0.9352
10438SOL    HW232214   6.673   6.672   6.768 -0.9636  0.4672 -0.3811
10439SOL     OW32215   5.567   5.853   5.107  0.4073 -0.0751  0.1001
10439SOL    HW132216   5.623   5.788   5.055 -0.0537 -1.2023  0.9819
10439SOL    HW232217   5.472   5.847   5.076  0.4220  0.4284 -0.0478
10440SOL     OW32218   6.866   2.286   3.388 -0.3886  0.7894  0.0651
10440SOL    HW132219   6.808   2.215   3.429 -1.7474  0.5551 -2.0870
10440SOL    HW232220   6.962   2.259   3.396 -0.8433 -1.0221 -0.1213
10441SOL     OW32221   5.658   6.581   0.324 -0.2650  0.2162 -0.1248
10441SOL    HW132222   5.603   6.500   0.307  1.7150 -1.1554 -0.3511
10441SOL    HW232223   5.718   6.599   0.245  2.1339 -0.5038  1.4204
10442SOL     OW32224   4.029   2.446   5.722 -0.6516  0.4097  0.3693
10442SOL    HW132225   4.078   2.483   5.644  2.1635 -2.3058  0.6259
10442SOL    HW232226   3.947   2.501   5.740  0.1644  2.8613 -2.5793
10443SOL     OW32227   0.830   0.487   6.329 -0.3139  0.0703  0.4043
10443SOL    HW132228   0.754   0.422   6.329 -0.0575 -0.2426 -0.3454
10443SOL    HW232229   0.867   0.496   6.421  0.4245 -1.7739  0.3242
10444SOL     OW32230   2.367   5.656   3.932  0.1786  0.0378 -0.0775
10444SOL    HW132231   2.450   5.601   3.922 -0.4253 -0.5595 -2.3393
10444SOL    HW232232   2.360   5.719   3.855 -1.4750  0.0843  0.0902
10445SOL     OW32233   2.206   2.516   4.804  0.5328  0.3412 -0.1960
10445SOL    HW132234   2.223   2.515   4.903 -1.2655  0.3074  0.1505
10445SOL    HW232235   2.224   2.607   4.768 -0.3672  0.8244  0.5048
10446SOL     OW32236   1.712   4.868   4.665  0.5459 -0.4696 -0.1639
10446SOL    HW132237   1.695   4.955   4.620  1.6921 -0.0036  0.2574
10446SOL    HW232238   1.757   4.884   4.753  2.8582 -1.5247 -1.0637
10447SOL     OW32239   0.402   0.010   3.705 -0.2702 -0.2770  0.5955
10447SOL    HW132240   0.398   0.029   3.803  0.6810 -2.3259  1.0848
10447SOL    HW232241   0.468   0.071   3.662 -3.6118  3.5587  0.3507
10448SOL     OW32242   0.055   5.081   3.224 -0.2550 -0.9357  0.1821
10448SOL    HW132243   0.152   5.080   3.250  0.2441 -1.0051 -1.5443
10448SOL    HW232244   0.019   5.174   3.235 -0.4108 -1.1791  2.1350
10449SOL     OW32245   1.896   5.404   4.325 -0.6810  0.5611 -0.5175
10449SOL    HW132246   1.945   5.479   4.370 -0.4178 -0.7461  1.4908
10449SOL    HW232247   1.798   5.420   4.333 -0.6293  0.6327  0.0190
10450SOL     OW32248   1.352   1.822   3.990  0.5303 -0.4069 -0.1785
10450SOL    HW132249   1.275   1.780   4.037  0.8282 -0.3529  0.3646
10450SOL    HW232250   1.335   1.920   3.980 -0.5136 -0.7354 -2.1286
10451SOL     OW32251   4.023   1.931   4.131  0.1304 -0.2635  0.6259
10451SOL    HW132252   4.107   1.879   4.148  0.2354 -0.2208  0.2566
10451SOL    HW232253   3.976   1.892   4.051  0.5465  0.6186 -0.0588
10452SOL     OW32254   1.360   3.427   4.959 -0.2838 -0.6320 -0.1705
10452SOL    HW132255   1.357   3.440   5.058  1.2184 -1.7881  0.0663
10452SOL    HW232256   1.446   3.383   4.934 -0.3992  0.1123 -2.0611
10453SOL     OW32257   3.089   5.174   4.367  0.1397  0.3296  0.5874
10453SOL    HW132258   3.113   5.109   4.294  1.1148  1.6380 -0.2969
10453SOL    HW232259   3.168   5.232   4.387 -0.7993  1.4640  1.1185
10454SOL     OW32260   4.514   1.705   1.009  0.3549 -0.0219 -0.0915
10454SOL    HW132261   4.581   1.767   0.969 -0.8187  1.2698 -0.1036
10454SOL    HW232262   4.488   1.737   1.100  2.3145 -2.4381  1.4419
10455SOL     OW32263   1.578   6.604   2.534 -0.0883  0.5640 -0.1995
10455SOL    HW132264   1.657   6.655   2.499  0.1853 -0.5352 -1.2389
10455SOL    HW232265   1.497   6.662   2.530  0.6433  1.7427  0.9551
10456SOL     OW32266   1.292   1.125   0.869  0.5954 -0.1238  0.0138
10456SOL    HW132267   1.266   1.162   0.780  0.6504 -0.2450 -0.0530
10456SOL    HW232268   1.359   1.052   0.857  1.4547  0.6159  0.2255
10457SOL     OW32269   3.494   2.593   0.152 -0.1054  0.2063 -0.6481
10457SOL    HW132270   3.423   2.527   0.177 -0.9712  1.6173  0.8078
10457SOL    HW232271   3.580   2.567   0.195 -0.3518 -0.1751 -0.3780
10458SOL     OW32272   0.917   0.023   6.852  0.3343  0.3687  0.1898
10458SOL    HW132273   0.853   0.079   6.903 -0.6158 -1.0204  0.5952
10458SOL    HW232274   0.866  -0.038   6.791  1.3676  0.5963 -0.9419
10459SOL     OW32275   4.754   0.431   1.284 -0.4423  0.0383 -0.1956
10459SOL    HW132276   4.672   0.378   1.263 -0.3114  0.2333 -1.2448
10459SOL    HW232277   4.836   0.376   1.267 -0.3412 -0.2976  1.2473
10460SOL     OW32278   5.555   0.247   5.789  0.3545 -0.6261 -0.1711
10460SOL    HW132279   5.509   0.269   5.875 -0.2071 -1.1592 -0.3296
10460SOL    HW232280   5.487   0.227   5.718  0.8150 -0.5460 -0.6454
10461SOL     OW32281   5.883   3.795   0.185  0.0213 -0.5523 -0.1823
10461SOL    HW132282   5.883   3.891   0.211 -1.5391 -0.5512 -0.0700
10461SOL    HW232283   5.965   3.750   0.222 -0.6745  0.0835  2.3265
10462SOL     OW32284   4.136   2.419   6.984 -0.1466 -0.3647 -0.2654
10462SOL    HW132285   4.047   2.451   6.952  0.6666  2.1540 -0.2947
10462SOL    HW232286   4.135   2.411   7.084 -0.3381  0.0002 -0.2345
10463SOL     OW32287   5.031   0.951   6.131 -0.4950  0.0424  0.2216
10463SOL    HW132288   5.126   0.980   6.129 -0.9364  1.5509 -0.4287
10463SOL    HW232289   4.984   0.993   6.208 -0.9057  0.2282 -0.1229
10464SOL     OW32290   6.616   5.380   2.093 -0.0771  0.2196 -0.0556
10464SOL    HW132291   6.566   5.459   2.058  1.5693  0.8783 -1.0238
10464SOL    HW232292   6.645   5.398   2.187  0.1397  0.6891 -0.2117
10465SOL     OW32293   4.301   6.001   1.386  0.0355 -0.5200  0.2179
10465SOL    HW132294   4.367   6.075   1.393 -0.0094 -0.4942  0.3794
10465SOL    HW232295   4.285   5.962   1.477  0.4852 -1.0967  0.0539
10466SOL     OW32296   4.135   2.745   6.344 -0.0546  0.9473  0.7367
10466SOL    HW132297   4.201   2.820   6.337  0.2512  0.6119 -0.0936
10466SOL    HW232298   4.176   2.661   6.309 -0.6752  0.5644  0.9074
10467SOL     OW32299   5.426   3.710   6.473 -0.8333 -0.0043 -0.4728
10467SOL    HW132300   5.493   3.767   6.521 -0.5850 -0.4671 -0.2694
10467SOL    HW232301   5.339   3.759   6.468 -0.7208  0.2535  0.0098
10468SOL     OW32302   1.289   3.987   5.289  0.3646 -0.0337  0.8085
10468SOL    HW132303   1.367   3.948   5.338  0.3048  0.8815  1.6700
10468SOL    HW232304   1.295   4.087   5.293  0.3343  0.0679 -1.0233
10469SOL     OW32305   1.586   0.878   4.044 -0.2016 -0.4171  0.3978
10469SOL    HW132306   1.598   0.789   4.088  0.5843 -0.0867  0.8730
10469SOL    HW232307   1.658   0.940   4.075 -1.4917  0.7825  1.0741
10470SOL     OW32308   2.134   4.530   2.529  0.1546 -0.3221  0.1417
10470SOL    HW132309   2.212   4.491   2.578 -0.6115 -0.5477  1.2379
10470SOL    HW232310   2.098   4.464   2.464 -0.6700 -1.2109  1.4494
10471SOL     OW32311   3.783   3.120   6.352  0.2425 -0.3910 -0.3874
10471SOL    HW132312   3.762   3.213   6.320 -0.3049 -0.4204 -0.1311
10471SOL    HW232313   3.700   3.064   6.349  0.0398 -0.2777  1.4875
10472SOL     OW32314   5.204   5.744   5.350 -0.2477 -0.6294  0.4407
10472SOL    HW132315   5.174   5.649   5.347 -2.7098  0.0758  0.3121
10472SOL    HW232316   5.226   5.775   5.258  0.0601 -0.9272  0.4136
10473SOL     OW32317   6.614   6.511   6.762  0.0357 -0.3901 -0.1425
10473SOL    HW132318   6.611   6.439   6.692 -0.2825 -1.1556  0.6423
10473SOL    HW232319   6.535   6.501   6.823 -0.9112  1.6030 -0.9512
10474SOL     OW32320   6.039   0.296   6.149  0.5678  0.2613  0.3422
10474SOL    HW132321   5.961   0.245   6.112 -0.5774  2.3706 -0.3203
10474SOL    HW232322   6.087   0.240   6.216 -1.1987 -1.3107  0.3729
10475SOL     OW32323   1.345   3.915   1.645  0.0406  0.4414  0.0702
10475SOL    HW132324   1.354   3.987   1.714 -0.8023  0.8423 -0.2215
10475SOL    HW232325   1.387   3.831   1.678 -0.6380  0.5351  1.2188
10476SOL     OW32326   6.208   0.190   1.293 -0.6555 -0.0630  0.2039
10476SOL    HW132327   6.117   0.224   1.318 -1.3647 -0.7828 -1.2804
10476SOL    HW232328   6.256   0.160   1.375 -0.9704  2.1164  1.2705
10477SOL     OW32329   6.488   5.662   3.805  0.1653 -0.2883  0.1798
10477SOL    HW132330   6.568   5.656   3.864 -0.4129  1.6938  1.2631
10477SOL    HW232331   6.407   5.635   3.856  0.1171 -2.5720 -0.9958
10478SOL     OW32332   0.008   1.977   6.849  0.4604 -0.1670 -0.4505
10478SOL    HW132333  -0.030   2.004   6.761 -0.2776  1.4135  0.3051
10478SOL    HW232334   0.030   2.059   6.903 -1.4488 -1.0219  1.8097
10479SOL     OW32335   1.137   3.901   2.163 -0.3659  0.2356  0.4821
10479SOL    HW132336   1.052   3.849   2.149 -0.9604  0.8853  1.6154
10479SOL    HW232337   1.210   3.838   2.193 -0.2373 -0.4348 -1.1158
10480SOL     OW32338   2.812   6.540   2.132  0.1198  0.4344  0.0446
10480SOL    HW132339   2.875   6.590   2.073 -2.0541  1.2181 -1.7404
10480SOL    HW232340   2.740   6.602   2.164  0.8255 -0.1334  3.0441
10481SOL     OW32341   0.009   0.932   0.957  0.1064  0.0511  0.4602
10481SOL    HW132342  -0.068   0.870   0.941  0.9176 -1.3851  1.8375
10481SOL    HW232343  -0.005   1.016   0.905 -1.4834 -0.8986 -0.7565
10482SOL     OW32344   4.950   2.769   4.454 -0.0779 -0.0643 -0.1517
10482SOL    HW132345   4.928   2.789   4.549  0.6325 -0.9181  0.2053
10482SOL    HW232346   4.967   2.855   4.405  1.9018  0.2910  1.0776
10483SOL     OW32347   6.261   0.919   0.688  0.6090 -0.7870  0.7482
10483SOL    HW132348   6.171   0.882   0.708  1.2062 -1.4722  2.3214
10483SOL    HW232349   6.273   1.008   0.733 -0.0062  0.3337 -1.1867
10484SOL     OW32350   5.606   0.364   2.469  0.0339  0.2645 -0.2062
10484SOL    HW132351   5.685   0.330   2.519  0.4856  1.5029 -0.0359
10484SOL    HW232352   5.636   0.423   2.395 -0.6588 -1.0551 -1.5950
10485SOL     OW32353   5.201   1.853   6.757 -0.2109 -0.1753  0.0338
10485SOL    HW132354   5.125   1.871   6.695  1.0556  3.1499 -0.7792
10485SOL    HW232355   5.240   1.764   6.737 -1.6875 -0.4553 -1.9354
10486SOL     OW32356   5.086   4.069   2.937  0.0140 -0.4806 -0.0681
10486SOL    HW132357   5.038   3.984   2.916 -0.9067  0.3015 -1.2173
10486SOL    HW232358   5.034   4.146   2.901 -0.3815  0.7874  2.9213
10487SOL     OW32359   4.651   0.768   1.909 -0.0602 -0.1050  0.2583
10487SOL    HW132360   4.615   0.689   1.860 -1.0589  0.4101  0.1222
10487SOL    HW232361   4.592   0.787   1.988  0.0342  0.6410  0.1549
10488SOL     OW32362   5.164   3.997   5.779  0.0722 -0.4218  0.6838
10488SOL    HW132363   5.090   3.930   5.772 -0.1339 -0.2593  1.2798
10488SOL    HW232364   5.211   3.985   5.866 -0.4476  0.7015  1.1352
10489SOL     OW32365   2.207   4.533   4.758  0.3202 -0.3491 -0.3360
10489SOL    HW132366   2.109   4.524   4.770  0.2637  0.3330 -0.2765
10489SOL    HW232367   2.253   4.455   4.802 -0.1425 -0.2631  0.3075
10490SOL     OW32368   5.890   6.379   4.802 -0.3667 -0.1754  0.3081
10490SOL    HW132369   5.812   6.335   4.846 -1.4322  0.6789 -0.6460
10490SOL    HW232370   5.921   6.322   4.725 -0.2553 -0.3682  0.4963
10491SOL     OW32371   5.857   3.281   6.728 -0.1339  0.0079 -0.1204
10491SOL    HW132372   5.809   3.326   6.653 -0.7492  0.9634  0.8158
10491SOL    HW232373   5.928   3.221   6.691  0.9718  2.0151 -1.4596
10492SOL     OW32374   5.208   3.408   4.971 -0.0175 -0.4057  0.1040
10492SOL    HW132375   5.225   3.311   4.952  1.3496 -0.1889  0.0981
10492SOL    HW232376   5.118   3.433   4.936  0.3673 -1.2336 -1.5998
10493SOL     OW32377   2.335   2.289   0.666  0.0619 -0.1295  0.1968
10493SOL    HW132378   2.289   2.221   0.609  1.3753 -1.8833  1.1382
10493SOL    HW232379   2.335   2.259   0.761  1.5139  0.7158  0.4992
10494SOL     OW32380   5.453   1.767   6.471  0.3583  0.0264  0.1503
10494SOL    HW132381   5.520   1.750   6.399  0.0856 -1.3908  0.1995
10494SOL    HW232382   5.389   1.839   6.442  1.4139  0.8420 -0.2062
10495SOL     OW32383   2.244   4.915   0.075 -0.5840 -0.4280 -0.5250
10495SOL    HW132384   2.265   4.818   0.086  1.6684  0.1866  1.3491
10495SOL    HW232385   2.308   4.957   0.011 -1.5709 -0.1614 -1.3563
10496SOL     OW32386   0.073   0.633   6.537  0.1669 -0.3077 -0.0112
10496SOL    HW132387  -0.006   0.667   6.588 -0.9473 -1.2358 -1.0398
10496SOL    HW232388   0.062   0.655   6.440  0.5456 -1.5464 -0.3507
10497SOL     OW32389   0.110   0.773   5.963  0.0629 -0.2180 -0.0975
10497SOL    HW132390   0.121   0.739   6.056 -1.1148 -2.0238 -0.5748
10497SOL    HW232391   0.200   0.796   5.926  0.6525 -0.4702  1.1215
10498SOL     OW32392   3.016   5.236   6.500 -0.2178 -1.0921  0.2495
10498SOL    HW132393   3.059   5.299   6.435 -1.2398  1.1585  1.6393
10498SOL    HW232394   2.921   5.220   6.473 -0.4825 -0.5950  0.8777
10499SOL     OW32395   2.642   5.571   2.541 -0.4948  0.1670  0.6374
10499SOL    HW132396   2.653   5.496   2.477  1.0351 -0.2530  1.3258
10499SOL    HW232397   2.690   5.549   2.626  0.0159  1.9172  0.8479
10500SOL     OW32398   1.891   2.753   0.258 -0.0877 -0.4819  0.7927
10500SOL    HW132399   1.932   2.768   0.348 -1.2644  3.8448  0.8327
10500SOL    HW232400   1.792   2.749   0.267 -0.3402  1.5808 -0.3177
10501SOL     OW32401   2.113   3.660   2.275  0.1235 -0.4188 -0.2229
10501SOL    HW132402   2.146   3.596   2.206  0.2993  0.0748 -0.6085
10501SOL    HW232403   2.101   3.750   2.233 -2.0302 -0.6323 -0.1741
10502SOL     OW32404   3.997   6.503   5.345 -0.2632 -0.5986  0.0254
10502SOL    HW132405   3.946   6.504   5.431 -0.8544 -1.6945 -0.2839
10502SOL    HW232406   3.950   6.443   5.280  1.1653 -1.2679 -0.4419
10503SOL     OW32407   1.369   4.128   6.445  0.0448  0.3966 -0.0916
10503SOL    HW132408   1.359   4.208   6.385  0.9641  0.5342 -0.0773
10503SOL    HW232409   1.283   4.076   6.446 -0.8857  1.8524  0.5893
10504SOL     OW32410   1.796   4.046   0.690  0.1501  0.0642 -0.2847
10504SOL    HW132411   1.778   4.137   0.653  1.3464 -0.0610 -1.2323
10504SOL    HW232412   1.794   3.979   0.616 -1.6923 -0.8512  0.5434
10505SOL     OW32413   6.893   6.393   0.578  0.2361 -0.2027 -0.0781
10505SOL    HW132414   6.970   6.452   0.555  0.7354 -0.7215  0.2444
10505SOL    HW232415   6.926   6.308   0.618 -0.5572  0.2856  1.7188
10506SOL     OW32416   5.792   5.105   6.581  0.5073  0.2769 -0.4215
10506SOL    HW132417   5.791   5.183   6.643  1.7058  0.5264 -0.6795
10506SOL    HW232418   5.887   5.078   6.563  0.2156  0.4035 -2.3709
10507SOL     OW32419   3.425   6.334   5.938  0.6833  0.2348 -0.0558
10507SOL    HW132420   3.336   6.337   5.983  0.9134 -1.4039  0.6056
10507SOL    HW232421   3.461   6.426   5.928 -0.4845  0.8239  0.9072
10508SOL     OW32422   5.808   4.478   1.640 -0.4422  0.2847  0.6152
10508SOL    HW132423   5.749   4.554   1.667 -1.8236 -0.1797 -0.9251
10508SOL    HW232424   5.771   4.393   1.676 -0.5209  0.0356 -0.0384
10509SOL     OW32425   2.855   0.949   4.489 -0.1790 -0.0118  0.0599
10509SOL    HW132426   2.820   0.856   4.479 -2.0010  0.6929 -0.5438
10509SOL    HW232427   2.812   0.993   4.567 -0.7803  0.9323 -0.7803
10510SOL     OW32428   6.224   0.022   5.407  0.3781 -0.2465  0.0186
10510SOL    HW132429   6.294   0.082   5.447 -0.7902  1.4109 -0.3248
10510SOL    HW232430   6.148   0.077   5.373 -1.0814 -1.9872  0.2951
10511SOL     OW32431   0.192   2.192   1.509 -0.0176 -0.7984  0.3836
10511SOL    HW132432   0.292   2.194   1.516  0.1914 -0.7996 -1.7804
10511SOL    HW232433   0.163   2.106   1.467 -0.9836 -0.9951  1.4182
10512SOL     OW32434   3.272   6.553   4.470  0.3563 -0.2710  0.0581
10512SOL    HW132435   3.197   6.488   4.467  1.4671 -1.5963 -0.0680
10512SOL    HW232436   3.265   6.609   4.553 -0.4386 -0.7718  0.3320
10513SOL     OW32437   1.606   6.382   0.049 -0.3198 -0.0427  0.3095
10513SOL    HW132438   1.559   6.379   0.137 -0.2627 -0.9497  0.3202
10513SOL    HW232439   1.688   6.325   0.053 -0.6931 -0.6559 -0.5337
10514SOL     OW32440   0.347   1.572   3.385 -0.0339  0.4664 -0.5728
10514SOL    HW132441   0.327   1.551   3.481  1.2542 -1.7369 -0.7423
10514SOL    HW232442   0.305   1.660   3.362 -1.3816  0.5000  1.6597
10515SOL     OW32443   1.457   3.228   4.508  0.1417  0.2490 -0.1216
10515SOL    HW132444   1.501   3.272   4.430 -0.5177 -1.7284 -1.6713
10515SOL    HW232445   1.511   3.149   4.536 -1.6127 -1.3955 -1.1614
10516SOL     OW32446   3.516   5.777   1.033  0.3272 -0.4358 -0.1328
10516SOL    HW132447   3.482   5.761   1.125 -0.4499  0.4792 -0.2369
10516SOL    HW232448   3.541   5.690   0.990 -1.0680 -1.0604  0.2800
10517SOL     OW32449   0.639   2.710   1.650 -0.2830  0.6294  0.4819
10517SOL    HW132450   0.563   2.774   1.661  0.8852  1.8890  1.6155
10517SOL    HW232451   0.695   2.737   1.571  0.4292  1.2746  1.1892
10518SOL     OW32452   2.687   6.584   4.919 -0.6823 -0.4834 -0.6956
10518SOL    HW132453   2.735   6.630   4.845  0.5319 -1.5807 -0.6353
10518SOL    HW232454   2.619   6.645   4.958  0.9082  1.2832 -0.5638
10519SOL     OW32455   4.571   2.131   6.486  0.0712 -0.1100  0.0041
10519SOL    HW132456   4.570   2.103   6.582 -1.0610 -0.7635 -0.1772
10519SOL    HW232457   4.554   2.051   6.428 -1.9026  0.6854 -0.6044
10520SOL     OW32458   3.879   2.857   6.327 -0.3339 -0.4711  0.4184
10520SOL    HW132459   3.976   2.834   6.338 -0.4589 -0.5829  1.3178
10520SOL    HW232460   3.864   2.953   6.352 -0.6320 -0.7452  1.3075
10521SOL     OW32461   0.459   4.436   3.919  0.6846 -0.1670  0.2546
10521SOL    HW132462   0.382   4.494   3.946  0.6257  0.0180 -0.3012
10521SOL    HW232463   0.438   4.340   3.940  0.3156 -0.1118  0.1440
10522SOL     OW32464   7.009   6.400   1.687 -0.6060  0.5295 -0.4452
10522SOL    HW132465   7.009   6.466   1.763  0.8343 -0.9384  0.8989
10522SOL    HW232466   6.952   6.435   1.613  0.4806  3.5058 -0.0019
10523SOL     OW32467   6.390   6.210   3.425 -0.1780 -0.1828  0.2215
10523SOL    HW132468   6.351   6.193   3.516  0.6549  2.1921  1.0960
10523SOL    HW232469   6.316   6.232   3.361 -0.5676  1.0555  1.0693
10524SOL     OW32470   5.149   6.789   5.659 -0.9209  0.1538  0.7242
10524SOL    HW132471   5.238   6.748   5.640 -1.2497  0.0094 -0.6220
10524SOL    HW232472   5.082   6.755   5.593 -1.3267  2.4658 -0.1559
10525SOL     OW32473   4.102   5.539   4.757 -0.4010  0.3463 -0.2611
10525SOL    HW132474   4.007   5.525   4.784 -0.1012 -2.7691 -0.4507
10525SOL    HW232475   4.158   5.561   4.837 -0.9104 -0.1690  0.2398
10526SOL     OW32476   4.577   6.174   2.813  0.2219  0.5895  0.1072
10526SOL    HW132477   4.611   6.166   2.720  0.7636 -0.8988  0.4110
10526SOL    HW232478   4.653   6.165   2.878 -0.0643  2.1096  0.7116
10527SOL     OW32479   0.574   1.748   5.487 -0.1562  0.3383  0.0008
10527SOL    HW132480   0.500   1.794   5.439  0.1127  2.0120  1.1036
10527SOL    HW232481   0.543   1.722   5.579  0.3639  0.2877  0.1662
10528SOL     OW32482   6.870   5.301   5.419  0.2400 -0.3724 -0.3231
10528SOL    HW132483   6.811   5.358   5.362 -0.4371 -0.2336  0.4918
10528SOL    HW232484   6.906   5.225   5.365 -0.7347 -0.4913 -0.8175
10529SOL     OW32485   0.593   0.468   5.101  0.0059  0.2370 -0.0387
10529SOL    HW132486   0.528   0.394   5.083 -0.6620  0.3906  1.5689
10529SOL    HW232487   0.678   0.430   5.136  0.2721  0.1270 -0.7992
10530SOL     OW32488   1.190   0.078   4.717  0.3372 -0.0160  0.3022
10530SOL    HW132489   1.214   0.053   4.623  0.9972 -0.1395  0.5018
10530SOL    HW232490   1.270   0.117   4.762  0.4642 -1.3442  1.2883
10531SOL     OW32491   2.132   1.838   4.090  0.5174  0.4089 -0.0089
10531SOL    HW132492   2.221   1.811   4.055  0.9921  0.5060  1.0971
10531SOL    HW232493   2.063   1.772   4.059  1.2156 -0.5315  0.3976
10532SOL     OW32494   2.238   3.454   5.178  0.0442 -0.4126  0.1293
10532SOL    HW132495   2.164   3.521   5.170  0.5876  0.3432  1.1989
10532SOL    HW232496   2.205   3.365   5.147 -1.0696  0.0774 -0.1648
10533SOL     OW32497   1.739   6.224   6.335  0.0314  0.0119 -0.0199
10533SOL    HW132498   1.807   6.283   6.291  1.7567 -1.5857  0.3864
10533SOL    HW232499   1.671   6.196   6.268  0.3104  0.8705 -0.6839
10534SOL     OW32500   6.103   4.535   1.962 -0.1866 -0.1063  0.6987
10534SOL    HW132501   6.177   4.476   1.995 -1.0938 -1.1992  0.8792
10534SOL    HW232502   6.016   4.487   1.973 -0.8145  0.6955 -0.5631
10535SOL     OW32503   1.504   0.141   2.302 -0.0270 -0.1156  0.2225
10535SOL    HW132504   1.592   0.185   2.318  0.9178 -1.9238  0.2567
10535SOL    HW232505   1.434   0.185   2.359  0.7767  1.4614  0.0618
10536SOL     OW32506   5.837   0.400   2.649  0.0696  0.1396 -0.4452
10536SOL    HW132507   5.856   0.421   2.746  0.1250 -0.2836 -0.3641
10536SOL    HW232508   5.904   0.447   2.592  0.1639  0.2257 -0.2673
10537SOL     OW32509   2.152   6.132   0.822 -0.6394  0.6465 -0.5648
10537SOL    HW132510   2.125   6.038   0.842  2.4550 -0.1543  0.4002
10537SOL    HW232511   2.193   6.173   0.903  1.7353  1.3526 -1.9983
10538SOL     OW32512   3.693   4.497   0.201  0.1477 -0.5087 -0.6613
10538SOL    HW132513   3.777   4.444   0.192  0.4260 -0.1867 -0.0108
10538SOL    HW232514   3.642   4.493   0.115 -0.2647 -2.5451 -0.3585
10539SOL     OW32515   2.230   3.607   6.467 -0.2386  0.4981  0.0014
10539SOL    HW132516   2.231   3.507   6.475 -0.9679  0.4909  0.0255
10539SOL    HW232517   2.208   3.633   6.373 -0.2979  0.6429  0.0549
10540SOL     OW32518   2.566   1.572   0.262 -0.0772  0.8119 -0.7214
10540SOL    HW132519   2.561   1.482   0.305  1.8691  0.3974 -1.2888
10540SOL    HW232520   2.659   1.590   0.232 -0.3590  3.1409 -0.4096
10541SOL     OW32521   4.195   1.218   1.681  0.0183  0.2136  0.0072
10541SOL    HW132522   4.116   1.181   1.633 -0.1665  0.1192  0.3805
10541SOL    HW232523   4.279   1.180   1.642 -0.1492 -0.2061  0.0543
10542SOL     OW32524   1.753   1.232   0.495  0.0614 -0.6697 -0.4248
10542SOL    HW132525   1.751   1.181   0.581  0.4872  0.9819  0.6024
10542SOL    HW232526   1.672   1.290   0.488 -0.5798 -1.6771 -1.7285
10543SOL     OW32527   3.135   5.061   5.147 -0.1097  0.0400  0.0245
10543SOL    HW132528   3.082   4.982   5.116 -0.4801  0.8023 -1.3948
10543SOL    HW232529   3.138   5.062   5.247 -0.9042 -1.2330  0.0882
10544SOL     OW32530   6.929   3.944   6.339  0.0388  0.2991 -0.2018
10544SOL    HW132531   6.929   3.871   6.271  2.1595  0.2865 -0.2568
10544SOL    HW232532   6.954   3.907   6.428  0.9166  0.8944 -0.1824
10545SOL     OW32533   4.704   1.981   2.742  0.0323  0.4323  0.6376
10545SOL    HW132534   4.758   1.952   2.821  1.4592  1.2381 -0.0039
10545SOL    HW232535   4.665   2.072   2.760 -1.1696 -0.1489  1.1018
10546SOL     OW32536   4.087   1.433   5.040  0.1835 -0.0917  0.3520
10546SOL    HW132537   4.045   1.343   5.044  0.8115 -0.3790  0.6939
10546SOL    HW232538   4.172   1.433   5.094  0.1682  0.7115  0.3945
10547SOL     OW32539   6.380   0.663   2.596 -0.0398 -0.3279 -0.9790
10547SOL    HW132540   6.369   0.568   2.624 -3.2550  0.1232 -0.2993
10547SOL    HW232541   6.462   0.672   2.540  1.6795 -2.9951  0.8851
10548SOL     OW32542   3.604   3.811   5.389  0.0576  0.1906  0.6538
10548SOL    HW132543   3.664   3.816   5.309 -0.1891  0.4824  0.4820
10548SOL    HW232544   3.511   3.836   5.362 -0.1309 -0.1963  0.9305
10549SOL     OW32545   0.173   2.907   1.271  0.0175  0.0288 -0.4929
10549SOL    HW132546   0.162   2.852   1.189 -2.7385  1.7992 -1.4413
10549SOL    HW232547   0.118   2.869   1.345  1.4237 -0.7853  0.1779
10550SOL     OW32548   5.736   0.807   6.577 -0.0021  0.6684  0.1160
10550SOL    HW132549   5.677   0.728   6.597 -0.4681  0.4590 -1.8835
10550SOL    HW232550   5.729   0.873   6.652  0.4478 -1.1765  1.8735
10551SOL     OW32551   1.742   3.105   4.883 -0.3658 -0.6160  0.1375
10551SOL    HW132552   1.794   3.075   4.963  1.1657  2.7331  0.5289
10551SOL    HW232553   1.799   3.099   4.801 -0.9453 -1.2351 -0.2329
10552SOL     OW32554   1.850   1.711   6.146 -0.6178  0.3788  0.4814
10552SOL    HW132555   1.803   1.624   6.161  0.4728 -0.0877  1.3268
10552SOL    HW232556   1.924   1.721   6.212  0.3757  1.1651 -0.7049
10553SOL     OW32557   4.024   5.038   4.629 -0.7480 -0.2130  0.0750
10553SOL    HW132558   4.037   5.002   4.721 -2.0786 -0.7392  0.0809
10553SOL    HW232559   4.100   5.098   4.605  0.2024 -0.9968  1.0633
10554SOL     OW32560   6.397   6.387   6.334  0.2633  0.0976  0.6692
10554SOL    HW132561   6.381   6.385   6.236 -0.5581  0.6525  0.7734
10554SOL    HW232562   6.491   6.414   6.353 -0.1931  2.3773  0.0357
10555SOL     OW32563   3.909   1.546   1.582 -0.0027 -0.1282  0.2119
10555SOL    HW132564   3.842   1.517   1.650  0.7861 -1.9452  0.2856
10555SOL    HW232565   3.915   1.646   1.581 -1.4040 -0.0014  1.4452
10556SOL     OW32566   1.846   3.621   4.543  0.2508 -0.1534  0.1367
10556SOL    HW132567   1.896   3.677   4.477 -0.7765 -0.5668 -1.0242
10556SOL    HW232568   1.780   3.679   4.592  0.1120 -0.0835 -0.1299
10557SOL     OW32569   4.862   1.754   2.300 -0.3481 -0.3051  0.0251
10557SOL    HW132570   4.914   1.692   2.358 -0.5314 -1.1154 -0.6427
10557SOL    HW232571   4.894   1.848   2.312  1.0525 -0.7411 -0.1391
10558SOL     OW32572   5.518   0.151   5.001 -0.2177 -0.7970 -0.0404
10558SOL    HW132573   5.484   0.138   5.094  3.6435  3.4357  2.3596
10558SOL    HW232574   5.463   0.222   4.955  1.5711  1.8722  1.6750
10559SOL     OW32575   5.421   4.343   3.562 -0.5613  0.0262  0.7575
10559SOL    HW132576   5.502   4.401   3.568  0.8384 -1.5811 -1.1202
10559SOL    HW232577   5.348   4.393   3.514  1.2183 -0.2075 -2.5038
10560SOL     OW32578   1.223   1.632   4.729  0.1549 -0.3482  0.0590
10560SOL    HW132579   1.266   1.547   4.761 -1.0496 -2.1056 -2.6272
10560SOL    HW232580   1.292   1.704   4.724  1.4261 -1.4072  1.5567
10561SOL     OW32581   2.340   3.085   6.629 -0.0525  0.1094  0.4011
10561SOL    HW132582   2.438   3.084   6.651  0.3659  1.2312 -1.2608
10561SOL    HW232583   2.327   3.054   6.534 -1.2254  0.7459  0.3394
10562SOL     OW32584   2.896   6.301   6.931  0.2276 -0.0396 -0.5759
10562SOL    HW132585   2.910   6.398   6.915  1.2883 -0.6002 -3.6443
10562SOL    HW232586   2.983   6.252   6.924 -0.4057 -1.3236  0.0276
10563SOL     OW32587   0.780   3.186   2.413 -0.8739 -0.0333 -0.0469
10563SOL    HW132588   0.874   3.167   2.385 -1.3212  0.1527 -1.7988
10563SOL    HW232589   0.779   3.264   2.476  0.2050 -0.5941  0.6928
10564SOL     OW32590   0.355   4.856   0.651 -0.8887  0.0933  0.3368
10564SOL    HW132591   0.343   4.920   0.576 -1.3459 -0.3832 -0.0003
10564SOL    HW232592   0.447   4.818   0.648 -1.2161 -0.6437 -0.5570
10565SOL     OW32593   5.635   1.349   3.499  0.5729 -0.3529  0.1629
10565SOL    HW132594   5.593   1.304   3.578  0.0535  0.2629  0.2473
10565SOL    HW232595   5.636   1.448   3.514  3.7773 -0.4011  1.0088
10566SOL     OW32596   3.341   5.489   0.018 -0.1746 -0.1047 -0.5183
10566SOL    HW132597   3.279   5.499   0.096 -0.6928 -0.2506 -0.9037
10566SOL    HW232598   3.301   5.425  -0.048 -0.6666  1.4736 -1.8115
10567SOL     OW32599   0.508   0.107   3.249  0.1168 -0.4147 -0.0645
10567SOL    HW132600   0.563   0.131   3.330 -0.3196 -1.0717  0.4349
10567SOL    HW232601   0.492   0.009   3.248  0.9461 -0.5684 -1.4919
10568SOL     OW32602   2.492   0.793   5.080  0.1110  0.4605 -0.2118
10568SOL    HW132603   2.550   0.849   5.139 -0.6323 -0.1921  1.1617
10568SOL    HW232604   2.470   0.845   4.997 -0.3387  2.1182  0.8877
10569SOL     OW32605   6.926   4.071   3.685 -0.7933  0.0938  0.1701
10569SOL    HW132606   6.943   3.975   3.664 -0.7936  0.0429  0.4044
10569SOL    HW232607   7.001   4.108   3.738 -1.6925 -0.3168  1.7885
10570SOL     OW32608   2.186   3.872   0.385 -0.0388  0.0953 -0.4801
10570SOL    HW132609   2.167   3.776   0.368 -0.0070  0.0663 -0.3454
10570SOL    HW232610   2.114   3.928   0.342  0.7786  0.0847 -1.9298
10571SOL     OW32611   0.998   6.365   5.283 -0.5372 -0.1210  0.2762
10571SOL    HW132612   1.073   6.311   5.321 -0.0147  0.9815  0.8406
10571SOL    HW232613   1.034   6.430   5.216 -1.1502 -0.3998 -0.3352
10572SOL     OW32614   5.955   4.691   2.876  0.1729 -0.3761 -0.2591
10572SOL    HW132615   5.873   4.731   2.836 -0.7488 -1.0163  0.9393
10572SOL    HW232616   5.992   4.621   2.814 -1.3161 -1.4549  0.0143
10573SOL     OW32617   4.709   4.099   5.486  0.6405 -0.0853 -0.2325
10573SOL    HW132618   4.612   4.091   5.464  0.5382 -1.3412  0.5901
10573SOL    HW232619   4.757   4.140   5.409 -0.1478 -1.6981 -1.6500
10574SOL     OW32620   0.212   2.844   4.626 -0.1862  0.0163  0.3073
10574SOL    HW132621   0.147   2.782   4.582 -0.6108  0.0673  0.8609
10574SOL    HW232622   0.256   2.900   4.556  0.0984 -0.8065 -0.1846
10575SOL     OW32623   2.232   2.517   5.071 -0.1831 -0.3683  0.3399
10575SOL    HW132624   2.309   2.471   5.115  0.7291 -0.9187 -1.7330
10575SOL    HW232625   2.178   2.566   5.141  0.5668 -2.0302  2.1757
10576SOL     OW32626   2.110   6.409   3.348  0.0380  0.5993  0.2270
10576SOL    HW132627   2.164   6.357   3.282  2.9485  1.5778  1.6605
10576SOL    HW232628   2.055   6.478   3.300  1.0210  0.4027 -1.2535
10577SOL     OW32629   6.262   2.201   4.548 -1.1281  0.0254 -0.1553
10577SOL    HW132630   6.277   2.198   4.647 -0.7006  0.6111 -0.1926
10577SOL    HW232631   6.299   2.287   4.512 -3.4590  0.9667 -0.4614
10578SOL     OW32632   6.311   0.524   6.152  0.8064 -0.1921 -0.0683
10578SOL    HW132633   6.269   0.520   6.243 -3.2044 -0.9831 -1.7279
10578SOL    HW232634   6.331   0.430   6.121  2.7862  0.1063  0.1517
10579SOL     OW32635   3.651   6.495   1.872  0.0331  0.2268 -0.1930
10579SOL    HW132636   3.624   6.588   1.896  0.5163  0.5171 -0.7397
10579SOL    HW232637   3.650   6.438   1.954  0.1405  0.8170  0.2292
10580SOL     OW32638   6.860   5.407   0.217 -0.0151  0.0534  0.1447
10580SOL    HW132639   6.856   5.495   0.170 -1.2882  0.6175  1.2337
10580SOL    HW232640   6.767   5.372   0.230  0.4646 -1.3873 -0.1364
10581SOL     OW32641   4.886   2.515   4.566 -0.1319  0.0348 -0.4612
10581SOL    HW132642   4.853   2.424   4.539  0.0726 -0.1932  0.0524
10581SOL    HW232643   4.912   2.514   4.662 -0.5846  0.7717 -0.3209
10582SOL     OW32644   1.910   5.258   2.021  0.1228  0.4356 -0.0109
10582SOL    HW132645   1.892   5.309   1.936 -1.4456  0.1207  0.0944
10582SOL    HW232646   1.849   5.292   2.093 -2.2843 -2.6211 -0.3673
10583SOL     OW32647   5.641   2.778   0.790 -0.6699 -0.1589 -0.5907
10583SOL    HW132648   5.686   2.809   0.873 -2.2642  0.2799  0.1400
10583SOL    HW232649   5.693   2.702   0.750  1.9487  1.7736 -1.0760
10584SOL     OW32650   6.459   6.235   7.007  0.6470 -0.2171  0.0540
10584SOL    HW132651   6.544   6.186   7.024  1.2264  0.3486 -1.1596
10584SOL    HW232652   6.407   6.241   7.093  2.8204  1.3379  1.3494
10585SOL     OW32653   2.534   5.021   5.793 -0.4497 -0.6871  0.2990
10585SOL    HW132654   2.556   5.104   5.742  2.2664 -0.8144  1.1147
10585SOL    HW232655   2.468   5.043   5.865  0.6576  0.9285  0.8771
10586SOL     OW32656   4.296   0.997   1.303 -0.1961 -0.6321 -0.0634
10586SOL    HW132657   4.382   1.043   1.326 -0.4814 -0.0177 -0.2176
10586SOL    HW232658   4.231   1.008   1.378 -0.0523 -1.3433  0.1775
10587SOL     OW32659   0.971   4.489   1.705 -0.7527  0.2403  0.2989
10587SOL    HW132660   0.986   4.495   1.606 -2.0311  1.0680  0.1387
10587SOL    HW232661   1.057   4.464   1.749 -0.0386  0.3325 -0.9748
10588SOL     OW32662   1.136   4.857   3.051 -0.0421 -0.0136 -0.1508
10588SOL    HW132663   1.160   4.838   3.146 -0.1985  0.4802 -0.0099
10588SOL    HW232664   1.114   4.772   3.004  0.9330 -0.3695  0.0047
10589SOL     OW32665   5.919   1.679   3.131  0.1670  0.2696  0.0071
10589SOL    HW132666   5.847   1.615   3.155  0.8968 -0.8422 -0.6515
10589SOL    HW232667   5.967   1.646   3.050  1.1483  1.1927  0.1857
10590SOL     OW32668   2.214   0.119   4.965  0.0025  0.6674 -0.0817
10590SOL    HW132669   2.136   0.152   4.913  1.8736  3.2164 -1.4926
10590SOL    HW232670   2.287   0.188   4.965  1.6683 -0.8754  2.5859
10591SOL     OW32671   2.088   2.456   1.300 -0.1267  0.6018 -0.3666
10591SOL    HW132672   2.149   2.487   1.227  1.1710  1.2292  0.9261
10591SOL    HW232673   2.061   2.535   1.355  0.8292 -0.1363  1.2243
10592SOL     OW32674   6.063   2.030   6.903  0.0878 -0.4529  0.7885
10592SOL    HW132675   6.161   2.042   6.921  0.2595 -0.8581  0.1598
10592SOL    HW232676   6.014   2.025   6.990  0.7135 -0.9139  1.1293
10593SOL     OW32677   1.578   4.211   4.163 -0.4565  0.1518 -0.8563
10593SOL    HW132678   1.586   4.113   4.147 -2.3587 -0.0121 -1.0525
10593SOL    HW232679   1.551   4.227   4.258  0.3805  0.5283 -0.6740
10594SOL     OW32680   4.461   0.206   4.419 -0.7218 -0.3464 -0.0526
10594SOL    HW132681   4.481   0.176   4.326 -1.1964  1.4555 -0.7774
10594SOL    HW232682   4.372   0.252   4.421 -0.0303  1.0172  0.9536
10595SOL     OW32683   3.893   6.763   3.028  1.4763  0.4622 -0.0006
10595SOL    HW132684   3.874   6.817   2.946 -2.1046  0.5345  0.7324
10595SOL    HW232685   3.951   6.685   3.004  0.2292  0.2544 -2.6915
10596SOL     OW32686   2.151   1.150   1.023 -1.1213 -0.2671 -0.5790
10596SOL    HW132687   2.234   1.183   1.067 -2.2458  1.3247  0.5076
10596SOL    HW232688   2.118   1.068   1.071 -1.4670  0.5300  0.6127
10597SOL     OW32689   0.724   6.652   6.911  0.0929 -0.3286  0.1084
10597SOL    HW132690   0.683   6.573   6.957 -0.9731 -0.2619 -0.6902
10597SOL    HW232691   0.714   6.733   6.967 -1.7399 -0.1264 -0.4697
10598SOL     OW32692   0.717   1.519   2.443  0.1109 -0.2611 -0.1876
10598SOL    HW132693   0.782   1.466   2.497 -1.2317 -1.1047  0.6627
10598SOL    HW232694   0.693   1.467   2.361  0.5001  0.0461 -0.4968
10599SOL     OW32695   5.362   2.080   5.738 -0.4580  0.6651 -0.0611
10599SOL    HW132696   5.357   2.180   5.746  0.8271  0.6930  0.8050
10599SOL    HW232697   5.367   2.054   5.642 -0.4096  1.4675 -0.2821
10600SOL     OW32698   2.041   3.751   4.929  0.3387 -0.3765  0.3932
10600SOL    HW132699   1.942   3.740   4.929  0.3501 -0.8848  2.4295
10600SOL    HW232700   2.069   3.800   4.847 -1.3326 -2.2444 -1.4043
10601SOL     OW32701   4.686   6.313   4.836 -0.3739 -0.0817 -0.1130
10601SOL    HW132702   4.587   6.310   4.847 -0.4303 -0.1907 -0.6189
10601SOL    HW232703   4.709   6.305   4.739  0.1312 -0.0892  0.0039
10602SOL     OW32704   4.359   0.944   0.875  0.0380  0.8633  0.1331
10602SOL    HW132705   4.401   1.025   0.917 -0.0551  0.5765  0.8005
10602SOL    HW232706   4.386   0.937   0.780  1.9769  0.3618  0.6810
10603SOL     OW32707   1.916   5.746   7.009 -0.4228  0.0337  0.0005
10603SOL    HW132708   1.866   5.704   6.933  0.2064 -0.7003 -0.0211
10603SOL    HW232709   2.012   5.758   6.982 -0.1114 -0.5756  0.8045
10604SOL     OW32710   6.804   4.667   5.387  0.2315 -0.3125 -0.4811
10604SOL    HW132711   6.750   4.615   5.453  0.7357 -0.2482 -0.0031
10604SOL    HW232712   6.897   4.629   5.383  0.6671  0.6589  0.0222
10605SOL     OW32713   0.857   6.395   1.283 -0.2304 -0.2376  0.1017
10605SOL    HW132714   0.794   6.385   1.205  0.2722 -0.1525 -0.3225
10605SOL    HW232715   0.864   6.308   1.331  0.7080 -0.7602 -0.9265
10606SOL     OW32716   0.616   1.040   0.523 -0.4732  0.3427 -0.0316
10606SOL    HW132717   0.690   1.068   0.584 -1.8771  1.3708  1.2930
10606SOL    HW232718   0.629   1.083   0.433  1.3587 -0.7973 -0.3680
10607SOL     OW32719   5.622   3.423   6.088  0.2933  0.2254  0.0700
10607SOL    HW132720   5.572   3.435   6.174 -1.6293  0.6984 -1.0401
10607SOL    HW232721   5.682   3.501   6.073  0.8438  0.0110  1.0983
10608SOL     OW32722   0.542   6.645   3.459 -0.0419 -0.4909 -0.2887
10608SOL    HW132723   0.594   6.640   3.374 -0.1728 -2.0476 -0.3057
10608SOL    HW232724   0.576   6.721   3.514  0.7804 -0.1408 -1.2491
10609SOL     OW32725   4.812   6.342   2.014 -0.4201 -0.1482  0.2558
10609SOL    HW132726   4.832   6.420   1.956  1.4705 -1.2918 -0.7480
10609SOL    HW232727   4.819   6.369   2.110  1.0839  0.7196 -0.0745
10610SOL     OW32728   2.665   4.714   4.239  0.0865 -0.1274  0.3390
10610SOL    HW132729   2.580   4.707   4.187  1.0618  0.1611 -1.3731
10610SOL    HW232730   2.655   4.665   4.326 -2.4453  1.5192  1.0924
10611SOL     OW32731   2.695   2.482   0.806 -0.0057  0.0645 -0.0220
10611SOL    HW132732   2.693   2.392   0.764 -1.0986 -1.3550  2.8467
10611SOL    HW232733   2.790   2.511   0.818  0.4197 -1.4777  0.5362
10612SOL     OW32734   1.429   5.591   1.898 -0.2470  0.2435 -0.2704
10612SOL    HW132735   1.526   5.566   1.897 -0.1815  0.4531 -1.3267
10612SOL    HW232736   1.381   5.540   1.827 -0.9288  0.0882  0.2990
10613SOL     OW32737   1.896   6.142   6.835  0.4662 -0.6453 -0.7007
10613SOL    HW132738   1.960   6.174   6.765 -0.3178  0.4936 -0.9206
10613SOL    HW232739   1.896   6.206   6.911  1.3276 -1.8891  0.3818
10614SOL     OW32740   5.220   3.144   1.942  0.2365  0.1992 -0.0755
10614SOL    HW132741   5.220   3.207   2.020  0.3632  0.6376 -0.4298
10614SOL    HW232742   5.237   3.195   1.858  2.6235 -0.5771 -0.1332
10615SOL     OW32743   6.965   0.507   3.640  0.7441 -0.8456  0.3931
10615SOL    HW132744   7.015   0.433   3.594  0.9508 -0.5596  0.1554
10615SOL    HW232745   6.871   0.477   3.657  0.7920 -1.1223  0.1949
10616SOL     OW32746   1.130   5.684   1.298  0.1494  0.0571  0.6661
10616SOL    HW132747   1.170   5.775   1.312  2.0983 -0.2422 -2.0068
10616SOL    HW232748   1.202   5.619   1.275 -0.9431 -2.7203  4.2300
10617SOL     OW32749   6.337   0.333   0.446 -0.2176  0.0097 -0.2693
10617SOL    HW132750   6.254   0.284   0.422 -0.0494  0.3068 -1.5005
10617SOL    HW232751   6.351   0.328   0.545 -1.2595 -0.7194 -0.1448
10618SOL     OW32752   6.178   5.263   1.702  0.3581 -0.3067 -0.1064
10618SOL    HW132753   6.178   5.176   1.752  1.0157 -0.5772 -0.5611
10618SOL    HW232754   6.233   5.253   1.619  0.4014  0.5356 -0.1822
10619SOL     OW32755   0.680   4.000   2.129  0.0118 -0.0372  0.1280
10619SOL    HW132756   0.675   3.910   2.086  2.4592  0.4185 -1.2663
10619SOL    HW232757   0.642   3.994   2.222 -1.2546 -2.1129 -0.4520
10620SOL     OW32758   1.429   3.954   5.006  0.3396 -0.3272 -0.2800
10620SOL    HW132759   1.406   3.980   5.099 -1.2678 -0.1803 -0.6900
10620SOL    HW232760   1.469   3.863   5.006  1.5827  0.1895  0.6703
10621SOL     OW32761   2.391   5.499   5.921 -0.1366  0.4263 -0.0128
10621SOL    HW132762   2.305   5.488   5.871  0.1216 -0.4209 -0.2852
10621SOL    HW232763   2.451   5.561   5.871 -0.5875  1.0431  0.1913
10622SOL     OW32764   4.014   2.268   1.859 -0.6462 -0.2865 -0.7632
10622SOL    HW132765   3.926   2.287   1.903  0.4864 -1.6737  2.4390
10622SOL    HW232766   4.007   2.185   1.804 -1.4882 -0.0129 -1.0734
10623SOL     OW32767   6.262   3.304   4.900 -1.1425  0.1860 -0.1669
10623SOL    HW132768   6.361   3.314   4.886 -0.8980 -0.8169  0.6716
10623SOL    HW232769   6.213   3.337   4.819 -0.1785  1.5753 -0.2279
10624SOL     OW32770   2.773   0.289   2.705  0.1718 -0.4617 -0.1770
10624SOL    HW132771   2.696   0.338   2.663  0.2176  1.8671  2.1673
10624SOL    HW232772   2.775   0.310   2.803  3.8297 -0.3774 -0.1645
10625SOL     OW32773   6.323   4.144   3.070  0.6612  0.2297 -0.0231
10625SOL    HW132774   6.305   4.160   2.973 -1.3050 -0.3568  0.2173
10625SOL    HW232775   6.293   4.052   3.095  0.3297  0.6814  1.3395
10626SOL     OW32776   6.486   3.038   1.682  0.3505 -0.0202  0.2888
10626SOL    HW132777   6.437   3.123   1.704  1.8676  0.5031  2.0082
10626SOL    HW232778   6.536   3.050   1.597  0.7257  0.9299  0.6260
10627SOL     OW32779   5.314   0.650   5.005 -0.3593 -0.6009 -0.6291
10627SOL    HW132780   5.217   0.665   4.986 -0.5666  1.2779  1.4532
10627SOL    HW232781   5.324   0.615   5.098  0.9828  0.6306 -0.2726
10628SOL     OW32782   6.066   0.865   5.925  0.2110 -0.0632 -0.0477
10628SOL    HW132783   6.083   0.792   5.859  2.8497  0.6655 -0.2989
10628SOL    HW232784   5.999   0.929   5.887  0.4562 -0.5242 -1.3181
10629SOL     OW32785   2.990   4.333   5.648  0.3153 -0.1427  0.4181
10629SOL    HW132786   2.914   4.286   5.604 -0.2400  2.3116 -1.5032
10629SOL    HW232787   3.075   4.283   5.631 -0.5871 -1.9406  1.0141
10630SOL     OW32788   1.776   1.018   4.171 -0.3688  0.3504 -0.2124
10630SOL    HW132789   1.866   1.054   4.194 -1.6503  3.2560  0.7330
10630SOL    HW232790   1.712   1.093   4.158 -3.1133 -1.5954  0.9116
10631SOL     OW32791   0.988   0.900   5.396 -0.0949 -0.0350  0.2959
10631SOL    HW132792   0.960   0.996   5.382 -0.6843 -0.3130 -0.5152
10631SOL    HW232793   0.907   0.841   5.393  0.3002 -0.5921  0.4929
10632SOL     OW32794   0.063   4.129   5.649  0.6561 -0.2275 -0.4929
10632SOL    HW132795  -0.019   4.082   5.682 -0.0989  0.0175 -1.9688
10632SOL    HW232796   0.050   4.228   5.657  0.8640 -0.1912 -0.6033
10633SOL     OW32797   6.765   5.298   6.399  0.7678 -0.4579  0.0524
10633SOL    HW132798   6.777   5.356   6.479 -0.2424  0.0788 -0.1738
10633SOL    HW232799   6.678   5.320   6.354  1.6424 -0.2117 -1.6187
10634SOL     OW32800   3.679   5.641   2.504 -0.2510 -0.5185 -0.2765
10634SOL    HW132801   3.704   5.630   2.407 -0.9447 -0.6094 -0.4532
10634SOL    HW232802   3.757   5.676   2.555  0.0921 -0.3718 -0.8920
10635SOL     OW32803   2.853   1.183   0.546 -0.2034  0.1147  0.4511
10635SOL    HW132804   2.924   1.234   0.593  2.4430 -1.5461 -1.4387
10635SOL    HW232805   2.806   1.123   0.611  1.3717 -0.0397  1.4972
10636SOL     OW32806   4.087   1.092   0.613 -0.0285  0.2393  0.1106
10636SOL    HW132807   4.087   1.178   0.562 -0.0351  0.8359  1.0878
10636SOL    HW232808   4.012   1.093   0.679 -2.3593 -2.0394 -2.3077
10637SOL     OW32809   5.125   4.875   0.649 -0.1623 -0.2816  0.4703
10637SOL    HW132810   5.101   4.813   0.574  1.0635 -0.1022 -0.0980
10637SOL    HW232811   5.072   4.959   0.642  2.1951  1.1697 -2.2264
10638SOL     OW32812   6.277   6.635   5.999  0.1160  0.0962 -0.5313
10638SOL    HW132813   6.301   6.712   5.940 -1.0553  0.2620 -0.8035
10638SOL    HW232814   6.189   6.598   5.971  0.5141 -1.1472 -0.1938
10639SOL     OW32815   3.340   2.090   4.257  0.2687 -0.2420  0.3753
10639SOL    HW132816   3.435   2.119   4.244  0.1194  0.1408  0.1346
10639SOL    HW232817   3.306   2.124   4.344  0.5729 -0.9652  0.7800
10640SOL     OW32818   4.564   5.754   2.211  0.3922  0.7979 -0.2203
10640SOL    HW132819   4.470   5.748   2.245  0.8278  1.2776  1.1251
10640SOL    HW232820   4.573   5.834   2.151 -0.2475  0.2561 -1.0727
10641SOL     OW32821   3.501   6.263   6.699  0.0350  0.0258 -0.5153
10641SOL    HW132822   3.553   6.347   6.713  2.2166 -1.1929 -0.9243
10641SOL    HW232823   3.462   6.262   6.607 -0.1121  0.6202 -0.4638
10642SOL     OW32824   1.824   3.929   6.706 -1.0738 -0.3550 -0.8284
10642SOL    HW132825   1.763   3.969   6.773 -0.2979 -0.0964 -0.2596
10642SOL    HW232826   1.778   3.853   6.659 -2.4751  1.0321 -1.7707
10643SOL     OW32827   3.219   3.911   5.569  0.0630  0.1915  0.0212
10643SOL    HW132828   3.276   3.900   5.488  0.6482  1.9174  0.1600
10643SOL    HW232829   3.198   4.008   5.582 -1.2583 -0.2082  1.1040
10644SOL     OW32830   4.845   1.911   4.666 -0.4456 -0.3894  0.1422
10644SOL    HW132831   4.848   2.008   4.688  0.0486 -0.1399 -0.9570
10644SOL    HW232832   4.749   1.881   4.661 -0.6317  0.2784 -0.4591
10645SOL     OW32833   2.905   0.012   4.386 -0.6443  0.1102 -0.1967
10645SOL    HW132834   2.863  -0.002   4.296 -0.4943  0.4260 -0.3182
10645SOL    HW232835   2.967   0.090   4.382 -2.0668  1.3433  0.6495
10646SOL     OW32836   0.348   6.175   6.211  0.3110  0.0411  0.5476
10646SOL    HW132837   0.321   6.084   6.241  1.5440 -0.5182  0.0360
10646SOL    HW232838   0.268   6.225   6.178 -0.2766 -1.1304  0.1543
10647SOL     OW32839   0.154   4.802   5.761  0.0148  0.3051  0.3618
10647SOL    HW132840   0.122   4.747   5.683 -0.4302  1.0247  0.0247
10647SOL    HW232841   0.083   4.806   5.830  0.7317 -1.0641  1.2265
10648SOL     OW32842   5.777   4.475   6.238  0.2275  0.3404  0.2698
10648SOL    HW132843   5.702   4.410   6.253  0.7277 -0.2347  0.3059
10648SOL    HW232844   5.753   4.563   6.281 -0.4119  0.1577  0.3069
10649SOL     OW32845   6.498   3.368   5.377  0.4820  0.2566 -0.2006
10649SOL    HW132846   6.484   3.409   5.287  0.6717 -1.2167 -0.9353
10649SOL    HW232847   6.419   3.313   5.402 -0.4809  2.2452  1.5050
10650SOL     OW32848   4.437   1.870   3.651  0.0687 -0.0657 -0.2902
10650SOL    HW132849   4.457   1.927   3.730  1.0071  1.8778 -1.8529
10650SOL    HW232850   4.464   1.918   3.567  0.0505 -2.4503 -1.7512
10651SOL     OW32851   2.017   1.231   5.452 -0.4115  0.0639  0.2690
10651SOL    HW132852   1.940   1.294   5.462  0.0335  0.7382 -0.4772
10651SOL    HW232853   1.992   1.157   5.390 -1.2257 -1.0029  1.7838
10652SOL     OW32854   3.805   6.610   6.896  0.2988 -0.2161  0.1588
10652SOL    HW132855   3.742   6.625   6.973 -0.5963 -1.9373 -0.1742
10652SOL    HW232856   3.845   6.518   6.904 -0.2348 -0.6466 -1.7081
10653SOL     OW32857   5.538   4.940   2.314  0.3372 -0.0476 -0.4285
10653SOL    HW132858   5.605   5.013   2.313  1.1925 -0.7930  0.3955
10653SOL    HW232859   5.581   4.855   2.346 -0.3096 -1.2165 -2.4711
10654SOL     OW32860   6.204   6.122   3.097 -0.4085 -0.6440  0.2770
10654SOL    HW132861   6.188   6.053   3.168  0.0639 -0.2521  0.7804
10654SOL    HW232862   6.151   6.204   3.118 -0.1901 -0.4912  0.2307
10655SOL     OW32863   2.860   5.044   1.476 -0.0642 -0.6371 -0.1667
10655SOL    HW132864   2.864   5.034   1.576 -1.9117 -1.0950 -0.0913
10655SOL    HW232865   2.880   4.956   1.433 -0.1766 -0.6719 -0.1497
10656SOL     OW32866   6.000   2.360   1.392  0.2444 -0.2656 -0.5431
10656SOL    HW132867   6.079   2.346   1.452 -0.2728 -1.5893 -0.1472
10656SOL    HW232868   5.924   2.303   1.423 -0.8852  0.9806 -0.9255
10657SOL     OW32869   0.885   1.033   1.249  0.5782 -0.4503 -0.0050
10657SOL    HW132870   0.870   0.994   1.340  0.4811 -1.1650 -0.3176
10657SOL    HW232871   0.918   0.962   1.187  0.8415  0.0764 -0.4825
10658SOL     OW32872   2.036   6.213   2.964  0.2019  0.0921 -0.1441
10658SOL    HW132873   2.120   6.218   3.018  0.4682 -1.8437 -0.2806
10658SOL    HW232874   1.963   6.174   3.021  0.3402 -1.4520 -0.9477
10659SOL     OW32875   4.226   1.932   1.724 -0.3217  0.5180 -0.3057
10659SOL    HW132876   4.242   2.020   1.679  1.2691  1.3914  1.7595
10659SOL    HW232877   4.290   1.923   1.801 -0.8423 -2.2126 -0.1091
10660SOL     OW32878   6.270   6.290   5.780 -0.5534  0.1562  0.4294
10660SOL    HW132879   6.205   6.262   5.851 -1.8186 -0.9161 -1.0756
10660SOL    HW232880   6.337   6.217   5.766 -0.5866  0.1648  0.2144
10661SOL     OW32881   0.076   0.795   2.402 -0.3670 -0.1092  0.3590
10661SOL    HW132882   0.085   0.863   2.330 -0.2895  0.7120  1.1278
10661SOL    HW232883   0.044   0.708   2.363 -0.6204  0.4095 -0.6010
10662SOL     OW32884   4.963   1.986   0.470  0.3065 -0.0785 -0.0474
10662SOL    HW132885   4.957   1.891   0.501  0.0820 -0.1530 -0.3202
10662SOL    HW232886   4.962   2.047   0.549  0.9291 -0.3247  0.1559
10663SOL     OW32887   1.019   2.100   6.867 -0.4326  0.5564  0.3547
10663SOL    HW132888   0.964   2.183   6.879  2.2865  2.3594  1.2393
10663SOL    HW232889   0.994   2.033   6.938 -3.1788  0.1726 -0.8203
10664SOL     OW32890   1.198   5.430   6.144  0.4530  0.1694  0.0364
10664SOL    HW132891   1.253   5.428   6.228  0.1377  0.2833  0.2519
10664SOL    HW232892   1.141   5.513   6.145  1.3323  0.8059 -0.8697
10665SOL     OW32893   0.457   0.446   0.900  0.7213 -0.0163  0.4796
10665SOL    HW132894   0.400   0.470   0.821 -1.0668 -0.4522  1.5894
10665SOL    HW232895   0.497   0.530   0.938  0.0613  0.4220  0.2334
10666SOL     OW32896   6.896   6.061   1.094  0.6377 -0.1896 -0.4209
10666SOL    HW132897   6.956   5.982   1.095 -1.2140 -1.6656  0.3028
10666SOL    HW232898   6.930   6.128   1.027  2.4248 -1.4308 -0.8186
10667SOL     OW32899   1.166   1.794   6.977 -0.6691  0.3683 -0.3742
10667SOL    HW132900   1.213   1.848   7.048 -0.6218  0.2754 -0.3342
10667SOL    HW232901   1.231   1.772   6.904 -0.3961 -0.5636  0.1321
10668SOL     OW32902   2.039   6.627   0.542  0.0985  0.6398 -0.2828
10668SOL    HW132903   2.104   6.551   0.543  0.0752  0.6214  1.1896
10668SOL    HW232904   2.088   6.713   0.531  0.1312  0.4546 -1.8831
10669SOL     OW32905   2.390   6.128   6.812  0.3348  0.5453 -0.3622
10669SOL    HW132906   2.486   6.139   6.836  0.6480  0.3070 -1.4597
10669SOL    HW232907   2.377   6.041   6.764 -0.5219  0.3386  0.2203
10670SOL     OW32908   5.975   4.042   4.229 -0.3453  0.4830  0.1405
10670SOL    HW132909   6.004   3.973   4.163  0.0870 -1.2177  1.9941
10670SOL    HW232910   6.030   4.125   4.218  0.0215  0.0748 -1.2922
10671SOL     OW32911   2.570   2.162   4.187 -0.4816  0.4205  0.2550
10671SOL    HW132912   2.590   2.246   4.136 -1.1720  1.0984  1.0510
10671SOL    HW232913   2.493   2.179   4.249  0.6384 -0.1953  1.8929
10672SOL     OW32914   5.097   1.990   1.144 -0.4276  0.2427 -0.0971
10672SOL    HW132915   5.001   1.987   1.172 -0.0581  0.3168  1.2778
10672SOL    HW232916   5.148   2.050   1.207  0.5086  0.2696 -0.8495
10673SOL     OW32917   3.659   3.806   3.538 -0.6339 -0.5806  0.5462
10673SOL    HW132918   3.698   3.715   3.528 -0.2653 -0.4895  1.0962
10673SOL    HW232919   3.561   3.799   3.554 -0.7852 -0.8303 -0.4599
10674SOL     OW32920   4.468   0.176   1.566 -0.0418 -0.1011  0.0303
10674SOL    HW132921   4.467   0.223   1.654 -0.2681 -0.4304  0.2111
10674SOL    HW232922   4.409   0.225   1.501 -0.1386 -0.0384  0.1639
10675SOL     OW32923   0.327   1.123   1.145 -0.2256  0.3857  0.6593
10675SOL    HW132924   0.270   1.103   1.066 -2.2985 -1.9564  2.5502
10675SOL    HW232925   0.423   1.103   1.123 -0.8814 -1.2984 -0.9627
10676SOL     OW32926   1.342   1.209   0.329 -0.0707  0.0353  0.1377
10676SOL    HW132927   1.321   1.245   0.420 -0.1513  0.8682 -0.1989
10676SOL    HW232928   1.285   1.129   0.311  0.5643 -0.6726  1.1570
10677SOL     OW32929   0.127   2.468   0.918  0.3117  0.5461 -0.1276
10677SOL    HW132930   0.134   2.374   0.948 -4.3412  0.1414  0.3651
10677SOL    HW232931   0.139   2.472   0.818 -0.5500 -0.7740 -0.3057
10678SOL     OW32932   0.463   5.149   2.935  0.2857  0.5503  0.2479
10678SOL    HW132933   0.557   5.124   2.910  0.1135  1.5795 -1.6287
10678SOL    HW232934   0.399   5.090   2.887 -0.0462  2.0140 -1.1986
10679SOL     OW32935   5.699   5.370   4.039  0.1984  0.0453  0.6366
10679SOL    HW132936   5.655   5.419   3.964 -0.6788 -0.3432  0.8769
10679SOL    HW232937   5.796   5.355   4.018  0.5487  2.0389  0.6373
10680SOL     OW32938   2.357   2.220   3.132 -0.2487  0.1668  0.3074
10680SOL    HW132939   2.312   2.309   3.136  0.7092  0.7267 -0.5885
10680SOL    HW232940   2.291   2.150   3.105 -0.4769  1.0691 -1.6252
10681SOL     OW32941   0.225   1.401   0.558  0.1279  0.1450 -0.5725
10681SOL    HW132942   0.272   1.487   0.541 -0.0714  0.5773  0.9718
10681SOL    HW232943   0.274   1.327   0.512  1.2759  0.8329 -0.4860
10682SOL     OW32944   6.205   2.358   1.871  0.4955 -0.6083  0.4524
10682SOL    HW132945   6.223   2.388   1.777  0.1516 -0.0751  0.5486
10682SOL    HW232946   6.117   2.396   1.901  0.6924 -0.6188  1.0515
10683SOL     OW32947   1.763   1.628   4.846  0.0709  0.1621  0.0717
10683SOL    HW132948   1.732   1.682   4.768  4.2769  2.6776 -0.1736
10683SOL    HW232949   1.780   1.689   4.924  2.2538 -1.1619  0.7376
10684SOL     OW32950   5.628   4.632   0.245 -0.1033 -0.4869  0.1376
10684SOL    HW132951   5.630   4.669   0.152 -0.7232  0.0474  0.3299
10684SOL    HW232952   5.593   4.538   0.243 -0.8382 -0.2153 -0.0956
10685SOL     OW32953   5.993   2.697   1.885 -0.0851 -0.2199  0.1587
10685SOL    HW132954   5.988   2.626   1.815  0.3779  0.8960 -1.0555
10685SOL    HW232955   6.005   2.654   1.975  1.3073 -1.6632 -0.6480
10686SOL     OW32956   4.230   3.669   0.875  0.0875  0.1404  0.2593
10686SOL    HW132957   4.162   3.614   0.923 -1.1343  0.3213 -1.1862
10686SOL    HW232958   4.197   3.690   0.783  3.0321 -1.6727 -1.3666
10687SOL     OW32959   5.492   4.895   0.150  0.0842  0.3910  0.1260
10687SOL    HW132960   5.472   4.993   0.144 -0.5720  0.2189 -1.0783
10687SOL    HW232961   5.412   4.844   0.118  0.4332 -0.5402  0.7125
10688SOL     OW32962   1.735   6.055   5.902  0.5956  0.4189  0.3715
10688SOL    HW132963   1.814   6.042   5.963 -0.0408  0.0891  1.1378
10688SOL    HW232964   1.676   6.127   5.938 -0.4901 -0.6932  0.9099
10689SOL     OW32965   0.775   5.439   2.018  0.0522 -0.7516  0.1267
10689SOL    HW132966   0.791   5.375   2.093  0.8238 -0.1735  0.4658
10689SOL    HW232967   0.783   5.391   1.931 -1.8551 -1.6578  0.3951
10690SOL     OW32968   6.508   5.572   2.894  0.3169  0.1938  0.1758
10690SOL    HW132969   6.461   5.605   2.975  0.0357 -2.3293  1.1376
10690SOL    HW232970   6.442   5.554   2.821  0.4181  1.1993 -0.1845
10691SOL     OW32971   6.201   1.074   1.842  0.4481  0.0021 -0.0485
10691SOL    HW132972   6.294   1.047   1.866  1.0672  3.9374  3.1000
10691SOL    HW232973   6.194   1.086   1.742  3.3632 -0.2294 -0.3620
10692SOL     OW32974   6.864   6.571   4.659 -0.3100  0.6318  0.3689
10692SOL    HW132975   6.808   6.648   4.629  0.2727  1.2189  0.7772
10692SOL    HW232976   6.809   6.511   4.719 -1.4468 -0.4772 -1.6482
10693SOL     OW32977   6.210   4.572   5.095 -0.8943  0.0794  0.3254
10693SOL    HW132978   6.258   4.652   5.131  1.7161 -0.0813 -2.4260
10693SOL    HW232979   6.162   4.597   5.011 -0.1221 -1.1735 -0.5198
10694SOL     OW32980   3.294   0.642   0.591  0.1346  0.2429  0.2369
10694SOL    HW132981   3.260   0.624   0.499  0.1519  0.5929  0.1578
10694SOL    HW232982   3.226   0.614   0.659 -0.4399  1.1708  0.0709
10695SOL     OW32983   5.831   3.399   5.064 -0.3171  0.4466  0.1602
10695SOL    HW132984   5.741   3.419   5.026 -0.8918  0.7911  1.6453
10695SOL    HW232985   5.826   3.316   5.119  0.3530  0.2960  0.0018
10696SOL     OW32986   0.009   6.202   0.749  0.1041 -0.6044 -0.1583
10696SOL    HW132987  -0.015   6.254   0.831 -2.0137 -0.0887 -1.0456
10696SOL    HW232988   0.031   6.108   0.774 -1.1000 -0.6099  0.9481
10697SOL     OW32989   0.739   5.207   2.542  0.1157 -0.0888 -0.4653
10697SOL    HW132990   0.698   5.119   2.566  0.0070  0.1937  0.4110
10697SOL    HW232991   0.838   5.202   2.555  0.0063  0.2116  0.5360
10698SOL     OW32992   4.456   6.247   3.654  0.4569  0.1067  0.4021
10698SOL    HW132993   4.421   6.162   3.693  0.4921 -0.0404  0.1165
10698SOL    HW232994   4.532   6.226   3.591 -0.7796  0.1654 -1.1602
10699SOL     OW32995   0.429   3.103   3.335 -0.2452  0.4938  0.3921
10699SOL    HW132996   0.398   3.056   3.252 -0.3313 -0.3721  0.8930
10699SOL    HW232997   0.509   3.055   3.372  0.4409  1.4885  0.2477
10700SOL     OW32998   1.422   2.930   3.804 -0.3986  0.3025  0.7188
10700SOL    HW132999   1.395   2.852   3.748  0.7027  0.7767 -0.4925
10700SOL    HW233000   1.405   2.908   3.901 -0.7970 -1.1350  0.3479
10701SOL     OW33001   2.704   6.911   1.988  0.6122 -0.3803 -0.7946
10701SOL    HW133002   2.752   6.951   1.910 -0.8406 -0.7606 -1.9239
10701SOL    HW233003   2.743   6.946   2.073  2.2176  0.0655 -1.6760
10702SOL     OW33004   4.514   3.036   1.412  0.2264  0.3872  0.0958
10702SOL    HW133005   4.498   3.091   1.330 -0.2724  2.5256  1.5228
10702SOL    HW233006   4.536   2.942   1.386 -2.0756  0.4102 -2.4132
10703SOL     OW33007   3.922   3.071   4.721 -0.2184  0.1746  0.3800
10703SOL    HW133008   3.898   3.163   4.691  1.6046  0.3626 -0.5927
10703SOL    HW233009   3.959   3.019   4.644 -0.3597 -1.0844  1.1291
10704SOL     OW33010   5.012   5.804   0.238  0.5078  0.0645  0.2122
10704SOL    HW133011   5.001   5.895   0.197  0.2560 -0.0806 -0.0466
10704SOL    HW233012   4.931   5.749   0.219  0.9280 -0.4295 -0.1967
10705SOL     OW33013   6.975   0.781   4.744  0.6219 -0.8253  0.3680
10705SOL    HW133014   7.004   0.713   4.678  1.0428 -1.8351  1.5501
10705SOL    HW233015   6.906   0.742   4.804 -1.4627  0.7904 -0.8620
10706SOL     OW33016   3.286   3.926   1.132 -0.5525  0.6548 -0.6530
10706SOL    HW133017   3.356   3.995   1.111  0.4996  0.0846  0.8250
10706SOL    HW233018   3.198   3.970   1.145  0.0049  1.6625 -0.2427
10707SOL     OW33019   4.765   6.463   6.150 -0.3410 -0.0528  0.2799
10707SOL    HW133020   4.751   6.531   6.078 -2.9532 -1.1523 -0.3957
10707SOL    HW233021   4.862   6.443   6.159  0.1506  0.6482 -2.4772
10708SOL     OW33022   4.716   2.738   2.057  0.1180 -0.4131  0.0588
10708SOL    HW133023   4.718   2.837   2.061 -2.6054 -0.1597 -1.8475
10708SOL    HW233024   4.672   2.701   2.138 -0.2407  0.0393  0.0670
10709SOL     OW33025   6.788   1.219   6.357 -0.5191 -0.2403  0.0792
10709SOL    HW133026   6.698   1.261   6.345  0.6035  1.7016 -2.6837
10709SOL    HW233027   6.831   1.253   6.441 -0.5887  2.5287 -0.9141
10710SOL     OW33028   1.350   5.865   1.926 -0.2419  0.3596 -0.0911
10710SOL    HW133029   1.420   5.912   1.871 -0.8633  1.3932 -0.0292
10710SOL    HW233030   1.361   5.766   1.916  0.5279  0.5156 -0.9680
10711SOL     OW33031   2.679   4.196   6.864 -0.2129 -0.6125  0.4991
10711SOL    HW133032   2.634   4.112   6.893  0.8740 -1.2229  0.4428
10711SOL    HW233033   2.776   4.179   6.848 -0.1624  0.4331 -0.4418
10712SOL     OW33034   4.101   0.363   5.285  0.1303  0.0876  0.1578
10712SOL    HW133035   4.176   0.365   5.352 -0.3260  1.2603  0.6556
10712SOL    HW233036   4.014   0.373   5.332 -0.2661 -0.1085 -0.5266
10713SOL     OW33037   0.613   5.852   6.937  0.2705  0.5968 -0.6292
10713SOL    HW133038   0.519   5.885   6.924  0.0260 -0.0854 -0.6165
10713SOL    HW233039   0.616   5.753   6.922  1.0609  0.6671 -0.9854
10714SOL     OW33040   4.696   4.722   5.210  0.2547  0.3696  0.0481
10714SOL    HW133041   4.728   4.705   5.117  0.5359  0.6202  0.0966
10714SOL    HW233042   4.598   4.705   5.215  0.5672 -1.6221  0.2002
10715SOL     OW33043   4.431   1.932   2.272  0.3153 -0.0143 -0.2531
10715SOL    HW133044   4.477   2.007   2.319  0.8582 -0.3730 -0.2066
10715SOL    HW233045   4.332   1.942   2.283  0.3877  0.6135 -0.1264
10716SOL     OW33046   6.875   2.659   0.425  0.3321  0.2033 -0.3945
10716SOL    HW133047   6.927   2.740   0.450 -0.5010  0.5061  0.4198
10716SOL    HW233048   6.857   2.604   0.506 -0.9496  0.3177 -0.5785
10717SOL     OW33049   0.352   0.101   3.951  0.3624  0.6067 -0.3584
10717SOL    HW133050   0.298   0.152   4.018  0.1787 -1.2689  0.9955
10717SOL    HW233051   0.446   0.092   3.983 -0.0629 -1.5523  0.4512
10718SOL     OW33052   2.406   4.241   5.835  0.2680  0.1342 -0.5582
10718SOL    HW133053   2.443   4.204   5.919 -0.6203  1.0807  0.2845
10718SOL    HW233054   2.480   4.273   5.776  0.8671  0.1055  0.1821
10719SOL     OW33055   5.882   6.979   1.297  0.0774 -0.0502 -0.5869
10719SOL    HW133056   5.962   6.919   1.298 -0.2593 -0.5058  0.3035
10719SOL    HW233057   5.828   6.961   1.215  0.3174 -0.5161 -0.6453
10720SOL     OW33058   6.102   5.013   0.669 -0.3065  0.0252  0.1581
10720SOL    HW133059   6.180   5.002   0.608 -0.0119  0.5242  0.4393
10720SOL    HW233060   6.132   5.055   0.754 -0.8371 -0.0334  0.3778
10721SOL     OW33061   6.759   0.413   1.974  0.4919 -0.2764 -0.1957
10721SOL    HW133062   6.741   0.483   1.905  0.5540 -0.8610 -0.8177
10721SOL    HW233063   6.771   0.457   2.063 -0.3435  0.4252 -0.4092
10722SOL     OW33064   5.185   5.428   1.802  0.1399  0.1659  0.3361
10722SOL    HW133065   5.251   5.353   1.802  1.9182  1.6362 -1.2419
10722SOL    HW233066   5.098   5.395   1.766  0.1394 -1.6734  1.9048
10723SOL     OW33067   0.435   3.037   5.787  0.1743  0.1223  0.6457
10723SOL    HW133068   0.354   3.024   5.845  0.4090  0.6896  1.1195
10723SOL    HW233069   0.517   3.016   5.840  0.3065 -1.5595 -0.1755
10724SOL     OW33070   3.328   5.844   5.566 -0.2632  0.2122  0.3010
10724SOL    HW133071   3.280   5.926   5.596 -1.0767 -0.0494 -0.2529
10724SOL    HW233072   3.322   5.835   5.467  1.8246  0.7039  0.0944
10725SOL     OW33073   1.474   0.839   3.746  0.0948  0.3110  0.2183
10725SOL    HW133074   1.390   0.786   3.759 -1.0037  1.8425 -0.2421
10725SOL    HW233075   1.525   0.842   3.832 -0.4125 -0.4901  0.5590
10726SOL     OW33076   0.305   0.659   3.243  0.2718  0.3262 -0.8553
10726SOL    HW133077   0.224   0.712   3.267  0.0751 -0.4104  0.1410
10726SOL    HW233078   0.291   0.614   3.155 -1.0494 -1.0544  0.0129
10727SOL     OW33079   0.444   6.646   6.278 -0.2583 -0.6482  0.2215
10727SOL    HW133080   0.466   6.711   6.351  1.0461 -0.3783 -0.3882
10727SOL    HW233081   0.432   6.695   6.192 -0.5223 -1.0974 -0.0021
10728SOL     OW33082   5.902   0.976   2.092  0.6940 -0.0020  0.6474
10728SOL    HW133083   5.965   0.929   2.030  0.3774  0.0400  0.2893
10728SOL    HW233084   5.909   0.935   2.183 -0.3629 -1.5107  0.0965
10729SOL     OW33085   6.531   3.537   4.342  0.1336 -0.0783 -0.3169
10729SOL    HW133086   6.518   3.515   4.246  1.2959 -2.4908  0.0132
10729SOL    HW233087   6.629   3.541   4.363 -0.0296 -2.3184  1.2582
10730SOL     OW33088   2.344   5.087   5.357 -0.4284 -0.3372  0.6846
10730SOL    HW133089   2.254   5.113   5.392 -0.1159  0.0834  1.1803
10730SOL    HW233090   2.333   5.014   5.289 -1.0370 -1.2403  1.7254
10731SOL     OW33091   4.762   5.430   5.837  0.7035  0.3715  0.0161
10731SOL    HW133092   4.663   5.424   5.836  0.7787 -1.3767 -0.7091
10731SOL    HW233093   4.795   5.421   5.931  0.2674 -2.0667 -0.0023
10732SOL     OW33094   6.712   5.640   0.475  0.5635  0.0811  0.4539
10732SOL    HW133095   6.714   5.654   0.574  0.6122 -0.5435  0.5469
10732SOL    HW233096   6.618   5.621   0.446  0.9320 -2.7291  0.8404
10733SOL     OW33097   5.577   1.414   5.999 -0.5216  0.0931  0.0773
10733SOL    HW133098   5.632   1.439   5.919 -0.5696  0.1097  0.0503
10733SOL    HW233099   5.569   1.314   6.003 -1.1455  0.1259 -0.3513
10734SOL     OW33100   6.780   6.556   4.137 -0.3222 -0.4025  0.1689
10734SOL    HW133101   6.805   6.529   4.230  0.5821 -0.2783 -0.0267
10734SOL    HW233102   6.708   6.626   4.140  0.5367  0.4761  0.8138
10735SOL     OW33103   2.237   0.601   0.885  0.0387 -0.0644  0.1039
10735SOL    HW133104   2.251   0.697   0.861 -0.7863 -0.2007 -1.0205
10735SOL    HW233105   2.320   0.564   0.925  0.0639  1.3765  1.4971
10736SOL     OW33106   4.773   6.343   4.029  0.1423 -0.0185  0.0373
10736SOL    HW133107   4.806   6.423   3.978  2.4178 -0.5449  0.5686
10736SOL    HW233108   4.831   6.329   4.109  0.4698 -2.8029 -0.6016
10737SOL     OW33109   0.710   6.716   1.144 -0.1699  0.0871  0.7096
10737SOL    HW133110   0.656   6.784   1.095 -1.5907 -0.8379  0.9062
10737SOL    HW233111   0.749   6.756   1.227 -3.0058  0.1393  2.1407
10738SOL     OW33112   1.750   6.565   1.557  0.9595  0.8530  0.6051
10738SOL    HW133113   1.658   6.532   1.581  1.8289 -1.3363  1.2134
10738SOL    HW233114   1.818   6.497   1.586  2.7619  2.2567 -0.1429
10739SOL     OW33115   5.512   3.086   5.355 -0.6871  0.6868  0.1645
10739SOL    HW133116   5.417   3.057   5.361 -0.7572  0.6708 -0.9197
10739SOL    HW233117   5.535   3.143   5.434 -1.5560  0.6019  0.4827
10740SOL     OW33118   2.642   0.392   0.643  0.0953 -0.2773  0.8696
10740SOL    HW133119   2.573   0.363   0.709 -1.7278 -0.8986 -1.2065
10740SOL    HW233120   2.599   0.409   0.554  2.8156 -2.7051 -1.1260
10741SOL     OW33121   1.376   2.822   4.077 -0.1000  0.2983  0.3526
10741SOL    HW133122   1.433   2.744   4.105 -0.4806  0.4058  1.4453
10741SOL    HW233123   1.308   2.841   4.147 -1.3500  0.3312 -0.8263
10742SOL     OW33124   6.979   0.779   1.955 -0.9318 -0.1436 -0.3499
10742SOL    HW133125   6.978   0.733   1.866  2.1600 -0.7146 -0.2125
10742SOL    HW233126   6.964   0.877   1.942 -0.7862 -0.2539 -1.4703
10743SOL     OW33127   4.820   3.707   5.410 -0.3788 -0.4009  0.7490
10743SOL    HW133128   4.731   3.700   5.364 -0.7217  1.1689  1.0956
10743SOL    HW233129   4.888   3.656   5.359 -0.8730  0.7482 -1.1794
10744SOL     OW33130   0.329   3.627   0.045  0.5457 -0.3121 -0.2691
10744SOL    HW133131   0.237   3.598   0.018 -0.3246  1.3140  0.7215
10744SOL    HW233132   0.379   3.657  -0.036 -0.7331  1.1329 -0.5835
10745SOL     OW33133   1.254   6.186   0.095 -0.2439 -0.5516 -0.1552
10745SOL    HW133134   1.319   6.196   0.170 -1.2539 -0.5576  0.7422
10745SOL    HW233135   1.294   6.127   0.024  0.1580 -1.7795  1.0406
10746SOL     OW33136   2.832   5.303   5.698 -0.2833 -0.7765 -0.2315
10746SOL    HW133137   2.825   5.335   5.792 -0.3833 -0.7651 -0.2434
10746SOL    HW233138   2.912   5.244   5.689  0.4357  0.1936 -0.4147
10747SOL     OW33139   2.402   6.719   4.827 -0.0336 -0.2270 -0.4282
10747SOL    HW133140   2.406   6.756   4.920 -0.1067 -1.0900 -0.0740
10747SOL    HW233141   2.360   6.628   4.829 -1.0313  0.1917 -1.4438
10748SOL     OW33142   3.425   6.016   2.359 -0.3308  0.1975 -0.9782
10748SOL    HW133143   3.339   6.051   2.395 -1.4042 -0.2581 -2.9287
10748SOL    HW233144   3.458   5.941   2.417  0.2122  2.1051  1.2950
10749SOL     OW33145   4.763   4.069   0.542 -0.2631 -0.1284 -0.2741
10749SOL    HW133146   4.698   3.994   0.551  0.8196 -1.0470  0.1514
10749SOL    HW233147   4.769   4.097   0.446 -2.2124  0.8566 -0.1576
10750SOL     OW33148   4.291   1.682   2.318  0.1287 -0.5226 -0.0368
10750SOL    HW133149   4.339   1.615   2.375  0.2026  1.3194  2.2625
10750SOL    HW233150   4.353   1.758   2.299 -0.8656  0.3447  0.1326
10751SOL     OW33151   6.414   5.164   3.907  1.2568 -0.3994  0.3640
10751SOL    HW133152   6.478   5.124   3.974  0.2698 -1.1554  0.8764
10751SOL    HW233153   6.343   5.098   3.885  1.0399  0.1787 -0.7519
10752SOL     OW33154   6.581   5.056   0.607  0.0017 -0.0685 -0.6210
10752SOL    HW133155   6.680   5.056   0.613 -0.0656 -1.1026  0.8272
10752SOL    HW233156   6.554   5.047   0.511  1.2750  0.9146 -1.1061
10753SOL     OW33157   5.448   5.569   6.753  0.3723  0.0336 -0.5201
10753SOL    HW133158   5.417   5.475   6.740  1.1125 -0.3530  0.3631
10753SOL    HW233159   5.390   5.614   6.821 -0.3596  0.4232 -1.3860
10754SOL     OW33160   6.927   5.501   3.302 -0.0720  0.0197 -0.2694
10754SOL    HW133161   7.001   5.535   3.243  0.2619  0.6523  0.4924
10754SOL    HW233162   6.868   5.577   3.328  0.0679 -0.1548  0.5980
10755SOL     OW33163   6.928   3.174   2.644  0.0820  0.4059  0.3414
10755SOL    HW133164   6.901   3.079   2.634  1.0907  0.0209  1.1244
10755SOL    HW233165   7.021   3.179   2.680 -0.2825  1.6713  1.2021
10756SOL     OW33166   2.418   0.745   3.621 -0.2973 -0.2137 -0.1466
10756SOL    HW133167   2.487   0.722   3.552  0.3997  2.2274 -0.3543
10756SOL    HW233168   2.443   0.830   3.666 -1.6208 -0.8811  1.9807
10757SOL     OW33169   6.408   2.663   6.455  0.1809 -0.1706  0.5304
10757SOL    HW133170   6.439   2.568   6.443  0.3401 -0.0933  0.3487
10757SOL    HW233171   6.414   2.687   6.552  0.4523 -0.2350  0.5291
10758SOL     OW33172   1.244   0.549   0.615 -0.4653 -0.4375  0.5352
10758SOL    HW133173   1.280   0.521   0.526 -0.8893 -1.0266  0.5484
10758SOL    HW233174   1.255   0.474   0.680 -2.3809 -0.8964  0.3629
10759SOL     OW33175   3.546   3.160   6.027  0.2518 -0.2233  0.0664
10759SOL    HW133176   3.553   3.061   6.018  0.8810 -0.2684  0.9373
10759SOL    HW233177   3.488   3.183   6.104  0.1325  0.0870 -0.1137
10760SOL     OW33178   1.161   6.279   0.397  0.0226 -0.7948 -0.6105
10760SOL    HW133179   1.235   6.329   0.443 -1.2402  0.0773  0.5622
10760SOL    HW233180   1.173   6.286   0.298  0.0276  1.6890 -0.4955
10761SOL     OW33181   2.024   1.413   6.598  0.3272 -0.3646  0.0032
10761SOL    HW133182   2.077   1.342   6.552 -2.1924 -2.9684  0.7749
10761SOL    HW233183   2.052   1.418   6.694  0.7703 -0.0080 -0.1408
10762SOL     OW33184   1.679   7.020   5.745 -0.1544  0.1567  0.3314
10762SOL    HW133185   1.614   7.035   5.819 -0.3588  0.3120  0.1201
10762SOL    HW233186   1.771   7.048   5.775 -0.4894  1.6493  0.0120
10763SOL     OW33187   3.676   0.192   6.957 -0.6071 -0.6347 -0.0140
10763SOL    HW133188   3.697   0.109   6.905  0.1019 -0.1778 -0.4755
10763SOL    HW233189   3.611   0.248   6.906 -0.9144 -0.8034  0.1938
10764SOL     OW33190   0.655   5.339   5.045 -0.0575 -0.0064  0.3387
10764SOL    HW133191   0.751   5.366   5.037 -0.0760 -0.3616 -1.5166
10764SOL    HW233192   0.649   5.241   5.062 -0.0868  0.1259  1.1052
10765SOL     OW33193   6.172   3.097   1.916 -0.2784 -0.0065  0.4579
10765SOL    HW133194   6.124   3.040   1.849  0.1247 -0.3447  0.4572
10765SOL    HW233195   6.250   3.047   1.953  0.6304  0.8781 -0.2205
10766SOL     OW33196   2.271   5.727   0.205  0.5785  0.7146 -0.3271
10766SOL    HW133197   2.319   5.812   0.226  1.9352  0.1525 -1.0614
10766SOL    HW233198   2.259   5.718   0.106 -0.0284  0.2848 -0.2259
10767SOL     OW33199   1.793   5.587   6.832  0.5270  0.4011  0.0220
10767SOL    HW133200   1.837   5.568   6.744 -1.2438 -2.2785 -0.3901
10767SOL    HW233201   1.697   5.607   6.818  0.2635  0.1789  1.3466
10768SOL     OW33202   6.636   5.981   6.284 -0.5715 -0.0248  0.4331
10768SOL    HW133203   6.683   5.953   6.368  0.7808 -0.4791 -0.4370
10768SOL    HW233204   6.583   5.904   6.249 -0.6526 -0.0176  0.5358
10769SOL     OW33205   3.198   3.555   6.085  0.1276  0.5159 -0.8005
10769SOL    HW133206   3.204   3.594   5.992 -2.1282 -0.2970 -1.3477
10769SOL    HW233207   3.114   3.502   6.093  0.8834 -0.4401  1.3736
10770SOL     OW33208   3.771   1.198   3.589  0.2004 -0.4137  0.0338
10770SOL    HW133209   3.728   1.281   3.554  1.6904  0.2219 -0.3382
10770SOL    HW233210   3.700   1.136   3.624 -0.9155  1.1833  0.7314
10771SOL     OW33211   2.496   4.804   6.677  0.0180 -0.0561  0.3393
10771SOL    HW133212   2.530   4.852   6.596 -0.5856  1.4910  0.9722
10771SOL    HW233213   2.413   4.752   6.653  0.0818  0.0559 -0.1265
10772SOL     OW33214   3.693   5.354   3.093  0.6122 -0.1562 -0.6624
10772SOL    HW133215   3.792   5.343   3.105  0.6913  0.1105 -1.0754
10772SOL    HW233216   3.669   5.340   2.997  0.3369  0.4342 -0.6799
10773SOL     OW33217   0.928   5.572   1.181 -1.0266 -0.3036  0.0357
10773SOL    HW133218   0.886   5.658   1.152  0.2288 -0.4519 -2.4820
10773SOL    HW233219   1.010   5.591   1.235 -1.3236  0.0306  0.3797
10774SOL     OW33220   5.045   3.244   0.603 -0.1305 -0.5469  0.4483
10774SOL    HW133221   4.987   3.314   0.644  0.0474 -0.0743 -0.0900
10774SOL    HW233222   5.138   3.253   0.638  0.2567  0.4918 -0.7490
10775SOL     OW33223   2.759   4.607   0.129 -0.2991 -0.0654  0.2556
10775SOL    HW133224   2.731   4.641   0.040  0.4770 -1.9029 -0.7396
10775SOL    HW233225   2.678   4.586   0.184 -0.8229 -0.8259 -0.7882
10776SOL     OW33226   1.334   2.743   3.386  0.1880  0.2065 -0.0822
10776SOL    HW133227   1.356   2.833   3.347 -2.0267  0.4023 -1.0102
10776SOL    HW233228   1.305   2.681   3.313 -1.1826 -0.3357  0.8769
10777SOL     OW33229   7.012   0.360   0.346  0.2293 -0.4019 -0.5019
10777SOL    HW133230   6.915   0.354   0.323 -0.7318 -2.3846  3.1439
10777SOL    HW233231   7.023   0.417   0.427  2.3855  1.0277 -1.7170
10778SOL     OW33232   3.107   2.162   3.835 -0.8003 -0.3424  0.6779
10778SOL    HW133233   3.119   2.096   3.760  0.2466  0.6895 -0.1056
10778SOL    HW233234   3.193   2.172   3.885 -0.1630  2.1475 -0.7307
10779SOL     OW33235   6.237   3.665   5.622 -0.0270 -0.0831  0.2950
10779SOL    HW133236   6.237   3.742   5.559 -1.7739  0.5013  0.9530
10779SOL    HW233237   6.210   3.697   5.713  2.6951 -0.8436  1.4738
10780SOL     OW33238   0.471   4.590   5.652  0.2085 -0.2967  0.1153
10780SOL    HW133239   0.397   4.566   5.589  2.1637  0.1320 -2.5325
10780SOL    HW233240   0.485   4.516   5.718 -2.1952 -0.5845  0.3826
10781SOL     OW33241   6.507   2.804   4.854 -0.4119 -0.2283 -0.1207
10781SOL    HW133242   6.606   2.821   4.860 -0.2766 -0.8306 -0.5630
10781SOL    HW233243   6.459   2.891   4.844  0.1343  0.0149 -0.6980
10782SOL     OW33244   1.722   2.322   5.761 -0.3406  0.0426  0.3213
10782SOL    HW133245   1.737   2.265   5.842 -0.4670 -1.0727 -0.4184
10782SOL    HW233246   1.809   2.354   5.726 -0.1376 -0.9350 -0.1096
10783SOL     OW33247   1.890   3.047   3.117  0.8008 -0.1312 -0.3383
10783SOL    HW133248   1.833   2.997   3.183 -1.6618  0.8980 -1.5209
10783SOL    HW233249   1.940   2.983   3.061 -0.4961 -1.2105 -0.3108
10784SOL     OW33250   4.761   5.871   3.405  0.0469  0.3609 -0.5847
10784SOL    HW133251   4.736   5.775   3.411  0.7793  0.1648 -0.5913
10784SOL    HW233252   4.835   5.883   3.339  0.0576  0.9098 -0.4844
10785SOL     OW33253   0.362   6.107   0.186  0.1299  0.5258 -0.1716
10785SOL    HW133254   0.408   6.044   0.249 -0.0503  0.8651  0.3104
10785SOL    HW233255   0.429   6.166   0.142  0.8290 -2.5180 -3.6339
10786SOL     OW33256   4.931   3.503   2.282  0.9245 -0.3002 -0.9222
10786SOL    HW133257   4.976   3.485   2.370  0.6678 -1.1889 -0.9615
10786SOL    HW233258   4.864   3.431   2.264 -1.5330  1.6581 -0.2348
10787SOL     OW33259   4.041   2.174   4.794 -0.1136  0.2584  0.5821
10787SOL    HW133260   4.116   2.198   4.855  0.1087 -0.7189  0.7109
10787SOL    HW233261   3.969   2.129   4.846  0.1288 -0.6916  0.1266
10788SOL     OW33262   0.251   2.957   5.988 -0.2104  0.2859  0.4177
10788SOL    HW133263   0.331   2.931   6.042 -0.1929  1.1585  0.8368
10788SOL    HW233264   0.201   3.030   6.036  0.2233  1.6336 -1.0836
10789SOL     OW33265   0.145   0.314   4.052  0.6348  0.1286 -0.2995
10789SOL    HW133266   0.069   0.365   4.013  2.1333  2.4346 -0.4005
10789SOL    HW233267   0.222   0.376   4.070  2.3803 -2.0174  0.1510
10790SOL     OW33268   6.503   1.018   2.562  0.3620 -0.4244 -0.1989
10790SOL    HW133269   6.433   0.988   2.626 -0.4848 -1.1894 -1.4348
10790SOL    HW233270   6.561   1.087   2.605 -0.9513 -0.0016  0.9545
10791SOL     OW33271   1.678   4.375   4.692  0.1035  0.3369 -0.5222
10791SOL    HW133272   1.599   4.413   4.644 -1.1561 -0.7299  0.6497
10791SOL    HW233273   1.752   4.360   4.626 -1.1934 -0.0818 -1.9491
10792SOL     OW33274   4.326   1.438   2.648  0.4978 -0.4508  0.1717
10792SOL    HW133275   4.370   1.528   2.636  0.3659 -0.1917  1.4803
10792SOL    HW233276   4.348   1.403   2.739 -1.7324 -0.4713  0.7397
10793SOL     OW33277   2.597   1.115   6.463 -0.3890  0.1973  0.4972
10793SOL    HW133278   2.549   1.134   6.377  0.0872 -1.6459 -0.2424
10793SOL    HW233279   2.690   1.152   6.459 -1.3188  2.8153  1.4976
10794SOL     OW33280   4.479   3.708   6.954 -0.6963 -0.2673 -0.2246
10794SOL    HW133281   4.552   3.642   6.938 -0.9810 -0.5610 -0.3380
10794SOL    HW233282   4.410   3.667   7.015 -1.4152 -0.4871 -1.1618
10795SOL     OW33283   4.947   1.597   3.013 -0.3052  0.3816 -0.5646
10795SOL    HW133284   4.865   1.644   2.981 -0.1613  1.3984  0.4978
10795SOL    HW233285   4.936   1.498   3.000 -2.2455  0.3761  0.7328
10796SOL     OW33286   1.100   3.028   6.062 -0.1208  0.1007 -0.0678
10796SOL    HW133287   1.077   2.935   6.090  2.0160  0.2999  2.7796
10796SOL    HW233288   1.017   3.080   6.044 -1.3721 -2.1953 -1.3249
10797SOL     OW33289   5.243   5.603   1.467 -0.0746  0.0126 -0.4029
10797SOL    HW133290   5.274   5.654   1.547 -0.9599  1.5769 -1.0003
10797SOL    HW233291   5.156   5.641   1.435  0.0050 -0.9063 -1.7959
10798SOL     OW33292   1.279   4.675   6.812  0.3284 -0.7504  0.1036
10798SOL    HW133293   1.250   4.579   6.808 -1.5344 -0.2109 -0.7557
10798SOL    HW233294   1.343   4.687   6.888 -0.5701 -2.3828  1.2008
10799SOL     OW33295   3.020   6.963   3.075 -0.5847 -0.6144  0.0687
10799SOL    HW133296   3.055   6.898   3.007  0.4159  1.5131 -1.5589
10799SOL    HW233297   2.921   6.957   3.079 -0.6228 -1.1440 -1.1834
10800SOL     OW33298   4.327   5.939   3.695  0.6203  0.6327 -0.3969
10800SOL    HW133299   4.318   5.963   3.792  0.8327 -0.2586 -0.1484
10800SOL    HW233300   4.248   5.886   3.667  1.2176 -0.3120 -0.3331
10801SOL     OW33301   3.613   6.368   6.152 -0.0001 -0.1289 -0.6194
10801SOL    HW133302   3.581   6.342   6.061  0.2127 -2.4548 -0.1061
10801SOL    HW233303   3.647   6.286   6.199  0.8803  1.2085  1.1574
10802SOL     OW33304   1.932   4.655   5.942  0.3656  0.0542  0.3495
10802SOL    HW133305   1.906   4.598   5.864 -0.6423 -0.0513  0.7456
10802SOL    HW233306   1.890   4.745   5.933 -1.4837 -0.5967  1.7513
10803SOL     OW33307   0.187   4.695   2.988 -0.1985  0.3864  0.6058
10803SOL    HW133308   0.102   4.744   2.970 -0.1431  0.5393  0.7594
10803SOL    HW233309   0.221   4.719   3.078  0.5985  1.2065  0.1075
10804SOL     OW33310   4.250   5.379   0.876 -0.5081  0.2945  0.8287
10804SOL    HW133311   4.192   5.365   0.956  0.3494  0.4712  1.5042
10804SOL    HW233312   4.257   5.294   0.825 -2.0026  0.4755  0.2734
10805SOL     OW33313   5.311   0.043   6.818 -0.0150  0.1611  0.2632
10805SOL    HW133314   5.362   0.113   6.769  0.4872  0.5829  1.3421
10805SOL    HW233315   5.359  -0.044   6.814  0.6839  0.4959  1.0559
10806SOL     OW33316   4.323   2.547   0.557 -0.1339  0.5928 -0.3175
10806SOL    HW133317   4.308   2.646   0.554  0.1364  0.6789  0.8374
10806SOL    HW233318   4.325   2.516   0.652 -1.2051 -0.6928 -0.6871
10807SOL     OW33319   5.269   2.873   4.248  0.0950 -0.1430  0.4221
10807SOL    HW133320   5.206   2.896   4.174  0.4161  0.8590  0.4481
10807SOL    HW233321   5.361   2.904   4.224  0.6318 -1.7550  0.3036
10808SOL     OW33322   4.861   4.180   5.974 -0.1391  0.0339 -0.8055
10808SOL    HW133323   4.931   4.122   6.017 -1.3541  0.3166  1.6726
10808SOL    HW233324   4.890   4.201   5.880  2.0366 -1.6282 -0.6046
10809SOL     OW33325   6.563   0.006   3.302 -0.6160  0.3257 -0.1033
10809SOL    HW133326   6.560   0.105   3.314 -1.0424  0.6320 -2.2315
10809SOL    HW233327   6.471  -0.027   3.279 -0.1095 -0.1920 -1.5345
10810SOL     OW33328   0.462   2.257   5.661 -0.2911 -0.0812  0.4463
10810SOL    HW133329   0.365   2.277   5.674 -0.3783 -0.3981  0.3066
10810SOL    HW233330   0.478   2.160   5.680 -0.2335 -0.3224 -0.7461
10811SOL     OW33331   3.468   0.224   6.747  0.0420  0.3815  0.6033
10811SOL    HW133332   3.386   0.252   6.796  0.0382 -0.0173  0.8261
10811SOL    HW233333   3.458   0.129   6.716  0.7617  0.0404  1.3767
10812SOL     OW33334   5.032   1.706   4.414 -0.2909 -0.2654  0.6585
10812SOL    HW133335   4.936   1.682   4.430 -0.6598  0.7979  0.1443
10812SOL    HW233336   5.046   1.722   4.316 -0.2910  2.3242  1.0049
10813SOL     OW33337   2.834   5.418   2.167 -0.2501  0.7497 -0.3467
10813SOL    HW133338   2.852   5.447   2.261 -0.6047  0.0663 -0.0650
10813SOL    HW233339   2.880   5.331   2.150 -1.0781  0.3339 -0.4680
10814SOL     OW33340   1.441   4.430   5.159 -0.4158 -0.3708 -0.0408
10814SOL    HW133341   1.481   4.382   5.081 -1.5668 -1.0612 -0.2256
10814SOL    HW233342   1.366   4.489   5.127 -0.4318 -0.1150  0.4536
10815SOL     OW33343   5.910   5.737   6.707 -0.7405  0.4909  0.0527
10815SOL    HW133344   5.812   5.752   6.692 -0.5820  1.2368 -0.2974
10815SOL    HW233345   5.923   5.676   6.785 -1.4728  1.3282  0.8483
10816SOL     OW33346   2.177   0.182   2.693  0.0300 -0.6471 -0.0575
10816SOL    HW133347   2.246   0.117   2.661  0.3727  0.5620 -1.9207
10816SOL    HW233348   2.166   0.173   2.792  1.5027 -2.1408  0.0104
10817SOL     OW33349   4.694   1.250   3.155 -0.0517 -0.2486 -0.1183
10817SOL    HW133350   4.681   1.342   3.117  0.0950  0.3872  1.2919
10817SOL    HW233351   4.754   1.256   3.236 -0.9803 -1.4028  0.6822
10818SOL     OW33352   4.470   2.107   5.786  0.2661 -0.2454  0.4564
10818SOL    HW133353   4.442   2.082   5.879 -1.1045 -3.1147 -0.6155
10818SOL    HW233354   4.406   2.173   5.749  0.0196 -0.1314  1.0667
10819SOL     OW33355   1.381   3.478   5.209  0.1391  0.0768 -0.3866
10819SOL    HW133356   1.284   3.498   5.226  0.2812  1.5772 -1.2258
10819SOL    HW233357   1.436   3.515   5.284  0.0661 -1.0013  0.2210
10820SOL     OW33358   0.578   5.983   6.180  0.3589  0.8386  0.1333
10820SOL    HW133359   0.508   6.054   6.179 -1.6666 -1.0378 -1.6444
10820SOL    HW233360   0.561   5.919   6.255  0.8563  0.9963  0.3852
10821SOL     OW33361   0.310   0.336   5.905  0.2805 -0.0044 -0.8674
10821SOL    HW133362   0.258   0.396   5.965 -0.4325 -3.1554  2.0101
10821SOL    HW233363   0.253   0.258   5.878  1.6176 -0.3170 -3.0951
10822SOL     OW33364   7.015   6.371   5.486 -0.2617 -0.8612 -0.1934
10822SOL    HW133365   6.974   6.455   5.522  0.9752 -0.5030  0.4305
10822SOL    HW233366   7.008   6.298   5.554 -0.7839 -1.1016 -0.4963
10823SOL     OW33367   2.066   2.201   6.258  0.0288 -0.6284  0.1231
10823SOL    HW133368   2.116   2.288   6.257 -1.1050  0.0714  1.4035
10823SOL    HW233369   2.131   2.126   6.274  0.7143  0.2608  1.8716
10824SOL     OW33370   4.591   1.011   5.326  0.2678 -0.4506 -0.2474
10824SOL    HW133371   4.618   0.967   5.240 -0.2535  1.1497 -1.2767
10824SOL    HW233372   4.528   1.086   5.306 -0.7846 -0.7690  1.6589
10825SOL     OW33373   3.331   1.396   2.869 -0.4389  0.2234  0.1674
10825SOL    HW133374   3.399   1.408   2.797 -0.4483  1.3255  0.3318
10825SOL    HW233375   3.374   1.354   2.949 -0.3704 -0.7570 -0.3577
10826SOL     OW33376   5.182   5.146   3.148  0.4880  0.4021 -0.1987
10826SOL    HW133377   5.109   5.090   3.185 -1.9473  2.9440 -0.8268
10826SOL    HW233378   5.190   5.231   3.200  3.1099  0.1821 -0.1000
10827SOL     OW33379   2.095   1.982   4.992 -0.3441  0.6072 -0.3148
10827SOL    HW133380   2.162   2.044   5.033  0.1386  0.1961 -0.4556
10827SOL    HW233381   2.074   2.013   4.899 -2.5556  2.3771  0.7023
10828SOL     OW33382   3.047   3.068   0.285 -0.0421 -0.5128  0.5078
10828SOL    HW133383   3.123   3.134   0.287 -0.5538  0.0997  0.1169
10828SOL    HW233384   3.026   3.039   0.378 -0.2921  0.4377  0.7635
10829SOL     OW33385   0.398   4.787   1.283  0.0379  0.2881 -0.2022
10829SOL    HW133386   0.373   4.695   1.310 -0.3458  0.8479  1.4355
10829SOL    HW233387   0.487   4.785   1.236 -0.8867 -1.1248 -1.9990
10830SOL     OW33388   5.788   6.683   2.173 -0.7937 -0.7852 -0.4614
10830SOL    HW133389   5.766   6.640   2.085 -1.3787  2.6041 -2.1323
10830SOL    HW233390   5.711   6.672   2.235 -0.5406 -2.8789 -0.4605
10831SOL     OW33391   5.344   2.737   2.465  0.1940  0.1284 -0.0666
10831SOL    HW133392   5.372   2.786   2.547  1.1336 -0.0730 -0.2575
10831SOL    HW233393   5.270   2.786   2.420  0.9169  1.2156 -0.0982
10832SOL     OW33394   6.969   3.453   2.295  0.2227  0.1462  0.7146
10832SOL    HW133395   6.926   3.365   2.274 -0.4808  0.5827  0.3181
10832SOL    HW233396   7.021   3.485   2.216 -2.7694  1.9942 -0.6774
10833SOL     OW33397   3.741   6.307   4.543 -0.4361  0.2651 -0.6683
10833SOL    HW133398   3.773   6.317   4.637  0.2300  3.2585 -1.1416
10833SOL    HW233399   3.667   6.239   4.541 -0.9043  0.5539  2.1112
10834SOL     OW33400   5.643   2.894   5.669 -0.1814 -0.1607  0.1214
10834SOL    HW133401   5.577   2.963   5.700 -0.6530 -0.1785 -0.8283
10834SOL    HW233402   5.606   2.845   5.590  1.8257  1.2905 -1.8359
10835SOL     OW33403   1.443   3.097   6.790 -0.5265 -0.4347 -0.2522
10835SOL    HW133404   1.359   3.072   6.838  0.3955 -3.5994 -0.0523
10835SOL    HW233405   1.521   3.084   6.852  0.3356 -0.3182 -1.2848
10836SOL     OW33406   1.728   3.330   0.817  0.0065 -0.7075 -0.2947
10836SOL    HW133407   1.816   3.379   0.821  0.5805 -1.6567 -0.8463
10836SOL    HW233408   1.727   3.270   0.737  0.7262 -4.1136  2.0188
10837SOL     OW33409   6.624   6.673   0.329 -0.0650  0.1973  0.3552
10837SOL    HW133410   6.646   6.756   0.279  0.3535  0.7604  1.4397
10837SOL    HW233411   6.645   6.593   0.273  0.9343  0.7977 -0.1397
10838SOL     OW33412   0.224   6.804   0.457 -0.0284 -0.0714  0.2563
10838SOL    HW133413   0.188   6.886   0.501  0.5307  0.4466 -0.2348
10838SOL    HW233414   0.190   6.723   0.505 -1.2133  0.4160  0.2798
10839SOL     OW33415   0.989   1.667   6.782  0.4443  0.2981  0.1541
10839SOL    HW133416   0.895   1.696   6.803  0.8201  1.8946 -0.2260
10839SOL    HW233417   1.045   1.676   6.865  0.0793 -1.5848  0.6431
10840SOL     OW33418   3.598   2.134   4.324 -0.4337 -0.1425 -0.4634
10840SOL    HW133419   3.687   2.118   4.367  0.2221  0.5733 -1.5146
10840SOL    HW233420   3.526   2.120   4.392  0.6060  2.1140  1.2455
10841SOL     OW33421   3.338   4.226   1.275  0.3019  0.0565 -0.2105
10841SOL    HW133422   3.269   4.292   1.303  0.7442  1.4494 -2.1267
10841SOL    HW233423   3.421   4.239   1.329 -0.7852 -1.5026  1.9745
10842SOL     OW33424   6.812   0.268   2.342 -0.0249  0.4509 -0.1764
10842SOL    HW133425   6.765   0.351   2.371 -0.2744 -0.0804  1.0127
10842SOL    HW233426   6.828   0.209   2.422 -1.2032 -1.3199 -1.1747
10843SOL     OW33427   2.014   3.353   1.216  0.1888  0.1146  0.2372
10843SOL    HW133428   1.942   3.406   1.261  0.3911 -0.2131  0.9615
10843SOL    HW233429   2.023   3.264   1.261  0.3219 -0.2673 -0.5321
10844SOL     OW33430   5.280   6.588   5.905  0.3024  0.3976 -0.0520
10844SOL    HW133431   5.366   6.569   5.951 -0.2269 -0.8131  0.4711
10844SOL    HW233432   5.239   6.502   5.874 -0.9923  0.9063  0.2090
10845SOL     OW33433   2.742   3.417   0.739 -0.1647 -0.1891  0.1831
10845SOL    HW133434   2.646   3.430   0.713 -0.3200 -3.5415 -1.4241
10845SOL    HW233435   2.750   3.334   0.794  1.8374  0.0871  0.3789
10846SOL     OW33436   3.115   2.997   2.549  0.9082 -0.4690  0.1621
10846SOL    HW133437   3.032   2.943   2.538  0.4295 -0.0319  1.3944
10846SOL    HW233438   3.179   2.977   2.474 -0.9113  0.3312 -1.6817
10847SOL     OW33439   0.110   1.542   3.969  0.0507 -0.0226  0.2634
10847SOL    HW133440   0.160   1.622   3.934  2.1814 -1.4521 -0.1268
10847SOL    HW233441   0.140   1.460   3.922 -0.3327 -1.4174  2.3006
10848SOL     OW33442   0.386   6.440   6.667 -0.7271  0.0684 -0.3299
10848SOL    HW133443   0.365   6.534   6.692 -0.7076 -0.3727  1.4604
10848SOL    HW233444   0.472   6.437   6.617 -0.9616  1.0388 -0.8129
10849SOL     OW33445   0.105   3.461   4.115  0.2744 -0.3129 -0.6381
10849SOL    HW133446   0.138   3.537   4.170 -0.7165 -0.0061 -0.4596
10849SOL    HW233447   0.127   3.375   4.161 -1.1230 -0.0435  0.5816
10850SOL     OW33448   6.993   0.471   1.524 -0.3988 -0.4845 -0.3268
10850SOL    HW133449   7.005   0.448   1.428  0.6378 -1.8157  0.0750
10850SOL    HW233450   7.076   0.515   1.558 -0.1030 -1.4958  0.3198
10851SOL     OW33451   5.102   1.971   4.594  0.2016 -0.5536  0.7109
10851SOL    HW133452   5.011   1.963   4.634  0.4432  1.1116  1.6701
10851SOL    HW233453   5.127   1.884   4.550 -1.7764 -1.0738  0.5271
10852SOL     OW33454   4.555   0.555   1.723  0.5228  0.6532  0.3214
10852SOL    HW133455   4.640   0.516   1.689 -1.0337 -2.4836 -0.3927
10852SOL    HW233456   4.487   0.482   1.732 -1.3237  2.5257  3.4305
10853SOL     OW33457   2.376   5.424   0.034  0.6764  0.3602 -0.2707
10853SOL    HW133458   2.285   5.431  -0.007  0.2354  0.6536  0.7262
10853SOL    HW233459   2.424   5.346  -0.006 -1.1427 -1.6836  1.2434
10854SOL     OW33460   5.251   1.250   0.286 -0.3378 -0.0876  0.5017
10854SOL    HW133461   5.296   1.313   0.350 -0.1745  1.2926 -0.9056
10854SOL    HW233462   5.205   1.302   0.215 -1.9238 -1.5555  0.3975
10855SOL     OW33463   0.568   6.407   6.976 -0.4736  0.0448  0.1081
10855SOL    HW133464   0.630   6.360   6.913 -0.4207 -1.1840  1.0476
10855SOL    HW233465   0.474   6.377   6.958 -0.3945 -0.7771  0.9829
10856SOL     OW33466   6.698   6.548   5.912  0.6405 -0.0258  0.5793
10856SOL    HW133467   6.776   6.496   5.947  0.7209  0.0597  0.5300
10856SOL    HW233468   6.666   6.508   5.826 -0.4771 -1.1153  1.4674
10857SOL     OW33469   6.146   0.041   4.877  0.8463 -0.4254 -0.1847
10857SOL    HW133470   6.076  -0.013   4.924  0.8014  0.5896  0.9554
10857SOL    HW233471   6.167   0.123   4.931  1.7567  0.1025 -1.3019
10858SOL     OW33472   1.400   2.856   0.106  0.5084  0.4626 -0.4463
10858SOL    HW133473   1.491   2.822   0.132  0.1430 -0.5009 -0.4071
10858SOL    HW233474   1.372   2.814   0.020 -0.2437  0.1360 -0.0487
10859SOL     OW33475   1.197   5.199   0.966  0.1727 -0.7164 -0.3740
10859SOL    HW133476   1.289   5.226   0.995  0.3171 -0.4981 -1.0236
10859SOL    HW233477   1.181   5.229   0.872 -0.8974  0.0325  0.0339
10860SOL     OW33478   5.434   2.899   0.299 -0.1750 -0.0241 -0.4333
10860SOL    HW133479   5.374   2.826   0.331 -0.9224  1.0955  0.8127
10860SOL    HW233480   5.518   2.899   0.353  0.7322 -1.1875 -1.7595
10861SOL     OW33481   1.535   5.167   1.679  0.1457 -0.0521  0.0947
10861SOL    HW133482   1.502   5.094   1.619 -0.6661 -0.1283  0.6132
10861SOL    HW233483   1.535   5.134   1.774  0.7494  0.2897  0.2125
10862SOL     OW33484   2.978   2.791   5.917 -0.6514 -0.5204 -0.1254
10862SOL    HW133485   2.886   2.827   5.904  0.3157  2.6145  0.8929
10862SOL    HW233486   3.006   2.742   5.834 -2.2564  0.7771 -1.5092
10863SOL     OW33487   3.651   0.306   2.839  0.0226  0.7802 -0.5652
10863SOL    HW133488   3.712   0.287   2.761  0.9683 -0.1256  0.3647
10863SOL    HW233489   3.589   0.228   2.851 -0.1770  0.9575 -0.4610
10864SOL     OW33490   2.938   3.501   2.370  0.1248 -0.0488  0.0023
10864SOL    HW133491   2.937   3.413   2.417 -3.4793  0.2489  0.8092
10864SOL    HW233492   2.894   3.493   2.281 -1.2013  1.0129  0.5019
10865SOL     OW33493   3.378   0.568   2.614  0.1500 -0.1560 -0.6039
10865SOL    HW133494   3.313   0.642   2.630  0.4922 -0.0443  0.3483
10865SOL    HW233495   3.386   0.512   2.697  0.4906 -0.7840 -1.0497
10866SOL     OW33496   6.939   4.632   4.844  0.3107 -0.3257 -0.0328
10866SOL    HW133497   6.870   4.672   4.783 -0.5141 -2.7322 -0.8039
10866SOL    HW233498   6.893   4.572   4.910  1.6086 -1.5336 -0.1988
10867SOL     OW33499   3.432   1.465   0.384  0.2757 -0.4026  0.0412
10867SOL    HW133500   3.530   1.481   0.370  0.3961  0.0722  1.2610
10867SOL    HW233501   3.406   1.379   0.341  1.0316 -0.0996 -1.0678
10868SOL     OW33502   5.319   6.195   5.347 -0.5446  0.0564 -0.2568
10868SOL    HW133503   5.249   6.241   5.400 -2.2844 -1.3117 -1.2424
10868SOL    HW233504   5.306   6.215   5.250  0.3653 -0.3036 -0.4634
10869NA      NA33505   1.002   1.756   5.723  0.6571  0.1678 -0.3309
10870NA      NA33506   5.422   3.892   3.982 -0.1882  0.4579  0.3893
10871NA      NA33507   0.596   4.646   3.225  0.0362  0.3283 -0.1276
10872NA      NA33508   6.157   3.272   2.617  0.3103 -0.4946 -0.3411
10873NA      NA33509   4.335   2.445   5.326  0.0060 -0.1924  0.0265
10874NA      NA33510   2.569   3.763   6.979 -0.1615 -0.1057 -0.0864
10875NA      NA33511   1.248   5.948   6.709 -0.1430  0.6191 -0.3397
10876NA      NA33512   3.978   4.991   1.159 -0.5108  0.4890 -0.0557
10877NA      NA33513   4.540   4.343   1.733  0.3741  0.0792  0.1830
10878NA      NA33514   3.561   1.663   1.252  0.5747 -0.6221  0.0515
10879NA      NA33515   5.044   6.306   0.676 -0.0790 -0.6635 -0.9146
10880NA      NA33516   1.914   5.516   4.738  0.5484  0.2834 -0.9143
10881NA      NA33517   2.096   4.760   2.572  0.0510 -0.0992 -0.3765
10882NA      NA33518   4.135   5.949   5.779  0.2262 -0.4428  0.1029
   7.02540   7.02540   7.02540
