CNT in water
33518
    1C        C    1   2.847   2.773   4.749 -0.4279 -0.1101  0.1543
    1C        C    2   2.901   2.724   4.870  0.2760  0.3408  0.0369
    1C        C    3   2.843   2.775   4.987  0.1396 -0.2401  0.2271
    1C        C    4   2.850   2.772   4.263  0.5461  0.4113 -0.0676
    1C        C    5   2.903   2.726   4.386 -0.0620 -0.0498  0.0324
    1C        C    6   2.850   2.777   4.506 -0.5745 -0.1578 -0.1396
    1C        C    7   3.017   2.647   4.627 -0.3702  0.0075 -0.0215
    1C        C    8   2.897   2.722   4.627  0.0094  0.6363  0.0085
    1C        C    9   3.082   2.612   4.747  0.1758  0.8683 -0.0492
    1C        C   10   3.013   2.638   4.867  0.2839  0.3444  0.1339
    1C        C   11   3.183   2.498   4.980 -0.1619 -0.3520  0.2449
    1C        C   12   3.063   2.570   4.979  0.0844  0.0587  0.0524
    1C        C   13   2.854   2.772   3.770  0.0640  0.5383 -0.0865
    1C        C   14   2.900   2.723   3.894  0.3241  0.5198 -0.1854
    1C        C   15   2.850   2.772   4.017  0.4001  0.4371 -0.1137
    1C        C   16   3.017   2.645   4.136 -0.1007 -0.2510  0.0426
    1C        C   17   2.902   2.726   4.140  0.0648  0.0006 -0.1276
    1C        C   18   3.077   2.610   4.259 -0.0621 -0.1681  0.0542
    1C        C   19   3.017   2.643   4.382  0.3933  0.5584  0.0916
    1C        C   20   3.209   2.554   4.504  0.2447  0.4977  0.1534
    1C        C   21   3.079   2.611   4.505  0.1425  0.2766  0.1516
    1C        C   22   3.277   2.526   4.625  0.2427  0.6257  0.1887
    1C        C   23   3.210   2.549   4.747  0.2505  1.0136  0.1234
    1C        C   24   3.414   2.490   4.866 -0.4029 -0.3135 -0.0931
    1C        C   25   3.272   2.510   4.868 -0.3411  0.1248  0.1498
    1C        C   26   3.488   2.480   4.984 -0.1660  0.6506 -0.1535
    1C        C   27   2.855   2.774   3.283 -0.1291 -0.0737  0.3638
    1C        C   28   2.908   2.729   3.405 -0.0228 -0.5201  0.1570
    1C        C   29   2.852   2.772   3.528 -0.0098 -0.1152  0.0248
    1C        C   30   3.015   2.634   3.648 -0.0710 -0.0359 -0.1489
    1C        C   31   2.904   2.721   3.649 -0.0761 -0.0369  0.0899
    1C        C   32   3.075   2.600   3.771 -0.2812 -0.4664 -0.1610
    1C        C   33   3.015   2.641   3.893  0.0612  0.1391 -0.1874
    1C        C   34   3.210   2.558   4.016 -0.3282 -0.2681  0.2171
    1C        C   35   3.077   2.606   4.015 -0.2995 -0.1808 -0.0853
    1C        C   36   3.275   2.533   4.139 -0.1104  0.6020  0.2859
    1C        C   37   3.207   2.554   4.261 -0.1138 -0.2889  0.4474
    1C        C   38   3.413   2.497   4.380  0.1083 -0.6974 -0.1027
    1C        C   39   3.276   2.532   4.382  0.2272 -0.2404  0.2682
    1C        C   40   3.487   2.494   4.500 -0.1519  0.4878  0.1017
    1C        C   41   3.416   2.499   4.622  0.2239  0.5020  0.3259
    1C        C   42   3.629   2.492   4.741  0.2626 -0.2521 -0.4717
    1C        C   43   3.487   2.492   4.744  0.2623  0.4770  0.3042
    1C        C   44   3.703   2.483   4.861 -0.2722 -0.5630 -0.1610
    1C        C   45   3.626   2.465   4.977 -0.2782 -0.4364 -0.1451
    1C        C   46   2.839   2.755   2.793  0.0938  0.0424  0.0765
    1C        C   47   2.892   2.711   2.915  0.2690  0.2108  0.0617
    1C        C   48   2.852   2.771   3.037  0.5808  0.1408  0.2027
    1C        C   49   3.024   2.649   3.161 -0.0677 -0.1810 -0.1207
    1C        C   50   2.908   2.730   3.160  0.1925  0.2010  0.4036
    1C        C   51   3.081   2.604   3.282  0.0442  0.1245 -0.0590
    1C        C   52   3.020   2.643   3.403  0.3780 -0.0058  0.1532
    1C        C   53   3.208   2.548   3.525  0.2897 -0.2366  0.2286
    1C        C   54   3.076   2.600   3.525  0.2262 -0.3893  0.0913
    1C        C   55   3.274   2.525   3.648 -0.1436 -0.0740  0.4981
    1C        C   56   3.205   2.546   3.770  0.0886  0.3775  0.5566
    1C        C   57   3.414   2.512   3.893  0.2358 -0.3488  0.1831
    1C        C   58   3.274   2.534   3.893  0.3463  0.4342  0.4234
    1C        C   59   3.484   2.501   4.015  0.1483 -0.2988  0.2418
    1C        C   60   3.414   2.508   4.138 -0.0886  0.7068  0.0607
    1C        C   61   3.625   2.505   4.256 -0.0646 -0.0059 -0.0434
    1C        C   62   3.485   2.493   4.259  0.0009 -0.9303 -0.1640
    1C        C   63   3.698   2.518   4.376 -0.3530  0.3344  0.0964
    1C        C   64   3.628   2.504   4.498 -0.0315 -0.8990  0.1551
    1C        C   65   3.837   2.538   4.620  0.7821 -0.4305  0.1074
    1C        C   66   3.700   2.504   4.619  0.6341  0.1509 -0.2227
    1C        C   67   3.904   2.557   4.742  0.1017 -0.0950  0.4354
    1C        C   68   3.839   2.522   4.862 -0.4319 -0.0092  0.1731
    1C        C   69   4.050   2.587   4.976 -0.3577 -0.3994 -0.2858
    1C        C   70   3.923   2.527   4.974 -0.3143 -0.5108  0.1088
    1C        C   71   2.821   2.730   2.310  0.7193  0.1848  0.2107
    1C        C   72   2.879   2.690   2.433  0.7664  0.0740  0.1532
    1C        C   73   2.826   2.744   2.552  0.2574  0.2210 -0.1320
    1C        C   74   3.008   2.627   2.674 -0.3576 -0.3920  0.0489
    1C        C   75   2.891   2.705   2.672  0.0405  0.2100 -0.0173
    1C        C   76   3.069   2.593   2.797 -0.0781 -0.0204  0.0124
    1C        C   77   3.006   2.628   2.918 -0.0436 -0.2194  0.0883
    1C        C   78   3.204   2.542   3.038  0.1004 -0.2582 -0.0368
    1C        C   79   3.077   2.603   3.038 -0.0114 -0.4882  0.0157
    1C        C   80   3.274   2.524   3.159 -0.0311 -0.2095  0.0465
    1C        C   81   3.208   2.543   3.283  0.3837  0.8209  0.1212
    1C        C   82   3.416   2.505   3.402  0.1321 -0.3687 -0.2015
    1C        C   83   3.276   2.523   3.405  0.1882  0.0405  0.1088
    1C        C   84   3.484   2.499   3.526 -0.2020 -0.6707 -0.0332
    1C        C   85   3.414   2.510   3.648 -0.1537 -0.2103 -0.0427
    1C        C   86   3.624   2.496   3.768 -0.1141  0.0268  0.1635
    1C        C   87   3.484   2.506   3.771 -0.1103  0.1801 -0.0493
    1C        C   88   3.694   2.509   3.890  0.2630 -0.9668  0.0670
    1C        C   89   3.625   2.504   4.014  0.1486 -0.3222  0.0331
    1C        C   90   3.833   2.552   4.135  0.0769 -0.2602 -0.1116
    1C        C   91   3.697   2.513   4.135  0.1491 -0.5143  0.0474
    1C        C   92   3.903   2.575   4.256 -0.0869 -0.5695  0.0421
    1C        C   93   3.834   2.554   4.378 -0.1394 -0.4487  0.0327
    1C        C   94   4.029   2.635   4.495  0.0106 -0.0136 -0.3727
    1C        C   95   3.904   2.569   4.499  0.2876 -0.5292 -0.1993
    1C        C   96   4.086   2.674   4.619 -0.0670 -0.4062 -0.2131
    1C        C   97   4.028   2.626   4.738  0.2010 -0.2950 -0.0387
    1C        C   98   4.188   2.766   4.862 -0.0688 -0.0467 -0.2532
    1C        C   99   4.089   2.663   4.861  0.1250 -0.2383 -0.0177
    1C        C  100   4.218   2.839   4.978  0.0095 -0.3478 -0.0840
    1C        C  101   2.822   2.728   2.073  0.3393  0.4849 -0.2699
    1C        C  102   2.987   2.584   2.190 -0.2604 -0.0530 -0.1589
    1C        C  103   2.875   2.675   2.191  0.2173  0.5434 -0.1882
    1C        C  104   3.059   2.570   2.312  0.0403  0.2919 -0.2943
    1C        C  105   2.999   2.616   2.432  0.5833 -0.2249  0.1807
    1C        C  106   3.201   2.543   2.551  0.0972 -0.3590  0.3409
    1C        C  107   3.067   2.587   2.552 -0.2179 -1.2969  0.3993
    1C        C  108   3.269   2.524   2.674  0.2581  0.3258  0.3636
    1C        C  109   3.200   2.541   2.796  0.0033  0.1737  0.2429
    1C        C  110   3.412   2.503   2.914  0.1786 -0.3326 -0.0279
    1C        C  111   3.272   2.522   2.916  0.1333 -0.6553  0.0454
    1C        C  112   3.484   2.495   3.035  0.0835 -0.2786  0.0312
    1C        C  113   3.414   2.507   3.157  0.0144  0.1673 -0.0525
    1C        C  114   3.627   2.501   3.280  0.2564  0.0819 -0.0199
    1C        C  115   3.485   2.501   3.279  0.2554  0.5338 -0.1727
    1C        C  116   3.695   2.513   3.403 -0.0471 -0.2588  0.1798
    1C        C  117   3.625   2.506   3.525 -0.2301  0.0274  0.0925
    1C        C  118   3.832   2.547   3.647 -0.2336  0.2030 -0.0559
    1C        C  119   3.696   2.510   3.647 -0.2752  0.3568  0.1063
    1C        C  120   3.898   2.571   3.770 -0.2634  0.2355 -0.0472
    1C        C  121   3.830   2.546   3.891  0.1269 -0.4471  0.0287
    1C        C  122   4.022   2.641   4.010  0.0565  0.2000 -0.6996
    1C        C  123   3.898   2.572   4.012  0.0005  0.3094 -0.0624
    1C        C  124   4.088   2.677   4.130 -0.4474 -0.1148 -0.3247
    1C        C  125   4.026   2.644   4.252 -0.3815 -0.0602 -0.2794
    1C        C  126   4.198   2.767   4.378 -0.1125 -0.0138  0.3780
    1C        C  127   4.087   2.679   4.375 -0.1960  0.1174 -0.4249
    1C        C  128   4.252   2.813   4.500  0.3856 -0.7085  0.4196
    1C        C  129   4.196   2.763   4.620  0.0826 -0.5935  0.3256
    1C        C  130   4.332   2.928   4.741  0.7151 -0.2351 -0.0470
    1C        C  131   4.243   2.817   4.741  0.0884  0.2581 -0.0540
    1C        C  132   4.363   2.994   4.863 -0.1892 -0.5776  0.3826
    1C        C  133   4.295   2.954   4.978 -0.7952  0.2011  0.3040
    1C        C  134   3.175   2.466   2.084  0.0524 -0.2672  0.0506
    1C        C  135   3.039   2.502   2.086  0.0472 -0.2942  0.1814
    1C        C  136   3.258   2.479   2.195 -0.1230  0.1888  0.1326
    1C        C  137   3.192   2.521   2.313 -0.2273 -0.4549  0.3120
    1C        C  138   3.406   2.485   2.431 -0.0608 -0.2659 -0.4716
    1C        C  139   3.267   2.508   2.432 -0.0713 -0.3083  0.2320
    1C        C  140   3.480   2.489   2.552 -0.1585 -0.6468 -0.3951
    1C        C  141   3.409   2.506   2.672  0.1381 -0.6492 -0.2183
    1C        C  142   3.625   2.504   2.790  0.0234  0.5688  0.0064
    1C        C  143   3.484   2.499   2.792  0.0446 -0.0361 -0.1166
    1C        C  144   3.690   2.516   2.914 -0.2296  0.0188  0.1951
    1C        C  145   3.625   2.500   3.038  0.0715 -0.1612  0.3283
    1C        C  146   3.836   2.540   3.157  0.4214  0.2567 -0.3616
    1C        C  147   3.699   2.507   3.158  0.4197  0.2840  0.0887
    1C        C  148   3.902   2.563   3.280 -0.0913  0.6843 -0.1625
    1C        C  149   3.832   2.545   3.401 -0.2281  0.4882 -0.2723
    1C        C  150   4.027   2.625   3.522 -0.3502 -0.0464  0.1330
    1C        C  151   3.898   2.567   3.524 -0.1606 -0.4802 -0.1309
    1C        C  152   4.082   2.668   3.645 -0.0032  0.2540 -0.1272
    1C        C  153   4.021   2.640   3.769  0.2175 -0.6131 -0.2069
    1C        C  154   4.198   2.762   3.886  0.0546  0.7171  0.2912
    1C        C  155   4.085   2.677   3.890  0.2559  0.4107 -0.5314
    1C        C  156   4.243   2.816   4.008  0.0059 -0.2214  0.7319
    1C        C  157   4.195   2.769   4.132 -0.9616  0.4778  0.6328
    1C        C  158   4.339   2.922   4.253 -0.3999  0.4125 -0.3550
    1C        C  159   4.247   2.815   4.255 -0.4751  0.4838  0.4244
    1C        C  160   4.380   2.981   4.375  0.3862 -0.5377 -0.1494
    1C        C  161   4.337   2.926   4.497 -0.2563 -0.2321 -0.2341
    1C        C  162   4.441   3.110   4.613 -0.1436 -0.1370  0.2122
    1C        C  163   4.370   2.988   4.619 -0.3000 -0.0790 -0.2998
    1C        C  164   4.467   3.179   4.733 -0.3636  0.1193  0.1161
    1C        C  165   4.434   3.116   4.855 -0.0551 -0.6889 -0.2118
    1C        C  166   4.523   3.317   4.967  0.2405  0.3015  0.4688
    1C        C  167   4.482   3.184   4.967 -0.3328  0.4591 -0.7778
    1C        C  168   3.473   2.428   2.077  0.0538 -0.2921  0.1774
    1C        C  169   3.398   2.466   2.189 -0.1403  0.0899 -0.0757
    1C        C  170   3.616   2.472   2.305  0.2372  0.1334 -0.2126
    1C        C  171   3.474   2.471   2.308  0.2356 -0.4876 -0.2853
    1C        C  172   3.692   2.480   2.424  0.2766 -0.1503 -0.2169
    1C        C  173   3.621   2.482   2.546 -0.1330 -0.1497 -0.4560
    1C        C  174   3.828   2.539   2.666 -0.3990 -0.0141 -0.1279
    1C        C  175   3.693   2.500   2.666 -0.5426  0.4844 -0.3036
    1C        C  176   3.895   2.561   2.788 -0.0739 -0.3590 -0.2402
    1C        C  177   3.829   2.541   2.911 -0.2347 -0.0131 -0.2691
    1C        C  178   4.025   2.622   3.033 -0.0926  0.5212 -0.0606
    1C        C  179   3.899   2.559   3.032  0.2120 -0.0847 -0.5167
    1C        C  180   4.086   2.656   3.156  0.1186 -0.5202  0.1272
    1C        C  181   4.033   2.618   3.281  0.1401  0.1238  0.3335
    1C        C  182   4.199   2.752   3.400 -0.0443  0.2064 -0.3878
    1C        C  183   4.093   2.659   3.402 -0.0145  0.1843  0.3848
    1C        C  184   4.250   2.801   3.523 -0.5003  0.0144 -0.1286
    1C        C  185   4.190   2.758   3.644 -0.2300  0.5262  0.1821
    1C        C  186   4.334   2.920   3.763 -0.4991  0.7805  0.0126
    1C        C  187   4.248   2.808   3.762 -0.1469  0.5172  0.1392
    1C        C  188   4.380   2.976   3.884 -0.4526  0.5081  0.1141
    1C        C  189   4.336   2.922   4.007 -0.4115  0.1425 -0.0365
    1C        C  190   4.442   3.105   4.126 -0.0293  0.3973  0.0380
    1C        C  191   4.374   2.981   4.130 -0.2936  0.5349 -0.2638
    1C        C  192   4.471   3.172   4.247  0.0331 -0.3156  0.4166
    1C        C  193   4.442   3.108   4.369 -0.1015 -0.2760  0.4034
    1C        C  194   4.509   3.311   4.488 -0.5137  0.0877  0.1939
    1C        C  195   4.466   3.177   4.490  0.0613 -0.1014  0.2729
    1C        C  196   4.523   3.384   4.609 -0.1669  0.0428  0.1847
    1C        C  197   4.509   3.315   4.731  0.0547 -0.0041  0.1856
    1C        C  198   4.549   3.534   4.846 -0.1499 -0.0070 -0.2894
    1C        C  199   4.531   3.392   4.848 -0.3445  0.0228  0.2467
    1C        C  200   4.586   3.618   4.955  0.0469 -0.3461 -0.0921
    1C        C  201   3.613   2.418   2.072  0.0599 -0.0602 -0.2001
    1C        C  202   3.828   2.500   2.184  0.2843 -0.3767 -0.0120
    1C        C  203   3.691   2.460   2.185  0.0146  0.5365 -0.3895
    1C        C  204   3.902   2.532   2.302  0.2518  0.0341 -0.1027
    1C        C  205   3.828   2.519   2.421  0.1264  0.3829 -0.1423
    1C        C  206   4.020   2.617   2.544 -0.1211  0.2050  0.2694
    1C        C  207   3.894   2.553   2.541 -0.1368  0.2457  0.0419
    1C        C  208   4.080   2.659   2.665  0.4973 -0.2110  0.1154
    1C        C  209   4.020   2.627   2.789 -0.1065 -0.2974 -0.1930
    1C        C  210   4.202   2.739   2.910  0.1928 -0.5689  0.1917
    1C        C  211   4.084   2.661   2.910  0.3824 -0.8618 -0.2881
    1C        C  212   4.247   2.793   3.032 -0.5069  0.3224  0.0639
    1C        C  213   4.193   2.748   3.154 -0.3648  0.0442  0.0193
    1C        C  214   4.338   2.905   3.272 -0.0930  0.4151 -0.3753
    1C        C  215   4.248   2.796   3.275  0.2311  0.1542 -0.2943
    1C        C  216   4.369   2.971   3.393 -0.1806 -0.2174 -0.0104
    1C        C  217   4.336   2.912   3.517 -0.1399 -0.2692 -0.0334
    1C        C  218   4.431   3.101   3.639 -0.7475  0.2947 -0.0673
    1C        C  219   4.376   2.971   3.638 -0.2609  0.0988 -0.1817
    1C        C  220   4.460   3.168   3.760 -0.1177  0.2051 -0.1786
    1C        C  221   4.441   3.104   3.884 -0.0061  0.2885 -0.1262
    1C        C  222   4.506   3.308   4.001  0.6397 -0.0413 -0.0628
    1C        C  223   4.469   3.172   4.004  0.2874  0.0587 -0.0723
    1C        C  224   4.514   3.378   4.123  0.7910 -0.2874  0.0645
    1C        C  225   4.504   3.309   4.246  0.2005 -0.3598 -0.0263
    1C        C  226   4.512   3.523   4.363 -0.6227 -0.2882 -0.4173
    1C        C  227   4.516   3.381   4.366 -0.4424 -0.2728 -0.0102
    1C        C  228   4.512   3.595   4.484 -0.3960 -0.7262 -0.1533
    1C        C  229   4.529   3.525   4.606  0.6591  0.0102  0.1386
    1C        C  230   4.501   3.742   4.723 -0.2346  0.3499 -0.2444
    1C        C  231   4.535   3.604   4.723 -0.0381  0.3965 -0.0771
    1C        C  232   4.499   3.821   4.840  0.3468  0.0348 -0.0173
    1C        C  233   4.543   3.751   4.954  0.2031 -0.2956 -0.1592
    1C        C  234   4.017   2.609   2.066  0.1302 -0.2186 -0.1515
    1C        C  235   3.895   2.544   2.069  0.0321 -0.0306 -0.0264
    1C        C  236   4.088   2.643   2.183 -0.3951  0.6600 -0.0786
    1C        C  237   4.026   2.601   2.303  0.0980  0.3106  0.0538
    1C        C  238   4.200   2.731   2.425  0.0797 -0.1701 -0.2272
    1C        C  239   4.083   2.651   2.422 -0.2106  0.2357  0.2323
    1C        C  240   4.254   2.784   2.545 -0.1763  0.1212 -0.2416
    1C        C  241   4.196   2.739   2.666  0.2061  0.2128 -0.0234
    1C        C  242   4.340   2.897   2.785 -0.4674  0.2969 -0.1007
    1C        C  243   4.252   2.786   2.786 -0.4387  0.2772  0.2552
    1C        C  244   4.374   2.960   2.907 -0.2795  0.1521 -0.0799
    1C        C  245   4.334   2.905   3.030  0.0014 -0.0741 -0.0927
    1C        C  246   4.442   3.088   3.149 -0.0929  0.3588 -0.4704
    1C        C  247   4.385   2.959   3.150  0.2368  0.2192 -0.3291
    1C        C  248   4.458   3.161   3.269  0.1676 -0.3259 -0.0884
    1C        C  249   4.435   3.096   3.392 -0.3491 -0.1362 -0.0901
    1C        C  250   4.496   3.299   3.513  0.0444 -0.1486 -0.0724
    1C        C  251   4.456   3.163   3.514 -0.7063  0.0776 -0.1567
    1C        C  252   4.505   3.373   3.632  0.6219  0.0047 -0.2200
    1C        C  253   4.497   3.304   3.756  1.1480 -0.1362 -0.2705
    1C        C  254   4.516   3.516   3.875  0.1391 -0.1538 -0.0129
    1C        C  255   4.512   3.375   3.877  0.1313 -0.1507 -0.1410
    1C        C  256   4.515   3.588   3.996  0.2810  0.0333 -0.1255
    1C        C  257   4.520   3.519   4.120  0.4812 -0.2846 -0.3114
    1C        C  258   4.479   3.730   4.237  0.8319 -0.0437  0.2277
    1C        C  259   4.514   3.593   4.240  0.2437 -0.2142 -0.3661
    1C        C  260   4.453   3.798   4.358 -0.6037  0.0712 -0.1219
    1C        C  261   4.476   3.731   4.481 -0.6719 -0.8055 -0.5763
    1C        C  262   4.420   3.937   4.602  0.1330 -0.3903 -0.0813
    1C        C  263   4.466   3.804   4.601 -0.3569 -0.5660 -0.6905
    1C        C  264   4.405   4.013   4.721 -0.4404 -0.5273 -0.0544
    1C        C  265   4.440   3.949   4.842 -0.3381 -0.2762  0.0533
    1C        C  266   4.323   4.132   4.954 -0.5048 -0.4858 -0.2910
    1C        C  267   4.399   4.016   4.958 -0.3205 -0.3590  0.1096
    1C        C  268   4.264   2.773   2.065  0.3606  0.3472 -0.0291
    1C        C  269   4.196   2.733   2.181  0.0080  0.1759 -0.2904
    1C        C  270   4.341   2.890   2.301 -0.0791  0.0829 -0.0344
    1C        C  271   4.249   2.782   2.303 -0.2360  0.2128 -0.1978
    1C        C  272   4.388   2.947   2.422 -0.7648  0.5244  0.0301
    1C        C  273   4.346   2.890   2.544  0.0213 -0.0500  0.0346
    1C        C  274   4.444   3.083   2.663 -0.1167  0.1775 -0.3818
    1C        C  275   4.383   2.956   2.664 -0.2430  0.2436 -0.0460
    1C        C  276   4.470   3.150   2.784  0.1296  0.1040 -0.3981
    1C        C  277   4.442   3.084   2.906  0.1236 -0.0713 -0.4977
    1C        C  278   4.509   3.287   3.028 -0.1586  0.0432 -0.0453
    1C        C  279   4.475   3.150   3.027  0.3915 -0.0894 -0.5654
    1C        C  280   4.518   3.361   3.148 -0.1144 -0.0991  0.0353
    1C        C  281   4.499   3.296   3.272  0.8748 -0.5432 -0.0437
    1C        C  282   4.518   3.511   3.386  0.3100 -0.2994 -0.0015
    1C        C  283   4.509   3.370   3.392  0.0825 -0.2858 -0.1411
    1C        C  284   4.513   3.583   3.507  0.5761 -0.3216  0.0185
    1C        C  285   4.510   3.514   3.631  0.9867 -0.0060  0.2007
    1C        C  286   4.475   3.724   3.753  0.6389  0.1154  0.1996
    1C        C  287   4.506   3.586   3.752  0.6828  0.1295  0.1062
    1C        C  288   4.465   3.794   3.875  0.2980 -0.0126  0.2449
    1C        C  289   4.493   3.727   3.996  0.0673  0.0019  0.3052
    1C        C  290   4.432   3.936   4.113 -0.2360 -0.0895 -0.0873
    1C        C  291   4.470   3.800   4.115  0.0947  0.0049  0.3079
    1C        C  292   4.402   4.004   4.232 -0.8436 -0.2738 -0.1301
    1C        C  293   4.419   3.935   4.354  0.1259  0.2686  0.0564
    1C        C  294   4.326   4.123   4.476  0.2170  0.1323  0.1507
    1C        C  295   4.391   3.998   4.477  0.3651  0.2045  0.1471
    1C        C  296   4.288   4.187   4.596  0.0007  0.2503  0.0247
    1C        C  297   4.331   4.134   4.720  0.2795 -0.0750 -0.2050
    1C        C  298   4.203   4.316   4.836 -0.0673  0.0363  0.1636
    1C        C  299   4.292   4.203   4.838 -0.7948 -0.5582 -0.2608
    1C        C  300   4.166   4.401   4.945 -0.0295  0.2401  0.0212
    1C        C  301   4.343   2.887   2.065  0.0642  0.5563 -0.4439
    1C        C  302   4.469   3.068   2.178  0.2041 -0.2555  0.1000
    1C        C  303   4.390   2.949   2.181  0.5196 -0.4701 -0.0653
    1C        C  304   4.472   3.143   2.299 -0.9702  0.1873 -0.1363
    1C        C  305   4.450   3.073   2.419 -0.0478  0.1703  0.0213
    1C        C  306   4.504   3.282   2.536 -0.0302  0.4690  0.0835
    1C        C  307   4.474   3.144   2.539  0.2467  0.4044 -0.1774
    1C        C  308   4.507   3.355   2.657 -0.3378  0.4861  0.0781
    1C        C  309   4.502   3.287   2.781  0.5696  0.0041 -0.1459
    1C        C  310   4.524   3.495   2.900  0.0788 -0.0272 -0.1257
    1C        C  311   4.518   3.354   2.904  0.0167 -0.0203 -0.0628
    1C        C  312   4.516   3.572   3.018 -0.3593 -0.2895  0.0131
    1C        C  313   4.518   3.502   3.141 -0.1456 -0.0986  0.1155
    1C        C  314   4.481   3.715   3.261 -0.0878 -0.1509  0.3215
    1C        C  315   4.509   3.576   3.261  0.4935 -0.0367  0.1257
    1C        C  316   4.468   3.784   3.383 -0.1093 -0.1218  0.3017
    1C        C  317   4.485   3.722   3.508  0.5892 -0.3223  0.1109
    1C        C  318   4.419   3.924   3.624 -0.5718 -0.4700 -0.1040
    1C        C  319   4.467   3.791   3.630 -0.2078 -0.3333  0.0040
    1C        C  320   4.393   3.991   3.746 -0.5483 -0.2757 -0.2072
    1C        C  321   4.419   3.928   3.869 -0.2404 -0.2150 -0.2404
    1C        C  322   4.319   4.113   3.987 -0.4780 -0.4078  0.0512
    1C        C  323   4.401   3.998   3.990 -0.3810 -0.3468 -0.1846
    1C        C  324   4.273   4.168   4.109  0.1361  0.3742 -0.0578
    1C        C  325   4.327   4.124   4.232  0.0544  0.2973 -0.0460
    1C        C  326   4.193   4.287   4.352  0.1342  0.0604 -0.1285
    1C        C  327   4.287   4.182   4.354 -0.0718 -0.1245  0.1170
    1C        C  328   4.137   4.336   4.473  0.1473 -0.0388 -0.0807
    1C        C  329   4.194   4.292   4.594 -0.5942 -0.2697  0.1919
    1C        C  330   4.021   4.425   4.713 -0.5873 -0.4678 -0.0566
    1C        C  331   4.137   4.342   4.713 -0.2722 -0.0386  0.2553
    1C        C  332   3.967   4.486   4.828 -0.1317 -0.3540  0.0998
    1C        C  333   4.049   4.477   4.942 -0.6501 -0.6775  0.4504
    1C        C  334   4.547   3.267   2.065  0.0915  0.1926 -0.0299
    1C        C  335   4.536   3.127   2.066 -0.2443  0.2189  0.0792
    1C        C  336   4.538   3.350   2.178  0.2629  0.0252  0.1051
    1C        C  337   4.508   3.281   2.297 -0.2749  0.0081 -0.0406
    1C        C  338   4.518   3.498   2.412  0.4651  0.1386  0.1327
    1C        C  339   4.513   3.357   2.416 -0.3607  0.1560 -0.1350
    1C        C  340   4.511   3.567   2.535  0.8127  0.2879  0.0670
    1C        C  341   4.508   3.496   2.657 -0.5781  0.4850  0.1583
    1C        C  342   4.487   3.706   2.773  0.1823  0.4756 -0.3537
    1C        C  343   4.514   3.567   2.779 -0.1353  0.4338  0.1646
    1C        C  344   4.462   3.774   2.894  0.5062 -0.2013  0.0965
    1C        C  345   4.483   3.709   3.018 -0.1639 -0.2426  0.1910
    1C        C  346   4.415   3.914   3.137  1.0474  0.1255 -0.2559
    1C        C  347   4.463   3.781   3.138 -0.1262 -0.3120  0.2396
    1C        C  348   4.389   3.979   3.259  0.0357 -0.1673 -0.2987
    1C        C  349   4.424   3.918   3.382 -0.4609 -0.2393 -0.1928
    1C        C  350   4.317   4.107   3.500 -0.5770 -0.4968  0.0620
    1C        C  351   4.391   3.987   3.501 -0.3080 -0.3351 -0.0953
    1C        C  352   4.273   4.165   3.621 -0.5426 -0.1265 -0.0990
    1C        C  353   4.319   4.111   3.743 -0.4505 -0.2137 -0.1707
    1C        C  354   4.175   4.267   3.863 -0.2797 -0.5155  0.0665
    1C        C  355   4.276   4.169   3.864  0.1933 -0.0393 -0.0206
    1C        C  356   4.123   4.313   3.986 -0.1247 -0.2477  0.0360
    1C        C  357   4.180   4.274   4.109 -0.6700 -0.3078  0.2787
    1C        C  358   4.017   4.406   4.231 -0.6040 -0.1097  0.1829
    1C        C  359   4.134   4.329   4.230 -0.4073  0.1814  0.1651
    1C        C  360   3.953   4.447   4.350 -0.2286  0.5682  0.1607
    1C        C  361   4.016   4.409   4.471  0.0496 -0.1982 -0.2189
    1C        C  362   3.829   4.513   4.590 -0.1946 -0.3424 -0.1181
    1C        C  363   3.957   4.453   4.591 -0.3427 -0.6669 -0.2328
    1C        C  364   3.762   4.547   4.709  0.1927  0.0617 -0.0137
    1C        C  365   3.838   4.542   4.829  0.1102  0.2200  0.0448
    1C        C  366   3.629   4.586   4.953 -0.1087 -0.6034  0.5047
    1C        C  367   3.766   4.567   4.947  0.0230  0.4266 -0.0508
    1C        C  368   4.510   3.563   2.053  0.2131 -0.1408 -0.3563
    1C        C  369   4.532   3.490   2.171 -0.1560 -0.0070 -0.2031
    1C        C  370   4.502   3.707   2.288  0.5979 -0.0593 -0.1712
    1C        C  371   4.521   3.567   2.289 -0.4924 -0.2148 -0.0990
    1C        C  372   4.486   3.780   2.408  0.1186  0.0945 -0.3257
    1C        C  373   4.495   3.708   2.529 -0.0199  0.1832 -0.2620
    1C        C  374   4.429   3.909   2.648  0.0664  0.3526  0.1467
    1C        C  375   4.479   3.777   2.651  0.4736  0.4904 -0.3663
    1C        C  376   4.393   3.972   2.769 -0.2117 -0.0334  0.2684
    1C        C  377   4.420   3.908   2.892  0.0910 -0.3313  0.0503
    1C        C  378   4.307   4.089   3.012 -0.1911 -0.3882  0.0947
    1C        C  379   4.391   3.976   3.012  0.7074  0.2611 -0.1260
    1C        C  380   4.270   4.150   3.134  0.2437 -0.1748  0.1227
    1C        C  381   4.319   4.102   3.257  0.0425 -0.1512  0.2129
    1C        C  382   4.167   4.254   3.376 -0.9938 -0.7946  0.1246
    1C        C  383   4.272   4.160   3.377 -0.8339 -0.6204  0.1027
    1C        C  384   4.115   4.303   3.498 -0.6272 -0.4143  0.1308
    1C        C  385   4.171   4.263   3.621 -0.6280 -0.2121  0.2017
    1C        C  386   4.004   4.394   3.741 -1.0246 -0.8552  0.0916
    1C        C  387   4.121   4.316   3.742 -0.8437 -0.5898  0.2821
    1C        C  388   3.940   4.421   3.864 -0.5068 -0.5233  0.2947
    1C        C  389   4.002   4.386   3.986 -0.0176 -0.0638  0.1883
    1C        C  390   3.818   4.485   4.110 -0.3489 -0.0341 -0.0897
    1C        C  391   3.946   4.427   4.110 -0.4279 -0.2150  0.0600
    1C        C  392   3.751   4.522   4.228 -0.0919  0.2204 -0.0192
    1C        C  393   3.825   4.505   4.348 -0.3180  0.3745  0.1441
    1C        C  394   3.618   4.553   4.475 -0.4429  0.4780  0.2985
    1C        C  395   3.757   4.529   4.469 -0.5536 -0.1466  0.1205
    1C        C  396   3.547   4.561   4.596 -0.1919  0.7291  0.4295
    1C        C  397   3.621   4.553   4.716  0.1542 -0.8016  0.1318
    1C        C  398   3.412   4.545   4.840  0.2463  0.1181 -0.0017
    1C        C  399   3.552   4.563   4.838  0.2118  0.3893  0.0802
    1C        C  400   3.344   4.508   4.956 -0.1851 -0.0148 -0.2918
    1C        C  401   4.502   3.702   2.051  0.1127 -0.1352  0.1769
    1C        C  402   4.453   3.914   2.168  0.3705  0.2555  0.0725
    1C        C  403   4.497   3.780   2.167  0.0702  0.1568 -0.0187
    1C        C  404   4.416   3.981   2.286  0.4029  0.3248  0.0442
    1C        C  405   4.440   3.913   2.408 -0.2178 -0.0196 -0.0216
    1C        C  406   4.319   4.092   2.526 -0.6393 -0.4188 -0.0202
    1C        C  407   4.403   3.978   2.527  0.0972  0.1186  0.0034
    1C        C  408   4.274   4.147   2.647  0.0855 -0.0005  0.0583
    1C        C  409   4.315   4.090   2.770 -0.2745 -0.0722  0.1471
    1C        C  410   4.169   4.250   2.890 -0.8778 -0.7009  0.1805
    1C        C  411   4.266   4.146   2.889 -0.6643 -0.5052  0.1963
    1C        C  412   4.117   4.298   3.011 -0.2796 -0.0086  0.1764
    1C        C  413   4.173   4.252   3.133 -0.3274 -0.7152 -0.0620
    1C        C  414   4.003   4.383   3.254 -0.5605 -0.8778 -0.0829
    1C        C  415   4.120   4.305   3.253 -0.5695 -0.8994 -0.0824
    1C        C  416   3.938   4.418   3.374 -0.1624 -0.0308 -0.1056
    1C        C  417   3.999   4.383   3.497 -0.4724 -0.1841  0.0094
    1C        C  418   3.809   4.478   3.620 -0.1799  0.5700 -0.2555
    1C        C  419   3.939   4.424   3.618 -0.3168  0.2198 -0.0414
    1C        C  420   3.744   4.502   3.743 -0.2614  0.0416 -0.1893
    1C        C  421   3.811   4.476   3.865 -0.2587  0.0832 -0.1770
    1C        C  422   3.610   4.531   3.985 -0.2004  0.1290 -0.0039
    1C        C  423   3.749   4.505   3.988 -0.1899  0.1507 -0.1544
    1C        C  424   3.541   4.542   4.108 -0.1942 -0.7110  0.0781
    1C        C  425   3.611   4.543   4.231 -0.2924 -1.0391  0.1412
    1C        C  426   3.403   4.541   4.357 -0.2224  0.4783  0.4703
    1C        C  427   3.544   4.551   4.354 -0.1852 -0.0834  0.1428
    1C        C  428   3.333   4.542   4.479 -0.1676  0.9031  0.5008
    1C        C  429   3.406   4.552   4.600 -0.1624  0.3493  0.5422
    1C        C  430   3.194   4.520   4.722 -0.2671 -0.2438 -0.1038
    1C        C  431   3.334   4.545   4.722 -0.3918  0.4987  0.4143
    1C        C  432   3.124   4.494   4.843  0.0219 -0.0548  0.1066
    1C        C  433   3.206   4.490   4.956 -0.1632 -0.2025  0.2355
    1C        C  434   4.371   4.114   2.049 -0.1388 -0.1249 -0.0332
    1C        C  435   4.440   3.992   2.052  0.2410  0.0893 -0.0258
    1C        C  436   4.299   4.161   2.163  0.2647  0.4260  0.0024
    1C        C  437   4.329   4.093   2.285  0.4932  0.3937 -0.0711
    1C        C  438   4.177   4.249   2.402 -0.3258 -0.3543 -0.0187
    1C        C  439   4.273   4.146   2.403 -0.3066 -0.3377 -0.1097
    1C        C  440   4.125   4.296   2.524 -0.5461 -0.5007 -0.0562
    1C        C  441   4.177   4.250   2.647 -0.6461 -0.6889 -0.0847
    1C        C  442   4.003   4.378   2.766 -0.2382 -0.2914 -0.2160
    1C        C  443   4.117   4.296   2.767 -0.8128 -1.1057 -0.0027
    1C        C  444   3.939   4.412   2.888 -0.0816 -0.3737 -0.1093
    1C        C  445   4.002   4.380   3.010 -0.4858 -0.2924  0.1234
    1C        C  446   3.806   4.464   3.130 -0.3749  0.2866 -0.1870
    1C        C  447   3.938   4.414   3.132 -0.5885 -0.2906  0.0737
    1C        C  448   3.739   4.477   3.254  0.2146  0.3821  0.1320
    1C        C  449   3.806   4.467   3.378  0.0696  0.5988  0.2339
    1C        C  450   3.602   4.525   3.497 -0.5340  0.3512 -0.1569
    1C        C  451   3.740   4.499   3.499 -0.4594  0.7255 -0.0771
    1C        C  452   3.535   4.543   3.620 -0.2650  0.7042 -0.0544
    1C        C  453   3.606   4.533   3.742 -0.3371 -0.2674 -0.0762
    1C        C  454   3.396   4.546   3.863 -0.2015 -0.1464  0.2442
    1C        C  455   3.537   4.542   3.865 -0.1857  0.1330 -0.0164
    1C        C  456   3.331   4.534   3.988 -0.0002 -0.4278  0.3253
    1C        C  457   3.400   4.541   4.111 -0.2118  0.7226  0.3938
    1C        C  458   3.195   4.502   4.238 -0.1032  0.4387 -0.3727
    1C        C  459   3.332   4.535   4.235 -0.1733  0.8173  0.4214
    1C        C  460   3.129   4.486   4.362 -0.1473  0.7444 -0.3545
    1C        C  461   3.194   4.516   4.483 -0.0972  0.3796 -0.2907
    1C        C  462   2.996   4.432   4.598 -0.0656  0.1295 -0.0888
    1C        C  463   3.125   4.490   4.603 -0.0617  0.1390 -0.3230
    1C        C  464   2.931   4.401   4.720 -0.1459  0.1879 -0.1193
    1C        C  465   2.991   4.440   4.843  0.1103 -0.2660 -0.1016
    1C        C  466   2.789   4.344   4.956 -0.5829  0.5489 -0.1889
    1C        C  467   2.904   4.425   4.956  0.2746 -0.6550 -0.0302
    1C        C  468   4.116   4.276   2.040  0.2513  0.4961  0.0069
    1C        C  469   4.185   4.248   2.158 -0.1097 -0.0545  0.0887
    1C        C  470   4.006   4.371   2.281 -0.0338  0.3329 -0.4356
    1C        C  471   4.127   4.297   2.279 -0.3918 -0.2702  0.0399
    1C        C  472   3.945   4.403   2.404  0.1737  0.0315 -0.2520
    1C        C  473   4.006   4.372   2.527 -0.5610 -0.5258 -0.0234
    1C        C  474   3.812   4.472   2.642 -0.4070  0.0189 -0.3815
    1C        C  475   3.941   4.416   2.645 -0.6101 -0.4470 -0.0800
    1C        C  476   3.744   4.493   2.764  0.1368  0.1695 -0.1048
    1C        C  477   3.812   4.472   2.887  0.3454  0.5510 -0.1510
    1C        C  478   3.605   4.525   3.010  0.1393  1.3659  0.3078
    1C        C  479   3.743   4.495   3.008 -0.0864  0.2967 -0.3395
    1C        C  480   3.533   4.526   3.132 -0.0528  0.3502  0.2139
    1C        C  481   3.602   4.509   3.254  0.2674  0.6366  0.0815
    1C        C  482   3.389   4.531   3.376 -0.4094  0.0197  0.3943
    1C        C  483   3.530   4.522   3.375 -0.4269 -0.3208 -0.2100
    1C        C  484   3.319   4.535   3.498 -0.6203  0.0530  0.2789
    1C        C  485   3.394   4.546   3.618 -0.2954 -0.0883  0.0964
    1C        C  486   3.189   4.500   3.746 -0.2296  0.1171 -0.2712
    1C        C  487   3.326   4.535   3.741 -0.0921 -0.3268  0.1931
    1C        C  488   3.125   4.483   3.870 -0.2613  0.7898 -0.1893
    1C        C  489   3.195   4.499   3.992 -0.1180 -0.0417 -0.1501
    1C        C  490   3.001   4.418   4.114 -0.4791  0.5942  0.2998
    1C        C  491   3.128   4.480   4.115 -0.3914  0.4330 -0.2177
    1C        C  492   2.947   4.377   4.238  0.0542  0.0547  0.3626
    1C        C  493   3.004   4.421   4.360 -0.1339  0.6991  0.2216
    1C        C  494   2.825   4.301   4.480  0.1190 -0.1709 -0.1193
    1C        C  495   2.933   4.392   4.479 -0.4444  0.5025 -0.0112
    1C        C  496   2.775   4.254   4.604  0.6045 -0.3319  0.0169
    1C        C  497   2.821   4.311   4.724 -0.4855  0.6119  0.0018
    1C        C  498   2.667   4.160   4.844  0.4150 -0.3643  0.3064
    1C        C  499   2.754   4.271   4.842 -0.3844  0.2592 -0.0624
    1C        C  500   2.603   4.112   4.959 -0.1509  0.0057  0.1478
    1C        C  501   3.998   4.349   2.044  0.1096  0.2746 -0.1128
    1C        C  502   3.812   4.462   2.159 -0.1478  0.4261 -0.1883
    1C        C  503   3.940   4.403   2.160 -0.0705  0.5905 -0.3486
    1C        C  504   3.741   4.477   2.280  0.0441  0.0226 -0.0232
    1C        C  505   3.811   4.449   2.399  0.2020  0.1280 -0.0908
    1C        C  506   3.602   4.496   2.522 -0.3260  0.2590  0.2335
    1C        C  507   3.742   4.478   2.519 -0.3497  0.1420 -0.4082
    1C        C  508   3.531   4.509   2.643 -0.1664  0.0620  0.3500
    1C        C  509   3.605   4.516   2.763  0.0864 -0.0974  0.2081
    1C        C  510   3.396   4.519   2.886  0.2076  0.4916 -0.0089
    1C        C  511   3.537   4.525   2.887  0.2157  0.3656  0.2510
    1C        C  512   3.322   4.517   3.006  0.2070  0.0530 -0.0102
    1C        C  513   3.392   4.522   3.129 -0.0506  0.1290  0.1413
    1C        C  514   3.186   4.485   3.253  0.1218 -0.4784 -0.4851
    1C        C  515   3.324   4.516   3.252 -0.0598  0.4053  0.1546
    1C        C  516   3.119   4.466   3.376 -0.3183 -0.0046 -0.6425
    1C        C  517   3.184   4.495   3.498 -0.7484  0.4478 -0.5120
    1C        C  518   3.000   4.404   3.626 -0.2340  0.1154  0.2875
    1C        C  519   3.123   4.474   3.624 -0.1385 -0.0566 -0.2892
    1C        C  520   2.941   4.372   3.750 -0.2393 -0.1825  0.2135
    1C        C  521   3.000   4.418   3.870  0.2698 -0.2546 -0.0059
    1C        C  522   2.837   4.283   3.995  0.5471 -0.2133  0.2259
    1C        C  523   2.941   4.379   3.992  0.1869  0.1815  0.0969
    1C        C  524   2.790   4.233   4.118  0.3971 -0.5423  0.0354
    1C        C  525   2.846   4.279   4.239  0.5463 -0.4639 -0.0634
    1C        C  526   2.692   4.133   4.361  0.6141 -0.5299  0.0286
    1C        C  527   2.785   4.239   4.360  0.0756 -0.0583 -0.1620
    1C        C  528   2.646   4.080   4.484  0.8829 -0.1872  0.2788
    1C        C  529   2.682   4.147   4.603  0.4472 -0.1973  0.4176
    1C        C  530   2.591   3.956   4.728 -0.1989 -0.1177 -0.0280
    1C        C  531   2.645   4.087   4.726 -0.1556 -0.1318  0.2685
    1C        C  532   2.550   3.899   4.851 -0.1516 -0.0898 -0.0011
    1C        C  533   2.530   3.993   4.957  0.1628 -0.1887  0.1485
    1C        C  534   3.617   4.551   2.041 -0.0101 -0.1284 -0.0244
    1C        C  535   3.750   4.506   2.042 -0.0548 -0.2733 -0.5053
    1C        C  536   3.534   4.527   2.155 -0.0671  0.2812  0.0237
    1C        C  537   3.602   4.506   2.278  0.0502  0.0483 -0.0785
    1C        C  538   3.391   4.515   2.400  0.2118  0.4045 -0.2316
    1C        C  539   3.532   4.513   2.400  0.2191  0.7812 -0.0133
    1C        C  540   3.320   4.507   2.523  0.0839  0.3707 -0.3064
    1C        C  541   3.390   4.514   2.645 -0.1865 -0.2124 -0.1134
    1C        C  542   3.181   4.481   2.766  0.0167  0.7551 -0.5777
    1C        C  543   3.319   4.511   2.767  0.0907  0.4095  0.0673
    1C        C  544   3.114   4.462   2.889  0.1171  0.3709 -0.5782
    1C        C  545   3.185   4.485   3.009  0.0459  0.6548 -0.5852
    1C        C  546   2.989   4.408   3.136 -0.1815  0.6514 -0.0970
    1C        C  547   3.117   4.467   3.132  0.2608 -0.3066 -0.5943
    1C        C  548   2.931   4.365   3.257 -0.0795 -0.3312 -0.3842
    1C        C  549   2.996   4.396   3.378 -0.2851 -0.0643 -0.3372
    1C        C  550   2.833   4.273   3.505  0.5041  0.0282  0.5280
    1C        C  551   2.942   4.362   3.504 -0.0517  0.7224 -0.0147
    1C        C  552   2.783   4.226   3.628 -0.1659 -0.2616  0.1590
    1C        C  553   2.833   4.281   3.749  0.0894 -0.5784  0.2030
    1C        C  554   2.704   4.118   3.876  0.1078 -0.2477 -0.1657
    1C        C  555   2.789   4.230   3.873  0.5191 -0.5375  0.3749
    1C        C  556   2.657   4.064   3.998  0.4280 -0.4295 -0.1179
    1C        C  557   2.698   4.125   4.118  0.1766 -0.3575 -0.0667
    1C        C  558   2.592   3.944   4.244  0.2022 -0.3068  0.0249
    1C        C  559   2.655   4.070   4.241  0.5941 -0.5003  0.0196
    1C        C  560   2.565   3.880   4.368 -0.2617 -0.0410  0.0645
    1C        C  561   2.591   3.950   4.487 -0.1691  0.2448 -0.1224
    1C        C  562   2.537   3.745   4.612  0.3276  0.0460  0.3540
    1C        C  563   2.568   3.883   4.609 -0.4291  0.2124 -0.1882
    1C        C  564   2.515   3.680   4.735  0.1683 -0.0778  0.2599
    1C        C  565   2.522   3.759   4.853 -0.2156 -0.0726  0.2802
    1C        C  566   2.525   3.547   4.977 -0.1680 -0.0424  0.6392
    1C        C  567   2.527   3.686   4.973  0.2202 -0.0551  0.2755
    1C        C  568   3.324   4.474   2.040 -0.1223  0.9103 -0.2550
    1C        C  569   3.393   4.512   2.156 -0.1159  0.7119 -0.1939
    1C        C  570   3.183   4.472   2.279  0.1062 -0.2667 -0.0242
    1C        C  571   3.321   4.504   2.278  0.1029 -0.2545 -0.1172
    1C        C  572   3.111   4.458   2.400 -0.1539  0.1655 -0.1245
    1C        C  573   3.183   4.475   2.521  0.0183  0.6471 -0.2913
    1C        C  574   2.990   4.394   2.646  0.0990 -0.0595  0.1046
    1C        C  575   3.114   4.461   2.643 -0.1764  0.4422 -0.4226
    1C        C  576   2.929   4.361   2.769  0.1135  0.2201  0.1871
    1C        C  577   2.990   4.395   2.891  0.0333  0.5413  0.1412
    1C        C  578   2.819   4.276   3.014  0.1813 -0.0517 -0.0829
    1C        C  579   2.929   4.364   3.015 -0.2549  0.5000 -0.0082
    1C        C  580   2.773   4.227   3.137 -0.1373 -0.2137 -0.2653
    1C        C  581   2.823   4.274   3.261 -0.2392 -0.1415 -0.2497
    1C        C  582   2.697   4.108   3.383  1.7387 -0.4378 -0.1177
    1C        C  583   2.777   4.225   3.385  0.8614  0.1646  0.2994
    1C        C  584   2.661   4.051   3.508  0.0900 -0.3592 -0.5367
    1C        C  585   2.698   4.114   3.628 -0.1230 -0.3005 -0.5009
    1C        C  586   2.602   3.932   3.755  0.0930 -0.0308  0.3913
    1C        C  587   2.668   4.057   3.754  0.9136 -0.4557 -0.3125
    1C        C  588   2.569   3.872   3.878 -0.1984 -0.0237  0.3176
    1C        C  589   2.596   3.937   4.000  0.3245 -0.3732  0.3926
    1C        C  590   2.545   3.734   4.127  0.1288 -0.5915 -0.1293
    1C        C  591   2.572   3.873   4.124 -0.2264 -0.5147  0.2158
    1C        C  592   2.522   3.668   4.249 -0.0028  0.0960  0.2280
    1C        C  593   2.531   3.743   4.368 -0.8168  0.0943  0.2954
    1C        C  594   2.519   3.533   4.494 -0.2124  0.0436  0.2640
    1C        C  595   2.522   3.674   4.491  0.3188  0.0370  0.3605
    1C        C  596   2.521   3.464   4.617  0.1880  0.1088  0.2952
    1C        C  597   2.511   3.538   4.737 -0.4835 -0.0591  0.3446
    1C        C  598   2.532   3.330   4.860 -0.7002  0.1937 -0.1034
    1C        C  599   2.517   3.470   4.861 -0.5585  0.2097  0.4962
    1C        C  600   2.529   3.249   4.975  0.0266 -0.0228 -0.2282
    1C        C  601   3.192   4.434   2.040  0.0062  0.4823  0.3987
    1C        C  602   2.981   4.391   2.158 -0.1211 -0.8362 -0.4153
    1C        C  603   3.117   4.438   2.159 -0.3532 -0.1565  0.1936
    1C        C  604   2.922   4.361   2.283  0.3991 -0.1891 -0.0050
    1C        C  605   2.986   4.394   2.404  0.1125 -0.3437  0.1900
    1C        C  606   2.817   4.265   2.526  0.0008 -0.2952 -0.4568
    1C        C  607   2.927   4.353   2.526  0.4613 -0.8660  0.1835
    1C        C  608   2.769   4.220   2.651  0.6643 -0.2595 -0.1857
    1C        C  609   2.817   4.275   2.772  0.5061 -0.3063 -0.1027
    1C        C  610   2.681   4.112   2.895  0.0258  0.1320 -0.1651
    1C        C  611   2.768   4.223   2.893  0.0456  0.1147 -0.0998
    1C        C  612   2.656   4.047   3.018  0.4182 -0.0816 -0.2003
    1C        C  613   2.699   4.106   3.139  0.1579 -0.3903  0.0414
    1C        C  614   2.598   3.921   3.263  0.6209 -0.3391 -0.0563
    1C        C  615   2.659   4.048   3.261  0.2996 -0.1810  0.1872
    1C        C  616   2.576   3.858   3.387  0.1089 -0.3670 -0.1581
    1C        C  617   2.599   3.924   3.510  0.2219 -0.4188 -0.1512
    1C        C  618   2.537   3.728   3.638  0.2615  0.3336  0.0371
    1C        C  619   2.570   3.865   3.635 -0.0786  0.4183  0.1836
    1C        C  620   2.525   3.662   3.762 -0.2387  0.0229 -0.1725
    1C        C  621   2.534   3.735   3.883 -0.1694 -0.0489 -0.1349
    1C        C  622   2.517   3.524   4.005 -0.4154 -0.2153 -0.1608
    1C        C  623   2.524   3.665   4.006 -0.4292 -0.2143 -0.2503
    1C        C  624   2.519   3.456   4.128 -0.3975  0.2512  0.1013
    1C        C  625   2.521   3.526   4.251 -0.3166  0.0979  0.1901
    1C        C  626   2.544   3.319   4.376 -0.2346  0.2601  0.0695
    1C        C  627   2.519   3.458   4.374 -0.9434  0.1374  0.2032
    1C        C  628   2.557   3.252   4.499  0.6621  0.2478 -0.0248
    1C        C  629   2.537   3.323   4.619  0.3413  0.1210  0.0016
    1C        C  630   2.603   3.122   4.743  0.3044  0.1981 -0.0896
    1C        C  631   2.550   3.255   4.742  0.2374  0.1753  0.0446
    1C        C  632   2.619   3.051   4.865  0.2404 -0.0156 -0.2038
    1C        C  633   2.555   3.112   4.977 -0.1069 -0.0526 -0.3791
    1C        C  634   2.782   4.303   2.050 -0.2236 -0.6188 -0.3571
    1C        C  635   2.888   4.394   2.049 -0.3389 -0.4823 -0.2195
    1C        C  636   2.746   4.231   2.165  0.1574  0.0340  0.1766
    1C        C  637   2.807   4.277   2.284  0.0933  0.2306  0.1337
    1C        C  638   2.674   4.110   2.409 -0.2029 -0.4295 -0.0562
    1C        C  639   2.759   4.222   2.405 -0.3096 -0.3568 -0.2863
    1C        C  640   2.641   4.047   2.531 -0.6162  0.3235  0.2201
    1C        C  641   2.688   4.104   2.652  0.4090 -0.0790  0.0119
    1C        C  642   2.588   3.919   2.777 -0.1056 -0.0805 -0.3524
    1C        C  643   2.644   4.049   2.774  0.5465 -0.3580 -0.0669
    1C        C  644   2.567   3.853   2.900  0.0711 -0.1637 -0.3725
    1C        C  645   2.592   3.921   3.021  0.1418  0.0517 -0.5119
    1C        C  646   2.527   3.718   3.148  0.3410  0.2860 -0.1390
    1C        C  647   2.566   3.854   3.143  0.4778  0.2372 -0.3375
    1C        C  648   2.510   3.655   3.272 -0.3523  0.1417 -0.3103
    1C        C  649   2.526   3.726   3.393 -0.1744 -0.2555 -0.1016
    1C        C  650   2.507   3.517   3.518  0.1741  0.1805 -0.0919
    1C        C  651   2.519   3.658   3.517 -0.0236  0.1997  0.1584
    1C        C  652   2.512   3.448   3.641 -0.5345 -0.1344 -0.2336
    1C        C  653   2.522   3.521   3.762 -0.6594  0.0309 -0.3223
    1C        C  654   2.533   3.311   3.886 -0.0612 -0.0181 -0.2610
    1C        C  655   2.516   3.451   3.884  0.0635 -0.0023 -0.2990
    1C        C  656   2.551   3.246   4.010  0.0696  0.3741 -0.0698
    1C        C  657   2.537   3.316   4.132 -0.0276  0.2932 -0.0300
    1C        C  658   2.614   3.119   4.254 -0.8539  0.0670 -0.3713
    1C        C  659   2.561   3.250   4.254 -0.2641  0.3136  0.0314
    1C        C  660   2.639   3.057   4.378 -0.7221  0.0938 -0.3794
    1C        C  661   2.606   3.119   4.501  0.1078  0.0360 -0.1157
    1C        C  662   2.709   2.935   4.626 -0.5963 -0.3439 -0.2333
    1C        C  663   2.634   3.055   4.623 -0.0055  0.0397 -0.0843
    1C        C  664   2.749   2.875   4.747 -0.5315 -0.2088 -0.1839
    1C        C  665   2.700   2.933   4.868  0.0293 -0.1565  0.0246
    1C        C  666   2.743   2.872   4.986  0.0681 -0.3150 -0.0692
    1C        C  667   2.681   4.024   2.053 -0.0322 -0.5328  0.2670
    1C        C  668   2.686   4.103   2.168 -0.4944  0.3211 -0.2852
    1C        C  669   2.590   3.911   2.289 -0.6034  0.2243 -0.0469
    1C        C  670   2.643   4.043   2.289 -0.3387  0.1192 -0.3288
    1C        C  671   2.559   3.849   2.412  0.2356 -0.3298 -0.1089
    1C        C  672   2.589   3.916   2.532 -0.0669  0.1010 -0.2727
    1C        C  673   2.526   3.716   2.659  0.1675 -0.1096  0.0997
    1C        C  674   2.562   3.852   2.656 -0.1145 -0.0479 -0.3637
    1C        C  675   2.516   3.645   2.780  0.1000 -0.3166 -0.0317
    1C        C  676   2.531   3.717   2.901 -1.0907  0.1436 -0.1540
    1C        C  677   2.500   3.510   3.027 -0.8213  0.2870  0.3671
    1C        C  678   2.513   3.651   3.024 -0.5340  0.2512 -0.0176
    1C        C  679   2.500   3.442   3.151 -0.5716 -0.0628  0.1715
    1C        C  680   2.499   3.514   3.272 -0.8414  0.1794  0.0250
    1C        C  681   2.526   3.306   3.396 -0.1094  0.1256 -0.1532
    1C        C  682   2.508   3.446   3.396 -0.1663  0.1170 -0.0569
    1C        C  683   2.548   3.239   3.519 -0.2932 -0.2814 -0.3412
    1C        C  684   2.531   3.308   3.641 -0.0823 -0.0731 -0.4308
    1C        C  685   2.601   3.111   3.769 -0.5954  0.0580  0.1505
    1C        C  686   2.546   3.241   3.764 -0.8241 -0.0526 -0.3286
    1C        C  687   2.639   3.051   3.891  0.3855  0.5104  0.0868
    1C        C  688   2.603   3.114   4.011 -0.0023  0.3432  0.0670
    1C        C  689   2.710   2.929   4.137 -0.0764 -0.0141  0.1416
    1C        C  690   2.639   3.051   4.132 -0.7851 -0.4251 -0.0903
    1C        C  691   2.755   2.877   4.260  0.5689  0.4457  0.1117
    1C        C  692   2.712   2.936   4.381 -0.2168  0.3938 -0.1326
    1C        C  693   2.752   2.879   4.504 -0.8990 -0.4621 -0.2912
    1C        C  694   2.627   3.895   2.053  0.0082 -0.5508  0.2540
    1C        C  695   2.532   3.702   2.175 -0.4035 -0.2016  0.3053
    1C        C  696   2.576   3.836   2.170 -0.7330 -0.0964  0.1687
    1C        C  697   2.511   3.637   2.298 -0.4592 -0.2467  0.2713
    1C        C  698   2.523   3.712   2.417 -0.6685 -0.0851  0.1882
    1C        C  699   2.495   3.504   2.540 -0.2396 -0.0198  0.1515
    1C        C  700   2.502   3.645   2.539 -0.7692  0.0042  0.2171
    1C        C  701   2.505   3.431   2.660  0.3703  0.0970  0.1701
    1C        C  702   2.504   3.504   2.781  0.2654 -0.3249  0.4198
    1C        C  703   2.526   3.298   2.909  0.5302  0.0781 -0.0998
    1C        C  704   2.505   3.438   2.906 -0.2936 -0.0290  0.5777
    1C        C  705   2.543   3.230   3.032 -0.0962 -0.1659 -0.1501
    1C        C  706   2.526   3.303   3.152 -0.6168 -0.0739 -0.2786
    1C        C  707   2.600   3.107   3.280 -0.6902 -0.0172  0.0497
    1C        C  708   2.547   3.237   3.275  0.0143  0.2604 -0.2057
    1C        C  709   2.628   3.040   3.401 -0.1038 -0.0239 -0.0910
    1C        C  710   2.606   3.111   3.521  1.0186  0.3038 -0.0641
    1C        C  711   2.713   2.933   3.647  0.2900  0.4928 -0.1801
    1C        C  712   2.632   3.049   3.646  0.0659  0.3466  0.1676
    1C        C  713   2.761   2.879   3.768  0.3748  0.8153 -0.0653
    1C        C  714   2.721   2.936   3.891 -0.4251 -0.0878  0.1119
    1C        C  715   2.758   2.879   4.014  0.3651  0.4198  0.1263
    1C        C  716   2.452   3.495   2.061 -0.0194 -0.4701  0.2180
    1C        C  717   2.492   3.629   2.062 -0.5221 -0.3234  0.4262
    1C        C  718   2.469   3.419   2.181 -0.8251 -0.4728  0.3299
    1C        C  719   2.490   3.496   2.299 -0.7196 -0.2082  0.1368
    1C        C  720   2.506   3.286   2.422 -0.0949 -0.0664  0.3848
    1C        C  721   2.491   3.427   2.422 -0.2713 -0.0887  0.2015
    1C        C  722   2.530   3.219   2.544 -0.3721 -0.3574  0.2777
    1C        C  723   2.515   3.291   2.665  0.2756  0.0906  0.0947
    1C        C  724   2.585   3.093   2.791  0.6370  0.1610  0.0754
    1C        C  725   2.533   3.225   2.789 -0.2916 -0.2002  0.0217
    1C        C  726   2.617   3.030   2.913 -0.0049 -0.3461 -0.0120
    1C        C  727   2.585   3.096   3.034 -0.2640 -0.2163 -0.1517
    1C        C  728   2.702   2.924   3.159  0.1140  0.3980  0.0205
    1C        C  729   2.617   3.037   3.158 -0.1872  0.1731  0.0116
    1C        C  730   2.752   2.870   3.279  0.4306  0.5213 -0.0555
    1C        C  731   2.708   2.924   3.403  0.2503  0.2169  0.0126
    1C        C  732   2.752   2.872   3.526  0.2101  0.1079 -0.0173
    1C        C  733   2.495   3.197   2.068  0.4352 -0.1859 -0.2565
    1C        C  734   2.491   3.278   2.182 -0.4523 -0.4177 -0.1183
    1C        C  735   2.584   3.083   2.304 -0.1184  0.3248 -0.1045
    1C        C  736   2.531   3.215   2.303  0.1137  0.4183  0.1379
    1C        C  737   2.612   3.019   2.426  1.4235  0.6429 -0.2726
    1C        C  738   2.585   3.089   2.546  0.4122 -0.0346 -0.0952
    1C        C  739   2.692   2.910   2.674  0.1121 -0.0021  0.0306
    1C        C  740   2.617   3.029   2.669  0.3253  0.1322  0.0087
    1C        C  741   2.735   2.851   2.795  0.5372  0.5234  0.1378
    1C        C  742   2.695   2.913   2.916 -0.1382 -0.4249  0.4076
    1C        C  743   2.752   2.871   3.038  0.0674 -0.3668  0.3317
    1C        C  744   2.553   3.071   2.071  0.7511 -0.0447 -0.3502
    1C        C  745   2.684   2.892   2.187  0.5016  0.4115  0.0322
    1C        C  746   2.607   3.010   2.185 -0.2528 -0.0762  0.1161
    1C        C  747   2.728   2.837   2.310  0.2179 -0.2484 -0.1572
    1C        C  748   2.681   2.895   2.429  0.6620  0.2163 -0.2048
    1C        C  749   2.732   2.849   2.553 -0.0807 -0.0775  0.0034
    1C        C  750   2.737   2.838   2.069 -0.3589 -0.0504 -0.1491
    1C        C  751   3.658   2.308   1.984  0.5095 -0.1955  0.1939
    1C        O  752   3.679   2.189   2.020  0.2670 -0.1902  0.3577
    1C        O  753   3.623   2.319   1.849  0.7510 -0.5963  0.0988
    1C        C  754   4.637   3.055   1.985  0.0131  0.4045  0.2356
    1C        O  755   4.761   3.058   2.008  0.1258 -0.8779 -0.1380
    1C        O  756   4.610   3.023   1.852 -0.4120 -0.3487  0.4947
    1C        C  757   4.420   4.196   1.936  0.3880 -0.5526 -0.1211
    1C        O  758   4.535   4.248   1.936  0.0875  0.1273 -0.3098
    1C        O  759   4.343   4.207   1.819 -0.4318 -0.1222  0.4446
    1C        C  760   3.604   4.677   1.964 -0.0616 -0.0739  0.0753
    1C        O  761   3.598   4.779   2.039 -0.0331 -0.1964  0.2443
    1C        O  762   3.622   4.690   1.826 -0.5858 -0.3470 -0.0206
    1C        C  763   2.860   4.524   1.984 -0.1080 -0.4804 -0.3154
    1C        O  764   2.872   4.528   1.858  0.7252  0.7161 -0.2134
    1C        O  765   2.789   4.626   2.048 -0.1282 -0.2537 -0.6956
    1C        C  766   2.329   3.472   1.982 -0.0361 -0.3643  0.2167
    1C        O  767   2.323   3.405   1.876 -0.6032 -0.1735  0.1217
    1C        O  768   2.204   3.527   2.015 -0.0328 -0.0094 -0.3567
    1C        C  769   4.713   3.592   5.028  0.1158  0.4773  0.0935
    1C        O  770   4.706   3.558   5.149 -0.3588  0.3901  0.0440
    1C        O  771   4.833   3.654   4.991  0.4874 -0.1077  0.3159
    1C        C  772   4.263   4.451   5.045 -0.2341  0.8802 -0.0936
    1C        O  773   4.241   4.411   5.163 -0.0681  0.1442 -0.3047
    1C        O  774   4.321   4.578   5.050  0.1097  0.7086  0.2899
    1C        C  775   4.146   2.522   5.068 -0.1400  0.2873 -0.0159
    1C        O  776   4.209   2.421   5.026 -0.1117  0.2571  0.0988
    1C        O  777   4.122   2.525   5.205  0.2312 -0.6489  0.0813
    1C        C  778   2.906   4.518   5.071  0.0507 -0.0603 -0.5057
    1C        O  779   2.838   4.624   5.074 -0.2761 -0.2601 -0.7746
    1C        O  780   2.941   4.472   5.198  0.7911 -0.0368 -0.6956
    1C        C  781   2.458   3.030   5.053  0.2601  0.1956  0.3733
    1C        O  782   2.346   3.003   5.000  0.5530 -0.2656 -0.0124
    1C        O  783   2.470   2.990   5.185  0.3264  0.1494  0.3536
    1C        C  784   2.411   3.998   5.046  0.1660  0.3490  0.1234
    1C        O  785   2.304   4.057   5.014 -0.3457 -0.4566  0.3264
    1C        O  786   2.425   4.021   5.183 -0.2729 -0.0630  0.2363
    1C        C  787   2.954   2.420   1.997 -0.0891  0.1499 -0.1025
    1C        O  788   2.937   2.440   1.874 -1.1476 -0.5900 -0.0945
    1C        O  789   2.896   2.299   2.033  0.1746  0.0558  0.0032
    1C        C  790   3.168   2.365   5.043  0.1239 -0.4537  0.1033
    1C        O  791   3.097   2.281   4.982 -0.0427 -0.5926  0.4794
    1C        O  792   3.162   2.339   5.181 -0.4008  0.1937  0.2023
    1C        H  793   4.276   3.024   5.057  0.4625  0.4936  0.3799
    1C        H  794   4.159   2.822   5.065  0.6285 -0.0751  0.3944
    1C        H  795   4.512   3.127   5.052 -0.0215  0.4698 -0.8818
    1C        H  796   4.596   3.344   5.040  0.6897 -1.7127  0.8326
    1C        H  797   4.589   3.810   5.031  1.7867 -1.2601 -0.3261
    1C        H  798   4.443   3.989   5.052 -1.0722 -1.0674  0.2777
    1C        H  799   4.262   4.155   5.039  1.6361  1.5300  0.8518
    1C        H  800   4.042   4.562   5.007 -0.4342  1.4805 -2.1680
    1C        H  801   3.823   4.602   5.030 -0.4522  1.7822 -0.2797
    1C        H  802   3.583   4.652   5.023 -2.0705 -0.8481 -0.4765
    1C        H  803   3.395   4.463   5.039 -1.5491 -0.5592  0.2932
    1C        H  804   3.162   4.457   5.048  0.4856  0.4985  0.8077
    1C        H  805   3.892   2.479   5.064 -0.5119 -0.1265  0.2482
    1C        H  806   3.680   2.448   5.067 -0.6273 -1.1455 -0.0590
    1C        H  807   2.990   2.542   5.052 -1.8040  0.3571 -1.6110
    1C        H  808   3.435   2.440   5.068 -0.4730  0.7331 -0.3049
    1C        H  809   2.858   2.730   5.084 -0.3852 -0.7563  0.0751
    1C        H  810   2.726   2.922   5.079  0.3440  0.3464 -0.3755
    1C        H  811   2.468   3.288   5.054  1.6632  1.4304  0.3674
    1C        H  812   2.510   3.504   5.074  0.4686  2.2081  1.8194
    1C        H  813   2.505   3.735   5.066  1.7347  1.3079 -0.0290
    1C        H  814   2.605   4.164   5.053 -2.4576  2.3793 -0.9961
    1C        H  815   2.718   4.356   5.035  0.9627 -0.0984  1.3697
    1C        H  816   2.707   2.872   1.972 -0.7391 -1.1287 -0.4227
    1C        H  817   2.817   2.659   1.991 -0.1823  0.8049 -0.5158
    1C        H  818   3.212   2.430   1.990 -1.2287 -0.5898 -0.3634
    1C        H  819   3.428   2.450   1.982  0.5709  0.7391  0.1562
    1C        H  820   3.865   2.504   1.974 -0.8391 -0.8272  0.5647
    1C        H  821   4.040   2.652   1.971  1.1094 -1.2939 -0.4185
    1C        H  822   4.281   2.701   1.988 -1.2576 -0.3740  0.2441
    1C        H  823   4.372   2.932   1.972 -1.6892  2.8598  0.0506
    1C        H  824   4.605   3.308   1.985  0.8612  2.1892  1.4578
    1C        H  825   4.521   3.517   1.957 -1.5092  0.2374 -0.7761
    1C        H  826   4.506   3.746   1.953  0.0193  2.0157  1.0940
    1C        H  827   3.813   4.527   1.958  0.0711 -1.7920 -0.8162
    1C        H  828   3.963   4.381   1.948  1.2271 -1.2224 -1.0825
    1C        H  829   4.158   4.243   1.947 -0.4512 -1.4387  0.3318
    1C        H  830   4.484   3.960   1.960  0.3996  1.7276 -0.5618
    1C        H  831   2.652   3.834   1.969 -1.8369 -0.5347 -0.3645
    1C        H  832   2.692   4.068   1.956 -0.9474  1.5091  1.0276
    1C        H  833   2.723   4.290   1.961 -0.3423  2.4853 -0.8367
    1C        H  834   3.384   4.431   1.963 -1.1652  0.0392 -0.6060
    1C        H  835   3.154   4.375   1.960 -0.5924 -0.6710  1.4886
    1C        H  836   2.566   3.021   1.977  1.3451 -0.4476 -0.0567
    1C        H  837   2.413   3.207   2.000 -0.4753 -2.0039  0.5136
    1C        H  838   2.455   3.686   1.979  0.6281 -1.6912 -1.0927
    2V3OU   H29  839   2.807   3.550   0.666 -0.9193 -1.3227 -1.3016
    2V3OU   C27  840   2.781   3.502   0.764  0.1320  0.3486 -0.1467
    2V3OU   H27  841   2.724   3.577   0.824  0.5439  0.5287  0.0261
    2V3OU   H28  842   2.733   3.403   0.746  0.8800  0.3785 -2.7839
    2V3OU   O11  843   2.909   3.476   0.823 -0.2265 -0.1082  0.4327
    2V3OU   C15  844   2.917   3.404   0.941  0.0925 -0.1531  0.3847
    2V3OU   C13  845   3.048   3.378   0.984  0.0032 -0.3293  0.5511
    2V3OU   C14  846   3.073   3.268   1.066 -0.2970 -0.6055  0.2684
    2V3OU   C16  847   2.968   3.186   1.108 -0.5612 -0.3285  0.1454
    2V3OU    H6  848   2.990   3.096   1.167 -0.9287  0.0903  0.9386
    2V3OU   C12  849   3.211   3.226   1.099  0.1536  0.3381 -0.3794
    2V3OU    O2  850   3.237   3.124   1.166 -0.1549  0.4247 -0.1272
    2V3OU   C10  851   3.324   3.310   1.059  0.1436  0.2989 -0.4895
    2V3OU    C8  852   3.456   3.270   1.075  0.0056  0.1291  0.2541
    2V3OU   O10  853   3.488   3.164   1.154  0.0150  0.3627  0.5663
    2V3OU   H26  854   3.409   3.126   1.195 -0.8904  2.6890  1.1445
    2V3OU    C6  855   3.565   3.355   1.036  0.2086 -0.2088  0.0814
    2V3OU    C5  856   3.537   3.472   0.966 -0.2701  0.0391  0.6821
    2V3OU    C4  857   3.702   3.300   1.049  0.2775 -0.1115 -0.2143
    2V3OU    H4  858   3.724   3.234   1.139  1.4755  0.3899 -0.1158
    2V3OU    H5  859   3.711   3.232   0.960  0.3473  0.2018 -0.4488
    2V3OU    C2  860   3.821   3.397   1.042  0.2337 -0.0480 -0.0895
    2V3OU    O6  861   3.810   3.476   1.161  0.3165  0.2364 -0.2688
    2V3OU   H21  862   3.764   3.552   1.122 -0.4645 -0.1481 -0.1051
    2V3OU    C3  863   3.784   3.497   0.932 -0.2377 -0.1527 -0.0322
    2V3OU    H2  864   3.859   3.580   0.930 -1.0499  0.5857 -0.3594
    2V3OU    H3  865   3.789   3.440   0.835  0.3252  2.0456 -1.3796
    2V3OU   C25  866   3.955   3.324   1.030  0.2619 -0.0069 -0.0334
    2V3OU    O7  867   4.005   3.301   0.920 -0.1456  0.0328 -0.2301
    2V3OU   C26  868   4.028   3.284   1.157  0.1576  0.7357  0.2659
    2V3OU   H22  869   4.067   3.377   1.206  2.0491 -0.2298  0.6897
    2V3OU   H23  870   4.119   3.224   1.131 -1.0716 -1.5026  0.8854
    2V3OU    O8  871   3.955   3.203   1.246  0.1749  0.1038 -0.2839
    2V3OU   H24  872   3.924   3.262   1.317  0.1903  0.4325 -0.5455
    2V3OU    C1  873   3.650   3.567   0.938 -0.2375 -0.1651  0.1192
    2V3OU    H1  874   3.627   3.618   0.840 -0.9547 -0.4871  0.1092
    2V3OU    O3  875   3.666   3.655   1.049  0.2345  0.2037 -0.2399
    2V3OU   C19  876   3.618   3.789   1.037  0.1089  0.1995  0.1910
    2V3OU    H9  877   3.515   3.798   0.992  0.6023 -2.5581 -1.7195
    2V3OU    O4  878   3.712   3.847   0.950  0.2794 -0.0569  0.2024
    2V3OU   C20  879   3.843   3.870   1.002  0.2348 -0.3025  0.4266
    2V3OU   H10  880   3.893   3.770   1.018  0.1789 -1.0135 -2.9417
    2V3OU   C24  881   3.608   3.856   1.175  0.4447 -0.4493  0.5374
    2V3OU   H16  882   3.540   3.793   1.238  0.7303 -1.1921  0.1241
    2V3OU   H17  883   3.563   3.958   1.166 -3.3600 -1.7289  2.5080
    2V3OU   C23  884   3.749   3.869   1.232  0.5142 -0.2721  0.3297
    2V3OU   H15  885   3.793   3.765   1.250 -1.8144 -1.1785  1.1915
    2V3OU    N1  886   3.737   3.946   1.354  0.4510  0.5359 -0.1800
    2V3OU   H19  887   3.810   3.922   1.419  0.8175  1.7246 -0.1389
    2V3OU   H20  888   3.647   3.936   1.396  0.4503 -1.4903 -0.5591
    2V3OU   C21  889   3.847   3.943   1.136  0.2513 -0.0052  0.2666
    2V3OU   H11  890   3.957   3.931   1.156  0.8561  1.8310 -1.7257
    2V3OU    O5  891   3.819   4.082   1.139 -0.1728 -0.0863  0.1450
    2V3OU   H18  892   3.789   4.106   1.228  3.3263  5.0473  0.3820
    2V3OU   C22  893   3.915   3.947   0.892 -0.4503  0.5529  0.5693
    2V3OU   H12  894   3.868   4.047   0.873  1.5941  1.0279 -2.7458
    2V3OU   H13  895   3.908   3.890   0.796 -1.9159  1.2016  0.2611
    2V3OU   H14  896   4.025   3.950   0.914 -0.0242 -2.0465 -0.8783
    2V3OU   C11  897   3.158   3.473   0.958 -0.4664 -0.0826 -0.5725
    2V3OU    O1  898   3.139   3.591   0.923 -0.6598  0.0480 -0.0254
    2V3OU    C9  899   3.296   3.434   0.994 -0.4703  0.4040 -0.0319
    2V3OU    C7  900   3.401   3.507   0.939 -0.1517  0.0534  0.1054
    2V3OU    O9  901   3.384   3.615   0.855  0.4813 -0.1478 -0.2884
    2V3OU   H25  902   3.289   3.632   0.866  0.5864 -0.2697  0.9376
    2V3OU   C17  903   2.812   3.325   0.992 -0.3791  0.0029 -0.3252
    2V3OU    H7  904   2.708   3.356   0.977 -0.0521 -0.1637 -3.5718
    2V3OU   C18  905   2.836   3.214   1.071 -0.4334  0.3463  0.1774
    2V3OU    H8  906   2.758   3.138   1.089  0.8821 -1.4225 -1.1665
    3SOL     OW  907   1.599   5.346   0.129 -0.0545  0.5878 -0.0352
    3SOL    HW1  908   1.658   5.415   0.088  0.5460  0.9899  1.4475
    3SOL    HW2  909   1.506   5.383   0.137 -0.3189  0.2812 -1.5515
    4SOL     OW  910   5.713   0.991   2.061  0.3716  0.1064  0.0875
    4SOL    HW1  911   5.795   1.048   2.058  0.1161  0.4612 -0.8249
    4SOL    HW2  912   5.702   0.952   2.152  2.0723 -0.7292 -0.0245
    5SOL     OW  913   2.808   1.740   0.402 -0.0297  0.0499 -0.5567
    5SOL    HW1  914   2.853   1.830   0.404  3.1236 -1.3866 -0.4537
    5SOL    HW2  915   2.788   1.715   0.307 -0.1055  0.4790 -0.6565
    6SOL     OW  916   4.335   1.961   1.018  0.1024 -0.9281 -0.1472
    6SOL    HW1  917   4.433   1.981   1.029  0.1008 -0.1694 -1.2958
    6SOL    HW2  918   4.310   1.883   1.075  1.2036 -0.6389  0.7706
    7SOL     OW  919   6.671   1.838   2.019  0.3141 -0.0343 -0.5769
    7SOL    HW1  920   6.602   1.824   2.090 -1.7365  0.5281 -2.3439
    7SOL    HW2  921   6.760   1.810   2.053 -0.9462 -1.9498  1.4163
    8SOL     OW  922   3.593   1.717   3.237 -0.0967  0.0095  0.5510
    8SOL    HW1  923   3.619   1.707   3.141  0.2640 -0.9889  0.7388
    8SOL    HW2  924   3.552   1.807   3.252 -0.7935 -0.0887 -0.6837
    9SOL     OW  925   4.236   3.832   6.815 -0.5571 -0.6171  0.5956
    9SOL    HW1  926   4.230   3.922   6.858  0.5581 -0.3180  0.1390
    9SOL    HW2  927   4.159   3.775   6.846 -0.6970  0.1440  1.6693
   10SOL     OW  928   1.423   4.378   2.017  0.5671  0.3955 -0.5061
   10SOL    HW1  929   1.347   4.356   1.956  1.2125 -1.4915 -0.7083
   10SOL    HW2  930   1.504   4.328   1.988  0.3333 -2.5948  3.2241
   11SOL     OW  931   4.987   0.240   0.157 -0.2258 -0.3162  0.6064
   11SOL    HW1  932   4.938   0.312   0.205 -0.9976  0.1620 -0.8431
   11SOL    HW2  933   5.046   0.280   0.087  1.6010 -0.9397  1.7157
   12SOL     OW  934   4.598   6.244   3.461  0.2258 -0.2825 -0.2049
   12SOL    HW1  935   4.499   6.228   3.455  0.1942 -0.3704  0.5332
   12SOL    HW2  936   4.617   6.311   3.532  0.6854 -0.0765 -0.5127
   13SOL     OW  937   1.145   6.310   3.037  0.6135  0.2387 -0.0775
   13SOL    HW1  938   1.159   6.299   2.939  1.4864  0.8635 -0.0315
   13SOL    HW2  939   1.047   6.319   3.056  0.3565 -0.8190 -0.7774
   14SOL     OW  940   1.532   0.312   4.709  0.4454 -0.3065  0.5157
   14SOL    HW1  941   1.454   0.268   4.663  1.0719 -1.0050  0.1056
   14SOL    HW2  942   1.611   0.252   4.706  2.1440  1.8088 -2.3764
   15SOL     OW  943   1.695   7.017   1.907 -0.0886 -0.1033  0.5168
   15SOL    HW1  944   1.660   6.943   1.964  0.5152 -1.7361 -1.1066
   15SOL    HW2  945   1.787   6.993   1.876  0.4242  1.7113  0.5601
   16SOL     OW  946   6.884   1.666   0.355 -0.3522  0.4625 -0.3031
   16SOL    HW1  947   6.984   1.666   0.362 -0.3991 -2.0728  1.3179
   16SOL    HW2  948   6.857   1.729   0.282  2.4383  0.7402 -1.2419
   17SOL     OW  949   0.738   6.811   3.832  0.2913  0.4132 -0.4224
   17SOL    HW1  950   0.834   6.811   3.859  0.4009 -1.3218 -0.7230
   17SOL    HW2  951   0.694   6.894   3.867  1.3520  0.1595  1.6761
   18SOL     OW  952   2.762   1.459   0.535 -0.5208  0.6283 -0.0627
   18SOL    HW1  953   2.775   1.553   0.503 -0.3988  0.3590 -0.8252
   18SOL    HW2  954   2.828   1.439   0.607  0.0406  0.8542 -0.5018
   19SOL     OW  955   1.287   6.711   0.526 -0.0733  0.3891 -0.3653
   19SOL    HW1  956   1.315   6.792   0.475  0.0145 -0.4994 -1.7684
   19SOL    HW2  957   1.288   6.631   0.466  4.7182 -1.6955  1.9191
   20SOL     OW  958   2.097   6.804   4.839 -0.3316 -0.2413 -0.1827
   20SOL    HW1  959   2.108   6.728   4.775  1.4061 -0.2239  0.0274
   20SOL    HW2  960   2.098   6.770   4.933  0.2321  0.0057 -0.0924
   21SOL     OW  961   2.880   2.743   0.412 -0.3373 -0.2545  0.2041
   21SOL    HW1  962   2.788   2.729   0.449 -0.4322 -0.9120 -0.2836
   21SOL    HW2  963   2.905   2.840   0.421 -1.1427 -0.0412  0.1792
   22SOL     OW  964   3.460   0.208   6.664 -0.1751  0.6421  0.2305
   22SOL    HW1  965   3.406   0.290   6.678 -0.5610  0.4143  0.0777
   22SOL    HW2  966   3.429   0.161   6.581 -1.4340 -0.8199  1.4715
   23SOL     OW  967   2.704   6.759   3.071 -0.5634  0.1505 -0.4786
   23SOL    HW1  968   2.785   6.789   3.022  0.8490  0.7709  2.0452
   23SOL    HW2  969   2.669   6.833   3.129 -0.2117 -1.3682  1.8227
   24SOL     OW  970   4.444   6.642   5.907  0.1644  0.1998  0.2700
   24SOL    HW1  971   4.386   6.563   5.925  0.7009 -0.6780 -1.5503
   24SOL    HW2  972   4.387   6.723   5.894 -0.7238 -0.6321 -1.4079
   25SOL     OW  973   3.577   5.174   2.395 -0.1482 -0.2476 -0.3824
   25SOL    HW1  974   3.551   5.078   2.404 -1.3309  0.1875  1.3260
   25SOL    HW2  975   3.673   5.184   2.421 -0.0349 -0.9540 -0.5005
   26SOL     OW  976   5.592   1.812   3.895 -0.1482  0.7416  0.1377
   26SOL    HW1  977   5.599   1.875   3.972  0.9606 -0.4962  1.0997
   26SOL    HW2  978   5.541   1.731   3.923  0.7287  0.0411 -0.2642
   27SOL     OW  979   4.660   0.161   2.779  0.0035  0.0635 -0.8280
   27SOL    HW1  980   4.656   0.079   2.835 -0.5563  0.6811  0.0735
   27SOL    HW2  981   4.567   0.193   2.759  0.1755 -0.5646 -2.7784
   28SOL     OW  982   3.216   1.011   6.449 -0.4713 -0.0339  0.5354
   28SOL    HW1  983   3.235   1.097   6.402  1.6791 -0.6799  0.1124
   28SOL    HW2  984   3.198   1.030   6.546 -1.3771  0.9823  0.1887
   29SOL     OW  985   4.618   4.468   0.954 -0.4247 -0.2796 -0.5694
   29SOL    HW1  986   4.544   4.525   0.990 -0.7396 -0.9963 -0.0469
   29SOL    HW2  987   4.706   4.512   0.974 -0.5510 -0.8881  1.6260
   30SOL     OW  988   4.205   6.336   0.165 -0.1409 -0.0106  0.2142
   30SOL    HW1  989   4.147   6.376   0.093 -0.1642 -0.7675 -0.1961
   30SOL    HW2  990   4.296   6.319   0.128 -0.3906 -1.1799  0.1029
   31SOL     OW  991   1.854   0.728   6.545 -0.0831  0.2985  0.0849
   31SOL    HW1  992   1.793   0.807   6.534  0.3865  0.6289 -0.2202
   31SOL    HW2  993   1.943   0.750   6.505 -0.1586 -0.6497 -0.6296
   32SOL     OW  994   6.623   2.258   3.567  0.0813  0.2233 -0.4368
   32SOL    HW1  995   6.579   2.175   3.602  0.9194  0.4687  1.3455
   32SOL    HW2  996   6.569   2.295   3.491 -1.4306 -0.7984  0.0820
   33SOL     OW  997   0.272   1.784   2.914 -0.2256 -0.3052 -0.1006
   33SOL    HW1  998   0.370   1.799   2.932  0.4273 -0.7880 -2.8547
   33SOL    HW2  999   0.227   1.871   2.899  0.0259 -0.1584 -0.0053
   34SOL     OW 1000   1.617   2.035   5.650 -0.1855  0.2841 -0.0441
   34SOL    HW1 1001   1.536   2.031   5.592 -0.4863 -0.3843  0.4173
   34SOL    HW2 1002   1.699   2.026   5.592 -0.3915  1.8276 -0.6091
   35SOL     OW 1003   3.987   2.648   0.186  0.1231  0.1317 -0.1960
   35SOL    HW1 1004   3.966   2.746   0.182  3.3159  0.9357  0.2651
   35SOL    HW2 1005   4.039   2.628   0.269 -0.7048 -2.0763 -0.1267
   36SOL     OW 1006   1.451   4.238   6.078 -0.6531  0.3537  0.7839
   36SOL    HW1 1007   1.519   4.182   6.032 -2.0203 -2.7234  2.1989
   36SOL    HW2 1008   1.368   4.242   6.022 -0.7827  0.4289  0.9806
   37SOL     OW 1009   2.157   6.494   3.712  0.0754  0.2726 -0.6000
   37SOL    HW1 1010   2.165   6.487   3.613 -2.3513 -1.8999 -0.7376
   37SOL    HW2 1011   2.230   6.441   3.755  0.3616  0.1347 -1.2389
   38SOL     OW 1012   6.034   7.016   3.022  0.1378 -0.2203  0.0939
   38SOL    HW1 1013   6.049   7.081   3.097  0.1936 -1.9850  1.6833
   38SOL    HW2 1014   5.944   7.034   2.982 -1.7854 -1.6991  3.3218
   39SOL     OW 1015   0.534   2.414   0.668  0.1737  0.1065  0.1214
   39SOL    HW1 1016   0.601   2.399   0.596 -0.5560 -0.3080 -0.4769
   39SOL    HW2 1017   0.483   2.498   0.649  1.3958  1.1771  1.2757
   40SOL     OW 1018   0.133   1.562   2.083  0.3989  0.1478 -0.0750
   40SOL    HW1 1019   0.158   1.659   2.080  1.1463 -0.0495 -0.3289
   40SOL    HW2 1020   0.173   1.514   2.005  1.7971 -0.7617  1.1391
   41SOL     OW 1021   0.270   1.420   4.266 -0.1676 -0.0288 -0.0608
   41SOL    HW1 1022   0.363   1.397   4.295 -0.7653 -1.5370  0.7675
   41SOL    HW2 1023   0.257   1.519   4.274  0.3127 -0.0952  3.2131
   42SOL     OW 1024   3.878   6.670   0.800  0.6101 -0.1405 -0.6804
   42SOL    HW1 1025   3.859   6.574   0.779  1.3815 -0.7922  1.3534
   42SOL    HW2 1026   3.975   6.680   0.823  0.2593  0.8647  0.4406
   43SOL     OW 1027   4.342   0.415   5.056  0.1286  0.1163  0.3663
   43SOL    HW1 1028   4.333   0.318   5.032 -0.3007  0.2338  0.0392
   43SOL    HW2 1029   4.260   0.445   5.104  0.9648 -0.1056  1.9739
   44SOL     OW 1030   6.504   5.094   5.290  0.2405 -0.1087  0.8443
   44SOL    HW1 1031   6.552   5.132   5.211  1.4352 -0.6621  1.2748
   44SOL    HW2 1032   6.417   5.142   5.303 -0.5185 -0.7493 -1.4629
   45SOL     OW 1033   2.151   0.565   2.346 -0.1016 -0.0132 -0.1738
   45SOL    HW1 1034   2.088   0.633   2.384 -1.3501 -1.4238  0.4256
   45SOL    HW2 1035   2.118   0.536   2.256 -0.3680 -0.7885  0.1606
   46SOL     OW 1036   0.640   3.651   4.390  0.3894  0.3844  0.3893
   46SOL    HW1 1037   0.628   3.571   4.449 -0.5866 -0.1814 -0.5604
   46SOL    HW2 1038   0.676   3.623   4.302  2.5354  1.3076  0.8891
   47SOL     OW 1039   0.064   4.727   0.872 -0.6910 -0.1811  0.3362
   47SOL    HW1 1040   0.064   4.630   0.847  0.3282  0.3086 -1.8462
   47SOL    HW2 1041   0.012   4.779   0.804 -0.0307  0.9716  0.6812
   48SOL     OW 1042   1.112   1.500   5.386 -0.2720 -0.3055 -0.0080
   48SOL    HW1 1043   1.124   1.518   5.288  0.5127 -0.0675  0.1275
   48SOL    HW2 1044   1.170   1.422   5.412 -1.6392 -1.3687 -0.0409
   49SOL     OW 1045   5.658   3.699   5.917  0.0956 -0.1246  0.1649
   49SOL    HW1 1046   5.600   3.622   5.945 -1.4639  0.8152 -0.3109
   49SOL    HW2 1047   5.630   3.781   5.968  0.4716  0.5325 -0.6645
   50SOL     OW 1048   0.925   2.982   4.311 -0.6226 -0.2687  0.5051
   50SOL    HW1 1049   0.907   2.916   4.384  1.6052 -1.1191  0.3638
   50SOL    HW2 1050   0.959   3.067   4.351 -0.4467 -0.3474  0.5249
   51SOL     OW 1051   4.348   6.149   2.568 -0.3487  0.0076 -0.1470
   51SOL    HW1 1052   4.296   6.069   2.595  0.6404 -0.1309  1.4340
   51SOL    HW2 1053   4.288   6.213   2.519 -1.1912 -1.5540 -1.2337
   52SOL     OW 1054   0.204   2.317   1.484 -0.0822 -0.1482 -0.2934
   52SOL    HW1 1055   0.187   2.313   1.386  1.3625 -2.1892 -0.5428
   52SOL    HW2 1056   0.118   2.331   1.533 -1.0309 -0.4982 -1.7923
   53SOL     OW 1057   4.975   0.550   3.653 -0.0870  0.1970  0.0519
   53SOL    HW1 1058   4.948   0.629   3.597  0.3957  1.3515  1.4113
   53SOL    HW2 1059   4.912   0.474   3.634  1.3022 -0.2677 -3.6634
   54SOL     OW 1060   6.426   5.044   4.886  0.2808 -0.3145  0.1285
   54SOL    HW1 1061   6.492   5.118   4.902 -0.4547  0.1328  1.2092
   54SOL    HW2 1062   6.414   4.992   4.971 -1.0274 -0.1632  0.0550
   55SOL     OW 1063   3.940   1.235   0.039 -0.0794 -0.2585  0.0263
   55SOL    HW1 1064   3.851   1.235   0.084  0.1494  1.0258  0.5135
   55SOL    HW2 1065   3.991   1.154   0.068  0.0384  0.4906  2.0850
   56SOL     OW 1066   5.520   0.352   2.628 -0.9155 -0.0994 -0.1789
   56SOL    HW1 1067   5.608   0.305   2.618 -1.5001 -1.3419  0.2187
   56SOL    HW2 1068   5.448   0.295   2.587 -1.2986  1.7971 -2.3058
   57SOL     OW 1069   4.185   6.412   6.652 -0.0614 -0.1869  0.1558
   57SOL    HW1 1070   4.209   6.362   6.736 -1.1148 -0.9601  0.0273
   57SOL    HW2 1071   4.161   6.346   6.581 -0.2943  0.4918 -0.3955
   58SOL     OW 1072   1.192   1.749   5.999  0.0493 -0.3703  0.1458
   58SOL    HW1 1073   1.162   1.720   5.908  1.7627  0.2990 -0.6643
   58SOL    HW2 1074   1.115   1.790   6.047 -0.9892 -1.1023 -0.8266
   59SOL     OW 1075   6.019   6.470   6.550  0.2188 -0.3216  0.4749
   59SOL    HW1 1076   6.076   6.405   6.600  0.6550 -1.9333 -1.9401
   59SOL    HW2 1077   6.077   6.531   6.496 -0.2757 -0.1457  0.1302
   60SOL     OW 1078   5.110   1.181   5.212 -0.2079 -0.2944  0.3002
   60SOL    HW1 1079   5.109   1.098   5.269 -0.2414 -0.1195  0.5578
   60SOL    HW2 1080   5.093   1.261   5.270  2.1129  0.1467  0.4575
   61SOL     OW 1081   1.801   0.617   4.650  0.3713 -0.3336  0.0535
   61SOL    HW1 1082   1.704   0.599   4.631  0.5643 -0.7917 -0.5178
   61SOL    HW2 1083   1.814   0.625   4.749 -0.6102  1.8323  0.0686
   62SOL     OW 1084   3.260   0.936   4.962 -0.1514  0.2427 -0.2429
   62SOL    HW1 1085   3.331   0.995   4.925  0.4337  0.2589  0.8432
   62SOL    HW2 1086   3.172   0.957   4.919  0.1819  1.4040 -0.3864
   63SOL     OW 1087   6.326   2.162   2.456  0.0645  0.6866  0.1367
   63SOL    HW1 1088   6.403   2.198   2.509 -0.6846  2.0951  0.3074
   63SOL    HW2 1089   6.361   2.111   2.377  1.1678  0.5194  0.7068
   64SOL     OW 1090   5.667   0.692   6.366 -0.2723 -0.1236  0.0526
   64SOL    HW1 1091   5.673   0.763   6.436 -1.7106  0.4155 -0.3371
   64SOL    HW2 1092   5.619   0.728   6.286 -0.8980 -1.4864 -0.2135
   65SOL     OW 1093   1.858   4.242   4.190 -0.1797 -0.4392  0.0596
   65SOL    HW1 1094   1.788   4.201   4.249  0.5921 -0.4025  1.0270
   65SOL    HW2 1095   1.870   4.339   4.214  0.4444 -0.5317  0.1428
   66SOL     OW 1096   3.302   1.215   0.771 -0.1536  0.3109  0.1429
   66SOL    HW1 1097   3.382   1.194   0.827  0.5675  1.2845 -0.4944
   66SOL    HW2 1098   3.314   1.305   0.729 -1.6257  0.5119  0.1081
   67SOL     OW 1099   6.634   5.359   3.506  0.1269 -0.0255 -0.3262
   67SOL    HW1 1100   6.536   5.375   3.492  0.4684  1.3559 -1.3940
   67SOL    HW2 1101   6.661   5.275   3.460 -0.5072 -0.3016 -0.2082
   68SOL     OW 1102   5.256   1.163   5.550  0.1991 -0.1010 -0.2694
   68SOL    HW1 1103   5.345   1.123   5.528  0.3371  0.6873 -1.1906
   68SOL    HW2 1104   5.205   1.099   5.608  0.3106 -1.7361 -1.8614
   69SOL     OW 1105   3.068   3.113   4.930 -0.2668 -0.3496 -0.3078
   69SOL    HW1 1106   2.981   3.121   4.881 -0.5294 -0.3399  0.1528
   69SOL    HW2 1107   3.118   3.199   4.924 -0.3092 -0.3403 -0.5328
   70SOL     OW 1108   3.825   1.566   2.573  0.0201 -0.4531  0.3698
   70SOL    HW1 1109   3.758   1.628   2.533 -1.3950 -1.5878  0.9238
   70SOL    HW2 1110   3.912   1.575   2.524 -0.2199  1.7253  0.2424
   71SOL     OW 1111   1.439   4.521   1.256  0.7497  0.0621 -0.1532
   71SOL    HW1 1112   1.516   4.459   1.265  0.5376  0.0455  2.1156
   71SOL    HW2 1113   1.353   4.470   1.268  0.5711  0.6907  1.6667
   72SOL     OW 1114   3.623   6.381   4.378 -0.1385 -0.2215  0.2103
   72SOL    HW1 1115   3.675   6.413   4.457 -2.0663  2.1509  0.6226
   72SOL    HW2 1116   3.652   6.430   4.296 -1.1618  0.6002  0.3153
   73SOL     OW 1117   3.105   1.665   6.455 -0.0383 -0.3771 -0.3182
   73SOL    HW1 1118   3.156   1.635   6.536 -0.1009 -0.5469 -0.3401
   73SOL    HW2 1119   3.093   1.764   6.457 -1.3541 -0.5307  0.6621
   74SOL     OW 1120   5.224   6.154   5.613  0.4886 -0.6178 -0.0364
   74SOL    HW1 1121   5.183   6.117   5.529 -1.2966  1.0576  0.0283
   74SOL    HW2 1122   5.308   6.203   5.589  2.0651 -3.2807 -0.3014
   75SOL     OW 1123   2.185   0.511   5.721 -0.1077  0.6026  0.1860
   75SOL    HW1 1124   2.111   0.496   5.786 -0.9315 -0.1322 -0.8799
   75SOL    HW2 1125   2.244   0.430   5.718  0.9676  1.3056  1.2670
   76SOL     OW 1126   3.910   0.865   6.267  0.3600 -0.0716 -0.4555
   76SOL    HW1 1127   3.873   0.939   6.211 -1.6186  0.3583  1.2874
   76SOL    HW2 1128   4.006   0.852   6.246  0.3630  1.9143 -1.9502
   77SOL     OW 1129   4.939   3.966   0.376 -0.1760  0.3692 -0.0445
   77SOL    HW1 1130   4.988   4.022   0.443 -1.3296  0.9905  0.3049
   77SOL    HW2 1131   4.947   3.870   0.400 -0.8610  0.6085  1.1948
   78SOL     OW 1132   5.966   2.458   5.626  0.5442 -0.8576  0.1576
   78SOL    HW1 1133   5.907   2.433   5.549 -0.9729  0.4570  0.8284
   78SOL    HW2 1134   5.970   2.558   5.634  0.9339 -0.9687  1.5761
   79SOL     OW 1135   3.166   6.096   6.695  0.2283 -0.0024 -0.3864
   79SOL    HW1 1136   3.266   6.107   6.693  0.1764  0.4554 -0.5516
   79SOL    HW2 1137   3.129   6.147   6.772 -0.1354  2.0487 -1.8468
   80SOL     OW 1138   5.778   2.090   5.676  0.0220 -0.6621 -0.0279
   80SOL    HW1 1139   5.818   2.148   5.747 -1.8180 -0.8229  1.1784
   80SOL    HW2 1140   5.681   2.074   5.695 -0.2129 -1.7796 -1.8887
   81SOL     OW 1141   0.681   6.422   4.502 -0.2408 -0.3804 -0.5235
   81SOL    HW1 1142   0.662   6.456   4.410  0.6428 -0.8673 -0.9035
   81SOL    HW2 1143   0.776   6.391   4.506  0.5396  1.9529  1.2656
   82SOL     OW 1144   6.244   5.333   6.775 -0.6633  0.0974 -0.3246
   82SOL    HW1 1145   6.159   5.285   6.751 -0.5113  0.2871 -1.3118
   82SOL    HW2 1146   6.311   5.267   6.808 -1.4436  0.0457  1.2572
   83SOL     OW 1147   0.450   6.072   4.473  0.4872 -0.6187  0.2547
   83SOL    HW1 1148   0.433   6.162   4.513  1.9219 -0.4456  0.5262
   83SOL    HW2 1149   0.482   6.083   4.379  2.2682 -0.7260  0.8175
   84SOL     OW 1150   6.124   2.017   2.269 -0.2190 -0.1983 -0.3408
   84SOL    HW1 1151   6.082   2.108   2.271 -1.0784 -0.5894  1.2353
   84SOL    HW2 1152   6.215   2.023   2.227 -0.7507  1.1554 -1.3712
   85SOL     OW 1153   0.521   2.099   5.423  0.0116 -0.1634 -0.1710
   85SOL    HW1 1154   0.436   2.045   5.419 -0.2345  0.0514  1.3877
   85SOL    HW2 1155   0.596   2.040   5.452  0.0788 -0.0264 -0.0668
   86SOL     OW 1156   1.832   6.826   4.922 -0.2221  0.3718 -0.1126
   86SOL    HW1 1157   1.922   6.825   4.879 -1.0505 -1.2708 -2.0041
   86SOL    HW2 1158   1.837   6.783   5.012  0.6530 -1.2041 -0.8687
   87SOL     OW 1159   4.753   5.447   2.410  0.3544 -0.3746 -0.5360
   87SOL    HW1 1160   4.729   5.544   2.411 -0.4332 -0.5535 -1.2217
   87SOL    HW2 1161   4.760   5.414   2.316 -2.9836 -1.8004 -0.4327
   88SOL     OW 1162   4.768   0.301   2.573  0.9720 -0.3813 -0.3642
   88SOL    HW1 1163   4.740   0.276   2.666  0.3533  0.0560 -0.4222
   88SOL    HW2 1164   4.715   0.247   2.507  1.3331 -0.6145 -0.4608
   89SOL     OW 1165   6.948   1.218   4.588 -0.0931  0.0546  0.2257
   89SOL    HW1 1166   6.959   1.263   4.499  0.0751 -0.9941 -0.3101
   89SOL    HW2 1167   6.990   1.127   4.584  2.1587  0.9175  2.1546
   90SOL     OW 1168   6.953   6.581   4.588 -0.2527 -0.0342  0.1258
   90SOL    HW1 1169   6.884   6.576   4.661  1.5964  0.0469  1.9696
   90SOL    HW2 1170   6.962   6.491   4.546 -2.2160  0.2079 -0.8968
   91SOL     OW 1171   6.461   7.018   3.936  0.2363 -0.2440 -0.8044
   91SOL    HW1 1172   6.378   6.983   3.979  0.0726  1.9047  0.7881
   91SOL    HW2 1173   6.541   6.971   3.974 -0.0953 -0.4426 -0.3504
   92SOL     OW 1174   5.604   5.476   1.900  0.3342 -0.5573 -0.1959
   92SOL    HW1 1175   5.580   5.512   1.809 -0.4362 -0.9667 -0.1671
   92SOL    HW2 1176   5.668   5.539   1.945  0.2924 -0.0693 -0.7996
   93SOL     OW 1177   3.237   4.669   5.369 -0.3601  0.1945 -0.1800
   93SOL    HW1 1178   3.219   4.604   5.296 -0.1247  1.1350 -1.0970
   93SOL    HW2 1179   3.243   4.762   5.331  3.3179  0.3639  0.4205
   94SOL     OW 1180   1.487   6.181   3.837  0.7856 -0.6987  0.2104
   94SOL    HW1 1181   1.444   6.104   3.790  2.4828 -2.3387  1.1945
   94SOL    HW2 1182   1.579   6.154   3.868  1.5782  1.8452  0.3142
   95SOL     OW 1183   0.394   1.869   5.024 -0.3844  0.0863 -0.1503
   95SOL    HW1 1184   0.467   1.842   5.087 -1.6095 -0.1113  1.2384
   95SOL    HW2 1185   0.434   1.893   4.935  1.5763  2.0515  1.1808
   96SOL     OW 1186   1.341   4.630   3.895  0.0480 -0.1434  0.2985
   96SOL    HW1 1187   1.343   4.707   3.959  1.7449 -0.7024  0.9831
   96SOL    HW2 1188   1.393   4.553   3.934  1.4185 -0.3844 -1.8779
   97SOL     OW 1189   6.387   2.016   6.213 -0.7084  0.7367  0.3345
   97SOL    HW1 1190   6.468   2.053   6.167 -1.7042  1.7888 -0.6390
   97SOL    HW2 1191   6.320   1.988   6.144 -0.5266 -1.7359  1.0716
   98SOL     OW 1192   4.350   1.413   0.703 -0.0227  0.1189 -0.0510
   98SOL    HW1 1193   4.399   1.398   0.617 -1.0352 -1.5946 -0.3804
   98SOL    HW2 1194   4.299   1.498   0.698 -2.7296 -1.4816 -2.5315
   99SOL     OW 1195   4.008   1.091   1.691 -0.1945 -0.2806  0.1064
   99SOL    HW1 1196   4.053   1.154   1.627  1.4336 -1.3429  0.1605
   99SOL    HW2 1197   4.006   0.999   1.651  0.3779 -0.8488  1.3407
  100SOL     OW 1198   1.233   6.123   1.342 -0.2094  0.1245 -0.2270
  100SOL    HW1 1199   1.211   6.147   1.248 -1.0369  1.3912  0.2466
  100SOL    HW2 1200   1.271   6.203   1.388 -1.2955  0.0238  0.9229
  101SOL     OW 1201   1.367   5.395   3.192 -0.3674 -0.0226  0.6289
  101SOL    HW1 1202   1.433   5.371   3.263 -1.6538  0.6111  2.0903
  101SOL    HW2 1203   1.320   5.480   3.216 -3.0378 -1.3780  0.6459
  102SOL     OW 1204   3.650   1.738   2.969  0.5029  0.2409 -0.0635
  102SOL    HW1 1205   3.697   1.664   2.919 -1.0194 -1.3250  0.7282
  102SOL    HW2 1206   3.558   1.749   2.933 -0.3885 -0.4448  1.8794
  103SOL     OW 1207   5.161   6.212   1.718 -0.1998 -0.0047 -0.4342
  103SOL    HW1 1208   5.218   6.130   1.722 -0.9197 -0.5459 -0.9948
  103SOL    HW2 1209   5.208   6.287   1.765  0.6488 -0.6201 -0.2645
  104SOL     OW 1210   5.736   6.460   3.842  0.2366  0.6254 -0.6430
  104SOL    HW1 1211   5.703   6.368   3.864 -0.2960  0.9563 -0.0110
  104SOL    HW2 1212   5.670   6.506   3.783  0.3837  0.6926 -0.7573
  105SOL     OW 1213   5.821   1.465   6.103 -0.0028 -0.2450  0.5803
  105SOL    HW1 1214   5.742   1.423   6.148 -0.4153  0.4803  0.5492
  105SOL    HW2 1215   5.894   1.398   6.094  0.1355 -0.3767  2.4524
  106SOL     OW 1216   3.202   0.427   1.571 -0.7464 -0.6545 -0.1122
  106SOL    HW1 1217   3.112   0.384   1.569 -1.0968 -0.3776  3.3291
  106SOL    HW2 1218   3.269   0.366   1.529 -1.9057 -2.7650  0.9550
  107SOL     OW 1219   3.257   2.635   5.684 -0.5404 -0.4649  0.0646
  107SOL    HW1 1220   3.223   2.570   5.752 -2.3744  0.9232  0.5468
  107SOL    HW2 1221   3.293   2.716   5.730 -1.0119  0.1229 -0.5810
  108SOL     OW 1222   3.775   6.008   4.857  0.1101 -0.4438 -0.2775
  108SOL    HW1 1223   3.682   6.024   4.892 -0.0384 -0.7686 -0.5168
  108SOL    HW2 1224   3.841   6.031   4.928 -0.1937 -1.1714  0.2654
  109SOL     OW 1225   5.164   6.330   3.525  0.4009  0.1468  0.3275
  109SOL    HW1 1226   5.216   6.341   3.441  0.8092  0.4031  0.6137
  109SOL    HW2 1227   5.070   6.304   3.503  1.0406 -1.9452 -0.1555
  110SOL     OW 1228   5.216   5.608   3.885 -0.3114  0.2751 -0.3919
  110SOL    HW1 1229   5.293   5.657   3.845  0.9000 -1.6817 -0.6015
  110SOL    HW2 1230   5.130   5.648   3.853  0.5124  3.3770  0.8807
  111SOL     OW 1231   4.425   0.737   3.157 -0.5255 -0.2032  0.6501
  111SOL    HW1 1232   4.502   0.778   3.207 -0.6030 -0.6997  1.1890
  111SOL    HW2 1233   4.441   0.746   3.059  1.8829 -3.1825  0.6123
  112SOL     OW 1234   6.909   2.863   5.742 -0.0330 -0.0951 -0.7702
  112SOL    HW1 1235   6.882   2.775   5.779 -2.3502 -0.2165 -2.5447
  112SOL    HW2 1236   6.969   2.910   5.807 -0.4230 -2.0740  1.1118
  113SOL     OW 1237   6.312   5.904   4.362 -0.4471 -0.3000 -0.1078
  113SOL    HW1 1238   6.261   5.897   4.277  0.1755 -0.3321 -0.4839
  113SOL    HW2 1239   6.388   5.968   4.351  0.1226 -0.9113  0.1733
  114SOL     OW 1240   2.100   5.207   0.793  0.6392  0.1195  0.4972
  114SOL    HW1 1241   2.125   5.216   0.696 -0.5851 -0.9444  0.0579
  114SOL    HW2 1242   2.166   5.150   0.840  0.7392 -0.1119  0.0773
  115SOL     OW 1243   4.852   0.263   4.226 -0.6281 -0.2291  0.2780
  115SOL    HW1 1244   4.793   0.256   4.146  1.5269 -2.1997 -1.2555
  115SOL    HW2 1245   4.870   0.171   4.262  2.7363  0.0488 -0.3696
  116SOL     OW 1246   5.198   3.405   3.738  0.2048  0.1136 -0.2137
  116SOL    HW1 1247   5.259   3.396   3.817  0.7530  0.8363 -0.5459
  116SOL    HW2 1248   5.247   3.451   3.663 -0.5261  0.0544 -0.7351
  117SOL     OW 1249   1.214   5.712   0.933  0.1237 -0.4692  0.0945
  117SOL    HW1 1250   1.252   5.637   0.988  1.4663 -0.7452 -1.1724
  117SOL    HW2 1251   1.227   5.798   0.982  0.1569 -0.8489  0.7763
  118SOL     OW 1252   2.857   1.787   3.315 -0.7820 -0.0092 -0.9609
  118SOL    HW1 1253   2.760   1.810   3.309 -0.8540  0.0520  0.2436
  118SOL    HW2 1254   2.893   1.816   3.404 -0.1407 -1.7952 -0.6032
  119SOL     OW 1255   0.515   2.467   6.547 -0.3255  0.4762 -0.0478
  119SOL    HW1 1256   0.558   2.377   6.560 -1.2915 -0.0339 -0.3303
  119SOL    HW2 1257   0.433   2.473   6.604  0.6179  1.8062  1.2271
  120SOL     OW 1258   3.144   0.096   1.664  0.3095 -0.6852  0.1888
  120SOL    HW1 1259   3.077   0.022   1.673 -0.0066 -0.4165  0.0667
  120SOL    HW2 1260   3.099   0.177   1.626  0.7992 -0.6426 -0.3136
  121SOL     OW 1261   4.107   2.195   4.928 -0.1036 -0.1162 -0.0892
  121SOL    HW1 1262   4.180   2.141   4.886  0.0999  1.8315 -2.4505
  121SOL    HW2 1263   4.143   2.286   4.952 -1.5917  0.6718 -0.7188
  122SOL     OW 1264   0.471   1.555   3.658 -0.3288  0.0963  0.2807
  122SOL    HW1 1265   0.519   1.522   3.577 -0.3910 -2.6438  1.2424
  122SOL    HW2 1266   0.537   1.590   3.724 -0.4134  4.7937 -1.7572
  123SOL     OW 1267   0.039   2.419   2.372  0.4140  0.4677  0.4731
  123SOL    HW1 1268   0.116   2.463   2.327 -0.3555  0.9418 -0.4126
  123SOL    HW2 1269   0.029   2.325   2.338  2.2325 -0.5677  2.5731
  124SOL     OW 1270   5.521   2.855   2.069  0.3741  0.1949  0.0212
  124SOL    HW1 1271   5.508   2.780   2.004 -0.5589 -1.0440  1.5614
  124SOL    HW2 1272   5.467   2.838   2.151 -1.6168  3.6424 -0.3949
  125SOL     OW 1273   1.731   3.422   2.431 -0.9137 -0.5501  0.0403
  125SOL    HW1 1274   1.830   3.421   2.445 -0.9157  0.2260  0.1715
  125SOL    HW2 1275   1.711   3.435   2.333 -0.8780 -0.1444  0.0838
  126SOL     OW 1276   3.888   3.009   6.974  0.0175 -0.1033  0.4308
  126SOL    HW1 1277   3.952   2.962   6.912 -0.8814  0.6809 -1.1501
  126SOL    HW2 1278   3.893   2.967   7.065  1.4298 -1.2565 -0.1408
  127SOL     OW 1279   6.396   0.592   6.943  0.2173  0.1878 -0.1999
  127SOL    HW1 1280   6.377   0.535   7.023 -0.9243 -2.0566 -1.9570
  127SOL    HW2 1281   6.418   0.685   6.973 -0.5221 -0.4616  2.6721
  128SOL     OW 1282   4.204   1.223   0.825 -0.1122 -0.0788 -0.4587
  128SOL    HW1 1283   4.130   1.268   0.875 -1.0995 -1.0799 -0.9939
  128SOL    HW2 1284   4.251   1.291   0.769 -0.8039  0.5144 -0.3392
  129SOL     OW 1285   2.718   2.265   4.920 -0.1090 -0.5870  0.0484
  129SOL    HW1 1286   2.756   2.238   5.008  0.9963 -0.0143 -0.2285
  129SOL    HW2 1287   2.790   2.262   4.850 -0.3274  1.3619 -0.3280
  130SOL     OW 1288   0.937   1.878   4.445 -0.5063 -0.0396 -0.0136
  130SOL    HW1 1289   0.903   1.866   4.538  1.4474 -0.8669  0.6434
  130SOL    HW2 1290   0.960   1.974   4.430  0.0904 -0.0532  0.7224
  131SOL     OW 1291   5.850   0.093   3.990  0.8149  0.3048  0.3605
  131SOL    HW1 1292   5.832   0.100   4.088  1.7576  0.1803  0.5476
  131SOL    HW2 1293   5.763   0.093   3.941  0.2263 -1.6070  1.3173
  132SOL     OW 1294   1.059   0.744   1.971 -0.2947 -0.4214 -0.0515
  132SOL    HW1 1295   1.055   0.789   1.882  0.4736  0.1201  0.1755
  132SOL    HW2 1296   1.145   0.767   2.016 -0.1064 -1.7244  0.2899
  133SOL     OW 1297   6.742   5.928   4.097 -0.0024 -0.3288 -1.0123
  133SOL    HW1 1298   6.835   5.906   4.068  0.1920 -0.3077 -0.4291
  133SOL    HW2 1299   6.742   6.015   4.146 -0.0345 -1.1182  0.4565
  134SOL     OW 1300   6.108   4.994   3.247  0.1318 -0.0548  0.0915
  134SOL    HW1 1301   6.071   5.012   3.339 -2.5161 -2.0677 -0.4560
  134SOL    HW2 1302   6.158   4.907   3.248  2.1844  1.0561  0.0655
  135SOL     OW 1303   4.174   0.863   3.972 -0.0412  0.1519 -0.9823
  135SOL    HW1 1304   4.146   0.919   4.050  1.3250  1.4237 -1.3713
  135SOL    HW2 1305   4.214   0.778   4.006 -1.0815 -0.1107 -0.3631
  136SOL     OW 1306   6.395   5.309   4.206  0.7635 -0.0993 -0.2577
  136SOL    HW1 1307   6.481   5.282   4.162  0.4641  0.0077 -0.9208
  136SOL    HW2 1308   6.410   5.319   4.304  1.9600  1.7421 -0.5820
  137SOL     OW 1309   4.899   1.622   5.994  0.3867 -0.2326  0.0313
  137SOL    HW1 1310   4.920   1.525   6.009  1.8834  0.3867  2.6981
  137SOL    HW2 1311   4.984   1.675   5.996 -0.5400  1.3162  0.2768
  138SOL     OW 1312   3.668   5.002   4.577 -0.1623 -0.1593 -0.2712
  138SOL    HW1 1313   3.696   4.958   4.492 -0.9350  0.0933 -0.6722
  138SOL    HW2 1314   3.568   5.012   4.578 -0.0247  1.6084 -0.2153
  139SOL     OW 1315   2.521   0.223   6.539 -0.1308  0.2487 -0.7622
  139SOL    HW1 1316   2.521   0.316   6.577  1.5640 -0.1054  0.2095
  139SOL    HW2 1317   2.573   0.222   6.454  1.8124 -0.1909  0.3802
  140SOL     OW 1318   1.151   3.718   2.445 -0.3654 -0.5946 -0.0837
  140SOL    HW1 1319   1.151   3.733   2.544 -1.4177  0.1082 -0.1750
  140SOL    HW2 1320   1.245   3.719   2.412  0.1544 -2.6801  1.1609
  141SOL     OW 1321   0.498   3.587   1.861  0.3603 -0.2391  0.1406
  141SOL    HW1 1322   0.499   3.537   1.947  3.6360  0.3591  0.5692
  141SOL    HW2 1323   0.490   3.523   1.785 -5.2144 -0.6763  0.6809
  142SOL     OW 1324   2.283   5.679   1.225 -0.7592  0.4938 -0.1874
  142SOL    HW1 1325   2.221   5.747   1.265 -0.7581  0.5958 -0.3589
  142SOL    HW2 1326   2.336   5.635   1.298 -1.0203  0.4185 -0.0418
  143SOL     OW 1327   5.081   5.304   2.058  0.0805 -0.3736  0.3982
  143SOL    HW1 1328   5.022   5.269   1.985 -1.5820  1.2908  0.8491
  143SOL    HW2 1329   5.157   5.355   2.017  1.1476 -2.3185 -0.1832
  144SOL     OW 1330   2.594   0.073   0.927  0.2459  0.2041 -0.1581
  144SOL    HW1 1331   2.667   0.027   0.978 -0.4170  0.6506  1.2502
  144SOL    HW2 1332   2.510   0.072   0.982 -1.2345 -1.5079 -2.3037
  145SOL     OW 1333   0.051   5.853   6.516 -0.2443 -0.3668  0.6688
  145SOL    HW1 1334   0.122   5.885   6.579  1.4786 -0.1460 -1.2733
  145SOL    HW2 1335   0.043   5.917   6.439 -0.3559 -1.9365 -0.6950
  146SOL     OW 1336   0.916   6.302   1.140  0.5777  0.4646  0.4689
  146SOL    HW1 1337   0.839   6.286   1.202  0.1141  1.0196  0.0462
  146SOL    HW2 1338   0.881   6.327   1.050  1.2341 -0.7043 -0.1379
  147SOL     OW 1339   6.356   4.004   1.388 -0.2852 -0.2957  0.1731
  147SOL    HW1 1340   6.361   4.034   1.292 -2.1510  3.5123  1.0583
  147SOL    HW2 1341   6.434   4.040   1.439 -0.3715 -0.5458  0.4857
  148SOL     OW 1342   0.868   0.215   5.300 -0.5283  0.6374 -0.5518
  148SOL    HW1 1343   0.942   0.241   5.237 -0.8789  1.6747 -0.5543
  148SOL    HW2 1344   0.907   0.191   5.389 -0.2054  1.7667 -0.3668
  149SOL     OW 1345   1.985   6.391   6.455 -0.0443 -0.2240  0.4729
  149SOL    HW1 1346   2.035   6.358   6.375 -1.9892  1.6329 -1.6370
  149SOL    HW2 1347   2.023   6.479   6.484 -1.8165  1.1048 -1.0270
  150SOL     OW 1348   1.403   5.204   5.021 -0.2718 -0.1733 -0.2964
  150SOL    HW1 1349   1.362   5.176   5.108 -0.4390 -1.1672 -0.6848
  150SOL    HW2 1350   1.488   5.253   5.040 -0.7125  0.3419  0.4499
  151SOL     OW 1351   3.723   6.162   1.786 -0.3704  0.7007  0.5829
  151SOL    HW1 1352   3.667   6.244   1.778 -1.1703  0.1544  0.4215
  151SOL    HW2 1353   3.683   6.089   1.731  1.3719  0.7271 -0.8305
  152SOL     OW 1354   2.156   0.648   4.320  0.4574 -0.7870  0.0038
  152SOL    HW1 1355   2.157   0.619   4.415  0.7226 -1.3749 -0.1697
  152SOL    HW2 1356   2.105   0.733   4.311  0.0529 -0.9635  0.6000
  153SOL     OW 1357   0.606   0.927   1.988  0.7212 -0.0059  0.0682
  153SOL    HW1 1358   0.584   0.982   2.069  0.8106 -0.4228  0.3830
  153SOL    HW2 1359   0.664   0.850   2.016 -0.3339 -0.9025 -0.1661
  154SOL     OW 1360   1.603   1.477   1.713  0.1550 -0.2822 -0.2051
  154SOL    HW1 1361   1.556   1.433   1.789  0.7739 -1.3614 -0.4307
  154SOL    HW2 1362   1.565   1.444   1.626  1.4294 -1.3345 -0.3928
  155SOL     OW 1363   0.538   1.323   4.060 -0.5285 -0.7526 -0.4289
  155SOL    HW1 1364   0.479   1.247   4.088 -1.0087  0.5597  2.5330
  155SOL    HW2 1365   0.594   1.351   4.138  0.3621  1.2743 -1.7326
  156SOL     OW 1366   1.112   3.800   0.932 -0.3040  0.0161 -0.1722
  156SOL    HW1 1367   1.104   3.751   0.845  0.3400 -0.7315  0.1849
  156SOL    HW2 1368   1.147   3.892   0.915 -0.4273 -0.0325 -0.7223
  157SOL     OW 1369   5.247   1.871   2.155  0.1230 -0.3801 -0.0505
  157SOL    HW1 1370   5.241   1.859   2.254  0.7421  2.4776  0.4297
  157SOL    HW2 1371   5.259   1.782   2.111  1.7156 -1.5919  2.5894
  158SOL     OW 1372   1.518   0.954   4.165 -0.0412 -0.3006 -0.0192
  158SOL    HW1 1373   1.492   1.029   4.226 -1.2081 -0.9858  0.3532
  158SOL    HW2 1374   1.593   0.902   4.205  1.3838  1.1527 -0.6782
  159SOL     OW 1375   6.701   3.644   0.679  0.0244  0.1808  0.0964
  159SOL    HW1 1376   6.628   3.658   0.746  1.3134 -0.8838  1.7929
  159SOL    HW2 1377   6.706   3.724   0.618 -2.5750  0.2311 -0.1466
  160SOL     OW 1378   6.821   6.653   0.155 -0.0027 -0.1326  0.7377
  160SOL    HW1 1379   6.725   6.634   0.173  0.1394 -2.2581 -0.3100
  160SOL    HW2 1380   6.878   6.617   0.229  0.0130  0.7236  1.1446
  161SOL     OW 1381   2.253   3.562   5.746  0.1843  0.2670  0.3021
  161SOL    HW1 1382   2.302   3.587   5.830  0.2091 -1.4224  0.8303
  161SOL    HW2 1383   2.294   3.479   5.708 -1.1552 -0.1801 -0.2119
  162SOL     OW 1384   4.273   6.616   2.614 -0.2168 -0.2524 -0.3485
  162SOL    HW1 1385   4.183   6.590   2.578 -0.3145 -0.1461 -0.1807
  162SOL    HW2 1386   4.343   6.556   2.574  0.2876  2.4952 -4.1555
  163SOL     OW 1387   5.270   0.212   2.959 -0.0918  0.6038  0.4695
  163SOL    HW1 1388   5.230   0.302   2.977 -0.2494  0.1217  3.0025
  163SOL    HW2 1389   5.316   0.180   3.042  0.3300 -1.4665 -0.5100
  164SOL     OW 1390   6.489   4.449   2.054 -0.2727  0.1305 -0.0099
  164SOL    HW1 1391   6.588   4.440   2.056 -0.2597 -0.7226 -1.8554
  164SOL    HW2 1392   6.447   4.370   2.100 -0.1284  0.9784  1.6415
  165SOL     OW 1393   0.862   3.200   4.935  0.3289  0.2010 -0.3095
  165SOL    HW1 1394   0.903   3.142   5.005 -0.5429 -0.3001 -0.1947
  165SOL    HW2 1395   0.819   3.279   4.978  0.5718  0.3688 -0.3697
  166SOL     OW 1396   1.708   6.407   1.485  0.3859 -0.2150  0.2898
  166SOL    HW1 1397   1.758   6.467   1.547 -1.0509  0.8743  0.4373
  166SOL    HW2 1398   1.764   6.327   1.463  1.5844  0.2328  1.6136
  167SOL     OW 1399   6.937   3.106   0.902  0.0241 -0.1527 -0.5621
  167SOL    HW1 1400   6.851   3.055   0.909  0.6586 -1.4893 -1.8525
  167SOL    HW2 1401   6.926   3.197   0.942 -1.8127 -0.5057 -0.1988
  168SOL     OW 1402   0.406   6.301   1.047 -0.2342 -0.9898  0.5182
  168SOL    HW1 1403   0.479   6.236   1.026 -2.4519 -3.3731 -0.3568
  168SOL    HW2 1404   0.343   6.260   1.114 -2.4609 -0.4398 -1.0884
  169SOL     OW 1405   0.800   1.065   6.598 -0.0564 -0.4805 -0.0405
  169SOL    HW1 1406   0.870   1.129   6.631  0.4583 -0.5266 -0.9882
  169SOL    HW2 1407   0.710   1.106   6.609  0.2665  0.4640 -0.7107
  170SOL     OW 1408   5.856   1.198   4.429  0.2817  0.0611 -0.3885
  170SOL    HW1 1409   5.805   1.284   4.441  1.2325  0.2757  3.0060
  170SOL    HW2 1410   5.791   1.124   4.414 -0.9639  0.6843  1.4961
  171SOL     OW 1411   3.927   5.077   6.855  0.4202 -0.1566 -0.2095
  171SOL    HW1 1412   3.837   5.119   6.840  1.0525  0.8664 -1.2449
  171SOL    HW2 1413   3.949   5.080   6.953 -0.2499  0.4458 -0.0676
  172SOL     OW 1414   2.196   2.681   2.169 -0.0548 -0.1874  0.1177
  172SOL    HW1 1415   2.274   2.626   2.142  2.1171  3.2540 -1.3268
  172SOL    HW2 1416   2.111   2.635   2.143  1.3955 -3.8803  1.3857
  173SOL     OW 1417   6.215   6.058   5.733 -0.2460 -0.0982  0.4436
  173SOL    HW1 1418   6.168   6.124   5.675 -0.3786  0.6104  1.3533
  173SOL    HW2 1419   6.307   6.091   5.754  0.2605 -0.9261 -0.3431
  174SOL     OW 1420   1.566   3.627   3.843  0.0550 -0.0974  0.1886
  174SOL    HW1 1421   1.493   3.647   3.777 -0.6744  1.0425  1.2825
  174SOL    HW2 1422   1.651   3.611   3.795 -0.4636  0.6932 -1.0481
  175SOL     OW 1423   0.237   6.414   4.640 -0.5751  0.3156  0.1550
  175SOL    HW1 1424   0.198   6.405   4.548 -1.0078 -2.5923  0.5030
  175SOL    HW2 1425   0.179   6.471   4.697 -1.0499  0.9896 -0.9772
  176SOL     OW 1426   2.113   5.711   0.825 -0.1656  0.5416  0.7313
  176SOL    HW1 1427   2.189   5.650   0.848 -0.3562  0.1493  0.3387
  176SOL    HW2 1428   2.119   5.794   0.880 -0.2247 -0.0733  1.6905
  177SOL     OW 1429   4.777   0.722   2.201  0.0361  0.0207 -0.4778
  177SOL    HW1 1430   4.729   0.654   2.257 -0.4930  0.8508  0.0914
  177SOL    HW2 1431   4.714   0.759   2.133 -0.8547  2.6755  1.6353
  178SOL     OW 1432   6.069   4.223   5.350  0.2331  0.4418 -0.1785
  178SOL    HW1 1433   6.141   4.187   5.290 -0.1867 -0.2279 -0.2840
  178SOL    HW2 1434   6.030   4.149   5.405 -1.0683  0.5887 -0.8500
  179SOL     OW 1435   2.774   0.796   0.205  0.1774 -0.2230 -0.5409
  179SOL    HW1 1436   2.728   0.799   0.293  0.5122 -2.6788 -0.2088
  179SOL    HW2 1437   2.728   0.729   0.146  1.7614 -0.8693 -1.1030
  180SOL     OW 1438   6.262   2.723   5.882 -0.1812 -0.1459 -0.2299
  180SOL    HW1 1439   6.326   2.696   5.810  0.0348 -1.3455  0.3953
  180SOL    HW2 1440   6.306   2.713   5.971 -0.8498  0.1869  0.1451
  181SOL     OW 1441   2.922   3.359   3.957  0.1283 -0.0297 -0.2362
  181SOL    HW1 1442   2.877   3.317   3.878  2.1814 -3.1246  0.0740
  181SOL    HW2 1443   3.014   3.390   3.930 -0.3418  1.9232  0.2374
  182SOL     OW 1444   4.512   2.081   3.021  0.2064 -0.0514  0.1649
  182SOL    HW1 1445   4.594   2.127   3.055  0.2403  0.0759 -0.0827
  182SOL    HW2 1446   4.539   2.006   2.961  0.1922 -1.2851  1.6388
  183SOL     OW 1447   6.735   0.689   3.951 -0.3868 -0.1924  0.0094
  183SOL    HW1 1448   6.824   0.717   3.914  0.1780 -0.5543  1.0410
  183SOL    HW2 1449   6.672   0.670   3.876 -0.2730  2.1438 -0.7487
  184SOL     OW 1450   0.031   4.777   3.170 -0.2985 -0.3535  0.0277
  184SOL    HW1 1451  -0.023   4.860   3.159  1.6116  0.8104 -1.1595
  184SOL    HW2 1452   0.066   4.772   3.263  1.1813  1.2606 -0.3983
  185SOL     OW 1453   3.119   2.407   6.201 -0.2046  0.2445  0.3307
  185SOL    HW1 1454   3.051   2.382   6.132  0.8584 -0.5079 -0.4967
  185SOL    HW2 1455   3.091   2.372   6.290 -0.7499 -0.3211 -0.0542
  186SOL     OW 1456   4.968   0.209   4.857  0.1859 -0.4107  0.3491
  186SOL    HW1 1457   4.956   0.110   4.847 -0.2590 -0.2889 -0.4025
  186SOL    HW2 1458   4.885   0.256   4.825  1.6639  0.3602 -2.7349
  187SOL     OW 1459   6.167   6.877   4.656 -0.1070  0.0017  0.0971
  187SOL    HW1 1460   6.072   6.910   4.659 -0.0686  0.1106  0.1049
  187SOL    HW2 1461   6.225   6.944   4.611  0.1394  0.3619  0.9350
  188SOL     OW 1462   5.089   1.372   5.387  0.2129 -0.3756 -0.6393
  188SOL    HW1 1463   5.151   1.332   5.454  0.2275  0.2841 -0.2433
  188SOL    HW2 1464   5.001   1.393   5.430  0.3043  0.2787 -0.7524
  189SOL     OW 1465   2.880   4.779   3.143 -0.3376  0.1056  0.4924
  189SOL    HW1 1466   2.884   4.769   3.242 -1.8245 -2.6011  0.3716
  189SOL    HW2 1467   2.794   4.741   3.109  0.8671 -0.6058 -2.0088
  190SOL     OW 1468   3.937   0.146   6.664 -0.6623  0.3088 -0.5724
  190SOL    HW1 1469   3.873   0.092   6.608 -1.5744  0.0818  0.6532
  190SOL    HW2 1470   3.886   0.195   6.734  0.5130  0.1853  0.3933
  191SOL     OW 1471   5.618   0.820   0.809 -0.3950 -0.6270 -0.5263
  191SOL    HW1 1472   5.640   0.755   0.737  0.5911  1.1158 -1.8861
  191SOL    HW2 1473   5.670   0.799   0.891 -1.9135 -2.9485 -0.0596
  192SOL     OW 1474   6.416   2.513   6.351  0.0467 -0.5456 -0.3299
  192SOL    HW1 1475   6.341   2.562   6.395  0.5092 -1.3506  1.4353
  192SOL    HW2 1476   6.407   2.415   6.368  1.1469 -0.7194 -0.6481
  193SOL     OW 1477   6.668   5.461   5.989  0.2569  0.0208  0.3188
  193SOL    HW1 1478   6.574   5.493   6.003  0.6562  0.3666  2.6607
  193SOL    HW2 1479   6.666   5.368   5.953 -0.9495  0.4627 -0.8623
  194SOL     OW 1480   3.807   6.953   4.035  0.1029  0.1990  0.2853
  194SOL    HW1 1481   3.843   7.040   4.067  0.5696 -0.1894  0.8498
  194SOL    HW2 1482   3.712   6.942   4.064  0.4126  0.0045  1.2679
  195SOL     OW 1483   0.962   5.578   2.435  0.7544  1.0116 -0.1310
  195SOL    HW1 1484   0.865   5.561   2.420  0.4522  2.0988  0.4590
  195SOL    HW2 1485   1.000   5.631   2.359  0.6190  1.4837  0.1205
  196SOL     OW 1486   1.459   2.412   5.718  0.5460 -0.1571 -0.3219
  196SOL    HW1 1487   1.382   2.351   5.697 -0.1015  0.9399 -1.2545
  196SOL    HW2 1488   1.432   2.476   5.791  0.0501  1.1334 -1.5904
  197SOL     OW 1489   2.285   0.323   2.131 -0.1764  0.3554 -0.1750
  197SOL    HW1 1490   2.308   0.240   2.081  1.1967  0.4885  0.1971
  197SOL    HW2 1491   2.318   0.403   2.081  1.3411  0.4837  0.9621
  198SOL     OW 1492   3.414   1.119   4.855 -0.4493  0.3563  0.5710
  198SOL    HW1 1493   3.466   1.129   4.770 -0.3111 -2.2557  0.2537
  198SOL    HW2 1494   3.341   1.187   4.858  1.5495  2.6715 -0.0250
  199SOL     OW 1495   2.751   0.597   5.601  0.0657 -0.0327  0.1210
  199SOL    HW1 1496   2.661   0.558   5.581  0.3584 -0.5644 -0.1656
  199SOL    HW2 1497   2.793   0.630   5.516 -0.9893  2.7294  0.5613
  200SOL     OW 1498   5.954   3.487   6.625 -0.2040  1.0498  0.0705
  200SOL    HW1 1499   5.968   3.431   6.706 -1.4742  0.8711  0.1954
  200SOL    HW2 1500   6.041   3.503   6.580  0.1328 -1.6771 -0.4143
  201SOL     OW 1501   1.184   0.272   6.352 -0.3007 -0.8957 -0.0411
  201SOL    HW1 1502   1.164   0.182   6.390 -0.8482 -0.6791  0.1886
  201SOL    HW2 1503   1.121   0.339   6.389  0.9279 -0.1636  0.8063
  202SOL     OW 1504   5.266   6.870   6.988  0.0542 -0.0853 -0.0633
  202SOL    HW1 1505   5.313   6.804   7.046 -1.9312 -1.6620 -0.1438
  202SOL    HW2 1506   5.252   6.832   6.897 -0.5830  0.7032 -0.3110
  203SOL     OW 1507   6.153   5.524   6.182 -0.4497 -0.0375  0.1243
  203SOL    HW1 1508   6.225   5.528   6.113 -1.3751 -0.5650 -0.9000
  203SOL    HW2 1509   6.142   5.614   6.224  0.3222  0.2192 -0.1990
  204SOL     OW 1510   4.767   0.823   4.605  0.5033  0.1652  0.2850
  204SOL    HW1 1511   4.801   0.781   4.521 -0.1270  0.5891 -0.1879
  204SOL    HW2 1512   4.811   0.779   4.684  1.5831  0.1936 -0.2780
  205SOL     OW 1513   1.731   3.524   2.752 -0.0788  0.1078  0.6094
  205SOL    HW1 1514   1.678   3.475   2.682  2.5429  0.2668 -1.6544
  205SOL    HW2 1515   1.802   3.464   2.788  1.6376  1.3828 -0.4529
  206SOL     OW 1516   0.651   4.936   2.345 -0.2617 -0.2461 -0.0236
  206SOL    HW1 1517   0.748   4.927   2.366  0.1691  0.5109 -1.4957
  206SOL    HW2 1518   0.638   5.016   2.286 -1.8735  0.0555  0.7035
  207SOL     OW 1519   0.284   2.825   4.954  0.6119 -0.2520 -0.4941
  207SOL    HW1 1520   0.260   2.911   4.998  2.0111  0.8860 -1.8217
  207SOL    HW2 1521   0.380   2.804   4.973  0.5408 -1.0299 -0.9444
  208SOL     OW 1522   1.054   2.347   4.396  0.0288 -1.0451  0.1497
  208SOL    HW1 1523   0.968   2.300   4.417 -0.6196 -0.9088 -1.9841
  208SOL    HW2 1524   1.036   2.422   4.333  1.3045  1.0758  2.1688
  209SOL     OW 1525   5.761   4.883   1.562 -0.5422  0.2236 -0.0355
  209SOL    HW1 1526   5.678   4.887   1.507 -1.1891 -0.9573  0.8151
  209SOL    HW2 1527   5.819   4.808   1.529  0.1668  1.0014 -0.5831
  210SOL     OW 1528   4.018   4.367   6.585 -0.2458 -0.0364 -0.1209
  210SOL    HW1 1529   3.973   4.451   6.555 -0.8912 -0.4768 -0.4037
  210SOL    HW2 1530   4.092   4.344   6.522 -1.8380 -1.1671 -1.6493
  211SOL     OW 1531   2.440   1.980   2.879  0.1491  0.1014 -0.5329
  211SOL    HW1 1532   2.421   2.066   2.832  0.5087 -0.7280 -2.2721
  211SOL    HW2 1533   2.425   1.992   2.977  1.8085  2.6358 -0.4813
  212SOL     OW 1534   0.917   6.146   0.797  0.2606  0.4738  0.1374
  212SOL    HW1 1535   0.896   6.066   0.854 -0.0165 -0.6672 -1.4931
  212SOL    HW2 1536   0.999   6.191   0.833 -0.2197  0.1333  1.7440
  213SOL     OW 1537   6.713   6.055   2.766 -0.0819  0.3461 -0.0470
  213SOL    HW1 1538   6.777   6.132   2.762  2.6004 -1.7810 -0.8251
  213SOL    HW2 1539   6.716   6.014   2.858 -0.9164  0.6612  0.1307
  214SOL     OW 1540   6.537   0.263   3.976 -0.2290  0.2726  0.3848
  214SOL    HW1 1541   6.474   0.318   3.920 -0.0017 -0.4461 -0.5902
  214SOL    HW2 1542   6.523   0.166   3.957  1.7310  0.1125 -0.4796
  215SOL     OW 1543   1.774   4.298   2.426 -0.6675  1.1890  0.2337
  215SOL    HW1 1544   1.706   4.297   2.353  0.8793  0.0760 -1.2692
  215SOL    HW2 1545   1.839   4.372   2.410  0.5983 -0.0228 -0.4724
  216SOL     OW 1546   1.727   5.691   1.962 -0.0672  0.4016  0.4640
  216SOL    HW1 1547   1.645   5.697   1.905  0.8953  0.7816 -0.9330
  216SOL    HW2 1548   1.761   5.597   1.960 -1.9491 -0.4792  3.2942
  217SOL     OW 1549   6.670   3.277   4.232 -0.0461 -0.2957 -0.0430
  217SOL    HW1 1550   6.640   3.201   4.289  0.6866 -0.8219 -0.3260
  217SOL    HW2 1551   6.736   3.243   4.164 -0.4280  0.4210 -0.7923
  218SOL     OW 1552   2.768   2.650   5.493  0.1770 -1.0402  0.1742
  218SOL    HW1 1553   2.729   2.592   5.565  0.0941 -0.6213  0.4674
  218SOL    HW2 1554   2.866   2.662   5.510  0.1329 -0.8406  0.2821
  219SOL     OW 1555   7.002   2.753   6.282  0.2243  0.6840 -0.1022
  219SOL    HW1 1556   7.037   2.791   6.368  0.6916  3.0747 -1.2489
  219SOL    HW2 1557   7.076   2.706   6.234  0.7900  1.9351 -0.5110
  220SOL     OW 1558   2.445   6.447   1.632 -0.6289 -0.2145 -0.0212
  220SOL    HW1 1559   2.512   6.398   1.688 -0.6207 -0.2369 -0.0507
  220SOL    HW2 1560   2.367   6.473   1.688  0.3059  1.6216  0.5335
  221SOL     OW 1561   4.355   4.464   1.804 -0.2706 -0.4201  0.8291
  221SOL    HW1 1562   4.444   4.488   1.764  0.0171  0.5992  2.0172
  221SOL    HW2 1563   4.346   4.364   1.806  0.3071 -0.5181 -0.4289
  222SOL     OW 1564   2.985   3.412   5.673 -0.3793 -0.6601  0.0830
  222SOL    HW1 1565   2.896   3.392   5.713  0.0952 -1.8169  0.6063
  222SOL    HW2 1566   3.007   3.343   5.603  0.3029 -0.6578  0.2842
  223SOL     OW 1567   5.633   0.588   6.977 -0.8488 -0.5614 -0.0610
  223SOL    HW1 1568   5.707   0.649   6.948  0.9642 -2.3014  0.6481
  223SOL    HW2 1569   5.577   0.633   7.046  1.7424 -0.3393  2.0749
  224SOL     OW 1570   2.236   1.581   6.219 -0.0209  0.2831 -0.3455
  224SOL    HW1 1571   2.298   1.505   6.241  0.4543  0.8935  0.4954
  224SOL    HW2 1572   2.287   1.653   6.172  0.1164  1.1421  1.0765
  225SOL     OW 1573   4.390   6.196   5.271  0.3016  0.3581 -1.0410
  225SOL    HW1 1574   4.428   6.144   5.195 -0.1228 -1.1084 -0.2779
  225SOL    HW2 1575   4.399   6.144   5.356  0.7446  1.9518 -0.0711
  226SOL     OW 1576   2.197   1.915   5.952  0.7382  0.6752  0.2233
  226SOL    HW1 1577   2.200   1.895   5.854  1.9328  0.9095  0.1943
  226SOL    HW2 1578   2.103   1.931   5.980  0.2116 -0.7219 -0.6129
  227SOL     OW 1579   1.542   4.383   2.242  0.0435 -0.1378  0.4479
  227SOL    HW1 1580   1.478   4.377   2.166 -0.1188 -0.2283  0.5898
  227SOL    HW2 1581   1.501   4.436   2.316  0.4185  0.4281  0.2547
  228SOL     OW 1582   6.993   6.071   4.823 -0.3828  0.3158 -0.9115
  228SOL    HW1 1583   7.068   6.097   4.884 -0.5260 -0.1719 -0.5226
  228SOL    HW2 1584   6.941   6.153   4.798 -0.4298  0.5000 -0.2398
  229SOL     OW 1585   5.887   1.051   6.686  0.4310  0.0846  0.8365
  229SOL    HW1 1586   5.790   1.070   6.701  0.2968 -0.5899  0.8281
  229SOL    HW2 1587   5.930   1.028   6.773  0.4157 -0.3615  0.7278
  230SOL     OW 1588   4.783   3.334   5.276  0.0470 -0.0876  0.0173
  230SOL    HW1 1589   4.746   3.418   5.235  0.4708  0.2899  0.3988
  230SOL    HW2 1590   4.812   3.353   5.370  1.0845 -0.4156 -0.2248
  231SOL     OW 1591   5.495   1.241   0.076 -0.4111 -0.1011 -0.1621
  231SOL    HW1 1592   5.423   1.311   0.071  0.7618  1.0501 -3.1026
  231SOL    HW2 1593   5.454   1.151   0.062 -1.4076  0.4907 -1.3292
  232SOL     OW 1594   0.995   2.902   6.166  0.1799 -0.2806  0.0369
  232SOL    HW1 1595   0.906   2.948   6.156 -0.5424 -1.6415 -0.0154
  232SOL    HW2 1596   1.058   2.939   6.097 -0.2452  0.8924  0.2431
  233SOL     OW 1597   0.786   1.791   1.396  0.6359 -0.9099  0.0195
  233SOL    HW1 1598   0.873   1.839   1.408  0.4250 -0.9136  1.9529
  233SOL    HW2 1599   0.715   1.839   1.448 -0.0958 -2.0098  0.0530
  234SOL     OW 1600   5.429   6.904   0.501  0.4687 -0.1852  0.2959
  234SOL    HW1 1601   5.370   6.881   0.579 -0.1078  0.8282  0.1749
  234SOL    HW2 1602   5.381   6.882   0.416 -0.4426  2.1327  0.1510
  235SOL     OW 1603   4.977   4.024   1.961 -0.2264 -0.3764 -0.2773
  235SOL    HW1 1604   4.907   4.094   1.977  0.0683 -0.1619  0.0932
  235SOL    HW2 1605   4.980   3.962   2.040 -0.2188 -0.5777 -0.4352
  236SOL     OW 1606   3.206   3.340   5.876 -0.0035  0.4571 -0.5478
  236SOL    HW1 1607   3.260   3.262   5.846 -1.8774 -0.8333 -0.7097
  236SOL    HW2 1608   3.156   3.378   5.798 -0.0205  1.0633 -0.2458
  237SOL     OW 1609   4.870   3.276   3.339 -0.9526 -0.2536  0.1761
  237SOL    HW1 1610   4.879   3.374   3.356 -0.4868 -0.2250 -0.1929
  237SOL    HW2 1611   4.873   3.226   3.425  0.1179 -0.0319  0.2849
  238SOL     OW 1612   5.963   3.425   0.660 -0.3551 -0.1306  0.2237
  238SOL    HW1 1613   6.019   3.481   0.721 -0.5672 -0.5838  0.8578
  238SOL    HW2 1614   5.945   3.474   0.576 -2.3414  1.6855  1.6019
  239SOL     OW 1615   3.026   1.383   6.456  0.4264  0.0855  1.1028
  239SOL    HW1 1616   2.986   1.444   6.387  2.3928  1.2002  0.8400
  239SOL    HW2 1617   2.969   1.302   6.467 -1.4412  1.2189  0.2708
  240SOL     OW 1618   5.536   4.218   3.478  0.6233  0.0843 -0.0567
  240SOL    HW1 1619   5.456   4.244   3.530  0.0718 -2.4793  0.5135
  240SOL    HW2 1620   5.509   4.157   3.403  1.3605  3.7172 -3.5960
  241SOL     OW 1621   1.708   2.880   3.701 -0.1361  0.0536  0.2599
  241SOL    HW1 1622   1.646   2.906   3.775  1.9174 -1.1480  2.5747
  241SOL    HW2 1623   1.738   2.786   3.714 -0.1451 -0.4044 -2.5189
  242SOL     OW 1624   3.568   2.890   1.791 -0.2555 -0.2017 -0.1171
  242SOL    HW1 1625   3.563   2.821   1.719  0.1935  0.2249 -0.5572
  242SOL    HW2 1626   3.549   2.847   1.879  2.6284 -1.4827 -0.0146
  243SOL     OW 1627   5.304   3.184   5.491  0.5861 -0.0393  0.2693
  243SOL    HW1 1628   5.274   3.248   5.562  1.3833 -2.0478  2.5863
  243SOL    HW2 1629   5.229   3.123   5.467  0.3749  0.5138 -0.5119
  244SOL     OW 1630   5.382   3.372   6.174  0.1718 -0.5023  0.0899
  244SOL    HW1 1631   5.405   3.288   6.225 -3.0606 -1.7807 -0.3025
  244SOL    HW2 1632   5.316   3.350   6.103  2.1421  1.8056 -2.6958
  245SOL     OW 1633   3.906   2.074   3.510 -0.6371 -0.2297 -0.0662
  245SOL    HW1 1634   3.829   2.112   3.561 -0.0710  0.0855  0.5710
  245SOL    HW2 1635   3.895   1.975   3.500 -1.7079 -0.0347 -1.0146
  246SOL     OW 1636   1.918   6.999   1.054 -0.1523  0.1734  0.7785
  246SOL    HW1 1637   1.940   6.978   1.150 -0.5421 -0.9174  0.6472
  246SOL    HW2 1638   1.828   6.962   1.032 -0.3954  1.0920  0.1899
  247SOL     OW 1639   2.989   5.556   2.372 -0.0407 -0.0740 -0.1157
  247SOL    HW1 1640   2.960   5.494   2.299 -0.4337  0.1583 -0.1583
  247SOL    HW2 1641   2.921   5.555   2.445 -0.7494  1.3438 -0.7229
  248SOL     OW 1642   4.070   3.028   0.393  0.0953 -0.6985 -0.3455
  248SOL    HW1 1643   4.033   3.117   0.421  1.3267 -0.4056  0.4384
  248SOL    HW2 1644   4.048   2.960   0.463 -0.1699 -0.8307 -0.5595
  249SOL     OW 1645   3.602   5.462   5.511 -0.2910 -0.0149 -0.1481
  249SOL    HW1 1646   3.537   5.389   5.489  0.5426 -0.4652 -1.1967
  249SOL    HW2 1647   3.688   5.422   5.542  0.7573  0.3901 -2.3014
  250SOL     OW 1648   4.032   4.537   5.347  0.5501  0.4838  0.0133
  250SOL    HW1 1649   4.106   4.500   5.291 -0.3528  1.4271 -1.8720
  250SOL    HW2 1650   4.056   4.628   5.379 -0.2557  1.3254 -1.6687
  251SOL     OW 1651   2.828   4.743   4.151  0.2441 -0.9010 -0.8339
  251SOL    HW1 1652   2.832   4.736   4.251  0.5985  1.5121 -0.6185
  251SOL    HW2 1653   2.880   4.667   4.111  3.7298  0.2911  0.9434
  252SOL     OW 1654   4.676   6.764   5.775 -0.1299  0.1435 -0.1442
  252SOL    HW1 1655   4.595   6.720   5.813  0.5617 -1.4027 -0.3447
  252SOL    HW2 1656   4.749   6.763   5.843  0.7207 -1.4907 -1.0216
  253SOL     OW 1657   5.293   5.521   6.594 -0.3301 -0.0905 -0.1647
  253SOL    HW1 1658   5.201   5.557   6.579 -0.0701  0.6265 -0.0824
  253SOL    HW2 1659   5.347   5.531   6.510  0.7483  2.7899  0.7592
  254SOL     OW 1660   6.756   4.158   6.437 -0.3343  0.0415  0.0977
  254SOL    HW1 1661   6.776   4.250   6.471  2.6997  0.5365 -2.4725
  254SOL    HW2 1662   6.722   4.164   6.343 -0.8966 -1.4621  0.1730
  255SOL     OW 1663   1.865   4.263   5.074  0.7024 -0.2999 -0.3587
  255SOL    HW1 1664   1.816   4.307   4.999  0.3964 -1.5251 -0.8937
  255SOL    HW2 1665   1.910   4.181   5.041  2.5309  0.3871  0.2880
  256SOL     OW 1666   5.343   3.037   5.113  0.3152  0.4028 -0.0940
  256SOL    HW1 1667   5.323   3.075   5.023  0.3485 -0.2972 -0.4083
  256SOL    HW2 1668   5.283   2.958   5.130  0.4070  0.4442  0.4328
  257SOL     OW 1669   5.055   6.827   3.296 -0.1379  0.0729  0.5929
  257SOL    HW1 1670   5.009   6.747   3.334  0.7465 -0.8797 -0.2911
  257SOL    HW2 1671   5.046   6.904   3.359  1.1457 -1.3943  2.6492
  258SOL     OW 1672   0.687   3.497   6.674  0.0943 -0.0454 -0.1977
  258SOL    HW1 1673   0.617   3.555   6.633 -0.0024  1.0924  1.4585
  258SOL    HW2 1674   0.766   3.553   6.698  0.5009 -0.8272  0.3357
  259SOL     OW 1675   1.988   0.161   2.558 -0.8144 -0.2670 -0.0904
  259SOL    HW1 1676   1.917   0.098   2.528 -1.1155  0.4419 -0.9385
  259SOL    HW2 1677   2.044   0.188   2.479 -1.0056  0.9007  0.1585
  260SOL     OW 1678   2.768   4.992   3.517 -0.7399  0.3784  0.0192
  260SOL    HW1 1679   2.673   4.962   3.511 -1.2746  1.7588  1.1273
  260SOL    HW2 1680   2.771   5.090   3.535  0.9219  0.5936 -1.2143
  261SOL     OW 1681   5.600   5.525   6.998 -0.4461 -0.1979  0.2167
  261SOL    HW1 1682   5.574   5.570   6.913 -0.2034  1.6243  1.0565
  261SOL    HW2 1683   5.530   5.458   7.023 -1.4606  0.5788 -0.4657
  262SOL     OW 1684   2.289   4.137   6.337  0.1183 -0.0726  0.3858
  262SOL    HW1 1685   2.195   4.104   6.345 -0.5124  1.8391  1.4674
  262SOL    HW2 1686   2.335   4.088   6.263 -2.3663  0.3813 -1.6176
  263SOL     OW 1687   0.753   0.091   1.169 -0.3944  0.0775  0.2274
  263SOL    HW1 1688   0.840   0.043   1.182  0.2508  1.3333  0.6582
  263SOL    HW2 1689   0.769   0.176   1.119 -1.8485 -1.2340 -2.7019
  264SOL     OW 1690   6.771   3.062   6.402  0.6582  0.0138  0.5116
  264SOL    HW1 1691   6.746   2.966   6.417  0.9296 -0.0836  0.3531
  264SOL    HW2 1692   6.824   3.070   6.317  1.1497  0.2170  0.8326
  265SOL     OW 1693   1.968   5.955   3.129 -0.0121 -0.3728  0.2821
  265SOL    HW1 1694   1.976   6.048   3.095  1.0261 -0.1655  1.0486
  265SOL    HW2 1695   2.015   5.892   3.067 -0.5258 -0.3649 -0.1195
  266SOL     OW 1696   3.978   4.709   0.025  0.2475  0.1570  0.1566
  266SOL    HW1 1697   3.879   4.694   0.033 -0.0626  1.9800  0.1171
  266SOL    HW2 1698   4.022   4.623   0.001 -1.2070 -0.9144  1.0972
  267SOL     OW 1699   0.286   6.394   3.016 -0.1178  0.3641 -0.0644
  267SOL    HW1 1700   0.224   6.326   2.977 -0.2904  0.3282  0.2769
  267SOL    HW2 1701   0.282   6.478   2.961  1.9689 -0.7246 -2.0242
  268SOL     OW 1702   5.341   3.970   2.880  0.1988 -0.0067  0.0716
  268SOL    HW1 1703   5.285   3.945   2.800 -0.8766  0.0199  0.8011
  268SOL    HW2 1704   5.285   3.964   2.963  1.3716 -0.2809  0.8619
  269SOL     OW 1705   4.889   2.029   0.035  0.5305  0.0418 -0.4513
  269SOL    HW1 1706   4.982   2.017  -0.001  0.8712 -0.2293  0.4918
  269SOL    HW2 1707   4.858   2.122   0.016  0.2836 -0.3741 -2.3485
  270SOL     OW 1708   5.480   1.438   0.323  0.0760  0.6714 -0.6833
  270SOL    HW1 1709   5.439   1.415   0.411  0.6147 -2.3215 -1.0815
  270SOL    HW2 1710   5.573   1.473   0.337 -0.3402  1.5058 -0.0160
  271SOL     OW 1711   0.964   6.152   5.359  0.2484  0.2515 -0.0676
  271SOL    HW1 1712   1.000   6.120   5.447  0.6277  0.3125 -0.2014
  271SOL    HW2 1713   0.871   6.117   5.347  0.1831  0.2668  0.3728
  272SOL     OW 1714   3.128   6.965   3.578  0.0541  0.0863  0.0897
  272SOL    HW1 1715   3.135   7.063   3.558  1.5018 -0.1196 -0.5554
  272SOL    HW2 1716   3.219   6.929   3.598 -0.5631 -0.9900  1.1071
  273SOL     OW 1717   2.745   6.892   6.012 -0.3785 -0.5903 -0.0571
  273SOL    HW1 1718   2.750   6.887   6.111 -1.6246  1.3167  0.1624
  273SOL    HW2 1719   2.836   6.909   5.974  0.0066 -0.7157  0.7966
  274SOL     OW 1720   2.883   2.199   4.233 -0.1464 -0.3653 -0.2166
  274SOL    HW1 1721   2.844   2.287   4.263 -1.1811 -0.1416 -2.0723
  274SOL    HW2 1722   2.918   2.208   4.140 -2.7016 -2.5421 -1.5235
  275SOL     OW 1723   5.895   1.295   0.829 -0.4034 -0.4257 -0.3804
  275SOL    HW1 1724   5.884   1.388   0.864 -0.1330 -0.5344 -0.0069
  275SOL    HW2 1725   5.991   1.278   0.808 -0.7636  0.2011 -2.7681
  276SOL     OW 1726   6.482   6.510   3.838 -0.5504 -0.2984 -0.4191
  276SOL    HW1 1727   6.444   6.550   3.921 -1.2126  0.8028 -1.2274
  276SOL    HW2 1728   6.467   6.572   3.761  1.8717 -0.3515 -1.0037
  277SOL     OW 1729   3.754   6.795   3.794  0.5256 -0.2968 -0.1049
  277SOL    HW1 1730   3.795   6.873   3.841 -0.1321  0.5528 -0.9122
  277SOL    HW2 1731   3.677   6.761   3.848  0.1528  0.2887 -0.2636
  278SOL     OW 1732   1.345   3.078   6.181  0.2280 -0.3258 -0.3762
  278SOL    HW1 1733   1.406   3.019   6.128 -1.8091 -2.0357 -0.9498
  278SOL    HW2 1734   1.277   3.120   6.120  1.2975  2.3219  0.0955
  279SOL     OW 1735   1.695   6.182   4.573 -0.1480 -0.0004 -0.0677
  279SOL    HW1 1736   1.662   6.111   4.635  1.9897 -1.7784 -0.8432
  279SOL    HW2 1737   1.759   6.242   4.621 -0.1436 -0.0615  0.0019
  280SOL     OW 1738   0.633   6.104   2.005  0.4534  0.4180  0.0253
  280SOL    HW1 1739   0.579   6.183   2.037  0.1123  0.5113 -0.7479
  280SOL    HW2 1740   0.577   6.049   1.944  0.8066 -0.2458  0.2934
  281SOL     OW 1741   4.346   4.213   1.213  0.9058 -0.4718 -0.1700
  281SOL    HW1 1742   4.258   4.256   1.191 -0.1255 -2.8188 -0.9125
  281SOL    HW2 1743   4.401   4.208   1.130  1.1284 -0.3823 -0.0282
  282SOL     OW 1744   2.367   6.639   4.181  0.2441  0.3774  0.0206
  282SOL    HW1 1745   2.293   6.578   4.209  0.9725 -0.2037  0.7113
  282SOL    HW2 1746   2.438   6.640   4.251  0.8863  0.9435 -0.6245
  283SOL     OW 1747   3.861   1.896   0.499  0.1193 -0.1510 -0.2371
  283SOL    HW1 1748   3.893   1.801   0.494 -0.2600 -0.3034  0.2386
  283SOL    HW2 1749   3.820   1.921   0.411  2.8049  0.5253 -1.4324
  284SOL     OW 1750   0.927   5.071   3.633 -0.2722 -0.0665  0.1741
  284SOL    HW1 1751   0.953   4.975   3.632 -2.4268 -0.7121 -1.5366
  284SOL    HW2 1752   0.985   5.123   3.569 -0.0649 -0.5269 -0.0111
  285SOL     OW 1753   6.790   1.047   5.639  0.4467  0.2550  0.0199
  285SOL    HW1 1754   6.715   1.106   5.610  1.4559  0.7571 -1.6431
  285SOL    HW2 1755   6.870   1.102   5.660  0.6215 -0.3439  1.0003
  286SOL     OW 1756   2.534   3.322   1.748  0.1643  0.4689  0.5406
  286SOL    HW1 1757   2.452   3.354   1.796  1.7459  0.9300  3.0834
  286SOL    HW2 1758   2.532   3.222   1.743 -1.2470  0.5313 -0.8045
  287SOL     OW 1759   1.699   2.960   0.113  0.5584  0.1657  0.4420
  287SOL    HW1 1760   1.658   2.888   0.056  1.7523 -0.0271 -0.1959
  287SOL    HW2 1761   1.678   3.049   0.074  0.4932  0.0866  0.2954
  288SOL     OW 1762   5.628   4.539   3.349  0.4670  0.2935  0.5632
  288SOL    HW1 1763   5.662   4.449   3.376 -2.1622 -0.9708  0.0559
  288SOL    HW2 1764   5.698   4.609   3.366  2.5943 -1.8197  0.9589
  289SOL     OW 1765   3.240   6.249   0.156 -0.6030 -0.0111 -0.0998
  289SOL    HW1 1766   3.290   6.284   0.235 -2.8887  0.3118  1.2866
  289SOL    HW2 1767   3.285   6.166   0.122  0.9536  0.3737  0.9097
  290SOL     OW 1768   0.805   0.538   4.388  0.8311 -0.2855 -0.1822
  290SOL    HW1 1769   0.861   0.514   4.468  1.3165  1.5572  0.0755
  290SOL    HW2 1770   0.820   0.634   4.365 -0.6543 -0.3188 -1.4143
  291SOL     OW 1771   6.393   1.193   3.435  0.3425 -0.1774  0.1362
  291SOL    HW1 1772   6.305   1.148   3.421 -0.1111  0.8611 -0.4745
  291SOL    HW2 1773   6.384   1.291   3.415  1.2320  0.2521  1.6564
  292SOL     OW 1774   2.971   5.425   3.944 -0.2830 -0.4244  0.3102
  292SOL    HW1 1775   2.925   5.371   4.014  0.4930 -0.2190  0.9935
  292SOL    HW2 1776   3.061   5.388   3.927 -0.0883  0.1153  0.1332
  293SOL     OW 1777   5.194   4.913   2.693 -0.1517  0.1602  0.1860
  293SOL    HW1 1778   5.146   4.834   2.653  0.5515  0.4348 -1.2744
  293SOL    HW2 1779   5.232   4.887   2.782  0.5330 -1.3405 -0.5018
  294SOL     OW 1780   4.218   1.671   1.760  0.3140  0.6670  0.0360
  294SOL    HW1 1781   4.167   1.726   1.694  1.0079  1.1269 -0.1257
  294SOL    HW2 1782   4.311   1.657   1.727 -0.3111 -2.1780 -0.8476
  295SOL     OW 1783   5.393   1.997   4.483 -0.0086 -0.2683 -0.3155
  295SOL    HW1 1784   5.331   2.028   4.411 -0.3327 -0.3589 -0.0730
  295SOL    HW2 1785   5.464   1.939   4.442  0.7947  1.0240 -0.8190
  296SOL     OW 1786   2.009   1.092   2.860  0.6319 -0.2206  0.2410
  296SOL    HW1 1787   1.989   1.178   2.814  0.0299 -1.0810 -1.1855
  296SOL    HW2 1788   1.960   1.089   2.947 -0.5346  0.2899 -0.3692
  297SOL     OW 1789   0.634   5.175   3.504 -0.1504 -0.6487  0.0071
  297SOL    HW1 1790   0.677   5.222   3.581 -1.6015 -0.1835  0.5716
  297SOL    HW2 1791   0.701   5.165   3.430  0.7447  0.6216  0.5899
  298SOL     OW 1792   5.614   6.591   2.672 -0.2068  0.0515  0.0938
  298SOL    HW1 1793   5.676   6.669   2.661  0.7145 -0.7130 -0.3051
  298SOL    HW2 1794   5.574   6.594   2.764  0.8796  0.2633  0.5903
  299SOL     OW 1795   5.670   1.720   2.023 -0.3719 -0.0315 -0.0678
  299SOL    HW1 1796   5.713   1.809   2.037  2.7669 -1.2889 -0.8380
  299SOL    HW2 1797   5.681   1.665   2.107 -3.0494  0.4854  0.7202
  300SOL     OW 1798   5.896   1.984   6.966 -0.2301 -0.4641  0.2429
  300SOL    HW1 1799   5.837   1.904   6.958  0.7030 -1.0211 -2.0322
  300SOL    HW2 1800   5.840   2.065   6.986 -2.1420 -0.6687 -3.3394
  301SOL     OW 1801   5.175   3.983   4.583  0.1375  0.0548  0.7719
  301SOL    HW1 1802   5.100   3.950   4.525  0.3180 -1.4058  1.3204
  301SOL    HW2 1803   5.222   4.059   4.537  0.1347 -0.9063 -0.8988
  302SOL     OW 1804   1.433   4.734   5.508  0.5046 -0.3590  0.0055
  302SOL    HW1 1805   1.363   4.800   5.480  0.0430  0.3370  2.5582
  302SOL    HW2 1806   1.396   4.641   5.498 -0.6436 -0.0169  0.8801
  303SOL     OW 1807   4.380   6.882   2.661  0.7710  0.1725  0.0549
  303SOL    HW1 1808   4.365   6.783   2.655 -0.8773  0.3372  0.8080
  303SOL    HW2 1809   4.292   6.929   2.658  1.3322  1.4658  1.8882
  304SOL     OW 1810   2.844   1.056   2.917  0.1203  0.6462 -0.4157
  304SOL    HW1 1811   2.861   1.104   2.831 -0.2328  3.0853  0.7949
  304SOL    HW2 1812   2.927   1.058   2.973  0.6020 -1.6183 -0.9204
  305SOL     OW 1813   2.000   4.471   1.367  0.2882 -0.1859  0.0519
  305SOL    HW1 1814   1.951   4.518   1.441  1.1953  0.0588  0.5207
  305SOL    HW2 1815   2.048   4.539   1.311  0.4024 -0.4429 -0.1648
  306SOL     OW 1816   1.154   6.690   2.569  0.0341  0.4740  0.0476
  306SOL    HW1 1817   1.227   6.757   2.582 -0.2947  1.0217 -0.7905
  306SOL    HW2 1818   1.126   6.653   2.657  1.0860  0.5094  0.4069
  307SOL     OW 1819   3.502   5.383   2.597  0.2727  0.2110 -0.2295
  307SOL    HW1 1820   3.559   5.301   2.592  1.9706  1.2036  1.5461
  307SOL    HW2 1821   3.429   5.369   2.664  0.6459  0.1896  0.1751
  308SOL     OW 1822   0.452   4.408   5.711  0.3416 -0.2284 -0.1404
  308SOL    HW1 1823   0.353   4.413   5.717  0.4041  0.6945  0.3337
  308SOL    HW2 1824   0.486   4.338   5.774  0.1305  1.0083  1.4278
  309SOL     OW 1825   4.527   4.929   4.937  0.2510 -0.1976 -0.1422
  309SOL    HW1 1826   4.602   4.961   4.996 -1.0600  0.7930  1.0648
  309SOL    HW2 1827   4.510   4.832   4.954 -0.8254  0.3054  2.0210
  310SOL     OW 1828   1.639   6.321   6.406  0.3553 -0.0008 -0.0539
  310SOL    HW1 1829   1.609   6.407   6.448 -1.0845 -0.6053  0.2450
  310SOL    HW2 1830   1.724   6.291   6.448  0.5607  0.9800  0.2564
  311SOL     OW 1831   0.413   2.903   0.409  0.0085  0.2639 -0.0132
  311SOL    HW1 1832   0.461   2.871   0.491  0.5209 -1.0617 -0.8014
  311SOL    HW2 1833   0.479   2.941   0.345 -0.3754  1.1425  0.0904
  312SOL     OW 1834   3.293   1.829   4.892 -0.0610 -0.5022  0.1866
  312SOL    HW1 1835   3.208   1.780   4.908 -0.0662 -0.4617  0.2858
  312SOL    HW2 1836   3.277   1.928   4.901  0.4278 -0.5691  2.3297
  313SOL     OW 1837   0.069   6.801   6.592 -0.0728 -0.4524 -0.0961
  313SOL    HW1 1838   0.165   6.790   6.565 -0.5334 -5.0625 -0.7430
  313SOL    HW2 1839   0.053   6.750   6.677 -2.2978 -1.5897 -1.1193
  314SOL     OW 1840   5.145   6.845   3.018 -0.8512 -0.4799 -0.2685
  314SOL    HW1 1841   5.087   6.766   2.997 -0.6173 -0.3898 -1.2907
  314SOL    HW2 1842   5.141   6.863   3.116 -0.7582 -1.8741  0.0169
  315SOL     OW 1843   1.140   3.879   3.037 -0.0896 -0.1421 -0.3010
  315SOL    HW1 1844   1.177   3.942   2.968 -0.0422  0.4299  0.2417
  315SOL    HW2 1845   1.212   3.853   3.101 -0.6044  1.0619  0.8227
  316SOL     OW 1846   3.239   2.113   4.829  0.0896  0.1330 -0.1216
  316SOL    HW1 1847   3.191   2.115   4.741  0.1653  2.5978 -0.1649
  316SOL    HW2 1848   3.186   2.164   4.897  1.3774  0.6812  0.5025
  317SOL     OW 1849   6.454   2.472   0.717 -0.1789 -0.0365  0.4842
  317SOL    HW1 1850   6.401   2.415   0.654 -0.6803  2.6328 -1.6904
  317SOL    HW2 1851   6.532   2.513   0.668  0.8226  0.2972  2.2468
  318SOL     OW 1852   3.367   5.272   6.959 -0.7186 -0.7525  0.3786
  318SOL    HW1 1853   3.408   5.223   6.882 -2.5764  1.8544 -2.5017
  318SOL    HW2 1854   3.289   5.221   6.993 -0.1291 -1.7440  0.2903
  319SOL     OW 1855   1.017   0.536   5.626 -0.3469 -0.2359  0.6711
  319SOL    HW1 1856   1.094   0.485   5.587  1.0578  2.0228  0.3380
  319SOL    HW2 1857   0.939   0.531   5.563  0.3835 -0.4036 -0.2405
  320SOL     OW 1858   5.595   0.888   2.679 -0.1426 -0.1057 -0.4207
  320SOL    HW1 1859   5.531   0.811   2.674  0.4122 -0.8298  2.2297
  320SOL    HW2 1860   5.673   0.870   2.620 -0.1555 -1.4835 -0.0610
  321SOL     OW 1861   2.747   0.991   3.435  0.7065 -0.3749  0.4495
  321SOL    HW1 1862   2.728   0.959   3.343  1.1857 -0.2839  0.3161
  321SOL    HW2 1863   2.665   1.033   3.474 -0.0686 -2.1014  0.7772
  322SOL     OW 1864   2.133   2.281   5.563 -0.2900  0.6185 -0.0260
  322SOL    HW1 1865   2.083   2.251   5.482 -0.3362  0.3210  0.1148
  322SOL    HW2 1866   2.077   2.268   5.645  0.1009  0.0729  0.1571
  323SOL     OW 1867   2.287   3.994   1.952  0.0395  0.5549  0.3415
  323SOL    HW1 1868   2.306   3.925   1.882  1.6746 -0.1842  1.4577
  323SOL    HW2 1869   2.300   4.085   1.913 -0.3431  0.2029 -0.6495
  324SOL     OW 1870   0.354   0.792   4.011  0.2681  0.4378  0.0194
  324SOL    HW1 1871   0.295   0.864   3.973 -0.4779 -0.1828 -0.0404
  324SOL    HW2 1872   0.368   0.808   4.109  0.6155  0.9969 -0.1194
  325SOL     OW 1873   1.234   1.050   4.174 -0.3021  0.0478 -0.1956
  325SOL    HW1 1874   1.195   1.098   4.096 -1.0736 -1.0414 -0.5171
  325SOL    HW2 1875   1.324   1.014   4.150 -0.1018  0.5804 -0.2412
  326SOL     OW 1876   2.462   4.486   4.259  0.3883  0.1093 -0.2968
  326SOL    HW1 1877   2.546   4.536   4.280  1.2297 -1.3258 -0.1081
  326SOL    HW2 1878   2.418   4.457   4.345 -0.4892  1.1356 -0.3853
  327SOL     OW 1879   6.082   4.425   6.241 -0.0397  0.8764  0.9430
  327SOL    HW1 1880   6.172   4.391   6.267  0.4395  1.5581  0.2024
  327SOL    HW2 1881   6.086   4.524   6.229  0.1311  0.5421 -2.9438
  328SOL     OW 1882   2.836   5.832   2.737  0.1151  0.1079  0.1507
  328SOL    HW1 1883   2.737   5.844   2.744 -0.0454 -0.9432 -0.1285
  328SOL    HW2 1884   2.871   5.892   2.665 -0.1342  1.3173  1.0082
  329SOL     OW 1885   3.926   4.416   1.306  0.4803  0.0148  0.0739
  329SOL    HW1 1886   3.906   4.484   1.235 -0.0916 -0.2555 -0.0323
  329SOL    HW2 1887   4.023   4.419   1.329  0.7858 -0.2744 -1.1110
  330SOL     OW 1888   2.105   3.751   2.050  0.0451  0.0958 -0.1400
  330SOL    HW1 1889   2.177   3.820   2.055  0.2323 -0.0108 -1.1577
  330SOL    HW2 1890   2.147   3.661   2.037 -0.2624  0.0608 -0.9775
  331SOL     OW 1891   0.064   4.693   5.413  0.3026 -0.2781  0.4949
  331SOL    HW1 1892   0.140   4.746   5.377 -0.1836  0.7210  0.8859
  331SOL    HW2 1893   0.071   4.598   5.382  0.0820  0.4320 -1.9448
  332SOL     OW 1894   3.477   1.212   3.906 -0.0240 -0.0332 -0.1221
  332SOL    HW1 1895   3.450   1.285   3.842 -0.8520 -0.0314  0.2103
  332SOL    HW2 1896   3.395   1.176   3.950  0.3870 -1.1485 -0.2552
  333SOL     OW 1897   4.301   5.016   6.722 -0.1491 -0.1041  0.0203
  333SOL    HW1 1898   4.273   5.028   6.818 -1.6016 -0.0605 -0.3866
  333SOL    HW2 1899   4.242   5.071   6.663  1.2129  0.4598 -0.8643
  334SOL     OW 1900   5.496   0.372   3.094  0.3893 -0.5695  0.3929
  334SOL    HW1 1901   5.525   0.420   3.011  2.6744 -1.5868  0.5368
  334SOL    HW2 1902   5.413   0.415   3.130  1.6558  2.5541 -0.1089
  335SOL     OW 1903   3.073   1.649   3.633  0.5483  0.0423 -0.1711
  335SOL    HW1 1904   3.123   1.661   3.718  1.7217 -2.4485 -0.4145
  335SOL    HW2 1905   3.028   1.735   3.608 -2.9447  0.0707  4.8008
  336SOL     OW 1906   2.117   2.518   6.117 -0.5476  0.5577  0.0743
  336SOL    HW1 1907   2.169   2.589   6.069  1.1785 -0.5495  0.2498
  336SOL    HW2 1908   2.112   2.436   6.060 -2.5696  0.7792 -0.1491
  337SOL     OW 1909   1.745   3.314   1.130 -0.4495 -0.0699 -0.2052
  337SOL    HW1 1910   1.707   3.222   1.123  0.0103 -0.2195 -0.8194
  337SOL    HW2 1911   1.695   3.375   1.068  0.3030 -0.2748 -1.0413
  338SOL     OW 1912   1.355   1.706   0.811 -0.5651  0.1167 -0.4388
  338SOL    HW1 1913   1.281   1.654   0.768 -1.8391  0.5596  1.1138
  338SOL    HW2 1914   1.350   1.694   0.910 -1.0136  3.2576  0.0053
  339SOL     OW 1915   3.129   0.357   2.899 -0.2733 -0.2141  0.3769
  339SOL    HW1 1916   3.096   0.446   2.867 -0.8380 -1.0782 -1.5682
  339SOL    HW2 1917   3.226   0.347   2.875 -0.5132 -0.5686 -0.5101
  340SOL     OW 1918   4.700   6.908   2.397 -0.1689 -0.0043  0.0611
  340SOL    HW1 1919   4.787   6.899   2.349  0.2843  0.2176  0.8295
  340SOL    HW2 1920   4.703   6.854   2.481  0.0349  1.6938  1.1980
  341SOL     OW 1921   4.880   5.702   4.301 -0.1779 -0.2526  0.2815
  341SOL    HW1 1922   4.883   5.719   4.400  2.5349 -0.0690  0.2568
  341SOL    HW2 1923   4.807   5.637   4.281 -0.6927 -0.4242  2.4270
  342SOL     OW 1924   0.438   3.860   6.811  0.3512  0.0922 -0.5832
  342SOL    HW1 1925   0.357   3.841   6.866  0.0958 -0.4546 -1.1306
  342SOL    HW2 1926   0.519   3.827   6.860  0.2085  0.3002 -0.2000
  343SOL     OW 1927   2.374   0.471   2.931 -0.0144  0.2118 -0.4276
  343SOL    HW1 1928   2.322   0.505   2.852 -0.3944 -0.3542 -0.4304
  343SOL    HW2 1929   2.355   0.527   3.011 -0.8622 -0.1528 -0.3611
  344SOL     OW 1930   4.535   6.046   0.876  0.3336 -0.3842 -0.4129
  344SOL    HW1 1931   4.465   5.984   0.911 -1.2421  2.1775  1.2679
  344SOL    HW2 1932   4.625   6.015   0.906 -0.3199 -2.2039 -0.2300
  345SOL     OW 1933   0.916   1.736   3.979  0.1734 -0.0916 -0.2705
  345SOL    HW1 1934   0.886   1.822   3.937  1.4155  1.0195  1.0472
  345SOL    HW2 1935   0.875   1.726   4.069 -0.6486 -1.3405 -0.7533
  346SOL     OW 1936   2.657   0.332   3.977  0.3021  0.0131  0.4706
  346SOL    HW1 1937   2.650   0.410   3.916  2.0969  0.9902  1.4237
  346SOL    HW2 1938   2.575   0.328   4.036 -0.5053  0.2289 -0.6044
  347SOL     OW 1939   4.270   0.197   4.862 -0.1077 -0.1772  0.1765
  347SOL    HW1 1940   4.199   0.130   4.841 -1.2725  0.7378  1.0143
  347SOL    HW2 1941   4.277   0.263   4.787 -0.3294 -0.1279  0.1975
  348SOL     OW 1942   1.577   0.099   4.092  0.3539 -0.4101  0.3599
  348SOL    HW1 1943   1.581   0.024   4.159 -0.2177  1.8888  3.1872
  348SOL    HW2 1944   1.669   0.137   4.079  0.5846 -1.3202 -0.7919
  349SOL     OW 1945   4.756   6.401   3.282 -0.1875 -0.1561  0.1773
  349SOL    HW1 1946   4.824   6.457   3.330 -0.4459 -0.3057  0.7251
  349SOL    HW2 1947   4.706   6.345   3.348 -1.8731  1.0432 -0.0374
  350SOL     OW 1948   5.596   3.657   0.205 -0.3383 -0.1871 -0.4332
  350SOL    HW1 1949   5.609   3.756   0.216  1.9753 -0.5662  0.8711
  350SOL    HW2 1950   5.600   3.633   0.108 -2.2836  1.0967 -0.8969
  351SOL     OW 1951   2.816   2.011   0.540  0.4677  0.2086 -0.1408
  351SOL    HW1 1952   2.752   2.057   0.477 -1.1724 -2.1572 -0.3251
  351SOL    HW2 1953   2.910   2.037   0.516 -0.2477  1.4593 -1.8244
  352SOL     OW 1954   2.175   3.032   6.070 -0.4051 -0.0846 -0.0148
  352SOL    HW1 1955   2.084   2.999   6.044 -1.2987  0.7070  1.9012
  352SOL    HW2 1956   2.188   3.125   6.035 -0.4972 -0.0493  0.0443
  353SOL     OW 1957   1.954   6.830   2.765  0.1990 -0.0399 -0.0372
  353SOL    HW1 1958   2.033   6.864   2.715  0.1351  0.5341  0.2525
  353SOL    HW2 1959   1.956   6.865   2.859 -0.7092  0.4526 -0.1952
  354SOL     OW 1960   6.307   0.449   0.184  0.4522 -0.1808 -0.2342
  354SOL    HW1 1961   6.305   0.522   0.253  0.0645 -0.9117  0.5555
  354SOL    HW2 1962   6.397   0.406   0.185  0.2710 -0.5596  0.2270
  355SOL     OW 1963   2.537   0.185   3.085  0.2933  0.5118 -0.3804
  355SOL    HW1 1964   2.610   0.252   3.078  0.7224  0.2961  1.5360
  355SOL    HW2 1965   2.451   0.226   3.054  0.8089  1.4844 -0.5592
  356SOL     OW 1966   1.451   0.250   4.372 -0.5380  0.8234 -0.4354
  356SOL    HW1 1967   1.447   0.161   4.327  3.3124  0.6749 -0.8070
  356SOL    HW2 1968   1.435   0.322   4.305 -2.8960  0.5071 -0.2837
  357SOL     OW 1969   0.934   5.377   4.097  0.4139  0.4756 -0.0856
  357SOL    HW1 1970   0.846   5.408   4.134  0.3408 -0.0334  0.1731
  357SOL    HW2 1971   0.922   5.289   4.052  1.3593 -1.2583  2.7828
  358SOL     OW 1972   4.584   1.864   2.873  0.1878 -0.0049 -0.0238
  358SOL    HW1 1973   4.520   1.867   2.796  1.5989  1.5910 -1.2010
  358SOL    HW2 1974   4.545   1.807   2.946 -2.6205  0.9934 -0.6082
  359SOL     OW 1975   0.059   1.265   6.967  0.0335 -0.1216 -0.0518
  359SOL    HW1 1976  -0.025   1.316   6.951  0.8983  1.0426 -1.0392
  359SOL    HW2 1977   0.104   1.301   7.049 -1.2669 -1.9289  1.5458
  360SOL     OW 1978   3.835   0.095   0.127 -0.2692  0.1934 -0.5290
  360SOL    HW1 1979   3.911   0.056   0.075  0.4802  1.7162 -0.6329
  360SOL    HW2 1980   3.866   0.116   0.220 -0.4078  1.2420 -0.7060
  361SOL     OW 1981   4.374   6.948   1.825  0.4392 -0.1269 -0.0900
  361SOL    HW1 1982   4.366   6.969   1.922  0.1019 -2.2796  0.4009
  361SOL    HW2 1983   4.470   6.959   1.796  0.8549 -1.0184  0.8962
  362SOL     OW 1984   2.402   2.671   0.355 -0.3853 -0.2106  0.1073
  362SOL    HW1 1985   2.394   2.692   0.257 -0.8873 -2.9379 -0.5186
  362SOL    HW2 1986   2.313   2.682   0.398  0.0889  2.2885  0.6508
  363SOL     OW 1987   4.338   4.764   3.791  0.5159  0.3581  0.2216
  363SOL    HW1 1988   4.344   4.697   3.865  1.3490 -1.1817 -1.1883
  363SOL    HW2 1989   4.429   4.788   3.760  0.1610  0.2782 -0.9216
  364SOL     OW 1990   1.380   6.267   5.808  0.1442 -0.7995 -0.5395
  364SOL    HW1 1991   1.457   6.306   5.758 -0.9954  0.0307 -1.7422
  364SOL    HW2 1992   1.323   6.341   5.844 -1.3199 -1.2958 -1.6786
  365SOL     OW 1993   5.029   6.864   0.142  0.8825  0.3523 -0.3355
  365SOL    HW1 1994   5.029   6.835   0.238  2.2863 -0.1874 -0.4681
  365SOL    HW2 1995   5.082   6.799   0.087  0.2046  0.7190 -1.4666
  366SOL     OW 1996   5.025   3.198   1.376 -0.4086  0.2595  0.9314
  366SOL    HW1 1997   5.073   3.154   1.300  0.4271  2.4412  0.0913
  366SOL    HW2 1998   5.071   3.176   1.461  0.3615  0.0072  0.4622
  367SOL     OW 1999   6.285   1.647   2.510 -0.1149 -0.5473  0.0714
  367SOL    HW1 2000   6.218   1.689   2.449  1.0507  1.3776  0.0102
  367SOL    HW2 2001   6.294   1.550   2.489 -0.7170 -0.2064 -1.9226
  368SOL     OW 2002   6.574   4.046   5.692 -0.2985 -0.1396  0.2823
  368SOL    HW1 2003   6.577   4.078   5.787  0.3515 -2.9011  1.2915
  368SOL    HW2 2004   6.482   4.015   5.671  0.0146 -1.4069  0.7242
  369SOL     OW 2005   1.224   4.315   1.838 -0.0395  0.0369  0.4067
  369SOL    HW1 2006   1.128   4.319   1.866 -0.2277 -1.9231  0.1874
  369SOL    HW2 2007   1.235   4.361   1.749 -0.3521  2.0100  1.3316
  370SOL     OW 2008   4.492   1.804   6.764  0.2238 -0.1702 -0.1422
  370SOL    HW1 2009   4.531   1.877   6.707  0.0192 -1.3384 -1.8485
  370SOL    HW2 2010   4.395   1.822   6.779 -0.0020 -0.4619 -1.1975
  371SOL     OW 2011   3.317   2.599   6.103  0.0118  0.1477  0.0084
  371SOL    HW1 2012   3.298   2.668   6.173  0.9822  0.3501  0.0939
  371SOL    HW2 2013   3.233   2.579   6.052 -0.7493 -0.1301  1.3222
  372SOL     OW 2014   3.230   5.397   5.769  0.6225  0.2132  0.4013
  372SOL    HW1 2015   3.162   5.449   5.717 -0.9146 -1.6115  0.5028
  372SOL    HW2 2016   3.258   5.317   5.716 -0.2010 -1.1309  1.9335
  373SOL     OW 2017   6.329   1.284   1.081 -0.5287  0.4639  0.2963
  373SOL    HW1 2018   6.370   1.201   1.043  2.2945  1.3583  1.1116
  373SOL    HW2 2019   6.249   1.261   1.135  1.1661 -1.9927  1.9517
  374SOL     OW 2020   6.364   0.729   1.206  0.2895  0.3093  0.0190
  374SOL    HW1 2021   6.457   0.693   1.205  0.9949  1.7149  3.0576
  374SOL    HW2 2022   6.366   0.828   1.193 -1.1199  0.0748 -2.6912
  375SOL     OW 2023   2.007   4.748   0.959  0.2365  0.3786 -0.2156
  375SOL    HW1 2024   2.003   4.839   0.917 -0.6218 -0.4345 -1.9761
  375SOL    HW2 2025   1.971   4.753   1.052 -2.0133  1.4513 -1.0655
  376SOL     OW 2026   1.819   4.950   5.389  0.0038 -0.0096 -0.3733
  376SOL    HW1 2027   1.804   5.039   5.346  0.1634  0.6449  0.8682
  376SOL    HW2 2028   1.917   4.937   5.406 -0.1730  0.4505  1.1764
  377SOL     OW 2029   3.717   0.635   2.745 -0.4933  0.8687 -0.5889
  377SOL    HW1 2030   3.630   0.683   2.734 -0.5007  0.9929 -0.0135
  377SOL    HW2 2031   3.756   0.657   2.834 -0.2175  0.2509 -0.5528
  378SOL     OW 2032   5.606   1.220   0.604  0.2410 -0.2169 -0.2237
  378SOL    HW1 2033   5.617   1.320   0.606 -1.3545 -0.0226  0.2720
  378SOL    HW2 2034   5.644   1.184   0.519  1.6838  0.6872  0.0085
  379SOL     OW 2035   5.680   2.796   0.766 -0.3513 -0.0025 -0.5241
  379SOL    HW1 2036   5.637   2.868   0.821 -0.2111 -0.0599 -0.3363
  379SOL    HW2 2037   5.638   2.708   0.790  0.0103 -0.0869 -0.1901
  380SOL     OW 2038   5.176   2.772   0.320 -0.2518 -0.2049 -0.0984
  380SOL    HW1 2039   5.199   2.829   0.398  1.2990  0.2195 -0.8171
  380SOL    HW2 2040   5.255   2.716   0.295 -1.0356 -1.0467 -0.7689
  381SOL     OW 2041   5.076   5.262   6.912  0.2409  0.3097  0.3453
  381SOL    HW1 2042   5.107   5.225   6.999 -0.8901  0.4496  0.8305
  381SOL    HW2 2043   5.021   5.194   6.865 -1.7531  1.2397  1.1860
  382SOL     OW 2044   4.822   5.846   5.531  0.1260  0.5772 -0.1570
  382SOL    HW1 2045   4.880   5.779   5.579 -0.1135  0.2758 -0.2824
  382SOL    HW2 2046   4.773   5.800   5.457  0.1718  0.9543 -0.4236
  383SOL     OW 2047   5.320   3.238   0.818  0.0773 -0.2864  0.3023
  383SOL    HW1 2048   5.222   3.235   0.836  0.0179  1.0701  0.3093
  383SOL    HW2 2049   5.336   3.229   0.719  0.0236 -1.5449  0.3969
  384SOL     OW 2050   1.410   5.010   2.536  0.2493 -0.1186 -0.1046
  384SOL    HW1 2051   1.434   4.953   2.457  0.8797  0.8371 -0.6270
  384SOL    HW2 2052   1.386   5.102   2.504  0.7832  0.3609  0.8374
  385SOL     OW 2053   5.340   5.357   0.438  0.7596  0.3086 -0.1636
  385SOL    HW1 2054   5.272   5.387   0.370  1.4304  0.2182 -0.8916
  385SOL    HW2 2055   5.411   5.427   0.446  1.8698 -0.6556 -1.2225
  386SOL     OW 2056   2.854   6.235   2.648 -0.1252 -0.4365 -0.0738
  386SOL    HW1 2057   2.812   6.307   2.704  1.4738 -0.8652  1.8171
  386SOL    HW2 2058   2.934   6.198   2.697 -0.2639 -2.7655 -1.4648
  387SOL     OW 2059   0.007   0.649   0.586 -0.2865 -0.1594 -0.6337
  387SOL    HW1 2060   0.089   0.689   0.547  0.8679 -1.5612  0.2425
  387SOL    HW2 2061  -0.030   0.580   0.523 -1.2321  0.9524 -1.3378
  388SOL     OW 2062   6.970   1.826   5.073  0.2465  0.6251  0.3780
  388SOL    HW1 2063   6.982   1.741   5.022  0.5714  0.6162  0.4683
  388SOL    HW2 2064   6.873   1.848   5.078  0.2046  0.5973 -0.1951
  389SOL     OW 2065   5.314   4.864   2.278  0.8562  0.1446  0.6862
  389SOL    HW1 2066   5.237   4.920   2.310  0.9046  0.3062  0.5214
  389SOL    HW2 2067   5.394   4.882   2.335  0.9554  0.4664  0.4484
  390SOL     OW 2068   2.762   3.751   6.194 -0.3579  0.4479 -0.0317
  390SOL    HW1 2069   2.700   3.679   6.164 -0.2599 -0.9919  2.8523
  390SOL    HW2 2070   2.835   3.763   6.126 -0.7005 -1.7889 -0.8733
  391SOL     OW 2071   3.488   3.999   2.195 -1.0426 -0.2161 -0.1775
  391SOL    HW1 2072   3.420   3.932   2.164 -0.5513  0.2482 -2.4162
  391SOL    HW2 2073   3.475   4.085   2.147 -0.3984  0.6852  1.1983
  392SOL     OW 2074   2.466   2.969   0.204  0.4978 -0.8719  0.0879
  392SOL    HW1 2075   2.439   3.055   0.247 -0.0772 -1.5034  1.0280
  392SOL    HW2 2076   2.525   2.988   0.125  0.6144  0.3589  0.4511
  393SOL     OW 2077   6.661   0.076   0.410  0.1446 -0.7912 -0.2108
  393SOL    HW1 2078   6.703   0.029   0.333  0.7146 -0.7602  0.0753
  393SOL    HW2 2079   6.633   0.008   0.478  1.9622 -0.6912  0.7012
  394SOL     OW 2080   4.691   1.239   6.779 -0.3939 -0.3688  0.8298
  394SOL    HW1 2081   4.722   1.203   6.867  1.0855 -0.0116  0.4864
  394SOL    HW2 2082   4.674   1.163   6.715  3.1426 -0.6035 -0.0397
  395SOL     OW 2083   1.366   5.503   6.505 -0.8384 -0.2147  0.0747
  395SOL    HW1 2084   1.310   5.559   6.567  0.6512  0.4198  0.8996
  395SOL    HW2 2085   1.434   5.452   6.558  1.4696  1.4783 -1.0441
  396SOL     OW 2086   0.658   0.574   2.418  0.0259 -0.2685 -0.1781
  396SOL    HW1 2087   0.616   0.648   2.365 -1.9664 -0.5737  0.8771
  396SOL    HW2 2088   0.732   0.611   2.474  0.6256  0.4709 -1.4194
  397SOL     OW 2089   4.692   0.837   3.649 -0.1379 -0.5845 -0.7750
  397SOL    HW1 2090   4.613   0.793   3.606 -0.8378  0.3438 -0.4851
  397SOL    HW2 2091   4.678   0.841   3.748  0.7738 -1.3686 -0.6032
  398SOL     OW 2092   5.804   6.848   2.697 -0.4431 -0.5182  0.7487
  398SOL    HW1 2093   5.753   6.926   2.735 -1.2366 -1.4657  1.6905
  398SOL    HW2 2094   5.881   6.882   2.643 -0.1828  0.9041  1.9550
  399SOL     OW 2095   5.401   6.758   6.018 -0.4949 -0.3913  0.3133
  399SOL    HW1 2096   5.348   6.788   6.097 -0.0445 -0.7455  0.7535
  399SOL    HW2 2097   5.338   6.726   5.947 -0.9135  0.1659  0.4233
  400SOL     OW 2098   6.507   1.027   4.962 -0.1566 -0.0839 -0.4759
  400SOL    HW1 2099   6.498   1.107   4.903  1.9001  1.3443  1.0207
  400SOL    HW2 2100   6.446   1.036   5.041  3.1111  2.3458  2.0123
  401SOL     OW 2101   1.942   0.016   4.551  0.0038 -0.3219 -0.5141
  401SOL    HW1 2102   1.878  -0.059   4.572  0.2990  0.0902  2.2688
  401SOL    HW2 2103   1.908   0.101   4.593  2.0897 -0.0001  0.6622
  402SOL     OW 2104   6.547   1.940   4.509  0.6733 -0.1851 -0.8977
  402SOL    HW1 2105   6.571   1.885   4.429  0.9588 -1.1852 -0.1472
  402SOL    HW2 2106   6.627   1.946   4.570 -0.2097 -1.5615  0.4938
  403SOL     OW 2107   1.210   0.139   6.860  0.7647 -0.6256 -0.2856
  403SOL    HW1 2108   1.194   0.222   6.807  1.2808 -1.7051 -2.2050
  403SOL    HW2 2109   1.287   0.089   6.822  1.6163 -1.1394  1.9273
  404SOL     OW 2110   2.444   4.414   2.622  0.0747 -0.6150  0.4967
  404SOL    HW1 2111   2.465   4.453   2.711 -1.0251  0.4224  0.3116
  404SOL    HW2 2112   2.461   4.481   2.550 -1.5602 -0.5252  0.1500
  405SOL     OW 2113   2.112   5.324   4.622 -0.2543  0.0576  0.2572
  405SOL    HW1 2114   2.140   5.418   4.601  1.3137 -0.1643  1.1610
  405SOL    HW2 2115   2.175   5.285   4.690 -2.4669 -0.7390  1.9725
  406SOL     OW 2116   1.915   0.424   2.188 -0.9736 -0.2750  0.0367
  406SOL    HW1 2117   1.870   0.496   2.135 -2.9731 -1.2147  0.3828
  406SOL    HW2 2118   1.864   0.338   2.179  1.2007 -1.6321 -0.1591
  407SOL     OW 2119   2.284   4.078   3.170  0.0846  0.3412 -0.1905
  407SOL    HW1 2120   2.286   4.177   3.184  0.3429  0.1719  1.0161
  407SOL    HW2 2121   2.316   4.032   3.252  0.5296 -0.7377 -0.9453
  408SOL     OW 2122   1.782   2.108   0.951 -0.0483 -0.5372  0.2431
  408SOL    HW1 2123   1.700   2.069   0.909  0.1885 -1.9472  1.0577
  408SOL    HW2 2124   1.808   2.054   1.031  1.1667  0.4245  0.5233
  409SOL     OW 2125   2.955   1.887   2.092  0.3278 -0.0594 -0.2340
  409SOL    HW1 2126   3.028   1.866   2.027 -0.2187  0.8684 -1.1675
  409SOL    HW2 2127   2.932   1.984   2.087 -0.9183 -0.3140  0.0867
  410SOL     OW 2128   0.292   3.160   1.809 -0.0253 -0.2773  0.0853
  410SOL    HW1 2129   0.280   3.207   1.896 -0.1526  0.6114 -0.4018
  410SOL    HW2 2130   0.210   3.107   1.787  0.6571 -1.9432  1.3304
  411SOL     OW 2131   6.377   1.064   2.557 -0.2750 -0.4428 -0.1195
  411SOL    HW1 2132   6.432   1.140   2.591 -1.6855 -0.3835  2.3005
  411SOL    HW2 2133   6.412   0.978   2.594 -1.3411 -0.4717  0.8704
  412SOL     OW 2134   3.720   5.144   4.080 -0.3353  0.2493 -0.0320
  412SOL    HW1 2135   3.688   5.139   3.985 -0.5836  0.0095  0.0645
  412SOL    HW2 2136   3.715   5.239   4.111  0.9146  0.5428 -0.6589
  413SOL     OW 2137   5.059   5.460   3.127  0.0349 -0.0135  0.1175
  413SOL    HW1 2138   4.974   5.501   3.159  0.6854  0.3003  1.5293
  413SOL    HW2 2139   5.052   5.440   3.030 -1.9130 -0.6650  0.3403
  414SOL     OW 2140   6.952   6.857   2.880  0.0113 -0.2289 -0.3923
  414SOL    HW1 2141   6.998   6.776   2.917  0.9980  0.2856 -0.4503
  414SOL    HW2 2142   7.018   6.911   2.827 -1.0445 -0.2397 -1.7681
  415SOL     OW 2143   0.643   3.067   0.248  0.0495  0.0106  0.2108
  415SOL    HW1 2144   0.571   3.129   0.217 -0.0432  0.3201  1.0357
  415SOL    HW2 2145   0.731   3.113   0.245  0.4334 -0.7176 -1.9099
  416SOL     OW 2146   0.479   4.385   3.322  0.1338  0.3362  0.0655
  416SOL    HW1 2147   0.517   4.477   3.330  1.0040 -0.0921  1.0181
  416SOL    HW2 2148   0.390   4.382   3.368 -0.7676  1.1446 -1.5364
  417SOL     OW 2149   2.528   1.586   4.978  0.8192  0.2430  0.0629
  417SOL    HW1 2150   2.475   1.636   4.909  0.9947  0.7463  0.2853
  417SOL    HW2 2151   2.584   1.517   4.932  0.3010  0.0062 -0.2137
  418SOL     OW 2152   5.015   4.350   5.993 -0.3978  0.1122 -0.4075
  418SOL    HW1 2153   4.917   4.364   5.988 -0.6421 -0.7915  1.1691
  418SOL    HW2 2154   5.034   4.255   6.018  0.8478  0.4704  0.1002
  419SOL     OW 2155   6.755   1.218   6.860  0.2760 -0.1191  0.0889
  419SOL    HW1 2156   6.841   1.204   6.810  0.5264 -1.0393  0.7546
  419SOL    HW2 2157   6.766   1.294   6.924 -0.1506  1.2920 -1.4418
  420SOL     OW 2158   3.486   6.494   6.645 -0.0685  0.1036 -0.0422
  420SOL    HW1 2159   3.582   6.505   6.620  0.7867 -1.3466  2.2535
  420SOL    HW2 2160   3.463   6.560   6.717 -1.2324  1.3724 -1.5303
  421SOL     OW 2161   0.808   3.891   3.303  0.2321  0.4876 -0.0981
  421SOL    HW1 2162   0.809   3.883   3.403  1.5652 -1.0895 -0.1900
  421SOL    HW2 2163   0.729   3.842   3.267 -0.8675  1.9708  0.2014
  422SOL     OW 2164   3.333   1.936   2.137  0.6389 -0.1278 -0.3300
  422SOL    HW1 2165   3.347   1.910   2.041  0.6036 -0.7064 -0.1831
  422SOL    HW2 2166   3.245   1.983   2.146  0.3987 -0.5341 -0.5003
  423SOL     OW 2167   3.010   6.118   0.039  0.1586 -0.0749  0.6293
  423SOL    HW1 2168   3.090   6.175   0.058  0.7221 -0.5976 -0.0900
  423SOL    HW2 2169   2.968   6.149  -0.047  2.7533 -3.0267 -1.9756
  424SOL     OW 2170   2.567   5.875   2.767 -0.2699 -0.8428  0.1375
  424SOL    HW1 2171   2.534   5.967   2.746 -2.6109 -1.8632 -1.0169
  424SOL    HW2 2172   2.555   5.857   2.865  1.4739  0.4701  0.6616
  425SOL     OW 2173   3.030   0.124   0.764  0.1836 -0.7451 -0.8912
  425SOL    HW1 2174   3.054   0.123   0.667 -0.2889 -1.3695 -1.0086
  425SOL    HW2 2175   3.100   0.175   0.815 -0.1147  0.5038 -1.6884
  426SOL     OW 2176   2.565   2.059   4.097 -0.4023 -0.1123  0.1052
  426SOL    HW1 2177   2.649   2.019   4.060  0.5779 -0.5302  2.5768
  426SOL    HW2 2178   2.583   2.097   4.188 -2.9202 -0.3647  0.7933
  427SOL     OW 2179   3.285   6.347   4.233  0.0909  0.3389 -0.3851
  427SOL    HW1 2180   3.314   6.296   4.314 -0.6338 -0.3835 -0.5626
  427SOL    HW2 2181   3.269   6.442   4.258 -1.4901 -0.1580  0.6660
  428SOL     OW 2182   2.870   1.109   6.779 -0.0661 -0.0414 -0.1860
  428SOL    HW1 2183   2.856   1.010   6.788 -1.6000  0.2074  0.5956
  428SOL    HW2 2184   2.785   1.156   6.803  1.2989  1.5662  1.7740
  429SOL     OW 2185   1.447   0.742   4.753  0.2902  0.2877 -0.7183
  429SOL    HW1 2186   1.371   0.687   4.787  3.0369 -2.2760  1.8871
  429SOL    HW2 2187   1.500   0.689   4.687  1.9293  0.4490  0.4047
  430SOL     OW 2188   1.785   1.512   4.410 -0.4838  0.0609  0.2161
  430SOL    HW1 2189   1.728   1.509   4.328 -2.3030 -2.6201  1.4297
  430SOL    HW2 2190   1.749   1.579   4.474 -0.6984  0.2336 -0.0851
  431SOL     OW 2191   2.315   6.616   1.423 -0.4314 -0.3562 -0.4232
  431SOL    HW1 2192   2.228   6.663   1.436 -0.0235  0.7074 -1.3585
  431SOL    HW2 2193   2.326   6.547   1.494 -1.2004  0.7601  0.8422
  432SOL     OW 2194   6.131   0.432   2.035  0.2680  0.5292 -0.1383
  432SOL    HW1 2195   6.117   0.526   2.066 -2.3683  0.1737  0.0016
  432SOL    HW2 2196   6.052   0.403   1.980 -0.0590 -2.2693  1.5898
  433SOL     OW 2197   3.608   2.450   6.369 -0.2677 -0.5660  0.1110
  433SOL    HW1 2198   3.652   2.448   6.279 -1.4780 -1.0664 -0.4808
  433SOL    HW2 2199   3.653   2.518   6.427 -0.6594  1.0936 -1.4826
  434SOL     OW 2200   2.243   5.660   4.130  0.1482  0.2690 -0.0392
  434SOL    HW1 2201   2.159   5.633   4.178  0.1365  2.2705  1.1598
  434SOL    HW2 2202   2.235   5.635   4.034 -1.3097 -0.6832  0.2872
  435SOL     OW 2203   3.456   1.810   0.520  0.1390 -0.1146  0.3170
  435SOL    HW1 2204   3.500   1.892   0.557  0.1942  0.3388 -0.6972
  435SOL    HW2 2205   3.508   1.777   0.441  0.7499 -1.8158  1.3900
  436SOL     OW 2206   4.073   6.489   2.490  0.4548  0.0119 -1.2471
  436SOL    HW1 2207   4.010   6.521   2.420 -1.6807  2.1293  1.3888
  436SOL    HW2 2208   4.090   6.392   2.478 -2.2888 -0.3629 -2.8954
  437SOL     OW 2209   0.026   1.248   6.687 -0.6567 -0.3843  0.1057
  437SOL    HW1 2210   0.071   1.178   6.632  0.0472  0.1519 -0.0157
  437SOL    HW2 2211   0.081   1.268   6.768 -1.1176 -0.3523  0.4161
  438SOL     OW 2212   1.724   2.896   1.801 -0.1125  0.2608 -0.2678
  438SOL    HW1 2213   1.821   2.886   1.780 -0.5253 -1.1533 -1.6862
  438SOL    HW2 2214   1.670   2.847   1.732 -1.7937  0.1970  1.0474
  439SOL     OW 2215   6.285   0.830   0.074  0.2259  0.0460  0.0661
  439SOL    HW1 2216   6.267   0.929   0.077  1.6409  0.3277  0.6151
  439SOL    HW2 2217   6.233   0.785   0.147 -1.4447  0.1713 -1.0076
  440SOL     OW 2218   2.756   2.109   2.084  0.4106 -0.1646 -0.3466
  440SOL    HW1 2219   2.719   2.057   2.007  0.8733 -0.5637 -0.3029
  440SOL    HW2 2220   2.810   2.186   2.051 -0.7695  0.6654 -0.4133
  441SOL     OW 2221   1.714   4.422   0.612 -0.0501 -0.5235  0.4727
  441SOL    HW1 2222   1.797   4.415   0.556 -0.9750  0.0658 -1.0210
  441SOL    HW2 2223   1.655   4.343   0.593  0.1654 -0.9828  1.5916
  442SOL     OW 2224   3.184   2.903   5.087  0.0970 -0.3144 -0.2170
  442SOL    HW1 2225   3.145   2.980   5.037 -0.4949 -0.3934  0.1132
  442SOL    HW2 2226   3.260   2.865   5.036 -2.6899 -2.7240 -2.8984
  443SOL     OW 2227   5.916   4.052   1.173 -0.2306 -0.0863  0.7402
  443SOL    HW1 2228   5.943   4.079   1.081  1.0046  1.3964  1.4790
  443SOL    HW2 2229   5.942   3.957   1.189 -2.7887 -1.2269 -1.2476
  444SOL     OW 2230   5.545   3.710   2.214 -0.9200 -0.0121 -0.0652
  444SOL    HW1 2231   5.520   3.806   2.197 -0.5716  0.7480  3.1021
  444SOL    HW2 2232   5.508   3.681   2.302  0.5042 -2.2235 -0.1179
  445SOL     OW 2233   3.174   0.797   4.611  0.0499 -0.5126 -0.3656
  445SOL    HW1 2234   3.198   0.802   4.514  3.1488  2.3909  0.3605
  445SOL    HW2 2235   3.092   0.852   4.628  0.4180  0.2991 -1.1395
  446SOL     OW 2236   7.017   3.260   5.797  0.3946  0.8309  0.1863
  446SOL    HW1 2237   7.071   3.341   5.820  0.3379  1.0566 -0.4498
  446SOL    HW2 2238   7.020   3.196   5.873 -0.8465  2.0905  1.3519
  447SOL     OW 2239   0.183   4.186   1.169  0.0276  0.2942 -0.3100
  447SOL    HW1 2240   0.244   4.156   1.095  0.2981 -1.8728  0.7193
  447SOL    HW2 2241   0.191   4.124   1.246  0.7857  3.2222  2.1830
  448SOL     OW 2242   3.110   0.273   5.107 -0.0476 -0.2234 -0.1689
  448SOL    HW1 2243   3.125   0.181   5.071  1.1715 -0.7005  1.4608
  448SOL    HW2 2244   3.112   0.339   5.032  0.1775 -1.3959 -1.2277
  449SOL     OW 2245   0.574   1.001   3.025  1.1213  0.0286 -0.2868
  449SOL    HW1 2246   0.497   0.971   2.968 -0.3277  0.9893  1.0860
  449SOL    HW2 2247   0.615   1.083   2.986  1.1317 -0.1886 -0.7405
  450SOL     OW 2248   0.266   2.569   4.119  0.1353  0.2480 -0.2744
  450SOL    HW1 2249   0.295   2.486   4.073  2.6625  0.8977 -0.0437
  450SOL    HW2 2250   0.183   2.552   4.171 -0.7939 -1.4251 -2.1863
  451SOL     OW 2251   1.488   0.004   6.448  0.0366  0.4320 -0.0074
  451SOL    HW1 2252   1.568   0.046   6.489 -0.0782  1.7122 -1.0260
  451SOL    HW2 2253   1.483   0.028   6.351 -0.3398 -1.5296 -0.5313
  452SOL     OW 2254   5.903   5.016   0.755 -0.0072 -0.0758  0.1554
  452SOL    HW1 2255   5.882   5.083   0.685 -0.9075 -1.2680 -0.7639
  452SOL    HW2 2256   5.885   4.924   0.720 -0.7476 -0.6957  2.0316
  453SOL     OW 2257   5.214   1.993   5.711 -0.3480 -0.2592 -0.0684
  453SOL    HW1 2258   5.288   1.928   5.695  1.2563  0.0233  4.6942
  453SOL    HW2 2259   5.249   2.087   5.706 -0.5754 -0.0889  1.1503
  454SOL     OW 2260   6.938   3.167   2.843  0.3238 -0.9463  0.1084
  454SOL    HW1 2261   6.980   3.201   2.759  0.8214 -3.1582 -0.6034
  454SOL    HW2 2262   6.873   3.095   2.821 -0.7200 -0.4896  1.5402
  455SOL     OW 2263   5.780   4.837   6.523  0.2338  0.1766 -0.2665
  455SOL    HW1 2264   5.698   4.816   6.469 -1.3388  1.3236  1.5454
  455SOL    HW2 2265   5.793   4.936   6.525  1.0636  0.0631  0.3722
  456SOL     OW 2266   6.014   0.603   3.640  0.2236 -0.4017  0.3789
  456SOL    HW1 2267   6.014   0.512   3.598 -1.6861  0.3386 -1.4304
  456SOL    HW2 2268   6.068   0.666   3.584 -2.0164  0.5038 -0.8952
  457SOL     OW 2269   5.116   6.555   3.690  0.0865  0.0975 -0.2169
  457SOL    HW1 2270   5.150   6.636   3.643  1.7124  1.1170  2.4766
  457SOL    HW2 2271   5.163   6.474   3.655  2.2724  0.9889  0.4822
  458SOL     OW 2272   1.207   6.789   3.702 -0.4024  0.2724  0.4603
  458SOL    HW1 2273   1.144   6.712   3.711  0.8917 -1.1100 -1.3557
  458SOL    HW2 2274   1.290   6.758   3.655 -0.2342  2.9844 -1.2652
  459SOL     OW 2275   5.197   3.724   3.050  0.6839 -0.2057 -0.0752
  459SOL    HW1 2276   5.102   3.730   3.021  0.9822  0.9357 -0.8998
  459SOL    HW2 2277   5.253   3.694   2.972  1.2102  0.7784 -0.0904
  460SOL     OW 2278   2.751   2.231   5.452 -0.0229  0.7405 -0.5303
  460SOL    HW1 2279   2.729   2.134   5.460 -0.8017  0.8722 -1.0039
  460SOL    HW2 2280   2.823   2.254   5.518 -1.3867  0.3092  1.2137
  461SOL     OW 2281   1.004   6.589   4.016  0.2991 -0.1772 -0.3304
  461SOL    HW1 2282   0.925   6.537   4.049  0.3605 -1.5537 -2.1920
  461SOL    HW2 2283   1.075   6.590   4.086 -1.2499  0.9327  1.3120
  462SOL     OW 2284   2.817   4.883   5.134 -0.6184 -0.3736 -0.2257
  462SOL    HW1 2285   2.729   4.893   5.088 -0.5110  1.4808 -0.1094
  462SOL    HW2 2286   2.842   4.786   5.138 -2.4606 -0.8978 -0.5875
  463SOL     OW 2287   5.663   4.570   3.003 -0.1715 -0.0938 -0.0750
  463SOL    HW1 2288   5.717   4.639   3.050 -0.5070  0.2252 -0.1546
  463SOL    HW2 2289   5.665   4.587   2.904  0.0596 -0.4248 -0.1301
  464SOL     OW 2290   4.173   4.769   5.717  0.2260  0.0357  0.1206
  464SOL    HW1 2291   4.235   4.825   5.772  1.0734  1.0378 -1.7740
  464SOL    HW2 2292   4.134   4.697   5.775  2.2566  0.0616  1.6575
  465SOL     OW 2293   0.446   5.781   0.809 -0.4765  0.1736 -0.5053
  465SOL    HW1 2294   0.356   5.797   0.850  0.1878 -0.6293  1.3211
  465SOL    HW2 2295   0.485   5.868   0.780 -1.8426  0.5317 -1.3845
  466SOL     OW 2296   3.164   4.953   3.673  0.3607 -0.1102 -0.2114
  466SOL    HW1 2297   3.123   4.938   3.763  0.6739 -1.3250 -0.2428
  466SOL    HW2 2298   3.138   5.043   3.638  0.7708  0.6547  1.3718
  467SOL     OW 2299   5.280   0.385   0.385 -0.4850 -0.0402 -0.1309
  467SOL    HW1 2300   5.212   0.320   0.421 -1.2380 -0.4426 -2.1138
  467SOL    HW2 2301   5.271   0.472   0.432 -0.8317 -0.7683  1.2051
  468SOL     OW 2302   1.391   5.139   6.739  0.4948  0.1375  0.2217
  468SOL    HW1 2303   1.295   5.162   6.754  0.7664  0.5621  1.4493
  468SOL    HW2 2304   1.444   5.162   6.821  1.5477 -0.6443 -0.2163
  469SOL     OW 2305   2.597   4.677   3.695  0.4446  0.0482  0.2841
  469SOL    HW1 2306   2.577   4.775   3.697 -0.0643 -0.0615  1.0454
  469SOL    HW2 2307   2.602   4.642   3.789  0.2445 -0.7297  0.0123
  470SOL     OW 2308   4.048   3.817   1.918  0.1390 -0.1992 -0.2119
  470SOL    HW1 2309   4.034   3.720   1.899  0.9560 -0.0419 -1.7411
  470SOL    HW2 2310   3.969   3.852   1.969 -0.8016 -1.3569 -0.8035
  471SOL     OW 2311   2.964   3.134   5.208 -0.1231 -0.3511  0.2431
  471SOL    HW1 2312   2.940   3.217   5.257 -0.8342 -1.3393  1.6414
  471SOL    HW2 2313   2.997   3.157   5.116 -1.2360  1.3901  0.2445
  472SOL     OW 2314   4.254   4.787   5.174  0.0855  0.4069  0.2032
  472SOL    HW1 2315   4.268   4.691   5.148 -0.1702  0.9111 -1.9107
  472SOL    HW2 2316   4.158   4.802   5.196 -0.4123  0.7279 -2.0398
  473SOL     OW 2317   5.546   6.023   2.384  0.3287 -0.3197  0.6724
  473SOL    HW1 2318   5.632   6.055   2.344  0.1819 -0.3984  0.2971
  473SOL    HW2 2319   5.564   5.943   2.441  0.1778 -1.7863 -1.2683
  474SOL     OW 2320   5.595   4.935   3.844  0.1492 -0.1201  0.3211
  474SOL    HW1 2321   5.557   4.842   3.852 -1.9529  0.5171 -1.1557
  474SOL    HW2 2322   5.520   5.000   3.831  1.6886  1.4657 -1.3027
  475SOL     OW 2323   5.183   0.986   1.298 -0.5472 -0.5146 -0.3940
  475SOL    HW1 2324   5.153   0.914   1.236 -0.6146  0.1338 -1.1295
  475SOL    HW2 2325   5.205   0.947   1.387 -1.6862 -1.2919 -0.4297
  476SOL     OW 2326   1.759   1.735   6.273  0.1105  0.3830 -0.1105
  476SOL    HW1 2327   1.832   1.673   6.301 -1.0786 -0.7713  0.5062
  476SOL    HW2 2328   1.718   1.702   6.188 -1.0226 -0.1249  0.6110
  477SOL     OW 2329   5.616   5.691   4.244  0.2970  0.1590 -0.5959
  477SOL    HW1 2330   5.707   5.730   4.260  0.2527  0.1006 -0.1825
  477SOL    HW2 2331   5.602   5.612   4.304  0.9295 -1.4190 -2.4330
  478SOL     OW 2332   5.298   5.732   0.683  0.2525  0.1341  0.0521
  478SOL    HW1 2333   5.359   5.714   0.606 -0.3599 -0.2418 -0.3532
  478SOL    HW2 2334   5.321   5.820   0.725  2.6481 -1.0355  1.4113
  479SOL     OW 2335   3.778   3.363   2.390  0.1716 -0.0812  0.2867
  479SOL    HW1 2336   3.850   3.314   2.341  0.0372  0.0320 -0.0316
  479SOL    HW2 2337   3.695   3.365   2.334  0.0504  0.1556  0.4689
  480SOL     OW 2338   6.066   6.727   0.945 -0.0757  0.6036  0.1160
  480SOL    HW1 2339   5.968   6.747   0.950 -0.3086  0.2138 -2.1445
  480SOL    HW2 2340   6.091   6.664   1.018 -1.8528 -0.5897 -0.2601
  481SOL     OW 2341   5.114   0.110   1.172 -0.6089  0.4019 -0.9641
  481SOL    HW1 2342   5.043   0.065   1.119  1.4027  0.5983 -4.1239
  481SOL    HW2 2343   5.103   0.209   1.164 -0.2282  0.4319 -1.1328
  482SOL     OW 2344   3.158   5.044   4.510  0.1269 -0.0129 -0.1160
  482SOL    HW1 2345   3.151   5.142   4.529  1.7480  0.1307 -0.1320
  482SOL    HW2 2346   3.175   5.029   4.413  0.8414 -0.2397  0.0350
  483SOL     OW 2347   6.833   3.162   4.535 -0.4664 -0.1715  0.4902
  483SOL    HW1 2348   6.903   3.208   4.480 -1.0279  0.0240 -0.0716
  483SOL    HW2 2349   6.841   3.063   4.523 -1.2854 -0.1032 -0.8510
  484SOL     OW 2350   2.124   6.433   4.928 -1.1992  0.3225  0.2766
  484SOL    HW1 2351   2.058   6.364   4.957 -0.1152 -0.2113  1.5767
  484SOL    HW2 2352   2.149   6.490   5.006 -0.6368  0.9523 -0.3513
  485SOL     OW 2353   5.689   3.881   0.824  0.8144 -0.2778 -0.2972
  485SOL    HW1 2354   5.674   3.800   0.881  0.9656 -0.0227  0.1076
  485SOL    HW2 2355   5.680   3.963   0.881 -0.6715  0.0545 -0.9570
  486SOL     OW 2356   0.175   5.968   5.255 -0.4009 -0.2147  0.2301
  486SOL    HW1 2357   0.205   6.055   5.295 -1.3735  1.1400 -1.8087
  486SOL    HW2 2358   0.085   5.945   5.291 -0.1182 -0.4150  0.8165
  487SOL     OW 2359   5.561   1.948   6.703 -0.3428  0.1933  0.5551
  487SOL    HW1 2360   5.656   1.923   6.718  0.3867  2.8996  0.9115
  487SOL    HW2 2361   5.542   1.949   6.605  0.4129  0.9447  0.4041
  488SOL     OW 2362   3.101   5.530   3.443  0.2225  0.3626 -0.3412
  488SOL    HW1 2363   3.085   5.476   3.361  0.9206  2.6006 -2.0428
  488SOL    HW2 2364   3.049   5.491   3.519 -3.0809  0.0399 -2.5615
  489SOL     OW 2365   2.099   4.228   5.649 -0.3135 -0.0183 -0.3301
  489SOL    HW1 2366   2.110   4.256   5.744  1.0025 -0.2490 -0.3966
  489SOL    HW2 2367   2.187   4.234   5.602 -0.5523 -1.6817 -1.0573
  490SOL     OW 2368   0.812   3.646   3.606 -0.0417  0.2463 -0.4442
  490SOL    HW1 2369   0.832   3.601   3.518 -0.8928  0.2001 -0.6287
  490SOL    HW2 2370   0.863   3.732   3.612 -0.0387  0.2898 -1.0264
  491SOL     OW 2371   5.966   3.072   1.624  0.1748  0.5393 -0.3063
  491SOL    HW1 2372   6.037   3.005   1.647 -0.4088 -0.6145 -1.7085
  491SOL    HW2 2373   5.925   3.107   1.708  0.7143 -0.6345  0.4752
  492SOL     OW 2374   1.954   3.005   6.543 -0.7090 -0.0365 -0.0083
  492SOL    HW1 2375   1.967   3.089   6.595 -1.3564  0.3915 -0.5251
  492SOL    HW2 2376   1.884   3.019   6.474  1.3747 -0.0288 -2.2562
  493SOL     OW 2377   0.346   5.313   2.821 -0.0580 -0.1855 -0.3098
  493SOL    HW1 2378   0.351   5.301   2.920  1.1955 -1.1580 -0.4805
  493SOL    HW2 2379   0.270   5.375   2.800  1.3916  2.3692  1.4362
  494SOL     OW 2380   2.384   5.621   3.836  0.3191  1.1330  0.4762
  494SOL    HW1 2381   2.374   5.522   3.838  1.2312  1.0378  1.2782
  494SOL    HW2 2382   2.471   5.647   3.880  1.6588  2.0763 -2.4744
  495SOL     OW 2383   5.267   5.008   6.700 -0.1937  0.6723  0.2191
  495SOL    HW1 2384   5.195   4.941   6.720  0.2428 -0.5660 -2.0191
  495SOL    HW2 2385   5.354   4.975   6.736 -0.4007  1.2963  1.3325
  496SOL     OW 2386   6.235   5.759   1.603 -0.3577  0.1426 -0.5006
  496SOL    HW1 2387   6.216   5.669   1.564 -0.3462  0.6406 -1.6871
  496SOL    HW2 2388   6.318   5.797   1.563  0.1379  0.3215  0.6453
  497SOL     OW 2389   4.983   1.683   0.039  0.7177 -0.6164 -0.0002
  497SOL    HW1 2390   5.003   1.613  -0.030 -0.8678 -1.0855 -0.0209
  497SOL    HW2 2391   5.062   1.743   0.049  1.9653 -2.1421 -0.2937
  498SOL     OW 2392   0.819   5.954   0.210  0.2282 -0.2431  0.1619
  498SOL    HW1 2393   0.821   5.953   0.110  2.3470 -0.1756  0.1605
  498SOL    HW2 2394   0.911   5.936   0.245 -0.0957  1.5428  2.0874
  499SOL     OW 2395   3.991   5.627   7.009  0.1511  0.2219 -0.6775
  499SOL    HW1 2396   4.022   5.706   7.061 -1.6464 -0.3103  1.3766
  499SOL    HW2 2397   4.068   5.587   6.959  1.5159  2.0361 -0.1059
  500SOL     OW 2398   6.419   0.342   1.304 -0.4129  0.1588 -0.3666
  500SOL    HW1 2399   6.434   0.407   1.379  0.7891 -0.2261 -0.2632
  500SOL    HW2 2400   6.480   0.364   1.228  0.9801 -1.5999  0.1693
  501SOL     OW 2401   2.484   6.360   6.229  0.2217  0.0753  0.4405
  501SOL    HW1 2402   2.512   6.320   6.316  0.9286  1.9036  1.0789
  501SOL    HW2 2403   2.556   6.419   6.193 -0.5606  0.3508 -0.7581
  502SOL     OW 2404   3.566   3.294   5.781  0.7326  0.0838  0.6220
  502SOL    HW1 2405   3.585   3.364   5.850  1.5719  0.2325  0.2572
  502SOL    HW2 2406   3.610   3.319   5.695  1.7439 -1.2826  0.7032
  503SOL     OW 2407   3.244   5.667   2.862  0.5851 -0.0450 -0.0544
  503SOL    HW1 2408   3.306   5.612   2.918 -0.1316 -0.3601  0.4419
  503SOL    HW2 2409   3.163   5.613   2.838 -0.3266  0.9083  0.7845
  504SOL     OW 2410   6.416   1.007   1.210  0.0716  0.3262 -0.1027
  504SOL    HW1 2411   6.330   1.044   1.246  0.1383 -0.4789  0.9157
  504SOL    HW2 2412   6.422   1.028   1.112 -0.2415  2.3322  0.2613
  505SOL     OW 2413   6.866   3.928   5.018  0.5987  0.1850  0.0869
  505SOL    HW1 2414   6.846   3.834   5.044  0.7470  0.3943  1.0014
  505SOL    HW2 2415   6.780   3.976   4.997  0.6404 -0.6637 -2.3191
  506SOL     OW 2416   3.656   6.361   3.783  0.6533  0.3279 -0.1411
  506SOL    HW1 2417   3.593   6.283   3.789  0.9024 -0.0536 -1.7979
  506SOL    HW2 2418   3.638   6.411   3.698  1.4891  1.2049  0.1857
  507SOL     OW 2419   2.029   0.216   5.098 -0.4709  0.4962 -0.1567
  507SOL    HW1 2420   2.074   0.156   5.031 -1.1147  0.7577 -0.8320
  507SOL    HW2 2421   2.045   0.311   5.074  0.3114  0.6091  0.7597
  508SOL     OW 2422   1.364   6.486   3.308 -0.2114 -0.2021  0.0293
  508SOL    HW1 2423   1.405   6.520   3.223  1.2668  1.0145  1.1505
  508SOL    HW2 2424   1.409   6.401   3.335 -0.8307 -0.7058 -0.4898
  509SOL     OW 2425   5.929   6.865   6.680 -0.2254 -0.0741  0.0388
  509SOL    HW1 2426   5.877   6.780   6.681 -0.8641  0.3115  0.9506
  509SOL    HW2 2427   5.867   6.943   6.669  0.4366  0.2471 -1.8616
  510SOL     OW 2428   6.530   4.564   5.258  0.5474 -0.0044 -0.9232
  510SOL    HW1 2429   6.479   4.488   5.298 -0.4270 -0.2857 -2.6187
  510SOL    HW2 2430   6.590   4.530   5.186  0.0500  0.8363 -1.7487
  511SOL     OW 2431   6.815   1.691   0.716  0.6212  0.0305 -0.5518
  511SOL    HW1 2432   6.881   1.764   0.735 -1.0404  2.0116 -1.9326
  511SOL    HW2 2433   6.847   1.638   0.637  0.8678  0.5803 -0.8304
  512SOL     OW 2434   1.594   1.675   6.031 -0.3066 -0.0770  0.1086
  512SOL    HW1 2435   1.604   1.579   6.005 -1.6706 -0.9342  2.4877
  512SOL    HW2 2436   1.610   1.733   5.951  0.5099 -2.2516 -1.3911
  513SOL     OW 2437   5.284   6.886   2.629 -0.5513 -0.2579  0.0005
  513SOL    HW1 2438   5.282   6.813   2.697 -0.7751  0.4314  0.7666
  513SOL    HW2 2439   5.256   6.851   2.540 -0.2819 -1.1786  0.2715
  514SOL     OW 2440   6.109   0.622   4.591 -0.0226 -0.6148 -0.3930
  514SOL    HW1 2441   6.027   0.630   4.647 -0.4858  1.6874 -1.2715
  514SOL    HW2 2442   6.092   0.556   4.517 -0.4431 -1.4413  0.4159
  515SOL     OW 2443   2.289   0.718   6.867  0.0571 -0.3139  0.2448
  515SOL    HW1 2444   2.222   0.787   6.841 -0.5712 -1.0169 -0.0575
  515SOL    HW2 2445   2.287   0.705   6.966  1.1531  1.0604  0.4797
  516SOL     OW 2446   7.002   4.469   4.023 -0.1335 -0.5163  0.4511
  516SOL    HW1 2447   6.988   4.565   4.047 -0.6334  0.4509 -3.0548
  516SOL    HW2 2448   6.914   4.424   4.010  0.0995 -1.3756  1.6819
  517SOL     OW 2449   4.060   4.959   1.745 -0.3307  0.5163  0.4857
  517SOL    HW1 2450   3.990   4.891   1.766  1.0899 -0.7928  1.1837
  517SOL    HW2 2451   4.142   4.913   1.712  1.0699  1.7685  2.0600
  518SOL     OW 2452   2.183   5.542   2.764 -0.3873 -0.3205 -0.2328
  518SOL    HW1 2453   2.102   5.601   2.769 -0.7202 -0.8104  0.4204
  518SOL    HW2 2454   2.157   5.449   2.791  0.2448 -0.6401 -0.7162
  519SOL     OW 2455   1.511   6.843   2.823 -0.2716 -0.4819  0.0342
  519SOL    HW1 2456   1.414   6.859   2.844  0.1444  1.0489  0.9314
  519SOL    HW2 2457   1.568   6.881   2.896  1.1209  1.8329 -2.0673
  520SOL     OW 2458   4.944   4.715   2.041  0.2046 -0.5425  0.0176
  520SOL    HW1 2459   5.014   4.783   2.062 -0.5979 -0.2595  1.9109
  520SOL    HW2 2460   4.973   4.626   2.075  1.2563 -1.2409 -2.4624
  521SOL     OW 2461   2.877   0.517   5.139 -0.2955  0.0486 -0.1684
  521SOL    HW1 2462   2.875   0.488   5.043  1.8079  2.3026 -0.9933
  521SOL    HW2 2463   2.944   0.462   5.189 -0.5600 -0.3585 -0.2492
  522SOL     OW 2464   4.158   6.070   4.819 -0.1093 -0.0464 -0.2251
  522SOL    HW1 2465   4.206   6.149   4.781  3.0725 -1.2514  0.9378
  522SOL    HW2 2466   4.161   6.075   4.919 -2.4939 -0.2127 -0.1010
  523SOL     OW 2467   0.019   6.180   0.942 -0.3315 -0.2030  0.0547
  523SOL    HW1 2468  -0.043   6.250   0.906  1.3571  0.9734 -0.6577
  523SOL    HW2 2469   0.050   6.121   0.867  0.4284  0.0324  0.1824
  524SOL     OW 2470   6.032   0.989   1.491  0.6101  0.6096  0.0739
  524SOL    HW1 2471   6.110   0.930   1.470  1.2698  0.8806  1.6010
  524SOL    HW2 2472   5.948   0.936   1.488  1.0238 -0.0497 -0.0455
  525SOL     OW 2473   1.215   4.019   5.057  0.3791  0.3077 -0.1167
  525SOL    HW1 2474   1.203   3.936   5.112 -0.2584 -0.4763 -1.3695
  525SOL    HW2 2475   1.298   4.010   5.002  1.8912  1.7577  1.7863
  526SOL     OW 2476   4.282   0.721   4.733 -0.2598 -0.0195 -0.2844
  526SOL    HW1 2477   4.231   0.635   4.737  0.1616 -0.2710 -0.1959
  526SOL    HW2 2478   4.219   0.798   4.744 -0.7930 -0.2674 -1.3883
  527SOL     OW 2479   0.734   2.105   1.226 -0.2597 -0.3172  0.7172
  527SOL    HW1 2480   0.702   2.194   1.257  1.2429  0.5893 -0.2132
  527SOL    HW2 2481   0.775   2.056   1.303 -1.2775 -0.3202  1.2783
  528SOL     OW 2482   2.209   1.721   4.372  0.0654 -0.0869 -0.0016
  528SOL    HW1 2483   2.249   1.704   4.282 -1.1098  0.3853 -0.6359
  528SOL    HW2 2484   2.235   1.648   4.434 -0.5478 -1.3865 -1.2164
  529SOL     OW 2485   1.618   6.083   6.172  0.2064 -0.4294  0.3900
  529SOL    HW1 2486   1.663   6.060   6.258 -1.8329 -0.1675  1.6046
  529SOL    HW2 2487   1.621   6.181   6.157 -0.1722 -0.3781  0.6245
  530SOL     OW 2488   3.735   4.950   2.204 -0.4149 -0.7733 -0.3813
  530SOL    HW1 2489   3.692   4.886   2.140 -0.4563  0.2220 -1.3907
  530SOL    HW2 2490   3.692   5.040   2.194 -1.1901 -0.8516  1.8723
  531SOL     OW 2491   6.403   3.067   5.349 -0.3660  0.2038  0.7603
  531SOL    HW1 2492   6.402   3.113   5.438  1.4900  0.0260  0.9096
  531SOL    HW2 2493   6.320   3.013   5.339 -1.2469  1.3043  1.7966
  532SOL     OW 2494   3.462   0.008   6.346  0.7506 -0.3985  0.3942
  532SOL    HW1 2495   3.434  -0.077   6.392  0.3805 -1.6622 -2.0011
  532SOL    HW2 2496   3.508  -0.015   6.260 -1.3696  1.7827 -1.4722
  533SOL     OW 2497   3.360   0.370   4.457 -0.2477 -0.9402 -0.2761
  533SOL    HW1 2498   3.423   0.416   4.394 -1.1118 -1.4471 -1.5389
  533SOL    HW2 2499   3.319   0.291   4.411 -2.7044  0.0443  0.0885
  534SOL     OW 2500   1.509   1.998   1.741  0.1561 -0.4384  0.1398
  534SOL    HW1 2501   1.532   1.999   1.839  0.9668 -0.6598 -0.0401
  534SOL    HW2 2502   1.492   1.905   1.712  0.0945 -0.3926  0.0322
  535SOL     OW 2503   5.503   3.949   2.080 -0.1294 -0.0463  0.0267
  535SOL    HW1 2504   5.543   3.941   1.988 -0.1445 -2.0455  0.1600
  535SOL    HW2 2505   5.576   3.967   2.146 -0.1516  1.7194 -0.3605
  536SOL     OW 2506   6.795   6.977   0.199 -0.4825 -0.4960 -0.1136
  536SOL    HW1 2507   6.894   6.992   0.191 -0.4220 -0.6008  0.4131
  536SOL    HW2 2508   6.775   6.880   0.183 -0.5693 -0.3692 -0.8056
  537SOL     OW 2509   2.670   2.390   2.786 -0.5807  0.2241 -0.2345
  537SOL    HW1 2510   2.645   2.477   2.743  3.8704  1.4995 -0.7151
  537SOL    HW2 2511   2.694   2.406   2.882 -1.7896 -0.9337  0.2832
  538SOL     OW 2512   3.309   4.996   0.865  0.0348  0.3261  1.4261
  538SOL    HW1 2513   3.284   5.077   0.812 -0.7971  0.1010  1.4607
  538SOL    HW2 2514   3.375   4.941   0.814  1.7847  1.7787  2.0362
  539SOL     OW 2515   2.048   0.526   0.096  0.0550  0.0238  0.5725
  539SOL    HW1 2516   2.090   0.615   0.114 -0.5393  0.3749  0.2905
  539SOL    HW2 2517   2.070   0.463   0.170  0.9097  0.2480  0.5204
  540SOL     OW 2518   2.243   6.015   6.141 -0.0971 -0.1741  0.0798
  540SOL    HW1 2519   2.204   5.926   6.168  0.4702  0.4713  3.5270
  540SOL    HW2 2520   2.169   6.081   6.129 -0.4297 -0.6761 -0.6955
  541SOL     OW 2521   0.163   6.243   0.246  0.0349  0.0070  0.1611
  541SOL    HW1 2522   0.108   6.172   0.202  1.1938  0.4606 -2.1646
  541SOL    HW2 2523   0.110   6.287   0.318 -2.3092 -0.1851 -1.3456
  542SOL     OW 2524   3.909   5.652   5.455  0.0761  0.3263 -0.0322
  542SOL    HW1 2525   3.998   5.657   5.500 -0.2417  0.4317  0.6003
  542SOL    HW2 2526   3.848   5.721   5.494 -0.6941 -0.6191  0.4783
  543SOL     OW 2527   1.208   1.339   4.408 -0.1811  0.2456 -0.3212
  543SOL    HW1 2528   1.171   1.294   4.327  0.9077  1.0069 -1.2730
  543SOL    HW2 2529   1.152   1.419   4.431 -0.3791  0.1427 -0.4486
  544SOL     OW 2530   1.001   2.175   0.638  0.1463 -0.4219  0.1268
  544SOL    HW1 2531   1.030   2.115   0.563  1.1270 -0.3537  0.4344
  544SOL    HW2 2532   1.062   2.254   0.642 -1.2796  0.7586 -0.4409
  545SOL     OW 2533   5.318   3.423   0.123  0.0353  0.0352 -0.0295
  545SOL    HW1 2534   5.363   3.396   0.037 -1.2018 -1.8975 -0.1172
  545SOL    HW2 2535   5.386   3.430   0.195  0.7333 -1.0593 -0.5582
  546SOL     OW 2536   0.306   5.951   2.650 -0.6765 -0.2417  0.1639
  546SOL    HW1 2537   0.259   6.039   2.658  1.1957  0.7525  0.8646
  546SOL    HW2 2538   0.396   5.958   2.693  0.6798 -1.6515 -2.2635
  547SOL     OW 2539   2.714   6.168   1.213 -0.1350  0.4356  0.1303
  547SOL    HW1 2540   2.707   6.189   1.311  1.2517 -0.4949  0.4598
  547SOL    HW2 2541   2.629   6.193   1.168 -0.6700  1.2430  1.5014
  548SOL     OW 2542   4.173   3.464   5.079 -0.0762 -0.0356  0.1987
  548SOL    HW1 2543   4.111   3.538   5.103  0.6867  0.2093  1.4359
  548SOL    HW2 2544   4.258   3.472   5.130  0.6922 -0.8110 -0.9008
  549SOL     OW 2545   5.055   3.941   3.430  0.1377  0.0156  0.2756
  549SOL    HW1 2546   5.002   3.923   3.347  1.2579 -1.3178 -0.1953
  549SOL    HW2 2547   4.993   3.959   3.506 -0.9532 -0.2703 -0.5217
  550SOL     OW 2548   7.019   3.886   3.823 -0.5049  0.6813 -0.4120
  550SOL    HW1 2549   6.976   3.803   3.858  1.0359  0.4726  1.1100
  550SOL    HW2 2550   7.108   3.898   3.866 -0.0406  2.3405 -1.7281
  551SOL     OW 2551   5.713   2.367   0.576  0.0699 -0.3172 -0.0603
  551SOL    HW1 2552   5.797   2.408   0.611  0.4688 -0.9484 -0.2450
  551SOL    HW2 2553   5.671   2.427   0.509  1.7098 -1.0358 -1.8366
  552SOL     OW 2554   0.712   0.592   5.188  0.2058  0.3422 -0.4828
  552SOL    HW1 2555   0.698   0.649   5.106  0.1138  1.0423  0.0144
  552SOL    HW2 2556   0.629   0.595   5.244  0.3285 -0.0158 -0.2821
  553SOL     OW 2557   3.847   4.969   4.781 -0.0853  0.3700 -0.6862
  553SOL    HW1 2558   3.766   4.957   4.723 -1.1716  0.1341  0.8181
  553SOL    HW2 2559   3.820   5.017   4.865  1.5450  1.1592 -0.5797
  554SOL     OW 2560   1.531   4.953   1.874 -0.2773  0.6219 -0.1976
  554SOL    HW1 2561   1.528   4.890   1.796  1.3701 -0.8476  0.8586
  554SOL    HW2 2562   1.446   4.944   1.926 -0.3839 -0.1996 -0.4827
  555SOL     OW 2563   3.509   5.024   5.816  0.8014  0.3126  0.1173
  555SOL    HW1 2564   3.525   4.951   5.750  1.1662  0.2012  0.3254
  555SOL    HW2 2565   3.567   5.102   5.794  1.2282  0.1219  0.5433
  556SOL     OW 2566   6.745   3.853   2.525 -0.4903 -0.3686  0.2699
  556SOL    HW1 2567   6.783   3.822   2.439 -2.5533 -2.3162 -0.0489
  556SOL    HW2 2568   6.694   3.938   2.511  1.4456  0.8472  0.2084
  557SOL     OW 2569   6.916   4.568   4.513 -0.3660 -0.8773  0.9848
  557SOL    HW1 2570   7.008   4.539   4.539  0.0947 -0.5775 -0.2350
  557SOL    HW2 2571   6.922   4.646   4.450 -1.3910 -1.8286 -0.3538
  558SOL     OW 2572   3.804   4.561   1.589 -0.5747 -0.1514  0.0135
  558SOL    HW1 2573   3.741   4.603   1.523 -0.8998  1.5303  1.3339
  558SOL    HW2 2574   3.752   4.509   1.657 -0.3429 -0.6652 -0.1928
  559SOL     OW 2575   4.597   6.582   6.139  0.2248 -0.2011  0.1130
  559SOL    HW1 2576   4.545   6.574   6.224  0.5934 -0.8700  0.2784
  559SOL    HW2 2577   4.534   6.574   6.061 -0.4128  2.3033  0.2789
  560SOL     OW 2578   0.121   1.374   3.084 -0.2268 -0.2293 -0.3888
  560SOL    HW1 2579   0.126   1.393   2.986 -0.5557  0.9232 -0.2018
  560SOL    HW2 2580   0.200   1.414   3.130 -0.4253 -0.1534 -0.1057
  561SOL     OW 2581   0.626   2.839   5.974  0.1016  0.2006 -0.3972
  561SOL    HW1 2582   0.645   2.846   5.876  0.2242 -2.9965 -0.6881
  561SOL    HW2 2583   0.530   2.859   5.990 -0.1960 -0.3908 -1.3524
  562SOL     OW 2584   1.699   5.441   3.874  0.6009  0.2680 -0.0511
  562SOL    HW1 2585   1.782   5.460   3.821 -0.3241  1.9402 -0.9887
  562SOL    HW2 2586   1.631   5.396   3.814  0.0794  0.8251  0.1139
  563SOL     OW 2587   1.973   1.384   3.992 -0.2738  0.0724 -0.3129
  563SOL    HW1 2588   2.018   1.341   4.070  1.3893 -0.0880 -1.3187
  563SOL    HW2 2589   1.903   1.323   3.955 -0.5735 -0.1455  0.5985
  564SOL     OW 2590   5.134   4.077   6.509 -0.1724 -0.4556  0.3047
  564SOL    HW1 2591   5.078   4.091   6.427  1.5236 -0.3260 -0.8817
  564SOL    HW2 2592   5.116   3.987   6.547 -2.0008  0.0178  0.6320
  565SOL     OW 2593   3.580   3.089   2.730 -0.7929 -0.6318  0.0628
  565SOL    HW1 2594   3.517   3.122   2.660  0.0612 -0.1836 -0.5107
  565SOL    HW2 2595   3.624   3.167   2.775  1.2242 -0.9230 -1.2873
  566SOL     OW 2596   6.098   2.048   3.987  0.1397 -0.1794  0.1900
  566SOL    HW1 2597   6.117   1.956   3.954 -1.5452 -0.4999  0.0035
  566SOL    HW2 2598   6.144   2.115   3.928 -1.0514 -0.8121 -1.5425
  567SOL     OW 2599   1.026   2.086   4.127  0.1567 -0.1282 -0.7547
  567SOL    HW1 2600   0.932   2.052   4.138 -0.2059  1.5418  2.4862
  567SOL    HW2 2601   1.025   2.185   4.117  1.5707 -0.1089 -0.9020
  568SOL     OW 2602   0.711   0.108   0.699 -0.1466 -0.0412  0.0820
  568SOL    HW1 2603   0.671   0.043   0.635  0.5104 -0.1966 -0.1755
  568SOL    HW2 2604   0.722   0.065   0.788 -1.5436  0.3303  0.4712
  569SOL     OW 2605   6.885   4.274   3.653 -0.3478  0.3356 -0.0848
  569SOL    HW1 2606   6.793   4.314   3.646 -0.2550  0.6573  0.4880
  569SOL    HW2 2607   6.946   4.337   3.701  0.5549  0.7449 -1.6945
  570SOL     OW 2608   6.635   6.702   6.776 -0.1688 -0.9504 -0.1564
  570SOL    HW1 2609   6.540   6.708   6.746 -0.1608  1.9558  0.1413
  570SOL    HW2 2610   6.696   6.722   6.699  0.2670 -3.1101 -0.4258
  571SOL     OW 2611   1.205   4.060   3.413 -0.5786 -0.3976 -0.3488
  571SOL    HW1 2612   1.234   4.144   3.459 -0.4135  1.2894 -3.2885
  571SOL    HW2 2613   1.153   4.084   3.331 -2.4598 -3.2516 -0.1055
  572SOL     OW 2614   1.941   1.932   5.115 -0.5270  0.2123  0.0940
  572SOL    HW1 2615   2.029   1.884   5.120 -0.7882 -0.4455 -1.1155
  572SOL    HW2 2616   1.956   2.030   5.120  0.0180  0.0635  2.7168
  573SOL     OW 2617   6.775   0.342   5.335 -0.0837 -0.3367 -0.1928
  573SOL    HW1 2618   6.845   0.406   5.301  0.8278 -1.2463 -0.0800
  573SOL    HW2 2619   6.753   0.365   5.430 -0.3828  0.3147 -0.4117
  574SOL     OW 2620   2.431   6.758   5.988  0.3456  0.2103  0.0757
  574SOL    HW1 2621   2.518   6.805   6.003  0.4359 -0.2653  1.1924
  574SOL    HW2 2622   2.355   6.821   6.007  0.4182  0.7636 -1.3521
  575SOL     OW 2623   4.215   4.129   6.179 -0.0912  0.4234 -0.6610
  575SOL    HW1 2624   4.289   4.106   6.115  0.9173  1.8985 -0.0658
  575SOL    HW2 2625   4.150   4.053   6.182  1.5773 -1.1041 -0.9339
  576SOL     OW 2626   6.772   0.868   1.996  0.2829 -0.3146  0.1160
  576SOL    HW1 2627   6.856   0.922   1.984 -0.5706  1.3900  1.3328
  576SOL    HW2 2628   6.697   0.913   1.947 -0.1498 -1.2371 -0.0786
  577SOL     OW 2629   0.054   2.417   6.839  0.3406 -0.2179  0.0628
  577SOL    HW1 2630   0.103   2.394   6.923  1.4724 -1.5605 -0.9123
  577SOL    HW2 2631   0.110   2.391   6.760 -1.7339 -1.3669 -1.1102
  578SOL     OW 2632   1.533   6.667   0.233 -0.1676  0.7441 -0.8169
  578SOL    HW1 2633   1.462   6.735   0.210 -1.6452 -1.2907 -2.7318
  578SOL    HW2 2634   1.623   6.707   0.217 -0.9541  2.4783 -1.2056
  579SOL     OW 2635   0.721   5.572   2.276 -0.2728  0.1483 -0.0291
  579SOL    HW1 2636   0.738   5.540   2.182  1.5866 -1.3801  0.7504
  579SOL    HW2 2637   0.630   5.541   2.306 -0.2431 -0.7140 -0.7969
  580SOL     OW 2638   4.936   3.604   4.345 -0.1427  0.1977  0.5760
  580SOL    HW1 2639   4.973   3.561   4.427  2.8301  0.0446 -0.7145
  580SOL    HW2 2640   4.859   3.550   4.311 -0.1501 -0.8387  2.1309
  581SOL     OW 2641   2.956   2.244   4.765  0.0923 -0.4400  0.6271
  581SOL    HW1 2642   2.990   2.263   4.857  1.1879  1.4590 -0.1224
  581SOL    HW2 2643   3.029   2.261   4.698 -1.4216  0.7792 -0.8039
  582SOL     OW 2644   6.375   5.413   3.453 -0.0066  0.3890  0.1823
  582SOL    HW1 2645   6.382   5.407   3.354  1.7128 -0.2607  0.3148
  582SOL    HW2 2646   6.324   5.496   3.478 -1.9217 -0.2881 -1.2303
  583SOL     OW 2647   2.689   5.181   5.003 -0.2700  0.8929 -0.2510
  583SOL    HW1 2648   2.625   5.107   5.022  1.3493 -0.9848 -1.6335
  583SOL    HW2 2649   2.651   5.268   5.035 -2.4202 -0.4531  1.0687
  584SOL     OW 2650   5.703   2.015   4.419  0.4997 -0.3520 -0.1713
  584SOL    HW1 2651   5.754   1.986   4.338  1.5425 -0.6802  0.5747
  584SOL    HW2 2652   5.735   1.964   4.498  0.5330  0.9792  0.7041
  585SOL     OW 2653   3.862   4.764   0.835  0.4639  0.2460  0.1466
  585SOL    HW1 2654   3.804   4.773   0.915 -1.0472  0.6527 -0.9472
  585SOL    HW2 2655   3.872   4.667   0.812  1.2687  0.0973  1.0468
  586SOL     OW 2656   3.787   5.710   1.560  0.4081 -0.1261 -0.0539
  586SOL    HW1 2657   3.793   5.690   1.657  0.8478 -0.3673 -0.1293
  586SOL    HW2 2658   3.710   5.660   1.520 -1.3646  1.9004  0.6460
  587SOL     OW 2659   5.105   0.227   4.511  0.1537 -0.3093 -0.0971
  587SOL    HW1 2660   5.192   0.218   4.560  0.9552  0.9809 -1.2239
  587SOL    HW2 2661   5.080   0.324   4.506 -0.5023 -0.5242 -1.1954
  588SOL     OW 2662   2.478   3.584   1.613  0.5000  0.5216 -0.2252
  588SOL    HW1 2663   2.483   3.503   1.671  0.1142  0.4050 -0.3496
  588SOL    HW2 2664   2.399   3.639   1.640 -1.1839 -0.7768 -2.1909
  589SOL     OW 2665   4.276   4.721   4.706  0.5911  0.2118  0.1208
  589SOL    HW1 2666   4.201   4.711   4.771 -0.7426  3.5980 -0.6916
  589SOL    HW2 2667   4.362   4.694   4.750 -0.7439 -1.4788  1.8619
  590SOL     OW 2668   4.031   5.043   0.099 -0.5177  0.0179  0.1820
  590SOL    HW1 2669   4.045   4.950   0.134 -0.3077  0.1450  0.4365
  590SOL    HW2 2670   4.106   5.067   0.037  1.2563  1.2146  2.6123
  591SOL     OW 2671   4.253   1.091   3.302  0.5166 -0.3104 -0.1487
  591SOL    HW1 2672   4.195   1.034   3.244  0.3694 -0.8998  0.5534
  591SOL    HW2 2673   4.349   1.065   3.290  0.7511  1.2246 -1.9282
  592SOL     OW 2674   5.113   7.020   3.501 -0.4630  0.3132 -0.6322
  592SOL    HW1 2675   5.054   7.096   3.475  1.2535  1.3296 -1.7446
  592SOL    HW2 2676   5.205   7.034   3.464  0.4260 -1.3669  0.7477
  593SOL     OW 2677   2.099   5.264   6.023 -0.1478  0.2238  0.1650
  593SOL    HW1 2678   2.076   5.361   6.033  0.1599  0.1919  1.3842
  593SOL    HW2 2679   2.199   5.253   6.020 -0.1906 -0.0034 -0.6873
  594SOL     OW 2680   2.330   0.242   3.853 -0.3372  0.5146 -0.4606
  594SOL    HW1 2681   2.338   0.297   3.770 -3.5694  0.8386 -0.6637
  594SOL    HW2 2682   2.344   0.300   3.933  1.5612  0.4409 -0.6751
  595SOL     OW 2683   5.900   4.953   3.452 -0.6000 -0.0949 -0.5959
  595SOL    HW1 2684   5.838   5.020   3.413  1.7271  1.8859 -1.1106
  595SOL    HW2 2685   5.947   4.993   3.531  2.1579 -0.3544 -1.9807
  596SOL     OW 2686   6.539   3.686   4.471 -0.5397  0.6026 -0.0054
  596SOL    HW1 2687   6.470   3.755   4.493 -2.7984 -1.7874  0.9017
  596SOL    HW2 2688   6.495   3.596   4.465  2.6675 -1.2538  1.8109
  597SOL     OW 2689   4.611   1.921   1.015 -0.8041 -0.5262  0.5234
  597SOL    HW1 2690   4.606   2.013   0.978 -0.4403 -0.0378  1.6326
  597SOL    HW2 2691   4.616   1.855   0.940  1.7603  0.5039 -0.3291
  598SOL     OW 2692   3.466   3.485   2.381  0.3286 -0.6343 -0.0986
  598SOL    HW1 2693   3.374   3.510   2.350 -0.2691 -1.2119  1.0933
  598SOL    HW2 2694   3.500   3.555   2.444  0.5971 -0.5427 -0.3466
  599SOL     OW 2695   1.529   4.587   6.977  0.5138 -0.2782 -0.2242
  599SOL    HW1 2696   1.543   4.518   6.906 -1.7423 -0.6716 -0.3307
  599SOL    HW2 2697   1.463   4.655   6.945 -1.9175 -1.4158  2.0515
  600SOL     OW 2698   5.681   3.020   3.949  0.1073  0.1337 -0.2718
  600SOL    HW1 2699   5.646   3.056   3.862 -1.6134  1.2372  0.8278
  600SOL    HW2 2700   5.628   2.939   3.975  1.6202 -1.1292 -0.9504
  601SOL     OW 2701   0.177   0.210   5.686  0.3511 -0.0510 -0.1533
  601SOL    HW1 2702   0.138   0.154   5.613 -1.1559 -0.9928  1.3033
  601SOL    HW2 2703   0.130   0.298   5.690 -0.7091 -0.6294  0.6791
  602SOL     OW 2704   0.357   0.329   3.342 -0.0254 -0.2720 -0.3879
  602SOL    HW1 2705   0.401   0.400   3.397  1.7468 -1.6955  0.1219
  602SOL    HW2 2706   0.358   0.242   3.391  0.1306 -1.2271 -2.0047
  603SOL     OW 2707   1.177   0.691   4.309  0.0004  0.1642 -0.2427
  603SOL    HW1 2708   1.154   0.593   4.311 -0.0466  0.1800  0.1688
  603SOL    HW2 2709   1.239   0.709   4.233 -0.9440  0.0348 -1.0477
  604SOL     OW 2710   5.123   4.716   0.561 -0.4638 -0.3188  0.6801
  604SOL    HW1 2711   5.192   4.648   0.584  0.0414 -0.9253 -2.2243
  604SOL    HW2 2712   5.119   4.786   0.632  1.7371 -1.3089  1.8620
  605SOL     OW 2713   6.957   1.034   2.584 -0.1323  0.3775  0.4828
  605SOL    HW1 2714   6.995   0.966   2.521 -1.9417  0.9570 -1.3503
  605SOL    HW2 2715   6.917   0.987   2.663  0.8092 -0.4777  0.4742
  606SOL     OW 2716   2.183   6.060   6.493  0.2480 -0.1111  0.0475
  606SOL    HW1 2717   2.187   5.983   6.557 -1.2052  0.0181  0.3387
  606SOL    HW2 2718   2.174   6.025   6.399  2.5262 -0.3030 -0.1469
  607SOL     OW 2719   2.085   3.418   6.480 -0.1302  0.2095  0.5316
  607SOL    HW1 2720   1.988   3.443   6.475  0.2846  1.9681  0.5824
  607SOL    HW2 2721   2.133   3.482   6.540  1.2888  0.1165 -0.4469
  608SOL     OW 2722   3.021   1.128   0.529 -0.6055  0.3309 -0.5062
  608SOL    HW1 2723   2.981   1.143   0.439  0.3195  2.9591 -0.5422
  608SOL    HW2 2724   3.012   1.210   0.585  2.9990  0.4492  0.1360
  609SOL     OW 2725   3.776   3.302   1.960 -0.0124  0.2809  0.3763
  609SOL    HW1 2726   3.804   3.322   1.867  1.3413  1.7184  1.0390
  609SOL    HW2 2727   3.739   3.385   2.003  0.9977  0.1076  1.6443
  610SOL     OW 2728   6.222   4.156   1.983  0.1295 -0.1823 -0.4410
  610SOL    HW1 2729   6.298   4.186   1.926  0.9415  0.0938  0.7471
  610SOL    HW2 2730   6.183   4.072   1.945  1.9823 -1.1545 -0.3018
  611SOL     OW 2731   3.575   1.988   3.257 -0.4613 -0.1989 -0.2146
  611SOL    HW1 2732   3.494   2.045   3.241 -0.0667  0.5684  0.4350
  611SOL    HW2 2733   3.656   2.035   3.221 -0.2662 -0.8549 -0.6552
  612SOL     OW 2734   6.049   6.381   4.867 -0.7351  0.1076  0.9381
  612SOL    HW1 2735   6.124   6.434   4.905 -0.0172 -1.0104  1.1300
  612SOL    HW2 2736   6.086   6.303   4.816 -1.6886  0.8363 -1.0000
  613SOL     OW 2737   4.244   4.838   0.481 -0.7841  0.8822  0.0715
  613SOL    HW1 2738   4.210   4.855   0.388  0.0617  0.3375 -0.3492
  613SOL    HW2 2739   4.343   4.831   0.480 -0.8920 -1.8126  0.5431
  614SOL     OW 2740   2.668   6.620   6.577 -0.4851  0.2742 -0.0431
  614SOL    HW1 2741   2.684   6.717   6.599 -0.2313  0.1084  0.5112
  614SOL    HW2 2742   2.622   6.576   6.654 -1.5305  0.1901 -0.6961
  615SOL     OW 2743   5.544   4.253   3.087 -0.0480 -0.0376 -0.0282
  615SOL    HW1 2744   5.607   4.330   3.100  0.7453 -0.5967 -0.4737
  615SOL    HW2 2745   5.505   4.257   2.995  0.7566 -0.7119 -0.4044
  616SOL     OW 2746   6.214   1.930   3.683 -0.0586 -0.1160  0.1486
  616SOL    HW1 2747   6.175   1.907   3.593 -0.6605 -0.3098  0.4533
  616SOL    HW2 2748   6.241   2.026   3.684  2.4765 -0.7327 -1.1399
  617SOL     OW 2749   5.145   1.409   6.441 -0.5288  0.4950 -0.1070
  617SOL    HW1 2750   5.166   1.322   6.396  0.7597  0.5700  0.2963
  617SOL    HW2 2751   5.063   1.399   6.497  0.0171 -0.6996  0.5259
  618SOL     OW 2752   1.633   1.559   3.347 -0.1220  0.1420  0.1238
  618SOL    HW1 2753   1.571   1.632   3.377  0.7238  0.6960  0.5768
  618SOL    HW2 2754   1.614   1.476   3.399 -0.7872  0.1620 -0.0734
  619SOL     OW 2755   2.112   2.984   0.204 -0.0495 -0.4543 -0.3184
  619SOL    HW1 2756   2.143   2.974   0.110  0.4187  1.5996 -0.4360
  619SOL    HW2 2757   2.134   3.076   0.237 -0.9196 -0.8534  1.5367
  620SOL     OW 2758   4.877   2.300   6.976  0.3484 -0.9220  0.1660
  620SOL    HW1 2759   4.859   2.380   7.033 -0.6018 -2.2790  1.8573
  620SOL    HW2 2760   4.975   2.295   6.956  0.4370  0.5965  0.0605
  621SOL     OW 2761   0.616   6.765   1.112 -0.1226  0.3035 -0.5605
  621SOL    HW1 2762   0.592   6.837   1.048 -1.7821 -0.2790 -0.6391
  621SOL    HW2 2763   0.551   6.689   1.103 -0.0723 -0.0225  1.4188
  622SOL     OW 2764   3.337   6.195   6.433 -0.4068 -0.0259  0.4655
  622SOL    HW1 2765   3.272   6.168   6.362 -0.7175 -0.8122  1.0304
  622SOL    HW2 2766   3.357   6.116   6.491  1.1227  0.1838  0.2589
  623SOL     OW 2767   5.734   5.532   5.813  0.0369  0.4424  0.2403
  623SOL    HW1 2768   5.719   5.440   5.778  0.8073  0.4368 -0.1029
  623SOL    HW2 2769   5.830   5.542   5.838  0.2813  1.5888 -1.0432
  624SOL     OW 2770   6.068   0.813   2.413 -0.3489 -1.0166  0.0407
  624SOL    HW1 2771   6.133   0.890   2.410 -2.6264  1.0565  0.3647
  624SOL    HW2 2772   6.107   0.739   2.467  1.3498  0.5271  1.0669
  625SOL     OW 2773   1.383   2.193   1.574 -0.5867  0.1798  0.1324
  625SOL    HW1 2774   1.374   2.153   1.483 -2.1857 -0.3931  0.5077
  625SOL    HW2 2775   1.437   2.133   1.632  1.2022  0.9733 -0.6587
  626SOL     OW 2776   4.431   4.541   6.485  0.2088 -0.4689  0.2865
  626SOL    HW1 2777   4.381   4.455   6.496  0.1818 -0.2564  2.2955
  626SOL    HW2 2778   4.374   4.617   6.518  0.4689  0.2543 -0.8676
  627SOL     OW 2779   5.139   6.118   5.354 -0.6862 -0.2351 -0.6011
  627SOL    HW1 2780   5.198   6.176   5.297 -0.2810  0.0722  0.1117
  627SOL    HW2 2781   5.045   6.152   5.349 -0.3212  1.0315  0.4513
  628SOL     OW 2782   5.607   3.871   5.376 -0.3830 -0.3337  0.0322
  628SOL    HW1 2783   5.676   3.829   5.317  0.3849 -0.0354  0.7054
  628SOL    HW2 2784   5.628   3.967   5.389 -1.2555 -0.1001 -0.2159
  629SOL     OW 2785   1.959   0.772   2.496 -0.2160 -0.2681  0.5800
  629SOL    HW1 2786   2.015   0.792   2.576  0.3716 -1.0772  0.3787
  629SOL    HW2 2787   1.978   0.839   2.424  0.9263 -0.8695  0.3059
  630SOL     OW 2788   2.325   0.695   2.739 -0.6722 -0.1595  0.3493
  630SOL    HW1 2789   2.257   0.758   2.703  0.5831  0.2778 -1.3292
  630SOL    HW2 2790   2.387   0.743   2.801  0.2313  0.2759 -0.8627
  631SOL     OW 2791   1.910   6.929   3.565 -0.7575 -0.4490 -0.1263
  631SOL    HW1 2792   1.849   6.913   3.643 -0.4529 -0.0889  0.1853
  631SOL    HW2 2793   1.992   6.978   3.596 -1.3051  1.0221 -0.9277
  632SOL     OW 2794   1.593   6.817   2.115 -0.3032 -0.4264 -0.8484
  632SOL    HW1 2795   1.504   6.862   2.112  1.4805  3.5418 -4.1991
  632SOL    HW2 2796   1.638   6.838   2.202 -1.5902 -0.3669 -0.1618
  633SOL     OW 2797   1.096   5.876   3.825 -0.4789  0.4034  0.1540
  633SOL    HW1 2798   1.138   5.854   3.913 -0.0103  0.0591 -0.1536
  633SOL    HW2 2799   1.005   5.834   3.820 -0.9520  1.2889  0.8880
  634SOL     OW 2800   3.347   5.909   3.105  0.1753 -0.0518  0.2444
  634SOL    HW1 2801   3.432   5.917   3.054 -0.8162 -1.3258 -1.7561
  634SOL    HW2 2802   3.273   5.956   3.056 -1.0217 -2.1793 -0.1278
  635SOL     OW 2803   2.454   1.828   1.021  0.5757  0.2067 -0.1623
  635SOL    HW1 2804   2.473   1.913   1.070 -0.1230  0.3240 -0.0738
  635SOL    HW2 2805   2.355   1.818   1.010  0.6639 -0.4900 -0.3639
  636SOL     OW 2806   6.679   4.644   4.704 -0.5068  0.3161  0.3727
  636SOL    HW1 2807   6.741   4.624   4.628 -0.0526  0.2104  0.7696
  636SOL    HW2 2808   6.635   4.732   4.688 -0.3905  0.3126  0.0030
  637SOL     OW 2809   5.686   5.256   5.751  0.2160  0.5126 -0.5442
  637SOL    HW1 2810   5.623   5.245   5.828 -0.7986  1.2215 -1.2473
  637SOL    HW2 2811   5.640   5.227   5.667  0.8226  1.0609 -1.0697
  638SOL     OW 2812   4.421   1.125   4.718 -0.1655 -0.1865  0.1157
  638SOL    HW1 2813   4.467   1.045   4.679  2.1985  0.9928  0.3143
  638SOL    HW2 2814   4.450   1.207   4.668 -0.8192  0.7914  1.2998
  639SOL     OW 2815   4.886   3.828   0.780  0.4634  0.5074  0.0742
  639SOL    HW1 2816   4.826   3.886   0.725  0.5909  1.4858  0.9365
  639SOL    HW2 2817   4.832   3.777   0.846  0.4288  0.1858 -0.1981
  640SOL     OW 2818   3.597   3.370   7.015 -0.0515 -0.0934  0.3675
  640SOL    HW1 2819   3.612   3.468   7.025 -1.7026  0.2590 -0.1465
  640SOL    HW2 2820   3.684   3.321   7.018  0.9087  1.4975 -0.4737
  641SOL     OW 2821   0.300   1.159   4.481  1.0239 -0.9872 -0.3403
  641SOL    HW1 2822   0.302   1.251   4.443  0.9709 -1.1911 -0.8525
  641SOL    HW2 2823   0.389   1.137   4.521  0.9378 -0.5993  0.0673
  642SOL     OW 2824   0.193   5.161   6.225  0.0024 -0.1485  0.5842
  642SOL    HW1 2825   0.278   5.210   6.209 -0.6968  0.5945 -1.0822
  642SOL    HW2 2826   0.185   5.086   6.160 -1.2604  0.6861 -0.2632
  643SOL     OW 2827   5.141   0.436   3.277  0.0548 -0.1113 -0.3483
  643SOL    HW1 2828   5.153   0.435   3.178  0.2968  0.6962 -0.3378
  643SOL    HW2 2829   5.231   0.443   3.321 -0.0955  0.3517 -0.1030
  644SOL     OW 2830   5.342   6.349   1.862 -0.7242  0.2892  0.1327
  644SOL    HW1 2831   5.289   6.386   1.939 -1.8709 -0.3284 -0.3481
  644SOL    HW2 2832   5.436   6.332   1.892 -1.3509 -0.6920  1.6313
  645SOL     OW 2833   6.628   4.205   1.970  0.2966 -0.0623  0.1699
  645SOL    HW1 2834   6.556   4.200   2.039  0.0356 -1.6008 -0.1928
  645SOL    HW2 2835   6.717   4.204   2.016  0.1582  2.5318  0.6642
  646SOL     OW 2836   1.198   3.588   4.405 -0.1287  0.7346 -0.2432
  646SOL    HW1 2837   1.160   3.634   4.485  1.9446  2.1066  0.0472
  646SOL    HW2 2838   1.220   3.656   4.335  0.3384 -0.1579 -0.9877
  647SOL     OW 2839   6.433   0.623   6.281 -0.0919  0.4922 -0.4636
  647SOL    HW1 2840   6.512   0.660   6.233  2.4175 -4.1395 -0.3697
  647SOL    HW2 2841   6.383   0.561   6.221 -3.1825  2.4105 -0.1377
  648SOL     OW 2842   4.398   1.851   4.078  0.1602 -0.0941  0.0546
  648SOL    HW1 2843   4.391   1.872   4.175  2.9004  0.4254  0.2298
  648SOL    HW2 2844   4.399   1.751   4.065 -2.5186 -0.2129  0.2575
  649SOL     OW 2845   4.715   3.062   0.022 -0.1086  0.2909  0.3159
  649SOL    HW1 2846   4.675   2.976   0.053  1.4071 -0.1195  1.3117
  649SOL    HW2 2847   4.646   3.117  -0.024 -1.0970 -1.4820 -0.4156
  650SOL     OW 2848   5.370   6.230   2.522 -0.2926 -0.2953  0.5234
  650SOL    HW1 2849   5.417   6.149   2.488  1.5793  0.1865  1.7784
  650SOL    HW2 2850   5.346   6.290   2.446  0.9147 -0.7081 -0.2166
  651SOL     OW 2851   1.896   5.920   0.133 -0.3519  0.3550  0.3727
  651SOL    HW1 2852   1.927   5.976   0.056  1.7108  0.2071  1.0443
  651SOL    HW2 2853   1.908   5.823   0.110  1.3491  0.3175  1.2313
  652SOL     OW 2854   5.398   3.101   0.009 -0.1538  0.4604  0.3448
  652SOL    HW1 2855   5.351   3.154  -0.061  1.7073  1.3246 -0.3210
  652SOL    HW2 2856   5.489   3.076  -0.024 -0.1090 -1.1533  1.5701
  653SOL     OW 2857   4.263   5.665   1.361  0.2956 -0.4471  0.7167
  653SOL    HW1 2858   4.241   5.581   1.409 -1.0124 -0.2057  0.5723
  653SOL    HW2 2859   4.179   5.705   1.324  1.2488 -0.8492 -2.1335
  654SOL     OW 2860   1.318   3.287   1.835  0.4029  0.1381 -0.5164
  654SOL    HW1 2861   1.386   3.213   1.835 -0.9334 -1.1437 -0.2464
  654SOL    HW2 2862   1.301   3.316   1.741  0.7409 -0.0975 -0.6529
  655SOL     OW 2863   2.093   2.417   6.967  0.6634  0.0854  0.2875
  655SOL    HW1 2864   2.119   2.510   6.991  1.7005 -0.3337  0.8389
  655SOL    HW2 2865   1.997   2.402   6.989  0.2230  1.3116 -0.6978
  656SOL     OW 2866   3.299   4.756   0.199  0.2110  0.1506  0.1595
  656SOL    HW1 2867   3.211   4.788   0.234 -0.2954 -1.2764  0.2405
  656SOL    HW2 2868   3.330   4.818   0.126 -0.5930  0.9577  0.4812
  657SOL     OW 2869   3.830   6.847   0.598 -0.5279 -0.1853 -0.8099
  657SOL    HW1 2870   3.838   6.783   0.675  1.6403 -1.7072 -2.2058
  657SOL    HW2 2871   3.778   6.927   0.628 -0.6031 -1.1342  1.9522
  658SOL     OW 2872   5.940   5.703   0.358 -0.2294 -0.2719 -0.3253
  658SOL    HW1 2873   5.846   5.736   0.361 -0.0902  0.0944  1.1958
  658SOL    HW2 2874   5.974   5.691   0.452  1.4905  0.3646 -0.8206
  659SOL     OW 2875   2.237   6.922   6.101  0.9478  0.1554  0.1255
  659SOL    HW1 2876   2.156   6.915   6.044 -1.4000 -0.2900  3.2212
  659SOL    HW2 2877   2.288   7.005   6.078  1.5971 -1.2085 -4.1028
  660SOL     OW 2878   3.002   6.315   4.141  0.5677  0.7626  0.3920
  660SOL    HW1 2879   3.100   6.308   4.160  0.3072  0.2809  1.6699
  660SOL    HW2 2880   2.963   6.388   4.197 -0.1275 -0.3300  1.3916
  661SOL     OW 2881   1.108   4.495   2.288  0.0961  0.2987 -0.2373
  661SOL    HW1 2882   1.028   4.554   2.302  0.2954  0.9187 -1.5386
  661SOL    HW2 2883   1.080   4.400   2.287 -1.2540  0.5905 -4.0423
  662SOL     OW 2884   4.587   1.980   0.362  0.1578  0.3734 -0.4003
  662SOL    HW1 2885   4.600   1.973   0.461 -0.3287  0.1991 -0.3493
  662SOL    HW2 2886   4.669   1.946   0.316 -0.8501 -2.6926 -0.1135
  663SOL     OW 2887   0.365   2.181   5.122  0.1988 -0.5526 -0.1087
  663SOL    HW1 2888   0.331   2.117   5.054 -0.0526 -0.5198 -0.0137
  663SOL    HW2 2889   0.337   2.151   5.213  0.9910 -0.8978  0.0378
  664SOL     OW 2890   6.688   1.876   5.077 -0.0526 -0.5141 -0.4504
  664SOL    HW1 2891   6.640   1.788   5.075  0.1988 -0.7241  1.5339
  664SOL    HW2 2892   6.622   1.950   5.064 -1.0879 -0.7815  2.5796
  665SOL     OW 2893   1.612   3.782   1.138  0.0483 -0.1281 -0.0519
  665SOL    HW1 2894   1.626   3.819   1.046  0.5946  1.2338  0.5430
  665SOL    HW2 2895   1.516   3.791   1.164 -0.5129 -2.2559 -1.1694
  666SOL     OW 2896   3.447   5.802   1.765 -0.4273  0.3279  0.1607
  666SOL    HW1 2897   3.475   5.732   1.830 -1.0285  0.7041  0.8347
  666SOL    HW2 2898   3.415   5.759   1.681 -0.3590 -0.1917  0.3988
  667SOL     OW 2899   1.487   1.621   0.393 -0.3279 -0.5352  0.0391
  667SOL    HW1 2900   1.480   1.585   0.486 -0.4476 -1.8820 -0.4683
  667SOL    HW2 2901   1.421   1.696   0.382 -0.8263 -0.8383  0.8211
  668SOL     OW 2902   6.013   4.082   4.402 -0.1986 -0.0528 -0.1545
  668SOL    HW1 2903   5.933   4.140   4.409  0.2507  0.5209  0.2944
  668SOL    HW2 2904   6.085   4.129   4.350 -0.0792 -0.4850 -0.3910
  669SOL     OW 2905   5.617   5.802   3.219 -0.2598 -0.4082 -0.3920
  669SOL    HW1 2906   5.554   5.725   3.207  0.2525 -0.9123  0.1098
  669SOL    HW2 2907   5.710   5.773   3.196  0.0076 -0.0773  0.2489
  670SOL     OW 2908   3.077   0.648   1.714  0.6985 -0.7629  0.0746
  670SOL    HW1 2909   3.141   0.716   1.681  1.1140  0.2642  2.7230
  670SOL    HW2 2910   3.118   0.557   1.705  1.6052 -0.3328 -0.3003
  671SOL     OW 2911   2.199   5.214   1.681 -0.6371 -0.2804  0.1514
  671SOL    HW1 2912   2.227   5.310   1.690 -1.0091 -0.2053  0.5106
  671SOL    HW2 2913   2.099   5.208   1.681 -0.6143 -0.7539  1.0585
  672SOL     OW 2914   1.098   1.376   1.029  0.5649 -0.0706 -0.0698
  672SOL    HW1 2915   1.185   1.351   0.986  0.9829 -1.0543  1.2811
  672SOL    HW2 2916   1.107   1.467   1.070  0.4458  0.4908 -1.2552
  673SOL     OW 2917   6.512   6.906   6.270 -0.4155  0.0276 -0.1404
  673SOL    HW1 2918   6.492   6.944   6.360  1.5711 -0.1185  0.4127
  673SOL    HW2 2919   6.432   6.915   6.211 -1.6286  0.4857  1.5046
  674SOL     OW 2920   2.429   0.008   5.566 -0.1799 -0.0689  0.6924
  674SOL    HW1 2921   2.480  -0.003   5.651  0.5973 -1.4222  0.0846
  674SOL    HW2 2922   2.477  -0.040   5.492 -2.4196 -1.5452  0.1181
  675SOL     OW 2923   6.990   4.806   0.616  0.4311 -0.0649 -0.2059
  675SOL    HW1 2924   6.979   4.846   0.525  0.2317  0.2362 -0.0527
  675SOL    HW2 2925   6.988   4.706   0.610 -1.1151 -0.0377 -0.3434
  676SOL     OW 2926   1.735   4.642   6.821  0.0186 -0.0011 -0.5913
  676SOL    HW1 2927   1.652   4.645   6.875 -0.6059 -1.0523 -1.4634
  676SOL    HW2 2928   1.714   4.615   6.728  1.4450 -1.2250 -0.5967
  677SOL     OW 2929   5.781   6.608   0.375 -0.2533 -0.0974  0.3039
  677SOL    HW1 2930   5.754   6.580   0.282 -0.7813  0.6643  0.2197
  677SOL    HW2 2931   5.818   6.700   0.373 -1.5293  0.4632  1.0285
  678SOL     OW 2932   1.730   3.864   3.492 -0.0468 -0.2099 -0.5397
  678SOL    HW1 2933   1.673   3.944   3.510 -0.7832 -0.6034 -1.0986
  678SOL    HW2 2934   1.744   3.854   3.394 -2.2093 -2.2757 -0.7126
  679SOL     OW 2935   4.872   6.945   4.885  0.7888 -0.8289 -0.3165
  679SOL    HW1 2936   4.782   6.903   4.900  0.0158  0.7552 -0.2904
  679SOL    HW2 2937   4.935   6.917   4.957  0.6758 -2.8265 -0.9211
  680SOL     OW 2938   5.797   2.174   4.820  0.3769  0.0632  0.7414
  680SOL    HW1 2939   5.711   2.125   4.807  0.9171 -0.3122 -2.0734
  680SOL    HW2 2940   5.786   2.269   4.791  0.9732 -0.0726  0.0356
  681SOL     OW 2941   5.437   4.981   3.503 -0.6630 -0.1712  0.1433
  681SOL    HW1 2942   5.497   5.039   3.560  0.4972 -2.6656  1.6203
  681SOL    HW2 2943   5.464   4.990   3.407 -0.8482  2.0274  0.2292
  682SOL     OW 2944   5.601   2.247   4.483  0.5047 -0.0716  0.5509
  682SOL    HW1 2945   5.529   2.234   4.415  1.1022  1.3868 -0.4054
  682SOL    HW2 2946   5.658   2.165   4.487 -0.7418 -0.9487  0.7807
  683SOL     OW 2947   5.103   6.470   6.614  0.1742  0.0912  0.0631
  683SOL    HW1 2948   5.146   6.457   6.704 -1.0629 -1.7073  0.4485
  683SOL    HW2 2949   5.174   6.468   6.544  1.3041  2.6482  1.0054
  684SOL     OW 2950   4.275   3.337   6.274  0.4521 -0.0169  0.5776
  684SOL    HW1 2951   4.359   3.285   6.287 -0.1952 -0.3585  4.7287
  684SOL    HW2 2952   4.201   3.274   6.249  0.7544 -0.2564  0.2813
  685SOL     OW 2953   1.947   5.680   2.780  0.0881 -0.2409  0.1844
  685SOL    HW1 2954   1.875   5.643   2.838 -0.2393 -0.7840 -0.5554
  685SOL    HW2 2955   1.962   5.776   2.803 -1.4365  0.1147 -0.1857
  686SOL     OW 2956   2.769   1.957   5.536 -0.1512 -0.4971 -0.0607
  686SOL    HW1 2957   2.850   1.901   5.523 -0.5455 -1.0212 -0.2946
  686SOL    HW2 2958   2.734   1.946   5.629 -0.6106 -1.1606 -0.3068
  687SOL     OW 2959   6.951   0.881   4.307 -0.2828  0.2256  0.3142
  687SOL    HW1 2960   6.971   0.788   4.275 -1.7819  0.7327 -2.4549
  687SOL    HW2 2961   7.032   0.938   4.297  0.5562 -0.6437  1.7381
  688SOL     OW 2962   3.992   3.273   5.175 -0.7550  0.1974 -0.0725
  688SOL    HW1 2963   4.070   3.312   5.125 -0.8784  0.4222 -0.0913
  688SOL    HW2 2964   3.966   3.186   5.134 -0.7562  0.3056 -0.3035
  689SOL     OW 2965   1.595   5.825   6.618 -0.1215 -0.0417  0.6166
  689SOL    HW1 2966   1.523   5.886   6.652 -0.8024 -0.4173 -0.1268
  689SOL    HW2 2967   1.557   5.763   6.550  0.2345 -2.2178  2.2677
  690SOL     OW 2968   4.467   2.261   2.682 -0.2629 -0.3063  0.8306
  690SOL    HW1 2969   4.445   2.192   2.751 -0.4691  0.1342  1.2123
  690SOL    HW2 2970   4.422   2.347   2.705 -0.0614 -0.0590  0.3244
  691SOL     OW 2971   6.134   6.692   3.873 -0.1188  0.6414  0.6857
  691SOL    HW1 2972   6.046   6.721   3.835 -1.5074 -2.2880  1.3962
  691SOL    HW2 2973   6.129   6.596   3.900  3.4401  0.2508  0.4484
  692SOL     OW 2974   0.637   6.005   4.969 -0.1683  0.3335  0.3928
  692SOL    HW1 2975   0.540   6.021   4.983 -0.2507 -1.0066  1.5369
  692SOL    HW2 2976   0.669   6.060   4.891 -1.4034  2.1947  1.1327
  693SOL     OW 2977   6.070   0.175   6.730  0.0716 -0.7216  0.1733
  693SOL    HW1 2978   6.081   0.154   6.827  1.0584  0.6122  0.3856
  693SOL    HW2 2979   6.037   0.269   6.720 -0.2181 -0.9124 -0.7909
  694SOL     OW 2980   4.289   4.668   3.535  0.5408 -0.0466  0.0925
  694SOL    HW1 2981   4.342   4.587   3.509  1.7650  0.9536 -0.6057
  694SOL    HW2 2982   4.308   4.691   3.630 -0.3264 -0.9444  0.5051
  695SOL     OW 2983   3.407   0.513   4.956  0.0387  0.4889 -0.2743
  695SOL    HW1 2984   3.309   0.492   4.950 -0.0172  0.4471  0.6108
  695SOL    HW2 2985   3.454   0.471   4.879 -0.4684 -0.6074 -0.0109
  696SOL     OW 2986   0.431   4.989   2.513 -0.1895 -0.4452  0.1100
  696SOL    HW1 2987   0.340   4.960   2.482 -0.0795  0.4310 -1.0855
  696SOL    HW2 2988   0.501   4.940   2.460  0.0008  1.7222 -1.7593
  697SOL     OW 2989   5.992   4.007   3.321 -0.3902  0.1493  0.2154
  697SOL    HW1 2990   5.916   4.015   3.386 -0.6514 -1.0422  0.0792
  697SOL    HW2 2991   6.076   4.039   3.365 -0.7976  0.6002  0.6846
  698SOL     OW 2992   6.184   0.200   3.805 -0.4467 -0.0970  0.6071
  698SOL    HW1 2993   6.197   0.281   3.862 -0.6321 -0.3710  1.0513
  698SOL    HW2 2994   6.210   0.119   3.857  1.5430 -0.2001 -0.4600
  699SOL     OW 2995   5.375   2.793   6.744  0.1241  0.5299  0.6676
  699SOL    HW1 2996   5.327   2.723   6.693 -0.5209  1.8669 -0.6304
  699SOL    HW2 2997   5.332   2.882   6.728  3.3165  1.9465 -1.0983
  700SOL     OW 2998   2.802   5.680   4.608  0.1004  0.4706  0.0015
  700SOL    HW1 2999   2.759   5.595   4.637  0.4965  0.0238 -0.6810
  700SOL    HW2 3000   2.842   5.667   4.517  0.9401  1.1193  0.2653
  701SOL     OW 3001   3.099   4.095   1.525 -0.0007  0.1588  0.2748
  701SOL    HW1 3002   3.185   4.045   1.514  0.5698  1.4839 -2.0023
  701SOL    HW2 3003   3.063   4.080   1.617  2.4310 -0.7783  1.1565
  702SOL     OW 3004   3.711   0.708   6.762 -0.7041 -0.1856  0.6548
  702SOL    HW1 3005   3.646   0.643   6.802 -0.1013  0.0035  1.9661
  702SOL    HW2 3006   3.761   0.662   6.688 -2.5374 -0.2321 -0.6564
  703SOL     OW 3007   2.762   2.860   1.717 -0.0895 -0.3742  0.0617
  703SOL    HW1 3008   2.839   2.801   1.743 -1.2108 -1.5727  0.7795
  703SOL    HW2 3009   2.788   2.956   1.732  2.7627 -0.3519 -3.7174
  704SOL     OW 3010   3.577   1.987   1.889 -0.0603  0.0609 -0.4048
  704SOL    HW1 3011   3.606   2.062   1.949 -0.4594 -0.2301  0.1641
  704SOL    HW2 3012   3.556   2.023   1.798 -0.4616  0.6819 -0.0745
  705SOL     OW 3013   0.130   0.454   6.319 -0.0699  0.0977  0.3474
  705SOL    HW1 3014   0.177   0.409   6.243  0.0500  0.2012  0.3589
  705SOL    HW2 3015   0.112   0.387   6.391 -0.4056 -0.0521  0.1251
  706SOL     OW 3016   4.472   1.222   4.964  0.2302  0.4732 -0.4043
  706SOL    HW1 3017   4.476   1.148   5.030  3.9608  0.8748  0.0094
  706SOL    HW2 3018   4.453   1.185   4.873  0.3545 -0.7568  0.0627
  707SOL     OW 3019   2.544   4.696   4.927 -0.2616  0.1198  0.1634
  707SOL    HW1 3020   2.557   4.649   4.840  0.4379  1.1323 -0.3090
  707SOL    HW2 3021   2.575   4.638   5.002  0.0969 -0.3661 -0.3561
  708SOL     OW 3022   2.631   4.723   3.021  0.8277  0.0697 -0.8232
  708SOL    HW1 3023   2.595   4.791   2.958  1.7854  0.2058 -1.2309
  708SOL    HW2 3024   2.561   4.701   3.090  0.3391  1.0848 -0.9826
  709SOL     OW 3025   1.849   6.957   2.538  0.0028 -0.0545  0.3307
  709SOL    HW1 3026   1.886   6.904   2.614  0.7764 -1.1315 -0.7701
  709SOL    HW2 3027   1.825   6.896   2.463 -1.4138  0.9157 -0.0585
  710SOL     OW 3028   4.330   1.171   2.972 -0.0316 -0.5861 -0.3101
  710SOL    HW1 3029   4.401   1.176   3.043  0.5181  1.3030 -0.9180
  710SOL    HW2 3030   4.350   1.238   2.900 -2.2585 -0.2204 -0.6663
  711SOL     OW 3031   5.765   2.706   0.532  0.0218 -0.3597  0.2613
  711SOL    HW1 3032   5.817   2.784   0.495  0.4154 -1.2359 -1.1121
  711SOL    HW2 3033   5.723   2.733   0.619 -0.1236  1.4848 -0.3275
  712SOL     OW 3034   6.592   4.544   6.582  0.0196 -0.5477 -0.1918
  712SOL    HW1 3035   6.543   4.493   6.511  0.5305  0.8613 -1.5985
  712SOL    HW2 3036   6.561   4.638   6.584  1.1940 -0.1473  0.3149
  713SOL     OW 3037   2.607   2.654   5.253  0.3250  0.5850  0.4029
  713SOL    HW1 3038   2.674   2.650   5.327 -1.7025 -2.2541  2.3031
  713SOL    HW2 3039   2.558   2.742   5.256  0.0193  0.4063  2.7765
  714SOL     OW 3040   4.328   0.747   3.440 -0.0773 -0.7403 -0.0819
  714SOL    HW1 3041   4.278   0.798   3.510 -0.2352 -0.0407 -0.6943
  714SOL    HW2 3042   4.277   0.750   3.354  0.4365 -1.0449 -0.4049
  715SOL     OW 3043   5.907   3.865   4.554 -0.5245 -0.2764 -0.4468
  715SOL    HW1 3044   5.812   3.856   4.524 -0.5124  0.6344 -0.7790
  715SOL    HW2 3045   5.951   3.940   4.505 -0.7948  2.0313  2.5500
  716SOL     OW 3046   3.315   0.789   5.589 -0.0446 -0.2493  0.2621
  716SOL    HW1 3047   3.268   0.860   5.537 -0.4374 -1.6796 -1.4017
  716SOL    HW2 3048   3.414   0.803   5.581 -0.1105  0.7633  0.9392
  717SOL     OW 3049   6.197   5.851   4.605 -0.4832 -0.3014 -0.2981
  717SOL    HW1 3050   6.103   5.885   4.608 -1.3897 -2.5499 -0.5501
  717SOL    HW2 3051   6.232   5.857   4.511  0.0442  1.4442 -0.0292
  718SOL     OW 3052   0.111   1.036   3.621 -0.1277  0.0548  0.1107
  718SOL    HW1 3053   0.155   1.075   3.540 -1.7035 -1.0168 -1.3205
  718SOL    HW2 3054   0.112   0.937   3.616 -1.2682 -0.0165  0.8307
  719SOL     OW 3055   4.725   4.109   2.484  0.2207  0.1599 -0.1117
  719SOL    HW1 3056   4.765   4.023   2.452 -1.1243  0.0051 -1.4953
  719SOL    HW2 3057   4.675   4.093   2.569  1.8070  0.0616  0.8369
  720SOL     OW 3058   2.663   1.976   0.833  0.1765 -0.7150  0.2310
  720SOL    HW1 3059   2.574   1.981   0.877 -0.2462 -2.3946 -0.3587
  720SOL    HW2 3060   2.713   2.061   0.848 -1.5314  0.2710  0.5328
  721SOL     OW 3061   0.075   2.584   2.942 -0.3114 -0.3038  0.0360
  721SOL    HW1 3062   0.027   2.580   2.855 -1.0950  2.5751  0.2226
  721SOL    HW2 3063   0.167   2.619   2.927 -0.3516 -0.0786  0.3050
  722SOL     OW 3064   4.656   6.882   2.665 -0.3210  0.0550 -0.4345
  722SOL    HW1 3065   4.557   6.882   2.657 -0.3682 -0.5838  0.0575
  722SOL    HW2 3066   4.690   6.977   2.668 -0.8690  0.2742 -1.0419
  723SOL     OW 3067   4.126   2.260   3.839 -0.0415  0.3990 -0.5207
  723SOL    HW1 3068   4.208   2.206   3.862 -0.7112 -0.2866  0.3216
  723SOL    HW2 3069   4.145   2.357   3.852  0.8064  0.2842 -0.8605
  724SOL     OW 3070   2.818   1.323   5.552 -0.4239  0.4170 -0.2195
  724SOL    HW1 3071   2.905   1.295   5.592 -0.3482 -0.7053 -1.1239
  724SOL    HW2 3072   2.829   1.412   5.508 -0.3550  1.3860  1.6615
  725SOL     OW 3073   1.613   2.707   2.911 -0.0125  0.3394 -0.8929
  725SOL    HW1 3074   1.700   2.754   2.900 -0.4366  1.1571 -0.8371
  725SOL    HW2 3075   1.545   2.771   2.947 -0.8809 -0.0143 -1.8516
  726SOL     OW 3076   3.215   3.317   6.894 -0.4498 -0.1945  0.5230
  726SOL    HW1 3077   3.159   3.360   6.823 -0.4100 -0.1673  0.5086
  726SOL    HW2 3078   3.220   3.219   6.877 -1.2784 -0.3462  1.0445
  727SOL     OW 3079   3.991   5.039   5.393 -0.0966  0.0910 -0.3535
  727SOL    HW1 3080   3.900   5.056   5.431  0.2395 -0.8856  1.0035
  727SOL    HW2 3081   4.058   5.093   5.444  0.0016  1.7416 -2.1298
  728SOL     OW 3082   0.594   3.381   3.670 -0.2651  0.1985 -0.5848
  728SOL    HW1 3083   0.523   3.389   3.739  0.0463  0.3956 -0.2814
  728SOL    HW2 3084   0.556   3.340   3.587 -0.5165 -0.5165 -0.1222
  729SOL     OW 3085   6.730   3.073   5.691 -0.0466 -0.0179 -0.3534
  729SOL    HW1 3086   6.772   3.161   5.666  1.0854 -0.6869 -0.9069
  729SOL    HW2 3087   6.801   3.011   5.723 -0.9528 -0.4785  0.8032
  730SOL     OW 3088   2.660   1.150   5.006  0.0542 -0.2088  0.1585
  730SOL    HW1 3089   2.737   1.101   5.046 -0.6163 -1.0089  0.4817
  730SOL    HW2 3090   2.608   1.089   4.946 -1.3385 -0.1840  1.2940
  731SOL     OW 3091   5.965   4.403   4.169 -0.2347 -0.0432  0.0159
  731SOL    HW1 3092   6.033   4.366   4.232  0.3554 -1.3887 -1.3640
  731SOL    HW2 3093   5.921   4.483   4.211  2.2204  0.9252  0.9418
  732SOL     OW 3094   5.504   5.482   5.098  0.3739  0.4334  0.0008
  732SOL    HW1 3095   5.505   5.538   5.181  0.8544 -0.3503  0.5295
  732SOL    HW2 3096   5.542   5.392   5.117 -1.7563 -0.6183 -0.4796
  733SOL     OW 3097   2.208   3.262   3.665  0.0201 -0.3842  0.5447
  733SOL    HW1 3098   2.191   3.231   3.571 -0.2076 -0.8563  0.7426
  733SOL    HW2 3099   2.207   3.362   3.667 -0.7993 -0.3754  0.1888
  734SOL     OW 3100   6.279   5.884   2.604 -0.8714  0.3374  0.3780
  734SOL    HW1 3101   6.248   5.902   2.510  1.6156  0.8974 -0.3916
  734SOL    HW2 3102   6.290   5.785   2.617  1.5456  0.3673 -0.9423
  735SOL     OW 3103   4.806   1.934   2.670 -0.2170  0.7129 -0.4877
  735SOL    HW1 3104   4.770   1.913   2.761 -1.5737 -0.5299 -1.2804
  735SOL    HW2 3105   4.731   1.968   2.612  0.7279  1.9641 -1.0266
  736SOL     OW 3106   1.719   2.611   3.709  0.1505  0.1049  0.7077
  736SOL    HW1 3107   1.749   2.561   3.791  0.2580  0.6666  1.0144
  736SOL    HW2 3108   1.767   2.576   3.629  1.4902  0.8668  1.1584
  737SOL     OW 3109   4.445   0.572   0.111 -0.3823 -0.0643 -0.5036
  737SOL    HW1 3110   4.489   0.662   0.111 -1.0893  0.2921 -0.0077
  737SOL    HW2 3111   4.346   0.584   0.118 -0.3582 -0.9255  2.4224
  738SOL     OW 3112   3.838   6.707   0.370  0.0303  0.1315  0.3760
  738SOL    HW1 3113   3.801   6.766   0.298  2.3839 -0.1135 -1.1481
  738SOL    HW2 3114   3.856   6.762   0.451  1.5915  1.4758 -0.8062
  739SOL     OW 3115   2.025   1.742   2.524 -0.1627 -0.2347 -0.2198
  739SOL    HW1 3116   1.989   1.773   2.612  1.6361  2.2622 -0.2444
  739SOL    HW2 3117   2.047   1.644   2.529  0.4036 -0.0430  2.3055
  740SOL     OW 3118   4.653   2.650   2.260  0.4846  0.1531  0.1677
  740SOL    HW1 3119   4.610   2.739   2.275  0.6941  0.4616 -0.9668
  740SOL    HW2 3120   4.752   2.660   2.260  0.6328 -0.5353  2.6321
  741SOL     OW 3121   3.943   0.638   2.578  0.6617  0.1808  0.1670
  741SOL    HW1 3122   3.858   0.646   2.629 -0.1950 -1.5264 -0.8711
  741SOL    HW2 3123   3.926   0.659   2.482  1.3328 -0.4975 -0.1101
  742SOL     OW 3124   3.032   1.137   3.088 -0.5990  0.1047 -0.2178
  742SOL    HW1 3125   3.095   1.081   3.141 -1.4117 -0.2579  0.3881
  742SOL    HW2 3126   3.054   1.234   3.103 -0.2464 -0.0149  0.0647
  743SOL     OW 3127   6.339   1.824   2.715  0.5788 -0.0942 -0.7595
  743SOL    HW1 3128   6.342   1.779   2.626  0.2765  1.3377 -1.5257
  743SOL    HW2 3129   6.393   1.908   2.712  1.0289 -0.3051  0.5932
  744SOL     OW 3130   5.500   1.569   1.570  0.2124  0.1477  0.0728
  744SOL    HW1 3131   5.507   1.648   1.509 -1.9791  1.7627  1.7170
  744SOL    HW2 3132   5.562   1.581   1.647  2.7860 -1.7659 -1.5140
  745SOL     OW 3133   0.937   6.155   6.416  0.4813  0.0102  0.1199
  745SOL    HW1 3134   0.986   6.237   6.443  0.5542 -0.1177  0.3794
  745SOL    HW2 3135   0.963   6.129   6.323 -0.6902  1.1556 -0.5663
  746SOL     OW 3136   7.007   3.437   6.807  0.2199 -0.5733 -0.0322
  746SOL    HW1 3137   6.961   3.359   6.767 -1.2678  1.4199 -2.4609
  746SOL    HW2 3138   7.059   3.486   6.737 -0.0057  1.3911  1.0842
  747SOL     OW 3139   4.276   5.038   3.886  0.0208  0.6119 -0.4013
  747SOL    HW1 3140   4.180   5.050   3.910 -0.5823 -1.4264 -1.4867
  747SOL    HW2 3141   4.291   4.943   3.859  2.7425  0.4533  1.3719
  748SOL     OW 3142   5.262   4.159   2.208 -0.2637  0.1462  0.7397
  748SOL    HW1 3143   5.207   4.224   2.259 -1.7427  0.6569 -1.3834
  748SOL    HW2 3144   5.275   4.192   2.115  2.7914 -0.4911  0.8415
  749SOL     OW 3145   5.611   5.094   4.293 -0.1992  0.3717 -0.0539
  749SOL    HW1 3146   5.594   5.163   4.222 -1.1944  0.5002  0.2894
  749SOL    HW2 3147   5.690   5.039   4.267  0.2003  1.2005 -0.6655
  750SOL     OW 3148   1.316   0.790   2.887  0.2637 -0.3742  0.2665
  750SOL    HW1 3149   1.344   0.841   2.806 -1.1956 -0.8266 -0.5748
  750SOL    HW2 3150   1.256   0.847   2.943  0.6096 -0.3388  0.5996
  751SOL     OW 3151   3.981   6.987   6.958  0.3811  0.2725 -0.5963
  751SOL    HW1 3152   3.897   6.979   6.904  0.5521  1.1485 -0.9997
  751SOL    HW2 3153   4.047   7.045   6.910  0.6727  0.7811  0.3891
  752SOL     OW 3154   3.554   2.325   5.349 -0.1427 -0.2942  0.1997
  752SOL    HW1 3155   3.532   2.246   5.292  0.0664 -1.2589  1.4080
  752SOL    HW2 3156   3.653   2.339   5.350 -0.0844 -0.7019  0.8403
  753SOL     OW 3157   3.444   3.717   4.346  0.0964  0.4235 -0.1614
  753SOL    HW1 3158   3.510   3.729   4.420  0.1406  1.8209 -0.3973
  753SOL    HW2 3159   3.481   3.756   4.262 -1.2697  1.8420 -0.1521
  754SOL     OW 3160   2.607   1.533   1.782  0.5998  0.6109  0.0972
  754SOL    HW1 3161   2.586   1.593   1.859  5.2468  1.7761  0.7155
  754SOL    HW2 3162   2.632   1.442   1.816 -0.0491  0.2535 -0.3415
  755SOL     OW 3163   4.962   2.547   5.146 -0.0499 -0.2094 -0.0850
  755SOL    HW1 3164   4.895   2.613   5.111 -2.2031 -1.5769  1.2514
  755SOL    HW2 3165   5.027   2.524   5.073 -0.3315  1.9983 -1.0963
  756SOL     OW 3166   2.246   6.159   4.862 -0.9812 -0.3073 -1.2821
  756SOL    HW1 3167   2.235   6.098   4.941  0.1576 -0.8845 -1.5425
  756SOL    HW2 3168   2.160   6.205   4.843 -1.0555  0.5450  0.8652
  757SOL     OW 3169   6.584   2.246   0.938 -0.5554  0.0531  0.1647
  757SOL    HW1 3170   6.679   2.218   0.919 -1.5643 -2.4459 -1.7923
  757SOL    HW2 3171   6.565   2.332   0.891  0.0345 -0.8153 -1.7994
  758SOL     OW 3172   1.630   2.775   5.613  0.5679  0.2009 -0.2562
  758SOL    HW1 3173   1.664   2.681   5.617  2.7560  0.9296 -0.3464
  758SOL    HW2 3174   1.578   2.788   5.529  0.3962 -0.8742 -0.3322
  759SOL     OW 3175   6.530   1.299   2.581 -0.2322  0.3084 -0.3997
  759SOL    HW1 3176   6.521   1.380   2.639 -0.0089  0.4234 -0.5243
  759SOL    HW2 3177   6.625   1.290   2.551 -0.1274 -0.3426  0.1096
  760SOL     OW 3178   6.450   3.395   4.456  0.1556 -0.0636  0.2083
  760SOL    HW1 3179   6.533   3.368   4.504 -1.4498 -2.6622  1.7585
  760SOL    HW2 3180   6.375   3.405   4.521 -1.0257  1.1367 -1.2534
  761SOL     OW 3181   0.663   4.596   4.140 -0.1910  0.7323 -0.2139
  761SOL    HW1 3182   0.685   4.521   4.202 -0.1694  0.2486 -0.7992
  761SOL    HW2 3183   0.744   4.620   4.086 -0.1250  1.3527  0.1417
  762SOL     OW 3184   2.928   5.253   3.399 -0.1149  0.7199  0.5163
  762SOL    HW1 3185   2.972   5.179   3.348  0.3885  0.2708  1.5737
  762SOL    HW2 3186   2.838   5.271   3.360 -0.0149 -0.0513 -0.1126
  763SOL     OW 3187   4.735   6.939   0.602 -0.3877 -0.1178 -0.1705
  763SOL    HW1 3188   4.659   6.936   0.667 -1.9653 -1.7535 -1.9782
  763SOL    HW2 3189   4.733   7.026   0.552 -2.0690 -0.7603 -1.2793
  764SOL     OW 3190   4.118   0.030   5.119  0.2279 -0.1897 -0.3485
  764SOL    HW1 3191   4.029  -0.011   5.140 -0.5263  1.3421 -0.4055
  764SOL    HW2 3192   4.186  -0.043   5.107 -0.5175 -1.3199  1.8001
  765SOL     OW 3193   6.513   4.439   6.817  0.1896  0.1495 -0.1600
  765SOL    HW1 3194   6.582   4.471   6.882  0.7983  1.0019 -1.1964
  765SOL    HW2 3195   6.540   4.464   6.724 -0.0354 -2.1155 -0.9045
  766SOL     OW 3196   1.502   0.351   4.128  0.3302  0.2886 -0.0235
  766SOL    HW1 3197   1.541   0.262   4.104 -2.1976 -0.9000 -0.0055
  766SOL    HW2 3198   1.449   0.386   4.051 -1.9362 -0.1451  1.2677
  767SOL     OW 3199   5.639   4.630   2.745 -0.3767 -0.2715 -0.5250
  767SOL    HW1 3200   5.697   4.563   2.698 -0.1721  0.3711 -1.2210
  767SOL    HW2 3201   5.662   4.722   2.712  0.1476  0.2735  1.2280
  768SOL     OW 3202   4.018   5.509   0.811 -0.4230 -0.0118  0.2472
  768SOL    HW1 3203   3.996   5.534   0.905 -0.2003  0.0138  0.2947
  768SOL    HW2 3204   3.952   5.443   0.777 -0.5964  0.0992  0.3680
  769SOL     OW 3205   3.928   2.578   5.589 -0.0588 -0.0435 -0.0822
  769SOL    HW1 3206   3.862   2.612   5.655  0.4399  0.1914  0.3004
  769SOL    HW2 3207   3.890   2.587   5.497  1.0437  4.2987 -0.3404
  770SOL     OW 3208   0.034   3.027   4.301 -0.4555  0.0629 -0.2262
  770SOL    HW1 3209   0.118   3.040   4.249 -0.0007 -1.9982 -0.0956
  770SOL    HW2 3210   0.005   2.932   4.294 -0.7424 -0.1617  2.6819
  771SOL     OW 3211   2.829   4.104   6.818  0.6282 -0.2752 -0.0198
  771SOL    HW1 3212   2.921   4.110   6.779  0.6709 -0.5682  0.0341
  771SOL    HW2 3213   2.761   4.109   6.744  0.7011 -0.5463 -0.1062
  772SOL     OW 3214   0.362   4.956   1.103 -0.2191  0.5483 -0.0215
  772SOL    HW1 3215   0.441   5.002   1.064  0.7202  1.0866  2.3464
  772SOL    HW2 3216   0.388   4.862   1.129 -0.5239  0.5294  0.2190
  773SOL     OW 3217   2.208   2.967   3.551 -0.3518  0.4749 -0.4381
  773SOL    HW1 3218   2.109   2.957   3.552 -0.6381  2.4097 -1.8071
  773SOL    HW2 3219   2.235   3.039   3.615 -0.1172  1.5456 -1.6978
  774SOL     OW 3220   2.139   3.209   2.870 -0.1632 -0.5854  0.8356
  774SOL    HW1 3221   2.164   3.150   2.793 -0.1090 -0.0135  0.4083
  774SOL    HW2 3222   2.062   3.267   2.844  0.2962  0.0975  0.9670
  775SOL     OW 3223   6.794   3.670   1.950  0.5665 -0.0462 -0.0837
  775SOL    HW1 3224   6.874   3.730   1.949  1.4323 -1.1735 -0.9809
  775SOL    HW2 3225   6.711   3.726   1.958  1.4590  1.0771  2.5002
  776SOL     OW 3226   1.461   3.765   0.515 -0.0859  0.5678  0.2697
  776SOL    HW1 3227   1.391   3.705   0.476 -1.1128  2.6142 -1.2765
  776SOL    HW2 3228   1.431   3.796   0.605 -1.2134  1.3923 -0.3602
  777SOL     OW 3229   0.094   4.564   4.984  0.0650 -0.1313 -0.4207
  777SOL    HW1 3230   0.100   4.465   4.970  0.5363 -0.9029  3.7685
  777SOL    HW2 3231   0.186   4.600   5.001 -0.4281 -0.1089  3.0362
  778SOL     OW 3232   4.598   4.998   5.989 -0.2921  0.4269  0.5184
  778SOL    HW1 3233   4.634   4.919   5.940  1.2638 -0.3141  2.6749
  778SOL    HW2 3234   4.535   4.967   6.060  1.3821  0.8604  2.3093
  779SOL     OW 3235   5.014   4.186   2.614  1.1178 -0.3890 -0.3477
  779SOL    HW1 3236   5.070   4.255   2.569 -2.0919  1.9506 -1.0956
  779SOL    HW2 3237   4.926   4.178   2.567 -0.0221 -2.3923  1.8916
  780SOL     OW 3238   4.698   0.326   4.813 -0.0688 -0.2769 -0.2203
  780SOL    HW1 3239   4.758   0.390   4.764 -0.9994  1.2395  0.5579
  780SOL    HW2 3240   4.699   0.349   4.911 -2.4855  0.3128 -0.2775
  781SOL     OW 3241   0.379   4.671   4.741 -0.0932 -0.1074  0.1472
  781SOL    HW1 3242   0.313   4.636   4.675  1.8185 -1.3041 -1.2514
  781SOL    HW2 3243   0.376   4.616   4.824 -0.0540 -0.9382 -0.3866
  782SOL     OW 3244   1.520   2.100   5.036 -0.2232  0.1591  0.3065
  782SOL    HW1 3245   1.455   2.174   5.023  0.3718  0.9174  1.4333
  782SOL    HW2 3246   1.556   2.071   4.948 -0.2402  1.4328 -0.1424
  783SOL     OW 3247   0.932   5.306   5.805  0.3853  0.0801  0.1199
  783SOL    HW1 3248   0.982   5.386   5.839  0.4641  1.1458 -2.3227
  783SOL    HW2 3249   0.835   5.316   5.825  0.5922 -0.0447  1.2781
  784SOL     OW 3250   0.845   6.538   0.395 -0.1680  0.7003  0.4034
  784SOL    HW1 3251   0.921   6.566   0.453  0.3404 -1.2421  0.7513
  784SOL    HW2 3252   0.873   6.542   0.299  0.5590 -0.3962  0.5463
  785SOL     OW 3253   1.197   0.539   4.540 -0.2936 -0.0897  0.1263
  785SOL    HW1 3254   1.166   0.633   4.554  0.2315 -0.1169  1.7476
  785SOL    HW2 3255   1.287   0.540   4.497 -0.9946  0.0839 -1.3798
  786SOL     OW 3256   5.945   2.915   5.015 -0.7401 -0.4563  0.1448
  786SOL    HW1 3257   6.041   2.894   5.000 -1.0244 -0.3859 -1.9950
  786SOL    HW2 3258   5.929   2.926   5.113  1.6602  0.7116  0.4789
  787SOL     OW 3259   3.007   4.745   0.416 -0.3640 -0.6004 -0.0044
  787SOL    HW1 3260   2.965   4.654   0.408 -0.0659 -0.7749  0.3953
  787SOL    HW2 3261   3.088   4.739   0.474  0.5109 -0.3666 -1.1525
  788SOL     OW 3262   1.905   3.666   3.141 -0.2133 -0.4566 -0.3018
  788SOL    HW1 3263   1.946   3.591   3.088  0.0860  0.6686 -1.7228
  788SOL    HW2 3264   1.971   3.699   3.209  0.5665  0.0961 -1.3038
  789SOL     OW 3265   3.900   6.406   3.379  0.9165 -1.0048  0.0030
  789SOL    HW1 3266   3.892   6.485   3.439  2.4989 -0.3885 -0.5443
  789SOL    HW2 3267   3.814   6.392   3.330  0.1991 -0.4403  1.0569
  790SOL     OW 3268   0.128   2.924   1.291  0.4164 -0.2363  0.1830
  790SOL    HW1 3269   0.147   2.954   1.198 -0.3944  0.6607  0.2919
  790SOL    HW2 3270   0.149   2.827   1.300  0.5173 -0.3266 -0.9268
  791SOL     OW 3271   2.164   6.463   4.269  0.1222 -0.3526 -0.3025
  791SOL    HW1 3272   2.086   6.472   4.331  0.3353  1.8451 -0.2665
  791SOL    HW2 3273   2.169   6.369   4.234 -1.0536 -1.1657  1.5955
  792SOL     OW 3274   4.780   0.918   0.381  0.5439 -0.1238  0.1131
  792SOL    HW1 3275   4.727   0.846   0.426  0.9437  0.1310  1.0241
  792SOL    HW2 3276   4.875   0.914   0.413  1.3567 -1.1885 -2.2148
  793SOL     OW 3277   1.151   4.987   4.227  0.2229 -0.4683 -0.3993
  793SOL    HW1 3278   1.122   4.954   4.138 -1.0208  0.5330 -0.3950
  793SOL    HW2 3279   1.144   5.087   4.230  1.5245 -0.3834  0.3812
  794SOL     OW 3280   4.118   3.708   2.928 -0.6775 -0.0806 -0.1593
  794SOL    HW1 3281   4.052   3.653   2.980 -1.5544  0.3881 -0.7597
  794SOL    HW2 3282   4.197   3.651   2.905 -1.8037 -1.2934 -1.2342
  795SOL     OW 3283   3.090   5.841   6.101 -0.2252  0.1716 -0.0401
  795SOL    HW1 3284   3.016   5.908   6.094  0.0823  0.6816  1.2239
  795SOL    HW2 3285   3.177   5.889   6.110 -0.0897 -0.3317  1.8652
  796SOL     OW 3286   1.398   1.772   6.166  0.0189 -0.2240 -0.2560
  796SOL    HW1 3287   1.486   1.753   6.122  0.9664  1.4819  0.7807
  796SOL    HW2 3288   1.325   1.768   6.099  1.0546 -0.4195 -1.4034
  797SOL     OW 3289   3.695   6.891   0.207  0.5074 -0.3928  0.5309
  797SOL    HW1 3290   3.743   6.975   0.182  0.4441 -1.1116 -2.4079
  797SOL    HW2 3291   3.599   6.897   0.179  1.0198 -2.2101 -1.9323
  798SOL     OW 3292   0.017   4.931   6.676  0.0434  0.1861 -0.5560
  798SOL    HW1 3293   0.108   4.916   6.714  0.7969  1.3476 -1.8001
  798SOL    HW2 3294   0.011   4.890   6.585 -0.7268  0.0064 -0.4345
  799SOL     OW 3295   4.029   3.932   4.830  0.1855 -0.2866  0.1163
  799SOL    HW1 3296   4.112   3.988   4.836  0.6681 -1.0253  0.5356
  799SOL    HW2 3297   4.040   3.866   4.756  0.1955 -0.7505  0.5326
  800SOL     OW 3298   4.865   3.720   2.676  0.3230  0.0964 -0.1705
  800SOL    HW1 3299   4.819   3.773   2.605  1.2091  1.5870  0.3232
  800SOL    HW2 3300   4.853   3.622   2.658  2.4314  0.3109 -3.7302
  801SOL     OW 3301   1.026   3.666   1.379  0.1106 -1.0602  0.0014
  801SOL    HW1 3302   1.047   3.685   1.475  0.5001  1.3219 -0.4753
  801SOL    HW2 3303   0.938   3.708   1.356 -0.6784 -2.8424 -0.3615
  802SOL     OW 3304   3.609   4.054   5.463 -0.1260  0.3870 -0.6229
  802SOL    HW1 3305   3.651   4.061   5.372  2.2248 -2.8515  0.0129
  802SOL    HW2 3306   3.509   4.056   5.454  0.0112 -0.4535 -3.3949
  803SOL     OW 3307   4.576   2.555   2.809  0.1171  0.3394 -0.0082
  803SOL    HW1 3308   4.644   2.488   2.780  0.5861  1.3862 -1.4636
  803SOL    HW2 3309   4.571   2.557   2.909  2.0155  0.0152  0.1269
  804SOL     OW 3310   4.882   6.985   3.087 -0.0668  0.2311  0.0482
  804SOL    HW1 3311   4.937   7.042   3.026  0.5920 -1.6595 -1.2296
  804SOL    HW2 3312   4.786   7.012   3.079  0.2248  1.1738 -0.4954
  805SOL     OW 3313   3.120   2.140   4.556  0.8046  0.3314  0.1012
  805SOL    HW1 3314   3.178   2.127   4.476 -2.1624 -0.8897 -2.0230
  805SOL    HW2 3315   3.031   2.098   4.541 -1.2329  3.2467  2.5473
  806SOL     OW 3316   4.273   6.208   6.875 -0.3146  0.5214 -0.4919
  806SOL    HW1 3317   4.200   6.145   6.901  1.0381 -1.0891 -0.4487
  806SOL    HW2 3318   4.340   6.215   6.949 -0.8709  2.7372 -0.1365
  807SOL     OW 3319   0.832   6.960   6.611 -0.3291  0.2007  0.1358
  807SOL    HW1 3320   0.840   6.881   6.549 -0.7326  0.9662 -0.9153
  807SOL    HW2 3321   0.737   6.968   6.641 -0.1180 -0.2179  0.9427
  808SOL     OW 3322   4.785   6.969   5.196 -0.2715 -0.3595 -0.4647
  808SOL    HW1 3323   4.863   6.925   5.151  0.0646  0.0441 -0.2804
  808SOL    HW2 3324   4.700   6.922   5.170  0.0487 -0.8986 -0.5406
  809SOL     OW 3325   1.968   1.161   5.450 -0.1072  0.3589 -0.4274
  809SOL    HW1 3326   2.017   1.080   5.418 -0.9495 -0.9139  1.3305
  809SOL    HW2 3327   1.876   1.162   5.411  0.2383  1.0408 -1.2479
  810SOL     OW 3328   3.557   3.557   6.473  0.2369 -0.2176  0.0173
  810SOL    HW1 3329   3.527   3.467   6.505  1.5897 -0.7369 -0.1483
  810SOL    HW2 3330   3.500   3.585   6.396 -0.5726 -0.6590  0.4371
  811SOL     OW 3331   0.603   6.251   5.627 -0.4194  0.6869 -0.4246
  811SOL    HW1 3332   0.633   6.295   5.541 -0.6361  0.5495 -0.5716
  811SOL    HW2 3333   0.683   6.215   5.675 -0.2444  1.1828 -0.3351
  812SOL     OW 3334   2.392   0.935   1.911  0.5098 -0.4180  0.0447
  812SOL    HW1 3335   2.353   0.947   1.820  0.4101  1.6902  0.3141
  812SOL    HW2 3336   2.345   0.996   1.975  0.5313 -1.9134  1.5502
  813SOL     OW 3337   1.501   3.237   4.670 -0.2768  0.1495  0.6346
  813SOL    HW1 3338   1.472   3.154   4.622  1.3377  1.7290 -3.5513
  813SOL    HW2 3339   1.447   3.315   4.638  1.5803  1.4644  0.4907
  814SOL     OW 3340   1.279   3.585   0.372  0.3222 -0.1074  0.4506
  814SOL    HW1 3341   1.271   3.486   0.359 -2.3323  0.3837 -3.0036
  814SOL    HW2 3342   1.337   3.623   0.300  0.4513  0.9734  1.1114
  815SOL     OW 3343   3.608   0.725   4.218  0.5106 -0.0179 -0.3078
  815SOL    HW1 3344   3.603   0.803   4.281  2.1995  1.0070 -1.3368
  815SOL    HW2 3345   3.701   0.717   4.183 -0.1957 -0.9948 -2.1058
  816SOL     OW 3346   3.493   3.009   6.741  0.1434  0.4056 -0.0188
  816SOL    HW1 3347   3.411   3.000   6.683  0.4916  1.9600 -0.8125
  816SOL    HW2 3348   3.476   3.075   6.813  1.0247  1.5881 -0.8580
  817SOL     OW 3349   0.066   5.977   1.501 -0.2089  0.3301  0.5348
  817SOL    HW1 3350   0.067   5.986   1.401 -0.0677 -0.2500  0.4816
  817SOL    HW2 3351   0.124   5.901   1.528  0.4273  1.0108  1.1253
  818SOL     OW 3352   5.759   1.783   5.087 -0.4081  0.5599  0.1756
  818SOL    HW1 3353   5.805   1.713   5.032  0.3214  1.4868 -0.4229
  818SOL    HW2 3354   5.774   1.765   5.184  1.0134  0.6757  0.0029
  819SOL     OW 3355   6.517   5.406   0.735  0.2269  0.5426 -0.2069
  819SOL    HW1 3356   6.449   5.478   0.751  0.0337  0.3543 -0.1716
  819SOL    HW2 3357   6.484   5.320   0.773 -1.1218 -0.3864 -3.1597
  820SOL     OW 3358   1.106   6.990   5.992 -0.4273 -0.1480  0.1833
  820SOL    HW1 3359   1.178   6.950   5.935 -0.3664 -0.0786  0.2121
  820SOL    HW2 3360   1.048   6.917   6.028 -1.1671 -0.1239 -0.8980
  821SOL     OW 3361   4.240   3.869   6.528 -0.1460 -0.1648 -0.2258
  821SOL    HW1 3362   4.262   3.864   6.626  0.9156 -0.5117 -0.4657
  821SOL    HW2 3363   4.188   3.953   6.510 -1.5753 -0.7792  0.8466
  822SOL     OW 3364   0.729   4.353   2.358 -0.1573 -0.8490 -0.0114
  822SOL    HW1 3365   0.654   4.396   2.309 -1.4792 -1.7734  1.1331
  822SOL    HW2 3366   0.762   4.274   2.307  0.9253  0.2766 -1.1280
  823SOL     OW 3367   1.650   3.155   4.306  0.0320  0.2479 -0.6878
  823SOL    HW1 3368   1.729   3.167   4.367 -0.0310 -0.6388 -0.4284
  823SOL    HW2 3369   1.584   3.228   4.323 -0.1275 -0.1709  0.5299
  824SOL     OW 3370   4.657   0.353   0.957  0.5588 -0.0839  0.3430
  824SOL    HW1 3371   4.593   0.331   0.884  0.7841  0.3153  0.0226
  824SOL    HW2 3372   4.620   0.322   1.044 -0.6148  1.1606  0.3131
  825SOL     OW 3373   6.982   0.480   1.604 -0.9226 -0.6956  0.8855
  825SOL    HW1 3374   6.980   0.401   1.666 -1.2743 -0.2252  1.4858
  825SOL    HW2 3375   7.042   0.550   1.641 -0.3131 -0.8185  0.1634
  826SOL     OW 3376   3.340   2.294   6.006  0.2242  0.4743 -0.5867
  826SOL    HW1 3377   3.245   2.271   5.986 -0.0152  0.3581  0.5926
  826SOL    HW2 3378   3.345   2.390   6.033  0.4739  0.5370 -0.8624
  827SOL     OW 3379   1.616   3.241   5.335 -0.4733 -0.2294 -0.0917
  827SOL    HW1 3380   1.640   3.276   5.426  0.1139  1.5135 -0.8751
  827SOL    HW2 3381   1.525   3.199   5.338  0.5048 -2.4883  1.8266
  828SOL     OW 3382   1.086   4.436   5.800 -0.3766 -0.6524 -0.5891
  828SOL    HW1 3383   1.161   4.499   5.780 -0.0343  0.0807  2.5029
  828SOL    HW2 3384   0.999   4.485   5.797 -0.5141 -0.9435 -1.8087
  829SOL     OW 3385   4.126   3.380   3.148  0.7530 -0.2167  0.2725
  829SOL    HW1 3386   4.113   3.395   3.246  1.6549 -0.1193  0.3859
  829SOL    HW2 3387   4.067   3.443   3.097  0.1554 -0.3807  0.7435
  830SOL     OW 3388   0.629   4.549   0.404  0.0545  0.6370 -1.0256
  830SOL    HW1 3389   0.594   4.502   0.485  2.2511  0.5641 -0.0578
  830SOL    HW2 3390   0.610   4.494   0.322 -0.4678 -0.2425 -0.3266
  831SOL     OW 3391   5.422   1.704   1.906  0.0583 -0.2623  0.0109
  831SOL    HW1 3392   5.394   1.612   1.877  1.8958 -0.4387 -1.4077
  831SOL    HW2 3393   5.502   1.698   1.966  0.0950  0.3996  0.0390
  832SOL     OW 3394   2.582   1.522   4.496  0.2806 -0.0680 -0.1695
  832SOL    HW1 3395   2.483   1.532   4.503  0.3466  1.6632 -1.1765
  832SOL    HW2 3396   2.603   1.434   4.454 -0.7864 -0.7945  0.7600
  833SOL     OW 3397   3.253   3.758   5.952 -0.5843 -0.4150 -0.4041
  833SOL    HW1 3398   3.228   3.737   5.858  0.2459 -1.1665 -0.4714
  833SOL    HW2 3399   3.350   3.782   5.956 -1.0521  1.6109 -0.0358
  834SOL     OW 3400   0.640   3.815   0.841  0.5737  0.3010 -0.2925
  834SOL    HW1 3401   0.614   3.847   0.932 -0.9035  1.1208 -0.9551
  834SOL    HW2 3402   0.682   3.725   0.848 -0.8233 -0.2931  1.1058
  835SOL     OW 3403   6.065   6.856   4.331 -0.4403  0.1706  0.1987
  835SOL    HW1 3404   6.052   6.761   4.359 -1.0897  0.4525  0.8840
  835SOL    HW2 3405   5.976   6.895   4.306 -0.1135  0.4646 -0.5303
  836SOL     OW 3406   4.791   0.695   4.335  0.4002  0.0176 -0.4432
  836SOL    HW1 3407   4.698   0.665   4.354  0.6490  0.2230  1.2471
  836SOL    HW2 3408   4.853   0.617   4.339  0.7046  0.3249  1.5027
  837SOL     OW 3409   0.359   0.009   6.102 -0.0662 -0.0925 -0.6811
  837SOL    HW1 3410   0.369  -0.038   6.190  1.4727 -1.0374 -1.3292
  837SOL    HW2 3411   0.312  -0.050   6.037  0.9540 -0.3734 -1.1896
  838SOL     OW 3412   0.606   6.095   3.682 -0.3327  0.4150  0.5182
  838SOL    HW1 3413   0.685   6.033   3.675  0.2425  1.0790  0.9997
  838SOL    HW2 3414   0.625   6.166   3.750 -1.3761  0.5542  0.6809
  839SOL     OW 3415   0.285   2.871   5.973 -0.0048  0.2662 -0.1988
  839SOL    HW1 3416   0.306   2.943   5.908 -0.8819  1.0922  0.4122
  839SOL    HW2 3417   0.307   2.901   6.066 -2.0592  0.4903  0.2749
  840SOL     OW 3418   5.981   4.954   0.367  0.3328  0.0028 -0.3028
  840SOL    HW1 3419   6.032   5.026   0.412 -0.4150 -0.4238  1.2984
  840SOL    HW2 3420   6.020   4.865   0.391 -0.1662 -0.2414 -0.3719
  841SOL     OW 3421   0.701   4.823   5.447  0.7118 -0.2101 -0.1266
  841SOL    HW1 3422   0.798   4.798   5.449  1.1567  1.3104  2.1756
  841SOL    HW2 3423   0.661   4.807   5.538 -0.6764  0.9784 -0.4833
  842SOL     OW 3424   4.172   6.008   1.195  0.0793  0.6261 -0.1707
  842SOL    HW1 3425   4.178   6.051   1.105  1.6612 -1.9318 -1.4219
  842SOL    HW2 3426   4.257   6.024   1.245  0.4516 -0.4481 -0.4192
  843SOL     OW 3427   1.293   6.822   3.128 -0.2874 -0.1434  0.0462
  843SOL    HW1 3428   1.348   6.738   3.135 -0.2229 -0.0790  0.3456
  843SOL    HW2 3429   1.201   6.804   3.163  0.3376  0.4520  2.1333
  844SOL     OW 3430   6.756   0.225   3.355  0.0018  0.1621 -0.0123
  844SOL    HW1 3431   6.723   0.160   3.286  0.6432  0.0175 -0.1961
  844SOL    HW2 3432   6.774   0.313   3.312 -0.7086  0.4181  0.2051
  845SOL     OW 3433   3.476   1.877   1.360  0.5787  0.4175  0.4077
  845SOL    HW1 3434   3.431   1.835   1.282  0.7142 -0.0677  0.5817
  845SOL    HW2 3435   3.472   1.814   1.438 -0.4134  1.2824  1.0841
  846SOL     OW 3436   0.796   0.238   2.859 -0.0082  0.2713 -0.3931
  846SOL    HW1 3437   0.800   0.336   2.842 -0.8432  0.7496  1.8213
  846SOL    HW2 3438   0.744   0.193   2.786  1.5845  1.2006 -2.2019
  847SOL     OW 3439   2.477   2.997   1.747  0.0009 -0.0981  0.2272
  847SOL    HW1 3440   2.404   2.956   1.693  0.0519  0.7354 -0.4930
  847SOL    HW2 3441   2.564   2.954   1.723 -0.1278 -0.4870  0.4505
  848SOL     OW 3442   0.852   5.208   2.188  0.6723 -0.2125 -0.0786
  848SOL    HW1 3443   0.760   5.181   2.217  1.5021 -1.8297  1.2108
  848SOL    HW2 3444   0.849   5.301   2.152 -1.3729 -0.0389  0.3937
  849SOL     OW 3445   4.946   3.756   5.998 -0.2483  0.0303  0.2452
  849SOL    HW1 3446   4.970   3.825   5.929  1.0124  0.3293  0.9539
  849SOL    HW2 3447   4.990   3.669   5.974  1.5784  0.5565  1.5041
  850SOL     OW 3448   2.563   0.765   5.354 -0.4099  0.5241  0.3480
  850SOL    HW1 3449   2.659   0.775   5.382 -0.5600  0.1370  1.0028
  850SOL    HW2 3450   2.506   0.825   5.411 -0.6760 -0.0204  0.6599
  851SOL     OW 3451   5.457   2.591   5.744  0.3297 -0.3439 -0.8239
  851SOL    HW1 3452   5.443   2.664   5.677  0.9237  0.9540  0.3991
  851SOL    HW2 3453   5.535   2.534   5.715  0.3083 -0.0728 -1.4380
  852SOL     OW 3454   0.570   4.332   0.224  0.0896 -0.2178  0.3791
  852SOL    HW1 3455   0.524   4.330   0.313  0.7125 -0.0855  0.7101
  852SOL    HW2 3456   0.636   4.257   0.219 -1.4889 -1.6158 -0.8375
  853SOL     OW 3457   3.895   2.914   0.216  0.2237  0.1752 -0.9170
  853SOL    HW1 3458   3.809   2.961   0.235  0.5551  0.6248 -0.4988
  853SOL    HW2 3459   3.967   2.952   0.274  0.9029  0.4086 -1.8931
  854SOL     OW 3460   6.139   1.940   6.856 -0.0954  0.0984  0.2762
  854SOL    HW1 3461   6.050   1.961   6.897  0.6949  2.0570  1.1427
  854SOL    HW2 3462   6.140   1.969   6.761 -0.2137  0.6294  0.4329
  855SOL     OW 3463   5.443   4.777   6.471  0.2671 -0.2754  0.0244
  855SOL    HW1 3464   5.500   4.697   6.489 -0.2761 -0.8400 -0.7493
  855SOL    HW2 3465   5.448   4.839   6.550  1.6552 -0.4823  0.1234
  856SOL     OW 3466   2.746   5.245   2.652  1.0875 -0.6013 -0.1753
  856SOL    HW1 3467   2.813   5.260   2.725  0.8077  0.6059 -0.1385
  856SOL    HW2 3468   2.662   5.209   2.691  0.8195  0.3587  0.1723
  857SOL     OW 3469   0.114   5.459   6.274 -0.3853 -0.1526 -0.0030
  857SOL    HW1 3470   0.140   5.362   6.279 -0.0242 -0.2213 -2.0035
  857SOL    HW2 3471   0.038   5.469   6.209 -0.3426  0.9130  0.1026
  858SOL     OW 3472   1.489   3.480   1.176  0.0373  0.6474 -0.2160
  858SOL    HW1 3473   1.399   3.515   1.149  0.4213  1.3600 -0.6280
  858SOL    HW2 3474   1.553   3.490   1.099  0.5963  0.6375  0.2396
  859SOL     OW 3475   5.313   5.124   4.922  0.0229 -0.7941  0.6473
  859SOL    HW1 3476   5.309   5.222   4.902  1.6528 -0.7181  0.5687
  859SOL    HW2 3477   5.253   5.075   4.859 -0.1932  0.0754  0.1562
  860SOL     OW 3478   5.508   3.367   0.967 -0.2090 -0.3175 -0.1762
  860SOL    HW1 3479   5.441   3.337   0.899 -0.0928 -1.2579  0.1060
  860SOL    HW2 3480   5.463   3.427   1.033 -0.6487 -0.4938 -0.3078
  861SOL     OW 3481   0.470   6.834   3.207  0.3126 -0.6963 -0.2692
  861SOL    HW1 3482   0.456   6.765   3.278 -3.2037  2.4634  2.4821
  861SOL    HW2 3483   0.401   6.823   3.135 -0.3041 -0.0375  0.2146
  862SOL     OW 3484   6.801   3.363   3.808  0.1407 -0.3918  0.0089
  862SOL    HW1 3485   6.808   3.413   3.895  0.0391  0.9234 -0.7129
  862SOL    HW2 3486   6.731   3.291   3.817  0.5339 -0.6556  1.1785
  863SOL     OW 3487   4.874   0.319   0.749 -0.0591  0.4622 -0.4825
  863SOL    HW1 3488   4.948   0.263   0.785 -0.2769  1.3200  1.4506
  863SOL    HW2 3489   4.829   0.367   0.825 -1.5712  1.1914 -1.7789
  864SOL     OW 3490   6.232   1.089   1.647 -0.0842 -0.8471 -0.0979
  864SOL    HW1 3491   6.261   1.161   1.584 -1.1205 -0.2982  0.0395
  864SOL    HW2 3492   6.178   1.021   1.598  2.7185 -2.7958 -0.7388
  865SOL     OW 3493   0.872   4.386   4.213 -0.5540 -0.4297  0.2061
  865SOL    HW1 3494   0.896   4.351   4.123  2.3762 -0.0054  0.7230
  865SOL    HW2 3495   0.860   4.309   4.276 -0.1432 -0.6822 -0.0165
  866SOL     OW 3496   4.687   6.711   2.144  0.0662 -0.2313  0.3598
  866SOL    HW1 3497   4.625   6.648   2.097  1.4771 -1.7979  0.5030
  866SOL    HW2 3498   4.708   6.788   2.084 -1.0093 -0.3279 -0.1653
  867SOL     OW 3499   5.227   5.183   3.474  0.0438 -0.2432 -0.6175
  867SOL    HW1 3500   5.272   5.103   3.516 -0.5488 -0.0590  0.4108
  867SOL    HW2 3501   5.168   5.226   3.542  0.1687  0.9330 -1.2451
  868SOL     OW 3502   0.168   3.402   0.302 -0.4244  0.0775 -0.3863
  868SOL    HW1 3503   0.166   3.501   0.288  2.1605  0.2421 -0.0748
  868SOL    HW2 3504   0.154   3.356   0.214 -1.5617  0.6671 -0.5467
  869SOL     OW 3505   1.219   3.148   1.211  0.4529 -0.3242  0.3642
  869SOL    HW1 3506   1.166   3.213   1.158 -0.7489 -0.0761  1.7998
  869SOL    HW2 3507   1.167   3.120   1.292  2.3750 -0.2936  1.6849
  870SOL     OW 3508   3.479   3.714   2.528  0.7571  0.2407 -0.1812
  870SOL    HW1 3509   3.479   3.736   2.626 -3.0652  2.4676 -0.4808
  870SOL    HW2 3510   3.517   3.791   2.477 -0.4265  0.5870 -0.5726
  871SOL     OW 3511   4.835   2.995   3.853 -0.0557 -0.0130  0.1037
  871SOL    HW1 3512   4.873   2.951   3.935  0.3859 -0.3942 -0.3017
  871SOL    HW2 3513   4.849   3.094   3.860  0.0412 -0.0497  0.4635
  872SOL     OW 3514   2.222   1.220   4.923 -0.1358  0.2825 -0.1965
  872SOL    HW1 3515   2.181   1.141   4.877  1.4460 -1.7734  1.6967
  872SOL    HW2 3516   2.295   1.257   4.866 -0.6419  0.1721 -0.9391
  873SOL     OW 3517   3.437   2.110   4.388  0.2707 -0.4263  0.8278
  873SOL    HW1 3518   3.450   2.132   4.485 -1.9656  1.2867  0.8263
  873SOL    HW2 3519   3.341   2.086   4.372  0.4842 -0.1519 -1.0464
  874SOL     OW 3520   6.001   3.169   2.967 -0.0942  0.2360  0.3596
  874SOL    HW1 3521   6.038   3.224   2.892 -1.6434  0.7671 -0.0481
  874SOL    HW2 3522   5.912   3.205   2.994  0.2477 -0.1788  2.2112
  875SOL     OW 3523   4.576   5.970   3.702  0.4895  0.6558 -0.0990
  875SOL    HW1 3524   4.675   5.975   3.707  0.6070 -1.3617  0.4107
  875SOL    HW2 3525   4.548   5.947   3.609  0.7538 -2.0515  0.4125
  876SOL     OW 3526   0.701   0.676   0.227  0.5144 -0.0335  0.1197
  876SOL    HW1 3527   0.637   0.662   0.152 -1.0771 -2.6437  1.8054
  876SOL    HW2 3528   0.754   0.593   0.242  2.4183  1.1786  0.5323
  877SOL     OW 3529   0.406   4.142   6.727  0.2747 -0.3433 -0.1191
  877SOL    HW1 3530   0.474   4.213   6.708 -0.7535  1.2684  1.7402
  877SOL    HW2 3531   0.448   4.070   6.782  0.9144 -0.2541 -0.4863
  878SOL     OW 3532   6.043   6.565   4.448  0.0905  0.0953  0.0792
  878SOL    HW1 3533   5.999   6.484   4.487 -0.8885  0.7968  0.4748
  878SOL    HW2 3534   6.127   6.585   4.500  1.2519 -1.5858 -1.0401
  879SOL     OW 3535   5.512   0.386   5.149  0.2309 -0.5793 -0.0902
  879SOL    HW1 3536   5.584   0.404   5.082  1.4666 -1.8232  0.8380
  879SOL    HW2 3537   5.522   0.450   5.226 -0.1703 -0.2213 -0.3332
  880SOL     OW 3538   3.974   3.104   2.589 -0.0818  0.6458 -0.4492
  880SOL    HW1 3539   3.908   3.170   2.624 -0.0462 -0.1595  1.1970
  880SOL    HW2 3540   4.064   3.120   2.631 -0.0731 -0.4477 -0.0302
  881SOL     OW 3541   4.526   3.212   6.895  0.0623 -0.3538 -0.3333
  881SOL    HW1 3542   4.483   3.154   6.964 -1.1575  0.5925 -0.2786
  881SOL    HW2 3543   4.466   3.288   6.872  0.9714  0.0368 -1.5532
  882SOL     OW 3544   1.958   3.062   4.946  0.0996  0.3790 -0.0550
  882SOL    HW1 3545   1.917   3.003   4.878  0.8922  0.2129 -0.4056
  882SOL    HW2 3546   2.043   3.020   4.980 -0.7852 -0.0288  1.7755
  883SOL     OW 3547   1.732   4.014   3.791 -0.7787  0.5162 -0.5238
  883SOL    HW1 3548   1.677   3.958   3.852 -0.3488  1.6532  0.9568
  883SOL    HW2 3549   1.677   4.042   3.712 -1.7715  0.1741  0.0347
  884SOL     OW 3550   2.666   2.624   6.447  0.1780 -0.0502 -0.2557
  884SOL    HW1 3551   2.581   2.595   6.489 -0.0183 -1.0007 -1.2716
  884SOL    HW2 3552   2.702   2.703   6.497 -0.8628 -0.1358  0.6787
  885SOL     OW 3553   4.251   3.573   0.008  0.5786  0.5486  0.1005
  885SOL    HW1 3554   4.157   3.608   0.001  0.5124  0.2424 -0.6315
  885SOL    HW2 3555   4.262   3.496  -0.054  0.3545 -1.5937  2.5315
  886SOL     OW 3556   5.057   2.715   0.858 -0.2826  0.1469  0.1599
  886SOL    HW1 3557   5.009   2.629   0.876  1.4405 -0.7040  0.9377
  886SOL    HW2 3558   4.998   2.776   0.805 -1.6064 -1.4456 -0.2791
  887SOL     OW 3559   5.524   1.258   5.892  0.0054 -0.3588 -0.1153
  887SOL    HW1 3560   5.513   1.345   5.939 -1.8303  0.4574 -1.8820
  887SOL    HW2 3561   5.572   1.272   5.805  0.6890 -1.3188  0.0836
  888SOL     OW 3562   0.825   6.946   2.629 -0.7556 -0.0800  1.0081
  888SOL    HW1 3563   0.784   6.939   2.538 -1.9319  1.9321  1.3359
  888SOL    HW2 3564   0.919   6.980   2.620 -0.5282 -0.8035  0.5138
  889SOL     OW 3565   1.004   3.283   1.940  0.0525  0.3251 -0.0217
  889SOL    HW1 3566   1.097   3.272   1.905 -0.3798  0.7543 -1.3672
  889SOL    HW2 3567   1.002   3.359   2.006  0.3133  1.6048 -1.4264
  890SOL     OW 3568   2.721   5.271   4.406  0.5360  0.7604  0.0659
  890SOL    HW1 3569   2.743   5.364   4.377 -0.9581  0.3981 -2.5638
  890SOL    HW2 3570   2.640   5.273   4.465 -1.0396  1.0275 -1.9976
  891SOL     OW 3571   4.606   5.695   3.952  0.1758  0.2681 -0.5304
  891SOL    HW1 3572   4.666   5.672   3.875 -2.2921 -0.4696 -2.3336
  891SOL    HW2 3573   4.516   5.656   3.937 -0.6753  0.8880  2.3503
  892SOL     OW 3574   4.009   3.681   1.424  0.1219  0.2699 -0.0438
  892SOL    HW1 3575   3.915   3.663   1.453 -0.1761 -0.4416 -1.3364
  892SOL    HW2 3576   4.071   3.616   1.468 -0.2101 -0.2837 -0.3897
  893SOL     OW 3577   2.141   3.246   3.917 -0.5034 -0.2875 -0.1223
  893SOL    HW1 3578   2.171   3.230   3.823  0.9546  0.6946  0.1419
  893SOL    HW2 3579   2.069   3.314   3.917  1.8909  2.4349 -0.3599
  894SOL     OW 3580   2.412   3.285   0.533 -0.4286 -0.0854  0.4653
  894SOL    HW1 3581   2.462   3.369   0.509 -1.5391  0.6827  0.7411
  894SOL    HW2 3582   2.376   3.243   0.449 -0.4398  0.0865  0.3833
  895SOL     OW 3583   6.748   5.541   5.750 -0.0455  0.0104 -0.0309
  895SOL    HW1 3584   6.727   5.519   5.845  0.0585  1.5417  0.3832
  895SOL    HW2 3585   6.725   5.464   5.691 -1.0049 -0.6136  1.1260
  896SOL     OW 3586   0.332   0.417   5.480  0.2616 -0.1298 -0.4659
  896SOL    HW1 3587   0.233   0.406   5.482  0.3243 -0.7450 -0.1613
  896SOL    HW2 3588   0.375   0.327   5.494  0.8656 -0.0449 -1.6247
  897SOL     OW 3589   4.844   6.462   1.692  0.2373  0.4981  0.0765
  897SOL    HW1 3590   4.762   6.477   1.747 -0.1519  0.5249 -0.5031
  897SOL    HW2 3591   4.925   6.488   1.744 -0.1729  1.1507  0.3918
  898SOL     OW 3592   1.866   0.376   4.911  0.1889 -0.0584 -0.1308
  898SOL    HW1 3593   1.850   0.330   4.998 -0.0565  0.5225  0.1438
  898SOL    HW2 3594   1.853   0.475   4.924  2.0433  0.2473 -0.3766
  899SOL     OW 3595   5.893   0.590   5.051  0.0779  0.4123  0.6815
  899SOL    HW1 3596   5.880   0.495   5.077  1.2143 -0.0670 -0.3977
  899SOL    HW2 3597   5.814   0.622   4.999 -0.8015  0.4206  1.9839
  900SOL     OW 3598   6.409   3.405   5.935  0.3571  0.1555  0.0336
  900SOL    HW1 3599   6.486   3.449   5.982 -1.1667  1.5850  1.3213
  900SOL    HW2 3600   6.345   3.369   6.002 -0.6570 -0.0217 -0.9998
  901SOL     OW 3601   1.335   6.875   2.541  0.5206 -0.1216  0.3427
  901SOL    HW1 3602   1.279   6.958   2.539  0.3704 -0.2452 -0.7895
  901SOL    HW2 3603   1.431   6.899   2.529  0.4484 -0.1267 -0.2824
  902SOL     OW 3604   6.061   2.604   3.156  0.6623  0.4660 -0.1292
  902SOL    HW1 3605   6.027   2.694   3.129  0.5473  0.6435  0.6025
  902SOL    HW2 3606   5.992   2.535   3.132  0.7308  0.5714 -0.6497
  903SOL     OW 3607   5.239   2.251   6.779 -0.1574 -0.0385  0.3740
  903SOL    HW1 3608   5.333   2.230   6.752 -0.7138 -1.9318 -0.2565
  903SOL    HW2 3609   5.184   2.269   6.697 -0.6602 -0.4237  0.6214
  904SOL     OW 3610   2.806   0.459   4.242  0.3604  0.1574 -0.4144
  904SOL    HW1 3611   2.894   0.411   4.240 -0.3625 -1.2060 -0.7700
  904SOL    HW2 3612   2.772   0.471   4.149  0.7793  1.8806 -0.3666
  905SOL     OW 3613   5.748   1.789   6.342 -0.8526  0.0175 -0.4068
  905SOL    HW1 3614   5.742   1.742   6.254 -0.2176 -1.1288  0.1414
  905SOL    HW2 3615   5.656   1.809   6.374 -1.1363 -0.6251 -0.7847
  906SOL     OW 3616   6.083   2.202   0.010  0.3521  0.3402  0.3347
  906SOL    HW1 3617   6.003   2.187  -0.048 -1.6688  3.0067  2.1575
  906SOL    HW2 3618   6.077   2.144   0.091  1.3525 -0.8640 -0.4206
  907SOL     OW 3619   6.238   3.665   5.881 -0.0760 -0.1642 -0.2599
  907SOL    HW1 3620   6.322   3.655   5.935  0.6217 -0.2116 -1.3183
  907SOL    HW2 3621   6.170   3.600   5.913  0.4426 -0.4203  0.3447
  908SOL     OW 3622   0.267   5.953   3.369 -0.2808  0.5555 -0.3708
  908SOL    HW1 3623   0.256   5.869   3.421 -0.0111  0.8022  0.0938
  908SOL    HW2 3624   0.201   6.021   3.400 -0.0140  0.7570 -0.2419
  909SOL     OW 3625   5.069   2.844   4.185  0.1825  0.0510  0.5624
  909SOL    HW1 3626   5.003   2.816   4.255 -0.2858  1.1394  0.5733
  909SOL    HW2 3627   5.098   2.764   4.132 -2.2297 -0.2693 -0.3784
  910SOL     OW 3628   5.792   4.779   6.789  0.5164  0.4905  0.1325
  910SOL    HW1 3629   5.790   4.800   6.691  1.0662  0.6429  0.1490
  910SOL    HW2 3630   5.754   4.688   6.805  0.5384  0.4148 -0.2376
  911SOL     OW 3631   1.234   3.704   6.697 -0.3576  0.2140 -0.4840
  911SOL    HW1 3632   1.144   3.726   6.734 -0.5902 -1.0021 -0.2776
  911SOL    HW2 3633   1.234   3.609   6.664  0.3654  0.6944 -1.9748
  912SOL     OW 3634   6.149   0.596   5.135  0.4117 -1.1022  0.7165
  912SOL    HW1 3635   6.055   0.577   5.104  0.2960  0.1089  0.2591
  912SOL    HW2 3636   6.183   0.518   5.187 -0.2832 -2.2095 -0.4182
  913SOL     OW 3637   1.193   6.037   4.529 -0.6821  0.1495  0.3400
  913SOL    HW1 3638   1.254   6.089   4.589 -0.1515  0.7403 -0.6877
  913SOL    HW2 3639   1.117   6.001   4.583  0.3945 -0.3343  1.5867
  914SOL     OW 3640   2.550   5.495   5.848  0.6773  0.1608 -0.2568
  914SOL    HW1 3641   2.618   5.497   5.922 -0.9716  0.9025  1.2985
  914SOL    HW2 3642   2.582   5.553   5.772  0.6842  2.6186  1.5066
  915SOL     OW 3643   4.705   5.856   1.797  0.8111 -0.1747 -0.2092
  915SOL    HW1 3644   4.756   5.933   1.760  1.7193 -0.4457  0.4325
  915SOL    HW2 3645   4.644   5.889   1.870 -0.6935  0.2958 -1.6165
  916SOL     OW 3646   0.981   2.569   4.238 -0.6294 -0.2978  0.2797
  916SOL    HW1 3647   0.923   2.601   4.313  0.8127  1.0702  0.8860
  916SOL    HW2 3648   1.068   2.619   4.240 -1.0636  0.8452 -3.1816
  917SOL     OW 3649   0.482   0.696   6.314 -0.9567  0.0776  0.0717
  917SOL    HW1 3650   0.471   0.628   6.241 -0.7408  1.1046 -0.9622
  917SOL    HW2 3651   0.579   0.718   6.324 -1.1159  1.2237 -0.5990
  918SOL     OW 3652   3.870   5.849   5.149 -0.1637 -0.5077 -0.1745
  918SOL    HW1 3653   3.966   5.827   5.170 -0.7275 -2.0465  0.8939
  918SOL    HW2 3654   3.824   5.767   5.114 -1.4399 -0.1504  0.6159
  919SOL     OW 3655   4.039   6.044   6.185 -0.1449 -0.1199  0.0666
  919SOL    HW1 3656   4.056   5.967   6.247 -0.2557 -0.1057  0.1159
  919SOL    HW2 3657   3.959   6.095   6.218  0.5356  0.6072  0.6087
  920SOL     OW 3658   2.137   3.170   0.962  0.4806 -0.1046  0.0372
  920SOL    HW1 3659   2.198   3.152   0.885  0.4563 -0.5450  0.1160
  920SOL    HW2 3660   2.124   3.268   0.973  1.1738 -0.0041  0.0125
  921SOL     OW 3661   5.571   0.333   4.434  0.0241 -0.3183 -0.0961
  921SOL    HW1 3662   5.588   0.405   4.367 -0.4715 -1.2052 -1.2265
  921SOL    HW2 3663   5.601   0.245   4.396  0.4640 -0.7358  1.1783
  922SOL     OW 3664   3.767   3.601   2.115  0.0264  0.1451 -0.6080
  922SOL    HW1 3665   3.776   3.649   2.202 -1.5495 -1.4699  0.4983
  922SOL    HW2 3666   3.856   3.600   2.069  0.7183  1.6677  0.5998
  923SOL     OW 3667   4.183   5.491   5.799  0.4682  0.2149  0.6128
  923SOL    HW1 3668   4.135   5.421   5.852  0.3942 -1.7036 -1.8029
  923SOL    HW2 3669   4.275   5.458   5.778  0.2689  0.5955 -0.9700
  924SOL     OW 3670   0.739   2.694   6.203  0.2241 -0.0833 -0.6499
  924SOL    HW1 3671   0.718   2.742   6.118 -1.9430  0.5559  0.1573
  924SOL    HW2 3672   0.837   2.676   6.209  0.7996  2.2408 -2.0384
  925SOL     OW 3673   1.171   2.622   0.857  0.3669 -0.6465 -0.4782
  925SOL    HW1 3674   1.180   2.672   0.943  0.4723 -1.0874 -0.2257
  925SOL    HW2 3675   1.075   2.596   0.843  0.6023 -2.1765  0.4510
  926SOL     OW 3676   1.683   3.343   1.391 -0.8884  0.5000  0.1742
  926SOL    HW1 3677   1.699   3.365   1.295 -0.5161  1.9729  0.5519
  926SOL    HW2 3678   1.747   3.395   1.448  0.0589 -1.6020  1.1567
  927SOL     OW 3679   0.279   3.588   4.259 -0.1477 -0.2924  0.0967
  927SOL    HW1 3680   0.198   3.583   4.202  0.4608 -0.0511 -0.8079
  927SOL    HW2 3681   0.359   3.606   4.202  0.2566  1.7295  1.2046
  928SOL     OW 3682   3.325   4.162   4.227 -0.2224 -0.1782  1.0967
  928SOL    HW1 3683   3.423   4.155   4.244 -0.1269 -0.6518  0.4223
  928SOL    HW2 3684   3.309   4.172   4.128 -0.9698 -4.0692  0.6580
  929SOL     OW 3685   1.576   2.075   6.094 -0.8123 -0.1681 -0.0307
  929SOL    HW1 3686   1.531   2.015   6.028  1.0109 -0.2980 -1.2411
  929SOL    HW2 3687   1.653   2.122   6.050 -1.2327  1.8995  1.2920
  930SOL     OW 3688   6.715   0.426   4.632  0.7985  0.5800  0.3049
  930SOL    HW1 3689   6.725   0.526   4.637 -1.7469  0.9295 -0.2207
  930SOL    HW2 3690   6.664   0.394   4.711 -0.9197  0.1300 -0.9358
  931SOL     OW 3691   5.830   1.363   1.306  0.5957  0.1593  0.1432
  931SOL    HW1 3692   5.837   1.339   1.403  1.7145 -3.0011 -0.5775
  931SOL    HW2 3693   5.913   1.412   1.278  1.8504 -1.7894  0.1975
  932SOL     OW 3694   5.116   1.402   1.827 -0.3272 -0.0801 -0.1859
  932SOL    HW1 3695   5.152   1.467   1.760  0.6324 -0.9021 -0.5046
  932SOL    HW2 3696   5.017   1.392   1.815 -0.3491  0.6780 -0.6867
  933SOL     OW 3697   6.277   6.800   1.127 -0.4303 -0.2081 -0.0209
  933SOL    HW1 3698   6.356   6.838   1.080 -0.2425 -0.3900  0.1444
  933SOL    HW2 3699   6.206   6.776   1.060  0.4029 -1.8126 -0.3729
  934SOL     OW 3700   0.956   3.545   2.083 -0.2135  0.1118  0.1703
  934SOL    HW1 3701   1.050   3.573   2.105  0.2764 -1.0909 -0.2622
  934SOL    HW2 3702   0.928   3.588   1.997  0.1109  0.1218  0.0675
  935SOL     OW 3703   4.877   2.692   3.524 -0.2754 -0.1445  0.1904
  935SOL    HW1 3704   4.969   2.696   3.485 -0.2703 -0.0706  0.2118
  935SOL    HW2 3705   4.837   2.602   3.503  1.1935 -1.6759  3.2867
  936SOL     OW 3706   1.563   1.032   0.679 -0.1985  0.2899  0.0322
  936SOL    HW1 3707   1.646   1.085   0.697 -0.0442  0.9211 -2.2152
  936SOL    HW2 3708   1.587   0.934   0.677  0.6243  0.4914 -1.0457
  937SOL     OW 3709   3.253   1.598   5.686 -0.0347  0.0234  0.1043
  937SOL    HW1 3710   3.261   1.517   5.627  0.6784  1.4738 -1.9138
  937SOL    HW2 3711   3.159   1.633   5.681 -0.5618 -1.0610  1.6018
  938SOL     OW 3712   4.934   6.277   3.974  0.0334 -0.3752  0.0774
  938SOL    HW1 3713   5.005   6.211   3.951 -0.9307 -1.9468  1.3753
  938SOL    HW2 3714   4.934   6.293   4.073 -0.6405  0.5461 -0.0554
  939SOL     OW 3715   2.856   6.875   5.206 -0.3801 -0.3442  0.1379
  939SOL    HW1 3716   2.862   6.789   5.258 -0.9860 -0.6327 -0.2461
  939SOL    HW2 3717   2.921   6.941   5.242  1.5721 -1.6398 -0.8557
  940SOL     OW 3718   1.927   4.816   0.704  0.2580  0.8446  0.5745
  940SOL    HW1 3719   1.977   4.764   0.774  0.2935  1.6023  1.1291
  940SOL    HW2 3720   1.984   4.826   0.622  0.8748  1.3441  1.0506
  941SOL     OW 3721   3.284   1.062   2.788  0.1559  0.0031  0.4734
  941SOL    HW1 3722   3.304   1.160   2.784 -1.8733  0.4299 -0.3458
  941SOL    HW2 3723   3.266   1.036   2.883  0.1117  0.5672  0.6261
  942SOL     OW 3724   5.860   3.347   5.764  0.1561 -0.5451  0.4795
  942SOL    HW1 3725   5.881   3.331   5.668  2.1486  0.8343  0.6350
  942SOL    HW2 3726   5.802   3.428   5.773  0.6406 -0.1943  0.4772
  943SOL     OW 3727   5.252   6.633   0.622 -0.0890 -0.5988  0.5531
  943SOL    HW1 3728   5.286   6.591   0.538  0.5964  0.8910  0.0436
  943SOL    HW2 3729   5.152   6.632   0.622 -0.1620  0.9253 -1.1452
  944SOL     OW 3730   6.867   4.587   1.947 -0.4248  0.2389 -0.5099
  944SOL    HW1 3731   6.836   4.656   2.013 -0.6626 -1.1260  0.8570
  944SOL    HW2 3732   6.850   4.620   1.854  0.8046  2.6219  0.0442
  945SOL     OW 3733   0.455   5.013   6.164 -0.5647  0.0207 -0.2058
  945SOL    HW1 3734   0.472   5.112   6.170 -0.7785  0.0936 -0.7023
  945SOL    HW2 3735   0.461   4.972   6.255 -0.0047  0.4121 -0.0609
  946SOL     OW 3736   5.607   1.635   4.805  0.1235 -0.2430  0.2580
  946SOL    HW1 3737   5.556   1.674   4.881 -1.0823 -0.1847 -0.5636
  946SOL    HW2 3738   5.553   1.563   4.761  0.0605  0.8867 -1.6156
  947SOL     OW 3739   3.088   3.572   2.884 -0.0951 -0.6325  0.1678
  947SOL    HW1 3740   3.078   3.473   2.886 -2.4829 -0.5128 -1.6047
  947SOL    HW2 3741   3.017   3.615   2.939 -0.0136  0.1252 -0.3010
  948SOL     OW 3742   3.466   1.298   2.943 -0.9227  0.1490  0.5786
  948SOL    HW1 3743   3.494   1.301   2.847 -0.9909 -0.2216  0.5479
  948SOL    HW2 3744   3.385   1.355   2.955 -0.3257  1.0076  0.6135
  949SOL     OW 3745   1.412   5.658   5.527  0.1538  0.1857 -0.2046
  949SOL    HW1 3746   1.323   5.623   5.499  0.3075 -0.2787 -0.1182
  949SOL    HW2 3747   1.481   5.587   5.514  0.4336  0.3888  0.1760
  950SOL     OW 3748   1.671   0.910   1.960 -0.3816  0.4932  0.1672
  950SOL    HW1 3749   1.637   0.851   1.887  3.3775 -1.7511 -0.0132
  950SOL    HW2 3750   1.656   0.866   2.048  1.4047 -0.3202  0.1152
  951SOL     OW 3751   0.400   0.569   3.175 -0.7141 -0.1389  0.1429
  951SOL    HW1 3752   0.468   0.635   3.208 -1.4199  0.5644  0.2488
  951SOL    HW2 3753   0.403   0.487   3.230  0.4398 -0.3570 -0.2210
  952SOL     OW 3754   4.127   0.761   2.334 -0.1463 -0.1697  0.0302
  952SOL    HW1 3755   4.089   0.854   2.338  0.7323  0.4120 -2.7445
  952SOL    HW2 3756   4.202   0.753   2.400 -0.2158  1.1210  0.2951
  953SOL     OW 3757   6.978   5.965   6.058  0.2235  0.4161 -0.7027
  953SOL    HW1 3758   7.068   5.955   6.016  1.3719  2.2743  1.1159
  953SOL    HW2 3759   6.919   6.020   5.998  1.2276  1.5085 -0.7216
  954SOL     OW 3760   3.312   6.785   2.064  0.1757 -0.3345 -0.2162
  954SOL    HW1 3761   3.341   6.861   2.122 -0.7655  1.1898 -1.6583
  954SOL    HW2 3762   3.344   6.801   1.970 -2.7264 -0.0498 -1.2393
  955SOL     OW 3763   3.066   3.752   1.717 -0.4353 -0.2015  0.0140
  955SOL    HW1 3764   3.140   3.747   1.783 -1.7117  0.0476  1.5207
  955SOL    HW2 3765   3.082   3.686   1.643 -0.3721 -2.6237  2.0620
  956SOL     OW 3766   4.379   6.796   1.164  0.3690  0.5046  0.4445
  956SOL    HW1 3767   4.430   6.862   1.108  0.8269  0.6589  1.0334
  956SOL    HW2 3768   4.383   6.823   1.260 -0.6156  0.3704  0.5277
  957SOL     OW 3769   7.007   0.249   2.660 -0.0126  0.3180  0.2499
  957SOL    HW1 3770   7.085   0.225   2.718  1.5585  2.1799 -0.9907
  957SOL    HW2 3771   6.997   0.348   2.656 -1.3289  0.1734 -1.0928
  958SOL     OW 3772   5.345   5.626   3.131 -0.4249 -0.7393  0.1386
  958SOL    HW1 3773   5.408   5.600   3.058  1.4366  1.6113  0.7524
  958SOL    HW2 3774   5.251   5.606   3.103  0.3667 -1.7942 -1.9973
  959SOL     OW 3775   6.116   5.517   3.103  0.0703  0.1249  0.1601
  959SOL    HW1 3776   6.121   5.477   3.012 -1.2453  0.6095 -0.1480
  959SOL    HW2 3777   6.021   5.516   3.135  0.0426  2.5905  0.3172
  960SOL     OW 3778   6.406   1.339   0.637  0.0614 -0.6630  0.3231
  960SOL    HW1 3779   6.463   1.257   0.646  0.2845 -0.4036  1.3643
  960SOL    HW2 3780   6.416   1.396   0.718 -0.5999  0.0848 -0.1041
  961SOL     OW 3781   5.388   1.449   5.668  0.0524 -0.6105 -0.0635
  961SOL    HW1 3782   5.397   1.490   5.577 -1.1652 -0.1651 -0.0051
  961SOL    HW2 3783   5.341   1.361   5.660 -0.7583 -0.2120  0.1965
  962SOL     OW 3784   5.834   2.462   4.764  0.4856  0.9295  0.1027
  962SOL    HW1 3785   5.821   2.469   4.665  2.0566  1.1504 -0.1096
  962SOL    HW2 3786   5.864   2.551   4.800  0.6189  0.6599  0.6662
  963SOL     OW 3787   6.640   3.556   2.285  0.0977  0.3600 -0.5569
  963SOL    HW1 3788   6.595   3.644   2.305 -0.4861  0.2911 -1.5124
  963SOL    HW2 3789   6.574   3.482   2.297  0.9657 -0.1378  1.7046
  964SOL     OW 3790   3.803   0.819   4.799  0.0513 -0.1798 -0.3319
  964SOL    HW1 3791   3.747   0.783   4.873  2.0212 -0.2695  1.2094
  964SOL    HW2 3792   3.748   0.878   4.740 -1.8815 -1.1802  0.4114
  965SOL     OW 3793   5.443   2.009   5.055 -0.5172  0.7141  0.3301
  965SOL    HW1 3794   5.402   2.041   5.140 -2.1174  0.6223 -0.3638
  965SOL    HW2 3795   5.542   2.010   5.063 -0.6279  0.0023  2.4561
  966SOL     OW 3796   5.695   0.420   2.411 -0.5339  0.2256  0.3590
  966SOL    HW1 3797   5.612   0.412   2.465 -0.1270 -0.5541  0.8852
  966SOL    HW2 3798   5.689   0.358   2.332  0.1071 -0.8789  1.1504
  967SOL     OW 3799   4.642   5.546   5.114  0.1237  0.1827 -0.0852
  967SOL    HW1 3800   4.741   5.535   5.115  0.1212  0.1678 -0.0060
  967SOL    HW2 3801   4.611   5.564   5.021  0.2729  0.8429 -0.0086
  968SOL     OW 3802   2.806   0.736   1.360  0.2652  0.2483  0.3649
  968SOL    HW1 3803   2.726   0.691   1.400 -0.9618 -0.4734 -2.6579
  968SOL    HW2 3804   2.839   0.807   1.423 -1.5613 -0.7040  2.5200
  969SOL     OW 3805   4.263   3.398   6.794 -0.4659 -0.1694 -0.3667
  969SOL    HW1 3806   4.224   3.310   6.765 -1.0889  0.1046 -0.3576
  969SOL    HW2 3807   4.271   3.458   6.715 -1.5860  0.3550 -0.0983
  970SOL     OW 3808   4.663   5.245   4.778  0.8688 -0.2651 -0.3228
  970SOL    HW1 3809   4.755   5.206   4.779  0.5876 -0.9463  0.7924
  970SOL    HW2 3810   4.599   5.178   4.741  0.5969 -0.3693  0.3250
  971SOL     OW 3811   4.803   2.944   3.565  0.0940 -0.5091 -0.3280
  971SOL    HW1 3812   4.801   2.845   3.550 -0.6113 -0.5667  0.1273
  971SOL    HW2 3813   4.770   2.965   3.656 -2.1633  0.3136 -1.2764
  972SOL     OW 3814   0.913   0.479   0.321 -0.1981 -0.2747 -0.4756
  972SOL    HW1 3815   0.900   0.530   0.406  0.5611 -1.6807  0.5341
  972SOL    HW2 3816   0.907   0.381   0.339 -2.0800 -0.5999 -2.4409
  973SOL     OW 3817   5.296   3.235   4.727 -0.3076 -0.2494  0.3489
  973SOL    HW1 3818   5.228   3.261   4.659 -1.8821 -1.4263  1.4000
  973SOL    HW2 3819   5.323   3.316   4.779  1.2805  0.7628 -1.8842
  974SOL     OW 3820   1.935   4.255   1.216 -0.0916  0.0444 -0.8080
  974SOL    HW1 3821   1.947   4.328   1.283  2.0667  0.3346 -1.4389
  974SOL    HW2 3822   1.966   4.287   1.126 -0.4228 -1.2086 -1.3928
  975SOL     OW 3823   4.284   6.866   1.509 -0.1462 -0.1715 -0.0064
  975SOL    HW1 3824   4.270   6.916   1.594  1.2248 -1.3029  0.9337
  975SOL    HW2 3825   4.200   6.818   1.484 -0.0423 -1.3860  1.7897
  976SOL     OW 3826   6.461   2.729   1.050 -0.2026  0.3566 -0.3373
  976SOL    HW1 3827   6.376   2.739   0.999 -1.1490 -1.2509  0.8338
  976SOL    HW2 3828   6.472   2.634   1.078  1.1971  0.8358  0.8774
  977SOL     OW 3829   6.319   1.401   2.432 -0.0692  0.7581 -0.2295
  977SOL    HW1 3830   6.386   1.348   2.484  1.4046  2.5105 -0.2403
  977SOL    HW2 3831   6.337   1.392   2.334 -0.0432  0.9941 -0.2469
  978SOL     OW 3832   1.583   7.001   2.621 -0.1384 -0.0728  0.5598
  978SOL    HW1 3833   1.556   6.934   2.690 -1.7840 -1.6421 -1.4747
  978SOL    HW2 3834   1.677   6.982   2.592 -0.8421 -2.1602 -0.5880
  979SOL     OW 3835   0.293   6.125   5.441 -0.4985  0.1093  0.1715
  979SOL    HW1 3836   0.329   6.034   5.464  1.0299  1.1232  2.0886
  979SOL    HW2 3837   0.369   6.188   5.427 -1.5439  1.4216  0.2173
  980SOL     OW 3838   4.825   1.168   4.378 -0.3564 -0.2940 -0.1280
  980SOL    HW1 3839   4.873   1.141   4.462  0.4958 -0.2539 -0.5853
  980SOL    HW2 3840   4.748   1.107   4.363 -1.6698  0.8310  1.6594
  981SOL     OW 3841   6.948   5.011   6.925 -0.2821  0.5049 -0.3579
  981SOL    HW1 3842   6.985   5.103   6.934 -0.8333  0.8163 -1.1056
  981SOL    HW2 3843   6.981   4.970   6.839  0.0240 -0.0262  0.0100
  982SOL     OW 3844   6.829   1.262   6.496 -0.3474 -0.6023 -0.2187
  982SOL    HW1 3845   6.871   1.297   6.412 -0.0440 -0.0717  0.1535
  982SOL    HW2 3846   6.896   1.263   6.570 -1.0480  0.4131  0.4212
  983SOL     OW 3847   0.333   5.728   2.497  0.3519 -0.0922  0.6869
  983SOL    HW1 3848   0.329   5.807   2.559 -2.0960  0.5140 -0.1588
  983SOL    HW2 3849   0.304   5.755   2.406 -3.2094 -2.4037  0.9340
  984SOL     OW 3850   0.881   3.772   4.734  0.3989  0.3373  0.1653
  984SOL    HW1 3851   0.878   3.675   4.707 -0.1614  0.8856 -1.9179
  984SOL    HW2 3852   0.872   3.779   4.833 -3.2459 -1.5977  0.1332
  985SOL     OW 3853   6.242   3.584   3.769 -0.0884 -0.0028  0.1929
  985SOL    HW1 3854   6.182   3.508   3.795 -0.1513  0.1206  0.4206
  985SOL    HW2 3855   6.269   3.575   3.674 -1.7153  0.7486 -0.3822
  986SOL     OW 3856   3.716   6.107   3.388  0.2957  0.4379 -0.4175
  986SOL    HW1 3857   3.681   6.015   3.370  1.5417 -0.0041 -0.7504
  986SOL    HW2 3858   3.793   6.101   3.452 -0.5889  1.4287  0.7925
  987SOL     OW 3859   5.009   5.531   6.536 -0.0656  0.5512 -0.7709
  987SOL    HW1 3860   5.054   5.445   6.510 -0.8343  0.0279 -0.4260
  987SOL    HW2 3861   4.927   5.510   6.590 -0.1230  1.5182 -0.4730
  988SOL     OW 3862   3.601   5.755   1.017 -0.3010  0.0617 -0.1901
  988SOL    HW1 3863   3.644   5.779   0.930  0.6461 -1.8912 -0.3263
  988SOL    HW2 3864   3.564   5.837   1.060 -1.5186  0.9719 -2.7848
  989SOL     OW 3865   1.320   0.464   0.527  0.3472 -0.0505  0.3230
  989SOL    HW1 3866   1.253   0.428   0.592  0.4567  1.0500  1.0694
  989SOL    HW2 3867   1.284   0.455   0.434 -0.0518 -1.1249  0.5681
  990SOL     OW 3868   4.122   0.251   2.642  0.1892  0.2690  0.0977
  990SOL    HW1 3869   4.066   0.293   2.571 -2.1180 -0.6306  1.2767
  990SOL    HW2 3870   4.137   0.316   2.716 -0.7529  0.0208  0.5236
  991SOL     OW 3871   0.920   0.042   4.615 -0.2041  0.4168  0.0357
  991SOL    HW1 3872   0.843   0.072   4.559  1.2818 -0.4032 -2.6751
  991SOL    HW2 3873   0.887   0.003   4.701 -2.6959  1.0436 -0.5665
  992SOL     OW 3874   5.579   3.006   1.703  0.4359  0.1770  0.3332
  992SOL    HW1 3875   5.578   2.908   1.688 -2.7737  0.3873 -1.4914
  992SOL    HW2 3876   5.509   3.030   1.771  0.9945  1.2487  0.5508
  993SOL     OW 3877   2.791   4.653   7.019  0.0754 -0.4866  0.2200
  993SOL    HW1 3878   2.786   4.709   7.101 -2.4088 -0.3226  0.0225
  993SOL    HW2 3879   2.773   4.557   7.043  0.1976 -0.5770 -0.0394
  994SOL     OW 3880   4.271   6.573   1.067 -0.3009 -0.1409  0.0701
  994SOL    HW1 3881   4.320   6.658   1.086 -0.6594 -0.3233  2.1097
  994SOL    HW2 3882   4.299   6.503   1.134 -2.4344 -0.5967  0.5586
  995SOL     OW 3883   6.019   4.250   3.582  0.6666  0.2018  0.1336
  995SOL    HW1 3884   6.118   4.252   3.598  1.0458 -0.6375 -1.9325
  995SOL    HW2 3885   5.999   4.280   3.489 -1.0429  0.2874  0.4907
  996SOL     OW 3886   3.089   6.653   6.027 -0.1487 -0.3063 -0.5151
  996SOL    HW1 3887   3.053   6.675   5.936 -1.5805  2.5401  0.6116
  996SOL    HW2 3888   3.091   6.736   6.083  2.7745 -1.5118  1.4270
  997SOL     OW 3889   0.832   5.561   4.462 -0.1328 -0.0684 -0.0809
  997SOL    HW1 3890   0.798   5.469   4.483 -1.4146 -0.3765 -2.9256
  997SOL    HW2 3891   0.918   5.554   4.411  0.1048  0.3459  0.2610
  998SOL     OW 3892   6.265   0.073   0.720 -0.3092  0.6883  0.4739
  998SOL    HW1 3893   6.295   0.095   0.627  0.4489 -0.1741  0.4991
  998SOL    HW2 3894   6.179   0.023   0.716 -0.5807  1.1631  0.2747
  999SOL     OW 3895   6.140   4.446   0.722 -0.4103  0.2976 -0.1005
  999SOL    HW1 3896   6.177   4.450   0.629 -0.6934  0.8053 -0.1986
  999SOL    HW2 3897   6.070   4.375   0.727 -0.4944  0.3645 -0.3141
 1000SOL     OW 3898   0.618   0.656   0.491 -0.4090 -0.2615 -0.2036
 1000SOL    HW1 3899   0.690   0.631   0.556  0.0433  3.5964  0.9795
 1000SOL    HW2 3900   0.661   0.684   0.404 -0.4711  1.2022  0.2126
 1001SOL     OW 3901   2.317   6.821   3.240  0.6414  0.1208  0.4219
 1001SOL    HW1 3902   2.253   6.775   3.302  1.1398 -0.2521  0.6716
 1001SOL    HW2 3903   2.278   6.909   3.212 -1.1265 -1.1885 -1.4895
 1002SOL     OW 3904   5.745   2.856   2.388 -0.2082 -1.1862  0.3334
 1002SOL    HW1 3905   5.787   2.799   2.458  0.2341  0.8432  1.8081
 1002SOL    HW2 3906   5.812   2.923   2.356 -1.2554 -0.2527  0.0537
 1003SOL     OW 3907   0.864   1.893   3.717 -0.6648 -0.2374 -0.1130
 1003SOL    HW1 3908   0.955   1.852   3.721 -0.8571 -0.5860  2.9920
 1003SOL    HW2 3909   0.803   1.833   3.664  0.4863 -0.8757 -0.7578
 1004SOL     OW 3910   4.191   1.091   4.425  0.0233 -0.0855 -0.7869
 1004SOL    HW1 3911   4.264   1.153   4.395  0.8271  0.0541  1.2833
 1004SOL    HW2 3912   4.229   1.000   4.441  0.1087  0.3133  1.6180
 1005SOL     OW 3913   6.675   0.481   1.357 -0.2424  0.4568  0.0410
 1005SOL    HW1 3914   6.765   0.439   1.354 -0.1207  0.5870  1.2165
 1005SOL    HW2 3915   6.663   0.541   1.278 -0.2126 -1.3125 -1.3646
 1006SOL     OW 3916   3.266   5.057   0.289  1.2764  0.4272  0.1867
 1006SOL    HW1 3917   3.228   5.071   0.380  0.1253  1.5877 -0.4503
 1006SOL    HW2 3918   3.362   5.087   0.288  1.1969  0.7184  0.9345
 1007SOL     OW 3919   0.409   1.023   0.230  0.1307 -0.5557  0.2879
 1007SOL    HW1 3920   0.356   0.941   0.208  1.3403 -1.5239  0.8212
 1007SOL    HW2 3921   0.437   1.068   0.145 -1.2370 -0.1979 -0.0008
 1008SOL     OW 3922   0.204   1.644   3.939  0.1049  0.3704 -0.9132
 1008SOL    HW1 3923   0.109   1.621   3.963 -0.7686  1.9195 -2.5861
 1008SOL    HW2 3924   0.249   1.564   3.901 -0.5099 -0.4086 -0.0390
 1009SOL     OW 3925   0.294   4.834   6.941 -0.3903  0.3825 -0.5432
 1009SOL    HW1 3926   0.380   4.806   6.984 -0.3817  2.3025  0.8291
 1009SOL    HW2 3927   0.225   4.763   6.955  0.4752 -0.3836 -0.0728
 1010SOL     OW 3928   3.344   3.899   0.243  0.5700  0.1799 -0.0227
 1010SOL    HW1 3929   3.427   3.921   0.295  1.1795  0.0696 -0.9399
 1010SOL    HW2 3930   3.318   3.804   0.260  0.9916  0.0273 -0.2331
 1011SOL     OW 3931   5.941   6.284   1.402 -0.2255  0.5706  0.0998
 1011SOL    HW1 3932   6.034   6.301   1.370 -0.8947  3.0665 -0.7295
 1011SOL    HW2 3933   5.943   6.260   1.499  1.3051 -0.0949 -0.0678
 1012SOL     OW 3934   5.436   5.248   3.306 -0.3626 -0.6037  0.1052
 1012SOL    HW1 3935   5.361   5.237   3.372  0.0111  1.0934  0.8716
 1012SOL    HW2 3936   5.522   5.218   3.347 -0.1007  0.6178  0.4918
 1013SOL     OW 3937   0.752   0.355   5.923 -0.2208  0.4044  0.2426
 1013SOL    HW1 3938   0.801   0.269   5.910 -1.2025  0.0508 -1.4153
 1013SOL    HW2 3939   0.727   0.365   6.019 -0.5873 -1.4605  0.3810
 1014SOL     OW 3940   0.847   4.067   5.338  0.8199 -0.1310 -0.3175
 1014SOL    HW1 3941   0.881   4.142   5.282  0.5042 -0.3482 -0.8078
 1014SOL    HW2 3942   0.899   3.984   5.319  2.0945  0.2614  1.2275
 1015SOL     OW 3943   3.482   4.341   5.534 -0.0909  0.3917  0.4114
 1015SOL    HW1 3944   3.434   4.300   5.457 -0.0193  0.7567  0.1659
 1015SOL    HW2 3945   3.417   4.394   5.589 -0.1951 -0.0959  0.7622
 1016SOL     OW 3946   0.296   4.997   1.359  0.4241  0.3458  0.3619
 1016SOL    HW1 3947   0.336   4.992   1.267 -0.0670 -0.6551  0.1865
 1016SOL    HW2 3948   0.244   5.082   1.368  1.8634  1.2655  0.3114
 1017SOL     OW 3949   6.251   3.207   1.703 -0.3295 -0.8419  0.0152
 1017SOL    HW1 3950   6.177   3.241   1.646  0.5938  0.2435 -0.5896
 1017SOL    HW2 3951   6.214   3.170   1.788 -1.5717 -0.6174 -0.4100
 1018SOL     OW 3952   5.942   1.918   5.959 -0.4910  0.1132 -0.1173
 1018SOL    HW1 3953   5.927   1.907   5.861  0.9858 -0.6972 -0.2901
 1018SOL    HW2 3954   6.039   1.940   5.975 -1.0222  1.8171  1.0677
 1019SOL     OW 3955   6.569   3.836   1.990  0.4553  0.2763  0.0634
 1019SOL    HW1 3956   6.525   3.838   2.080  2.2986  1.4611  1.0235
 1019SOL    HW2 3957   6.592   3.930   1.963  2.4783 -0.2702 -0.2790
 1020SOL     OW 3958   2.481   1.128   3.818 -0.1645  0.1161 -0.3636
 1020SOL    HW1 3959   2.496   1.118   3.720  1.6345  0.7857 -0.1933
 1020SOL    HW2 3960   2.505   1.043   3.865 -0.7135 -0.0955 -0.4540
 1021SOL     OW 3961   0.257   6.409   0.847 -0.9629  0.1666  0.5094
 1021SOL    HW1 3962   0.243   6.506   0.866 -0.5537  0.3160  0.0646
 1021SOL    HW2 3963   0.300   6.366   0.926 -1.7987  0.1857  0.9909
 1022SOL     OW 3964   2.567   4.922   4.484  0.6656 -0.3921  0.5151
 1022SOL    HW1 3965   2.654   4.942   4.529  0.3956  2.4914 -0.0940
 1022SOL    HW2 3966   2.547   4.993   4.417 -2.6562 -0.3990  1.3437
 1023SOL     OW 3967   1.705   2.020   2.300  0.9786  0.0005 -0.3387
 1023SOL    HW1 3968   1.674   1.928   2.324  0.0735  0.4082  0.1059
 1023SOL    HW2 3969   1.798   2.033   2.333  0.2180  0.1150  1.9631
 1024SOL     OW 3970   1.437   1.942   5.870 -0.2260  0.4510 -0.2747
 1024SOL    HW1 3971   1.487   1.981   5.792  0.2150 -1.0924 -0.8208
 1024SOL    HW2 3972   1.369   1.877   5.836 -1.1454  0.9565  0.5718
 1025SOL     OW 3973   2.928   5.573   1.793 -0.1177  0.2937 -0.1785
 1025SOL    HW1 3974   2.947   5.483   1.832 -0.1188  1.3264  2.4333
 1025SOL    HW2 3975   2.830   5.582   1.775 -0.5334  0.5448  1.9077
 1026SOL     OW 3976   4.141   3.667   1.183 -0.0196 -0.3305  0.3950
 1026SOL    HW1 3977   4.234   3.640   1.205 -0.2177 -1.9962 -0.6652
 1026SOL    HW2 3978   4.080   3.642   1.259 -0.1225 -2.5698 -0.3596
 1027SOL     OW 3979   5.910   0.618   2.025  0.0952 -0.4031  0.3814
 1027SOL    HW1 3980   5.922   0.619   1.925  0.1343  0.6961  0.3889
 1027SOL    HW2 3981   5.816   0.596   2.047 -0.2783  0.7806  0.0466
 1028SOL     OW 3982   6.925   0.719   2.148 -0.2148 -0.6767  0.0860
 1028SOL    HW1 3983   6.850   0.774   2.112 -1.2337 -0.2932  2.5741
 1028SOL    HW2 3984   6.910   0.623   2.126 -0.6837 -0.4461 -0.6179
 1029SOL     OW 3985   0.154   6.745   5.891  0.1409 -1.1945 -0.0227
 1029SOL    HW1 3986   0.072   6.700   5.854 -0.3808  0.7899 -1.4638
 1029SOL    HW2 3987   0.144   6.844   5.883  3.1538 -0.8771 -1.3534
 1030SOL     OW 3988   4.515   4.868   0.490 -0.4046 -0.5626 -0.1070
 1030SOL    HW1 3989   4.580   4.938   0.459 -0.9212  0.0839  0.2495
 1030SOL    HW2 3990   4.564   4.800   0.545  0.4739 -1.5636 -2.0184
 1031SOL     OW 3991   3.511   2.861   0.107  0.1475  0.4123  0.2601
 1031SOL    HW1 3992   3.418   2.841   0.139  0.0140  0.7315  0.0725
 1031SOL    HW2 3993   3.550   2.934   0.162  0.3606  0.1481  0.4624
 1032SOL     OW 3994   0.974   1.532   1.378 -0.0579 -0.6328 -0.5705
 1032SOL    HW1 3995   1.019   1.443   1.375  0.5442 -0.6251  3.3175
 1032SOL    HW2 3996   0.875   1.520   1.365  0.0487 -1.8194 -0.3794
 1033SOL     OW 3997   5.982   0.391   1.805 -0.2787 -0.4189 -0.3686
 1033SOL    HW1 3998   5.935   0.471   1.769  0.4685  0.3330  0.2906
 1033SOL    HW2 3999   6.048   0.358   1.738  1.0037  0.8889  0.2151
 1034SOL     OW 4000   1.240   6.941   4.578  0.8689  0.4289  0.4717
 1034SOL    HW1 4001   1.274   6.893   4.497  0.2378  1.3135 -0.3281
 1034SOL    HW2 4002   1.157   6.896   4.611  0.2215  1.0081 -0.3351
 1035SOL     OW 4003   2.640   6.607   6.907  0.1196 -0.8514  0.6481
 1035SOL    HW1 4004   2.572   6.550   6.861  1.3451 -2.3090  0.5672
 1035SOL    HW2 4005   2.625   6.604   7.006 -0.9244  0.1968  0.5488
 1036SOL     OW 4006   5.244   1.219   2.251 -0.0410  0.6606  0.8512
 1036SOL    HW1 4007   5.280   1.312   2.253  1.8069  0.0393 -0.6878
 1036SOL    HW2 4008   5.308   1.157   2.295  0.1110 -0.2592 -0.5883
 1037SOL     OW 4009   2.221   4.736   4.878  0.4880 -0.2341  0.1966
 1037SOL    HW1 4010   2.188   4.644   4.859 -0.0750  0.1655 -0.8404
 1037SOL    HW2 4011   2.289   4.733   4.952  0.0553 -1.3956  0.5644
 1038SOL     OW 4012   0.764   5.407   6.101 -0.5881 -0.5317  0.2711
 1038SOL    HW1 4013   0.785   5.335   6.166  0.6553  0.0732  0.5603
 1038SOL    HW2 4014   0.845   5.462   6.083 -1.8908  1.9918  1.5089
 1039SOL     OW 4015   3.101   3.957   2.993 -0.4630  0.4330  0.4338
 1039SOL    HW1 4016   3.129   3.988   2.902  0.0750 -0.1789  0.3870
 1039SOL    HW2 4017   3.031   3.886   2.984  2.0353 -2.1945  0.3275
 1040SOL     OW 4018   5.975   2.627   3.419 -0.2918 -0.2078  0.0237
 1040SOL    HW1 4019   6.023   2.593   3.339  0.1601  0.1147  0.1498
 1040SOL    HW2 4020   5.982   2.727   3.422 -0.7444 -0.1798  0.1881
 1041SOL     OW 4021   6.713   6.192   6.773 -0.5241 -0.5346  0.0833
 1041SOL    HW1 4022   6.756   6.163   6.688 -1.1966  2.1678 -1.2897
 1041SOL    HW2 4023   6.781   6.237   6.831 -0.3134 -1.3612  0.4895
 1042SOL     OW 4024   4.972   3.886   4.429  0.5797 -0.2522 -0.5739
 1042SOL    HW1 4025   4.968   3.786   4.419  1.1944 -0.1981 -1.4140
 1042SOL    HW2 4026   4.977   3.929   4.338 -1.6599  0.6475 -0.3358
 1043SOL     OW 4027   6.986   2.733   5.518 -0.1155  0.3206  0.4202
 1043SOL    HW1 4028   7.077   2.763   5.489 -0.1692 -0.4470 -0.6224
 1043SOL    HW2 4029   6.955   2.789   5.594  1.6373 -0.0320  1.4488
 1044SOL     OW 4030   6.465   4.405   1.614 -0.0022 -0.6773 -0.0725
 1044SOL    HW1 4031   6.538   4.452   1.662  0.4457 -1.2500 -0.1825
 1044SOL    HW2 4032   6.449   4.316   1.657 -1.8079  0.1167  1.0362
 1045SOL     OW 4033   0.742   0.326   2.336  0.3149  0.3411  0.2025
 1045SOL    HW1 4034   0.719   0.418   2.367  1.8517  0.8220 -0.0347
 1045SOL    HW2 4035   0.804   0.283   2.402 -0.3412 -0.5281  0.2852
 1046SOL     OW 4036   3.444   1.495   0.162 -0.4654 -0.5660  0.3760
 1046SOL    HW1 4037   3.488   1.564   0.220 -2.5784  2.5228 -1.4136
 1046SOL    HW2 4038   3.357   1.468   0.202 -0.5837 -0.6416  0.0714
 1047SOL     OW 4039   4.059   0.296   2.369 -0.0982 -0.2680  0.0071
 1047SOL    HW1 4040   4.104   0.214   2.405 -1.7992 -1.2518  0.0045
 1047SOL    HW2 4041   4.109   0.330   2.290 -0.1571 -2.1958 -0.9068
 1048SOL     OW 4042   0.291   0.260   2.581 -0.3889 -0.5229 -0.3356
 1048SOL    HW1 4043   0.366   0.199   2.557 -0.4047  0.0462 -1.9454
 1048SOL    HW2 4044   0.323   0.355   2.580 -1.0509 -0.2974 -0.7463
 1049SOL     OW 4045   3.664   6.815   6.575  0.0161 -0.6812  0.0323
 1049SOL    HW1 4046   3.687   6.742   6.511 -1.3227 -0.0135 -1.2840
 1049SOL    HW2 4047   3.576   6.796   6.618 -0.5257  0.2789 -0.5935
 1050SOL     OW 4048   1.442   0.989   4.854  0.4809 -0.1174 -0.3059
 1050SOL    HW1 4049   1.451   0.899   4.811 -0.2274 -0.6460  0.6079
 1050SOL    HW2 4050   1.363   1.036   4.815 -0.4228 -0.7731  0.6741
 1051SOL     OW 4051   1.609   1.261   6.890 -0.2033  0.1772  0.4306
 1051SOL    HW1 4052   1.630   1.316   6.809 -0.8184 -0.7036 -0.3350
 1051SOL    HW2 4053   1.518   1.222   6.881  0.1015 -0.7079  1.1176
 1052SOL     OW 4054   4.518   1.886   4.545  0.3251 -0.0102 -0.2467
 1052SOL    HW1 4055   4.601   1.938   4.567  0.3038  0.1527 -0.5561
 1052SOL    HW2 4056   4.534   1.789   4.565  0.3373  0.1184  0.4146
 1053SOL     OW 4057   4.848   1.832   5.225  0.1816  0.0170  0.1320
 1053SOL    HW1 4058   4.869   1.869   5.316  1.5980  0.7354 -0.4437
 1053SOL    HW2 4059   4.760   1.869   5.194 -0.0184  0.2600  0.9533
 1054SOL     OW 4060   5.199   6.247   6.146  0.1996  0.0173  0.4065
 1054SOL    HW1 4061   5.253   6.325   6.179  1.1077 -0.6197  0.4513
 1054SOL    HW2 4062   5.258   6.186   6.094 -0.5245 -0.6211  0.3235
 1055SOL     OW 4063   5.571   5.020   4.942  0.1446 -0.2254  0.1015
 1055SOL    HW1 4064   5.472   5.031   4.956  0.1786  1.2764 -0.6973
 1055SOL    HW2 4065   5.588   4.931   4.900 -0.6295 -1.5045  2.3038
 1056SOL     OW 4066   1.492   3.851   1.507 -0.1533 -0.9312  0.4145
 1056SOL    HW1 4067   1.521   3.757   1.525 -1.2212 -1.2034  0.7906
 1056SOL    HW2 4068   1.517   3.909   1.585  1.3549 -0.6776 -0.2123
 1057SOL     OW 4069   3.167   4.427   5.902  0.1497  0.3093  0.5839
 1057SOL    HW1 4070   3.185   4.510   5.850 -0.6448 -1.2150 -2.3652
 1057SOL    HW2 4071   3.069   4.406   5.899  0.4187 -1.0804  0.6359
 1058SOL     OW 4072   2.487   1.242   3.338  0.0826  0.3404  0.0705
 1058SOL    HW1 4073   2.577   1.271   3.306  0.9450 -1.0575  1.1318
 1058SOL    HW2 4074   2.417   1.276   3.275  1.3394  1.3932 -0.8113
 1059SOL     OW 4075   0.923   6.153   2.686 -0.1058 -0.5441  0.4968
 1059SOL    HW1 4076   0.842   6.130   2.633  1.7434 -1.9135 -1.9561
 1059SOL    HW2 4077   0.952   6.074   2.740  0.7551 -0.8083 -0.3187
 1060SOL     OW 4078   0.603   1.962   1.498  0.1193  0.6979 -0.7258
 1060SOL    HW1 4079   0.567   1.890   1.558  1.3360  1.5735  1.1735
 1060SOL    HW2 4080   0.531   2.030   1.480  0.0735  1.1508  0.9703
 1061SOL     OW 4081   0.365   3.973   5.320 -0.2489 -0.2296 -0.5945
 1061SOL    HW1 4082   0.309   4.019   5.389  0.6794  1.0665 -0.6595
 1061SOL    HW2 4083   0.406   4.042   5.260  2.1840 -1.0222  0.0516
 1062SOL     OW 4084   3.799   6.801   5.369 -0.7779  0.3252  0.0855
 1062SOL    HW1 4085   3.881   6.784   5.423 -0.8255 -1.2074 -0.2781
 1062SOL    HW2 4086   3.754   6.884   5.401  1.9014  2.3161 -0.9182
 1063SOL     OW 4087   1.919   4.568   3.732 -0.0937  0.1011 -0.1475
 1063SOL    HW1 4088   1.938   4.491   3.794 -0.6855 -1.7798 -2.1717
 1063SOL    HW2 4089   2.006   4.602   3.696  0.0961 -1.0613 -0.8500
 1064SOL     OW 4090   0.702   3.134   6.342 -0.4941  0.6700  0.0822
 1064SOL    HW1 4091   0.611   3.128   6.301 -0.5274 -0.9762  0.3082
 1064SOL    HW2 4092   0.706   3.211   6.405 -2.1584 -0.0156  1.0749
 1065SOL     OW 4093   4.010   1.152   5.524 -0.2525 -0.1025 -0.3833
 1065SOL    HW1 4094   4.019   1.248   5.551 -0.5022 -0.3515  0.6598
 1065SOL    HW2 4095   3.972   1.100   5.601  0.6984 -1.1953 -0.6219
 1066SOL     OW 4096   2.596   6.585   2.343  0.4208  0.0950  0.0964
 1066SOL    HW1 4097   2.624   6.601   2.438  1.0154 -3.0693  0.5899
 1066SOL    HW2 4098   2.506   6.540   2.342  0.0121  0.9056 -0.9057
 1067SOL     OW 4099   3.847   2.028   2.136  0.0473 -0.6967 -0.2086
 1067SOL    HW1 4100   3.777   2.093   2.107 -0.0551  0.0796  1.6148
 1067SOL    HW2 4101   3.937   2.071   2.130  0.1884 -1.0666 -0.8253
 1068SOL     OW 4102   5.416   2.443   4.613 -0.2671 -0.9237 -0.2875
 1068SOL    HW1 4103   5.477   2.468   4.688  0.0075 -0.3777 -0.6821
 1068SOL    HW2 4104   5.457   2.369   4.559  0.1410 -0.4478 -0.6500
 1069SOL     OW 4105   6.761   2.427   2.907 -0.0927 -0.6154  0.0769
 1069SOL    HW1 4106   6.746   2.334   2.939 -3.1714 -0.7770 -1.5030
 1069SOL    HW2 4107   6.750   2.491   2.983 -1.0816 -1.3687  0.5845
 1070SOL     OW 4108   2.639   6.815   0.782  0.8291 -0.4775  0.5633
 1070SOL    HW1 4109   2.668   6.886   0.717  0.5683 -0.2473  0.6951
 1070SOL    HW2 4110   2.646   6.851   0.875 -1.9580  0.4066  0.5369
 1071SOL     OW 4111   2.994   4.410   6.185 -0.2614 -0.0932 -0.2879
 1071SOL    HW1 4112   2.913   4.459   6.217 -1.1732 -2.0079  0.5670
 1071SOL    HW2 4113   3.050   4.384   6.264  0.8174  0.5669 -0.8163
 1072SOL     OW 4114   1.672   1.736   2.312 -0.0327  0.1683  0.0874
 1072SOL    HW1 4115   1.743   1.666   2.321 -0.3440 -0.2442 -0.6431
 1072SOL    HW2 4116   1.636   1.736   2.219  0.1158  1.4580  0.0146
 1073SOL     OW 4117   5.238   2.794   1.735  0.4256 -0.0084  0.0875
 1073SOL    HW1 4118   5.277   2.761   1.821 -0.1115 -0.2223  0.2568
 1073SOL    HW2 4119   5.305   2.851   1.687  0.4161  0.9093  1.1072
 1074SOL     OW 4120   4.545   6.702   1.484 -0.3046  0.0771  0.7156
 1074SOL    HW1 4121   4.559   6.635   1.412 -0.7288  0.0583  0.6503
 1074SOL    HW2 4122   4.501   6.659   1.563 -2.7235  0.7485 -0.1997
 1075SOL     OW 4123   0.151   2.554   4.564 -0.4015 -0.0517 -0.4933
 1075SOL    HW1 4124   0.153   2.617   4.641 -0.2479  2.6840 -2.5430
 1075SOL    HW2 4125   0.241   2.512   4.552  0.1837  1.1454 -0.3924
 1076SOL     OW 4126   4.180   4.627   0.688 -0.3985 -0.3882  0.7434
 1076SOL    HW1 4127   4.232   4.667   0.613  0.5928 -2.4608  0.2528
 1076SOL    HW2 4128   4.098   4.582   0.652  1.2055 -3.3202  0.4957
 1077SOL     OW 4129   6.550   0.267   0.579  0.0672  0.5136 -0.3543
 1077SOL    HW1 4130   6.596   0.294   0.664 -0.5790  1.4910 -0.3082
 1077SOL    HW2 4131   6.596   0.187   0.541  0.8912  0.5776  0.4714
 1078SOL     OW 4132   7.021   5.110   2.536 -0.4528  0.2648 -0.4133
 1078SOL    HW1 4133   6.945   5.172   2.515 -0.0867  0.4498 -1.2709
 1078SOL    HW2 4134   7.107   5.162   2.535 -0.3102  0.0681  0.6039
 1079SOL     OW 4135   6.165   6.156   1.871  0.0706  0.0642  0.0133
 1079SOL    HW1 4136   6.096   6.174   1.800  1.8400  0.9528 -1.5626
 1079SOL    HW2 4137   6.209   6.068   1.854  1.1386  0.6900 -0.5933
 1080SOL     OW 4138   0.789   0.390   1.165 -0.3930  0.1892  0.2825
 1080SOL    HW1 4139   0.818   0.475   1.121  0.9533 -0.1060  0.5640
 1080SOL    HW2 4140   0.709   0.408   1.223 -1.6951  0.7469 -1.5808
 1081SOL     OW 4141   6.367   6.441   4.263 -0.2344 -0.0580  0.1639
 1081SOL    HW1 4142   6.324   6.367   4.211 -2.4335  0.4328  1.2068
 1081SOL    HW2 4143   6.380   6.412   4.358  1.5842 -0.0875 -0.0438
 1082SOL     OW 4144   3.726   5.872   2.033  0.0705 -0.3344  0.0962
 1082SOL    HW1 4145   3.760   5.836   1.945  0.5677 -0.5785  0.3838
 1082SOL    HW2 4146   3.671   5.954   2.016  0.7487  0.0339 -0.3899
 1083SOL     OW 4147   6.463   3.342   0.092  0.7750 -0.6486  0.1421
 1083SOL    HW1 4148   6.366   3.316   0.097  0.3856  0.9146  1.4833
 1083SOL    HW2 4149   6.488   3.359  -0.004 -0.3972 -0.6343 -0.1753
 1084SOL     OW 4150   2.642   0.221   3.517 -0.0424  0.0699 -0.0348
 1084SOL    HW1 4151   2.560   0.165   3.501 -0.2000  0.2388  0.1852
 1084SOL    HW2 4152   2.719   0.181   3.467 -0.2092 -0.2101 -0.0711
 1085SOL     OW 4153   2.189   2.350   5.879 -0.1601 -0.2955  0.2706
 1085SOL    HW1 4154   2.096   2.322   5.855 -0.0870 -0.8557  0.6292
 1085SOL    HW2 4155   2.205   2.444   5.847 -0.5175 -0.5372 -0.6552
 1086SOL     OW 4156   4.052   5.822   2.835  0.3807 -0.5861 -0.3256
 1086SOL    HW1 4157   4.022   5.751   2.900  0.1782 -0.9805 -0.8460
 1086SOL    HW2 4158   4.074   5.906   2.886  0.8369 -1.0853  0.3212
 1087SOL     OW 4159   3.733   1.099   0.985 -0.0988  0.6663 -0.5348
 1087SOL    HW1 4160   3.787   1.076   0.905  0.3208 -1.5632  0.3131
 1087SOL    HW2 4161   3.794   1.117   1.062 -0.4594 -1.3766  0.3029
 1088SOL     OW 4162   6.091   5.824   4.955 -0.3598 -0.1782  0.1516
 1088SOL    HW1 4163   6.139   5.906   4.924  0.1445 -0.4829  0.1323
 1088SOL    HW2 4164   6.003   5.817   4.906  0.8556 -1.1955 -2.0352
 1089SOL     OW 4165   5.969   4.498   3.265 -0.3273  0.0472  0.3325
 1089SOL    HW1 4166   5.888   4.440   3.274 -0.4145 -0.0813 -0.9882
 1089SOL    HW2 4167   6.045   4.457   3.313  0.0862 -2.1534 -1.9724
 1090SOL     OW 4168   4.679   1.375   4.181 -0.0009  0.1328 -0.4289
 1090SOL    HW1 4169   4.715   1.468   4.176  0.8117 -0.1657 -0.2487
 1090SOL    HW2 4170   4.715   1.330   4.262  1.0468 -0.9367 -1.4585
 1091SOL     OW 4171   0.689   3.055   4.787 -0.0104 -0.5798  0.6392
 1091SOL    HW1 4172   0.590   3.066   4.789  0.1593  1.4268  0.0953
 1091SOL    HW2 4173   0.732   3.122   4.848  0.9784 -3.0808  2.9108
 1092SOL     OW 4174   0.125   0.238   0.867  0.4489 -0.2604 -0.3192
 1092SOL    HW1 4175   0.213   0.283   0.882 -0.1740  1.3841 -1.3419
 1092SOL    HW2 4176   0.053   0.307   0.857 -1.4694 -1.5564  2.9833
 1093SOL     OW 4177   1.758   5.509   4.205 -0.0819  0.1931  0.0825
 1093SOL    HW1 4178   1.813   5.458   4.271  0.2467 -0.7863 -0.9205
 1093SOL    HW2 4179   1.666   5.470   4.201  0.4335 -0.9599 -1.3454
 1094SOL     OW 4180   0.064   6.134   3.444  0.2069  0.1572 -0.5396
 1094SOL    HW1 4181   0.051   6.208   3.377  2.3583  1.3921  0.3157
 1094SOL    HW2 4182  -0.023   6.087   3.459 -1.1595  2.2789 -1.3974
 1095SOL     OW 4183   1.550   5.238   0.459  0.0812 -0.4534  0.1727
 1095SOL    HW1 4184   1.603   5.164   0.415  1.2435  0.2064  0.4205
 1095SOL    HW2 4185   1.518   5.206   0.548 -0.4856 -1.0748 -0.2394
 1096SOL     OW 4186   1.920   6.278   3.441  0.2038 -0.0448 -0.4999
 1096SOL    HW1 4187   1.892   6.344   3.511  0.1237 -1.5878  0.9602
 1096SOL    HW2 4188   2.019   6.272   3.439  0.1731 -1.0530  0.5075
 1097SOL     OW 4189   3.379   5.036   4.872  0.4640  0.1009 -0.7096
 1097SOL    HW1 4190   3.435   4.977   4.931  0.3270  0.7864  0.1385
 1097SOL    HW2 4191   3.293   4.989   4.850  0.1494  0.1454  0.3449
 1098SOL     OW 4192   6.721   5.060   6.694 -0.7132  0.0526  0.3580
 1098SOL    HW1 4193   6.697   5.007   6.613 -1.5137 -0.1214  0.6885
 1098SOL    HW2 4194   6.810   5.031   6.728 -0.6436 -0.2948 -0.1122
 1099SOL     OW 4195   5.607   6.687   0.622  0.0809 -0.1095  0.0633
 1099SOL    HW1 4196   5.520   6.639   0.631  0.4026 -0.6529  0.4086
 1099SOL    HW2 4197   5.663   6.641   0.553  0.5414 -0.4769  0.6651
 1100SOL     OW 4198   3.899   0.270   3.481 -0.3813  0.2569  0.3387
 1100SOL    HW1 4199   3.980   0.213   3.467 -1.4898 -1.1507 -0.6038
 1100SOL    HW2 4200   3.844   0.272   3.397 -1.5877  0.7482  1.1119
 1101SOL     OW 4201   3.801   2.333   0.164 -0.3031  0.5663  0.1164
 1101SOL    HW1 4202   3.855   2.387   0.230 -0.8866  0.3374  0.7939
 1101SOL    HW2 4203   3.706   2.363   0.167 -0.3753  0.4046 -0.4804
 1102SOL     OW 4204   3.175   2.109   4.293 -0.0768  0.2123  0.2923
 1102SOL    HW1 4205   3.229   2.088   4.212  0.0420 -2.5675  0.9761
 1102SOL    HW2 4206   3.086   2.146   4.266  0.2648  0.0807 -1.0777
 1103SOL     OW 4207   2.645   4.580   1.410  0.4971  0.5977 -0.0794
 1103SOL    HW1 4208   2.585   4.514   1.364 -1.3204  2.3775 -0.4238
 1103SOL    HW2 4209   2.676   4.543   1.497 -0.7657 -0.5688 -0.0994
 1104SOL     OW 4210   0.129   6.554   5.170 -0.1021  0.0486  0.1189
 1104SOL    HW1 4211   0.078   6.631   5.133 -0.2789  0.1220  0.5165
 1104SOL    HW2 4212   0.080   6.515   5.248 -1.2029 -1.9270 -1.4651
 1105SOL     OW 4213   4.402   0.256   5.424  0.2017  0.0422 -0.3198
 1105SOL    HW1 4214   4.309   0.231   5.395 -0.0663 -1.0402  1.3445
 1105SOL    HW2 4215   4.467   0.235   5.352 -0.8411  0.9516 -1.5753
 1106SOL     OW 4216   5.222   1.909   1.824  0.0569 -0.6721  0.8548
 1106SOL    HW1 4217   5.135   1.883   1.867  0.4905  1.4777  3.2929
 1106SOL    HW2 4218   5.297   1.864   1.873  0.4529 -0.2452  0.6432
 1107SOL     OW 4219   5.551   3.423   5.962 -0.3658 -0.4091  0.3771
 1107SOL    HW1 4220   5.639   3.376   5.957  1.3161  2.3795  1.4771
 1107SOL    HW2 4221   5.511   3.411   6.052  0.3742  0.6791  0.8737
 1108SOL     OW 4222   1.974   2.228   2.550  0.1065  0.2622  0.2908
 1108SOL    HW1 4223   1.952   2.171   2.470  0.9138 -0.7275  0.7546
 1108SOL    HW2 4224   2.067   2.209   2.580 -0.0279  0.9659  1.1953
 1109SOL     OW 4225   0.785   1.337   6.449  0.3603 -0.2910  0.2140
 1109SOL    HW1 4226   0.840   1.365   6.371 -0.1324  1.7703  0.5527
 1109SOL    HW2 4227   0.709   1.279   6.417  1.5723 -1.5562 -0.4777
 1110SOL     OW 4228   2.999   6.165   1.238 -0.4920  0.4046  0.3637
 1110SOL    HW1 4229   2.904   6.146   1.211  0.0693 -0.7022 -0.9360
 1110SOL    HW2 4230   3.042   6.224   1.169  0.0659  0.0627  0.4168
 1111SOL     OW 4231   5.697   4.452   6.106 -0.3555 -0.2346 -0.5188
 1111SOL    HW1 4232   5.747   4.398   6.173 -0.4365 -0.0500 -0.3120
 1111SOL    HW2 4233   5.600   4.455   6.131 -0.0593  1.6771  0.5801
 1112SOL     OW 4234   4.581   2.216   2.425  0.0636  0.1452 -0.2031
 1112SOL    HW1 4235   4.570   2.270   2.342  1.0156  1.1733  0.3058
 1112SOL    HW2 4236   4.517   2.248   2.495  1.0634  1.1003  0.3115
 1113SOL     OW 4237   1.707   2.206   1.703  0.1665 -0.0322  0.3140
 1113SOL    HW1 4238   1.715   2.227   1.801  2.1222 -1.9334  0.6509
 1113SOL    HW2 4239   1.638   2.135   1.690 -0.5483  0.6713  0.2158
 1114SOL     OW 4240   3.269   3.020   2.996  0.2839  0.8387  0.4253
 1114SOL    HW1 4241   3.334   3.091   3.022 -1.1958  1.0700  4.1369
 1114SOL    HW2 4242   3.176   3.050   3.019 -1.0218 -0.3432 -2.6984
 1115SOL     OW 4243   4.174   4.531   5.925  0.0871 -0.0828  0.5242
 1115SOL    HW1 4244   4.101   4.588   5.961  0.4334 -0.1883  1.4296
 1115SOL    HW2 4245   4.259   4.551   5.973 -0.1050 -2.4368  1.9913
 1116SOL     OW 4246   3.487   6.914   6.953  0.7480 -0.7190  0.0220
 1116SOL    HW1 4247   3.461   6.908   7.050  4.5515 -0.8667  1.2072
 1116SOL    HW2 4248   3.484   7.009   6.923  0.2657 -0.5710  0.5304
 1117SOL     OW 4249   1.315   1.681   1.110  0.2443 -0.8801 -0.4529
 1117SOL    HW1 4250   1.218   1.660   1.108  0.3863 -1.8721  1.0388
 1117SOL    HW2 4251   1.332   1.754   1.176  0.4958 -0.5335 -0.8936
 1118SOL     OW 4252   5.824   5.219   0.582  1.0727  0.4501 -0.3964
 1118SOL    HW1 4253   5.799   5.309   0.545  0.3289  0.3440 -0.1655
 1118SOL    HW2 4254   5.797   5.148   0.518  1.8233  0.3901 -0.6603
 1119SOL     OW 4255   3.400   5.786   3.681  0.0475  0.4771  0.3711
 1119SOL    HW1 4256   3.456   5.751   3.757  1.5385 -1.3907 -1.4639
 1119SOL    HW2 4257   3.443   5.868   3.644  1.4659 -0.6963 -0.7424
 1120SOL     OW 4258   1.094   5.312   1.476  0.5109  0.1991  0.5999
 1120SOL    HW1 4259   1.117   5.256   1.397  2.4679 -1.2891  2.1008
 1120SOL    HW2 4260   1.116   5.408   1.458  2.0200 -0.2864 -0.2846
 1121SOL     OW 4261   5.537   4.359   5.226 -0.2328  0.5552  0.6016
 1121SOL    HW1 4262   5.541   4.383   5.129 -1.4010 -3.6822 -0.6857
 1121SOL    HW2 4263   5.444   4.373   5.260 -0.1837  0.6220  0.7095
 1122SOL     OW 4264   4.392   0.136   2.800 -0.4613  0.5768  0.0082
 1122SOL    HW1 4265   4.373   0.040   2.778  1.2216  0.1212  0.4024
 1122SOL    HW2 4266   4.337   0.163   2.879  0.2897 -0.6124  0.9842
 1123SOL     OW 4267   4.860   1.842   0.483 -0.5627  1.1787 -0.2650
 1123SOL    HW1 4268   4.869   1.783   0.402  2.3578 -0.1151  0.8488
 1123SOL    HW2 4269   4.815   1.791   0.556  0.1850  0.9926  0.0745
 1124SOL     OW 4270   1.857   2.481   2.841 -0.1087 -0.4649  0.2285
 1124SOL    HW1 4271   1.915   2.491   2.760  0.2020 -4.8763 -0.3731
 1124SOL    HW2 4272   1.761   2.480   2.814 -0.2291  1.5902  0.4827
 1125SOL     OW 4273   1.387   3.787   2.046  0.4465  0.3227 -0.9692
 1125SOL    HW1 4274   1.410   3.864   2.105 -2.3688 -0.4410  1.3749
 1125SOL    HW2 4275   1.452   3.713   2.061  0.3462  0.5032  0.4779
 1126SOL     OW 4276   5.201   3.966   2.616  0.2294 -0.0756  0.7146
 1126SOL    HW1 4277   5.121   4.027   2.609 -0.6018 -1.0792  1.1740
 1126SOL    HW2 4278   5.235   3.946   2.525  0.3331  0.8412  0.5425
 1127SOL     OW 4279   4.685   5.398   1.267 -0.1691  0.1967  0.1887
 1127SOL    HW1 4280   4.601   5.368   1.221 -0.4094  0.5655  0.3866
 1127SOL    HW2 4281   4.754   5.422   1.199 -0.6943  1.2271  0.0153
 1128SOL     OW 4282   3.059   0.368   4.249 -0.3098  0.2587 -0.6120
 1128SOL    HW1 4283   3.108   0.406   4.170 -0.1409 -1.6572 -1.4848
 1128SOL    HW2 4284   3.044   0.270   4.235  1.5278 -0.6408  2.6668
 1129SOL     OW 4285   1.166   0.414   0.294  0.0379  0.2403  0.4815
 1129SOL    HW1 4286   1.074   0.436   0.262  0.7859  1.6617 -0.7983
 1129SOL    HW2 4287   1.205   0.341   0.236  0.6890  1.5134 -0.7444
 1130SOL     OW 4288   2.766   5.633   6.926  0.3841 -0.1478  0.5004
 1130SOL    HW1 4289   2.685   5.576   6.908 -0.4411  0.7845  1.1367
 1130SOL    HW2 4290   2.784   5.634   7.024 -0.7409  2.1057  0.7561
 1131SOL     OW 4291   2.214   6.165   3.305  0.1918  0.5618  0.2291
 1131SOL    HW1 4292   2.241   6.258   3.331 -0.9624  0.9532  0.1036
 1131SOL    HW2 4293   2.158   6.169   3.222 -2.1984  0.0762  1.7240
 1132SOL     OW 4294   0.184   2.754   2.239  0.3054 -0.0643  0.4720
 1132SOL    HW1 4295   0.104   2.777   2.294  1.7250  1.7492  1.9535
 1132SOL    HW2 4296   0.257   2.721   2.300  2.0837  2.3996 -0.1457
 1133SOL     OW 4297   6.757   5.619   1.106 -0.7558  0.3781 -0.2103
 1133SOL    HW1 4298   6.832   5.584   1.049 -0.7030 -0.2419  0.2361
 1133SOL    HW2 4299   6.680   5.645   1.048  0.2841  2.3056 -0.8141
 1134SOL     OW 4300   4.672   4.199   0.715 -0.5423  0.2560  0.1036
 1134SOL    HW1 4301   4.597   4.250   0.756 -1.0875  0.9504 -1.6481
 1134SOL    HW2 4302   4.693   4.238   0.625  1.1471 -0.6530  0.0637
 1135SOL     OW 4303   1.232   6.149   2.334  0.0546 -0.2287  0.0131
 1135SOL    HW1 4304   1.297   6.073   2.330 -0.1073 -0.3178 -1.3299
 1135SOL    HW2 4305   1.166   6.132   2.408  0.3417 -1.1317  0.0797
 1136SOL     OW 4306   0.793   4.867   2.974 -0.1615 -0.4728  0.5089
 1136SOL    HW1 4307   0.859   4.831   3.040  2.1183  0.9223 -0.8682
 1136SOL    HW2 4308   0.822   4.844   2.881 -1.8169 -0.0831 -0.1469
 1137SOL     OW 4309   2.393   5.591   3.403  0.1055  0.2143  0.2702
 1137SOL    HW1 4310   2.308   5.634   3.433  0.2489  0.1531  0.7868
 1137SOL    HW2 4311   2.471   5.646   3.434  0.2473  0.4535 -0.4982
 1138SOL     OW 4312   0.385   3.740   3.417  0.7199  0.0286 -0.4024
 1138SOL    HW1 4313   0.427   3.664   3.369  1.9251 -2.0939  3.5326
 1138SOL    HW2 4314   0.287   3.723   3.428  0.6513 -0.0193 -1.0537
 1139SOL     OW 4315   3.430   6.597   5.033  0.1754  0.0182  0.4898
 1139SOL    HW1 4316   3.337   6.570   5.057 -0.9373  3.5090  0.5698
 1139SOL    HW2 4317   3.478   6.630   5.115  0.1072  1.8349 -0.1683
 1140SOL     OW 4318   1.401   1.400   1.462  0.1134  0.0983 -0.3149
 1140SOL    HW1 4319   1.325   1.337   1.452  1.0033 -1.1034  0.2465
 1140SOL    HW2 4320   1.369   1.494   1.452 -1.6012 -0.3290  0.8846
 1141SOL     OW 4321   4.204   5.602   5.340 -0.2757  0.3685  0.3137
 1141SOL    HW1 4322   4.151   5.520   5.318  1.5709 -1.4521  2.2049
 1141SOL    HW2 4323   4.167   5.643   5.424 -0.3794  0.6914  0.1091
 1142SOL     OW 4324   1.301   5.894   2.787 -0.3418 -0.9525  0.0015
 1142SOL    HW1 4325   1.392   5.855   2.781 -0.0091 -0.0676 -0.9985
 1142SOL    HW2 4326   1.255   5.886   2.698 -1.2575 -1.4322  0.5067
 1143SOL     OW 4327   6.829   3.718   6.969  0.3981  0.2916 -0.2055
 1143SOL    HW1 4328   6.862   3.642   6.913 -1.5153  0.9663 -2.4115
 1143SOL    HW2 4329   6.903   3.784   6.982  1.2961 -0.5931 -0.6782
 1144SOL     OW 4330   6.851   5.907   6.683  0.6831 -0.6332  0.0236
 1144SOL    HW1 4331   6.934   5.875   6.637  2.1124  1.1684  1.1767
 1144SOL    HW2 4332   6.839   5.856   6.768  1.5590  0.1459  0.6409
 1145SOL     OW 4333   3.667   0.354   1.331  0.1559  0.0346  0.4811
 1145SOL    HW1 4334   3.713   0.398   1.408 -0.9457 -1.0700  1.8106
 1145SOL    HW2 4335   3.589   0.409   1.302  0.3051  0.2302  0.4538
 1146SOL     OW 4336   1.663   0.919   3.739 -0.4265  0.2911  0.7598
 1146SOL    HW1 4337   1.751   0.912   3.787  0.3854  0.6464 -0.6271
 1146SOL    HW2 4338   1.591   0.881   3.797  1.0869 -3.0880  0.6751
 1147SOL     OW 4339   1.193   4.639   6.820  0.3824 -0.3437 -0.5653
 1147SOL    HW1 4340   1.222   4.546   6.844 -0.0054  0.2003  2.3395
 1147SOL    HW2 4341   1.270   4.702   6.834 -0.6143  0.3968  2.4335
 1148SOL     OW 4342   2.995   0.403   2.377 -0.0943 -0.2835  0.2692
 1148SOL    HW1 4343   3.034   0.466   2.444  0.0149 -0.6724  0.5725
 1148SOL    HW2 4344   3.009   0.309   2.407  1.8955 -0.5692 -1.3317
 1149SOL     OW 4345   3.669   1.018   2.594 -0.0593 -0.2198  0.2295
 1149SOL    HW1 4346   3.724   0.979   2.520 -0.2966  0.6060 -0.3853
 1149SOL    HW2 4347   3.730   1.057   2.663  0.2700 -2.8642  1.5975
 1150SOL     OW 4348   0.793   1.659   1.765  0.2687  0.2342 -0.0342
 1150SOL    HW1 4349   0.861   1.713   1.816  0.5778  1.0516 -1.2661
 1150SOL    HW2 4350   0.839   1.591   1.709 -0.0628 -0.5343  0.6021
 1151SOL     OW 4351   6.086   5.641   4.329 -0.1803 -0.2336  0.3173
 1151SOL    HW1 4352   6.083   5.585   4.412 -0.8199 -0.2995  0.2538
 1151SOL    HW2 4353   6.052   5.588   4.252 -0.5856  0.1674  0.2157
 1152SOL     OW 4354   5.094   6.228   6.889  0.3313 -0.6903  0.8374
 1152SOL    HW1 4355   5.123   6.204   6.982  1.3967 -0.7482  0.5086
 1152SOL    HW2 4356   5.125   6.157   6.826  2.9780  1.1258 -0.0715
 1153SOL     OW 4357   3.708   6.839   0.936  0.0717 -0.4819  0.2751
 1153SOL    HW1 4358   3.678   6.890   0.855 -0.0130 -1.3283 -0.2385
 1153SOL    HW2 4359   3.766   6.762   0.907 -0.2533 -1.0007  0.9833
 1154SOL     OW 4360   0.982   3.481   1.144 -0.2879  0.3993  0.2960
 1154SOL    HW1 4361   0.888   3.451   1.155  0.3582 -1.3575  1.3517
 1154SOL    HW2 4362   1.011   3.532   1.225 -0.4021  1.1966 -0.1527
 1155SOL     OW 4363   3.934   5.931   3.819  0.1529 -0.4330 -0.2742
 1155SOL    HW1 4364   3.851   5.986   3.834  0.8141  0.0625  2.0068
 1155SOL    HW2 4365   3.909   5.834   3.811 -0.9238 -0.0224 -3.2813
 1156SOL     OW 4366   3.721   0.437   0.964  0.2925  0.2394  0.0532
 1156SOL    HW1 4367   3.810   0.391   0.964 -0.3025 -0.9797  1.2197
 1156SOL    HW2 4368   3.706   0.479   0.875  1.5693 -0.4509 -0.5261
 1157SOL     OW 4369   2.213   3.120   0.682  0.0594 -0.2446 -0.0229
 1157SOL    HW1 4370   2.296   3.164   0.647  0.9432  0.3915  2.6270
 1157SOL    HW2 4371   2.170   3.066   0.610  0.9787  1.9894 -2.3761
 1158SOL     OW 4372   3.900   5.730   4.372  0.2205  0.0570 -0.1634
 1158SOL    HW1 4373   3.893   5.827   4.395 -1.6687 -0.1505  0.2991
 1158SOL    HW2 4374   3.946   5.681   4.446  3.0096  0.8259 -1.2439
 1159SOL     OW 4375   6.154   5.194   0.741 -0.6243  0.3825  0.4154
 1159SOL    HW1 4376   6.116   5.281   0.773  0.9215  1.4928 -0.6388
 1159SOL    HW2 4377   6.079   5.129   0.725 -1.7312  1.1452  2.1639
 1160SOL     OW 4378   3.795   0.591   1.513  0.5495 -0.1072 -0.1012
 1160SOL    HW1 4379   3.883   0.564   1.553  1.4983  1.7731 -0.7950
 1160SOL    HW2 4380   3.763   0.675   1.557 -0.1111  0.0949 -0.9450
 1161SOL     OW 4381   2.962   5.111   0.220  0.0828  0.1084  0.3767
 1161SOL    HW1 4382   2.925   5.169   0.148  0.9669  0.9672  0.5911
 1161SOL    HW2 4383   3.058   5.090   0.200  0.4144  0.5680  1.4156
 1162SOL     OW 4384   2.597   4.361   5.405 -0.5619 -0.2337 -0.2372
 1162SOL    HW1 4385   2.634   4.277   5.445  1.4354  0.4468 -0.5024
 1162SOL    HW2 4386   2.547   4.339   5.322 -1.7180 -1.3209  0.7159
 1163SOL     OW 4387   4.732   2.003   3.310  0.2470 -1.1455  0.4450
 1163SOL    HW1 4388   4.705   1.972   3.401 -0.4459 -1.2325  0.2185
 1163SOL    HW2 4389   4.757   2.099   3.314 -3.6903  0.0884  0.0654
 1164SOL     OW 4390   3.937   1.746   0.074  0.3129  0.2813 -0.3582
 1164SOL    HW1 4391   3.848   1.736   0.029 -0.3152 -0.6321  0.9807
 1164SOL    HW2 4392   3.937   1.830   0.129 -0.6511 -0.8391  1.4747
 1165SOL     OW 4393   3.480   0.313   3.440  0.1067 -0.4441  0.4636
 1165SOL    HW1 4394   3.535   0.248   3.493 -0.6314  0.3170  2.2749
 1165SOL    HW2 4395   3.408   0.350   3.499 -2.0331 -0.9904 -1.6533
 1166SOL     OW 4396   4.491   4.134   0.068  0.0601 -0.5077  0.1286
 1166SOL    HW1 4397   4.580   4.104   0.033 -1.2615 -1.4716 -2.6291
 1166SOL    HW2 4398   4.454   4.065   0.129  1.1303 -0.0912  1.3210
 1167SOL     OW 4399   5.679   6.171   3.872  0.1254  0.0297  0.1313
 1167SOL    HW1 4400   5.645   6.139   3.783  0.2980 -0.8037  0.3567
 1167SOL    HW2 4401   5.619   6.138   3.944 -0.4294  1.3211  0.2827
 1168SOL     OW 4402   1.783   0.522   0.057  0.4376 -0.2855 -0.0666
 1168SOL    HW1 4403   1.746   0.470   0.135  1.4096  0.5213  0.9692
 1168SOL    HW2 4404   1.882   0.534   0.069  0.1520  2.4840  0.1698
 1169SOL     OW 4405   6.865   1.415   5.668  0.3634 -0.3113  0.2256
 1169SOL    HW1 4406   6.767   1.395   5.657  0.3861 -0.5367  0.4272
 1169SOL    HW2 4407   6.891   1.398   5.763  0.3243  0.9268  0.4761
 1170SOL     OW 4408   6.572   5.556   1.982  0.3527  0.5169  0.1750
 1170SOL    HW1 4409   6.503   5.541   1.912  0.0882 -0.2441  0.5813
 1170SOL    HW2 4410   6.649   5.493   1.968  0.2841  0.3356  0.5694
 1171SOL     OW 4411   6.022   0.371   0.885 -0.2386 -0.6025  0.3696
 1171SOL    HW1 4412   6.043   0.460   0.925 -0.4903  0.0408 -0.8603
 1171SOL    HW2 4413   6.092   0.305   0.911  0.0254 -0.0146  1.1937
 1172SOL     OW 4414   6.241   2.335   6.881  0.1198 -0.3381 -0.0685
 1172SOL    HW1 4415   6.190   2.342   6.795 -0.7633  3.0664  0.5603
 1172SOL    HW2 4416   6.194   2.273   6.943  0.5905 -2.5916 -1.8440
 1173SOL     OW 4417   4.308   2.710   1.397 -0.2945 -0.3045  0.2160
 1173SOL    HW1 4418   4.213   2.715   1.428 -0.4152  0.4589 -0.2498
 1173SOL    HW2 4419   4.361   2.656   1.462 -1.0124 -0.6051  0.5652
 1174SOL     OW 4420   4.050   5.092   6.622  0.5000 -0.4991  0.0263
 1174SOL    HW1 4421   4.035   5.089   6.721 -2.1464 -1.3491 -0.3069
 1174SOL    HW2 4422   3.970   5.054   6.575  1.4090  0.4576 -2.4873
 1175SOL     OW 4423   4.080   3.592   3.881 -0.0223 -0.4800  0.1225
 1175SOL    HW1 4424   4.043   3.679   3.913 -1.8831 -0.9465 -0.5820
 1175SOL    HW2 4425   4.117   3.540   3.958 -0.5273  0.1842  0.8243
 1176SOL     OW 4426   4.799   3.622   6.715  0.3448 -0.3329  0.3811
 1176SOL    HW1 4427   4.760   3.561   6.785  1.0824 -1.0652  0.1631
 1176SOL    HW2 4428   4.898   3.629   6.728  0.5590 -0.8338 -0.8527
 1177SOL     OW 4429   6.747   1.795   4.712  0.3849 -0.0581 -0.1824
 1177SOL    HW1 4430   6.692   1.797   4.796 -0.3101  0.3531 -0.6418
 1177SOL    HW2 4431   6.783   1.886   4.693  2.4411 -0.5844  0.8811
 1178SOL     OW 4432   4.962   6.691   6.291 -0.2093 -0.4877  0.3622
 1178SOL    HW1 4433   4.891   6.762   6.299 -0.3619 -0.7308  1.3057
 1178SOL    HW2 4434   4.930   6.618   6.232  0.0784  0.3711 -0.9005
 1179SOL     OW 4435   0.968   6.981   0.901 -0.1952  0.0499  0.0697
 1179SOL    HW1 4436   0.972   7.077   0.874  1.2866  0.0269  0.0952
 1179SOL    HW2 4437   0.954   6.974   0.999  0.5486  0.2661  0.1944
 1180SOL     OW 4438   4.624   4.680   0.156  0.0501  0.1424  0.2114
 1180SOL    HW1 4439   4.708   4.720   0.121  0.0846  0.2997  0.4674
 1180SOL    HW2 4440   4.545   4.726   0.114  0.0583  1.8710  1.9533
 1181SOL     OW 4441   6.847   1.406   0.027  0.1567  0.2718 -0.0571
 1181SOL    HW1 4442   6.895   1.486  -0.009  0.0102  0.3337 -0.1155
 1181SOL    HW2 4443   6.902   1.364   0.099  0.1230  0.5721  0.1481
 1182SOL     OW 4444   4.912   3.885   5.072 -0.1109 -0.2495  0.6240
 1182SOL    HW1 4445   5.010   3.870   5.082  0.4256  0.7291 -2.3535
 1182SOL    HW2 4446   4.871   3.805   5.028  0.5482  1.4926 -3.6504
 1183SOL     OW 4447   3.334   3.312   0.606 -0.1141  0.3959  0.2579
 1183SOL    HW1 4448   3.358   3.407   0.585  0.5574 -0.0901 -1.2194
 1183SOL    HW2 4449   3.269   3.278   0.538 -1.1796  0.0900  1.3697
 1184SOL     OW 4450   0.213   1.005   3.889  0.2676 -0.2135 -0.4808
 1184SOL    HW1 4451   0.168   1.029   3.803 -0.2516  1.7894  0.3104
 1184SOL    HW2 4452   0.295   1.062   3.901 -0.3377  0.4024  0.8985
 1185SOL     OW 4453   5.282   2.570   6.601  0.1357  0.1679  0.1167
 1185SOL    HW1 4454   5.228   2.497   6.641 -0.1301  0.3616  0.1107
 1185SOL    HW2 4455   5.311   2.543   6.509 -0.7255  0.4369 -0.2395
 1186SOL     OW 4456   4.066   6.957   4.216  0.1577  0.4118  0.2255
 1186SOL    HW1 4457   3.982   6.914   4.185 -1.1135  3.0303 -0.2187
 1186SOL    HW2 4458   4.065   6.965   4.316  0.3701 -0.4153  0.3061
 1187SOL     OW 4459   6.967   1.423   1.192  0.1185  0.4354  0.2019
 1187SOL    HW1 4460   7.056   1.469   1.180  0.8827 -1.0236  0.0446
 1187SOL    HW2 4461   6.894   1.492   1.194  1.3798  1.8470  2.0875
 1188SOL     OW 4462   3.933   2.064   3.859  0.2801 -0.3069 -0.8658
 1188SOL    HW1 4463   3.962   2.027   3.948 -1.1848  0.1669 -0.1716
 1188SOL    HW2 4464   3.998   2.135   3.830  0.4543 -0.0469  0.1178
 1189SOL     OW 4465   5.076   3.924   3.947  0.0399  0.1494 -0.1742
 1189SOL    HW1 4466   5.126   3.963   4.025 -1.6221  1.4141  0.3222
 1189SOL    HW2 4467   5.125   3.946   3.863 -0.0334  2.0355  0.2296
 1190SOL     OW 4468   2.328   1.913   4.072  0.7938  0.7552 -0.0897
 1190SOL    HW1 4469   2.359   1.819   4.060 -0.2842  0.2401  0.9945
 1190SOL    HW2 4470   2.408   1.973   4.082  1.4816 -0.3439  1.2797
 1191SOL     OW 4471   3.935   1.197   3.796 -0.1968  0.4661  0.2376
 1191SOL    HW1 4472   4.022   1.148   3.789 -0.3459  0.1057  0.8285
 1191SOL    HW2 4473   3.859   1.131   3.799 -0.3107  0.5810  2.7316
 1192SOL     OW 4474   5.078   5.261   4.663  0.2248 -0.3546  0.4130
 1192SOL    HW1 4475   5.071   5.345   4.716  2.2029 -0.9895  1.7835
 1192SOL    HW2 4476   5.068   5.182   4.723  1.3441 -1.0993 -0.3276
 1193SOL     OW 4477   5.983   4.874   2.780 -1.0373  0.2208 -0.1606
 1193SOL    HW1 4478   5.897   4.893   2.732 -1.4436  2.5388  1.3284
 1193SOL    HW2 4479   5.982   4.919   2.869  0.8161 -1.6460  0.8786
 1194SOL     OW 4480   3.853   1.538   2.028  0.3824  0.0987  0.2823
 1194SOL    HW1 4481   3.823   1.633   2.017 -0.1891 -0.0954  0.1303
 1194SOL    HW2 4482   3.879   1.501   1.939 -1.1021 -0.4380  0.0383
 1195SOL     OW 4483   5.445   3.367   3.172  0.0356  0.0747  0.6005
 1195SOL    HW1 4484   5.402   3.345   3.084  3.3177 -1.6630 -0.7532
 1195SOL    HW2 4485   5.478   3.283   3.215  0.8320  1.1536  2.1909
 1196SOL     OW 4486   0.673   1.338   0.774  0.5550  0.3367 -0.2229
 1196SOL    HW1 4487   0.762   1.359   0.815  0.5898  0.8494 -0.5488
 1196SOL    HW2 4488   0.684   1.274   0.698  0.5760 -0.0468  0.1024
 1197SOL     OW 4489   2.340   6.751   6.356  0.1430  0.0883 -0.3851
 1197SOL    HW1 4490   2.319   6.774   6.261  1.7858  0.3139 -0.7272
 1197SOL    HW2 4491   2.321   6.830   6.415  1.0519  0.6770 -0.8458
 1198SOL     OW 4492   0.330   4.974   5.080 -0.4330 -0.4370  0.4118
 1198SOL    HW1 4493   0.368   5.064   5.102  0.1884 -0.8756  1.1734
 1198SOL    HW2 4494   0.236   4.984   5.048 -1.9850  0.2089  4.5707
 1199SOL     OW 4495   6.529   5.352   2.949 -0.2691  0.0998  0.2927
 1199SOL    HW1 4496   6.467   5.358   2.871 -0.2535 -1.4356  0.1396
 1199SOL    HW2 4497   6.477   5.363   3.034 -0.2245  2.1999  0.0981
 1200SOL     OW 4498   2.730   4.425   1.639 -0.1603  0.0092  0.1530
 1200SOL    HW1 4499   2.759   4.456   1.729 -0.4697 -1.0579  0.6333
 1200SOL    HW2 4500   2.810   4.391   1.588 -0.2160 -0.8622  0.6344
 1201SOL     OW 4501   2.160   1.817   5.244  0.2098  0.3010 -0.0738
 1201SOL    HW1 4502   2.235   1.762   5.208  1.5747  2.4645 -0.6989
 1201SOL    HW2 4503   2.172   1.831   5.342  0.2413  0.0844 -0.0457
 1202SOL     OW 4504   0.840   5.692   4.126  0.4924 -0.0300 -0.4176
 1202SOL    HW1 4505   0.883   5.735   4.205  1.3764 -0.1326 -0.8343
 1202SOL    HW2 4506   0.811   5.599   4.150 -0.1002  0.2739  0.0561
 1203SOL     OW 4507   5.784   4.578   5.587 -0.1432 -0.5625  0.0354
 1203SOL    HW1 4508   5.703   4.635   5.600  1.6368  1.9234  0.9818
 1203SOL    HW2 4509   5.832   4.567   5.674  1.2792 -0.7634 -0.7417
 1204SOL     OW 4510   1.869   1.905   1.124  0.7742 -0.0361 -0.5419
 1204SOL    HW1 4511   1.949   1.869   1.173  0.5649 -1.9059 -1.4927
 1204SOL    HW2 4512   1.786   1.887   1.178  0.9050  1.5470  0.2561
 1205SOL     OW 4513   4.774   4.261   2.840 -0.5189  0.0352 -0.2986
 1205SOL    HW1 4514   4.813   4.169   2.832 -2.1004 -0.5049 -2.7623
 1205SOL    HW2 4515   4.848   4.327   2.855  0.7237 -1.5256  0.7743
 1206SOL     OW 4516   2.956   3.249   3.709 -0.1165  0.4657 -0.5236
 1206SOL    HW1 4517   2.929   3.271   3.615 -0.6125 -3.5224 -1.4756
 1206SOL    HW2 4518   3.037   3.190   3.707  0.3176  0.9269  1.6341
 1207SOL     OW 4519   2.571   0.251   4.792  0.4852  0.3955  0.2221
 1207SOL    HW1 4520   2.669   0.233   4.807  0.1146 -1.1289  0.9872
 1207SOL    HW2 4521   2.543   0.329   4.848  1.0337  0.1600  0.8379
 1208SOL     OW 4522   1.897   3.495   5.050  0.7526 -0.3904 -0.8447
 1208SOL    HW1 4523   1.924   3.430   5.120 -1.0619  0.2989  0.5629
 1208SOL    HW2 4524   1.827   3.454   4.991 -1.4129  0.6021  0.8781
 1209SOL     OW 4525   1.301   5.617   6.081  0.2177  0.1715 -0.7681
 1209SOL    HW1 4526   1.361   5.692   6.109 -0.0501  0.2253 -0.3248
 1209SOL    HW2 4527   1.294   5.551   6.156 -1.9605  1.2143  0.0378
 1210SOL     OW 4528   2.317   0.839   3.370  0.1663 -0.7843 -0.0288
 1210SOL    HW1 4529   2.385   0.885   3.313 -0.8033  0.2302 -0.3992
 1210SOL    HW2 4530   2.229   0.885   3.360 -0.2608 -1.2234  1.5199
 1211SOL     OW 4531   0.874   4.065   6.686 -0.3084 -0.3508  0.7350
 1211SOL    HW1 4532   0.789   4.037   6.642 -0.8779  1.0483  0.9027
 1211SOL    HW2 4533   0.931   4.115   6.620  0.7090 -1.8373  0.4307
 1212SOL     OW 4534   1.776   0.604   0.360  0.2342  0.0215  0.0399
 1212SOL    HW1 4535   1.779   0.511   0.396 -0.1782  0.6602  1.8357
 1212SOL    HW2 4536   1.684   0.641   0.371 -0.1055  0.0216 -2.4090
 1213SOL     OW 4537   5.849   3.815   4.232  0.2222  0.3407 -0.2833
 1213SOL    HW1 4538   5.940   3.774   4.236  1.0602  2.1856  0.4731
 1213SOL    HW2 4539   5.798   3.793   4.315  0.9590  1.4173  0.4775
 1214SOL     OW 4540   5.555   0.961   1.603  0.1371  0.0141 -0.1238
 1214SOL    HW1 4541   5.538   0.960   1.505 -1.1384  0.6825  0.0655
 1214SOL    HW2 4542   5.519   1.046   1.642  0.8119 -0.1469  0.8895
 1215SOL     OW 4543   3.441   4.938   4.214 -1.0877 -0.0206 -0.7166
 1215SOL    HW1 4544   3.463   4.952   4.117 -0.5195  0.2024 -0.5624
 1215SOL    HW2 4545   3.526   4.921   4.264 -1.4084 -0.3838 -0.2989
 1216SOL     OW 4546   4.222   0.249   0.637 -0.2391 -0.1650  0.1174
 1216SOL    HW1 4547   4.244   0.277   0.544 -0.5870  0.0724  0.1066
 1216SOL    HW2 4548   4.221   0.149   0.643  1.0179 -0.1920  0.1568
 1217SOL     OW 4549   3.113   4.278   0.390 -0.3419 -0.0973 -0.0585
 1217SOL    HW1 4550   3.187   4.342   0.413 -0.1339 -0.3043 -0.1399
 1217SOL    HW2 4551   3.123   4.195   0.445  0.4571 -0.8088 -1.2248
 1218SOL     OW 4552   3.899   6.179   4.172  0.3187  0.4517 -0.2364
 1218SOL    HW1 4553   3.856   6.132   4.248 -1.0582 -0.0848 -1.2972
 1218SOL    HW2 4554   3.981   6.130   4.143 -0.0020 -0.1810 -0.0716
 1219SOL     OW 4555   2.349   5.928   2.576 -0.3679  0.2614 -0.0074
 1219SOL    HW1 4556   2.298   5.976   2.505 -0.4158  0.5211  0.2022
 1219SOL    HW2 4557   2.447   5.944   2.565 -0.0860 -2.2415 -1.9255
 1220SOL     OW 4558   6.982   6.683   2.388  0.5431 -0.3397  0.3261
 1220SOL    HW1 4559   6.985   6.594   2.433 -2.2433 -0.0354  1.3194
 1220SOL    HW2 4560   6.930   6.675   2.303 -0.9975  0.5248  1.1326
 1221SOL     OW 4561   4.861   4.180   6.647  0.4913  0.2387 -0.3236
 1221SOL    HW1 4562   4.798   4.113   6.607 -0.3290 -0.4497  1.9415
 1221SOL    HW2 4563   4.938   4.194   6.586 -0.1528 -1.5112 -1.6308
 1222SOL     OW 4564   6.431   1.895   0.997  0.4536 -0.3092 -0.0966
 1222SOL    HW1 4565   6.501   1.831   0.964  0.4980 -1.2905  1.7859
 1222SOL    HW2 4566   6.355   1.844   1.037 -0.9530  0.7698 -1.2709
 1223SOL     OW 4567   3.955   5.175   1.637  0.6535  0.1859  0.0265
 1223SOL    HW1 4568   4.010   5.097   1.666 -0.7179 -0.4700  0.9666
 1223SOL    HW2 4569   4.004   5.260   1.658  2.5307 -0.3778 -1.7623
 1224SOL     OW 4570   2.872   2.243   2.609 -0.2424  0.1275 -0.0162
 1224SOL    HW1 4571   2.856   2.282   2.519  0.7187  0.8442  0.1133
 1224SOL    HW2 4572   2.800   2.272   2.672 -0.3312  0.4944 -0.2868
 1225SOL     OW 4573   3.680   5.247   5.745  0.3600  0.0777  0.2471
 1225SOL    HW1 4574   3.660   5.303   5.825 -0.1574  0.7633 -0.3428
 1225SOL    HW2 4575   3.752   5.290   5.690  0.5557 -0.2707  0.2247
 1226SOL     OW 4576   2.329   5.355   0.541 -0.3174  0.4706 -0.2600
 1226SOL    HW1 4577   2.237   5.316   0.541 -0.8761  1.7089 -1.0091
 1226SOL    HW2 4578   2.391   5.294   0.589 -1.5671 -0.3088  0.4312
 1227SOL     OW 4579   0.168   4.525   5.720 -0.4137 -0.9637 -0.4111
 1227SOL    HW1 4580   0.242   4.571   5.671  1.1420 -2.3885  0.4686
 1227SOL    HW2 4581   0.080   4.552   5.682  0.5552  0.6449 -1.6289
 1228SOL     OW 4582   2.600   2.353   1.963  0.0491  0.3974  0.1099
 1228SOL    HW1 4583   2.698   2.365   1.979 -0.0076 -0.6012  1.3552
 1228SOL    HW2 4584   2.573   2.260   1.990 -1.2241  0.6391 -0.2803
 1229SOL     OW 4585   2.587   2.946   6.782  0.1335 -0.3611 -0.3338
 1229SOL    HW1 4586   2.506   2.894   6.807 -1.6684  2.1921 -0.5149
 1229SOL    HW2 4587   2.647   2.888   6.726 -2.7959 -1.6056 -2.4709
 1230SOL     OW 4588   3.665   0.176   4.848  0.6975  0.0598 -0.3503
 1230SOL    HW1 4589   3.628   0.108   4.912  1.0143  0.3656  0.1720
 1230SOL    HW2 4590   3.746   0.219   4.889 -0.2464  1.6841 -0.0837
 1231SOL     OW 4591   6.850   4.165   2.563 -0.5267  0.5809  0.2039
 1231SOL    HW1 4592   6.787   4.177   2.485 -1.6462  0.9607  1.1294
 1231SOL    HW2 4593   6.801   4.186   2.648  1.1737  2.0406  0.8891
 1232SOL     OW 4594   0.489   0.567   2.910  0.4469 -0.5460 -0.3354
 1232SOL    HW1 4595   0.498   0.475   2.871  4.5322 -1.2074  1.5652
 1232SOL    HW2 4596   0.458   0.560   3.005 -1.6863  0.3457 -0.9197
 1233SOL     OW 4597   0.560   2.754   4.731  0.3680 -0.0273 -0.2403
 1233SOL    HW1 4598   0.563   2.841   4.780 -0.5167 -0.2907  0.3144
 1233SOL    HW2 4599   0.619   2.688   4.776 -0.1341 -0.1508  0.2474
 1234SOL     OW 4600   0.309   3.407   2.810  0.4598  0.3003 -0.3309
 1234SOL    HW1 4601   0.248   3.455   2.874  1.9273 -0.4113  1.6994
 1234SOL    HW2 4602   0.257   3.339   2.759 -0.2377 -1.5801  2.6550
 1235SOL     OW 4603   6.674   4.403   1.803  0.0349 -0.2502 -0.0758
 1235SOL    HW1 4604   6.638   4.360   1.885 -0.4559  1.4922  0.6835
 1235SOL    HW2 4605   6.732   4.339   1.754  1.4943 -0.9421  2.3720
 1236SOL     OW 4606   6.089   6.361   7.021 -0.2769 -0.7158 -0.0893
 1236SOL    HW1 4607   6.025   6.284   7.023 -0.2799 -0.7101  1.1636
 1236SOL    HW2 4608   6.170   6.338   7.075 -1.0495  0.7760  1.8275
 1237SOL     OW 4609   2.195   3.910   6.759 -0.3703 -0.4059  0.0229
 1237SOL    HW1 4610   2.200   3.884   6.855  1.1158  0.0504  0.0909
 1237SOL    HW2 4611   2.126   3.854   6.713  0.7746 -2.5187  0.7449
 1238SOL     OW 4612   0.191   6.924   1.417 -0.9400 -0.2061  0.6007
 1238SOL    HW1 4613   0.184   7.011   1.465  1.9590 -0.1059  1.0248
 1238SOL    HW2 4614   0.191   6.940   1.318  1.5760  0.6277  0.6490
 1239SOL     OW 4615   1.794   5.975   2.098  0.2460  0.2349 -0.3905
 1239SOL    HW1 4616   1.826   5.977   2.004  0.5144 -1.2071 -0.3582
 1239SOL    HW2 4617   1.734   5.896   2.111 -0.6434  1.0130  0.3947
 1240SOL     OW 4618   0.730   4.141   1.413 -0.0540 -0.1253  0.0570
 1240SOL    HW1 4619   0.632   4.133   1.432  0.0444  1.9103  1.8169
 1240SOL    HW2 4620   0.745   4.198   1.332 -0.2933 -1.1894 -0.7658
 1241SOL     OW 4621   5.428   1.707   2.741  0.9405 -0.0085  0.3311
 1241SOL    HW1 4622   5.355   1.768   2.772 -0.1651 -0.7605 -0.7193
 1241SOL    HW2 4623   5.430   1.704   2.641  0.0196 -2.7031  0.3065
 1242SOL     OW 4624   3.107   2.615   6.515 -0.7794 -0.2551  0.1224
 1242SOL    HW1 4625   3.186   2.623   6.454 -1.6970  0.7951 -0.9793
 1242SOL    HW2 4626   3.114   2.531   6.568  0.2253 -1.0309 -1.1781
 1243SOL     OW 4627   3.705   1.635   6.714 -0.2454  0.0263 -0.1739
 1243SOL    HW1 4628   3.640   1.569   6.752 -0.5427  1.3390  1.7509
 1243SOL    HW2 4629   3.741   1.693   6.788  0.6186  1.4824 -1.6636
 1244SOL     OW 4630   6.576   2.183   2.631 -0.2794 -0.0990  0.3291
 1244SOL    HW1 4631   6.611   2.110   2.690 -1.1154 -1.0205 -0.2805
 1244SOL    HW2 4632   6.539   2.257   2.688  0.9799  0.0688  0.9580
 1245SOL     OW 4633   3.436   4.099   4.519 -0.1139 -0.7995 -0.4837
 1245SOL    HW1 4634   3.340   4.073   4.510 -0.8323  1.4715  0.0762
 1245SOL    HW2 4635   3.478   4.104   4.428 -0.9710 -0.2559 -0.8580
 1246SOL     OW 4636   1.989   0.441   2.587  0.5564 -0.1509  0.2470
 1246SOL    HW1 4637   1.994   0.345   2.613  1.2504  0.2342  1.6545
 1246SOL    HW2 4638   2.053   0.459   2.513 -0.0090 -0.8838 -0.4350
 1247SOL     OW 4639   0.965   1.170   6.905  0.2731  0.4054 -0.0309
 1247SOL    HW1 4640   1.019   1.089   6.881  2.5800  1.2534  1.9465
 1247SOL    HW2 4641   0.964   1.233   6.827  0.7327 -0.3547 -0.6667
 1248SOL     OW 4642   3.243   6.063   5.427  0.0460 -0.0707 -0.4104
 1248SOL    HW1 4643   3.177   6.138   5.429  0.1180 -0.0129 -0.1604
 1248SOL    HW2 4644   3.247   6.025   5.335  1.7014  1.7502 -1.1577
 1249SOL     OW 4645   6.507   1.541   4.342  0.5211 -0.0051 -0.5175
 1249SOL    HW1 4646   6.572   1.471   4.309  0.7992 -0.2078  0.4260
 1249SOL    HW2 4647   6.483   1.521   4.437 -0.5656  0.3455 -0.7104
 1250SOL     OW 4648   0.002   3.428   4.649 -0.3232  0.5121  0.0633
 1250SOL    HW1 4649   0.060   3.373   4.590  0.8121  0.5861  1.0804
 1250SOL    HW2 4650   0.003   3.523   4.618 -1.0007  0.2746 -0.7241
 1251SOL     OW 4651   3.054   1.758   6.791  0.3217  0.4216 -0.4912
 1251SOL    HW1 4652   3.112   1.820   6.739 -1.7912  2.0405 -1.0380
 1251SOL    HW2 4653   3.058   1.782   6.888  1.1950 -0.0654 -0.3871
 1252SOL     OW 4654   5.338   5.271   1.473 -0.0562  0.4246  0.3999
 1252SOL    HW1 4655   5.280   5.288   1.394  0.6218  0.3824 -0.1098
 1252SOL    HW2 4656   5.432   5.258   1.444  0.3165  1.0466  1.2729
 1253SOL     OW 4657   4.204   1.279   4.198 -0.5935  0.1519  0.9412
 1253SOL    HW1 4658   4.179   1.184   4.218  1.1264 -0.1330  1.8475
 1253SOL    HW2 4659   4.138   1.340   4.243  0.1973 -0.5769  3.2157
 1254SOL     OW 4660   4.467   1.544   2.616 -0.0549 -0.0952  0.5923
 1254SOL    HW1 4661   4.457   1.513   2.522  1.4111  0.1419  0.3340
 1254SOL    HW2 4662   4.398   1.614   2.636  0.4547  0.8212 -0.7358
 1255SOL     OW 4663   4.318   2.276   1.358  0.1858 -0.3631  0.4048
 1255SOL    HW1 4664   4.313   2.176   1.358 -0.4026 -0.3441  1.5070
 1255SOL    HW2 4665   4.262   2.312   1.284  0.9918 -0.8612 -0.4715
 1256SOL     OW 4666   5.365   3.625   2.011 -0.0733  0.1121  0.0291
 1256SOL    HW1 4667   5.316   3.561   2.069 -0.1826  0.6161  0.5037
 1256SOL    HW2 4668   5.441   3.666   2.062  1.6121 -1.5207 -1.0319
 1257SOL     OW 4669   5.157   3.153   3.794  0.1394  0.1890 -0.2198
 1257SOL    HW1 4670   5.131   3.148   3.891 -1.2382 -0.5130 -0.6005
 1257SOL    HW2 4671   5.176   3.248   3.770 -1.6159  0.6832  0.2338
 1258SOL     OW 4672   6.787   4.836   2.073  0.1819 -0.5275  0.2304
 1258SOL    HW1 4673   6.768   4.850   2.170  0.9528 -2.0806  0.6342
 1258SOL    HW2 4674   6.816   4.923   2.032 -1.6468  0.4999  0.9977
 1259SOL     OW 4675   5.417   1.641   3.529 -1.1103 -0.2789 -0.0942
 1259SOL    HW1 4676   5.476   1.657   3.451 -2.0824 -1.0190 -1.0124
 1259SOL    HW2 4677   5.472   1.635   3.613 -0.1870  1.9791 -0.4694
 1260SOL     OW 4678   6.713   1.715   5.979  0.0109  0.6590 -0.2808
 1260SOL    HW1 4679   6.809   1.739   5.970  0.8058 -2.2976 -0.7562
 1260SOL    HW2 4680   6.696   1.680   6.071 -0.0681 -0.8064 -0.8304
 1261SOL     OW 4681   0.298   2.451   2.105 -0.2619  0.1824  0.0271
 1261SOL    HW1 4682   0.287   2.353   2.120 -2.0206  0.4412  0.5760
 1261SOL    HW2 4683   0.259   2.476   2.017  0.2675  0.3816 -0.1541
 1262SOL     OW 4684   4.455   5.492   3.051 -0.0081  0.4814  0.2832
 1262SOL    HW1 4685   4.395   5.420   3.017  2.3697 -2.1214  1.2099
 1262SOL    HW2 4686   4.528   5.508   2.985 -0.6471  2.3221 -0.0290
 1263SOL     OW 4687   1.237   2.456   2.001 -1.0249 -0.5671  0.2044
 1263SOL    HW1 4688   1.156   2.496   1.956 -0.1724  1.2097  0.1730
 1263SOL    HW2 4689   1.260   2.369   1.956 -2.2787 -0.5729 -0.4774
 1264SOL     OW 4690   0.009   1.932   6.343 -0.1702 -0.2723  0.1185
 1264SOL    HW1 4691   0.108   1.924   6.356  0.3392  2.3467 -1.3747
 1264SOL    HW2 4692  -0.027   2.000   6.408 -0.9585 -1.0319  0.4890
 1265SOL     OW 4693   6.110   1.372   6.626  0.3939 -0.0231  0.8130
 1265SOL    HW1 4694   6.084   1.350   6.720 -1.4466  0.9647  0.5873
 1265SOL    HW2 4695   6.076   1.301   6.564  1.5176 -0.6223  0.8726
 1266SOL     OW 4696   3.454   1.208   0.284 -0.3308 -0.2419 -0.0035
 1266SOL    HW1 4697   3.366   1.240   0.320 -0.7948 -2.3068  0.8527
 1266SOL    HW2 4698   3.525   1.222   0.353 -0.4190 -0.5178  0.1449
 1267SOL     OW 4699   2.786   1.982   2.326  0.1787  0.0310  0.1788
 1267SOL    HW1 4700   2.771   2.021   2.234 -0.0568 -3.0308 -1.1948
 1267SOL    HW2 4701   2.875   1.937   2.328 -0.1307 -0.5529  1.2050
 1268SOL     OW 4702   4.449   1.640   6.117  0.3624  0.7583 -0.4800
 1268SOL    HW1 4703   4.356   1.632   6.081  0.0352  1.0476  0.2856
 1268SOL    HW2 4704   4.451   1.609   6.212  1.3149 -0.4493 -0.8742
 1269SOL     OW 4705   4.755   2.286   3.380 -0.9733 -0.4851  0.3876
 1269SOL    HW1 4706   4.834   2.337   3.347 -1.2022 -0.1468  0.3556
 1269SOL    HW2 4707   4.672   2.322   3.337 -1.0551 -1.4233 -0.2665
 1270SOL     OW 4708   6.461   4.869   2.705 -0.0276  0.2914  0.2642
 1270SOL    HW1 4709   6.369   4.836   2.727 -0.3595  1.1357  0.1973
 1270SOL    HW2 4710   6.529   4.803   2.735 -0.6534 -0.2770  0.4435
 1271SOL     OW 4711   1.345   1.681   1.921  0.6841  0.2192 -0.5595
 1271SOL    HW1 4712   1.249   1.709   1.917  0.8962  1.2882  0.9833
 1271SOL    HW2 4713   1.352   1.584   1.895 -0.9609 -0.1961  0.3828
 1272SOL     OW 4714   4.277   0.829   1.515 -0.9843 -0.0995 -0.5899
 1272SOL    HW1 4715   4.340   0.906   1.507  2.1193 -2.2738  0.7402
 1272SOL    HW2 4716   4.260   0.790   1.424  2.5348 -1.4645 -0.8354
 1273SOL     OW 4717   2.539   3.888   6.039 -0.7276 -0.3618 -0.8313
 1273SOL    HW1 4718   2.612   3.839   6.086 -2.2603 -1.9598 -0.0087
 1273SOL    HW2 4719   2.579   3.957   5.978  1.3691  0.3510  1.2227
 1274SOL     OW 4720   7.019   3.638   4.510 -0.1426 -0.5139 -0.2571
 1274SOL    HW1 4721   6.968   3.588   4.441  1.8273  0.1304 -2.3144
 1274SOL    HW2 4722   7.043   3.729   4.475  0.1261  0.1995  1.6483
 1275SOL     OW 4723   1.322   0.130   3.762 -0.5513  0.5982 -0.4364
 1275SOL    HW1 4724   1.303   0.212   3.815 -1.8589 -0.9654  1.6651
 1275SOL    HW2 4725   1.371   0.064   3.819  0.3846 -0.1404 -2.0367
 1276SOL     OW 4726   2.290   1.635   3.190  0.5580 -0.1353 -0.0930
 1276SOL    HW1 4727   2.228   1.712   3.175  1.0770 -0.0926 -2.4526
 1276SOL    HW2 4728   2.339   1.647   3.276  0.1014  1.8266 -0.0722
 1277SOL     OW 4729   0.861   4.583   5.724  0.6534  0.3624 -0.0645
 1277SOL    HW1 4730   0.782   4.588   5.662  0.2930 -0.0987  0.3427
 1277SOL    HW2 4731   0.914   4.667   5.718  1.5986 -0.3316 -2.2584
 1278SOL     OW 4732   6.416   5.511   1.720  0.2638  0.6101 -0.1313
 1278SOL    HW1 4733   6.469   5.445   1.666  3.2119  1.9499  0.9352
 1278SOL    HW2 4734   6.411   5.598   1.671  0.0137  0.8273  0.2787
 1279SOL     OW 4735   3.431   3.536   0.510 -0.5359 -0.0642  0.8491
 1279SOL    HW1 4736   3.365   3.559   0.437  0.7062  0.6650 -0.0827
 1279SOL    HW2 4737   3.521   3.570   0.484  0.3274 -1.5265  1.8513
 1280SOL     OW 4738   2.602   1.683   3.046  0.6222  0.8701 -0.6248
 1280SOL    HW1 4739   2.677   1.635   3.091  1.1949  2.2733  0.0054
 1280SOL    HW2 4740   2.632   1.716   2.957  0.1767 -0.0749 -1.1299
 1281SOL     OW 4741   6.379   0.182   4.649  0.4323  0.6594  0.1920
 1281SOL    HW1 4742   6.326   0.207   4.730 -0.8304  0.0279 -0.4019
 1281SOL    HW2 4743   6.317   0.147   4.579  1.4339  1.6124 -1.2275
 1282SOL     OW 4744   2.586   2.431   2.331  0.2691 -0.3024  0.0663
 1282SOL    HW1 4745   2.668   2.378   2.308 -0.7790 -0.7996 -3.1663
 1282SOL    HW2 4746   2.547   2.469   2.247 -1.6678  1.7066  1.7485
 1283SOL     OW 4747   0.471   1.031   5.600 -0.1463  0.0512 -0.3041
 1283SOL    HW1 4748   0.449   1.125   5.572  0.2256  0.0636 -0.5620
 1283SOL    HW2 4749   0.403   0.968   5.562 -0.4300  0.2214 -0.0833
 1284SOL     OW 4750   5.262   2.515   1.940  0.1176 -0.2117 -0.1088
 1284SOL    HW1 4751   5.168   2.539   1.917  0.6596  1.4626 -0.7410
 1284SOL    HW2 4752   5.288   2.560   2.025 -0.1573 -2.0301  0.9799
 1285SOL     OW 4753   2.427   1.710   4.761  0.6653  0.0342  0.2609
 1285SOL    HW1 4754   2.358   1.779   4.782  0.1566 -0.6996  1.1023
 1285SOL    HW2 4755   2.402   1.663   4.676  1.5056  1.4766 -0.8177
 1286SOL     OW 4756   4.411   0.829   1.870  0.6090  0.0839 -0.0641
 1286SOL    HW1 4757   4.359   0.755   1.828 -0.4626 -0.0942  1.4930
 1286SOL    HW2 4758   4.355   0.913   1.869  0.4885  0.0312  1.1229
 1287SOL     OW 4759   5.657   4.557   6.794  0.0324  0.0630  0.0598
 1287SOL    HW1 4760   5.695   4.495   6.862 -0.1627 -0.2892 -0.1478
 1287SOL    HW2 4761   5.558   4.563   6.805 -0.1427 -0.8472 -0.8711
 1288SOL     OW 4762   5.104   5.312   6.388  0.0052 -0.0916 -0.2789
 1288SOL    HW1 4763   5.017   5.263   6.378 -0.3067  0.0489  1.3808
 1288SOL    HW2 4764   5.132   5.349   6.300 -2.1897  0.8155 -0.6709
 1289SOL     OW 4765   0.436   6.628   3.417  0.1712  0.0255  0.4229
 1289SOL    HW1 4766   0.497   6.659   3.490 -0.6625 -0.4690  1.3484
 1289SOL    HW2 4767   0.383   6.549   3.449 -1.1782  0.6358 -0.2556
 1290SOL     OW 4768   2.512   6.453   5.246 -0.2077  0.3188  0.3804
 1290SOL    HW1 4769   2.481   6.405   5.164 -1.5865  1.2706  0.3010
 1290SOL    HW2 4770   2.444   6.441   5.319 -0.0659  1.2424  0.6842
 1291SOL     OW 4771   6.486   6.936   4.537 -0.2437  0.0773  0.0453
 1291SOL    HW1 4772   6.491   6.976   4.446  1.5855  2.2806  0.9992
 1291SOL    HW2 4773   6.469   7.008   4.604  0.6959 -1.1167  1.6470
 1292SOL     OW 4774   5.587   6.416   2.263  0.4388  0.0858 -0.2688
 1292SOL    HW1 4775   5.572   6.426   2.362  1.5349 -0.9510  0.0341
 1292SOL    HW2 4776   5.546   6.493   2.215 -1.3927 -0.1130  0.8661
 1293SOL     OW 4777   3.455   5.843   0.350  0.2595 -0.0770  0.3129
 1293SOL    HW1 4778   3.435   5.826   0.254 -1.6042  0.2163  0.6101
 1293SOL    HW2 4779   3.442   5.759   0.403 -1.4470  0.3662  0.6702
 1294SOL     OW 4780   1.502   4.185   3.337  0.5468 -0.2456  0.3517
 1294SOL    HW1 4781   1.597   4.160   3.314  0.3357 -2.4376  1.5496
 1294SOL    HW2 4782   1.442   4.159   3.261  0.5817 -1.7370  0.7928
 1295SOL     OW 4783   1.808   4.021   1.697  0.0877  0.5958  0.1635
 1295SOL    HW1 4784   1.879   4.020   1.768  0.6639 -2.2041 -0.3576
 1295SOL    HW2 4785   1.849   4.000   1.608 -1.2266  0.1510 -0.3560
 1296SOL     OW 4786   4.781   1.241   5.815 -0.0354  0.5587 -0.0418
 1296SOL    HW1 4787   4.702   1.299   5.831 -0.1277  0.4062  0.0521
 1296SOL    HW2 4788   4.865   1.293   5.835 -0.1355  0.4655  0.6396
 1297SOL     OW 4789   5.879   4.732   5.364  0.4095  0.2688  0.1916
 1297SOL    HW1 4790   5.828   4.651   5.391 -1.0083  1.0759  0.0274
 1297SOL    HW2 4791   5.967   4.734   5.412  0.1139 -0.9362  0.8037
 1298SOL     OW 4792   4.990   0.240   1.995  0.1005 -0.0652 -0.1534
 1298SOL    HW1 4793   4.996   0.146   1.963  0.0528  0.2754 -1.2009
 1298SOL    HW2 4794   5.081   0.275   2.015  0.1329 -0.2718  0.0586
 1299SOL     OW 4795   2.067   4.728   5.769  0.2143  0.3562  0.1669
 1299SOL    HW1 4796   2.052   4.804   5.706 -1.1230  0.8050  0.9728
 1299SOL    HW2 4797   2.080   4.764   5.862 -0.9694 -0.3931  0.6467
 1300SOL     OW 4798   2.492   5.195   0.693 -0.2077  0.0680  0.2210
 1300SOL    HW1 4799   2.483   5.097   0.710 -1.3351  0.3404  1.3494
 1300SOL    HW2 4800   2.587   5.217   0.673  0.3085 -1.0624  1.2762
 1301SOL     OW 4801   5.745   1.241   6.999  0.3431  0.1280  0.0890
 1301SOL    HW1 4802   5.813   1.311   7.020 -0.0223  0.3170  0.6514
 1301SOL    HW2 4803   5.657   1.267   7.038  0.3311 -0.9124  0.7813
 1302SOL     OW 4804   0.601   1.768   5.997  0.3858  0.5028 -0.1304
 1302SOL    HW1 4805   0.654   1.724   6.069  0.0348 -1.3141 -0.9313
 1302SOL    HW2 4806   0.538   1.834   6.038  0.3286 -0.3474  1.2123
 1303SOL     OW 4807   4.951   6.278   0.900  0.3975 -1.0226  0.4078
 1303SOL    HW1 4808   4.923   6.317   0.988  0.5630 -0.0500  0.0391
 1303SOL    HW2 4809   4.876   6.284   0.835  0.6829 -0.5981  0.1168
 1304SOL     OW 4810   1.384   0.759   0.650  0.2403  0.0604  0.2818
 1304SOL    HW1 4811   1.347   0.840   0.604 -0.3129 -0.9548 -1.1718
 1304SOL    HW2 4812   1.339   0.746   0.738 -0.1910  0.9186  0.1918
 1305SOL     OW 4813   2.223   4.986   5.186 -0.1136  0.4623 -0.3638
 1305SOL    HW1 4814   2.164   4.909   5.211 -0.9446  1.5102  1.0727
 1305SOL    HW2 4815   2.227   5.050   5.262  1.3793  1.3576 -1.1575
 1306SOL     OW 4816   0.730   0.335   5.082  0.3912 -0.4912  0.1202
 1306SOL    HW1 4817   0.764   0.280   5.159  1.3794  0.5775  0.4748
 1306SOL    HW2 4818   0.706   0.426   5.115  1.4051  0.1832 -0.9298
 1307SOL     OW 4819   2.064   5.157   3.238  0.2684  0.6535  0.0614
 1307SOL    HW1 4820   1.976   5.190   3.205  1.0357  0.7149 -2.1104
 1307SOL    HW2 4821   2.050   5.079   3.299 -1.2879  0.7719 -0.1090
 1308SOL     OW 4822   0.232   4.067   5.630 -0.0120  0.6456  0.1443
 1308SOL    HW1 4823   0.187   4.106   5.710 -0.7892  0.1065 -0.0126
 1308SOL    HW2 4824   0.163   4.027   5.569  0.7218 -0.9867  0.3207
 1309SOL     OW 4825   0.316   4.791   5.331  0.4695 -0.1331 -0.0975
 1309SOL    HW1 4826   0.345   4.878   5.371 -0.5972 -0.0084  0.4446
 1309SOL    HW2 4827   0.290   4.806   5.236 -0.1122  0.2342  0.1133
 1310SOL     OW 4828   1.729   0.671   3.105  0.9935 -0.4831  0.3479
 1310SOL    HW1 4829   1.705   0.633   3.016  0.7674  0.6784 -0.1031
 1310SOL    HW2 4830   1.769   0.599   3.162  1.1848 -1.2322 -0.6980
 1311SOL     OW 4831   0.765   1.766   6.845  0.7082  0.3062 -0.0878
 1311SOL    HW1 4832   0.727   1.827   6.775 -1.7713 -0.5685  0.4021
 1311SOL    HW2 4833   0.719   1.783   6.932  1.6383 -0.6809  0.6248
 1312SOL     OW 4834   1.175   0.903   0.237  0.0797  0.1139  0.4555
 1312SOL    HW1 4835   1.147   0.929   0.330  0.6398  3.1652 -0.1280
 1312SOL    HW2 4836   1.097   0.863   0.189 -1.1701  1.4422  1.2727
 1313SOL     OW 4837   5.349   5.949   3.086 -0.6893 -0.0962 -0.0471
 1313SOL    HW1 4838   5.383   5.870   3.137  0.5613  0.8578  0.6390
 1313SOL    HW2 4839   5.305   6.013   3.149  0.6601  0.9867 -0.1526
 1314SOL     OW 4840   2.726   0.744   2.847  0.5501  0.6559  0.5083
 1314SOL    HW1 4841   2.807   0.785   2.888 -0.0595  0.8707  1.5197
 1314SOL    HW2 4842   2.729   0.645   2.860  0.7933  0.6290  0.2679
 1315SOL     OW 4843   6.093   2.140   2.588  0.5193  0.2754  0.1889
 1315SOL    HW1 4844   6.028   2.198   2.541 -0.0448 -0.9967 -0.6662
 1315SOL    HW2 4845   6.179   2.137   2.537  0.2709 -0.2648 -0.2076
 1316SOL     OW 4846   5.898   5.918   5.220  0.0561 -0.3162 -0.3534
 1316SOL    HW1 4847   5.860   5.951   5.306  0.2571 -1.4934  0.2038
 1316SOL    HW2 4848   5.987   5.962   5.204  1.0844 -1.7195  1.1904
 1317SOL     OW 4849   3.196   3.963   2.749  0.4374 -0.5798  0.1232
 1317SOL    HW1 4850   3.244   4.009   2.674 -0.0378 -0.1808  0.0551
 1317SOL    HW2 4851   3.140   3.889   2.713 -0.3722  0.0921 -0.0060
 1318SOL     OW 4852   1.207   1.926   6.431  0.6037 -0.8538  0.2434
 1318SOL    HW1 4853   1.156   1.877   6.502  0.2077 -0.9937 -0.1323
 1318SOL    HW2 4854   1.305   1.909   6.443  0.5838 -0.3977  1.1100
 1319SOL     OW 4855   0.648   1.643   0.119  0.2358 -0.0441  0.0066
 1319SOL    HW1 4856   0.634   1.672   0.214  1.2462  1.6878 -0.3430
 1319SOL    HW2 4857   0.737   1.675   0.087  1.5238 -3.5843 -0.4546
 1320SOL     OW 4858   3.429   1.817   6.056  0.0064  0.2779 -0.0893
 1320SOL    HW1 4859   3.514   1.814   6.004  0.7296  0.6100  1.0388
 1320SOL    HW2 4860   3.379   1.731   6.044  1.1272 -0.4430  0.2623
 1321SOL     OW 4861   6.568   2.051   1.181  0.2643  0.2794  0.7155
 1321SOL    HW1 4862   6.513   2.031   1.262 -0.5032  1.9815  0.6520
 1321SOL    HW2 4863   6.519   2.023   1.099  1.1122 -1.5984  0.8016
 1322SOL     OW 4864   2.982   2.350   0.213 -0.0256 -0.5169  0.2200
 1322SOL    HW1 4865   2.958   2.405   0.133 -1.2035 -0.5622  0.5254
 1322SOL    HW2 4866   2.919   2.370   0.288  1.5190  0.0790  1.4115
 1323SOL     OW 4867   3.683   6.863   2.497 -0.2079 -0.2843  0.1661
 1323SOL    HW1 4868   3.714   6.913   2.577 -0.1133 -1.1562  0.6917
 1323SOL    HW2 4869   3.604   6.806   2.521 -1.0514  0.4835 -0.7012
 1324SOL     OW 4870   3.195   3.991   6.114 -0.0035 -0.4147 -0.5238
 1324SOL    HW1 4871   3.210   4.064   6.047  1.4386 -0.2727 -0.0999
 1324SOL    HW2 4872   3.205   3.902   6.070 -1.8032 -0.3848 -1.0503
 1325SOL     OW 4873   4.802   6.130   5.102  0.0024  0.3186 -0.7472
 1325SOL    HW1 4874   4.717   6.099   5.058 -0.4750  1.9577 -1.0349
 1325SOL    HW2 4875   4.829   6.218   5.064  0.1722  1.2907  1.4473
 1326SOL     OW 4876   3.849   0.222   4.604 -0.3679  0.0844  0.1039
 1326SOL    HW1 4877   3.801   0.179   4.680 -2.1393  1.8041  0.0357
 1326SOL    HW2 4878   3.803   0.307   4.579  1.1953  0.4583 -1.7678
 1327SOL     OW 4879   3.155   4.893   3.022  0.1901 -0.0425 -0.2261
 1327SOL    HW1 4880   3.216   4.833   2.971 -1.5261 -0.9015 -1.3706
 1327SOL    HW2 4881   3.062   4.885   2.985 -0.9740 -0.0139  2.4473
 1328SOL     OW 4882   6.993   1.585   6.887  0.3833  0.8185  0.6555
 1328SOL    HW1 4883   7.093   1.594   6.894  0.2692  1.0989  2.9240
 1328SOL    HW2 4884   6.959   1.648   6.818  1.7257  1.2379  0.3324
 1329SOL     OW 4885   6.147   2.289   3.307  0.1561 -0.1997 -0.0840
 1329SOL    HW1 4886   6.052   2.317   3.325  0.7732  1.5911  0.5536
 1329SOL    HW2 4887   6.196   2.365   3.264  1.1125 -1.3869 -1.1563
 1330SOL     OW 4888   5.566   4.529   4.221 -0.4611  0.1660 -0.5563
 1330SOL    HW1 4889   5.557   4.471   4.141 -0.8709 -0.3809 -0.1218
 1330SOL    HW2 4890   5.541   4.477   4.303  1.4500  0.2341  0.1113
 1331SOL     OW 4891   3.713   0.495   1.971 -1.1082  0.3364  0.3826
 1331SOL    HW1 4892   3.674   0.560   1.906  0.9717  1.4279  0.1382
 1331SOL    HW2 4893   3.775   0.433   1.923  1.9418  2.3339  1.3882
 1332SOL     OW 4894   2.133   5.186   0.531  0.1599  0.5492  0.0356
 1332SOL    HW1 4895   2.158   5.134   0.450  1.6130 -0.0548  0.8393
 1332SOL    HW2 4896   2.038   5.215   0.523 -0.2462 -0.9406 -1.1200
 1333SOL     OW 4897   1.976   4.029   1.376  0.0178  0.2081  0.0997
 1333SOL    HW1 4898   1.930   4.111   1.342 -2.0882 -0.1799  1.8220
 1333SOL    HW2 4899   1.937   3.948   1.333 -0.3650 -0.0821  0.9731
 1334SOL     OW 4900   0.559   3.464   0.825  0.5061 -0.4579  0.2333
 1334SOL    HW1 4901   0.611   3.486   0.743 -1.1059 -0.3021 -0.7919
 1334SOL    HW2 4902   0.475   3.519   0.827 -0.1977 -1.5173  1.2237
 1335SOL     OW 4903   5.520   3.781   2.559 -0.0234  0.2450  1.0310
 1335SOL    HW1 4904   5.520   3.874   2.522 -2.9292 -0.3720 -0.8841
 1335SOL    HW2 4905   5.614   3.752   2.576  1.0658  2.9065  0.1423
 1336SOL     OW 4906   1.489   5.701   6.396  0.5181  0.3104  0.1863
 1336SOL    HW1 4907   1.578   5.662   6.369 -0.5308 -1.2979 -1.1697
 1336SOL    HW2 4908   1.431   5.628   6.432 -0.9588  0.9190 -0.8595
 1337SOL     OW 4909   5.316   6.987   1.651  0.0681  0.1462 -0.3756
 1337SOL    HW1 4910   5.303   7.073   1.700  2.2670 -0.4930  1.5094
 1337SOL    HW2 4911   5.413   6.978   1.626 -0.2173 -1.5717 -0.9584
 1338SOL     OW 4912   0.203   3.788   3.151 -0.1971 -0.2289 -0.2473
 1338SOL    HW1 4913   0.213   3.880   3.114  0.1494 -0.2250 -0.1434
 1338SOL    HW2 4914   0.107   3.770   3.170 -0.0180  1.0656  2.2339
 1339SOL     OW 4915   7.013   3.453   1.268  0.0711 -0.3141 -0.7481
 1339SOL    HW1 4916   7.108   3.483   1.259  0.2879 -0.7405  0.0734
 1339SOL    HW2 4917   7.009   3.372   1.326 -1.1136  1.4702  1.8086
 1340SOL     OW 4918   1.677   3.411   1.763 -0.1533  0.3365  0.6752
 1340SOL    HW1 4919   1.601   3.348   1.778 -0.8525  0.8941 -0.3356
 1340SOL    HW2 4920   1.686   3.472   1.841 -0.9285  0.4327  0.6954
 1341SOL     OW 4921   0.524   4.765   0.058  0.0643 -0.0067 -0.0409
 1341SOL    HW1 4922   0.557   4.673   0.036  1.6562  0.2871  0.9539
 1341SOL    HW2 4923   0.501   4.769   0.156  2.4983  1.3133  0.5389
 1342SOL     OW 4924   1.206   1.023   1.814 -0.7296  0.7008 -0.3372
 1342SOL    HW1 4925   1.270   1.096   1.789  0.2810 -0.5514 -1.5380
 1342SOL    HW2 4926   1.238   0.979   1.898 -0.0452  0.1309 -0.8899
 1343SOL     OW 4927   4.584   0.425   2.952  0.0476  0.1522  0.1625
 1343SOL    HW1 4928   4.604   0.331   2.979 -0.6059  0.4844  1.9270
 1343SOL    HW2 4929   4.486   0.433   2.931 -0.1039  0.6470  1.0183
 1344SOL     OW 4930   0.510   6.650   4.002 -0.3346 -0.4725  0.7258
 1344SOL    HW1 4931   0.469   6.727   4.051 -0.1454  0.9748 -1.2923
 1344SOL    HW2 4932   0.603   6.673   3.973 -0.3357 -1.3847 -0.0742
 1345SOL     OW 4933   1.252   1.259   5.444 -0.1758 -0.0742  0.4767
 1345SOL    HW1 4934   1.295   1.213   5.522 -0.1234 -0.4887  0.2106
 1345SOL    HW2 4935   1.161   1.220   5.430 -0.4841  0.5270  0.7955
 1346SOL     OW 4936   0.847   4.752   3.931  0.4140  0.1597  0.2426
 1346SOL    HW1 4937   0.778   4.791   3.870  1.5205  1.3460 -0.2880
 1346SOL    HW2 4938   0.902   4.685   3.881 -0.2504 -0.7167  0.6414
 1347SOL     OW 4939   6.704   0.090   5.742 -0.0677  0.0570  0.9253
 1347SOL    HW1 4940   6.752   0.047   5.666 -1.7112 -2.8261  1.3411
 1347SOL    HW2 4941   6.606   0.094   5.721 -0.5538 -0.7738  2.7930
 1348SOL     OW 4942   2.978   5.732   5.250  0.3486 -0.1461  0.5808
 1348SOL    HW1 4943   3.076   5.715   5.260  0.3947 -0.4391 -0.2685
 1348SOL    HW2 4944   2.955   5.737   5.153 -0.6255 -0.9123  0.7543
 1349SOL     OW 4945   6.427   1.263   4.835  0.1308 -0.1514 -0.1114
 1349SOL    HW1 4946   6.496   1.335   4.832 -0.1461  0.1457  0.7262
 1349SOL    HW2 4947   6.346   1.295   4.883  0.7240 -1.6147  2.0110
 1350SOL     OW 4948   5.852   6.621   6.706  0.0081 -0.1461 -0.4539
 1350SOL    HW1 4949   5.894   6.637   6.795  0.0703  0.6951 -0.6177
 1350SOL    HW2 4950   5.906   6.555   6.655  0.6283  0.2326 -0.3054
 1351SOL     OW 4951   0.655   2.660   1.438 -0.1338 -0.1985 -0.0662
 1351SOL    HW1 4952   0.561   2.627   1.425  0.0147 -0.9359  0.6148
 1351SOL    HW2 4953   0.691   2.693   1.351 -1.0896  0.2780 -0.2953
 1352SOL     OW 4954   4.856   2.128   5.098  0.0654 -0.5068 -0.0831
 1352SOL    HW1 4955   4.936   2.075   5.067  0.6123 -0.0773  0.5618
 1352SOL    HW2 4956   4.781   2.065   5.119  0.9559 -1.1119  1.4050
 1353SOL     OW 4957   0.404   3.039   3.761 -0.0407 -0.0424  0.1024
 1353SOL    HW1 4958   0.487   3.085   3.794  0.1254  0.6661 -1.2680
 1353SOL    HW2 4959   0.333   3.107   3.742 -0.1405 -0.4326 -0.9564
 1354SOL     OW 4960   5.812   3.962   3.515  0.5323 -0.1591 -0.1675
 1354SOL    HW1 4961   5.733   3.977   3.575  0.3389 -1.5014 -0.0509
 1354SOL    HW2 4962   5.785   3.902   3.439  1.0540  0.6321 -0.9992
 1355SOL     OW 4963   3.610   3.772   3.173 -0.1391  0.2296 -0.2734
 1355SOL    HW1 4964   3.689   3.828   3.200 -0.3399 -0.0949  1.0693
 1355SOL    HW2 4965   3.554   3.823   3.107  0.8392  0.7155 -0.7527
 1356SOL     OW 4966   1.792   3.281   4.904 -0.2219  0.3379 -0.0084
 1356SOL    HW1 4967   1.768   3.281   4.807 -0.3528 -0.9543  0.0054
 1356SOL    HW2 4968   1.852   3.203   4.924 -3.0112 -1.6026  1.5601
 1357SOL     OW 4969   4.970   3.357   5.059 -0.4908  0.3724 -0.0452
 1357SOL    HW1 4970   5.012   3.269   5.038  0.7959  1.2394 -1.2937
 1357SOL    HW2 4971   4.879   3.342   5.097 -0.3258 -1.4832 -0.2857
 1358SOL     OW 4972   0.653   0.262   6.664 -0.4516  0.0421 -0.3184
 1358SOL    HW1 4973   0.580   0.293   6.603 -1.0998 -1.4907 -0.3465
 1358SOL    HW2 4974   0.656   0.321   6.744  0.8844  2.5597 -2.0787
 1359SOL     OW 4975   0.825   4.606   0.724  0.0193 -0.0095 -0.3457
 1359SOL    HW1 4976   0.836   4.668   0.646  3.1964 -1.3735 -1.1600
 1359SOL    HW2 4977   0.775   4.524   0.695 -1.8279  0.9271  0.0394
 1360SOL     OW 4978   4.356   1.139   0.318  0.2411 -0.5031  0.3751
 1360SOL    HW1 4979   4.302   1.207   0.268  0.8249 -2.1200 -2.6887
 1360SOL    HW2 4980   4.294   1.076   0.366 -0.3968  0.3136  0.6445
 1361SOL     OW 4981   6.109   4.346   4.683 -0.4465  0.2722 -0.1437
 1361SOL    HW1 4982   6.159   4.396   4.612  0.5456 -0.8715 -0.2752
 1361SOL    HW2 4983   6.014   4.376   4.684 -0.9307 -0.8611 -3.1053
 1362SOL     OW 4984   3.943   3.085   3.403 -0.3351 -0.0843 -0.2949
 1362SOL    HW1 4985   3.868   3.021   3.389 -0.1150 -0.5740  0.6673
 1362SOL    HW2 4986   4.030   3.035   3.402 -0.1771  0.1481  0.7287
 1363SOL     OW 4987   6.628   6.812   4.058  0.0145  0.2912 -0.2399
 1363SOL    HW1 4988   6.688   6.762   3.995  1.8422  0.3907  1.3276
 1363SOL    HW2 4989   6.549   6.756   4.081  1.1708 -1.2346  0.1635
 1364SOL     OW 4990   3.501   3.744   1.516 -0.5405 -0.5331 -0.0676
 1364SOL    HW1 4991   3.493   3.753   1.616  1.4927 -0.2904  0.1236
 1364SOL    HW2 4992   3.469   3.654   1.488 -1.8145 -0.3468  0.6875
 1365SOL     OW 4993   4.005   4.759   6.756 -0.7493  0.1480 -0.1782
 1365SOL    HW1 4994   3.974   4.844   6.798 -1.2200  0.2753 -0.7622
 1365SOL    HW2 4995   4.054   4.704   6.823  0.0757  1.1337  0.0617
 1366SOL     OW 4996   0.700   0.674   4.053 -0.1959  0.0797  0.3394
 1366SOL    HW1 4997   0.773   0.680   4.121 -0.5720 -1.4904  0.9257
 1366SOL    HW2 4998   0.736   0.696   3.963  0.4109  1.7661  0.9610
 1367SOL     OW 4999   1.904   2.069   3.262 -0.6777 -0.1601  0.2590
 1367SOL    HW1 5000   1.888   2.133   3.188  0.4244 -2.2848 -1.9480
 1367SOL    HW2 5001   1.927   2.119   3.346  0.5110  2.2904 -1.4291
 1368SOL     OW 5002   0.086   6.666   2.992  0.0767  0.2146  0.0769
 1368SOL    HW1 5003   0.052   6.634   3.080  0.2726 -1.9723 -0.5889
 1368SOL    HW2 5004   0.180   6.699   3.001  0.3647 -0.7329  0.5384
 1369SOL     OW 5005   6.813   4.642   3.698 -0.0286 -0.3241 -0.0621
 1369SOL    HW1 5006   6.837   4.604   3.609  1.3799  0.6927 -0.1511
 1369SOL    HW2 5007   6.844   4.737   3.704 -1.5498  0.1596  0.9319
 1370SOL     OW 5008   6.365   1.261   4.400  0.2652  0.4800 -0.1199
 1370SOL    HW1 5009   6.382   1.319   4.479 -0.8362 -0.1029  0.5593
 1370SOL    HW2 5010   6.273   1.224   4.404 -0.1515  1.1550 -2.1513
 1371SOL     OW 5011   2.336   6.980   3.929  0.5334  0.1990 -0.4072
 1371SOL    HW1 5012   2.295   6.964   4.018 -0.0491  0.5990 -0.5922
 1371SOL    HW2 5013   2.336   7.079   3.910 -1.1716  0.0156 -1.6603
 1372SOL     OW 5014   2.295   2.347   2.996 -0.2296  0.6034  0.5964
 1372SOL    HW1 5015   2.353   2.309   2.924 -0.3119  0.1684  0.7587
 1372SOL    HW2 5016   2.317   2.444   3.008 -0.7275  0.8755 -0.5302
 1373SOL     OW 5017   3.008   5.354   0.468  0.3095 -0.1973 -0.3137
 1373SOL    HW1 5018   2.993   5.347   0.369  0.6117 -1.0656 -0.3109
 1373SOL    HW2 5019   3.017   5.262   0.507  1.1860  0.1532  0.3591
 1374SOL     OW 5020   5.029   3.061   5.004  0.2964 -0.2083 -0.5468
 1374SOL    HW1 5021   5.103   3.040   4.940  1.1375  1.6686 -0.2629
 1374SOL    HW2 5022   4.943   3.072   4.954  0.4140 -1.3346 -1.0132
 1375SOL     OW 5023   1.471   4.646   3.395 -0.4745 -0.2766  0.0313
 1375SOL    HW1 5024   1.508   4.607   3.310 -0.3190  1.2819 -0.6474
 1375SOL    HW2 5025   1.545   4.655   3.462 -0.1543  0.3628 -0.3943
 1376SOL     OW 5026   6.461   6.495   3.012 -0.4535 -0.0364 -0.1806
 1376SOL    HW1 5027   6.469   6.593   2.996  1.1006 -0.0428  0.4524
 1376SOL    HW2 5028   6.399   6.478   3.088  0.6692  0.5754  0.9006
 1377SOL     OW 5029   0.513   3.310   5.719 -0.5381 -0.0031 -0.5781
 1377SOL    HW1 5030   0.515   3.275   5.625 -0.1932 -3.2272  0.5209
 1377SOL    HW2 5031   0.583   3.265   5.773 -2.4812 -0.3035  1.8641
 1378SOL     OW 5032   0.910   3.543   0.028  0.0430  0.1790 -0.3836
 1378SOL    HW1 5033   1.006   3.515   0.039 -0.0049 -0.2406 -1.0041
 1378SOL    HW2 5034   0.867   3.549   0.118  0.1779 -1.3448 -0.2001
 1379SOL     OW 5035   3.243   5.490   3.152 -0.4828 -0.3511 -0.3293
 1379SOL    HW1 5036   3.223   5.398   3.185  2.2450 -0.7623  0.4841
 1379SOL    HW2 5037   3.282   5.544   3.226 -0.4550  0.8868 -1.2229
 1380SOL     OW 5038   0.360   5.900   3.988  0.0158  0.5386  0.2819
 1380SOL    HW1 5039   0.382   5.979   3.931 -0.9449  0.7979  0.2466
 1380SOL    HW2 5040   0.331   5.932   4.078 -0.0429  0.2086  0.3794
 1381SOL     OW 5041   2.892   6.253   3.806 -0.0528 -0.2786  0.0776
 1381SOL    HW1 5042   2.929   6.160   3.802  0.6474  0.0026 -0.0966
 1381SOL    HW2 5043   2.874   6.286   3.713 -0.2517 -0.2125  0.1376
 1382SOL     OW 5044   1.013   4.709   0.490 -0.4816  0.1929 -0.4483
 1382SOL    HW1 5045   0.973   4.689   0.401 -0.0833 -0.8261 -0.4143
 1382SOL    HW2 5046   0.983   4.799   0.521 -0.6782  0.5289 -1.5746
 1383SOL     OW 5047   3.012   5.856   0.115 -0.0658  0.1801  0.6597
 1383SOL    HW1 5048   3.087   5.814   0.064 -0.8948 -1.4876  0.7306
 1383SOL    HW2 5049   3.008   5.954   0.095  1.6571  0.1641  0.1023
 1384SOL     OW 5050   0.976   6.309   2.012 -0.2726 -0.0770 -0.9285
 1384SOL    HW1 5051   1.073   6.292   1.996 -0.0139  2.0027 -1.8975
 1384SOL    HW2 5052   0.959   6.316   2.110  0.7010  0.2867 -0.7727
 1385SOL     OW 5053   5.486   3.977   4.374 -0.5717 -0.3105 -0.5120
 1385SOL    HW1 5054   5.436   4.064   4.381 -0.7183 -0.4036 -0.4079
 1385SOL    HW2 5055   5.560   3.987   4.307 -0.7758 -0.1958 -0.7222
 1386SOL     OW 5056   1.477   2.178   3.618 -0.3328  0.7020 -0.2676
 1386SOL    HW1 5057   1.380   2.177   3.592 -0.5532 -0.0103  0.5397
 1386SOL    HW2 5058   1.518   2.089   3.596 -0.4600  0.1673  1.5129
 1387SOL     OW 5059   4.995   0.605   5.882 -0.1264 -0.2309  0.6366
 1387SOL    HW1 5060   4.927   0.604   5.956  0.7247  1.8239  1.5024
 1387SOL    HW2 5061   5.045   0.518   5.881 -1.2924 -0.9365  1.3549
 1388SOL     OW 5062   5.509   1.452   4.641  0.1879 -0.2372  0.2300
 1388SOL    HW1 5063   5.474   1.362   4.667 -0.2071 -1.0035 -2.6195
 1388SOL    HW2 5064   5.433   1.510   4.612  0.7101  0.0882 -0.5047
 1389SOL     OW 5065   0.258   1.680   4.260 -0.2784 -0.5762  0.1323
 1389SOL    HW1 5066   0.158   1.686   4.259 -0.2873 -0.7538 -0.0824
 1389SOL    HW2 5067   0.297   1.771   4.258 -0.4154 -0.5381 -1.3992
 1390SOL     OW 5068   5.175   0.531   2.607 -0.1658  0.1883  0.0637
 1390SOL    HW1 5069   5.120   0.461   2.652 -1.7589  0.3048 -1.6032
 1390SOL    HW2 5070   5.242   0.487   2.547  0.3492  0.0792  0.7067
 1391SOL     OW 5071   5.196   7.004   4.839  0.4240  0.4007  0.2438
 1391SOL    HW1 5072   5.270   7.070   4.854 -0.8693  1.7325  0.9815
 1391SOL    HW2 5073   5.169   7.006   4.742  0.2092  1.1779  0.3114
 1392SOL     OW 5074   2.946   6.566   5.034  0.5261  0.4704  0.1684
 1392SOL    HW1 5075   2.896   6.536   5.115  1.6856 -1.4862  0.2062
 1392SOL    HW2 5076   2.886   6.562   4.954  0.3676 -1.0127  0.3475
 1393SOL     OW 5077   4.651   5.102   0.690 -0.3105  0.3111 -0.1217
 1393SOL    HW1 5078   4.695   5.047   0.619 -1.5929 -0.0241 -0.6969
 1393SOL    HW2 5079   4.551   5.093   0.682 -0.5286  1.8661  0.4551
 1394SOL     OW 5080   4.467   0.929   5.793  0.2362 -0.0177 -0.0903
 1394SOL    HW1 5081   4.465   0.842   5.844 -1.2503  0.1105  0.1217
 1394SOL    HW2 5082   4.489   0.910   5.698  0.4351 -0.5760  0.0589
 1395SOL     OW 5083   1.229   3.914   1.847  0.2706 -0.0339 -0.0934
 1395SOL    HW1 5084   1.278   3.995   1.817  2.1099 -1.1919 -0.3719
 1395SOL    HW2 5085   1.285   3.863   1.912 -0.8848 -1.0580  0.1447
 1396SOL     OW 5086   1.666   0.591   2.865  0.2187  0.0378 -0.7792
 1396SOL    HW1 5087   1.617   0.607   2.779 -1.8525 -1.0259  0.1417
 1396SOL    HW2 5088   1.682   0.493   2.877  1.6725  0.2764 -0.5274
 1397SOL     OW 5089   1.481   6.884   4.223  1.3235  0.1833  0.0734
 1397SOL    HW1 5090   1.403   6.825   4.201  0.0872  0.5572  3.0428
 1397SOL    HW2 5091   1.555   6.828   4.260  1.7385  0.0822 -0.8634
 1398SOL     OW 5092   4.609   0.624   6.199  0.2353  0.2907  0.1825
 1398SOL    HW1 5093   4.707   0.644   6.201  0.5573 -1.2154  1.6762
 1398SOL    HW2 5094   4.557   0.708   6.212  1.3646  0.9243  0.6969
 1399SOL     OW 5095   3.941   1.185   1.188 -0.6709 -0.1138  0.2547
 1399SOL    HW1 5096   3.955   1.281   1.212  0.3296 -0.2571  0.2826
 1399SOL    HW2 5097   4.013   1.130   1.228 -0.5242 -0.7180 -0.7966
 1400SOL     OW 5098   0.160   4.290   4.929  0.2121  0.6071  0.3891
 1400SOL    HW1 5099   0.155   4.277   4.830 -0.5531  1.3033  0.3200
 1400SOL    HW2 5100   0.087   4.238   4.973  0.8815 -0.1316  0.6455
 1401SOL     OW 5101   3.468   6.647   2.511 -0.0802  0.9315 -0.0470
 1401SOL    HW1 5102   3.372   6.648   2.537  0.2537  0.5798  1.2738
 1401SOL    HW2 5103   3.504   6.554   2.516  0.3104  1.0465 -0.6093
 1402SOL     OW 5104   5.224   4.388   3.039  0.0183 -0.1264  0.2095
 1402SOL    HW1 5105   5.236   4.421   3.133 -0.3859 -0.5253  0.4033
 1402SOL    HW2 5106   5.290   4.315   3.021  0.5195  0.3735 -0.0289
 1403SOL     OW 5107   2.125   0.879   0.950 -0.7447 -0.1854 -0.3856
 1403SOL    HW1 5108   2.105   0.851   0.856  1.4954 -0.1238 -0.9431
 1403SOL    HW2 5109   2.197   0.948   0.949 -1.1799  0.3346  1.3636
 1404SOL     OW 5110   5.422   5.424   0.783 -0.0408 -0.7093  0.0233
 1404SOL    HW1 5111   5.335   5.464   0.754  0.6122 -0.0062 -1.0346
 1404SOL    HW2 5112   5.406   5.331   0.817 -1.4192 -0.0379  1.3664
 1405SOL     OW 5113   2.183   4.664   1.756  0.4015 -0.2742 -0.1763
 1405SOL    HW1 5114   2.279   4.656   1.732  0.4929 -0.1011  0.1218
 1405SOL    HW2 5115   2.141   4.573   1.759  1.5017 -0.8195  3.4828
 1406SOL     OW 5116   2.269   1.076   1.689  0.5187  0.0016  0.1137
 1406SOL    HW1 5117   2.241   1.130   1.609  0.9720  0.6421  0.3839
 1406SOL    HW2 5118   2.250   1.127   1.772 -2.0622 -1.5648  0.5999
 1407SOL     OW 5119   5.539   2.722   1.657 -0.2636 -0.1039  1.0757
 1407SOL    HW1 5120   5.536   2.736   1.558  1.4837 -0.5162  0.9305
 1407SOL    HW2 5121   5.488   2.639   1.680 -2.7032  1.2493  0.8441
 1408SOL     OW 5122   4.394   5.405   1.557 -1.2449  0.6068  0.1720
 1408SOL    HW1 5123   4.353   5.370   1.472  0.6750 -0.9815 -0.1781
 1408SOL    HW2 5124   4.440   5.491   1.538 -0.5808  0.1216 -0.5060
 1409SOL     OW 5125   5.874   3.087   6.430 -0.3254 -0.2271  0.1402
 1409SOL    HW1 5126   5.930   3.038   6.497  1.8678  0.2155 -1.2404
 1409SOL    HW2 5127   5.848   3.025   6.357  1.7615  0.3593 -1.1918
 1410SOL     OW 5128   5.967   6.820   1.434  0.4671  0.1822 -0.0049
 1410SOL    HW1 5129   6.058   6.853   1.408  1.0617 -1.6578 -0.4150
 1410SOL    HW2 5130   5.958   6.824   1.533  1.0955  0.1633  0.0604
 1411SOL     OW 5131   3.908   6.427   0.372  0.2003 -0.1008  0.5182
 1411SOL    HW1 5132   4.007   6.427   0.382  0.5743  0.1656 -2.4076
 1411SOL    HW2 5133   3.873   6.519   0.390  0.2985 -0.3893  2.4436
 1412SOL     OW 5134   0.986   6.644   0.147 -0.1824  0.1366  0.5759
 1412SOL    HW1 5135   1.073   6.597   0.157 -1.0812 -1.1303  3.3662
 1412SOL    HW2 5136   0.997   6.741   0.170  0.5516  0.1023  0.3792
 1413SOL     OW 5137   1.037   0.905   4.922  0.1164 -0.7110  0.0222
 1413SOL    HW1 5138   1.000   0.877   5.010  0.5581 -0.2983  0.3478
 1413SOL    HW2 5139   1.127   0.864   4.908  0.9742  0.8412  0.7078
 1414SOL     OW 5140   5.404   5.030   2.522 -0.4392  0.1907  0.2034
 1414SOL    HW1 5141   5.354   4.962   2.575 -0.3071  0.7986  1.1226
 1414SOL    HW2 5142   5.465   5.081   2.582 -1.3901  1.9116 -0.2503
 1415SOL     OW 5143   4.526   0.893   5.467  0.2895 -0.4897  0.3884
 1415SOL    HW1 5144   4.483   0.921   5.381  0.3169  0.5801  0.7148
 1415SOL    HW2 5145   4.607   0.838   5.447  1.1936  1.0437 -0.3217
 1416SOL     OW 5146   3.143   6.906   6.125 -0.2876 -0.0523 -0.0498
 1416SOL    HW1 5147   3.162   6.964   6.204 -0.1305 -0.8349  0.4937
 1416SOL    HW2 5148   3.091   6.958   6.057 -2.8980 -0.1597  1.7374
 1417SOL     OW 5149   4.086   3.792   4.121 -0.0842  0.2210  0.3366
 1417SOL    HW1 5150   4.166   3.850   4.137  0.1554 -0.3166  1.1790
 1417SOL    HW2 5151   4.097   3.705   4.170  0.2247 -1.1747 -2.0284
 1418SOL     OW 5152   4.179   2.465   5.560 -0.2754 -0.0313  0.1886
 1418SOL    HW1 5153   4.112   2.539   5.567 -0.7352 -0.5499  1.5011
 1418SOL    HW2 5154   4.222   2.450   5.649 -0.9033 -1.9755  0.2106
 1419SOL     OW 5155   0.868   0.545   0.591 -0.0529 -0.2481  0.0976
 1419SOL    HW1 5156   0.895   0.454   0.621  1.7942 -0.0732 -0.8634
 1419SOL    HW2 5157   0.947   0.606   0.596 -1.7277  1.8969  2.6912
 1420SOL     OW 5158   2.988   0.422   5.901  0.1648  0.2818  0.3277
 1420SOL    HW1 5159   2.966   0.425   5.998  1.2877  0.7635  0.5834
 1420SOL    HW2 5160   2.994   0.515   5.865 -0.3165  0.1042 -0.2200
 1421SOL     OW 5161   1.786   4.002   0.700 -0.4608  0.4088 -0.2468
 1421SOL    HW1 5162   1.777   4.079   0.763  1.1983  0.5173 -0.0852
 1421SOL    HW2 5163   1.822   4.035   0.612 -1.3623  0.0508 -0.7579
 1422SOL     OW 5164   3.695   2.269   0.515  0.4317 -0.4800  0.0502
 1422SOL    HW1 5165   3.767   2.325   0.473 -1.0623  0.8771 -0.7994
 1422SOL    HW2 5166   3.616   2.264   0.454 -1.1343  0.0477  1.9173
 1423SOL     OW 5167   5.878   1.834   4.810 -0.3137  0.3922 -0.1451
 1423SOL    HW1 5168   5.810   1.827   4.883  1.5808 -2.1326  1.5337
 1423SOL    HW2 5169   5.933   1.917   4.823 -0.2840  0.1927  1.0428
 1424SOL     OW 5170   0.574   5.185   2.210  0.0537  0.3320  0.0094
 1424SOL    HW1 5171   0.497   5.213   2.267 -1.6502 -2.7589 -0.5969
 1424SOL    HW2 5172   0.551   5.200   2.114  1.1044  1.2816 -0.1238
 1425SOL     OW 5173   4.886   6.429   3.046  0.6505 -0.0799  0.0863
 1425SOL    HW1 5174   4.820   6.392   2.982  0.4322  0.1242  0.1890
 1425SOL    HW2 5175   4.844   6.436   3.137  0.7522  0.2186  0.1132
 1426SOL     OW 5176   2.632   6.893   6.795 -0.2538 -0.2280 -0.2405
 1426SOL    HW1 5177   2.631   6.823   6.866 -1.0529  1.1158  1.1170
 1426SOL    HW2 5178   2.543   6.939   6.793  0.1027  0.4443 -1.4399
 1427SOL     OW 5179   1.276   0.577   4.880  0.2948  0.0613 -0.2971
 1427SOL    HW1 5180   1.353   0.513   4.877  1.8857  1.8666 -1.0200
 1427SOL    HW2 5181   1.204   0.542   4.939  1.9581 -1.4346  0.9373
 1428SOL     OW 5182   0.244   4.251   3.721  0.2092 -1.1122  0.2512
 1428SOL    HW1 5183   0.215   4.281   3.812 -2.1965 -1.0462 -0.4541
 1428SOL    HW2 5184   0.302   4.170   3.729  1.5766 -0.0239  1.8892
 1429SOL     OW 5185   3.883   5.775   2.246 -0.0572 -0.0789  0.5003
 1429SOL    HW1 5186   3.973   5.744   2.212 -1.3214 -3.2069 -0.3460
 1429SOL    HW2 5187   3.834   5.820   2.172 -0.2986 -1.0542  0.0500
 1430SOL     OW 5188   0.774   3.768   5.142  0.6520  0.8045  0.2223
 1430SOL    HW1 5189   0.693   3.772   5.084  1.0470  2.8978 -0.2785
 1430SOL    HW2 5190   0.748   3.791   5.236  0.4588  0.1236  0.3403
 1431SOL     OW 5191   2.671   2.625   0.841  0.1948  0.3600  0.3415
 1431SOL    HW1 5192   2.608   2.682   0.892 -0.7384 -0.2771 -0.0752
 1431SOL    HW2 5193   2.684   2.663   0.750  0.6140  0.6280  0.5117
 1432SOL     OW 5194   3.678   0.256   3.655 -0.5149  0.1471  0.0586
 1432SOL    HW1 5195   3.641   0.163   3.648  0.0887 -0.3765  2.6877
 1432SOL    HW2 5196   3.762   0.262   3.601 -1.1785 -0.4721 -1.0765
 1433SOL     OW 5197   4.963   1.055   4.596 -0.4651 -0.2746 -0.4128
 1433SOL    HW1 5198   5.020   1.002   4.534  1.2985 -0.7375  1.5201
 1433SOL    HW2 5199   4.922   0.994   4.664  1.2571  0.6838  1.5916
 1434SOL     OW 5200   5.969   2.523   0.639  0.7910  0.6493  0.9832
 1434SOL    HW1 5201   6.062   2.532   0.603 -0.0018  0.0294 -1.3927
 1434SOL    HW2 5202   5.906   2.571   0.579 -0.5427  0.3379  2.0934
 1435SOL     OW 5203   5.809   6.262   4.269  0.2076 -0.9661  0.0577
 1435SOL    HW1 5204   5.842   6.223   4.184 -0.4769  0.2403 -0.8062
 1435SOL    HW2 5205   5.715   6.295   4.256  0.2092 -0.4650  1.1787
 1436SOL     OW 5206   4.414   3.019   0.056  0.1531  0.7566 -0.1002
 1436SOL    HW1 5207   4.318   3.041   0.072  0.4442  1.0870  1.2734
 1436SOL    HW2 5208   4.448   2.960   0.129  1.1432  1.1005 -0.2670
 1437SOL     OW 5209   3.471   6.002   1.997  0.1285  0.1208  0.0544
 1437SOL    HW1 5210   3.455   5.926   1.934 -0.0330 -2.1465  2.6863
 1437SOL    HW2 5211   3.397   6.069   1.987 -0.7367 -0.9612 -1.0526
 1438SOL     OW 5212   1.142   5.275   3.434 -0.9820  0.1207 -0.2102
 1438SOL    HW1 5213   1.121   5.299   3.339 -0.7820  1.1581 -0.0016
 1438SOL    HW2 5214   1.197   5.191   3.436 -2.1572 -0.6877 -0.9297
 1439SOL     OW 5215   6.642   6.100   4.562  0.4886  0.2796  0.4290
 1439SOL    HW1 5216   6.685   6.190   4.571 -0.1195  0.7818 -1.3390
 1439SOL    HW2 5217   6.570   6.090   4.630 -0.1552  1.5792 -0.0333
 1440SOL     OW 5218   2.843   3.470   2.474 -0.1665 -0.7215  0.1468
 1440SOL    HW1 5219   2.765   3.516   2.517  1.3259  0.3234  1.8540
 1440SOL    HW2 5220   2.863   3.385   2.523  0.2665 -0.5804  0.2155
 1441SOL     OW 5221   6.514   1.203   6.096  0.1862 -0.0943 -0.0567
 1441SOL    HW1 5222   6.528   1.154   6.181  0.6644 -0.4452 -0.3280
 1441SOL    HW2 5223   6.450   1.278   6.110  0.4579  0.0061  0.6670
 1442SOL     OW 5224   6.203   0.068   0.456 -0.5455  0.5945  0.1038
 1442SOL    HW1 5225   6.110   0.105   0.448 -0.4237  0.7468 -0.7409
 1442SOL    HW2 5226   6.249   0.077   0.368  1.2928  3.2255  1.2177
 1443SOL     OW 5227   3.864   3.056   5.065 -0.8112  0.0472 -0.3234
 1443SOL    HW1 5228   3.899   2.967   5.094 -2.1598 -1.0294 -1.8205
 1443SOL    HW2 5229   3.886   3.071   4.969  0.6425  2.0253  0.2441
 1444SOL     OW 5230   5.227   6.470   6.856 -0.1060  0.2448 -0.8770
 1444SOL    HW1 5231   5.229   6.506   6.949  0.3109  2.4680 -1.6976
 1444SOL    HW2 5232   5.183   6.380   6.857  1.7247 -0.7403  1.7328
 1445SOL     OW 5233   6.837   4.011   5.691 -0.1096 -0.3491  0.3559
 1445SOL    HW1 5234   6.872   3.945   5.757  0.9483  0.8288  1.0207
 1445SOL    HW2 5235   6.738   4.003   5.685  0.1038 -2.9756 -0.6905
 1446SOL     OW 5236   2.475   4.430   3.529 -0.1015 -0.1340  0.9038
 1446SOL    HW1 5237   2.544   4.488   3.485 -2.6145  2.5860  0.1625
 1446SOL    HW2 5238   2.443   4.475   3.612 -2.1371 -0.3990  0.3252
 1447SOL     OW 5239   6.234   0.546   5.681 -0.3430  1.0892  0.7793
 1447SOL    HW1 5240   6.252   0.602   5.762 -1.2074  0.7527  1.2074
 1447SOL    HW2 5241   6.317   0.496   5.657 -0.4905  0.0068  2.3731
 1448SOL     OW 5242   4.231   1.947   0.732  0.8367  0.1390  0.0743
 1448SOL    HW1 5243   4.267   1.951   0.825  0.1252 -0.0242  0.3666
 1448SOL    HW2 5244   4.287   1.886   0.677 -0.3339 -1.9929  1.1351
 1449SOL     OW 5245   1.693   0.286   0.511 -0.2910  0.0307  0.8188
 1449SOL    HW1 5246   1.675   0.362   0.573  3.1001  0.0312  1.9913
 1449SOL    HW2 5247   1.738   0.212   0.561 -0.0001 -1.1578 -1.0987
 1450SOL     OW 5248   5.967   0.910   4.985 -0.0388  0.0015 -1.1964
 1450SOL    HW1 5249   5.966   0.831   5.046  0.4545  0.6936 -0.2590
 1450SOL    HW2 5250   6.051   0.910   4.931  1.4888  1.4858  1.0343
 1451SOL     OW 5251   6.357   5.984   3.325 -0.0050 -0.1051  0.6275
 1451SOL    HW1 5252   6.365   5.948   3.233 -1.5133  0.9541  0.0329
 1451SOL    HW2 5253   6.447   6.007   3.361  0.4852  1.0654 -1.2575
 1452SOL     OW 5254   1.748   1.392   0.917  0.3514  0.2080 -0.5129
 1452SOL    HW1 5255   1.796   1.478   0.900 -0.1454  0.5382 -0.2483
 1452SOL    HW2 5256   1.673   1.407   0.981  0.1419 -0.3872 -0.6095
 1453SOL     OW 5257   0.618   3.780   2.952 -0.1214  0.2817  0.4669
 1453SOL    HW1 5258   0.628   3.699   2.894 -1.1359 -1.3689  2.4350
 1453SOL    HW2 5259   0.594   3.858   2.895 -1.2156 -1.2569 -1.3388
 1454SOL     OW 5260   6.476   6.540   2.061  0.0336 -0.8463  0.0323
 1454SOL    HW1 5261   6.429   6.628   2.054 -0.7984 -1.1830  1.0616
 1454SOL    HW2 5262   6.409   6.466   2.051 -0.0571 -1.3460  3.3437
 1455SOL     OW 5263   3.487   1.496   2.328  0.5138 -0.8166  0.1675
 1455SOL    HW1 5264   3.500   1.587   2.290  0.5533 -0.7425  0.3588
 1455SOL    HW2 5265   3.446   1.437   2.258 -1.9804  0.0238  0.8162
 1456SOL     OW 5266   5.285   5.963   5.039 -0.2813 -0.5989  0.2431
 1456SOL    HW1 5267   5.187   5.983   5.036 -0.3892 -1.2232 -1.5179
 1456SOL    HW2 5268   5.333   6.042   5.078 -1.1287  1.3748 -2.4232
 1457SOL     OW 5269   2.458   2.562   3.083 -0.0899 -0.2003  0.5998
 1457SOL    HW1 5270   2.531   2.508   3.125  2.0865  1.4064 -0.8710
 1457SOL    HW2 5271   2.414   2.619   3.152  2.4501  1.3566  1.0359
 1458SOL     OW 5272   6.351   5.299   6.487  0.2295  0.4047  0.3094
 1458SOL    HW1 5273   6.346   5.246   6.572 -0.1009  0.5530  0.3849
 1458SOL    HW2 5274   6.259   5.323   6.457  0.3812  1.2726  0.4917
 1459SOL     OW 5275   4.345   6.627   0.705 -0.9929 -0.0705  0.1397
 1459SOL    HW1 5276   4.301   6.715   0.683  0.6813  1.0703  1.1531
 1459SOL    HW2 5277   4.294   6.582   0.778  0.5347  2.2244  2.7908
 1460SOL     OW 5278   0.677   0.449   0.855  0.3024 -0.2709 -0.3391
 1460SOL    HW1 5279   0.595   0.400   0.826  1.3014 -2.4283  0.2561
 1460SOL    HW2 5280   0.757   0.410   0.808  1.4599 -1.1317  2.1862
 1461SOL     OW 5281   4.850   2.978   2.241  0.4534  0.1634  0.3633
 1461SOL    HW1 5282   4.938   3.021   2.263  0.3165  0.3771  0.5046
 1461SOL    HW2 5283   4.816   3.014   2.154  0.4344  0.1919  0.3826
 1462SOL     OW 5284   5.693   1.047   6.337  0.0018  0.5215  0.3088
 1462SOL    HW1 5285   5.607   1.098   6.328 -0.4598 -0.1565  0.7587
 1462SOL    HW2 5286   5.689   0.988   6.418  1.5753  1.7749  1.3603
 1463SOL     OW 5287   2.229   3.615   5.288 -0.5543  0.2519  0.4713
 1463SOL    HW1 5288   2.303   3.683   5.287 -1.6981  1.6394  2.5485
 1463SOL    HW2 5289   2.170   3.629   5.209  0.4171  0.2367 -0.2801
 1464SOL     OW 5290   1.973   1.657   1.479  0.2975 -0.1380  0.1964
 1464SOL    HW1 5291   1.915   1.578   1.500  0.3003 -0.1167  0.2868
 1464SOL    HW2 5292   2.063   1.644   1.521  0.5060 -0.3760 -0.3216
 1465SOL     OW 5293   1.731   0.312   3.784 -0.4020 -0.1305  0.2619
 1465SOL    HW1 5294   1.672   0.256   3.726 -0.8134 -1.5405  1.9625
 1465SOL    HW2 5295   1.822   0.318   3.743 -1.7999  2.8280 -2.8667
 1466SOL     OW 5296   6.326   5.081   3.104 -0.2211 -0.0343  0.0798
 1466SOL    HW1 5297   6.246   5.056   3.159 -1.0789  0.2254 -1.0034
 1466SOL    HW2 5298   6.367   4.999   3.066 -2.1671 -0.0425 -2.2873
 1467SOL     OW 5299   2.179   5.373   5.750 -0.9646  0.3003  0.7757
 1467SOL    HW1 5300   2.201   5.395   5.845 -1.5617  2.5416  0.4567
 1467SOL    HW2 5301   2.138   5.453   5.706 -0.6293 -0.6575 -1.4142
 1468SOL     OW 5302   3.138   0.924   1.434  0.7018 -0.4561  0.1626
 1468SOL    HW1 5303   3.213   0.897   1.494  1.3545  0.8443 -0.0330
 1468SOL    HW2 5304   3.061   0.861   1.446  1.7151 -1.6451  0.5668
 1469SOL     OW 5305   6.923   1.633   2.850  0.4570 -0.2036  0.2440
 1469SOL    HW1 5306   6.871   1.612   2.933  0.2667  1.3892  0.5496
 1469SOL    HW2 5307   6.896   1.722   2.815  1.9654  0.0345 -0.3933
 1470SOL     OW 5308   6.977   0.929   1.720  0.1152  0.3012  0.1626
 1470SOL    HW1 5309   6.914   0.859   1.686  0.6625  0.1668 -0.6039
 1470SOL    HW2 5310   7.030   0.965   1.644  1.1523  0.2289  0.8333
 1471SOL     OW 5311   5.518   2.781   1.382  0.0794 -0.0839  0.3081
 1471SOL    HW1 5312   5.508   2.726   1.299  0.9601 -2.0196  1.4142
 1471SOL    HW2 5313   5.440   2.844   1.390  0.0455  0.2448 -2.0059
 1472SOL     OW 5314   4.759   3.629   5.550 -0.0915  0.1558  0.3221
 1472SOL    HW1 5315   4.740   3.693   5.475 -1.0565  1.1301  1.3600
 1472SOL    HW2 5316   4.755   3.678   5.637 -0.1890 -1.1966  1.0989
 1473SOL     OW 5317   5.425   2.261   2.213  0.3875 -0.0437  0.0288
 1473SOL    HW1 5318   5.336   2.306   2.206  0.3592 -0.1360 -0.2085
 1473SOL    HW2 5319   5.438   2.200   2.135  1.3426  1.1932 -0.8240
 1474SOL     OW 5320   4.744   6.615   3.877  0.1493 -0.2706 -0.1705
 1474SOL    HW1 5321   4.675   6.564   3.927  1.4471 -2.0243 -0.0533
 1474SOL    HW2 5322   4.793   6.553   3.815  1.2013  1.0308 -0.6952
 1475SOL     OW 5323   4.854   5.659   3.097  0.2227 -0.6857 -0.3665
 1475SOL    HW1 5324   4.927   5.720   3.065 -0.4820  0.2967 -0.1431
 1475SOL    HW2 5325   4.794   5.635   3.021  0.3835 -0.9507 -0.4128
 1476SOL     OW 5326   1.836   1.877   1.669  0.2822 -0.3205 -0.4057
 1476SOL    HW1 5327   1.891   1.797   1.648 -0.8449 -0.9230 -1.1805
 1476SOL    HW2 5328   1.830   1.935   1.588  2.4472  1.4495  0.5855
 1477SOL     OW 5329   2.567   1.194   2.861 -0.3009  0.0790  0.0773
 1477SOL    HW1 5330   2.561   1.184   2.761 -0.8268 -1.8623  0.2716
 1477SOL    HW2 5331   2.658   1.167   2.892 -0.3004  0.1975  0.1787
 1478SOL     OW 5332   0.987   5.549   0.588 -0.0967  0.0079 -0.1577
 1478SOL    HW1 5333   0.971   5.484   0.662  0.3168 -0.4240 -0.4365
 1478SOL    HW2 5334   0.908   5.609   0.578  0.0506  0.4001  0.9625
 1479SOL     OW 5335   1.380   4.158   5.314  0.4122 -0.3634  0.8689
 1479SOL    HW1 5336   1.296   4.133   5.265  0.9512 -0.0354 -0.2461
 1479SOL    HW2 5337   1.360   4.165   5.412 -1.8265  3.4569  0.3228
 1480SOL     OW 5338   3.062   1.863   1.587  0.0504  0.3743 -0.1575
 1480SOL    HW1 5339   3.083   1.766   1.572 -1.1512  0.2516 -1.2787
 1480SOL    HW2 5340   3.147   1.915   1.596  0.7356 -0.6359 -0.5741
 1481SOL     OW 5341   1.331   2.863   0.043  0.2205 -0.0473  0.0002
 1481SOL    HW1 5342   1.326   2.963   0.032 -1.0894 -0.1269 -0.3305
 1481SOL    HW2 5343   1.427   2.834   0.040  0.7087  1.3047  1.1595
 1482SOL     OW 5344   5.856   0.847   4.504 -0.2040  0.4551 -0.4699
 1482SOL    HW1 5345   5.786   0.916   4.484 -0.0475  0.5332 -0.7497
 1482SOL    HW2 5346   5.933   0.890   4.551 -1.1945  0.0200  1.6491
 1483SOL     OW 5347   0.200   3.897   6.964 -0.6137 -0.1378  0.0186
 1483SOL    HW1 5348   0.154   3.809   6.977 -0.0660 -0.7845 -2.0547
 1483SOL    HW2 5349   0.132   3.970   6.971 -1.5995 -0.9198 -0.9340
 1484SOL     OW 5350   5.308   0.158   3.739 -0.6363  0.4101 -0.1166
 1484SOL    HW1 5351   5.262   0.101   3.670 -1.7486 -0.5669  1.3780
 1484SOL    HW2 5352   5.264   0.247   3.744 -2.2795 -0.4110  1.0898
 1485SOL     OW 5353   5.310   4.297   3.618  0.1626 -0.6375 -0.0665
 1485SOL    HW1 5354   5.230   4.357   3.613 -0.5475 -1.5874 -0.5651
 1485SOL    HW2 5355   5.348   4.300   3.710 -0.1703  0.1784  0.0539
 1486SOL     OW 5356   3.487   3.237   2.263 -0.7726 -0.5925 -0.7155
 1486SOL    HW1 5357   3.463   3.261   2.169  0.9760  1.9852 -0.5987
 1486SOL    HW2 5358   3.465   3.314   2.323  1.2133 -0.8830  0.4477
 1487SOL     OW 5359   0.231   6.427   6.553 -0.5156  0.0971 -0.0159
 1487SOL    HW1 5360   0.238   6.327   6.551 -0.5520  0.0898 -2.3307
 1487SOL    HW2 5361   0.135   6.454   6.545 -0.5255  0.3372  0.8249
 1488SOL     OW 5362   3.683   0.674   4.990 -0.3432  0.6506 -0.1369
 1488SOL    HW1 5363   3.727   0.703   5.075 -0.3148 -0.2223  0.1566
 1488SOL    HW2 5364   3.593   0.637   5.010 -1.0226  1.9362 -0.6802
 1489SOL     OW 5365   3.047   4.858   5.990  0.4098 -0.3108  0.0735
 1489SOL    HW1 5366   3.077   4.841   5.896  1.2397  1.5538 -0.0342
 1489SOL    HW2 5367   3.084   4.787   6.050  1.6032 -0.3674 -0.7029
 1490SOL     OW 5368   3.290   2.651   0.617 -0.2684 -0.3935  0.2792
 1490SOL    HW1 5369   3.377   2.601   0.615  1.3169  2.2269 -0.6028
 1490SOL    HW2 5370   3.242   2.636   0.531  0.5466  0.1668 -0.2853
 1491SOL     OW 5371   1.875   2.009   5.536  0.0104 -0.0206  0.1226
 1491SOL    HW1 5372   1.929   1.932   5.570  0.5185  1.3383  2.6132
 1491SOL    HW2 5373   1.898   2.025   5.439  2.5539 -0.7867  0.5102
 1492SOL     OW 5374   0.997   2.571   1.318 -0.3441 -0.0169  0.1906
 1492SOL    HW1 5375   1.057   2.538   1.245 -1.2638 -1.5191  0.0703
 1492SOL    HW2 5376   1.020   2.524   1.404 -0.7597  0.0546  0.3447
 1493SOL     OW 5377   6.400   1.507   5.145  0.4360  0.4080  0.5892
 1493SOL    HW1 5378   6.495   1.477   5.137  0.9020  2.0059 -0.0896
 1493SOL    HW2 5379   6.341   1.444   5.093  1.2867  0.1958 -0.1430
 1494SOL     OW 5380   6.548   1.384   4.025 -0.3274 -0.3283 -0.4266
 1494SOL    HW1 5381   6.452   1.360   4.043 -0.2333 -0.1269  0.3901
 1494SOL    HW2 5382   6.600   1.301   4.006 -0.3336 -0.6240  0.7719
 1495SOL     OW 5383   0.402   6.256   1.977 -0.2195 -0.1067  0.4793
 1495SOL    HW1 5384   0.432   6.350   1.997 -1.2175  0.0800  1.1450
 1495SOL    HW2 5385   0.314   6.259   1.930  0.5289 -0.6720 -1.0264
 1496SOL     OW 5386   6.781   6.478   3.598  0.2720  0.1197  0.4227
 1496SOL    HW1 5387   6.715   6.427   3.653 -0.3088  2.0322  1.5985
 1496SOL    HW2 5388   6.870   6.477   3.644  0.8275 -1.5108 -0.6008
 1497SOL     OW 5389   6.885   3.323   4.852  0.2865  0.2964  0.1584
 1497SOL    HW1 5390   6.932   3.359   4.772 -0.9026  0.0161 -0.6946
 1497SOL    HW2 5391   6.888   3.223   4.850  1.8815  0.2679  1.4894
 1498SOL     OW 5392   2.115   5.055   6.655 -0.0128 -0.2620 -0.9124
 1498SOL    HW1 5393   2.131   4.964   6.693  3.2180  0.2327 -0.8082
 1498SOL    HW2 5394   2.048   5.104   6.712 -2.5557 -2.7846 -1.5167
 1499SOL     OW 5395   2.044   4.209   3.207  0.3980 -0.3246  0.1784
 1499SOL    HW1 5396   2.108   4.133   3.206  2.2963  1.1874 -0.9669
 1499SOL    HW2 5397   2.041   4.251   3.116 -0.2802  1.2178  0.8699
 1500SOL     OW 5398   2.295   4.008   6.060  0.4323  0.2850 -0.1563
 1500SOL    HW1 5399   2.231   3.949   6.011  0.7345 -0.0656 -0.1238
 1500SOL    HW2 5400   2.387   3.970   6.056  0.4232  0.1241  0.8759
 1501SOL     OW 5401   3.398   1.784   1.899 -0.3210  0.6729  0.2266
 1501SOL    HW1 5402   3.485   1.833   1.889  0.5314 -0.9713 -0.8839
 1501SOL    HW2 5403   3.413   1.701   1.953 -0.7846 -0.5492 -1.4662
 1502SOL     OW 5404   6.344   1.723   1.498 -0.2181 -0.5772  0.2748
 1502SOL    HW1 5405   6.256   1.693   1.462 -0.9044  0.2551  1.2141
 1502SOL    HW2 5406   6.355   1.691   1.592  0.1917 -0.1075  0.3911
 1503SOL     OW 5407   0.284   3.036   5.133  0.0562  0.1269 -0.1636
 1503SOL    HW1 5408   0.317   3.122   5.093  1.1197 -0.0465  0.2862
 1503SOL    HW2 5409   0.357   2.996   5.189 -0.5216 -0.9293 -0.1444
 1504SOL     OW 5410   0.371   0.203   3.091 -0.2517  0.2685  0.0745
 1504SOL    HW1 5411   0.339   0.257   3.169 -0.3591 -1.0069  0.9312
 1504SOL    HW2 5412   0.465   0.230   3.069 -0.8827  2.0188 -0.6463
 1505SOL     OW 5413   6.567   4.331   3.249  0.0539 -0.5389  0.0971
 1505SOL    HW1 5414   6.638   4.350   3.317  0.1959 -0.6435 -0.0194
 1505SOL    HW2 5415   6.586   4.243   3.206  0.5892  0.0190 -0.8523
 1506SOL     OW 5416   4.653   1.882   3.570  0.4950 -0.2491  0.4633
 1506SOL    HW1 5417   4.683   1.789   3.546  0.3649 -0.4488  1.0481
 1506SOL    HW2 5418   4.555   1.889   3.555  0.6992  0.2074 -0.8328
 1507SOL     OW 5419   3.988   1.444   6.903  0.0171  0.3524 -0.5804
 1507SOL    HW1 5420   3.982   1.355   6.949 -2.7631 -0.2676 -1.9815
 1507SOL    HW2 5421   4.028   1.511   6.966 -3.6902 -0.3810  2.9562
 1508SOL     OW 5422   5.866   0.626   1.718 -0.5062  0.0598  0.4228
 1508SOL    HW1 5423   5.799   0.691   1.752  0.7623  0.8045  1.6052
 1508SOL    HW2 5424   5.914   0.666   1.640  0.3140  0.6084  1.1860
 1509SOL     OW 5425   6.459   2.591   5.736  0.1020 -0.2017 -0.2391
 1509SOL    HW1 5426   6.388   2.528   5.704 -0.3122  1.3032 -2.5750
 1509SOL    HW2 5427   6.527   2.604   5.663  1.9737 -0.4194  1.3831
 1510SOL     OW 5428   5.954   2.083   1.841 -0.1119  0.2044 -0.2243
 1510SOL    HW1 5429   5.869   2.029   1.837 -0.9192  1.4894 -2.8701
 1510SOL    HW2 5430   6.031   2.024   1.818 -0.3432 -0.7518  1.2390
 1511SOL     OW 5431   3.518   1.667   0.738 -0.2354 -0.3532 -0.2252
 1511SOL    HW1 5432   3.459   1.721   0.678  0.9472  1.6984  0.3728
 1511SOL    HW2 5433   3.578   1.609   0.683 -0.9375 -0.4389 -0.9191
 1512SOL     OW 5434   0.250   0.270   1.459  0.4949 -0.1027 -0.3045
 1512SOL    HW1 5435   0.232   0.354   1.510  1.1540  1.4529 -2.4963
 1512SOL    HW2 5436   0.300   0.206   1.518 -1.0759  0.4708  1.8132
 1513SOL     OW 5437   2.058   0.135   2.837 -0.2158  0.1934 -0.0563
 1513SOL    HW1 5438   2.092   0.041   2.834 -1.6413 -0.3387 -0.4316
 1513SOL    HW2 5439   2.029   0.163   2.746  0.1652  0.9918  0.0599
 1514SOL     OW 5440   5.286   0.415   0.692 -0.4421  0.3716 -0.2417
 1514SOL    HW1 5441   5.289   0.331   0.637 -2.5632  0.0109  0.0861
 1514SOL    HW2 5442   5.309   0.493   0.634  2.6345 -0.4718 -0.2955
 1515SOL     OW 5443   5.572   5.943   4.653 -0.0689  1.0567 -0.3021
 1515SOL    HW1 5444   5.599   5.956   4.557 -0.6312 -0.9227 -0.7689
 1515SOL    HW2 5445   5.653   5.949   4.711  0.4184  1.3883 -0.9939
 1516SOL     OW 5446   7.021   2.049   2.822 -0.5354  0.2387 -0.1278
 1516SOL    HW1 5447   7.020   2.143   2.856 -2.3757 -0.4861  2.0588
 1516SOL    HW2 5448   7.112   2.009   2.837 -0.4836  0.8563  1.3728
 1517SOL     OW 5449   3.975   5.429   2.828  0.9003  0.1881 -0.3940
 1517SOL    HW1 5450   3.965   5.473   2.917  2.1112  1.5146 -0.8778
 1517SOL    HW2 5451   3.918   5.477   2.761 -1.1055 -1.6519 -0.1261
 1518SOL     OW 5452   0.405   4.608   0.841 -0.0021  0.0077 -0.0756
 1518SOL    HW1 5453   0.470   4.675   0.806 -0.3872 -0.1757 -1.1823
 1518SOL    HW2 5454   0.391   4.623   0.939 -0.8332  2.1770 -0.4660
 1519SOL     OW 5455   0.923   4.244   0.034 -0.1134 -0.9429  0.5947
 1519SOL    HW1 5456   0.936   4.145   0.035 -1.4560 -1.2238 -1.6419
 1519SOL    HW2 5457   0.915   4.278   0.128  1.2698 -2.7769  1.4476
 1520SOL     OW 5458   1.792   3.443   3.510 -0.9776 -0.5339  0.6236
 1520SOL    HW1 5459   1.767   3.379   3.582  0.2168 -0.2078  1.3706
 1520SOL    HW2 5460   1.711   3.491   3.478 -1.5991 -1.0368  1.4125
 1521SOL     OW 5461   3.098   5.336   5.386 -0.1648  0.3838 -0.5267
 1521SOL    HW1 5462   3.116   5.313   5.291 -0.8026 -3.1068  0.0867
 1521SOL    HW2 5463   3.001   5.355   5.398 -0.4317 -1.0235 -0.2997
 1522SOL     OW 5464   2.324   1.715   6.467  0.9089 -1.0322  0.0990
 1522SOL    HW1 5465   2.315   1.663   6.381  2.4524  0.4837 -1.0574
 1522SOL    HW2 5466   2.309   1.812   6.448  0.8585 -0.7216  1.6494
 1523SOL     OW 5467   3.862   3.267   0.029  0.5739  0.0442 -0.3721
 1523SOL    HW1 5468   3.899   3.321  -0.047  0.6195  0.5052 -0.0243
 1523SOL    HW2 5469   3.842   3.175  -0.003  1.6354 -0.0988 -0.6827
 1524SOL     OW 5470   1.131   1.258   2.357 -0.2887 -0.2935  0.3147
 1524SOL    HW1 5471   1.095   1.236   2.266 -1.4362 -0.4667  0.7987
 1524SOL    HW2 5472   1.109   1.185   2.421  1.0367 -0.4525  0.6186
 1525SOL     OW 5473   4.583   2.431   5.108 -0.0627 -0.6098 -0.0655
 1525SOL    HW1 5474   4.632   2.407   5.191 -1.8380  2.1182  1.9409
 1525SOL    HW2 5475   4.613   2.521   5.075 -0.5264 -0.9267 -1.4458
 1526SOL     OW 5476   5.948   3.080   1.182 -0.0941 -0.1008 -0.0210
 1526SOL    HW1 5477   5.870   3.081   1.244 -0.0423 -0.0573  0.0442
 1526SOL    HW2 5478   5.964   2.986   1.150 -0.0666 -0.1377  0.1003
 1527SOL     OW 5479   1.690   0.024   5.649 -0.2771  0.1506  0.2581
 1527SOL    HW1 5480   1.722   0.093   5.584  0.9788 -0.4113  0.2459
 1527SOL    HW2 5481   1.731   0.041   5.738 -0.2360 -0.3625  0.3395
 1528SOL     OW 5482   4.931   6.587   0.872  0.0222  0.4714 -0.2006
 1528SOL    HW1 5483   5.006   6.528   0.899 -1.1585  0.0311  2.4065
 1528SOL    HW2 5484   4.844   6.542   0.892 -0.9864  1.1095 -2.8071
 1529SOL     OW 5485   1.718   5.808   6.897 -0.0838  0.3648 -0.0331
 1529SOL    HW1 5486   1.676   5.823   6.807 -1.6305  3.2519  1.0503
 1529SOL    HW2 5487   1.812   5.842   6.896  0.0127  0.0916 -0.6310
 1530SOL     OW 5488   4.051   5.412   1.788  0.1069  0.1695 -0.1660
 1530SOL    HW1 5489   4.147   5.398   1.814  0.5676 -2.6174 -2.8196
 1530SOL    HW2 5490   4.046   5.480   1.715  0.0876  0.1661 -0.1677
 1531SOL     OW 5491   6.378   2.844   7.000 -0.5230  0.6274 -0.2853
 1531SOL    HW1 5492   6.313   2.917   6.977 -0.2603  1.4598  1.4500
 1531SOL    HW2 5493   6.452   2.882   7.055  0.1890 -0.7679 -0.2524
 1532SOL     OW 5494   4.410   1.386   6.312 -0.2145  0.1449  0.5428
 1532SOL    HW1 5495   4.441   1.362   6.220  0.9407  0.6241  0.7900
 1532SOL    HW2 5496   4.490   1.406   6.370 -0.8808 -0.7283  1.8191
 1533SOL     OW 5497   4.261   3.097   1.516  0.1442 -0.5776 -0.0196
 1533SOL    HW1 5498   4.194   3.047   1.571  0.7645 -0.4442  0.8762
 1533SOL    HW2 5499   4.353   3.078   1.551  0.3396  2.1016  1.0952
 1534SOL     OW 5500   4.136   1.200   1.896 -0.1476 -0.5909  0.0182
 1534SOL    HW1 5501   4.075   1.144   1.840 -1.5142  0.6086  0.2536
 1534SOL    HW2 5502   4.142   1.292   1.858  1.7220 -0.7176 -0.1132
 1535SOL     OW 5503   4.833   4.669   4.172 -0.1541 -0.7767  0.1791
 1535SOL    HW1 5504   4.792   4.619   4.095 -0.8748 -0.1729  0.1584
 1535SOL    HW2 5505   4.773   4.745   4.198  0.6313 -0.2976  0.6160
 1536SOL     OW 5506   1.957   6.458   2.288  0.2076 -0.2170  0.5909
 1536SOL    HW1 5507   1.861   6.483   2.273 -0.0907 -1.5541  0.0529
 1536SOL    HW2 5508   2.005   6.459   2.200 -0.2176 -2.9285  0.2431
 1537SOL     OW 5509   2.154   4.756   4.058  0.4786  0.4665 -0.4277
 1537SOL    HW1 5510   2.189   4.683   4.116  0.5725  1.2291  0.5215
 1537SOL    HW2 5511   2.055   4.748   4.050  0.2348  1.3044  1.2758
 1538SOL     OW 5512   2.909   0.096   0.461  0.0123  0.3480  0.1401
 1538SOL    HW1 5513   2.918   0.042   0.377 -0.6148 -0.7340  0.7570
 1538SOL    HW2 5514   2.952   0.185   0.447  1.8121 -0.5798 -0.6232
 1539SOL     OW 5515   1.789   6.009   0.816  0.7220  0.9011  0.0369
 1539SOL    HW1 5516   1.886   5.997   0.793  1.1104  1.0973  1.5086
 1539SOL    HW2 5517   1.778   6.010   0.915 -0.7771  1.0605 -0.1127
 1540SOL     OW 5518   0.596   0.669   6.994 -0.0971 -0.4038 -0.4826
 1540SOL    HW1 5519   0.647   0.656   6.908  1.5193 -2.4396  0.6971
 1540SOL    HW2 5520   0.535   0.747   6.984  0.7650  0.0525 -3.1452
 1541SOL     OW 5521   5.891   6.097   3.621  0.0093  0.3940 -0.1213
 1541SOL    HW1 5522   5.793   6.114   3.609  0.3340  3.7820  0.8491
 1541SOL    HW2 5523   5.943   6.158   3.561  1.4953  0.3060  0.9979
 1542SOL     OW 5524   1.122   6.344   0.530 -0.6129  0.1055  0.0553
 1542SOL    HW1 5525   1.095   6.317   0.438  0.9471  0.4016 -0.5092
 1542SOL    HW2 5526   1.192   6.282   0.564  1.1446  1.8520 -0.2490
 1543SOL     OW 5527   3.016   3.387   3.446  0.1967  0.4500  0.1271
 1543SOL    HW1 5528   3.092   3.360   3.506  0.3192  0.0502 -0.1977
 1543SOL    HW2 5529   2.972   3.469   3.482  0.3821  0.3190  0.6662
 1544SOL     OW 5530   3.869   3.030   2.299  0.1662 -0.1495 -0.1085
 1544SOL    HW1 5531   3.961   3.014   2.334 -0.0924 -0.9246  0.2213
 1544SOL    HW2 5532   3.802   3.009   2.370 -0.2837  0.0617 -0.4646
 1545SOL     OW 5533   0.485   4.188   5.217  0.2101  0.2431  0.0204
 1545SOL    HW1 5534   0.450   4.277   5.245  1.3322  0.8530 -0.4402
 1545SOL    HW2 5535   0.470   4.176   5.119 -0.9824 -0.5963  0.2778
 1546SOL     OW 5536   6.959   6.426   1.347 -0.2438  0.1337 -0.1366
 1546SOL    HW1 5537   6.935   6.404   1.442 -0.2038  1.8206  0.2926
 1546SOL    HW2 5538   6.898   6.497   1.313 -0.2394 -0.4330 -1.3899
 1547SOL     OW 5539   2.585   6.270   2.269 -0.0983  0.0063 -0.9504
 1547SOL    HW1 5540   2.595   6.171   2.282  0.5781  0.4047  2.6034
 1547SOL    HW2 5541   2.492   6.298   2.294  0.5147  0.5273  0.9456
 1548SOL     OW 5542   6.510   3.279   3.216 -0.1740  0.5295 -0.2795
 1548SOL    HW1 5543   6.418   3.267   3.179  0.5016 -0.0405 -1.8632
 1548SOL    HW2 5544   6.571   3.210   3.176  0.6609 -0.0198  1.8164
 1549SOL     OW 5545   3.952   1.640   0.995  0.7682 -0.2399  0.2001
 1549SOL    HW1 5546   3.869   1.593   1.023  0.8885  0.4821  1.9026
 1549SOL    HW2 5547   3.933   1.738   0.986  1.1774 -0.2194 -0.5238
 1550SOL     OW 5548   3.020   6.163   3.414  0.2755  0.6032  0.0202
 1550SOL    HW1 5549   3.040   6.094   3.344 -0.0650 -0.1734  0.6696
 1550SOL    HW2 5550   3.097   6.168   3.478 -0.1317  0.0752  0.5611
 1551SOL     OW 5551   0.845   1.468   3.162  0.9132  0.6855 -0.2335
 1551SOL    HW1 5552   0.854   1.565   3.137 -0.1740  0.5063 -1.4075
 1551SOL    HW2 5553   0.880   1.412   3.087 -0.2464  0.1589 -0.4004
 1552SOL     OW 5554   0.560   6.113   3.036  0.5943 -0.3970 -0.2932
 1552SOL    HW1 5555   0.547   6.212   3.032  3.5752  0.0877 -0.9453
 1552SOL    HW2 5556   0.477   6.069   3.070 -1.1018  2.2231 -0.7745
 1553SOL     OW 5557   5.963   2.681   4.832  0.6014 -0.0000 -0.1589
 1553SOL    HW1 5558   5.964   2.748   4.758 -0.8190 -0.3543 -0.5310
 1553SOL    HW2 5559   5.935   2.725   4.917  0.9972  0.1416 -0.0969
 1554SOL     OW 5560   2.381   3.586   6.785 -0.3837 -0.1474 -0.3803
 1554SOL    HW1 5561   2.322   3.586   6.704  1.2550 -0.5905 -1.6311
 1554SOL    HW2 5562   2.473   3.558   6.759  0.1668 -0.4320  1.6876
 1555SOL     OW 5563   3.288   0.864   1.699  0.1971  0.2824 -0.1399
 1555SOL    HW1 5564   3.335   0.788   1.654  1.2926  1.3303 -0.8305
 1555SOL    HW2 5565   3.353   0.915   1.756 -0.3003  1.2336 -0.4004
 1556SOL     OW 5566   4.112   2.266   6.398 -0.1176  0.4046  0.0820
 1556SOL    HW1 5567   4.112   2.283   6.299 -0.4233 -0.2728 -0.0416
 1556SOL    HW2 5568   4.041   2.321   6.441 -1.4088 -0.8382 -0.3750
 1557SOL     OW 5569   2.087   2.404   0.347 -0.1694 -0.1312  0.4936
 1557SOL    HW1 5570   2.099   2.491   0.300 -1.0167  0.3383  1.1250
 1557SOL    HW2 5571   2.080   2.421   0.446  2.8219 -1.1706  1.0005
 1558SOL     OW 5572   5.170   2.147   0.471  0.0392 -0.7004 -0.0010
 1558SOL    HW1 5573   5.166   2.230   0.526  1.0441 -1.4051  1.1943
 1558SOL    HW2 5574   5.077   2.120   0.445 -0.3838  0.1430  0.5874
 1559SOL     OW 5575   2.411   6.294   5.065  0.4860 -0.1148  0.0902
 1559SOL    HW1 5576   2.391   6.288   4.968  0.1095 -1.3933  0.2273
 1559SOL    HW2 5577   2.328   6.274   5.118  0.6247  0.7990  0.6761
 1560SOL     OW 5578   4.354   3.594   1.362 -0.1516 -0.0402 -0.0687
 1560SOL    HW1 5579   4.337   3.500   1.390  3.2557 -0.5855  0.7303
 1560SOL    HW2 5580   4.345   3.654   1.442 -0.1008 -0.0620 -0.0461
 1561SOL     OW 5581   0.322   0.504   1.847  0.0391 -0.3853  0.4340
 1561SOL    HW1 5582   0.357   0.540   1.761  0.6845 -0.9771  0.4451
 1561SOL    HW2 5583   0.377   0.538   1.923 -0.3252 -0.1300  0.5871
 1562SOL     OW 5584   3.301   6.208   1.684 -0.2120 -0.5981 -0.0269
 1562SOL    HW1 5585   3.303   6.186   1.781 -0.8483  0.6579  0.2896
 1562SOL    HW2 5586   3.298   6.307   1.672 -0.7561 -0.7507 -1.3211
 1563SOL     OW 5587   1.354   2.847   1.816  0.3817 -0.0087  0.4990
 1563SOL    HW1 5588   1.398   2.811   1.899 -0.1210 -1.0833  0.3231
 1563SOL    HW2 5589   1.380   2.790   1.738  0.1735  0.4820  0.0718
 1564SOL     OW 5590   2.326   1.873   2.096  0.1843 -0.4940  0.0206
 1564SOL    HW1 5591   2.288   1.858   2.187  2.5896 -2.2560  0.8496
 1564SOL    HW2 5592   2.379   1.958   2.096  0.1429 -0.4683  0.2452
 1565SOL     OW 5593   5.777   1.462   0.308 -0.0954 -0.3154 -0.3305
 1565SOL    HW1 5594   5.852   1.467   0.374 -0.3522  0.2234 -0.0665
 1565SOL    HW2 5595   5.742   1.368   0.305 -1.4961  0.0429  1.9539
 1566SOL     OW 5596   0.431   2.555   2.937 -0.0672  0.0057 -0.6978
 1566SOL    HW1 5597   0.518   2.507   2.945  0.2193  0.5143 -0.7545
 1566SOL    HW2 5598   0.396   2.576   3.028  0.0736  0.1691 -0.6814
 1567SOL     OW 5599   5.545   1.291   3.831  0.2243  0.5062 -0.1167
 1567SOL    HW1 5600   5.590   1.365   3.780  1.4996 -0.1831 -0.0384
 1567SOL    HW2 5601   5.461   1.264   3.783  1.0122  0.3602 -1.4954
 1568SOL     OW 5602   2.364   3.744   1.010 -0.1844 -0.0598  0.1774
 1568SOL    HW1 5603   2.282   3.718   1.062 -1.6094  1.1749 -1.3354
 1568SOL    HW2 5604   2.409   3.821   1.055 -0.2849 -0.2454  0.6061
 1569SOL     OW 5605   3.142   1.448   1.215 -0.3328 -0.5770  0.1403
 1569SOL    HW1 5606   3.090   1.409   1.292 -0.3922 -2.3985 -0.7735
 1569SOL    HW2 5607   3.210   1.382   1.185 -0.1396  0.2228 -1.2322
 1570SOL     OW 5608   1.385   6.620   6.347 -0.3065  0.0892  0.1150
 1570SOL    HW1 5609   1.468   6.590   6.394 -1.3649 -0.5687  1.6242
 1570SOL    HW2 5610   1.411   6.671   6.264  1.5786 -0.5123  0.2777
 1571SOL     OW 5611   0.294   0.535   5.015 -0.1471 -0.0650  0.2271
 1571SOL    HW1 5612   0.344   0.514   4.931 -1.0137  1.2760 -0.6698
 1571SOL    HW2 5613   0.282   0.452   5.069 -0.3680 -1.1453 -1.4296
 1572SOL     OW 5614   4.390   0.200   4.168  0.2059 -0.1315 -0.0940
 1572SOL    HW1 5615   4.415   0.103   4.171  1.1268  0.1271  1.9377
 1572SOL    HW2 5616   4.299   0.212   4.207 -0.2209 -0.2341 -1.0221
 1573SOL     OW 5617   5.546   6.634   5.622 -0.1433 -0.5437 -0.4533
 1573SOL    HW1 5618   5.544   6.701   5.548 -1.3983 -1.4801 -1.3064
 1573SOL    HW2 5619   5.633   6.585   5.620  0.1556 -0.0116 -0.7933
 1574SOL     OW 5620   6.466   2.772   3.836  0.0879  0.1086  0.2113
 1574SOL    HW1 5621   6.421   2.794   3.922 -1.7001  0.9790 -0.8901
 1574SOL    HW2 5622   6.511   2.683   3.843  0.8393  0.5959  2.3235
 1575SOL     OW 5623   6.632   2.761   5.015 -0.3883 -0.1954  0.2097
 1575SOL    HW1 5624   6.554   2.757   4.952 -1.4998 -1.1813  1.5911
 1575SOL    HW2 5625   6.633   2.850   5.060 -2.3193 -1.0398  2.0784
 1576SOL     OW 5626   0.765   3.034   2.041 -0.1011 -0.0975  0.2350
 1576SOL    HW1 5627   0.824   3.057   2.119 -0.5622 -0.7134  0.7795
 1576SOL    HW2 5628   0.746   3.117   1.988  0.9755  0.1679  0.2344
 1577SOL     OW 5629   2.954   5.119   4.718  0.2271  0.0078 -0.9833
 1577SOL    HW1 5630   3.022   5.048   4.738  0.5228  0.6156  0.2338
 1577SOL    HW2 5631   2.949   5.183   4.794  1.0362  2.1631 -2.6384
 1578SOL     OW 5632   5.386   0.649   3.031  0.1979 -0.0685 -0.4375
 1578SOL    HW1 5633   5.332   0.725   2.996  1.3048  0.4283 -1.1432
 1578SOL    HW2 5634   5.449   0.682   3.101  0.7257 -0.2981 -0.7898
 1579SOL     OW 5635   1.992   3.287   2.375 -0.3958 -0.6352 -0.1012
 1579SOL    HW1 5636   2.006   3.193   2.407 -0.3351 -0.9169 -0.9306
 1579SOL    HW2 5637   2.036   3.298   2.286  1.1320  0.6934  0.7836
 1580SOL     OW 5638   3.731   2.808   5.568 -0.2414  0.0642 -0.2094
 1580SOL    HW1 5639   3.762   2.818   5.473  1.0943  1.3176  0.3258
 1580SOL    HW2 5640   3.633   2.828   5.573 -0.6684 -1.4741 -1.5320
 1581SOL     OW 5641   6.753   5.167   3.884 -0.3297 -0.2364 -0.6588
 1581SOL    HW1 5642   6.829   5.199   3.827  0.2622 -0.2877  0.0944
 1581SOL    HW2 5643   6.707   5.091   3.839  0.3330 -0.4838 -0.9193
 1582SOL     OW 5644   4.091   5.113   4.634  0.3730  0.5833  0.1074
 1582SOL    HW1 5645   4.013   5.151   4.584 -0.1332 -2.1965 -1.3554
 1582SOL    HW2 5646   4.057   5.057   4.710  0.9410 -0.2243 -0.2291
 1583SOL     OW 5647   1.493   3.617   4.270 -0.5141 -0.2546 -0.0632
 1583SOL    HW1 5648   1.556   3.694   4.278  0.2155 -0.2762 -3.8095
 1583SOL    HW2 5649   1.399   3.651   4.267 -0.4401  0.1461  1.5301
 1584SOL     OW 5650   0.217   5.169   1.562 -0.3123  0.5913  0.3299
 1584SOL    HW1 5651   0.171   5.213   1.639 -1.4825 -0.9117  0.5414
 1584SOL    HW2 5652   0.247   5.078   1.589  1.3373  0.8950 -0.3335
 1585SOL     OW 5653   6.073   6.296   3.230 -0.2757 -0.1242 -0.0103
 1585SOL    HW1 5654   6.071   6.204   3.269  0.3033 -0.4615 -0.7385
 1585SOL    HW2 5655   6.006   6.303   3.156 -0.2098 -0.0090 -0.0602
 1586SOL     OW 5656   3.180   6.110   3.610 -0.8100 -0.2696  0.0810
 1586SOL    HW1 5657   3.165   6.145   3.702  0.9249 -0.8481  0.6345
 1586SOL    HW2 5658   3.278   6.112   3.589 -0.7728 -3.2044 -0.4613
 1587SOL     OW 5659   4.184   1.364   0.170  0.0442 -0.3167 -0.3994
 1587SOL    HW1 5660   4.103   1.321   0.129 -0.7287  0.9145 -0.2034
 1587SOL    HW2 5661   4.230   1.419   0.101 -0.9786  1.3579  0.1746
 1588SOL     OW 5662   4.556   2.428   1.356  0.5279  0.0377  0.2861
 1588SOL    HW1 5663   4.475   2.369   1.354 -1.0653  2.1300 -0.7762
 1588SOL    HW2 5664   4.603   2.424   1.267 -0.0236  0.8903 -0.0583
 1589SOL     OW 5665   0.135   6.464   2.278 -0.1281  0.1094 -0.0804
 1589SOL    HW1 5666   0.102   6.451   2.371 -0.5583 -0.9996 -0.3793
 1589SOL    HW2 5667   0.060   6.494   2.219 -0.0641 -0.0905 -0.2643
 1590SOL     OW 5668   5.629   6.177   3.248  0.2182  0.5555  1.0091
 1590SOL    HW1 5669   5.667   6.106   3.306 -2.3561 -1.6151  0.2645
 1590SOL    HW2 5670   5.600   6.137   3.161 -1.4398  2.4831  0.5937
 1591SOL     OW 5671   6.517   4.492   0.141  0.4294  0.2098 -0.5518
 1591SOL    HW1 5672   6.517   4.529   0.234 -1.4946  1.7894 -1.0939
 1591SOL    HW2 5673   6.601   4.519   0.094  3.3225 -3.7932  1.7510
 1592SOL     OW 5674   0.189   4.117   3.314  0.0543 -0.0585  0.1124
 1592SOL    HW1 5675   0.124   4.119   3.238  2.2917 -3.2905 -2.1495
 1592SOL    HW2 5676   0.148   4.069   3.392 -2.3202  3.4294  1.2685
 1593SOL     OW 5677   6.988   4.532   0.656 -0.0464  0.2528  0.4159
 1593SOL    HW1 5678   6.899   4.489   0.638 -0.0486 -0.2191  1.4838
 1593SOL    HW2 5679   7.041   4.474   0.717  1.2112  0.2944 -0.5998
 1594SOL     OW 5680   5.214   0.925   1.576 -0.5033 -0.3101 -0.6693
 1594SOL    HW1 5681   5.224   1.024   1.588 -0.0755 -0.5576  1.5821
 1594SOL    HW2 5682   5.145   0.891   1.640 -0.0664 -1.5660 -0.8400
 1595SOL     OW 5683   0.298   4.892   0.658 -0.2914  0.5043  0.3685
 1595SOL    HW1 5684   0.394   4.901   0.632 -0.3399  1.5720  0.5348
 1595SOL    HW2 5685   0.285   4.806   0.708  0.4249  0.0036 -0.2795
 1596SOL     OW 5686   5.820   1.920   4.166 -0.4081 -0.1264 -0.0365
 1596SOL    HW1 5687   5.860   1.830   4.182 -2.4334 -1.2009 -0.5731
 1596SOL    HW2 5688   5.856   1.958   4.081  1.2553  0.0914  0.7274
 1597SOL     OW 5689   4.941   5.957   1.986  0.1461 -0.2137  0.4151
 1597SOL    HW1 5690   4.965   5.882   2.047  0.3466  0.8341  1.6661
 1597SOL    HW2 5691   4.997   5.953   1.903  3.4721  1.0674  2.3841
 1598SOL     OW 5692   0.416   6.430   5.986  0.1117 -0.0574 -0.3550
 1598SOL    HW1 5693   0.498   6.382   6.017  0.1733 -0.0548 -0.5138
 1598SOL    HW2 5694   0.406   6.419   5.887  0.6910  1.1369 -0.5617
 1599SOL     OW 5695   6.881   3.808   4.212 -0.7039  0.2839  0.6879
 1599SOL    HW1 5696   6.816   3.870   4.257 -0.6964 -0.3376  1.5738
 1599SOL    HW2 5697   6.872   3.716   4.250  0.1061 -0.0017  0.2217
 1600SOL     OW 5698   5.702   0.373   1.487 -0.1822  0.8097 -0.5506
 1600SOL    HW1 5699   5.688   0.289   1.435 -2.6414  0.6939  0.1390
 1600SOL    HW2 5700   5.782   0.421   1.453  1.0968 -1.6251 -1.1885
 1601SOL     OW 5701   4.460   6.585   5.218 -0.2672  0.1774 -0.5388
 1601SOL    HW1 5702   4.456   6.571   5.317 -1.2646 -0.2357 -0.6251
 1601SOL    HW2 5703   4.370   6.616   5.186 -0.9888 -2.9014 -1.7794
 1602SOL     OW 5704   3.021   0.844   3.464 -0.0287 -0.2087  0.7225
 1602SOL    HW1 5705   3.063   0.782   3.397  1.6199 -0.7763  2.1808
 1602SOL    HW2 5706   2.937   0.881   3.427 -0.5633 -2.5380 -0.6326
 1603SOL     OW 5707   3.304   5.284   1.222  0.1809  0.4730 -0.4247
 1603SOL    HW1 5708   3.290   5.314   1.128  0.7735 -0.0147 -0.6790
 1603SOL    HW2 5709   3.230   5.318   1.280 -0.3513  0.5125 -1.1224
 1604SOL     OW 5710   5.372   6.523   4.157  0.0987  0.7864 -0.8006
 1604SOL    HW1 5711   5.349   6.569   4.243 -1.9675 -0.4437 -0.6267
 1604SOL    HW2 5712   5.301   6.541   4.089 -0.5855 -1.7377 -0.8431
 1605SOL     OW 5713   5.591   4.592   5.340 -0.5704 -0.3651 -0.9408
 1605SOL    HW1 5714   5.577   4.497   5.312  0.3398 -0.3321 -1.5495
 1605SOL    HW2 5715   5.555   4.604   5.433  1.1761 -1.8728  0.0167
 1606SOL     OW 5716   5.709   4.769   5.151 -0.3729 -0.1078  0.3664
 1606SOL    HW1 5717   5.717   4.679   5.194 -1.7995  0.2779  1.5350
 1606SOL    HW2 5718   5.633   4.819   5.193 -0.4175  1.1587 -1.1309
 1607SOL     OW 5719   4.563   4.454   3.870  0.2817  1.0177  0.2211
 1607SOL    HW1 5720   4.652   4.445   3.914  0.7768  2.6466 -0.3424
 1607SOL    HW2 5721   4.574   4.443   3.771  0.1808  2.7948 -0.0199
 1608SOL     OW 5722   5.966   3.671   0.945 -0.1240  0.1943 -0.1461
 1608SOL    HW1 5723   5.982   3.590   1.001 -0.6825  1.1093  1.4056
 1608SOL    HW2 5724   5.867   3.683   0.931 -0.0088  0.1975 -1.0226
 1609SOL     OW 5725   2.161   6.519   0.279 -0.0988  0.1532  0.6435
 1609SOL    HW1 5726   2.187   6.424   0.258 -0.4107 -0.1218  1.4617
 1609SOL    HW2 5727   2.242   6.569   0.311 -0.0282  0.0359  0.6491
 1610SOL     OW 5728   6.341   4.634   0.886 -0.3091  0.8298 -0.3498
 1610SOL    HW1 5729   6.256   4.585   0.868 -0.8858  1.9406 -0.7694
 1610SOL    HW2 5730   6.411   4.604   0.820 -0.8383  1.0056 -1.0066
 1611SOL     OW 5731   0.115   6.038   0.737  0.5026 -0.2243  0.2065
 1611SOL    HW1 5732   0.134   5.942   0.758 -0.6061 -0.0238  2.3848
 1611SOL    HW2 5733   0.199   6.082   0.706  1.7360 -1.2555  1.9033
 1612SOL     OW 5734   6.103   1.563   1.445 -0.3009 -0.0319 -0.2749
 1612SOL    HW1 5735   6.068   1.626   1.514  0.5686 -0.3668  0.4917
 1612SOL    HW2 5736   6.046   1.568   1.363 -2.0736 -0.4992  0.8732
 1613SOL     OW 5737   6.876   6.226   2.376  0.1247  0.3744  0.2348
 1613SOL    HW1 5738   6.804   6.158   2.365 -2.2176  2.3938  1.8633
 1613SOL    HW2 5739   6.868   6.295   2.303 -1.2837  1.8989  1.7253
 1614SOL     OW 5740   5.668   1.935   6.040 -0.4749 -0.4529  0.3469
 1614SOL    HW1 5741   5.654   1.990   6.122 -0.7190 -0.3863  0.2601
 1614SOL    HW2 5742   5.766   1.921   6.026 -0.3444  0.8397 -0.1942
 1615SOL     OW 5743   6.521   4.867   4.692  0.1874 -0.0285  0.3311
 1615SOL    HW1 5744   6.530   4.924   4.610  0.3048 -0.0978  0.2946
 1615SOL    HW2 5745   6.474   4.918   4.763  1.5941  0.6650  0.8090
 1616SOL     OW 5746   1.413   1.786   3.863  0.5139 -0.3489 -0.2116
 1616SOL    HW1 5747   1.465   1.806   3.780  1.9876  0.8652  0.9415
 1616SOL    HW2 5748   1.384   1.872   3.905 -1.2240 -0.9791 -0.0456
 1617SOL     OW 5749   0.248   0.140   6.785  0.4115 -0.1888  0.4644
 1617SOL    HW1 5750   0.297   0.151   6.698  2.2114  2.1663  1.6410
 1617SOL    HW2 5751   0.292   0.067   6.838  0.2966 -0.5811  0.0246
 1618SOL     OW 5752   4.664   5.962   3.442 -0.6703  0.4423 -0.3095
 1618SOL    HW1 5753   4.666   6.061   3.434  0.8090  0.6392  1.6263
 1618SOL    HW2 5754   4.730   5.922   3.377 -1.1203  0.7190 -0.9469
 1619SOL     OW 5755   1.584   3.529   5.798  0.0306 -0.2934 -0.4375
 1619SOL    HW1 5756   1.491   3.564   5.808 -0.3427 -0.8192 -1.7938
 1619SOL    HW2 5757   1.637   3.594   5.744  0.3753 -0.1315  0.0916
 1620SOL     OW 5758   2.605   0.560   3.131 -0.0801  0.9263  0.0181
 1620SOL    HW1 5759   2.618   0.513   3.044  1.1365  0.1251  0.6064
 1620SOL    HW2 5760   2.513   0.598   3.135  0.1397  1.7551 -1.9737
 1621SOL     OW 5761   6.521   4.176   0.497  0.0726 -0.6056  0.5267
 1621SOL    HW1 5762   6.476   4.158   0.410 -0.6139  2.5858  0.0953
 1621SOL    HW2 5763   6.569   4.094   0.527  0.3360 -1.8482 -2.8300
 1622SOL     OW 5764   0.144   1.907   3.941 -0.2045 -0.3111  0.4730
 1622SOL    HW1 5765   0.205   1.982   3.967 -0.1190  0.0945 -0.8442
 1622SOL    HW2 5766   0.175   1.822   3.983 -0.2372  0.3578  1.8990
 1623SOL     OW 5767   0.508   1.861   3.720 -0.5259 -0.4974 -0.3777
 1623SOL    HW1 5768   0.579   1.798   3.749 -0.5946  0.2141  1.4671
 1623SOL    HW2 5769   0.429   1.810   3.686  0.4242 -1.3126 -1.4178
 1624SOL     OW 5770   2.750   2.375   6.603 -0.0778 -0.4021 -0.2054
 1624SOL    HW1 5771   2.698   2.392   6.686  2.4177 -1.6457  1.7436
 1624SOL    HW2 5772   2.765   2.461   6.554 -0.7922  0.4967  1.1080
 1625SOL     OW 5773   1.978   5.614   6.451 -0.4853 -0.8166  0.0996
 1625SOL    HW1 5774   2.044   5.539   6.448 -1.0146 -1.3452  1.1954
 1625SOL    HW2 5775   1.985   5.667   6.366  0.5988 -1.4876 -0.2597
 1626SOL     OW 5776   3.612   7.013   3.594  0.4135 -0.1786  0.6481
 1626SOL    HW1 5777   3.643   6.931   3.642  0.2201 -0.0504  0.9934
 1626SOL    HW2 5778   3.669   7.027   3.513 -0.2173 -1.2455 -0.0026
 1627SOL     OW 5779   4.737   0.023   0.326 -0.1334  0.4695  0.1434
 1627SOL    HW1 5780   4.808   0.042   0.395  0.0522  0.4319 -0.0374
 1627SOL    HW2 5781   4.777   0.029   0.235 -0.2802  0.0928  0.0517
 1628SOL     OW 5782   6.292   5.577   0.717  0.6075  0.4249 -0.2681
 1628SOL    HW1 5783   6.242   5.600   0.634 -2.6062 -0.3399  1.2988
 1628SOL    HW2 5784   6.306   5.660   0.772  1.5009  0.7037 -0.8883
 1629SOL     OW 5785   1.296   0.748   3.797  0.3939 -0.1680  0.1063
 1629SOL    HW1 5786   1.233   0.773   3.724 -0.3539  1.1168  1.1301
 1629SOL    HW2 5787   1.362   0.681   3.764  0.9336  1.3613 -2.1273
 1630SOL     OW 5788   5.799   6.262   5.776  0.1934 -0.0421 -0.2610
 1630SOL    HW1 5789   5.875   6.253   5.841 -0.8744 -1.0468  0.9071
 1630SOL    HW2 5790   5.835   6.263   5.683  1.6271 -0.5970  0.2559
 1631SOL     OW 5791   3.163   3.750   5.707  0.3010  0.0287  0.0010
 1631SOL    HW1 5792   3.194   3.730   5.614 -0.7927 -0.6328 -0.2457
 1631SOL    HW2 5793   3.063   3.757   5.708  0.2741 -0.2787  1.1777
 1632SOL     OW 5794   6.381   4.892   0.952 -0.4383 -0.3925  0.3682
 1632SOL    HW1 5795   6.286   4.925   0.951  0.3488  2.0780 -0.6307
 1632SOL    HW2 5796   6.381   4.792   0.944 -2.9287 -0.4356 -0.1057
 1633SOL     OW 5797   6.378   3.470   4.866 -0.1102 -0.3443  0.4723
 1633SOL    HW1 5798   6.469   3.430   4.862 -0.2796 -0.6930 -3.4935
 1633SOL    HW2 5799   6.386   3.570   4.876  0.7653 -0.3108 -0.4095
 1634SOL     OW 5800   0.785   4.979   5.103  0.0383 -0.1378  0.0836
 1634SOL    HW1 5801   0.762   4.886   5.075 -0.5405  0.5053 -1.6904
 1634SOL    HW2 5802   0.857   4.976   5.173  0.4821 -1.8879 -0.4085
 1635SOL     OW 5803   3.090   1.507   5.223  0.2046 -0.1871 -0.1986
 1635SOL    HW1 5804   3.028   1.432   5.199 -0.5285  0.3499 -0.0071
 1635SOL    HW2 5805   3.051   1.594   5.193  0.2654  0.2889  1.0333
 1636SOL     OW 5806   5.304   6.693   2.810 -0.1727 -0.1831  0.1349
 1636SOL    HW1 5807   5.228   6.718   2.870 -0.3271  1.1059 -0.5632
 1636SOL    HW2 5808   5.376   6.651   2.865 -0.2561  1.0542  1.2746
 1637SOL     OW 5809   2.056   1.908   0.566  0.3317 -0.4322  0.5632
 1637SOL    HW1 5810   2.116   1.950   0.499  0.8348  1.2261  1.9841
 1637SOL    HW2 5811   1.977   1.967   0.582 -0.7378 -1.6951  0.0914
 1638SOL     OW 5812   5.408   0.493   3.343 -0.1461  0.0605 -0.2675
 1638SOL    HW1 5813   5.486   0.545   3.308  0.1044  1.6241  2.3804
 1638SOL    HW2 5814   5.427   0.462   3.436 -2.2575 -0.4850  0.0437
 1639SOL     OW 5815   6.501   2.066   0.426 -0.0790 -0.2672 -0.7386
 1639SOL    HW1 5816   6.594   2.055   0.394  0.4135  1.3342  0.0535
 1639SOL    HW2 5817   6.494   2.034   0.521  0.3563  2.0803  0.1339
 1640SOL     OW 5818   6.513   2.082   0.718 -0.4612  0.8469  0.0213
 1640SOL    HW1 5819   6.428   2.034   0.742 -0.5679  1.5748  1.1866
 1640SOL    HW2 5820   6.548   2.130   0.798  0.0097  2.1715 -0.9398
 1641SOL     OW 5821   6.794   2.167   2.978  0.2503 -0.7443  0.0729
 1641SOL    HW1 5822   6.830   2.105   3.047  0.8000 -0.5085  0.0004
 1641SOL    HW2 5823   6.829   2.141   2.888  1.0473  0.0819  0.1273
 1642SOL     OW 5824   6.909   3.300   5.558  0.2127  0.6957  0.1106
 1642SOL    HW1 5825   6.937   3.289   5.653 -0.8200 -0.9025  0.2720
 1642SOL    HW2 5826   6.916   3.396   5.532  1.8970  0.9526  1.3360
 1643SOL     OW 5827   1.036   5.541   3.512  0.3335 -0.0970 -0.6288
 1643SOL    HW1 5828   1.067   5.447   3.501  0.0528 -0.2749  0.0565
 1643SOL    HW2 5829   0.954   5.542   3.569  1.3872  0.7262  0.9115
 1644SOL     OW 5830   5.179   0.322   1.629  0.4144  0.2079  0.2812
 1644SOL    HW1 5831   5.264   0.332   1.682  0.1265 -1.3048  1.1249
 1644SOL    HW2 5832   5.141   0.230   1.646  0.1153 -0.2171 -2.3241
 1645SOL     OW 5833   2.389   2.186   4.492  0.2129  0.1613  0.1218
 1645SOL    HW1 5834   2.416   2.175   4.588  0.6876  0.3150  0.0110
 1645SOL    HW2 5835   2.402   2.281   4.464  1.5702 -0.1838 -0.5229
 1646SOL     OW 5836   0.087   6.197   3.014 -0.2946 -0.0572  0.0912
 1646SOL    HW1 5837   0.154   6.125   3.031  0.8529  0.6192 -1.3303
 1646SOL    HW2 5838   0.055   6.234   3.101  1.1862 -0.4003  0.8204
 1647SOL     OW 5839   6.318   3.123   4.507  0.1992  0.1087  0.1798
 1647SOL    HW1 5840   6.372   3.184   4.564  0.9765  0.5436 -0.9778
 1647SOL    HW2 5841   6.235   3.170   4.477 -0.0914 -0.0383  0.7450
 1648SOL     OW 5842   4.349   0.128   2.406 -0.4643 -0.4792 -0.1362
 1648SOL    HW1 5843   4.360   0.131   2.506  0.7913 -0.3914 -0.2595
 1648SOL    HW2 5844   4.299   0.046   2.381  1.5289 -1.9361  0.4133
 1649SOL     OW 5845   6.435   5.990   3.986  0.1231  0.0893 -0.3063
 1649SOL    HW1 5846   6.375   6.049   4.040 -0.3840 -1.8215  1.3605
 1649SOL    HW2 5847   6.524   5.984   4.032  0.9521  1.3091 -1.6865
 1650SOL     OW 5848   0.933   2.840   5.137  0.2513  0.3879  0.0903
 1650SOL    HW1 5849   0.928   2.842   5.037 -2.3162 -0.3013  0.1199
 1650SOL    HW2 5850   0.871   2.769   5.172 -1.0492  2.4331  2.2511
 1651SOL     OW 5851   2.185   3.074   4.671 -0.4895 -0.0625 -0.1010
 1651SOL    HW1 5852   2.189   3.140   4.596  0.1264  1.5335  1.2604
 1651SOL    HW2 5853   2.167   3.123   4.757  2.1104 -1.3505  1.2913
 1652SOL     OW 5854   3.277   3.966   1.170  0.4968  0.3691  0.2009
 1652SOL    HW1 5855   3.242   3.935   1.258 -0.3814  0.6283 -0.0466
 1652SOL    HW2 5856   3.361   4.017   1.183  0.4242  0.3189  0.8798
 1653SOL     OW 5857   6.706   3.353   0.951  0.3157  0.0466  0.2395
 1653SOL    HW1 5858   6.790   3.363   1.004 -0.7389  2.2732  1.6655
 1653SOL    HW2 5859   6.727   3.357   0.854  1.9205 -0.1607  0.5487
 1654SOL     OW 5860   1.625   3.139   2.357 -0.2304 -0.4499 -0.5502
 1654SOL    HW1 5861   1.660   3.232   2.358 -0.2992 -0.4216 -0.8140
 1654SOL    HW2 5862   1.596   3.113   2.449  1.0574 -0.6869 -0.1932
 1655SOL     OW 5863   6.715   1.381   6.107  0.2234 -0.5371  0.0739
 1655SOL    HW1 5864   6.660   1.304   6.073 -0.8869 -0.1783  0.9968
 1655SOL    HW2 5865   6.656   1.445   6.155  1.4550 -0.0986  1.0596
 1656SOL     OW 5866   0.797   3.011   2.671 -0.2300 -0.2307  0.2188
 1656SOL    HW1 5867   0.813   3.106   2.646  1.0511 -0.9199 -1.8521
 1656SOL    HW2 5868   0.851   2.988   2.752 -0.0582  0.6465  0.3621
 1657SOL     OW 5869   6.629   0.974   6.927 -0.1875 -0.2315 -0.6454
 1657SOL    HW1 5870   6.630   0.912   6.848  0.0192 -2.2304  0.8419
 1657SOL    HW2 5871   6.667   1.063   6.900 -0.9798 -0.5273 -3.0028
 1658SOL     OW 5872   5.604   0.309   6.180 -0.0451  0.3989 -0.2386
 1658SOL    HW1 5873   5.685   0.264   6.145 -0.7696 -0.4348 -0.8813
 1658SOL    HW2 5874   5.527   0.292   6.118 -0.8310  0.7375  0.6276
 1659SOL     OW 5875   4.832   2.078   0.848  0.2598 -0.5036  0.2057
 1659SOL    HW1 5876   4.895   2.084   0.925  0.2037 -1.9956  0.4040
 1659SOL    HW2 5877   4.739   2.099   0.880  0.7489  3.1575 -0.3829
 1660SOL     OW 5878   2.287   1.377   0.708 -0.0925  0.2094 -0.0007
 1660SOL    HW1 5879   2.375   1.395   0.663 -0.0950 -1.3079 -0.6577
 1660SOL    HW2 5880   2.277   1.439   0.786  1.1770  0.9773 -0.4090
 1661SOL     OW 5881   6.205   4.726   5.134  0.0764 -0.5789 -0.3456
 1661SOL    HW1 5882   6.164   4.723   5.225  0.7485 -0.6345 -0.0435
 1661SOL    HW2 5883   6.202   4.634   5.094 -1.0057 -0.3921 -0.7460
 1662SOL     OW 5884   6.900   0.717   4.892 -0.4285  0.0270  0.3388
 1662SOL    HW1 5885   6.856   0.706   4.803  0.4482 -2.6558  0.1320
 1662SOL    HW2 5886   6.844   0.776   4.950 -3.2345 -1.4929 -0.6225
 1663SOL     OW 5887   0.122   3.343   0.028 -0.2558  0.0429  0.5663
 1663SOL    HW1 5888   0.023   3.339   0.012 -0.0549 -1.0184 -0.5787
 1663SOL    HW2 5889   0.169   3.292  -0.044  1.1530  0.7664  0.9476
 1664SOL     OW 5890   0.673   6.833   6.870  0.4831 -0.5971  0.1536
 1664SOL    HW1 5891   0.703   6.879   6.953  2.3854 -0.5680 -0.4852
 1664SOL    HW2 5892   0.586   6.786   6.886 -0.3936  1.3684  1.4417
 1665SOL     OW 5893   1.830   2.079   1.487  0.4789  0.4471 -0.0851
 1665SOL    HW1 5894   1.859   2.138   1.412  1.6689 -0.2106 -0.1749
 1665SOL    HW2 5895   1.802   2.135   1.565  1.3659  1.1339 -0.2438
 1666SOL     OW 5896   5.284   6.297   4.866 -0.0091  0.8185  0.3084
 1666SOL    HW1 5897   5.202   6.245   4.840 -1.0704  1.9535  1.2650
 1666SOL    HW2 5898   5.361   6.269   4.808 -1.1309 -0.0840 -0.8005
 1667SOL     OW 5899   0.579   6.066   7.013  0.3876  0.1528 -0.7953
 1667SOL    HW1 5900   0.629   6.134   7.067  0.4495  0.0208 -0.6876
 1667SOL    HW2 5901   0.542   5.996   7.073  0.4424  0.0145 -0.9235
 1668SOL     OW 5902   6.318   3.030   3.228 -0.0280  0.5160 -0.3986
 1668SOL    HW1 5903   6.410   3.000   3.204  1.0835  2.0876  1.5119
 1668SOL    HW2 5904   6.285   3.093   3.158 -0.5749 -1.6003 -2.1520
 1669SOL     OW 5905   4.586   2.142   4.244 -0.1523 -0.1746 -0.0097
 1669SOL    HW1 5906   4.490   2.113   4.247 -0.1901 -0.2134 -1.1557
 1669SOL    HW2 5907   4.645   2.063   4.262 -0.2845 -0.7196 -1.8402
 1670SOL     OW 5908   2.308   4.182   5.486  0.0475  0.5703  0.0001
 1670SOL    HW1 5909   2.394   4.133   5.504  0.2122  1.4680  1.9228
 1670SOL    HW2 5910   2.251   4.127   5.426  0.0263 -2.2481  2.3620
 1671SOL     OW 5911   5.958   3.435   1.143  0.1391  0.2801 -0.2997
 1671SOL    HW1 5912   5.976   3.339   1.120 -0.5431  0.0380  0.1271
 1671SOL    HW2 5913   5.861   3.445   1.167 -0.2496  1.4143 -2.0905
 1672SOL     OW 5914   2.218   0.708   1.884  0.3570 -0.9576  0.5695
 1672SOL    HW1 5915   2.161   0.725   1.804  1.2957 -0.4565 -0.0147
 1672SOL    HW2 5916   2.283   0.783   1.895 -1.4865  0.3946  3.4054
 1673SOL     OW 5917   1.127   1.380   5.857  0.4590 -0.0926  0.1462
 1673SOL    HW1 5918   1.183   1.441   5.912  0.4600  1.4245 -1.4738
 1673SOL    HW2 5919   1.145   1.285   5.883  2.4097  0.4530  0.9062
 1674SOL     OW 5920   4.763   2.149   1.849  0.1539 -0.1681  0.2867
 1674SOL    HW1 5921   4.705   2.169   1.928 -0.2713  1.8297 -0.4769
 1674SOL    HW2 5922   4.849   2.200   1.858 -0.6966  1.6562 -1.4397
 1675SOL     OW 5923   3.740   2.458   1.649 -0.2916  0.2360  0.2183
 1675SOL    HW1 5924   3.710   2.415   1.734 -0.6349  0.5531  0.2599
 1675SOL    HW2 5925   3.667   2.516   1.613 -0.0059  0.4115 -0.0874
 1676SOL     OW 5926   0.977   1.302   2.962 -0.1172  0.0513 -0.4848
 1676SOL    HW1 5927   0.918   1.222   2.960 -0.6160  0.4404 -2.0232
 1676SOL    HW2 5928   1.053   1.289   2.898  0.6401  0.2031  0.3554
 1677SOL     OW 5929   1.237   4.158   1.396 -0.3429  0.1379 -0.1802
 1677SOL    HW1 5930   1.332   4.136   1.374  0.0278  0.5655  0.8983
 1677SOL    HW2 5931   1.219   4.254   1.374  0.2368  0.7676  1.8899
 1678SOL     OW 5932   6.362   6.529   0.069 -0.5991  0.4034  0.0787
 1678SOL    HW1 5933   6.398   6.439   0.095 -0.8325  0.4134  0.4409
 1678SOL    HW2 5934   6.321   6.523  -0.023  0.1943  0.3616 -0.2797
 1679SOL     OW 5935   6.054   4.236   0.271  0.1558 -0.8722 -0.2988
 1679SOL    HW1 5936   6.010   4.222   0.182 -0.5486 -0.0905 -0.0917
 1679SOL    HW2 5937   6.105   4.322   0.269 -2.3649  0.7738  0.9430
 1680SOL     OW 5938   5.801   1.782   5.382  0.1284  0.1520 -0.1319
 1680SOL    HW1 5939   5.840   1.714   5.445 -1.8787 -0.6598  0.3019
 1680SOL    HW2 5940   5.820   1.874   5.416  1.4230 -0.2067  0.1773
 1681SOL     OW 5941   5.314   0.729   2.709 -0.0064 -0.0615 -0.0912
 1681SOL    HW1 5942   5.263   0.651   2.673 -0.7837  1.7531 -3.4230
 1681SOL    HW2 5943   5.261   0.775   2.780 -0.0009 -1.8461  1.1342
 1682SOL     OW 5944   4.471   1.360   5.451 -0.7921 -0.0410 -0.8346
 1682SOL    HW1 5945   4.474   1.297   5.529  2.3641  0.7172 -0.1974
 1682SOL    HW2 5946   4.381   1.354   5.407 -1.4365 -3.2082  0.5892
 1683SOL     OW 5947   2.853   5.485   5.336 -0.0989 -0.1376  0.0283
 1683SOL    HW1 5948   2.766   5.465   5.292 -2.3558  0.5744  3.7460
 1683SOL    HW2 5949   2.890   5.571   5.301 -1.6136  0.2766 -0.6214
 1684SOL     OW 5950   4.666   6.483   3.583  0.4404  0.3286 -0.1693
 1684SOL    HW1 5951   4.744   6.474   3.646  1.8492 -2.4377 -2.1115
 1684SOL    HW2 5952   4.659   6.578   3.552  1.6613  1.0884  1.6941
 1685SOL     OW 5953   1.788   1.161   5.985  0.3803 -0.1563 -0.0939
 1685SOL    HW1 5954   1.843   1.163   5.902  2.8483  0.7597  1.4698
 1685SOL    HW2 5955   1.837   1.206   6.059 -0.9459 -2.5203  2.3718
 1686SOL     OW 5956   3.572   6.620   3.910  0.2134  0.1759 -0.3596
 1686SOL    HW1 5957   3.481   6.578   3.911  0.1873  0.1863 -1.4481
 1686SOL    HW2 5958   3.632   6.568   3.849  0.7726  0.5183 -0.1109
 1687SOL     OW 5959   5.006   6.300   5.975  0.6432  0.3431 -0.3269
 1687SOL    HW1 5960   5.081   6.286   6.039  1.6923  0.5558 -1.4751
 1687SOL    HW2 5961   4.929   6.342   6.023  1.2678  0.1623  0.8648
 1688SOL     OW 5962   3.402   0.362   2.547 -0.1597 -0.7945  0.4359
 1688SOL    HW1 5963   3.486   0.362   2.602  1.1494  0.2778 -1.4390
 1688SOL    HW2 5964   3.334   0.421   2.590  0.8977  0.1624  0.8340
 1689SOL     OW 5965   2.701   0.986   3.147 -0.4227  0.5504  0.1611
 1689SOL    HW1 5966   2.604   1.008   3.156 -1.1690 -2.2982 -0.1368
 1689SOL    HW2 5967   2.729   0.999   3.052 -1.0541 -0.4339 -0.1779
 1690SOL     OW 5968   6.875   3.982   2.897 -0.2081 -0.5975  0.3572
 1690SOL    HW1 5969   6.791   3.940   2.864 -0.1801 -0.5275  0.1924
 1690SOL    HW2 5970   6.854   4.057   2.959 -0.2967  0.0413 -0.4305
 1691SOL     OW 5971   5.844   2.481   6.223 -0.0481 -0.3157 -0.0730
 1691SOL    HW1 5972   5.859   2.543   6.300  1.0050 -1.8709  1.0426
 1691SOL    HW2 5973   5.870   2.526   6.137  1.3829  0.5376  0.7776
 1692SOL     OW 5974   4.609   0.599   3.453 -0.2401  0.2485  0.6570
 1692SOL    HW1 5975   4.667   0.586   3.373  0.0040 -3.1180  1.2292
 1692SOL    HW2 5976   4.513   0.585   3.427 -0.2521  0.0914  0.7851
 1693SOL     OW 5977   5.183   0.803   6.097 -0.0280  0.1233 -0.2189
 1693SOL    HW1 5978   5.103   0.747   6.077  1.0190 -0.9499 -1.6619
 1693SOL    HW2 5979   5.259   0.744   6.125  0.9129  0.8550 -1.1189
 1694SOL     OW 5980   3.931   2.414   6.521  0.3313 -0.2956  0.0289
 1694SOL    HW1 5981   3.913   2.510   6.497 -1.3844 -0.4094  0.7773
 1694SOL    HW2 5982   3.846   2.362   6.519  1.0940 -1.6114  0.5536
 1695SOL     OW 5983   5.195   3.457   5.426 -0.6677  0.1644 -0.5248
 1695SOL    HW1 5984   5.109   3.449   5.377 -2.3410 -1.6813  2.3775
 1695SOL    HW2 5985   5.260   3.390   5.390 -2.1935 -1.8600  0.2720
 1696SOL     OW 5986   5.035   6.608   0.331  0.8416  0.8422 -0.0680
 1696SOL    HW1 5987   5.019   6.551   0.411  2.3189  0.5921  0.0916
 1696SOL    HW2 5988   4.966   6.588   0.261  1.2984 -1.1661 -0.0083
 1697SOL     OW 5989   5.069   4.440   0.718  0.1674 -0.3450  0.0467
 1697SOL    HW1 5990   5.038   4.353   0.755  3.1721 -1.3592  0.5151
 1697SOL    HW2 5991   5.073   4.434   0.618 -0.8388 -0.2794 -0.0019
 1698SOL     OW 5992   6.191   2.601   6.480 -0.1024 -0.0652  0.3043
 1698SOL    HW1 5993   6.116   2.655   6.441 -1.1678 -0.6115  1.5300
 1698SOL    HW2 5994   6.153   2.528   6.537  1.3600 -0.9880  0.1261
 1699SOL     OW 5995   2.484   5.950   2.126  0.1561 -0.1119  0.0747
 1699SOL    HW1 5996   2.555   5.950   2.197  0.1390 -0.6608  0.0968
 1699SOL    HW2 5997   2.524   5.919   2.040  0.0091 -0.1365  0.0166
 1700SOL     OW 5998   5.188   3.102   3.218  0.2222  0.2791 -0.4898
 1700SOL    HW1 5999   5.163   3.068   3.127 -0.5936 -1.7688  0.4371
 1700SOL    HW2 6000   5.119   3.168   3.248  0.3943  0.8245 -1.2665
 1701SOL     OW 6001   1.310   4.669   5.029  0.1610  0.3478  0.3874
 1701SOL    HW1 6002   1.311   4.752   5.085 -1.7316 -0.9247  2.4738
 1701SOL    HW2 6003   1.387   4.610   5.055 -0.5932 -0.1459  1.5760
 1702SOL     OW 6004   2.180   1.184   0.539  0.0879  0.1381  0.0862
 1702SOL    HW1 6005   2.084   1.159   0.550  0.0953 -0.0443 -0.2560
 1702SOL    HW2 6006   2.211   1.233   0.620 -0.0684 -0.5242  0.5591
 1703SOL     OW 6007   1.146   1.823   2.661 -0.1965  0.0837 -0.2724
 1703SOL    HW1 6008   1.146   1.861   2.753  0.0477 -1.5155  0.4172
 1703SOL    HW2 6009   1.203   1.880   2.601 -0.3606  1.1394  0.5484
 1704SOL     OW 6010   5.068   2.480   0.384 -0.2466 -0.5685 -0.2290
 1704SOL    HW1 6011   4.974   2.500   0.356  0.1607  1.7929 -0.1637
 1704SOL    HW2 6012   5.132   2.527   0.323  0.7718  0.4194  1.4828
 1705SOL     OW 6013   0.832   2.878   0.371 -0.5314 -0.2720  0.2849
 1705SOL    HW1 6014   0.830   2.861   0.469  0.3665 -0.4065  0.2852
 1705SOL    HW2 6015   0.791   2.967   0.351 -1.2615 -0.4992  0.7111
 1706SOL     OW 6016   6.795   6.168   3.518 -0.2307 -0.5224  0.4477
 1706SOL    HW1 6017   6.834   6.140   3.605  1.2596 -0.1686 -0.0722
 1706SOL    HW2 6018   6.821   6.263   3.498  0.6702 -1.0292 -1.0043
 1707SOL     OW 6019   2.228   1.877   2.376 -0.3144  0.5413  0.0621
 1707SOL    HW1 6020   2.288   1.939   2.427  2.2308 -0.0210 -2.0020
 1707SOL    HW2 6021   2.197   1.803   2.436  3.1262 -0.5154  0.7598
 1708SOL     OW 6022   4.908   6.125   1.706  0.6692 -0.0769  0.5026
 1708SOL    HW1 6023   5.004   6.151   1.710  1.1374 -1.5323 -0.7237
 1708SOL    HW2 6024   4.898   6.039   1.656 -1.2484 -0.0870  0.8295
 1709SOL     OW 6025   0.155   5.335   1.108  0.6131 -0.0403 -0.5690
 1709SOL    HW1 6026   0.211   5.298   1.034 -0.8213 -2.1833 -0.6429
 1709SOL    HW2 6027   0.082   5.271   1.131 -0.5200  1.7032  1.0054
 1710SOL     OW 6028   3.302   2.722   1.841  0.1054  0.7320 -0.0754
 1710SOL    HW1 6029   3.356   2.649   1.800  0.3734  1.1095 -0.3929
 1710SOL    HW2 6030   3.349   2.757   1.922 -0.7642 -0.5090  1.0131
 1711SOL     OW 6031   6.661   5.711   0.293 -0.3846 -0.0514  0.4909
 1711SOL    HW1 6032   6.719   5.791   0.273  0.3616 -0.6238  0.3086
 1711SOL    HW2 6033   6.602   5.693   0.214 -1.5392  1.1236  1.0492
 1712SOL     OW 6034   7.020   1.865   0.769 -0.4466  0.2051 -0.1561
 1712SOL    HW1 6035   7.090   1.794   0.765 -0.1459  0.4874  0.0543
 1712SOL    HW2 6036   7.053   1.947   0.721 -0.5430  0.4115  0.1300
 1713SOL     OW 6037   1.922   1.748   2.812 -0.2296 -0.5295 -0.2040
 1713SOL    HW1 6038   1.915   1.797   2.899 -1.7293  1.4147 -1.3361
 1713SOL    HW2 6039   1.831   1.737   2.773  0.3713 -1.8510 -1.2840
 1714SOL     OW 6040   4.493   5.685   1.832  0.3616  0.0779  0.5254
 1714SOL    HW1 6041   4.559   5.758   1.813  0.6908 -0.8114 -2.3496
 1714SOL    HW2 6042   4.430   5.677   1.755  0.1257 -2.4282  0.8971
 1715SOL     OW 6043   0.484   5.820   0.167  0.0274  0.5890  0.0347
 1715SOL    HW1 6044   0.562   5.759   0.177 -0.8202 -1.6373 -4.4099
 1715SOL    HW2 6045   0.415   5.798   0.236  0.6062 -2.1855 -0.1561
 1716SOL     OW 6046   3.954   0.594   1.093 -0.1560  0.4913  0.0112
 1716SOL    HW1 6047   4.018   0.575   1.018 -0.8437  0.9376 -0.7053
 1716SOL    HW2 6048   3.929   0.691   1.092  0.2506  0.6228  1.1751
 1717SOL     OW 6049   2.355   0.333   2.449  0.3225  0.0199 -0.1161
 1717SOL    HW1 6050   2.305   0.380   2.376  1.1323  1.3896  0.1770
 1717SOL    HW2 6051   2.446   0.307   2.417  0.1087 -0.8093 -0.0747
 1718SOL     OW 6052   1.831   5.236   2.516 -0.3693 -0.2173  0.1063
 1718SOL    HW1 6053   1.931   5.239   2.524 -0.3203  0.8105 -0.6570
 1718SOL    HW2 6054   1.800   5.141   2.517  0.6958 -0.5897 -0.4060
 1719SOL     OW 6055   6.664   5.681   4.279 -0.4824  0.1918  0.2339
 1719SOL    HW1 6056   6.694   5.754   4.217  1.3225 -0.8625 -0.1954
 1719SOL    HW2 6057   6.715   5.597   4.259 -2.8638 -1.3628  0.3871
 1720SOL     OW 6058   2.258   1.181   5.420 -0.6658  0.2157 -0.3939
 1720SOL    HW1 6059   2.346   1.165   5.464 -0.1143  0.0345 -1.5450
 1720SOL    HW2 6060   2.185   1.173   5.488  0.3137  2.1460  0.9815
 1721SOL     OW 6061   1.970   2.586   6.768  0.0112 -0.6943 -0.1882
 1721SOL    HW1 6062   2.059   2.542   6.757  0.4447  0.3160 -0.8723
 1721SOL    HW2 6063   1.952   2.645   6.689 -1.9471 -2.0268 -0.8004
 1722SOL     OW 6064   4.510   2.417   3.324  0.1845 -0.3544 -0.4180
 1722SOL    HW1 6065   4.422   2.371   3.319 -1.3118  2.4519 -2.8788
 1722SOL    HW2 6066   4.521   2.461   3.413 -0.4940 -1.3716  0.1868
 1723SOL     OW 6067   6.221   6.308   1.338 -0.1271 -0.1441  0.2367
 1723SOL    HW1 6068   6.231   6.266   1.248  0.9849  1.3081 -0.3660
 1723SOL    HW2 6069   6.310   6.335   1.373 -0.7378  1.4160  0.7109
 1724SOL     OW 6070   0.093   4.941   1.037  0.0349  0.0101  1.0033
 1724SOL    HW1 6071   0.182   4.980   1.062 -1.0460  3.1296  0.4178
 1724SOL    HW2 6072   0.106   4.872   0.966  1.9371  0.8302  0.4893
 1725SOL     OW 6073   0.811   4.462   3.079  0.4891 -0.0263 -0.4564
 1725SOL    HW1 6074   0.832   4.371   3.042 -1.5437 -1.0552  0.7821
 1725SOL    HW2 6075   0.727   4.496   3.037 -0.8334 -0.4079  1.7448
 1726SOL     OW 6076   5.429   4.388   2.634 -0.9228 -0.2364 -0.3158
 1726SOL    HW1 6077   5.335   4.406   2.606 -1.5324  1.5751  2.4153
 1726SOL    HW2 6078   5.480   4.474   2.634  0.2500 -0.9211 -0.1619
 1727SOL     OW 6079   3.158   3.253   4.179 -0.5452 -0.1702 -0.2826
 1727SOL    HW1 6080   3.189   3.255   4.274 -0.9446 -0.0754 -0.1499
 1727SOL    HW2 6081   3.148   3.158   4.149 -1.9364 -0.2300  0.2888
 1728SOL     OW 6082   5.829   0.621   4.364  0.4338  0.7128  0.0269
 1728SOL    HW1 6083   5.916   0.575   4.350  0.8140  1.3003  0.4108
 1728SOL    HW2 6084   5.843   0.704   4.419 -0.6772 -0.3322  1.9964
 1729SOL     OW 6085   0.080   2.736   3.470 -0.3436  0.3585 -0.0070
 1729SOL    HW1 6086   0.003   2.756   3.408 -0.1538 -0.9188 -0.6891
 1729SOL    HW2 6087   0.137   2.665   3.430  1.6127  1.7478  0.1691
 1730SOL     OW 6088   2.629   0.491   3.737  0.1388 -0.4059 -0.6397
 1730SOL    HW1 6089   2.622   0.403   3.690 -0.3493 -0.5715 -0.2663
 1730SOL    HW2 6090   2.674   0.558   3.677  0.7253 -0.9679 -0.8388
 1731SOL     OW 6091   6.058   4.696   4.074  0.1900  0.1141 -0.0713
 1731SOL    HW1 6092   6.013   4.692   4.164 -0.8936  0.3904 -0.5868
 1731SOL    HW2 6093   6.140   4.753   4.081  0.2012  0.0051  0.7828
 1732SOL     OW 6094   3.657   3.389   4.459  0.1612  0.3257 -0.2064
 1732SOL    HW1 6095   3.583   3.322   4.467  2.6295 -2.4591  1.8813
 1732SOL    HW2 6096   3.648   3.440   4.374 -1.2446 -3.5388 -2.5948
 1733SOL     OW 6097   0.543   2.131   0.371 -0.3573 -0.2387 -0.0875
 1733SOL    HW1 6098   0.625   2.083   0.341 -0.0285 -0.3690  0.9748
 1733SOL    HW2 6099   0.498   2.173   0.292  1.6557  1.3206 -0.4914
 1734SOL     OW 6100   6.913   3.820   1.567 -0.1423  0.0876 -0.3022
 1734SOL    HW1 6101   6.913   3.777   1.477  0.3594  1.0407 -0.7722
 1734SOL    HW2 6102   7.007   3.833   1.598 -0.3136 -0.7083  0.6030
 1735SOL     OW 6103   3.824   6.066   5.937  0.5527 -0.2178  0.1113
 1735SOL    HW1 6104   3.807   5.967   5.935 -0.8268 -0.0604  1.7533
 1735SOL    HW2 6105   3.918   6.083   5.967  0.6306 -1.0317  0.3584
 1736SOL     OW 6106   1.766   2.027   4.343  0.1240  0.2323 -0.0415
 1736SOL    HW1 6107   1.790   2.123   4.327 -0.7157  0.4666  0.0515
 1736SOL    HW2 6108   1.843   1.981   4.387  0.9188  0.6062 -0.9907
 1737SOL     OW 6109   1.912   6.600   0.372 -0.3174  0.5052 -0.1485
 1737SOL    HW1 6110   1.998   6.558   0.343 -0.0576 -0.0793  1.3815
 1737SOL    HW2 6111   1.889   6.568   0.464 -1.7601  1.2877 -0.2158
 1738SOL     OW 6112   1.024   2.849   1.664  0.3189  0.8835 -0.2225
 1738SOL    HW1 6113   1.122   2.853   1.648  0.5603 -0.4966  0.7320
 1738SOL    HW2 6114   1.005   2.847   1.762 -0.6213  0.5565 -0.3913
 1739SOL     OW 6115   4.159   5.403   3.202  0.2538 -0.4892 -0.2255
 1739SOL    HW1 6116   4.191   5.386   3.109  0.4619 -1.2419 -0.0232
 1739SOL    HW2 6117   4.227   5.457   3.251  1.2358 -2.0496  0.1929
 1740SOL     OW 6118   6.306   2.144   5.651 -0.7151  0.4415 -0.1373
 1740SOL    HW1 6119   6.267   2.163   5.742  0.9035  0.9478  0.4907
 1740SOL    HW2 6120   6.361   2.060   5.655  0.5993  1.2657 -0.2208
 1741SOL     OW 6121   0.866   3.291   2.718 -0.0717  0.1891  0.8205
 1741SOL    HW1 6122   0.825   3.381   2.704 -1.5036 -0.5935 -0.2951
 1741SOL    HW2 6123   0.869   3.271   2.816 -1.3346  0.7675  0.9999
 1742SOL     OW 6124   5.526   5.773   6.448 -0.0554 -0.4791  0.7332
 1742SOL    HW1 6125   5.557   5.703   6.513  2.5510  0.5198  0.6783
 1742SOL    HW2 6126   5.605   5.826   6.416 -1.5492  0.4868 -1.6000
 1743SOL     OW 6127   0.536   2.194   2.684  0.1227  0.6879  0.2504
 1743SOL    HW1 6128   0.597   2.122   2.651  1.3469  1.3273  1.0127
 1743SOL    HW2 6129   0.591   2.272   2.716 -1.0489  0.8071  2.1147
 1744SOL     OW 6130   4.178   2.089   5.615 -0.2871 -0.1516  0.5184
 1744SOL    HW1 6131   4.261   2.061   5.566 -0.8623  0.1537 -0.6771
 1744SOL    HW2 6132   4.141   2.010   5.663 -0.4898 -0.8606 -0.7365
 1745SOL     OW 6133   5.942   6.180   1.714  0.1815 -0.0629  0.3228
 1745SOL    HW1 6134   5.928   6.270   1.754  0.6279 -0.2126  0.8343
 1745SOL    HW2 6135   5.856   6.144   1.679  0.2654  1.2186 -1.2974
 1746SOL     OW 6136   3.398   6.953   2.290 -0.0667 -0.0170  0.5166
 1746SOL    HW1 6137   3.309   6.998   2.303 -1.2080 -2.1206  0.5398
 1746SOL    HW2 6138   3.407   6.878   2.356  1.5139 -0.1826  0.1529
 1747SOL     OW 6139   4.612   6.706   3.396  0.3932  0.5704 -0.7307
 1747SOL    HW1 6140   4.525   6.700   3.348  0.3583  2.3780 -0.9551
 1747SOL    HW2 6141   4.684   6.666   3.340 -0.5373 -3.1277  0.3980
 1748SOL     OW 6142   5.287   1.181   3.310  0.3029 -0.1137 -0.4939
 1748SOL    HW1 6143   5.225   1.236   3.365  1.7901  0.9846  0.1223
 1748SOL    HW2 6144   5.359   1.143   3.367  1.4394  0.4137 -1.5232
 1749SOL     OW 6145   6.817   6.375   1.830 -0.2170  0.5066 -0.4596
 1749SOL    HW1 6146   6.890   6.401   1.893 -0.6533 -0.3383  0.4149
 1749SOL    HW2 6147   6.750   6.449   1.824  0.0264  0.7484 -0.2369
 1750SOL     OW 6148   2.799   1.480   0.916  0.2399  0.1204 -0.2990
 1750SOL    HW1 6149   2.844   1.392   0.933 -0.4783 -0.2819 -0.4394
 1750SOL    HW2 6150   2.700   1.470   0.927  0.1641  0.9675 -0.0950
 1751SOL     OW 6151   6.910   4.325   2.931  0.5817  0.4798  0.2875
 1751SOL    HW1 6152   6.956   4.397   2.879  0.3192  0.1047 -0.4829
 1751SOL    HW2 6153   6.977   4.273   2.984  0.7672  1.3337  0.9288
 1752SOL     OW 6154   0.682   6.656   1.394 -0.0677  0.4585 -0.4007
 1752SOL    HW1 6155   0.681   6.719   1.316  0.7268  0.1008 -0.7104
 1752SOL    HW2 6156   0.590   6.647   1.431 -0.4069  0.8260 -1.1442
 1753SOL     OW 6157   1.887   2.341   1.314 -0.5890 -0.1955  0.0800
 1753SOL    HW1 6158   1.967   2.382   1.356  0.1262 -1.5884  0.1178
 1753SOL    HW2 6159   1.896   2.344   1.214 -0.1835 -0.9167  0.0901
 1754SOL     OW 6160   1.876   3.271   3.297  0.1791  0.0907 -0.5347
 1754SOL    HW1 6161   1.932   3.191   3.318 -2.0686 -1.0111  1.8790
 1754SOL    HW2 6162   1.868   3.327   3.379 -1.4561  0.6996 -1.0901
 1755SOL     OW 6163   0.399   6.455   3.846 -0.2643  0.0611  0.8396
 1755SOL    HW1 6164   0.469   6.388   3.821 -0.4745 -0.1955  0.9293
 1755SOL    HW2 6165   0.440   6.530   3.897  0.2332  0.7337 -0.4859
 1756SOL     OW 6166   4.083   4.578   1.746 -0.5434 -0.0004  0.0656
 1756SOL    HW1 6167   4.059   4.598   1.651 -0.4544  0.8874  0.2148
 1756SOL    HW2 6168   4.179   4.548   1.750  0.8935  3.9672  0.2346
 1757SOL     OW 6169   2.879   5.519   4.843 -0.1823  0.0186 -0.2942
 1757SOL    HW1 6170   2.908   5.428   4.872  0.3208 -0.5208 -2.3326
 1757SOL    HW2 6171   2.783   5.515   4.813 -0.1195  0.1315 -0.5082
 1758SOL     OW 6172   5.858   0.163   4.945  0.1449  0.5297 -0.4650
 1758SOL    HW1 6173   5.822   0.149   5.038 -0.0937  0.2585 -0.5965
 1758SOL    HW2 6174   5.844   0.080   4.891  1.8984  0.0484 -0.2228
 1759SOL     OW 6175   1.606   5.371   5.114 -0.0141  0.6097 -0.0920
 1759SOL    HW1 6176   1.634   5.363   5.210  0.1482 -0.6233 -0.2196
 1759SOL    HW2 6177   1.686   5.393   5.058  0.4899 -1.4717 -0.2721
 1760SOL     OW 6178   5.713   1.715   4.544 -0.0421  0.1100 -0.0156
 1760SOL    HW1 6179   5.812   1.713   4.549  0.1218 -0.5354 -2.3103
 1760SOL    HW2 6180   5.674   1.695   4.634  1.9100 -1.6692  0.5077
 1761SOL     OW 6181   4.855   1.336   5.542 -0.2898 -0.0295 -0.1452
 1761SOL    HW1 6182   4.911   1.306   5.619 -0.8625  0.2162  0.3719
 1761SOL    HW2 6183   4.823   1.429   5.558  0.7421  0.5646 -1.3350
 1762SOL     OW 6184   0.461   0.518   4.784  0.3294 -0.2285  0.6628
 1762SOL    HW1 6185   0.481   0.448   4.716 -0.2998  0.2085  0.0195
 1762SOL    HW2 6186   0.546   0.544   4.831  0.6366 -1.0893  0.5970
 1763SOL     OW 6187   0.919   2.859   3.664  0.1724  0.0448 -0.0876
 1763SOL    HW1 6188   0.869   2.809   3.594 -0.2451 -1.3998  1.1848
 1763SOL    HW2 6189   0.869   2.855   3.751  2.0873 -0.8876  1.0692
 1764SOL     OW 6190   0.473   3.147   1.380 -0.2649 -0.0496  0.0512
 1764SOL    HW1 6191   0.457   3.119   1.475 -2.2394  0.9937  0.0889
 1764SOL    HW2 6192   0.547   3.214   1.378 -0.0976 -0.1953  0.8354
 1765SOL     OW 6193   5.763   5.153   2.550  0.0599 -0.2467  0.8053
 1765SOL    HW1 6194   5.852   5.196   2.564 -0.0118  0.1802  0.0370
 1765SOL    HW2 6195   5.758   5.114   2.458 -0.2335 -1.0534  1.1503
 1766SOL     OW 6196   3.132   5.055   3.926  0.1930  0.0434 -0.3832
 1766SOL    HW1 6197   3.159   5.144   3.890 -0.4254  0.0106 -0.9599
 1766SOL    HW2 6198   3.040   5.033   3.894  0.4826 -0.9720 -0.5662
 1767SOL     OW 6199   4.647   4.561   2.376 -0.1874  0.1891 -0.1954
 1767SOL    HW1 6200   4.554   4.599   2.385  0.4938  1.9313 -0.0374
 1767SOL    HW2 6201   4.709   4.634   2.345  1.0747 -1.0346 -0.6331
 1768SOL     OW 6202   4.119   0.061   3.441 -0.0933 -0.6332 -0.8044
 1768SOL    HW1 6203   4.213   0.040   3.470  0.0509  0.0772 -0.7390
 1768SOL    HW2 6204   4.065  -0.023   3.441  0.2044 -0.8470  0.4129
 1769SOL     OW 6205   5.332   0.967   0.242 -0.1081  0.4027  0.3663
 1769SOL    HW1 6206   5.274   1.045   0.263 -0.1293  0.3756  0.4109
 1769SOL    HW2 6207   5.395   0.951   0.319  0.5455  0.9632 -0.0498
 1770SOL     OW 6208   1.854   2.130   6.688 -0.1475 -0.0067  0.4017
 1770SOL    HW1 6209   1.838   2.173   6.599  1.1831 -0.0456  0.1309
 1770SOL    HW2 6210   1.782   2.159   6.752 -0.0810  1.4962 -0.1617
 1771SOL     OW 6211   1.913   0.640   6.222 -0.2995  0.6747  0.2586
 1771SOL    HW1 6212   1.847   0.585   6.273 -1.1555  1.1435 -0.3173
 1771SOL    HW2 6213   1.864   0.701   6.160  0.7004  0.4581 -0.7785
 1772SOL     OW 6214   3.234   5.115   1.663 -0.5425 -0.3605  0.1500
 1772SOL    HW1 6215   3.191   5.160   1.741  1.7263 -0.4081  1.4809
 1772SOL    HW2 6216   3.179   5.133   1.581 -3.1022 -0.4697  1.7186
 1773SOL     OW 6217   3.271   3.794   6.879  0.0256 -0.3057 -0.6427
 1773SOL    HW1 6218   3.260   3.887   6.915 -0.3682 -0.0233 -1.4713
 1773SOL    HW2 6219   3.183   3.762   6.843  0.3763 -0.6318 -1.2224
 1774SOL     OW 6220   0.377   4.062   1.002  0.2163 -0.0995 -0.3343
 1774SOL    HW1 6221   0.477   4.058   1.005  0.3125  1.7225 -0.4219
 1774SOL    HW2 6222   0.342   3.973   0.973  1.7334 -1.1897  0.9655
 1775SOL     OW 6223   1.460   0.180   1.530  0.0083 -0.2158 -0.4426
 1775SOL    HW1 6224   1.473   0.276   1.505 -1.3482  0.0180 -0.3459
 1775SOL    HW2 6225   1.401   0.175   1.610 -0.1150 -1.1465 -0.5868
 1776SOL     OW 6226   3.814   3.589   6.578  0.6458 -0.7050 -0.6868
 1776SOL    HW1 6227   3.858   3.511   6.622  0.8853  0.8059  1.9863
 1776SOL    HW2 6228   3.726   3.561   6.540  1.4686 -2.5921 -1.2967
 1777SOL     OW 6229   4.341   5.139   5.647  0.1432  0.3623  0.7612
 1777SOL    HW1 6230   4.380   5.212   5.703  2.5195 -0.9535  0.9638
 1777SOL    HW2 6231   4.376   5.147   5.553 -1.1360  0.5912  0.2851
 1778SOL     OW 6232   0.149   6.347   4.040 -0.0295 -0.1497 -0.1700
 1778SOL    HW1 6233   0.168   6.434   4.085 -0.2186  0.1364 -0.6421
 1778SOL    HW2 6234   0.201   6.341   3.955  0.7466 -0.9186  0.3240
 1779SOL     OW 6235   0.989   1.846   6.119  0.0623 -0.0100  0.1895
 1779SOL    HW1 6236   0.976   1.922   6.183  0.4165 -0.3740  0.6974
 1779SOL    HW2 6237   0.931   1.769   6.146 -0.9409  0.3758 -0.8235
 1780SOL     OW 6238   3.250   0.530   5.675 -0.1734  0.5253 -0.8147
 1780SOL    HW1 6239   3.321   0.467   5.645 -0.2762  0.0744 -0.1172
 1780SOL    HW2 6240   3.272   0.623   5.643  0.6069  0.3511 -0.7948
 1781SOL     OW 6241   2.639   1.859   4.791 -0.8846 -0.3706 -0.3041
 1781SOL    HW1 6242   2.552   1.812   4.775 -0.4871 -0.3153 -3.3110
 1781SOL    HW2 6243   2.714   1.799   4.764 -0.1392  0.4533 -0.0872
 1782SOL     OW 6244   0.413   6.452   1.728  0.3612 -0.1619  0.3828
 1782SOL    HW1 6245   0.315   6.446   1.746  0.1882  1.4580  0.1392
 1782SOL    HW2 6246   0.458   6.500   1.803  0.7712  0.2105 -0.0908
 1783SOL     OW 6247   3.028   1.170   6.955 -0.2230 -0.2969  0.7148
 1783SOL    HW1 6248   2.999   1.252   7.006 -2.1121  0.0549 -0.8421
 1783SOL    HW2 6249   2.960   1.147   6.887  1.5026 -1.6862 -0.6342
 1784SOL     OW 6250   2.362   5.328   2.023 -0.4310  0.2767 -0.0752
 1784SOL    HW1 6251   2.402   5.410   1.982 -1.2246  0.3397 -0.7551
 1784SOL    HW2 6252   2.389   5.322   2.119 -1.1041  1.8313  0.2397
 1785SOL     OW 6253   3.824   4.763   5.365 -0.3303  0.2067  0.3477
 1785SOL    HW1 6254   3.883   4.800   5.292 -1.2603  2.3448  0.6060
 1785SOL    HW2 6255   3.810   4.665   5.350  1.0385  0.2088 -1.2569
 1786SOL     OW 6256   0.585   4.620   2.017  0.3196  0.3512  0.1612
 1786SOL    HW1 6257   0.619   4.712   1.997  0.8888 -0.4034 -3.0414
 1786SOL    HW2 6258   0.513   4.596   1.952  0.3338 -1.5344  0.7757
 1787SOL     OW 6259   5.366   0.814   5.408  0.2455  0.2767 -0.3012
 1787SOL    HW1 6260   5.412   0.726   5.420  1.9101  1.0909 -0.4269
 1787SOL    HW2 6261   5.418   0.886   5.455 -1.3774  1.1332  0.2718
 1788SOL     OW 6262   3.084   2.076   0.476  0.1402 -0.1473  0.6643
 1788SOL    HW1 6263   3.114   2.171   0.462 -0.7716 -0.0865 -1.0796
 1788SOL    HW2 6264   3.106   2.048   0.570  0.6778  1.6833  1.1265
 1789SOL     OW 6265   5.651   1.679   3.388 -0.4489 -0.2392  0.4353
 1789SOL    HW1 6266   5.709   1.707   3.311 -1.5274 -0.2396 -0.3989
 1789SOL    HW2 6267   5.698   1.607   3.440  1.3505  1.4220  1.2522
 1790SOL     OW 6268   2.499   2.124   4.764 -0.2821 -0.0961 -0.0690
 1790SOL    HW1 6269   2.500   2.193   4.836  1.9768 -0.0491 -0.0757
 1790SOL    HW2 6270   2.565   2.052   4.785 -1.2240 -1.2739 -0.9996
 1791SOL     OW 6271   0.458   6.231   4.873  0.0848 -0.4210 -0.0056
 1791SOL    HW1 6272   0.444   6.309   4.933  0.7686 -0.4224  0.1713
 1791SOL    HW2 6273   0.391   6.232   4.799  0.5327  0.7353 -0.4178
 1792SOL     OW 6274   0.068   2.452   5.426 -0.2307  0.3915 -0.0232
 1792SOL    HW1 6275   0.085   2.363   5.469 -0.8996  0.4266  0.3423
 1792SOL    HW2 6276   0.006   2.504   5.484 -1.6685  0.1970 -1.3278
 1793SOL     OW 6277   0.808   1.781   4.234  0.2601 -0.2246  0.8747
 1793SOL    HW1 6278   0.719   1.784   4.279 -0.0851 -0.0496  0.1930
 1793SOL    HW2 6279   0.880   1.806   4.299 -0.2890  0.6419  1.1569
 1794SOL     OW 6280   6.426   0.823   5.769 -0.7993  0.7302 -0.1917
 1794SOL    HW1 6281   6.395   0.837   5.675  0.4288  0.3191 -0.6732
 1794SOL    HW2 6282   6.521   0.791   5.769 -1.7186 -2.4282  1.0185
 1795SOL     OW 6283   4.989   4.059   0.108  0.1306 -0.2103  0.1771
 1795SOL    HW1 6284   4.975   4.036   0.204  0.4133  2.5670  0.9681
 1795SOL    HW2 6285   4.900   4.065   0.062 -0.4532  2.7525  1.4562
 1796SOL     OW 6286   6.729   5.018   6.032 -0.3530 -0.0391 -0.2218
 1796SOL    HW1 6287   6.786   4.937   6.019 -0.2171 -0.1091  0.7215
 1796SOL    HW2 6288   6.643   4.993   6.075  0.2497  0.4679  1.3442
 1797SOL     OW 6289   2.430   0.028   6.748  0.1879  0.3886  0.5927
 1797SOL    HW1 6290   2.474   0.073   6.670  0.1367  0.6665  0.7224
 1797SOL    HW2 6291   2.346   0.077   6.772 -0.4366 -0.3851  0.0757
 1798SOL     OW 6292   0.486   3.609   5.972  0.5211  0.1958 -0.0355
 1798SOL    HW1 6293   0.492   3.706   5.995 -0.0356  0.2089  0.0544
 1798SOL    HW2 6294   0.461   3.599   5.875  0.5505  0.1385 -0.0380
 1799SOL     OW 6295   5.276   2.944   1.440  0.0570  0.7193 -0.2518
 1799SOL    HW1 6296   5.221   2.988   1.510 -0.5900  1.5363 -1.2407
 1799SOL    HW2 6297   5.253   2.983   1.350  1.4347  0.2785 -0.8247
 1800SOL     OW 6298   4.039   0.517   5.489  0.4133  0.3971 -0.2370
 1800SOL    HW1 6299   4.136   0.497   5.505  0.1882 -0.4140  0.1410
 1800SOL    HW2 6300   4.025   0.616   5.494  1.4760  0.6631 -1.7956
 1801SOL     OW 6301   1.634   2.535   2.680  0.0908 -1.2523  0.2091
 1801SOL    HW1 6302   1.549   2.493   2.649 -0.4136  1.2478 -2.2107
 1801SOL    HW2 6303   1.616   2.593   2.759 -0.0817 -2.1101  0.8033
 1802SOL     OW 6304   6.642   3.746   4.715  0.2059 -0.6334 -0.2143
 1802SOL    HW1 6305   6.740   3.755   4.731  0.1275  3.7829 -0.9745
 1802SOL    HW2 6306   6.625   3.723   4.619  0.3640 -3.5780  0.3525
 1803SOL     OW 6307   4.862   5.145   3.292 -0.4924 -0.0593  0.2995
 1803SOL    HW1 6308   4.928   5.071   3.305 -1.0066 -1.0780 -2.2169
 1803SOL    HW2 6309   4.893   5.227   3.339  1.9526 -0.8371  0.1594
 1804SOL     OW 6310   2.375   2.064   5.257  0.2795 -0.5814 -0.4172
 1804SOL    HW1 6311   2.381   2.147   5.203 -0.9055  0.4619  0.9704
 1804SOL    HW2 6312   2.371   1.985   5.196 -1.8266  0.5954 -1.9299
 1805SOL     OW 6313   6.109   5.575   6.725 -0.2142 -0.0727 -0.2001
 1805SOL    HW1 6314   6.150   5.656   6.765  1.1557 -0.8799  0.0986
 1805SOL    HW2 6315   6.174   5.499   6.730 -1.5745 -1.2755 -0.1663
 1806SOL     OW 6316   0.574   2.158   2.140 -0.4965  0.0431  0.1249
 1806SOL    HW1 6317   0.611   2.143   2.048 -1.9455 -2.4372 -0.1224
 1806SOL    HW2 6318   0.475   2.164   2.136 -0.5816 -0.0763  1.5211
 1807SOL     OW 6319   6.844   4.409   6.505  0.8307  0.5454 -0.0934
 1807SOL    HW1 6320   6.773   4.478   6.520  0.4225  0.0164  0.4375
 1807SOL    HW2 6321   6.928   4.454   6.475  0.4951  1.2514  0.0057
 1808SOL     OW 6322   5.951   2.812   1.095 -0.2425 -0.0286 -0.2094
 1808SOL    HW1 6323   5.947   2.722   1.051  2.2612  0.0452 -0.7854
 1808SOL    HW2 6324   5.910   2.807   1.186 -0.2353 -1.7392 -0.2715
 1809SOL     OW 6325   1.394   1.666   4.663 -1.1051  0.0145  0.1453
 1809SOL    HW1 6326   1.307   1.623   4.639 -1.0777  0.7195 -1.3247
 1809SOL    HW2 6327   1.376   1.747   4.720 -1.5864  1.0715 -1.4259
 1810SOL     OW 6328   1.271   2.043   3.941 -0.0762 -0.9719 -0.9655
 1810SOL    HW1 6329   1.196   2.040   4.008 -1.3984 -2.5343 -2.4005
 1810SOL    HW2 6330   1.276   2.134   3.901 -0.7615 -0.6521 -0.3591
 1811SOL     OW 6331   3.051   5.116   0.620  0.5573 -0.0653  0.3084
 1811SOL    HW1 6332   3.011   5.110   0.712 -0.4302  2.7336  0.1721
 1811SOL    HW2 6333   3.147   5.142   0.627  1.1460 -2.1657  0.5463
 1812SOL     OW 6334   3.504   1.694   5.625 -0.1000 -0.0395  0.2287
 1812SOL    HW1 6335   3.539   1.754   5.697 -0.2916  0.7837 -0.3584
 1812SOL    HW2 6336   3.408   1.673   5.643 -1.1062  2.7363 -1.4077
 1813SOL     OW 6337   6.224   5.062   2.057 -0.2900 -0.7673  0.2848
 1813SOL    HW1 6338   6.237   5.098   1.965  0.3309  0.6380  0.8993
 1813SOL    HW2 6339   6.266   4.972   2.064 -0.0556 -0.7425 -0.7053
 1814SOL     OW 6340   0.649   0.062   2.117 -0.1194 -0.0249 -0.3572
 1814SOL    HW1 6341   0.626   0.158   2.131  1.3961  0.2291  0.6239
 1814SOL    HW2 6342   0.647   0.041   2.019 -1.3455  0.7536 -0.5146
 1815SOL     OW 6343   4.565   6.970   2.990  0.1181 -0.0493  0.5485
 1815SOL    HW1 6344   4.540   7.054   3.038 -1.5234 -0.0630 -0.2038
 1815SOL    HW2 6345   4.541   6.891   3.046  1.2596 -0.0371  1.0722
 1816SOL     OW 6346   3.597   0.377   6.023 -0.3199  0.4012  0.4933
 1816SOL    HW1 6347   3.554   0.311   5.961  0.7330  0.4811 -0.3549
 1816SOL    HW2 6348   3.543   0.383   6.107 -0.5359 -1.4226  0.5439
 1817SOL     OW 6349   4.756   1.326   4.881  0.3081 -0.3067 -0.0744
 1817SOL    HW1 6350   4.760   1.413   4.930 -0.7431 -1.2891  1.9184
 1817SOL    HW2 6351   4.668   1.281   4.901  1.2406 -2.2930 -0.1722
 1818SOL     OW 6352   2.152   1.258   6.552  0.6174  0.4671  0.1456
 1818SOL    HW1 6353   2.224   1.281   6.618  0.7236  0.1632  0.1340
 1818SOL    HW2 6354   2.115   1.168   6.572  0.6861  0.3487 -0.2421
 1819SOL     OW 6355   6.817   4.915   1.218 -0.9352 -0.6127 -0.8353
 1819SOL    HW1 6356   6.825   4.818   1.240 -0.6852 -0.4866 -0.3585
 1819SOL    HW2 6357   6.845   4.930   1.123  0.0933 -0.8532 -0.5811
 1820SOL     OW 6358   4.192   5.785   4.229  0.2558 -0.2070  0.0474
 1820SOL    HW1 6359   4.178   5.752   4.322 -0.7055  0.6479  0.2218
 1820SOL    HW2 6360   4.128   5.740   4.167 -0.9615  1.1667  0.2629
 1821SOL     OW 6361   4.275   2.263   2.483 -0.0309  0.6695 -0.3283
 1821SOL    HW1 6362   4.310   2.237   2.572  1.4758 -2.0439 -1.5987
 1821SOL    HW2 6363   4.179   2.234   2.474  0.1518 -0.0579  0.0304
 1822SOL     OW 6364   3.422   5.429   5.974  0.5864  0.3496 -0.3089
 1822SOL    HW1 6365   3.410   5.345   6.026 -0.7369  1.2979  0.9973
 1822SOL    HW2 6366   3.347   5.440   5.909  1.0940  0.2356 -0.9323
 1823SOL     OW 6367   3.603   1.818   4.407  0.0399  0.1681  0.0355
 1823SOL    HW1 6368   3.581   1.782   4.498  0.0260 -0.9068 -0.3733
 1823SOL    HW2 6369   3.628   1.914   4.414 -1.2083  0.4439  1.0020
 1824SOL     OW 6370   5.104   3.209   0.213 -0.1348  0.5928  0.4543
 1824SOL    HW1 6371   5.182   3.179   0.268  0.4715  0.8954 -0.2229
 1824SOL    HW2 6372   5.131   3.216   0.117 -1.7741 -2.2450 -0.3440
 1825SOL     OW 6373   1.249   2.840   1.028  0.1535  0.1303 -0.3220
 1825SOL    HW1 6374   1.225   2.802   1.117 -1.0821 -3.2330 -1.9183
 1825SOL    HW2 6375   1.344   2.819   1.006  0.6657  1.5620  0.4276
 1826SOL     OW 6376   2.760   3.328   0.173 -0.5271 -0.4397 -0.2640
 1826SOL    HW1 6377   2.792   3.310   0.266  1.3619 -0.4128 -0.8683
 1826SOL    HW2 6378   2.831   3.303   0.107 -0.0362  3.4391 -1.4928
 1827SOL     OW 6379   7.002   4.290   6.773  0.5491 -0.4384 -0.5203
 1827SOL    HW1 6380   6.968   4.383   6.782  0.9433 -0.3797  0.5121
 1827SOL    HW2 6381   6.926   4.228   6.753  0.0152 -0.1466  0.5591
 1828SOL     OW 6382   0.957   4.771   6.200 -0.2425 -0.1211 -0.3273
 1828SOL    HW1 6383   1.014   4.852   6.217  0.1065 -0.1810 -1.1563
 1828SOL    HW2 6384   0.971   4.705   6.274 -1.3478  0.9997  0.9368
 1829SOL     OW 6385   3.311   6.268   2.397 -0.5650  0.1916  0.2015
 1829SOL    HW1 6386   3.283   6.178   2.429 -0.0070  0.1812  0.6793
 1829SOL    HW2 6387   3.241   6.305   2.336 -1.2824 -0.1152  0.8255
 1830SOL     OW 6388   4.615   2.670   6.891 -0.3920 -0.0593  0.6845
 1830SOL    HW1 6389   4.516   2.656   6.892 -0.2112 -1.8365  3.6445
 1830SOL    HW2 6390   4.661   2.584   6.870  0.5335 -0.6357  4.4906
 1831SOL     OW 6391   3.212   4.320   0.848  0.1402 -0.6328 -0.0455
 1831SOL    HW1 6392   3.250   4.241   0.896 -0.4990 -0.9958 -0.1250
 1831SOL    HW2 6393   3.117   4.335   0.877 -0.2161 -0.7761 -1.0866
 1832SOL     OW 6394   0.576   0.299   5.563  0.2298  0.0605  0.0989
 1832SOL    HW1 6395   0.556   0.294   5.661  0.4686 -1.0473  0.1038
 1832SOL    HW2 6396   0.651   0.363   5.547  0.1681  0.2684  0.6294
 1833SOL     OW 6397   4.634   0.295   1.224 -0.8355  0.3815 -0.2381
 1833SOL    HW1 6398   4.696   0.247   1.285 -1.6254 -0.7066 -0.2642
 1833SOL    HW2 6399   4.552   0.323   1.274 -0.1197  2.3263 -0.0596
 1834SOL     OW 6400   1.946   2.553   0.782 -0.4202  0.2610  0.4419
 1834SOL    HW1 6401   1.994   2.479   0.830 -0.0508  0.0448 -0.2514
 1834SOL    HW2 6402   1.886   2.514   0.713 -1.9422  0.5024  1.5678
 1835SOL     OW 6403   5.631   0.397   5.797  0.0187 -0.1947 -1.1729
 1835SOL    HW1 6404   5.543   0.384   5.751 -0.2493  0.3509 -0.8186
 1835SOL    HW2 6405   5.655   0.312   5.845 -0.4232 -0.2758 -1.0838
 1836SOL     OW 6406   6.098   0.992   5.580  0.1631  0.7317  0.2665
 1836SOL    HW1 6407   6.048   1.051   5.516 -0.4574  1.3892  1.3302
 1836SOL    HW2 6408   6.032   0.941   5.636  0.6995 -0.0898  0.1652
 1837SOL     OW 6409   1.176   2.981   0.571  0.3035 -0.6250 -0.2737
 1837SOL    HW1 6410   1.202   2.885   0.585  0.7463 -0.2427  1.8804
 1837SOL    HW2 6411   1.132   3.016   0.653  0.1624  1.0424 -1.0233
 1838SOL     OW 6412   4.903   2.492   1.825 -0.7678  0.3052 -0.4084
 1838SOL    HW1 6413   4.957   2.408   1.832  0.9233  1.3111 -0.8801
 1838SOL    HW2 6414   4.805   2.469   1.832 -0.3286 -1.6046  0.1223
 1839SOL     OW 6415   6.252   3.138   6.659  0.4263  0.1074  0.3485
 1839SOL    HW1 6416   6.185   3.075   6.620 -0.2379  0.2123  1.2815
 1839SOL    HW2 6417   6.342   3.120   6.620  0.0823 -0.8514 -0.0223
 1840SOL     OW 6418   1.505   0.211   6.829 -0.1086 -0.1730  0.2805
 1840SOL    HW1 6419   1.469   0.234   6.738 -1.5566 -0.0060  0.8710
 1840SOL    HW2 6420   1.563   0.129   6.822  0.4809  0.3269 -0.9188
 1841SOL     OW 6421   2.904   1.189   2.149  0.2731 -0.8033  0.2784
 1841SOL    HW1 6422   2.819   1.149   2.184 -0.1755 -0.0343  0.0871
 1841SOL    HW2 6423   2.889   1.285   2.127  1.0810 -0.7725 -0.1735
 1842SOL     OW 6424   1.352   3.636   1.772 -0.4240  0.2958 -0.1138
 1842SOL    HW1 6425   1.421   3.670   1.708 -1.2372 -0.0685 -1.2122
 1842SOL    HW2 6426   1.386   3.645   1.866  0.2448  2.1170 -0.4945
 1843SOL     OW 6427   4.468   1.631   1.604  0.3663  0.0610  0.4909
 1843SOL    HW1 6428   4.554   1.650   1.653  1.4958  0.6639 -1.6178
 1843SOL    HW2 6429   4.483   1.641   1.506 -2.2049  0.4452  0.0790
 1844SOL     OW 6430   4.559   5.103   2.979 -0.2343 -0.3593 -0.2607
 1844SOL    HW1 6431   4.519   5.077   3.067 -1.5817  0.6529 -0.5410
 1844SOL    HW2 6432   4.638   5.163   2.995 -0.6260  0.0255  0.2463
 1845SOL     OW 6433   1.631   1.617   5.513 -0.1368 -0.5878 -0.1682
 1845SOL    HW1 6434   1.532   1.621   5.499 -0.0186  1.4318 -0.7214
 1845SOL    HW2 6435   1.675   1.682   5.452  1.4486 -0.5994  0.9286
 1846SOL     OW 6436   5.066   3.053   0.854  0.3344 -0.2712  0.4349
 1846SOL    HW1 6437   4.967   3.047   0.839  0.5087 -1.4793 -0.3342
 1846SOL    HW2 6438   5.084   3.118   0.927 -0.9674  0.7695 -0.1109
 1847SOL     OW 6439   2.697   5.907   0.410  0.2153 -0.5118  0.8868
 1847SOL    HW1 6440   2.791   5.917   0.443  0.1074  2.5099  0.5855
 1847SOL    HW2 6441   2.689   5.950   0.320 -1.3736 -1.0860  0.7244
 1848SOL     OW 6442   1.227   4.382   4.194  0.7919  0.2772  0.1000
 1848SOL    HW1 6443   1.146   4.385   4.252  0.5725  0.3088 -0.2082
 1848SOL    HW2 6444   1.284   4.462   4.213  0.2025  0.8429 -0.4686
 1849SOL     OW 6445   4.778   2.887   1.104  0.0253  0.0973  0.0107
 1849SOL    HW1 6446   4.700   2.845   1.150  0.0800 -0.1259 -0.0998
 1849SOL    HW2 6447   4.773   2.986   1.114  0.0254  0.0518  0.4875
 1850SOL     OW 6448   3.609   2.091   0.897 -0.2840  0.1198 -0.0752
 1850SOL    HW1 6449   3.538   2.161   0.888 -0.9178 -0.3261  1.1878
 1850SOL    HW2 6450   3.598   2.023   0.825  0.2168  1.1857 -1.1936
 1851SOL     OW 6451   2.134   6.359   1.958  0.2226  0.4013  0.3331
 1851SOL    HW1 6452   2.222   6.318   1.981  0.5225 -0.1114 -1.5480
 1851SOL    HW2 6453   2.094   6.311   1.879 -1.5074  0.9602  0.8113
 1852SOL     OW 6454   5.029   0.393   4.033 -0.3091 -0.2577  0.1861
 1852SOL    HW1 6455   4.934   0.389   4.064 -0.4735  0.5304 -0.1875
 1852SOL    HW2 6456   5.064   0.486   4.046  0.3349 -0.4822  0.0912
 1853SOL     OW 6457   2.675   1.616   5.849  0.0489  0.4834 -0.0995
 1853SOL    HW1 6458   2.606   1.675   5.806 -0.0947  0.9736  0.7861
 1853SOL    HW2 6459   2.674   1.527   5.804 -1.3138  0.4085  0.0361
 1854SOL     OW 6460   0.634   6.275   6.102  0.1211 -0.5785  0.0604
 1854SOL    HW1 6461   0.732   6.279   6.122  0.1027 -0.4519  0.1237
 1854SOL    HW2 6462   0.582   6.300   6.183  0.0259 -1.1222  0.1693
 1855SOL     OW 6463   6.285   1.252   6.825 -0.9273  0.6171  0.2410
 1855SOL    HW1 6464   6.192   1.281   6.843 -0.3944  1.8578  1.1451
 1855SOL    HW2 6465   6.333   1.324   6.774 -0.4469  0.0004 -0.2039
 1856SOL     OW 6466   4.203   2.792   5.879 -0.0553 -0.0367 -0.1790
 1856SOL    HW1 6467   4.105   2.774   5.867 -0.0993  0.2973 -0.3134
 1856SOL    HW2 6468   4.235   2.852   5.806  0.2870 -0.2817 -0.2311
 1857SOL     OW 6469   4.446   2.220   0.684 -0.4282  0.1271 -0.0708
 1857SOL    HW1 6470   4.408   2.311   0.699 -1.2215 -0.1783 -0.2166
 1857SOL    HW2 6471   4.375   2.158   0.653  0.4477 -0.1380 -1.6581
 1858SOL     OW 6472   5.280   2.148   2.956  0.0963  0.1976 -0.3138
 1858SOL    HW1 6473   5.292   2.130   2.859  1.2060 -1.4990  0.0897
 1858SOL    HW2 6474   5.195   2.106   2.988  0.1620  0.0102 -0.3835
 1859SOL     OW 6475   5.824   4.725   3.381  0.3523 -0.0902 -0.1939
 1859SOL    HW1 6476   5.881   4.676   3.315 -0.5231 -0.9652 -0.3174
 1859SOL    HW2 6477   5.869   4.810   3.406  0.6789  0.3132 -1.9856
 1860SOL     OW 6478   6.820   6.564   6.922 -0.3997 -0.3124 -0.2175
 1860SOL    HW1 6479   6.822   6.601   7.015 -1.1036 -0.5905 -0.0849
 1860SOL    HW2 6480   6.761   6.620   6.864 -0.8848 -0.7933 -0.1991
 1861SOL     OW 6481   0.584   0.999   0.429 -0.1413  0.3809  0.1116
 1861SOL    HW1 6482   0.562   0.923   0.491  1.6837 -1.5493 -1.4712
 1861SOL    HW2 6483   0.518   1.000   0.354  0.7690 -0.7542 -0.7414
 1862SOL     OW 6484   4.498   4.648   4.866 -0.6468 -0.1303  0.2164
 1862SOL    HW1 6485   4.427   4.607   4.924 -1.3066  2.1190  1.1023
 1862SOL    HW2 6486   4.585   4.647   4.915 -1.3640  2.5231  1.7725
 1863SOL     OW 6487   0.812   1.627   6.164  0.0287  0.3235 -0.1943
 1863SOL    HW1 6488   0.833   1.584   6.076  0.3978  0.0299  0.0357
 1863SOL    HW2 6489   0.741   1.574   6.210  1.1332 -0.5925  0.5028
 1864SOL     OW 6490   3.570   6.172   2.231  0.5044  0.2694 -0.2766
 1864SOL    HW1 6491   3.567   6.122   2.144  1.2081 -2.6893  1.2557
 1864SOL    HW2 6492   3.477   6.190   2.263  0.2277 -0.0485 -0.8849
 1865SOL     OW 6493   5.170   1.589   5.202  0.2200  0.3037 -0.8229
 1865SOL    HW1 6494   5.164   1.506   5.259 -0.0259  1.2896  0.6408
 1865SOL    HW2 6495   5.179   1.562   5.106  0.7433 -1.4296 -0.3400
 1866SOL     OW 6496   6.004   4.992   4.436 -0.0356  0.3799  0.1573
 1866SOL    HW1 6497   6.028   5.089   4.429 -0.5847  0.6365  1.5400
 1866SOL    HW2 6498   5.932   4.981   4.504 -1.0189 -0.8446 -1.0424
 1867SOL     OW 6499   1.356   1.211   6.821 -0.0470 -0.0531  0.2031
 1867SOL    HW1 6500   1.357   1.259   6.733 -1.3151  0.8424  0.6628
 1867SOL    HW2 6501   1.271   1.160   6.830  0.6253 -1.1622  0.3913
 1868SOL     OW 6502   4.856   5.331   0.166 -0.4333  0.3132 -0.1081
 1868SOL    HW1 6503   4.780   5.270   0.190 -0.1140 -0.0530 -0.0161
 1868SOL    HW2 6504   4.848   5.358   0.070  0.6750 -1.7396 -0.8392
 1869SOL     OW 6505   5.183   1.031   6.267  0.1576  0.1222  0.6918
 1869SOL    HW1 6506   5.195   0.966   6.193  1.5537  0.1575  0.8672
 1869SOL    HW2 6507   5.088   1.064   6.268 -0.2900 -1.0963 -0.0472
 1870SOL     OW 6508   6.126   1.385   5.902 -0.0220  0.3372 -0.2974
 1870SOL    HW1 6509   6.084   1.337   5.979  2.3199  0.4220  1.1042
 1870SOL    HW2 6510   6.183   1.321   5.850  0.0939  0.7682 -0.7086
 1871SOL     OW 6511   2.662   5.931   6.949  0.1842 -0.0355  0.4483
 1871SOL    HW1 6512   2.718   5.986   6.887 -0.8184  0.1421 -0.3341
 1871SOL    HW2 6513   2.631   5.849   6.901  0.2714 -0.4339  1.0688
 1872SOL     OW 6514   2.852   3.881   6.630 -0.0608  0.0440  0.3871
 1872SOL    HW1 6515   2.886   3.855   6.540  2.8623  2.2003  0.7334
 1872SOL    HW2 6516   2.753   3.864   6.635  0.0036 -1.7951 -2.5362
 1873SOL     OW 6517   4.722   2.258   3.033 -0.2625 -0.5268  0.1779
 1873SOL    HW1 6518   4.808   2.219   3.067  0.9832  2.5385  0.9362
 1873SOL    HW2 6519   4.734   2.288   2.939 -0.3591  0.1909  0.3859
 1874SOL     OW 6520   2.240   5.818   6.894 -0.2586 -0.3537 -0.1580
 1874SOL    HW1 6521   2.316   5.753   6.893  0.2733  0.2167  0.9451
 1874SOL    HW2 6522   2.276   5.911   6.902 -1.0156  0.0923 -1.6793
 1875SOL     OW 6523   1.485   0.135   2.422  0.5834  0.5367 -0.1749
 1875SOL    HW1 6524   1.540   0.215   2.399  1.1919  0.8541  2.1380
 1875SOL    HW2 6525   1.536   0.075   2.484 -0.2565 -1.1420 -1.0244
 1876SOL     OW 6526   1.909   6.241   5.270  0.3970  0.0461  0.2679
 1876SOL    HW1 6527   1.872   6.199   5.187  0.1091  1.2441 -0.2241
 1876SOL    HW2 6528   1.849   6.220   5.347  0.0452 -0.1188 -0.0472
 1877SOL     OW 6529   6.688   1.336   4.308  0.2941  0.1406 -0.1051
 1877SOL    HW1 6530   6.652   1.270   4.374 -1.0518  0.9147 -0.0279
 1877SOL    HW2 6531   6.672   1.302   4.215 -0.7371  0.5121 -0.0722
 1878SOL     OW 6532   5.137   3.908   4.836 -0.0747  0.1593 -0.4811
 1878SOL    HW1 6533   5.061   3.843   4.827 -1.4606  1.8599 -1.9540
 1878SOL    HW2 6534   5.155   3.950   4.747  2.7301 -0.2562 -0.2069
 1879SOL     OW 6535   3.763   6.462   6.022  0.1211  0.0323 -0.2799
 1879SOL    HW1 6536   3.667   6.448   6.042  0.5703 -0.2691  1.9297
 1879SOL    HW2 6537   3.819   6.423   6.095  1.8970  1.1271 -0.9650
 1880SOL     OW 6538   1.652   3.906   5.203 -0.0601 -0.6433 -0.0726
 1880SOL    HW1 6539   1.610   3.872   5.119 -1.3708 -1.2826  0.7976
 1880SOL    HW2 6540   1.749   3.923   5.188 -0.4556  0.1289 -1.9488
 1881SOL     OW 6541   3.976   2.157   3.260  0.1912 -0.3765  0.6416
 1881SOL    HW1 6542   3.899   2.144   3.199  0.7075 -0.6031  0.0252
 1881SOL    HW2 6543   3.951   2.128   3.352 -0.8103  0.5914  0.6942
 1882SOL     OW 6544   6.479   6.629   0.488 -0.2544 -0.4131 -0.5480
 1882SOL    HW1 6545   6.403   6.694   0.497 -0.2958 -0.6207  0.8093
 1882SOL    HW2 6546   6.443   6.536   0.482 -0.1565 -0.3964 -1.5928
 1883SOL     OW 6547   2.169   3.614   2.753 -0.1346 -0.3040  0.2861
 1883SOL    HW1 6548   2.148   3.559   2.834  0.1038 -0.7173  0.0704
 1883SOL    HW2 6549   2.138   3.567   2.671 -0.7919  0.3308  0.1651
 1884SOL     OW 6550   4.287   2.430   0.956  0.0878  0.3670  0.1391
 1884SOL    HW1 6551   4.260   2.476   1.041  1.0053  0.4713  0.3858
 1884SOL    HW2 6552   4.215   2.367   0.928 -1.0078  1.6103  0.0344
 1885SOL     OW 6553   6.606   2.878   1.544  0.1667 -0.0477  0.0857
 1885SOL    HW1 6554   6.553   2.813   1.489  0.2834 -0.2371  0.1946
 1885SOL    HW2 6555   6.572   2.877   1.639 -0.8828  1.2083 -0.2471
 1886SOL     OW 6556   3.462   3.151   4.400  0.1531  0.1826  0.0927
 1886SOL    HW1 6557   3.529   3.088   4.438  0.4275  0.5319  0.1995
 1886SOL    HW2 6558   3.370   3.113   4.410 -0.0507  1.2200  3.1710
 1887SOL     OW 6559   0.230   3.886   3.947 -0.4120  0.4085 -0.3914
 1887SOL    HW1 6560   0.228   3.966   4.007  0.2523  0.4747 -0.4573
 1887SOL    HW2 6561   0.322   3.847   3.945 -0.4463  0.3531 -1.2892
 1888SOL     OW 6562   4.529   2.774   6.381 -0.2413  0.2686  0.2201
 1888SOL    HW1 6563   4.534   2.835   6.302  0.3947  2.4930  1.8793
 1888SOL    HW2 6564   4.434   2.744   6.393  0.0821 -3.1272 -3.3733
 1889SOL     OW 6565   4.262   3.465   6.527  0.3112 -0.4110  0.7832
 1889SOL    HW1 6566   4.231   3.553   6.490  0.0603 -0.6502  0.4255
 1889SOL    HW2 6567   4.276   3.400   6.452 -2.8835 -1.8067  1.2431
 1890SOL     OW 6568   6.155   1.284   5.339  0.4147  0.5210 -0.1597
 1890SOL    HW1 6569   6.125   1.378   5.353 -0.8516  0.0133  0.7902
 1890SOL    HW2 6570   6.130   1.254   5.247  2.1637  1.5538 -1.0207
 1891SOL     OW 6571   5.599   4.380   5.849  0.4990  0.3047 -0.1602
 1891SOL    HW1 6572   5.638   4.412   5.935  0.8217 -0.0159 -0.1835
 1891SOL    HW2 6573   5.666   4.323   5.801  0.0701 -0.0977 -0.2907
 1892SOL     OW 6574   3.171   1.076   5.204  0.1245  0.5671  0.4918
 1892SOL    HW1 6575   3.220   1.073   5.291  2.6967  3.2650 -0.7212
 1892SOL    HW2 6576   3.218   1.018   5.137 -2.6162 -2.6246  1.0601
 1893SOL     OW 6577   2.359   1.456   1.639  0.4446 -0.0277  0.0878
 1893SOL    HW1 6578   2.430   1.445   1.708 -0.8988  2.5412  2.0910
 1893SOL    HW2 6579   2.288   1.387   1.653  1.2346 -0.8984 -0.1618
 1894SOL     OW 6580   4.798   3.619   1.706  0.2556 -0.4628 -0.1790
 1894SOL    HW1 6581   4.758   3.652   1.621  1.1625  1.2689  0.0176
 1894SOL    HW2 6582   4.769   3.525   1.722 -2.8380  0.3106 -0.5656
 1895SOL     OW 6583   4.875   0.088   4.494  0.0649 -0.0936 -0.5122
 1895SOL    HW1 6584   4.962   0.137   4.507  0.1852 -0.7715  1.4891
 1895SOL    HW2 6585   4.801   0.155   4.488  0.3659  0.4124  0.9927
 1896SOL     OW 6586   1.097   1.632   6.348  0.0541  0.4356  0.6062
 1896SOL    HW1 6587   1.087   1.727   6.321  2.0963  0.4148 -0.3868
 1896SOL    HW2 6588   1.102   1.625   6.447 -1.2809  1.1932  0.7515
 1897SOL     OW 6589   6.757   5.417   4.585 -0.2382  0.1310  0.4717
 1897SOL    HW1 6590   6.781   5.363   4.665  0.1554  0.6927  0.7396
 1897SOL    HW2 6591   6.833   5.479   4.563 -0.5504  0.3404 -0.0247
 1898SOL     OW 6592   4.664   6.499   0.486  0.0344  0.4531 -0.4519
 1898SOL    HW1 6593   4.583   6.453   0.522  0.0213 -0.2222 -1.3074
 1898SOL    HW2 6594   4.697   6.566   0.552 -0.8814  0.3243  0.1451
 1899SOL     OW 6595   0.936   2.647   3.050  0.0178 -0.0733  0.0624
 1899SOL    HW1 6596   0.853   2.592   3.050 -0.8806  1.2505 -0.2919
 1899SOL    HW2 6597   0.976   2.647   2.959 -2.4317  3.3416 -1.2247
 1900SOL     OW 6598   4.737   6.235   1.470 -0.1964  0.3483  0.2105
 1900SOL    HW1 6599   4.810   6.239   1.539  0.6593 -0.6496 -0.5885
 1900SOL    HW2 6600   4.652   6.203   1.512  0.9442 -2.8455  0.4056
 1901SOL     OW 6601   0.595   1.989   6.279  0.0802  0.2687 -0.0060
 1901SOL    HW1 6602   0.642   1.963   6.363 -1.5849  1.2957  1.2846
 1901SOL    HW2 6603   0.622   2.083   6.254 -0.2399  0.3534 -0.0297
 1902SOL     OW 6604   2.227   4.593   6.229  0.5637  0.0439 -0.0047
 1902SOL    HW1 6605   2.151   4.535   6.259  0.7220  0.0470  0.3993
 1902SOL    HW2 6606   2.241   4.667   6.295  0.6073  0.3267 -0.3247
 1903SOL     OW 6607   5.303   5.214   4.120 -0.6775 -0.1245  0.2826
 1903SOL    HW1 6608   5.252   5.128   4.111 -0.3727 -0.0994 -3.1065
 1903SOL    HW2 6609   5.251   5.288   4.077  0.0968  0.9242  1.0942
 1904SOL     OW 6610   1.063   0.404   3.228 -0.3555  0.1179  0.2219
 1904SOL    HW1 6611   1.153   0.449   3.231 -1.1141  1.7525 -0.4498
 1904SOL    HW2 6612   1.076   0.306   3.212  1.3797 -0.0554  2.2426
 1905SOL     OW 6613   0.225   1.942   0.603 -0.0031  0.1929  0.7217
 1905SOL    HW1 6614   0.273   1.867   0.557  1.3972  0.9050  0.9719
 1905SOL    HW2 6615   0.291   2.007   0.639 -1.0201 -0.0032  3.2141
 1906SOL     OW 6616   5.480   4.952   6.131 -0.4944 -0.1627  0.0097
 1906SOL    HW1 6617   5.546   4.982   6.200 -0.2100  1.1933 -0.8276
 1906SOL    HW2 6618   5.387   4.959   6.168 -0.5109  2.5487 -0.3819
 1907SOL     OW 6619   3.256   6.901   2.877 -0.2281 -0.3551 -1.4854
 1907SOL    HW1 6620   3.223   6.941   2.963 -0.1858 -2.3039 -0.4959
 1907SOL    HW2 6621   3.348   6.936   2.857 -1.3646  2.3987 -2.3887
 1908SOL     OW 6622   5.423   4.910   1.674  0.4162 -0.7303  0.4740
 1908SOL    HW1 6623   5.331   4.940   1.648  0.8415  0.5122  0.3175
 1908SOL    HW2 6624   5.482   4.908   1.593  0.5711 -1.3885  0.5933
 1909SOL     OW 6625   5.978   4.058   2.906  0.4030 -0.2531 -0.0962
 1909SOL    HW1 6626   5.891   4.050   2.858  0.6675 -1.5530 -0.3835
 1909SOL    HW2 6627   5.984   3.988   2.977  0.2187  1.3380  1.5469
 1910SOL     OW 6628   4.886   0.418   2.337 -0.0172  0.7426  0.7511
 1910SOL    HW1 6629   4.874   0.364   2.420 -0.6338  1.0160  0.8486
 1910SOL    HW2 6630   4.971   0.470   2.342 -0.2310  1.0458  1.3819
 1911SOL     OW 6631   1.483   2.398   5.413 -0.0471 -0.1683  0.1937
 1911SOL    HW1 6632   1.494   2.312   5.462  0.9758 -1.0064 -1.4231
 1911SOL    HW2 6633   1.533   2.470   5.461  0.0612 -0.7351  0.9387
 1912SOL     OW 6634   2.755   1.306   3.205 -0.1213 -0.1099 -0.4031
 1912SOL    HW1 6635   2.692   1.351   3.142  0.5967 -0.5509 -1.4673
 1912SOL    HW2 6636   2.804   1.234   3.157  2.8031  1.6064 -0.2303
 1913SOL     OW 6637   3.965   3.521   5.997 -0.0033 -0.0762 -0.0423
 1913SOL    HW1 6638   3.996   3.583   5.925 -0.6740 -0.2078 -0.4543
 1913SOL    HW2 6639   4.016   3.539   6.081  3.0458 -1.9569 -1.3224
 1914SOL     OW 6640   4.805   0.957   5.300 -0.1485 -0.8030  0.0184
 1914SOL    HW1 6641   4.904   0.953   5.290 -0.1401 -2.3753  0.5015
 1914SOL    HW2 6642   4.783   0.993   5.391 -0.1364  3.2700 -1.3622
 1915SOL     OW 6643   2.033   0.045   6.576 -0.3677 -0.5277  0.3743
 1915SOL    HW1 6644   1.975  -0.032   6.549  1.4676 -0.6226 -4.1727
 1915SOL    HW2 6645   1.991   0.131   6.546 -1.0378  0.0935  2.8541
 1916SOL     OW 6646   2.684   6.924   2.511 -0.1639 -0.0614  0.0412
 1916SOL    HW1 6647   2.594   6.889   2.486 -0.2351  1.1797 -1.5920
 1916SOL    HW2 6648   2.674   6.996   2.579 -0.1677 -1.6752  1.8289
 1917SOL     OW 6649   3.451   3.898   2.995  0.2979  0.1861  0.0234
 1917SOL    HW1 6650   3.434   3.983   3.044 -0.0231 -0.0333  0.3024
 1917SOL    HW2 6651   3.379   3.832   3.017 -0.1551  0.2584 -1.1645
 1918SOL     OW 6652   0.302   0.521   0.017 -0.1298  0.2058  0.4807
 1918SOL    HW1 6653   0.247   0.605   0.018 -0.1966  0.1649  1.3850
 1918SOL    HW2 6654   0.397   0.544  -0.005  0.0960  0.6949  1.8896
 1919SOL     OW 6655   6.135   6.796   0.137  0.1535  0.0052  0.2411
 1919SOL    HW1 6656   6.061   6.863   0.149  0.2268  0.2157 -0.3972
 1919SOL    HW2 6657   6.223   6.843   0.140  0.1934  0.0032 -0.5194
 1920SOL     OW 6658   4.784   0.594   3.035 -0.7580 -0.6333 -0.2001
 1920SOL    HW1 6659   4.825   0.586   3.126 -0.3970 -0.6682 -0.3606
 1920SOL    HW2 6660   4.704   0.535   3.028 -1.2589 -0.0265  0.3499
 1921SOL     OW 6661   1.735   5.508   0.937  0.1782 -0.1423  0.1657
 1921SOL    HW1 6662   1.776   5.568   0.868  0.4895 -0.5831 -0.0386
 1921SOL    HW2 6663   1.806   5.451   0.978 -0.3994 -2.1541 -1.4209
 1922SOL     OW 6664   4.148   5.795   5.180  0.2652 -0.4002  0.2246
 1922SOL    HW1 6665   4.178   5.727   5.247  2.0953  0.4547  0.3293
 1922SOL    HW2 6666   4.191   5.777   5.092 -1.7708 -1.2468 -0.6663
 1923SOL     OW 6667   1.359   1.943   2.559  0.1937  0.1198  0.3645
 1923SOL    HW1 6668   1.305   2.011   2.509  0.3786  1.8618  2.3719
 1923SOL    HW2 6669   1.415   1.891   2.495 -1.7058  0.2170 -1.4884
 1924SOL     OW 6670   0.259   4.600   1.477 -0.2491  0.1865 -0.3066
 1924SOL    HW1 6671   0.305   4.577   1.391  1.6568  0.5642  0.5451
 1924SOL    HW2 6672   0.283   4.533   1.546  2.2670  2.3747  1.1764
 1925SOL     OW 6673   4.047   4.339   0.863 -0.3402  0.1993 -0.4995
 1925SOL    HW1 6674   4.142   4.368   0.854 -0.1320 -0.1834  0.3597
 1925SOL    HW2 6675   4.034   4.296   0.952 -1.1948 -0.2372 -0.8276
 1926SOL     OW 6676   1.293   0.543   2.971  0.1699 -0.0155  0.2487
 1926SOL    HW1 6677   1.321   0.635   2.942  0.8301 -0.4480 -0.5466
 1926SOL    HW2 6678   1.317   0.529   3.067  0.7359  0.3856  0.1681
 1927SOL     OW 6679   0.443   3.205   0.116  0.4341 -0.3875  0.3312
 1927SOL    HW1 6680   0.355   3.161   0.136  0.8021 -1.0525  0.5410
 1927SOL    HW2 6681   0.431   3.274   0.045 -0.3249 -0.2148  0.6189
 1928SOL     OW 6682   1.505   2.903   3.883  0.2529  0.4008 -0.5843
 1928SOL    HW1 6683   1.488   2.965   3.960  1.1454  0.1841 -0.2029
 1928SOL    HW2 6684   1.452   2.819   3.895  0.9494  0.0621  0.1811
 1929SOL     OW 6685   0.912   5.838   2.539  0.1296  0.4082  0.4896
 1929SOL    HW1 6686   0.816   5.864   2.543  0.4930  1.9541  0.1941
 1929SOL    HW2 6687   0.921   5.739   2.539 -1.5250  0.2134 -0.7666
 1930SOL     OW 6688   5.606   6.649   5.906  0.8083 -0.7213 -0.6259
 1930SOL    HW1 6689   5.613   6.651   5.807  1.2120  0.2104 -0.5907
 1930SOL    HW2 6690   5.529   6.705   5.936  1.5008  0.1194 -0.3641
 1931SOL     OW 6691   0.950   3.596   3.838  0.5493  0.0394 -0.4842
 1931SOL    HW1 6692   0.946   3.507   3.884 -0.5090  0.8508  1.0979
 1931SOL    HW2 6693   0.873   3.604   3.775 -0.2499  0.3712  0.4952
 1932SOL     OW 6694   5.468   1.675   2.410  0.1794 -0.3094 -0.1230
 1932SOL    HW1 6695   5.385   1.722   2.438 -1.4422 -2.3288 -1.3144
 1932SOL    HW2 6696   5.481   1.593   2.466 -0.0834 -1.3890 -1.5845
 1933SOL     OW 6697   3.029   5.677   0.324  1.0003  0.3087  0.2685
 1933SOL    HW1 6698   3.020   5.745   0.251 -2.5523 -1.9295 -1.7262
 1933SOL    HW2 6699   2.990   5.713   0.408 -0.1547  1.0370 -0.5455
 1934SOL     OW 6700   0.541   6.165   4.221  0.4444 -0.2059  0.1074
 1934SOL    HW1 6701   0.537   6.264   4.236 -0.1012  0.1046 -1.8574
 1934SOL    HW2 6702   0.449   6.130   4.202  0.7420 -0.9728  0.0422
 1935SOL     OW 6703   0.157   1.425   3.478  0.3292  0.0471 -0.4188
 1935SOL    HW1 6704   0.074   1.477   3.497  1.0850  0.6162  1.5635
 1935SOL    HW2 6705   0.137   1.327   3.488 -0.5884  0.0165 -2.1231
 1936SOL     OW 6706   6.535   6.120   6.985  0.0469 -0.2029  0.3381
 1936SOL    HW1 6707   6.598   6.178   6.933  2.1884 -1.7395  1.1040
 1936SOL    HW2 6708   6.526   6.031   6.939 -1.1586 -0.2096  0.5476
 1937SOL     OW 6709   4.513   0.183   3.411  0.0758  0.2617 -0.1283
 1937SOL    HW1 6710   4.445   0.255   3.394 -0.9527  0.0590  2.6011
 1937SOL    HW2 6711   4.539   0.184   3.507  0.3025 -2.7829 -0.0660
 1938SOL     OW 6712   2.656   6.845   5.704  0.5535 -0.2375 -0.2785
 1938SOL    HW1 6713   2.672   6.938   5.671 -0.6676 -0.0518 -0.3988
 1938SOL    HW2 6714   2.695   6.834   5.795 -1.5815  1.2690  0.9219
 1939SOL     OW 6715   4.759   2.113   3.674 -0.0315 -0.0335 -0.2615
 1939SOL    HW1 6716   4.740   2.108   3.772 -2.5850  0.7891 -0.6444
 1939SOL    HW2 6717   4.739   2.025   3.631  3.0101 -1.0428  0.1578
 1940SOL     OW 6718   6.081   0.642   1.031 -0.0179 -0.3414  0.6062
 1940SOL    HW1 6719   6.074   0.726   0.977  2.1798 -1.7616 -2.1504
 1940SOL    HW2 6720   6.152   0.654   1.101  2.9937 -0.8466 -2.1111
 1941SOL     OW 6721   5.029   6.085   1.356 -0.0147  0.5719  0.1686
 1941SOL    HW1 6722   5.098   6.144   1.397  0.3115 -0.2269  0.8148
 1941SOL    HW2 6723   4.974   6.137   1.291  2.5770  0.7726 -2.0174
 1942SOL     OW 6724   0.242   4.074   1.938 -0.1496 -0.1806 -0.5983
 1942SOL    HW1 6725   0.249   4.108   1.844 -1.1609  0.9252 -0.3003
 1942SOL    HW2 6726   0.241   3.974   1.938  2.6753 -0.3208 -1.5372
 1943SOL     OW 6727   5.975   4.359   5.086 -0.4077 -0.0369 -0.1269
 1943SOL    HW1 6728   6.057   4.371   5.030 -0.3121 -0.5873 -0.1100
 1943SOL    HW2 6729   6.000   4.313   5.171 -1.2393 -3.8168 -1.6887
 1944SOL     OW 6730   6.722   0.551   2.818 -0.2891  0.6970  0.0435
 1944SOL    HW1 6731   6.655   0.515   2.752 -4.0776  2.8189  2.3372
 1944SOL    HW2 6732   6.731   0.487   2.894  0.4438  0.3560 -0.3226
 1945SOL     OW 6733   2.565   5.293   4.137 -0.3929  0.0298 -0.1781
 1945SOL    HW1 6734   2.520   5.381   4.151  2.1695  1.4699 -0.4069
 1945SOL    HW2 6735   2.659   5.298   4.172  0.2893 -2.1510 -1.5118
 1946SOL     OW 6736   1.322   5.820   5.216  0.5674  0.2586  0.5792
 1946SOL    HW1 6737   1.367   5.756   5.154 -1.2003 -2.8528  2.2797
 1946SOL    HW2 6738   1.223   5.806   5.212  0.2827  1.2481  2.7305
 1947SOL     OW 6739   3.763   7.002   1.527  0.4722  0.2436 -0.6053
 1947SOL    HW1 6740   3.694   7.017   1.457 -1.4303 -0.1422  1.0774
 1947SOL    HW2 6741   3.751   6.911   1.568  2.0755  0.1132 -0.3351
 1948SOL     OW 6742   6.108   1.785   3.925 -0.8778  0.3110 -0.0072
 1948SOL    HW1 6743   6.118   1.818   3.831 -0.2953  1.1605  0.3438
 1948SOL    HW2 6744   6.195   1.747   3.956 -0.6837  1.2627  0.6406
 1949SOL     OW 6745   6.676   3.060   0.769  0.0688 -0.2809  0.1384
 1949SOL    HW1 6746   6.602   3.065   0.701 -0.4244 -1.5170  0.5661
 1949SOL    HW2 6747   6.651   3.115   0.849  0.1722  0.3007 -0.2197
 1950SOL     OW 6748   2.915   5.425   2.165 -0.5168 -0.0402 -0.5824
 1950SOL    HW1 6749   2.997   5.450   2.112  0.2688  1.8345  1.3700
 1950SOL    HW2 6750   2.834   5.439   2.109  0.3525  0.2460 -1.8199
 1951SOL     OW 6751   5.373   2.772   5.515 -0.1244 -0.3356  0.3645
 1951SOL    HW1 6752   5.275   2.786   5.529 -0.0721  0.1674  0.2338
 1951SOL    HW2 6753   5.411   2.850   5.466 -0.1258 -1.6090 -1.7916
 1952SOL     OW 6754   4.128   3.331   2.462 -0.5872  0.3040 -0.2750
 1952SOL    HW1 6755   4.189   3.383   2.402 -0.5714 -0.5129 -0.9855
 1952SOL    HW2 6756   4.089   3.254   2.411 -1.1804  0.0486  0.5491
 1953SOL     OW 6757   6.749   2.115   3.954  0.8021  0.4090  1.1294
 1953SOL    HW1 6758   6.666   2.104   3.900  0.1973  0.3294  2.0512
 1953SOL    HW2 6759   6.823   2.149   3.896  0.1965  0.2396  0.2455
 1954SOL     OW 6760   1.737   2.082   2.979 -0.8187  0.5489  0.4631
 1954SOL    HW1 6761   1.739   2.071   2.879  2.8265  0.4633  0.4025
 1954SOL    HW2 6762   1.746   1.992   3.022  1.4298  0.8351  0.6940
 1955SOL     OW 6763   0.418   4.694   3.852 -0.1810  0.2284  0.4389
 1955SOL    HW1 6764   0.404   4.650   3.941  0.6198  0.5711  0.7429
 1955SOL    HW2 6765   0.468   4.632   3.791  0.4823  0.5010  0.6927
 1956SOL     OW 6766   3.349   5.527   3.594 -0.1864  0.1961 -0.4389
 1956SOL    HW1 6767   3.260   5.509   3.551  0.8634 -0.0719 -2.6358
 1956SOL    HW2 6768   3.360   5.626   3.606  0.2234  0.4420 -2.5436
 1957SOL     OW 6769   1.178   6.962   6.320 -0.1895 -0.0842  0.0877
 1957SOL    HW1 6770   1.104   6.912   6.276 -0.4391 -0.3366  0.7762
 1957SOL    HW2 6771   1.143   7.006   6.403  0.2103  0.5827 -0.0928
 1958SOL     OW 6772   5.080   1.043   6.675 -0.3634 -0.0568 -0.0381
 1958SOL    HW1 6773   5.142   0.987   6.620 -1.3045  0.4470 -1.6923
 1958SOL    HW2 6774   4.993   0.995   6.687 -1.3691  1.1707 -1.9155
 1959SOL     OW 6775   5.548   0.321   0.317 -0.1248 -0.6434  0.2897
 1959SOL    HW1 6776   5.449   0.333   0.322  0.1488  3.1390 -0.6332
 1959SOL    HW2 6777   5.575   0.304   0.223  0.2701  0.9489  0.0995
 1960SOL     OW 6778   4.459   4.629   2.873  0.0382 -0.2606  0.3078
 1960SOL    HW1 6779   4.506   4.542   2.861 -1.2689 -1.0165  0.4365
 1960SOL    HW2 6780   4.524   4.699   2.903  1.1507 -1.1286 -0.0341
 1961SOL     OW 6781   5.800   4.436   4.908  0.3457  0.2566 -0.0270
 1961SOL    HW1 6782   5.853   4.380   4.971 -0.8236  0.0649  0.8065
 1961SOL    HW2 6783   5.835   4.529   4.909  0.5845  0.1649  0.6020
 1962SOL     OW 6784   0.481   6.372   5.354  0.1158 -0.1014  0.5552
 1962SOL    HW1 6785   0.576   6.377   5.387  0.0001 -1.3272  1.1292
 1962SOL    HW2 6786   0.421   6.418   5.419  0.3344  0.9885  0.0166
 1963SOL     OW 6787   3.124   2.093   3.173  0.0078  0.1794  0.1199
 1963SOL    HW1 6788   3.192   2.131   3.236  0.0054  1.2234 -0.4792
 1963SOL    HW2 6789   3.155   2.005   3.138  1.0492  0.6413 -0.1376
 1964SOL     OW 6790   6.558   4.282   2.433  0.0907  0.0428  0.8976
 1964SOL    HW1 6791   6.496   4.247   2.504 -1.5698  1.4422  0.1989
 1964SOL    HW2 6792   6.589   4.374   2.458  2.6764 -0.9294  1.6534
 1965SOL     OW 6793   1.277   6.360   2.167  0.2537  0.1039  0.1865
 1965SOL    HW1 6794   1.271   6.267   2.205 -2.3464  0.5699  1.1026
 1965SOL    HW2 6795   1.252   6.426   2.237 -0.4947  1.2952 -1.1493
 1966SOL     OW 6796   6.416   6.795   2.037 -0.0891  0.3860 -0.0938
 1966SOL    HW1 6797   6.485   6.816   2.108 -0.9910  1.4801  0.4985
 1966SOL    HW2 6798   6.391   6.880   1.990  0.9609 -0.4141 -2.2025
 1967SOL     OW 6799   0.302   2.209   6.454 -0.0886  0.0720  0.1841
 1967SOL    HW1 6800   0.276   2.221   6.358  1.8324 -1.2210 -0.5455
 1967SOL    HW2 6801   0.401   2.218   6.464 -0.3213  0.9364  2.1946
 1968SOL     OW 6802   4.614   5.336   3.171 -0.2709 -0.0925 -0.4312
 1968SOL    HW1 6803   4.566   5.282   3.240 -1.1007  1.6956  0.4496
 1968SOL    HW2 6804   4.550   5.398   3.127  0.0730 -1.7131 -3.4526
 1969SOL     OW 6805   3.886   1.325   2.213 -0.8262  0.3074 -0.3881
 1969SOL    HW1 6806   3.862   1.383   2.135  0.3718  1.4981  0.0961
 1969SOL    HW2 6807   3.820   1.339   2.286 -1.2454  0.1207 -0.7257
 1970SOL     OW 6808   1.638   2.166   3.995 -0.6118  0.1847  0.0969
 1970SOL    HW1 6809   1.582   2.100   4.045 -0.3179 -0.7071 -0.7343
 1970SOL    HW2 6810   1.609   2.168   3.899  1.3495 -0.9729 -0.5730
 1971SOL     OW 6811   0.690   0.708   4.930 -0.4503  0.0934 -0.1040
 1971SOL    HW1 6812   0.648   0.795   4.907  0.7255  1.1282  1.4622
 1971SOL    HW2 6813   0.705   0.655   4.847 -3.1603  0.4072 -0.8941
 1972SOL     OW 6814   2.244   4.071   3.771  0.2211 -0.3009 -0.0872
 1972SOL    HW1 6815   2.208   4.164   3.767  0.7704 -0.1148 -1.0955
 1972SOL    HW2 6816   2.193   4.018   3.838 -1.1157  0.2991 -0.5987
 1973SOL     OW 6817   0.757   1.169   1.304  0.2657  0.1666  0.0490
 1973SOL    HW1 6818   0.794   1.238   1.242  2.8351 -1.5024 -0.4592
 1973SOL    HW2 6819   0.699   1.212   1.373  0.5040  2.5760 -1.1735
 1974SOL     OW 6820   5.977   6.433   3.980 -0.2617 -0.2935  0.3565
 1974SOL    HW1 6821   6.040   6.371   3.933 -1.7746 -1.3466 -0.3615
 1974SOL    HW2 6822   5.884   6.417   3.947 -1.0019  0.8184  1.8004
 1975SOL     OW 6823   2.624   0.354   5.282  0.2326  0.8382  0.2752
 1975SOL    HW1 6824   2.533   0.337   5.319  0.1288  0.8415  0.0159
 1975SOL    HW2 6825   2.635   0.451   5.264  0.7226  1.0275  1.4768
 1976SOL     OW 6826   5.416   2.550   6.187 -0.0479  0.7929 -0.6747
 1976SOL    HW1 6827   5.417   2.499   6.101  0.3707  0.2415 -0.3446
 1976SOL    HW2 6828   5.413   2.648   6.166 -1.0704  0.6386 -1.3073
 1977SOL     OW 6829   3.491   2.102   3.878  0.4013 -0.0804 -0.2943
 1977SOL    HW1 6830   3.555   2.101   3.801 -1.0850 -0.4056 -1.5807
 1977SOL    HW2 6831   3.541   2.081   3.963  2.0688  0.2166 -1.1493
 1978SOL     OW 6832   5.576   2.290   5.891  0.5754  0.1358  0.0767
 1978SOL    HW1 6833   5.640   2.302   5.966  1.9362 -0.8357 -0.8799
 1978SOL    HW2 6834   5.611   2.333   5.808  0.6132 -1.3943 -0.7577
 1979SOL     OW 6835   6.567   3.190   3.793 -0.1037 -0.3892 -0.0076
 1979SOL    HW1 6836   6.561   3.227   3.701  0.4440  2.3810  0.9956
 1979SOL    HW2 6837   6.508   3.242   3.854  1.4283 -0.5317  1.6786
 1980SOL     OW 6838   3.608   6.974   5.012 -0.1329  0.5828  0.1288
 1980SOL    HW1 6839   3.521   6.972   5.060 -0.9094  0.7770 -1.2147
 1980SOL    HW2 6840   3.618   6.891   4.957  0.0801  0.9964 -0.4675
 1981SOL     OW 6841   5.219   3.678   1.198 -0.3122 -0.4251 -0.1264
 1981SOL    HW1 6842   5.162   3.599   1.174  0.4561 -1.2388  0.6278
 1981SOL    HW2 6843   5.175   3.729   1.272 -1.2996  0.4580 -1.2837
 1982SOL     OW 6844   6.733   0.555   5.792 -0.1295 -0.1712 -0.5849
 1982SOL    HW1 6845   6.780   0.633   5.751  0.7353 -0.8403 -0.9001
 1982SOL    HW2 6846   6.734   0.563   5.891  0.7611 -0.2300 -0.5882
 1983SOL     OW 6847   2.089   5.504   2.374 -0.1095 -0.2211 -0.2425
 1983SOL    HW1 6848   2.131   5.576   2.430 -2.0533  0.0783  0.9402
 1983SOL    HW2 6849   2.003   5.537   2.337 -0.5304 -1.6020 -0.5420
 1984SOL     OW 6850   3.883   6.593   3.603  0.4524 -0.0951 -0.2253
 1984SOL    HW1 6851   3.950   6.535   3.650 -0.3549 -0.6662  0.2495
 1984SOL    HW2 6852   3.876   6.681   3.650  2.0649  0.6343 -1.2514
 1985SOL     OW 6853   0.084   4.897   2.860 -0.9777 -0.2490  0.1260
 1985SOL    HW1 6854   0.065   4.855   2.948 -0.1388 -1.7356 -0.3763
 1985SOL    HW2 6855   0.179   4.880   2.834 -1.2248  0.1165 -1.0882
 1986SOL     OW 6856   5.490   2.996   5.349 -0.0400  0.5372 -0.6441
 1986SOL    HW1 6857   5.489   3.091   5.381 -0.5816  0.3472 -0.0641
 1986SOL    HW2 6858   5.469   2.993   5.251 -1.6659  0.9248 -0.3479
 1987SOL     OW 6859   3.947   1.983   0.220  0.3483 -0.5118 -0.1329
 1987SOL    HW1 6860   4.038   2.024   0.213  1.1967 -2.2180  0.4790
 1987SOL    HW2 6861   3.881   2.054   0.245  1.4402  0.8098 -0.8293
 1988SOL     OW 6862   6.361   3.346   1.281 -0.1477 -0.7334  0.7697
 1988SOL    HW1 6863   6.318   3.272   1.333 -0.9657  0.7930  2.3978
 1988SOL    HW2 6864   6.458   3.349   1.302 -0.5457  0.2026  2.8114
 1989SOL     OW 6865   1.405   2.006   2.195  1.0952 -0.0108 -0.0389
 1989SOL    HW1 6866   1.365   2.029   2.106  1.7029  0.8146 -0.1083
 1989SOL    HW2 6867   1.353   2.050   2.267  0.6716 -0.5871  0.0142
 1990SOL     OW 6868   6.191   0.563   2.519 -0.1633  0.3791  0.2717
 1990SOL    HW1 6869   6.259   0.554   2.592 -0.0209  1.2248  0.2547
 1990SOL    HW2 6870   6.195   0.482   2.460 -0.2279 -0.2805  1.1462
 1991SOL     OW 6871   4.356   6.706   3.256 -0.0583 -0.1340 -0.5901
 1991SOL    HW1 6872   4.266   6.716   3.213  0.0126 -0.0638 -0.7224
 1991SOL    HW2 6873   4.408   6.635   3.209 -0.4133 -0.8756  0.1065
 1992SOL     OW 6874   0.574   0.129   5.996 -0.1328 -0.2604 -0.5072
 1992SOL    HW1 6875   0.542   0.181   5.917 -2.2894  0.3495  0.6488
 1992SOL    HW2 6876   0.497   0.077   6.035  0.7677 -0.3312  1.3107
 1993SOL     OW 6877   2.898   3.734   3.300  0.4629  0.0705  0.1993
 1993SOL    HW1 6878   2.990   3.773   3.304 -0.3951  2.1798  2.3761
 1993SOL    HW2 6879   2.872   3.703   3.391 -1.3821  0.5959 -0.1124
 1994SOL     OW 6880   6.175   2.258   0.307  0.4541  0.1192  0.0382
 1994SOL    HW1 6881   6.188   2.276   0.209 -2.0112 -0.5365 -0.4842
 1994SOL    HW2 6882   6.131   2.169   0.319 -0.0048  0.5284  1.6769
 1995SOL     OW 6883   3.628   3.230   0.544  0.3215 -0.0329 -0.0981
 1995SOL    HW1 6884   3.545   3.277   0.573  1.1122  2.6916 -1.7978
 1995SOL    HW2 6885   3.667   3.179   0.620 -1.7096  0.4379  1.3181
 1996SOL     OW 6886   2.657   6.469   5.678  0.4399  0.2947 -0.2312
 1996SOL    HW1 6887   2.600   6.522   5.615 -1.5504  0.3729  1.4958
 1996SOL    HW2 6888   2.614   6.380   5.695  1.2371  0.0423  0.5489
 1997SOL     OW 6889   6.523   6.129   4.285 -0.2573  0.6875  0.0304
 1997SOL    HW1 6890   6.548   6.140   4.381 -1.0981  2.1428  0.1091
 1997SOL    HW2 6891   6.598   6.162   4.227  0.8339 -1.4607  0.1132
 1998SOL     OW 6892   3.389   6.105   5.657  0.3707 -0.0033  0.3318
 1998SOL    HW1 6893   3.332   6.094   5.576 -0.1085  0.9964  0.5216
 1998SOL    HW2 6894   3.450   6.026   5.666  1.1132  0.3170 -1.5308
 1999SOL     OW 6895   2.392   2.476   2.101 -1.0929 -0.1313  0.5593
 1999SOL    HW1 6896   2.452   2.438   2.030 -0.5947 -2.4087  2.0869
 1999SOL    HW2 6897   2.308   2.422   2.107 -1.7316  0.8612  0.8263
 2000SOL     OW 6898   1.943   0.659   6.799  0.0401  0.0679 -0.4736
 2000SOL    HW1 6899   1.903   0.705   6.878  0.2476 -1.0312  0.3007
 2000SOL    HW2 6900   1.873   0.646   6.729 -0.4093  0.1375 -0.0435
 2001SOL     OW 6901   3.177   2.353   6.597 -0.7724  0.3971 -0.4587
 2001SOL    HW1 6902   3.117   2.317   6.526  0.0512 -0.6889 -0.6489
 2001SOL    HW2 6903   3.272   2.351   6.564 -0.4714  0.6452  0.3685
 2002SOL     OW 6904   2.301   5.605   5.909  0.5250 -0.2647 -0.1017
 2002SOL    HW1 6905   2.391   5.565   5.890  1.3583  0.1500  2.6123
 2002SOL    HW2 6906   2.311   5.702   5.929 -0.6217 -0.0991 -0.2953
 2003SOL     OW 6907   0.306   4.860   1.591  0.2777 -0.3704  0.6912
 2003SOL    HW1 6908   0.272   4.766   1.590 -0.8699  0.0052 -1.2108
 2003SOL    HW2 6909   0.322   4.891   1.497  0.4907  1.3739  1.2634
 2004SOL     OW 6910   4.178   1.641   6.047  0.6370 -0.0487 -0.5669
 2004SOL    HW1 6911   4.235   1.669   5.970  1.1499 -0.6754 -0.4254
 2004SOL    HW2 6912   4.082   1.661   6.027  0.9237  1.3020 -0.6804
 2005SOL     OW 6913   1.924   6.593   5.529 -0.4641  0.0348 -0.6559
 2005SOL    HW1 6914   1.867   6.544   5.463 -1.2199 -0.4230  0.3114
 2005SOL    HW2 6915   1.926   6.690   5.505 -2.8062  0.3214  0.0238
 2006SOL     OW 6916   5.201   6.739   4.175 -0.6122  0.1483 -0.1099
 2006SOL    HW1 6917   5.126   6.673   4.163 -2.4480  2.1369 -0.2253
 2006SOL    HW2 6918   5.228   6.775   4.086  2.3253 -2.3342 -0.3756
 2007SOL     OW 6919   1.958   5.765   1.821  0.3760 -0.3205 -0.0628
 2007SOL    HW1 6920   2.023   5.770   1.896 -0.1448  1.2010  0.3195
 2007SOL    HW2 6921   1.868   5.739   1.856  0.0686  0.6629 -0.0975
 2008SOL     OW 6922   0.174   6.178   4.998 -0.3227  0.6910 -0.2636
 2008SOL    HW1 6923   0.241   6.250   5.015  2.4668 -1.9267  0.6634
 2008SOL    HW2 6924   0.109   6.174   5.073  0.5065  1.2004  0.4978
 2009SOL     OW 6925   3.590   5.905   6.402  0.2870  0.2450  0.3622
 2009SOL    HW1 6926   3.624   5.934   6.491  1.5336 -2.4707  0.8894
 2009SOL    HW2 6927   3.652   5.937   6.331 -0.7954  2.5571  0.3603
 2010SOL     OW 6928   2.457   2.064   1.155  0.5911  0.7455 -0.1550
 2010SOL    HW1 6929   2.399   2.132   1.199  0.5936  0.2746  0.5942
 2010SOL    HW2 6930   2.553   2.092   1.161  0.3925  2.3946 -2.9084
 2011SOL     OW 6931   5.572   0.525   2.866 -0.0363  0.2481  0.3610
 2011SOL    HW1 6932   5.528   0.599   2.916 -0.0856  0.3691  0.1400
 2011SOL    HW2 6933   5.510   0.492   2.794 -1.1597 -1.8304  2.1536
 2012SOL     OW 6934   6.524   4.791   1.618 -0.3291  0.1369 -0.0278
 2012SOL    HW1 6935   6.485   4.753   1.534 -0.4715 -1.1342  0.5880
 2012SOL    HW2 6936   6.464   4.863   1.653 -0.3241  0.5985 -0.9413
 2013SOL     OW 6937   3.615   2.814   2.347 -0.5062  0.1954  0.0914
 2013SOL    HW1 6938   3.675   2.737   2.327 -0.7403  0.6550 -2.6782
 2013SOL    HW2 6939   3.635   2.849   2.439  1.5509 -1.3528  0.2860
 2014SOL     OW 6940   1.908   5.003   4.643  0.8095 -0.5579 -0.6390
 2014SOL    HW1 6941   1.878   4.913   4.612  1.5832 -0.7976 -0.7039
 2014SOL    HW2 6942   1.999   4.996   4.684  1.2853  0.3404 -1.4946
 2015SOL     OW 6943   5.161   4.812   5.996  0.1235  0.1838 -0.1995
 2015SOL    HW1 6944   5.075   4.837   6.040 -1.0761  0.1195 -2.3362
 2015SOL    HW2 6945   5.233   4.804   6.064 -1.5544  0.2459  1.6624
 2016SOL     OW 6946   1.102   3.794   3.998  0.3418  0.4295 -0.1641
 2016SOL    HW1 6947   1.041   3.852   4.053  1.1213  1.3094 -0.2193
 2016SOL    HW2 6948   1.047   3.727   3.949 -0.6235  1.3218 -0.3497
 2017SOL     OW 6949   1.664   4.912   1.022  0.4339 -0.7528 -0.0665
 2017SOL    HW1 6950   1.644   4.923   0.925  0.4370 -0.8319 -0.0764
 2017SOL    HW2 6951   1.762   4.925   1.038  0.3757 -0.3599 -0.0178
 2018SOL     OW 6952   1.607   4.422   3.921  0.2299 -0.4557  0.3501
 2018SOL    HW1 6953   1.560   4.408   3.834 -0.2461  1.0372  0.3386
 2018SOL    HW2 6954   1.694   4.374   3.921  0.1880 -0.5453 -0.9108
 2019SOL     OW 6955   5.240   0.913   3.567 -0.3257 -0.4120  0.3105
 2019SOL    HW1 6956   5.323   0.968   3.576  0.2132 -1.0158 -0.7999
 2019SOL    HW2 6957   5.256   0.839   3.502 -2.0407  0.0565 -0.7158
 2020SOL     OW 6958   2.424   4.778   1.512  0.1313 -0.3502  0.5852
 2020SOL    HW1 6959   2.450   4.803   1.605 -1.1700  0.3695  0.7763
 2020SOL    HW2 6960   2.493   4.716   1.474  1.5535  0.6776  1.3975
 2021SOL     OW 6961   1.860   6.588   3.807 -0.1396  0.3481 -0.0876
 2021SOL    HW1 6962   1.871   6.663   3.871  1.3903 -0.2766  0.4406
 2021SOL    HW2 6963   1.950   6.558   3.775 -0.7548 -0.7971 -0.8241
 2022SOL     OW 6964   4.167   4.755   4.157 -0.2101 -0.0584 -0.3737
 2022SOL    HW1 6965   4.186   4.688   4.085 -1.1810  1.6456 -2.3105
 2022SOL    HW2 6966   4.249   4.769   4.212  0.3892 -1.8159 -0.7561
 2023SOL     OW 6967   1.740   3.551   6.510  0.3134 -0.2325 -0.0535
 2023SOL    HW1 6968   1.738   3.651   6.513 -0.7909 -0.2570  1.1504
 2023SOL    HW2 6969   1.759   3.516   6.602 -0.7432 -1.1408 -0.1659
 2024SOL     OW 6970   5.030   5.867   3.031  0.3749  0.5688 -0.0408
 2024SOL    HW1 6971   5.130   5.877   3.027  0.3941  0.4373  0.0696
 2024SOL    HW2 6972   4.990   5.889   2.942  0.7219 -1.7040 -0.8226
 2025SOL     OW 6973   0.024   2.892   0.508  0.5356  0.4371 -0.4678
 2025SOL    HW1 6974  -0.072   2.917   0.519  0.5980 -0.0856  1.6871
 2025SOL    HW2 6975   0.082   2.958   0.556  1.0576 -0.6597  0.4545
 2026SOL     OW 6976   2.789   1.663   4.685  0.4301 -0.2476 -0.5569
 2026SOL    HW1 6977   2.874   1.610   4.681  0.0962 -0.7889 -0.5896
 2026SOL    HW2 6978   2.722   1.624   4.621  0.5462  0.8826 -1.3986
 2027SOL     OW 6979   1.992   0.119   6.900  0.0991  0.0520 -0.1632
 2027SOL    HW1 6980   1.947   0.205   6.876  1.5211  0.7451 -0.4725
 2027SOL    HW2 6981   2.074   0.138   6.954 -0.7069 -1.2479  1.6019
 2028SOL     OW 6982   3.118   3.510   6.267  0.3703 -0.7221 -0.2716
 2028SOL    HW1 6983   3.049   3.462   6.322  0.9622 -2.3454 -0.8717
 2028SOL    HW2 6984   3.153   3.589   6.318 -0.1561 -1.3249  1.0656
 2029SOL     OW 6985   3.458   1.200   1.398  0.3978  0.3831 -0.6248
 2029SOL    HW1 6986   3.536   1.144   1.426  3.0227  3.6797 -0.6592
 2029SOL    HW2 6987   3.409   1.231   1.480  0.1549 -0.3450 -0.4912
 2030SOL     OW 6988   2.290   1.944   4.525 -0.1433  1.0117  1.0723
 2030SOL    HW1 6989   2.334   2.030   4.499  0.7133  0.4849  0.7611
 2030SOL    HW2 6990   2.279   1.886   4.445 -0.3417  0.6539  1.3535
 2031SOL     OW 6991   5.671   0.456   1.103 -0.2466 -0.1073 -0.3027
 2031SOL    HW1 6992   5.740   0.518   1.139  1.0428 -1.2083 -0.7952
 2031SOL    HW2 6993   5.593   0.509   1.068  0.7659  1.2255 -0.6289
 2032SOL     OW 6994   2.880   5.983   2.512 -0.1062  0.3690 -0.4731
 2032SOL    HW1 6995   2.853   6.075   2.541 -1.1470  0.0637 -0.4275
 2032SOL    HW2 6996   2.965   5.988   2.460 -0.6827  1.4952 -1.3566
 2033SOL     OW 6997   6.141   4.738   0.460  0.2825 -0.3875  0.0250
 2033SOL    HW1 6998   6.223   4.795   0.460  0.4293 -0.5927  0.9626
 2033SOL    HW2 6999   6.148   4.670   0.387  1.9922 -1.8857  1.4912
 2034SOL     OW 7000   2.889   5.203   4.143  0.0716 -0.0709 -0.2892
 2034SOL    HW1 7001   2.851   5.113   4.164 -1.0983  0.5445  0.3465
 2034SOL    HW2 7002   2.968   5.219   4.202 -0.6996 -0.0448  0.7800
 2035SOL     OW 7003   1.283   0.429   5.262 -0.5055  0.5045 -0.6623
 2035SOL    HW1 7004   1.370   0.474   5.243 -0.5997  0.2514 -1.7720
 2035SOL    HW2 7005   1.208   0.490   5.236 -0.6432  0.2697 -0.8201
 2036SOL     OW 7006   0.554   4.300   1.230 -0.0150 -0.2599  0.0986
 2036SOL    HW1 7007   0.484   4.251   1.282  0.6594 -0.2068  1.0971
 2036SOL    HW2 7008   0.606   4.359   1.292  1.6302 -1.1251 -0.4073
 2037SOL     OW 7009   2.272   2.434   6.354 -0.3505  0.1973  0.0594
 2037SOL    HW1 7010   2.220   2.420   6.270  1.7199 -0.9233 -1.1301
 2037SOL    HW2 7011   2.331   2.354   6.371  0.6270  1.1738  1.5701
 2038SOL     OW 7012   0.225   5.675   6.714 -0.3454 -0.4099 -0.0796
 2038SOL    HW1 7013   0.315   5.661   6.756 -0.4987  0.3049  0.5087
 2038SOL    HW2 7014   0.206   5.600   6.650  1.5770  0.5285 -1.8442
 2039SOL     OW 7015   0.868   4.942   2.047 -0.2562 -0.0224 -0.6879
 2039SOL    HW1 7016   0.887   5.037   2.072 -0.9418 -0.1424  0.3531
 2039SOL    HW2 7017   0.769   4.929   2.039 -0.3429 -1.1296  1.3468
 2040SOL     OW 7018   3.037   2.817   5.873  0.2454  0.1226 -0.1635
 2040SOL    HW1 7019   2.998   2.726   5.881  1.9193 -0.5406  0.9953
 2040SOL    HW2 7020   2.994   2.866   5.796 -1.3130 -1.2787 -0.2253
 2041SOL     OW 7021   5.038   3.744   6.840 -0.0778  0.4047 -0.1269
 2041SOL    HW1 7022   5.009   3.836   6.868  0.7307  0.7603 -0.3925
 2041SOL    HW2 7023   5.071   3.694   6.920 -0.4336  0.3785  0.0046
 2042SOL     OW 7024   2.442   6.705   2.574 -0.1966  0.2802 -0.1014
 2042SOL    HW1 7025   2.390   6.760   2.509  0.2371  0.4259 -0.3276
 2042SOL    HW2 7026   2.394   6.619   2.591  1.1176 -1.1247 -2.9056
 2043SOL     OW 7027   3.961   4.890   1.384 -0.2834  0.3373 -0.2974
 2043SOL    HW1 7028   4.014   4.819   1.430  1.4721  1.7345 -0.0414
 2043SOL    HW2 7029   3.898   4.933   1.449  1.5093  1.6643  0.6225
 2044SOL     OW 7030   6.469   0.678   1.752 -0.2214  0.8201  0.4185
 2044SOL    HW1 7031   6.449   0.759   1.697 -1.7493  0.7248  0.7957
 2044SOL    HW2 7032   6.489   0.705   1.846  1.5565  0.9132  0.0507
 2045SOL     OW 7033   2.521   0.941   5.750 -0.0533  0.2574  0.0245
 2045SOL    HW1 7034   2.535   1.040   5.741 -0.2142  0.4267  1.3965
 2045SOL    HW2 7035   2.602   0.899   5.792 -0.1520 -0.1225 -0.1635
 2046SOL     OW 7036   0.035   0.586   5.958  0.0813 -0.2239  0.9312
 2046SOL    HW1 7037   0.009   0.674   5.917  1.8439  0.3927  1.0466
 2046SOL    HW2 7038  -0.000   0.512   5.901 -1.7184  0.5266  1.0025
 2047SOL     OW 7039   5.187   4.042   5.052  0.5360 -0.7243  0.3353
 2047SOL    HW1 7040   5.251   3.994   5.113 -0.3753  0.3529  2.2307
 2047SOL    HW2 7041   5.157   3.979   4.980  2.3409 -1.7818  0.4295
 2048SOL     OW 7042   3.030   0.617   6.530  0.1407 -0.0309  0.0708
 2048SOL    HW1 7043   3.040   0.540   6.467 -0.3107  0.0593 -0.1198
 2048SOL    HW2 7044   3.117   0.665   6.539 -0.0151  0.5525 -1.2683
 2049SOL     OW 7045   1.089   0.697   0.622 -0.1112  0.2489 -0.7011
 2049SOL    HW1 7046   1.127   0.763   0.558  1.9935  0.0172  0.2251
 2049SOL    HW2 7047   1.127   0.713   0.713  1.0694 -2.5935 -0.5739
 2050SOL     OW 7048   2.752   0.233   2.755  0.1130  0.0678  0.4443
 2050SOL    HW1 7049   2.843   0.193   2.747 -0.2848 -0.5538 -1.4454
 2050SOL    HW2 7050   2.734   0.291   2.677 -0.4720  1.6261  1.6887
 2051SOL     OW 7051   3.445   4.391   1.108 -0.1853 -0.0513  0.1328
 2051SOL    HW1 7052   3.395   4.455   1.050  1.1558 -0.0101 -1.0160
 2051SOL    HW2 7053   3.418   4.405   1.203 -1.7466  0.5106 -0.3599
 2052SOL     OW 7054   5.978   2.463   1.409 -0.6638 -0.1812 -0.2014
 2052SOL    HW1 7055   5.999   2.440   1.314  0.3367 -1.7534  0.3661
 2052SOL    HW2 7056   5.994   2.561   1.424  2.0185 -0.4257 -0.9472
 2053SOL     OW 7057   4.922   1.403   1.230  0.3667  0.4967  0.0938
 2053SOL    HW1 7058   4.825   1.395   1.251  0.6692 -1.4052  0.9352
 2053SOL    HW2 7059   4.933   1.442   1.139 -1.1516  1.3155  0.2216
 2054SOL     OW 7060   0.600   2.815   0.950  0.1281  0.2128  0.7190
 2054SOL    HW1 7061   0.626   2.761   1.030  1.3959  0.7481  0.6908
 2054SOL    HW2 7062   0.669   2.885   0.933 -0.1833  0.1968 -0.7704
 2055SOL     OW 7063   6.660   1.606   0.152 -0.0155  0.7677 -0.0260
 2055SOL    HW1 7064   6.632   1.562   0.237 -2.2686  1.5798 -0.2860
 2055SOL    HW2 7065   6.708   1.539   0.094 -1.9232 -0.9603  0.2456
 2056SOL     OW 7066   7.012   1.072   2.077 -0.0298  0.4420 -0.2963
 2056SOL    HW1 7067   6.998   1.135   2.153 -2.1254 -1.2904  0.8600
 2056SOL    HW2 7068   7.087   1.010   2.099  0.5912  1.1126 -0.4826
 2057SOL     OW 7069   5.496   1.488   4.271  0.5455 -0.1734 -0.1186
 2057SOL    HW1 7070   5.457   1.514   4.182  1.2367  1.1764 -0.0602
 2057SOL    HW2 7071   5.479   1.561   4.337  1.6328 -0.3419  0.3648
 2058SOL     OW 7072   2.446   1.503   1.371 -0.1610  0.3731  0.7570
 2058SOL    HW1 7073   2.537   1.475   1.339 -0.3816  0.0187  0.4247
 2058SOL    HW2 7074   2.445   1.508   1.470  0.1533  0.1315  0.7727
 2059SOL     OW 7075   1.618   6.177   2.617 -0.1153  0.3965 -0.1785
 2059SOL    HW1 7076   1.674   6.251   2.654 -0.1120  0.6648 -0.7150
 2059SOL    HW2 7077   1.525   6.211   2.601 -0.1330  0.2656 -0.3597
 2060SOL     OW 7078   0.460   4.115   3.230  0.8630  0.0926  0.7624
 2060SOL    HW1 7079   0.376   4.088   3.277  0.6072 -1.4114 -0.4714
 2060SOL    HW2 7080   0.466   4.215   3.227 -1.7047  0.2951 -0.4741
 2061SOL     OW 7081   1.083   1.039   2.518 -0.3512  0.5912 -0.0068
 2061SOL    HW1 7082   0.989   1.026   2.551 -0.5332 -0.6157 -0.9041
 2061SOL    HW2 7083   1.141   0.967   2.555 -0.2456  0.0887 -1.0990
 2062SOL     OW 7084   4.001   6.768   4.615  0.2923  0.3770  0.1669
 2062SOL    HW1 7085   4.091   6.728   4.634  1.0315  2.6791  2.0981
 2062SOL    HW2 7086   4.012   6.845   4.552 -0.3747  0.4575  0.1430
 2063SOL     OW 7087   0.831   3.203   1.519 -0.1498 -0.1902 -0.3084
 2063SOL    HW1 7088   0.772   3.145   1.463 -1.1292 -1.2894  1.7513
 2063SOL    HW2 7089   0.927   3.180   1.502 -0.4967 -3.4745  1.3495
 2064SOL     OW 7090   1.151   6.714   1.827 -0.2713 -0.2588  0.4412
 2064SOL    HW1 7091   1.131   6.791   1.765 -0.7769 -2.3283 -2.1609
 2064SOL    HW2 7092   1.249   6.712   1.847 -0.3710  1.5426  1.3245
 2065SOL     OW 7093   0.885   2.908   3.164  0.2000 -0.9724 -0.3265
 2065SOL    HW1 7094   0.970   2.959   3.149  0.0028 -1.0438 -1.7854
 2065SOL    HW2 7095   0.894   2.816   3.125 -0.5051 -1.0172 -0.3865
 2066SOL     OW 7096   0.940   6.783   2.950 -0.1669 -0.1635 -0.4779
 2066SOL    HW1 7097   0.911   6.879   2.953  0.7075  0.1313 -0.9339
 2066SOL    HW2 7098   0.971   6.755   3.041 -1.2844 -0.2955 -0.1352
 2067SOL     OW 7099   5.702   1.722   0.247 -0.3812  1.3408  0.4999
 2067SOL    HW1 7100   5.776   1.790   0.240  0.6043  0.5324  2.4185
 2067SOL    HW2 7101   5.740   1.634   0.277 -1.7824  0.1835 -0.9835
 2068SOL     OW 7102   2.866   2.183   5.120 -0.6593 -0.3080  0.3454
 2068SOL    HW1 7103   2.830   2.218   5.207 -1.3741 -1.5029  0.5508
 2068SOL    HW2 7104   2.953   2.228   5.100 -0.8879  0.5916  1.2562
 2069SOL     OW 7105   2.986   1.390   0.674 -0.5270 -0.1600  0.6124
 2069SOL    HW1 7106   2.968   1.359   0.768 -1.4884  0.0173  0.4930
 2069SOL    HW2 7107   3.083   1.414   0.665 -0.3586 -0.4776  1.4716
 2070SOL     OW 7108   1.129   1.504   3.692  0.0741 -0.8092  0.0200
 2070SOL    HW1 7109   1.081   1.467   3.613  1.1910 -0.2734 -0.9571
 2070SOL    HW2 7110   1.193   1.435   3.727  0.7153 -0.5221 -0.5529
 2071SOL     OW 7111   2.113   0.607   5.448 -0.0982  0.2129  0.8772
 2071SOL    HW1 7112   2.196   0.610   5.392 -0.3723  2.5890  0.5111
 2071SOL    HW2 7113   2.139   0.595   5.544  0.6751  0.8210  0.7565
 2072SOL     OW 7114   4.271   4.136   0.771  0.7655 -0.3865  0.1465
 2072SOL    HW1 7115   4.292   4.230   0.797 -0.9914  0.3838 -1.0490
 2072SOL    HW2 7116   4.256   4.081   0.854 -1.0116  1.1026  0.8863
 2073SOL     OW 7117   2.016   6.894   5.909  0.0560 -0.4846  0.5949
 2073SOL    HW1 7118   2.024   6.799   5.939 -1.5915 -1.1499 -0.8744
 2073SOL    HW2 7119   2.040   6.901   5.812  1.4208  0.8692  0.9872
 2074SOL     OW 7120   5.866   0.995   2.392 -0.0002  0.2771 -0.4624
 2074SOL    HW1 7121   5.962   0.966   2.389  0.0814  0.5073 -0.1723
 2074SOL    HW2 7122   5.859   1.082   2.441 -0.3970  0.0791 -0.1562
 2075SOL     OW 7123   4.859   2.599   6.625 -0.0864 -0.0592  0.0980
 2075SOL    HW1 7124   4.903   2.509   6.627 -0.4914 -0.2745  3.0156
 2075SOL    HW2 7125   4.928   2.670   6.642 -0.1169  0.0094 -0.0602
 2076SOL     OW 7126   2.826   0.130   2.137  0.5316 -0.7294 -0.0666
 2076SOL    HW1 7127   2.919   0.160   2.115  0.8645  0.0038  2.0837
 2076SOL    HW2 7128   2.829   0.038   2.175  0.3380 -0.8400 -0.3204
 2077SOL     OW 7129   2.559   1.224   5.810 -0.1278  0.1215 -0.0456
 2077SOL    HW1 7130   2.588   1.316   5.784 -0.8268  0.1894 -0.6174
 2077SOL    HW2 7131   2.462   1.226   5.834 -0.2675 -0.5684 -0.5570
 2078SOL     OW 7132   3.592   6.759   4.841  0.0135 -0.2407 -0.3959
 2078SOL    HW1 7133   3.643   6.684   4.799 -0.3828 -0.8236  0.1398
 2078SOL    HW2 7134   3.511   6.723   4.887 -0.6812  0.6304 -0.8997
 2079SOL     OW 7135   4.152   4.696   2.161  0.1680  0.4452  0.3379
 2079SOL    HW1 7136   4.078   4.725   2.100 -0.8202 -2.1749  0.1669
 2079SOL    HW2 7137   4.226   4.657   2.106  0.1309 -0.1364  0.6998
 2080SOL     OW 7138   4.380   1.942   2.638 -0.2631 -0.4470 -0.8310
 2080SOL    HW1 7139   4.459   1.931   2.577 -0.4286  0.5209 -1.2384
 2080SOL    HW2 7140   4.323   1.860   2.633  0.0605 -0.6414 -1.5017
 2081SOL     OW 7141   2.177   3.992   3.502 -0.1628  0.1866 -0.2145
 2081SOL    HW1 7142   2.089   4.038   3.495  0.3161  1.2159  0.4268
 2081SOL    HW2 7143   2.212   3.999   3.595  0.7636  0.0871 -0.5430
 2082SOL     OW 7144   4.323   2.349   1.627  0.4822 -0.0097 -0.0994
 2082SOL    HW1 7145   4.314   2.328   1.530  0.8749  2.0845 -0.6361
 2082SOL    HW2 7146   4.419   2.343   1.654  0.2610 -1.6001  0.4545
 2083SOL     OW 7147   2.678   0.090   5.731 -0.3180  0.8723  0.6779
 2083SOL    HW1 7148   2.594   0.139   5.754 -0.8657  1.6283 -2.5172
 2083SOL    HW2 7149   2.751   0.155   5.712  0.9003  0.2239  2.8133
 2084SOL     OW 7150   6.877   2.314   1.157  0.1972 -0.1777  0.1998
 2084SOL    HW1 7151   6.973   2.309   1.185 -0.1299 -0.4731  1.3239
 2084SOL    HW2 7152   6.870   2.296   1.059  1.6861  3.7326 -0.7787
 2085SOL     OW 7153   5.563   0.012   6.476 -0.3234 -0.0659 -0.3730
 2085SOL    HW1 7154   5.492   0.000   6.545 -0.6422 -0.4736 -0.7663
 2085SOL    HW2 7155   5.651   0.029   6.522 -0.5895  0.0005  0.1226
 2086SOL     OW 7156   5.376   5.965   6.296  0.0030 -0.4814 -0.2798
 2086SOL    HW1 7157   5.387   5.989   6.200 -1.0749 -0.3145 -0.3767
 2086SOL    HW2 7158   5.461   5.926   6.331  1.0871  1.3810 -0.7263
 2087SOL     OW 7159   0.596   6.785   1.866  0.0725  0.0829 -0.1272
 2087SOL    HW1 7160   0.638   6.713   1.812  0.7654  0.0380  0.4637
 2087SOL    HW2 7161   0.573   6.750   1.957  0.7548  0.7061  0.2889
 2088SOL     OW 7162   0.400   0.494   2.517  0.3206  0.4230 -0.4345
 2088SOL    HW1 7163   0.496   0.511   2.497  0.5246 -0.6406 -0.4006
 2088SOL    HW2 7164   0.353   0.581   2.532  1.1202  0.9879 -1.1329
 2089SOL     OW 7165   1.674   0.601   5.700  0.1783  0.1900 -0.5088
 2089SOL    HW1 7166   1.668   0.695   5.667  1.2548  0.6241  0.4306
 2089SOL    HW2 7167   1.710   0.602   5.794 -0.6334 -1.1127 -0.1662
 2090SOL     OW 7168   3.194   3.295   1.898 -0.4620  0.2603  0.0830
 2090SOL    HW1 7169   3.140   3.218   1.933 -1.0500  0.6353  0.0137
 2090SOL    HW2 7170   3.136   3.377   1.893  0.5393  1.1207  1.6536
 2091SOL     OW 7171   3.089   4.261   0.119  0.3190  0.3275 -0.0778
 2091SOL    HW1 7172   3.093   4.265   0.219 -0.7047 -1.3064  0.0677
 2091SOL    HW2 7173   3.159   4.197   0.087  0.4198  0.5971 -0.4013
 2092SOL     OW 7174   4.423   5.975   0.636  0.4383 -0.2575 -0.0747
 2092SOL    HW1 7175   4.471   6.033   0.702 -1.6156 -0.0104  1.3014
 2092SOL    HW2 7176   4.434   6.012   0.544  1.8177  0.4664  0.3616
 2093SOL     OW 7177   0.846   2.010   0.989 -0.3494 -0.1609 -0.0728
 2093SOL    HW1 7178   0.901   2.090   0.967 -1.3998  0.7102  0.3585
 2093SOL    HW2 7179   0.805   2.022   1.080 -1.6258 -0.5376 -0.5700
 2094SOL     OW 7180   6.971   1.251   2.293  0.1050 -0.2975 -0.2120
 2094SOL    HW1 7181   6.928   1.324   2.238  0.0348 -0.1664  0.0173
 2094SOL    HW2 7182   6.931   1.251   2.385 -0.6236 -1.2832 -0.5085
 2095SOL     OW 7183   6.061   2.620   4.457  0.1812  0.7151  0.1825
 2095SOL    HW1 7184   5.984   2.609   4.394 -0.7727 -0.9351  1.5437
 2095SOL    HW2 7185   6.144   2.581   4.415 -0.5190 -0.7050  0.0405
 2096SOL     OW 7186   6.055   3.346   1.573 -0.8418 -0.2012 -0.5396
 2096SOL    HW1 7187   6.014   3.408   1.506 -1.7422  0.0489  0.2085
 2096SOL    HW2 7188   6.006   3.356   1.660  0.0759 -0.7713  0.0499
 2097SOL     OW 7189   6.027   2.276   4.223 -0.2907 -0.2198 -0.5388
 2097SOL    HW1 7190   6.016   2.199   4.161 -0.4442  0.7143 -1.6934
 2097SOL    HW2 7191   5.947   2.335   4.218 -0.7600 -0.6195  1.2920
 2098SOL     OW 7192   6.018   1.537   5.230  0.3220  0.6674  0.5179
 2098SOL    HW1 7193   6.013   1.595   5.148 -2.0721 -0.6962 -0.4004
 2098SOL    HW2 7194   6.094   1.567   5.287  0.6656  3.1292 -1.0811
 2099SOL     OW 7195   1.101   1.207   3.982  0.2622 -0.3917 -0.0337
 2099SOL    HW1 7196   1.040   1.189   3.905 -0.5396 -2.4786  1.0211
 2099SOL    HW2 7197   1.047   1.222   4.065  1.1618 -0.8267  0.6392
 2100SOL     OW 7198   5.811   3.649   6.384 -0.5460  0.3635  0.7583
 2100SOL    HW1 7199   5.770   3.578   6.441  0.2416 -0.7616 -0.0419
 2100SOL    HW2 7200   5.910   3.633   6.377 -0.7660 -0.1736 -1.8064
 2101SOL     OW 7201   4.709   1.319   2.381 -0.4500  0.5332  0.6022
 2101SOL    HW1 7202   4.754   1.272   2.305 -1.5485 -0.5020  0.5466
 2101SOL    HW2 7203   4.702   1.416   2.361  1.9661  0.8039  0.7515
 2102SOL     OW 7204   6.970   5.112   1.453  0.0153  0.3604 -0.1781
 2102SOL    HW1 7205   6.923   5.120   1.540  0.0677  0.7107 -0.1805
 2102SOL    HW2 7206   7.069   5.111   1.469  0.0121 -1.4832 -0.0777
 2103SOL     OW 7207   1.381   5.530   6.941  0.8394  0.5918  0.5746
 2103SOL    HW1 7208   1.372   5.471   7.021  2.9127 -2.7574 -1.4261
 2103SOL    HW2 7209   1.464   5.507   6.891  0.5007  3.6774 -1.7424
 2104SOL     OW 7210   2.374   5.294   5.948  0.3618 -0.1866 -0.4579
 2104SOL    HW1 7211   2.431   5.377   5.950  1.0610 -0.6685 -0.0132
 2104SOL    HW2 7212   2.432   5.214   5.962 -0.5736 -0.6040  1.3423
 2105SOL     OW 7213   3.499   6.290   2.826  0.2519 -0.4617 -0.0014
 2105SOL    HW1 7214   3.476   6.328   2.915 -0.2303  2.4950 -1.2769
 2105SOL    HW2 7215   3.421   6.302   2.763  1.7260  0.6831 -1.7116
 2106SOL     OW 7216   0.130   6.409   6.065 -0.0151  0.4022  0.5628
 2106SOL    HW1 7217   0.158   6.345   6.136 -0.0337  0.7718  0.9051
 2106SOL    HW2 7218   0.210   6.452   6.024  0.1179 -1.1099 -0.8822
 2107SOL     OW 7219   3.505   4.647   5.450 -0.4498 -0.2848 -0.2302
 2107SOL    HW1 7220   3.577   4.598   5.401  1.0904  0.7006  0.9247
 2107SOL    HW2 7221   3.426   4.660   5.390  0.8225 -0.2951 -1.9953
 2108SOL     OW 7222   5.525   6.257   5.848 -0.2348 -0.0464  0.2726
 2108SOL    HW1 7223   5.619   6.265   5.813 -0.3505  0.7383  0.1313
 2108SOL    HW2 7224   5.469   6.330   5.810 -0.9687 -0.6512  0.1776
 2109SOL     OW 7225   0.201   4.671   3.685 -0.3354  0.2061  0.2695
 2109SOL    HW1 7226   0.292   4.656   3.723  0.3526 -1.8932 -1.9831
 2109SOL    HW2 7227   0.141   4.596   3.713 -1.1462  1.0821  0.9550
 2110SOL     OW 7228   1.842   3.633   4.546  0.9150  0.0358  0.0321
 2110SOL    HW1 7229   1.836   3.590   4.456 -0.4357  0.4361 -0.0965
 2110SOL    HW2 7230   1.895   3.718   4.540  0.2350  0.4280 -0.5402
 2111SOL     OW 7231   6.640   1.133   5.256 -0.2734  0.0891 -0.6456
 2111SOL    HW1 7232   6.604   1.119   5.348 -1.8083 -1.3501 -1.3937
 2111SOL    HW2 7233   6.704   1.058   5.233  0.7192  0.8687 -0.4901
 2112SOL     OW 7234   5.673   6.538   5.250  0.2746  0.1653 -0.4252
 2112SOL    HW1 7235   5.728   6.572   5.173  0.7748  1.6329  0.5289
 2112SOL    HW2 7236   5.607   6.471   5.217  1.0909  0.0728 -1.9784
 2113SOL     OW 7237   5.589   2.995   3.512  0.4139 -0.0194  0.0841
 2113SOL    HW1 7238   5.582   3.090   3.543  0.4660  0.4180 -1.2175
 2113SOL    HW2 7239   5.672   2.954   3.550 -0.0958  0.1356  1.4378
 2114SOL     OW 7240   1.854   5.079   6.276 -0.9937  0.5384 -0.1400
 2114SOL    HW1 7241   1.919   5.082   6.200  0.2154  1.9251  0.9056
 2114SOL    HW2 7242   1.866   4.994   6.327  1.1387  1.4437  0.9707
 2115SOL     OW 7243   4.632   5.042   1.248 -0.3178  0.1931  0.1408
 2115SOL    HW1 7244   4.661   5.071   1.340 -0.5573  1.9572 -0.3003
 2115SOL    HW2 7245   4.713   5.022   1.193 -0.1081  0.5880  0.2961
 2116SOL     OW 7246   0.803   2.114   1.895 -0.0063 -0.3039  1.0423
 2116SOL    HW1 7247   0.889   2.160   1.874 -0.3065  1.3173  3.0475
 2116SOL    HW2 7248   0.733   2.143   1.830  0.3819  0.2589  0.8634
 2117SOL     OW 7249   5.558   5.600   6.015 -0.4044  0.2062  0.3406
 2117SOL    HW1 7250   5.563   5.699   6.022 -0.5516  0.4229 -1.8508
 2117SOL    HW2 7251   5.636   5.566   5.961 -1.4462 -0.6188 -0.6959
 2118SOL     OW 7252   6.686   2.898   1.826  0.0328  0.4147  0.6480
 2118SOL    HW1 7253   6.753   2.900   1.901 -1.4359  0.4457  2.0132
 2118SOL    HW2 7254   6.637   2.986   1.823 -0.7334 -0.0098  0.4221
 2119SOL     OW 7255   2.761   6.839   6.270 -0.5065  0.0499  0.3803
 2119SOL    HW1 7256   2.842   6.797   6.311 -0.5226  0.4598  0.8483
 2119SOL    HW2 7257   2.680   6.785   6.293 -0.5421  0.3841  1.0777
 2120SOL     OW 7258   6.610   4.642   2.773 -0.2589 -0.1983  0.3315
 2120SOL    HW1 7259   6.638   4.606   2.862 -1.5633 -0.7686  0.5416
 2120SOL    HW2 7260   6.683   4.699   2.735  0.2201  0.2483  1.8615
 2121SOL     OW 7261   6.995   3.173   3.564  0.6606 -0.0108 -0.4216
 2121SOL    HW1 7262   7.005   3.251   3.625 -0.6250  0.5481 -0.8689
 2121SOL    HW2 7263   7.063   3.104   3.585 -0.2963 -0.2452  2.2485
 2122SOL     OW 7264   4.623   4.847   4.243 -0.3608  0.1143 -0.2775
 2122SOL    HW1 7265   4.664   4.899   4.318 -0.2654 -1.2492  0.6447
 2122SOL    HW2 7266   4.569   4.908   4.185  0.6598  1.4294  0.1158
 2123SOL     OW 7267   4.319   5.158   4.529 -0.1458 -0.1108 -0.3896
 2123SOL    HW1 7268   4.367   5.244   4.542 -0.8419  0.5652 -2.0622
 2123SOL    HW2 7269   4.240   5.155   4.591  1.5447 -0.9364  1.8715
 2124SOL     OW 7270   1.047   2.350   2.187  0.0876  0.2416  0.2510
 2124SOL    HW1 7271   0.960   2.400   2.188 -0.9451 -1.4360  2.1625
 2124SOL    HW2 7272   1.119   2.408   2.150 -1.3127  2.6259  1.0722
 2125SOL     OW 7273   4.472   6.602   6.379 -0.1188 -0.4406  0.2602
 2125SOL    HW1 7274   4.417   6.685   6.377 -0.1843 -0.4933 -0.2574
 2125SOL    HW2 7275   4.480   6.569   6.473 -3.4241 -2.0581  0.0943
 2126SOL     OW 7276   3.023   1.927   2.477 -0.2370  0.0481 -0.1479
 2126SOL    HW1 7277   3.099   1.862   2.486 -1.0046 -1.1473 -1.6893
 2126SOL    HW2 7278   2.952   1.905   2.544 -0.5315 -0.8070 -0.7139
 2127SOL     OW 7279   4.800   1.894   3.030 -0.0612  0.0010  0.7341
 2127SOL    HW1 7280   4.760   1.888   3.121 -1.1474 -0.0225  0.2798
 2127SOL    HW2 7281   4.742   1.843   2.965  1.4447 -1.1896  0.2673
 2128SOL     OW 7282   0.069   2.425   3.499  0.0217 -0.0846 -0.0577
 2128SOL    HW1 7283   0.123   2.342   3.509 -1.2081 -1.1511 -1.7246
 2128SOL    HW2 7284  -0.022   2.411   3.538  0.5192  1.3171  1.7393
 2129SOL     OW 7285   4.075   1.465   6.373  0.5137  0.2010 -0.0540
 2129SOL    HW1 7286   4.157   1.508   6.335  1.3835 -1.4666 -0.1431
 2129SOL    HW2 7287   4.043   1.518   6.452  1.8468  0.7375  0.1554
 2130SOL     OW 7288   0.755   6.212   6.785  0.3931  0.0779  0.5714
 2130SOL    HW1 7289   0.831   6.277   6.784  1.2791 -0.9109  0.0766
 2130SOL    HW2 7290   0.747   6.170   6.875  0.1633  0.4954  0.7429
 2131SOL     OW 7291   5.783   2.862   1.343  0.5748  0.4472 -0.4564
 2131SOL    HW1 7292   5.686   2.837   1.353  0.2992  0.0717 -3.2747
 2131SOL    HW2 7293   5.795   2.958   1.367  0.0198 -0.0565  2.1945
 2132SOL     OW 7294   0.609   4.724   1.512 -0.0437 -1.0012 -0.3630
 2132SOL    HW1 7295   0.649   4.740   1.603  0.6837 -2.7557 -0.3463
 2132SOL    HW2 7296   0.541   4.795   1.493  1.3107  0.6490  0.6491
 2133SOL     OW 7297   2.755   5.053   5.703 -0.2952  0.9433  0.0851
 2133SOL    HW1 7298   2.752   4.976   5.640 -0.6123  0.4131  0.7294
 2133SOL    HW2 7299   2.678   5.114   5.686  0.8961  2.0523 -1.5602
 2134SOL     OW 7300   1.654   0.940   6.561 -0.2567  0.8054  0.0674
 2134SOL    HW1 7301   1.563   0.970   6.532 -0.9697  2.0775  3.2908
 2134SOL    HW2 7302   1.649   0.903   6.654  2.5489  0.9568  0.3448
 2135SOL     OW 7303   6.500   6.080   5.749  0.4177 -0.0271  0.7842
 2135SOL    HW1 7304   6.490   6.041   5.657 -0.8475 -0.3166  1.0303
 2135SOL    HW2 7305   6.535   6.011   5.811 -1.7143 -0.8213  1.1946
 2136SOL     OW 7306   1.800   4.619   5.534  0.6545 -0.2386  0.4247
 2136SOL    HW1 7307   1.747   4.547   5.579 -0.3633  0.8408  1.0054
 2136SOL    HW2 7308   1.769   4.709   5.566  2.8800  0.4604  0.8416
 2137SOL     OW 7309   2.019   5.456   3.421 -0.1601 -0.6105 -0.0498
 2137SOL    HW1 7310   2.024   5.461   3.321  0.1304  0.5727  0.0127
 2137SOL    HW2 7311   1.981   5.367   3.448 -0.1016 -1.0026 -1.2011
 2138SOL     OW 7312   3.808   1.811   1.954  0.5153  0.0306  0.2074
 2138SOL    HW1 7313   3.874   1.820   1.879  0.1622  0.5120 -0.0563
 2138SOL    HW2 7314   3.779   1.903   1.983  0.1373 -0.1716  0.4745
 2139SOL     OW 7315   1.780   1.822   4.948  0.0314 -0.0772  0.0998
 2139SOL    HW1 7316   1.866   1.849   4.992 -0.4520  0.8949  0.5040
 2139SOL    HW2 7317   1.746   1.898   4.893 -1.5983  0.3621  1.5997
 2140SOL     OW 7318   1.578   2.449   1.437  0.2836 -0.4083  0.1924
 2140SOL    HW1 7319   1.604   2.494   1.351  1.4075 -0.4720  0.4835
 2140SOL    HW2 7320   1.571   2.351   1.422  1.6107 -0.5551  0.4121
 2141SOL     OW 7321   0.141   5.072   2.136  0.3567 -0.8833  0.0741
 2141SOL    HW1 7322   0.218   5.135   2.147  0.3430 -1.1412  2.2059
 2141SOL    HW2 7323   0.169   4.979   2.162 -0.6599 -0.9655  0.9891
 2142SOL     OW 7324   1.676   0.013   4.910  0.3936 -0.2462  0.1051
 2142SOL    HW1 7325   1.749  -0.055   4.904  0.1088 -0.5655  0.2481
 2142SOL    HW2 7326   1.618  -0.007   4.988 -0.9475 -1.0913 -1.0440
 2143SOL     OW 7327   6.955   3.690   4.822  0.3096  0.2165 -0.2230
 2143SOL    HW1 7328   7.002   3.720   4.904 -1.5434  1.1324  0.5729
 2143SOL    HW2 7329   6.915   3.600   4.837  1.4946 -0.4293 -0.7941
 2144SOL     OW 7330   6.643   3.344   1.896  0.0433 -0.2876  0.5845
 2144SOL    HW1 7331   6.648   3.428   1.841 -1.1356 -1.9895 -2.4161
 2144SOL    HW2 7332   6.726   3.334   1.951  1.9447  0.9985 -1.8546
 2145SOL     OW 7333   4.181   1.434   3.585 -0.6108  0.0745 -0.2215
 2145SOL    HW1 7334   4.089   1.408   3.616 -0.2426 -0.5739  0.3334
 2145SOL    HW2 7335   4.231   1.353   3.556  0.1855  0.2736  0.5507
 2146SOL     OW 7336   1.586   1.021   6.137 -0.1052  0.2203 -0.0388
 2146SOL    HW1 7337   1.669   0.991   6.091  0.5657  0.5322  0.9198
 2146SOL    HW2 7338   1.553   1.106   6.095 -0.2399 -0.1839 -0.7529
 2147SOL     OW 7339   5.577   0.017   5.039  0.0599 -0.2083  0.2086
 2147SOL    HW1 7340   5.655   0.032   5.099  0.4612 -0.8324 -0.1516
 2147SOL    HW2 7341   5.498  -0.012   5.094  0.0638  0.4753  0.5763
 2148SOL     OW 7342   0.878   2.848   4.864  0.6124 -0.4160  0.2255
 2148SOL    HW1 7343   0.848   2.760   4.827 -2.1966 -0.7394  2.8134
 2148SOL    HW2 7344   0.814   2.920   4.836  1.8070  0.4809 -0.3128
 2149SOL     OW 7345   1.414   5.997   6.793  0.4949 -0.8519  0.1167
 2149SOL    HW1 7346   1.329   5.990   6.844 -0.7093 -0.0689 -1.6818
 2149SOL    HW2 7347   1.474   6.064   6.837  0.0918 -1.2064  1.2426
 2150SOL     OW 7348   0.722   2.191   6.910  0.0382  0.1468 -0.0213
 2150SOL    HW1 7349   0.662   2.264   6.944  0.8879  0.6814  0.3728
 2150SOL    HW2 7350   0.810   2.197   6.956  0.4272 -0.5830 -0.6529
 2151SOL     OW 7351   0.756   3.644   5.781 -0.0423  0.0518  0.3847
 2151SOL    HW1 7352   0.812   3.560   5.785  1.1661  0.8195  0.0650
 2151SOL    HW2 7353   0.784   3.706   5.853  0.0669  0.7848 -0.2756
 2152SOL     OW 7354   4.889   6.238   5.353  0.0536  0.1536 -0.2583
 2152SOL    HW1 7355   4.868   6.335   5.339 -0.4849  0.3778  1.7285
 2152SOL    HW2 7356   4.860   6.186   5.273  0.0420  1.5887 -1.2243
 2153SOL     OW 7357   4.531   0.546   4.664 -0.2070 -0.3679 -0.3464
 2153SOL    HW1 7358   4.630   0.531   4.674  0.1238  1.1757 -1.0647
 2153SOL    HW2 7359   4.495   0.591   4.746 -0.3551 -1.0272 -0.0389
 2154SOL     OW 7360   2.185   0.029   3.186  0.6703 -0.3250  0.0215
 2154SOL    HW1 7361   2.238   0.062   3.108  0.7457 -1.9452 -0.6382
 2154SOL    HW2 7362   2.101   0.083   3.195  0.4114 -0.4538 -1.5057
 2155SOL     OW 7363   5.522   2.969   0.961  0.9511  0.2791  0.2746
 2155SOL    HW1 7364   5.572   3.015   1.034  1.0636 -0.1417  0.4665
 2155SOL    HW2 7365   5.424   2.973   0.980  1.0432 -0.9229  1.1099
 2156SOL     OW 7366   6.465   2.456   3.421 -0.3132 -0.5091  0.2758
 2156SOL    HW1 7367   6.426   2.526   3.481 -0.1252  1.8130 -2.1015
 2156SOL    HW2 7368   6.413   2.452   3.336  0.1106 -2.8444  0.0672
 2157SOL     OW 7369   2.534   6.004   4.394  0.0383 -0.4640  0.0593
 2157SOL    HW1 7370   2.568   5.947   4.470  1.7370  2.5522  1.7560
 2157SOL    HW2 7371   2.612   6.043   4.345 -1.0664  0.2725 -1.1603
 2158SOL     OW 7372   3.682   5.724   6.655  0.1628 -0.2206 -0.0470
 2158SOL    HW1 7373   3.596   5.686   6.689 -0.2205  0.9408  0.3274
 2158SOL    HW2 7374   3.686   5.713   6.556 -0.2225 -0.6627 -0.0182
 2159SOL     OW 7375   1.704   1.501   6.460  0.5191  0.4095 -0.0623
 2159SOL    HW1 7376   1.648   1.507   6.378  0.9649 -0.4038 -0.4344
 2159SOL    HW2 7377   1.718   1.593   6.498 -1.6947  0.5732  0.4959
 2160SOL     OW 7378   0.005   6.974   0.081  0.3210  0.4398  0.0453
 2160SOL    HW1 7379   0.033   6.997  -0.013  0.2977 -3.4864 -1.0734
 2160SOL    HW2 7380   0.036   6.882   0.104 -2.0651  0.2010  2.9364
 2161SOL     OW 7381   0.279   4.588   0.341  0.2045  0.0972  0.3067
 2161SOL    HW1 7382   0.234   4.624   0.422  1.7392  0.4237  1.0424
 2161SOL    HW2 7383   0.334   4.659   0.298 -0.9314  0.0535 -1.3012
 2162SOL     OW 7384   2.061   5.327   1.439 -0.1646 -0.2194  0.0701
 2162SOL    HW1 7385   2.159   5.321   1.425  0.3766  2.4323  1.8771
 2162SOL    HW2 7386   2.037   5.282   1.525 -0.0197  1.3988  1.0086
 2163SOL     OW 7387   1.096   3.383   4.212  0.0861  0.2774 -0.2212
 2163SOL    HW1 7388   1.157   3.321   4.261  1.2555  0.4882 -1.3727
 2163SOL    HW2 7389   1.074   3.461   4.271  1.5005  0.5521 -0.0373
 2164SOL     OW 7390   3.353   4.938   3.211  0.1302  0.0445 -0.3592
 2164SOL    HW1 7391   3.429   4.910   3.151  0.5344 -2.3685  1.1087
 2164SOL    HW2 7392   3.266   4.925   3.163  0.5385  0.7486 -1.3178
 2165SOL     OW 7393   5.825   4.772   3.078  0.0970 -0.4906  0.1859
 2165SOL    HW1 7394   5.911   4.737   3.040  0.1609  0.2881 -0.4301
 2165SOL    HW2 7395   5.792   4.847   3.020  0.9050  1.7101  2.3654
 2166SOL     OW 7396   4.896   3.842   1.378  0.2088 -1.1920  0.4118
 2166SOL    HW1 7397   4.929   3.750   1.355  1.1959 -0.5598 -0.8973
 2166SOL    HW2 7398   4.809   3.835   1.426  1.0528 -2.8616  1.8267
 2167SOL     OW 7399   1.235   2.008   1.988 -0.8548  0.4034 -0.1775
 2167SOL    HW1 7400   1.213   1.917   1.954 -1.0912 -0.3589  1.8638
 2167SOL    HW2 7401   1.159   2.044   2.043 -0.2724  1.2833  0.0946
 2168SOL     OW 7402   6.761   1.609   3.062  0.1141 -0.1321  0.7792
 2168SOL    HW1 7403   6.780   1.514   3.087 -1.3154 -0.3890  0.9497
 2168SOL    HW2 7404   6.693   1.647   3.124  0.3203  0.8655  0.4143
 2169SOL     OW 7405   6.153   0.323   1.625 -0.0671  1.2479 -0.1158
 2169SOL    HW1 7406   6.138   0.267   1.544 -0.4027  3.2803 -1.5315
 2169SOL    HW2 7407   6.249   0.353   1.628 -0.2117  1.7187 -0.1318
 2170SOL     OW 7408   3.000   0.833   0.540  0.1069 -0.1738 -0.1550
 2170SOL    HW1 7409   2.980   0.788   0.453 -1.7930  0.6128 -0.1688
 2170SOL    HW2 7410   2.990   0.932   0.529 -0.5296 -0.0979  1.0453
 2171SOL     OW 7411   5.170   1.371   2.522  0.2048 -0.3822 -0.3118
 2171SOL    HW1 7412   5.109   1.308   2.473  2.6236 -3.0346 -0.2013
 2171SOL    HW2 7413   5.208   1.325   2.602 -1.4410  2.9044  2.6169
 2172SOL     OW 7414   2.034   1.522   5.146 -0.2302 -0.3897  0.0368
 2172SOL    HW1 7415   2.082   1.598   5.102 -1.0637  0.1128 -0.0112
 2172SOL    HW2 7416   1.966   1.484   5.083 -2.0987  0.9388  1.1602
 2173SOL     OW 7417   5.338   0.101   0.010 -0.2343 -0.3516 -0.3223
 2173SOL    HW1 7418   5.304   0.009  -0.009 -1.5298 -0.0142  0.2283
 2173SOL    HW2 7419   5.429   0.113  -0.030  1.0480 -2.6989  1.6417
 2174SOL     OW 7420   5.345   5.837   4.766 -0.1032 -0.2044  0.2484
 2174SOL    HW1 7421   5.333   5.905   4.838  2.1485 -0.2858  0.7609
 2174SOL    HW2 7422   5.434   5.851   4.722  0.1537 -2.4456 -0.0343
 2175SOL     OW 7423   1.018   2.714   5.535 -0.5130  0.2913 -0.5930
 2175SOL    HW1 7424   1.009   2.796   5.478  0.6202  0.7292 -0.1573
 2175SOL    HW2 7425   1.114   2.695   5.551 -0.8051  0.2598  1.2908
 2176SOL     OW 7426   6.602   1.266   5.621 -0.7131 -0.3992  0.5367
 2176SOL    HW1 7427   6.539   1.339   5.594 -0.2413  0.0298  0.5572
 2176SOL    HW2 7428   6.565   1.216   5.699 -1.2207 -0.4288  0.2758
 2177SOL     OW 7429   0.682   6.871   4.221 -0.1485  0.5263  0.4452
 2177SOL    HW1 7430   0.718   6.964   4.229 -1.5590  1.0144  1.4496
 2177SOL    HW2 7431   0.583   6.872   4.235 -0.4025 -0.9515 -0.9270
 2178SOL     OW 7432   2.028   4.857   2.844 -0.4345 -0.0918 -0.0037
 2178SOL    HW1 7433   2.045   4.782   2.907 -0.8358  0.5491  0.8977
 2178SOL    HW2 7434   2.098   4.858   2.773  0.6903 -0.1879  1.0571
 2179SOL     OW 7435   3.445   3.150   6.994 -0.0594 -0.1314  0.2336
 2179SOL    HW1 7436   3.502   3.230   7.008  0.9495 -1.0093  1.3297
 2179SOL    HW2 7437   3.348   3.176   7.000  0.2622  0.7738  2.0159
 2180SOL     OW 7438   0.009   2.721   2.030  0.1375  0.1991 -0.6605
 2180SOL    HW1 7439  -0.022   2.629   2.005  0.3922  0.5504 -2.4628
 2180SOL    HW2 7440   0.080   2.715   2.099 -0.2579 -0.9271 -0.3365
 2181SOL     OW 7441   4.891   5.031   1.927  0.4542  0.0869  0.7951
 2181SOL    HW1 7442   4.926   5.042   1.833  0.1543 -0.2982  0.6331
 2181SOL    HW2 7443   4.829   4.952   1.930 -1.0446  1.2312  0.8948
 2182SOL     OW 7444   6.939   0.765   0.825  0.6648  0.5338 -0.3384
 2182SOL    HW1 7445   6.954   0.755   0.727 -1.0029  0.0221 -0.5714
 2182SOL    HW2 7446   7.027   0.759   0.873  1.1992 -3.3203 -1.4565
 2183SOL     OW 7447   3.760   2.650   6.481  0.1596  0.2334 -0.1693
 2183SOL    HW1 7448   3.725   2.680   6.570  0.2559  1.9560 -0.6948
 2183SOL    HW2 7449   3.715   2.701   6.408  1.4622  0.1999 -1.0185
 2184SOL     OW 7450   6.220   2.882   5.045  0.2899  0.0176 -0.6060
 2184SOL    HW1 7451   6.283   2.947   5.004  0.4126  0.5805  0.4279
 2184SOL    HW2 7452   6.189   2.917   5.133  0.1080 -1.1878 -0.1663
 2185SOL     OW 7453   6.804   0.844   6.504  0.3042 -0.1171 -0.3402
 2185SOL    HW1 7454   6.841   0.758   6.469 -1.3876 -0.0760 -2.4522
 2185SOL    HW2 7455   6.850   0.920   6.459  0.1098  0.0029 -0.3369
 2186SOL     OW 7456   6.451   5.328   6.249  0.0687  0.4848 -0.4171
 2186SOL    HW1 7457   6.424   5.422   6.226  0.2120  0.7559  0.5135
 2186SOL    HW2 7458   6.421   5.307   6.342  0.9621 -0.0324 -0.2411
 2187SOL     OW 7459   6.885   2.505   0.701  0.5912 -0.3486  0.3126
 2187SOL    HW1 7460   6.799   2.538   0.663 -0.1798 -1.6835  0.8366
 2187SOL    HW2 7461   6.895   2.408   0.683  1.3166 -0.5149  1.4809
 2188SOL     OW 7462   2.887   1.708   0.719  0.5085 -0.5999 -0.4755
 2188SOL    HW1 7463   2.973   1.749   0.748  0.3706 -1.0374  0.6249
 2188SOL    HW2 7464   2.853   1.648   0.792 -1.4765  0.7049 -0.2492
 2189SOL     OW 7465   3.178   5.822   2.604 -0.2168  0.1738  0.6308
 2189SOL    HW1 7466   3.142   5.797   2.694 -1.8852 -0.8667 -0.2772
 2189SOL    HW2 7467   3.211   5.740   2.558  0.5951  0.6959  0.2697
 2190SOL     OW 7468   0.520   3.049   2.353  0.7251 -0.8150 -0.3306
 2190SOL    HW1 7469   0.460   3.034   2.274  0.8554  1.8574 -1.0454
 2190SOL    HW2 7470   0.611   3.013   2.332  1.0781  0.8341 -1.9644
 2191SOL     OW 7471   4.548   0.846   0.196  0.3489 -0.3874  0.0732
 2191SOL    HW1 7472   4.628   0.901   0.172 -0.4717  0.7226 -0.1983
 2191SOL    HW2 7473   4.538   0.843   0.295  0.3820 -0.0268  0.0882
 2192SOL     OW 7474   5.961   3.802   1.310  0.2369  0.4822 -0.0712
 2192SOL    HW1 7475   5.974   3.836   1.404 -0.1883  0.1228  0.1227
 2192SOL    HW2 7476   6.034   3.737   1.288 -1.1609 -1.5881  1.0387
 2193SOL     OW 7477   2.402   0.446   6.906  0.2177  0.2208 -0.1540
 2193SOL    HW1 7478   2.346   0.529   6.910  1.5092  1.1316 -0.5059
 2193SOL    HW2 7479   2.353   0.371   6.950  0.2755  1.8865  2.9984
 2194SOL     OW 7480   1.624   3.996   5.494 -0.3560 -0.5445  0.1325
 2194SOL    HW1 7481   1.624   3.983   5.395  1.0964  0.6546 -0.0536
 2194SOL    HW2 7482   1.653   4.089   5.515  3.4828 -1.9377  1.7751
 2195SOL     OW 7483   0.499   4.525   3.641 -0.4610 -0.2892  0.3066
 2195SOL    HW1 7484   0.525   4.587   3.567 -0.9661  1.2544  1.3813
 2195SOL    HW2 7485   0.526   4.432   3.617  3.0737  0.6972 -0.0905
 2196SOL     OW 7486   5.770   0.849   0.240  0.5956  0.6231  0.4488
 2196SOL    HW1 7487   5.702   0.848   0.314  0.9073 -0.6597  0.7377
 2196SOL    HW2 7488   5.732   0.804   0.159  1.1854 -0.3363  0.6994
 2197SOL     OW 7489   3.959   3.371   5.583  0.1356 -0.1529  0.8650
 2197SOL    HW1 7490   4.011   3.429   5.645  1.0815  2.9082 -2.4178
 2197SOL    HW2 7491   4.012   3.288   5.563  1.8944  0.9405  0.7882
 2198SOL     OW 7492   0.752   0.927   0.209 -0.0842  0.8829  0.6348
 2198SOL    HW1 7493   0.740   0.828   0.216  1.5912  0.6319  0.3573
 2198SOL    HW2 7494   0.716   0.971   0.291  0.5943 -0.1031  1.4809
 2199SOL     OW 7495   4.108   6.481   3.765  0.0532  0.1485  0.0082
 2199SOL    HW1 7496   4.038   6.417   3.798  0.9918 -0.7291  0.3300
 2199SOL    HW2 7497   4.180   6.431   3.719  1.0819  0.9191  0.7333
 2200SOL     OW 7498   1.946   3.248   6.704 -0.5217 -0.4774  0.1812
 2200SOL    HW1 7499   1.902   3.185   6.767 -1.9766  1.8269  1.6386
 2200SOL    HW2 7500   2.032   3.280   6.744 -0.9117  0.1626  0.5251
 2201SOL     OW 7501   5.861   2.730   2.595  0.3398 -0.4722 -0.6732
 2201SOL    HW1 7502   5.785   2.680   2.636  0.0470 -0.8205 -1.6097
 2201SOL    HW2 7503   5.925   2.758   2.666 -1.4465  1.2546  0.3762
 2202SOL     OW 7504   4.081   0.505   4.744  0.0751  0.2681  0.0923
 2202SOL    HW1 7505   4.031   0.449   4.809  1.0755  0.4912  1.0824
 2202SOL    HW2 7506   4.016   0.556   4.687 -0.8513 -1.6577 -0.6686
 2203SOL     OW 7507   2.470   5.503   1.361 -0.1753 -0.2707 -0.2076
 2203SOL    HW1 7508   2.458   5.487   1.459  1.4025 -2.7560 -0.3371
 2203SOL    HW2 7509   2.443   5.422   1.310  0.8867  0.2611 -1.6917
 2204SOL     OW 7510   4.672   5.705   0.103  0.2502  0.0111 -0.0430
 2204SOL    HW1 7511   4.728   5.782   0.074 -0.5289  0.8834  0.7107
 2204SOL    HW2 7512   4.575   5.731   0.101  0.0298 -0.6638  1.0067
 2205SOL     OW 7513   6.446   6.554   1.174 -0.4628  0.0905 -0.6778
 2205SOL    HW1 7514   6.444   6.510   1.264  0.4052 -1.3530 -1.3139
 2205SOL    HW2 7515   6.404   6.644   1.179 -0.0373  0.2166  1.2666
 2206SOL     OW 7516   3.321   2.988   5.347 -0.0803 -0.2800  0.0222
 2206SOL    HW1 7517   3.274   2.979   5.258 -1.1767  1.6989  0.3520
 2206SOL    HW2 7518   3.255   2.975   5.421 -0.6731  4.1589  0.5133
 2207SOL     OW 7519   5.513   5.997   0.454  0.1551  0.4624  0.0074
 2207SOL    HW1 7520   5.545   5.968   0.544  0.5872  1.3886  0.1616
 2207SOL    HW2 7521   5.477   5.918   0.405 -2.1824  0.2909  1.8311
 2208SOL     OW 7522   6.546   5.766   2.155 -0.1766  0.0173 -0.6390
 2208SOL    HW1 7523   6.556   5.861   2.123  0.1444 -0.2397 -1.3199
 2208SOL    HW2 7524   6.577   5.704   2.084  0.5270 -0.5814  0.1651
 2209SOL     OW 7525   1.941   4.115   3.593  0.1388 -0.1574  0.1624
 2209SOL    HW1 7526   2.006   4.175   3.640 -0.1849 -0.2280  0.7107
 2209SOL    HW2 7527   1.904   4.049   3.658  1.0164 -1.4261 -0.5778
 2210SOL     OW 7528   4.640   0.516   1.658  0.1297  0.0448 -0.1816
 2210SOL    HW1 7529   4.558   0.461   1.676 -1.1124  1.6260 -0.7808
 2210SOL    HW2 7530   4.685   0.538   1.744  0.7340 -1.9549  0.0760
 2211SOL     OW 7531   3.225   1.332   0.362  0.2550 -0.3150  0.2314
 2211SOL    HW1 7532   3.254   1.358   0.454 -0.9936  1.3477  0.2048
 2211SOL    HW2 7533   3.136   1.373   0.342  0.5491 -0.5375 -1.7614
 2212SOL     OW 7534   0.742   6.514   5.911 -0.1999 -0.0677  0.5943
 2212SOL    HW1 7535   0.804   6.460   5.967 -1.0689 -1.8789 -0.0990
 2212SOL    HW2 7536   0.677   6.562   5.969  1.6004  1.6509  1.3142
 2213SOL     OW 7537   3.880   1.409   3.191  0.3214  0.3570  0.3295
 2213SOL    HW1 7538   3.845   1.473   3.259  1.0796  0.2211  0.8554
 2213SOL    HW2 7539   3.980   1.408   3.194  0.4617  1.6982 -2.0270
 2214SOL     OW 7540   5.342   4.884   5.477 -0.1274  0.0515 -0.1227
 2214SOL    HW1 7541   5.311   4.927   5.392 -0.7468 -0.2272 -0.0446
 2214SOL    HW2 7542   5.345   4.952   5.550  3.8314  1.1659 -1.1115
 2215SOL     OW 7543   6.181   6.608   6.233 -0.4661  0.3233 -0.0851
 2215SOL    HW1 7544   6.213   6.617   6.327 -1.0603 -0.5781  0.2193
 2215SOL    HW2 7545   6.253   6.637   6.170 -0.2777  1.5374  0.6452
 2216SOL     OW 7546   0.552   6.288   1.535  0.0080  0.3838 -0.0893
 2216SOL    HW1 7547   0.486   6.298   1.461 -2.4823 -0.7782  1.8041
 2216SOL    HW2 7548   0.514   6.328   1.619  2.3478  0.9091  0.7784
 2217SOL     OW 7549   2.951   1.795   5.455  0.6661  0.2746 -0.1175
 2217SOL    HW1 7550   2.912   1.703   5.442  1.5064 -0.0183 -0.6195
 2217SOL    HW2 7551   3.013   1.816   5.381  2.8757 -0.0055  1.5506
 2218SOL     OW 7552   6.908   5.481   3.312  0.2740  0.6234 -0.2619
 2218SOL    HW1 7553   6.920   5.394   3.358  2.3743  1.2332  0.4488
 2218SOL    HW2 7554   6.926   5.470   3.214 -0.0686  0.1706 -0.2794
 2219SOL     OW 7555   5.753   2.621   0.260 -0.5298 -0.4175 -0.1325
 2219SOL    HW1 7556   5.851   2.640   0.254 -0.5357 -0.5957 -0.8157
 2219SOL    HW2 7557   5.722   2.638   0.354 -0.0915  0.7574 -0.1869
 2220SOL     OW 7558   6.201   0.044   4.457 -0.4793  0.5368  0.3830
 2220SOL    HW1 7559   6.232   0.090   4.373 -0.2123 -0.4175 -0.0566
 2220SOL    HW2 7560   6.160  -0.044   4.433  0.7855 -0.3432  1.3523
 2221SOL     OW 7561   3.773   0.171   3.214 -0.2158  0.4069 -0.3228
 2221SOL    HW1 7562   3.755   0.073   3.224 -1.2245  0.6963  0.9417
 2221SOL    HW2 7563   3.687   0.220   3.204  0.1631  1.3385  0.8134
 2222SOL     OW 7564   4.995   2.004   6.757 -0.0024 -0.3256 -0.7762
 2222SOL    HW1 7565   5.093   1.983   6.757  0.3862  1.2865 -1.2063
 2222SOL    HW2 7566   4.962   2.008   6.663 -0.8691 -2.3678 -0.5929
 2223SOL     OW 7567   1.640   0.523   4.282 -0.1603 -0.2800  0.6481
 2223SOL    HW1 7568   1.595   0.449   4.232  1.0459 -0.7767  0.2618
 2223SOL    HW2 7569   1.732   0.536   4.247 -1.2906  3.5549 -1.5464
 2224SOL     OW 7570   5.262   4.595   4.706 -0.3435 -0.3040 -0.0025
 2224SOL    HW1 7571   5.344   4.650   4.691 -0.0850 -0.9448 -1.0897
 2224SOL    HW2 7572   5.192   4.649   4.752  0.9497  0.0394  1.6662
 2225SOL     OW 7573   6.014   1.737   0.214 -0.0691  0.2373 -0.1268
 2225SOL    HW1 7574   6.075   1.669   0.173 -0.1165  0.4415 -0.5471
 2225SOL    HW2 7575   5.996   1.713   0.309 -0.1453 -0.3813 -0.2904
 2226SOL     OW 7576   3.233   2.338   0.097  0.9184 -0.4067  0.2822
 2226SOL    HW1 7577   3.144   2.337   0.142  0.2834 -0.1551 -0.9230
 2226SOL    HW2 7578   3.229   2.395   0.015  1.8483 -1.3409 -0.4478
 2227SOL     OW 7579   3.147   2.084   0.754 -0.1562  0.0620 -0.4957
 2227SOL    HW1 7580   3.138   2.148   0.831 -1.1687 -1.5364  0.7772
 2227SOL    HW2 7581   3.134   1.991   0.787 -0.9319 -0.6525 -2.6730
 2228SOL     OW 7582   6.332   6.148   0.664 -0.5698  0.4156  0.2718
 2228SOL    HW1 7583   6.398   6.169   0.736 -1.2611 -0.3145  1.1397
 2228SOL    HW2 7584   6.239   6.156   0.700 -0.9148 -0.7348 -0.3146
 2229SOL     OW 7585   3.671   3.154   3.163  0.5513  0.6253  0.2184
 2229SOL    HW1 7586   3.737   3.113   3.099  0.6433 -0.2399  0.8485
 2229SOL    HW2 7587   3.579   3.146   3.124  0.5353 -0.4340  0.4300
 2230SOL     OW 7588   0.482   6.882   5.660 -0.2483 -0.5158  0.4981
 2230SOL    HW1 7589   0.559   6.943   5.679 -0.6391  0.0636  0.2694
 2230SOL    HW2 7590   0.422   6.926   5.593 -2.1943  0.2255  2.6465
 2231SOL     OW 7591   0.379   5.912   5.615  0.0229 -0.0607  0.0471
 2231SOL    HW1 7592   0.401   5.997   5.661  0.7461 -0.3857  0.3135
 2231SOL    HW2 7593   0.409   5.835   5.672  0.2845 -0.4730 -0.6397
 2232SOL     OW 7594   2.134   6.359   0.544  0.1965  0.1209 -0.5213
 2232SOL    HW1 7595   2.176   6.442   0.580  1.4234 -0.6149 -0.1724
 2232SOL    HW2 7596   2.205   6.289   0.532 -0.9396 -1.1655  0.0385
 2233SOL     OW 7597   3.853   5.433   6.762 -0.1068  0.8254  0.2931
 2233SOL    HW1 7598   3.761   5.472   6.775 -0.7310 -0.3808 -0.3715
 2233SOL    HW2 7599   3.867   5.412   6.666 -0.0725 -1.2227  0.6993
 2234SOL     OW 7600   6.387   2.808   0.319 -0.6461 -0.5044 -0.3780
 2234SOL    HW1 7601   6.375   2.801   0.418  3.8108 -1.2110  0.3163
 2234SOL    HW2 7602   6.374   2.903   0.291 -3.9817 -0.6094  0.3839
 2235SOL     OW 7603   0.533   2.894   2.605 -0.6387  0.3675 -0.4790
 2235SOL    HW1 7604   0.526   2.954   2.525 -1.0499  0.1045 -0.6427
 2235SOL    HW2 7605   0.623   2.907   2.648  0.1840 -0.5025 -1.8235
 2236SOL     OW 7606   2.154   5.671   5.412 -0.1798  0.0060  0.6097
 2236SOL    HW1 7607   2.211   5.751   5.431 -1.7722  1.2735  0.3147
 2236SOL    HW2 7608   2.086   5.694   5.343 -0.3991 -1.7648  0.1745
 2237SOL     OW 7609   0.143   0.369   6.880 -0.5134 -0.0482 -0.7983
 2237SOL    HW1 7610   0.214   0.417   6.932 -0.2783  0.4747 -1.5908
 2237SOL    HW2 7611   0.177   0.279   6.852 -1.3854 -1.2878  1.7652
 2238SOL     OW 7612   5.275   4.950   0.171  0.1406 -0.2059  0.1019
 2238SOL    HW1 7613   5.186   4.991   0.152  0.1656 -0.5361 -0.8015
 2238SOL    HW2 7614   5.266   4.850   0.173  0.8365 -0.3931 -2.2669
 2239SOL     OW 7615   3.060   0.091   4.693  0.0839  0.1515 -0.2785
 2239SOL    HW1 7616   3.010   0.131   4.616  0.5759 -2.5388 -2.1283
 2239SOL    HW2 7617   3.158   0.100   4.677  0.2237  1.1556  0.9826
 2240SOL     OW 7618   5.577   0.102   3.875 -0.5303  1.0734 -0.6845
 2240SOL    HW1 7619   5.494   0.125   3.824 -1.7462 -0.5862  0.4194
 2240SOL    HW2 7620   5.566   0.011   3.916  0.4046  2.2247  2.3784
 2241SOL     OW 7621   0.510   3.667   1.345 -0.6362  0.3239  0.0776
 2241SOL    HW1 7622   0.542   3.646   1.437  0.6158  0.9585 -0.1818
 2241SOL    HW2 7623   0.521   3.765   1.327 -0.7657  0.1963 -0.7703
 2242SOL     OW 7624   3.854   0.660   4.165  0.6682 -0.4870 -0.3082
 2242SOL    HW1 7625   3.882   0.687   4.073 -0.3379  2.2466  0.0993
 2242SOL    HW2 7626   3.918   0.700   4.232 -0.5310  0.4507  0.3090
 2243SOL     OW 7627   5.361   0.704   6.518  0.2606  0.1486  0.1006
 2243SOL    HW1 7628   5.422   0.705   6.439 -0.0293  1.7524 -0.1518
 2243SOL    HW2 7629   5.328   0.611   6.534 -0.1917 -0.1201 -2.0756
 2244SOL     OW 7630   2.345   0.993   0.524  0.2722 -0.1502  0.0246
 2244SOL    HW1 7631   2.282   1.070   0.514  0.0470 -0.2912  0.3500
 2244SOL    HW2 7632   2.397   1.003   0.608 -0.3795 -0.7957  0.5155
 2245SOL     OW 7633   6.990   1.185   1.827 -0.1893 -0.0840  0.1659
 2245SOL    HW1 7634   7.003   1.160   1.923  1.0912 -1.2956 -0.2898
 2245SOL    HW2 7635   6.972   1.102   1.773  1.1699  0.3079 -0.9383
 2246SOL     OW 7636   6.989   2.366   4.665 -0.6533  0.5134 -0.6786
 2246SOL    HW1 7637   7.048   2.435   4.623  0.1996  1.3896  1.8292
 2246SOL    HW2 7638   6.906   2.409   4.700 -0.2341  0.2566  0.6741
 2247SOL     OW 7639   3.993   3.387   0.664 -0.0140  0.1423 -0.4916
 2247SOL    HW1 7640   3.941   3.337   0.595 -0.2225  0.9382 -0.9193
 2247SOL    HW2 7641   3.983   3.342   0.753 -1.0867  0.0511 -0.6492
 2248SOL     OW 7642   4.211   2.079   3.603 -0.2035  0.3985 -0.0182
 2248SOL    HW1 7643   4.158   2.161   3.626 -0.9182 -0.1850  0.4173
 2248SOL    HW2 7644   4.157   1.997   3.620  0.5275 -0.1808 -0.3982
 2249SOL     OW 7645   0.793   0.409   3.552 -0.3177 -0.3071 -0.2430
 2249SOL    HW1 7646   0.805   0.393   3.454 -3.2973 -2.7290 -0.3886
 2249SOL    HW2 7647   0.851   0.345   3.603  1.4791  1.1704 -0.3195
 2250SOL     OW 7648   3.601   3.788   5.065 -0.2310  0.4342 -0.0904
 2250SOL    HW1 7649   3.597   3.690   5.082 -0.8315  0.0295 -2.2110
 2250SOL    HW2 7650   3.516   3.818   5.021  0.1968  1.7715 -0.0499
 2251SOL     OW 7651   4.051   0.690   5.052 -0.0009  0.3417  0.2489
 2251SOL    HW1 7652   4.093   0.616   5.104  1.0531  0.9452  0.2748
 2251SOL    HW2 7653   4.029   0.658   4.959  0.6804  0.0622  0.1804
 2252SOL     OW 7654   5.085   2.539   2.417  0.0493  0.2535  0.4760
 2252SOL    HW1 7655   5.074   2.601   2.340  0.9840 -1.0829 -0.7735
 2252SOL    HW2 7656   4.997   2.527   2.463 -0.2240  2.1602  0.5078
 2253SOL     OW 7657   1.111   4.483   0.661  0.1780  0.7307  0.2333
 2253SOL    HW1 7658   1.047   4.558   0.647  0.5062  1.0875  0.6246
 2253SOL    HW2 7659   1.099   4.446   0.753 -1.0426 -0.7163 -0.4646
 2254SOL     OW 7660   3.319   4.081   2.534 -0.0993 -0.1631 -0.3460
 2254SOL    HW1 7661   3.267   4.009   2.488 -0.3119  0.8641 -1.7542
 2254SOL    HW2 7662   3.330   4.159   2.473  1.7615  0.2752  0.4957
 2255SOL     OW 7663   0.477   6.813   0.423 -0.2279 -0.6929  0.1878
 2255SOL    HW1 7664   0.414   6.835   0.349 -0.9661  0.1123  1.0263
 2255SOL    HW2 7665   0.498   6.716   0.422  1.4153 -0.4048 -2.3321
 2256SOL     OW 7666   5.771   0.340   6.583 -0.4939 -0.1921 -0.0448
 2256SOL    HW1 7667   5.841   0.363   6.650  0.3128 -2.1452 -0.1691
 2256SOL    HW2 7668   5.779   0.402   6.504 -1.7832  2.4772  1.7444
 2257SOL     OW 7669   5.523   1.615   7.009  0.1115  0.2783 -0.3080
 2257SOL    HW1 7670   5.432   1.590   7.041 -0.3669  3.4328  1.1897
 2257SOL    HW2 7671   5.585   1.621   7.088  0.8010  1.1739 -0.8988
 2258SOL     OW 7672   0.507   0.331   4.607  0.1679  0.0815  0.3698
 2258SOL    HW1 7673   0.504   0.386   4.523  1.5346 -1.0859 -0.4726
 2258SOL    HW2 7674   0.590   0.276   4.608 -0.9916 -1.7226  1.3614
 2259SOL     OW 7675   5.777   1.232   5.715 -0.0815  0.0576  0.0519
 2259SOL    HW1 7676   5.821   1.178   5.786  1.8522  2.0999  0.5056
 2259SOL    HW2 7677   5.795   1.329   5.730 -2.7157  0.8507 -1.2016
 2260SOL     OW 7678   1.247   4.385   6.508  0.2965  0.6642  0.4545
 2260SOL    HW1 7679   1.308   4.465   6.510 -0.5892  1.4318 -1.2349
 2260SOL    HW2 7680   1.165   4.405   6.562  1.0503 -0.0001  1.9096
 2261SOL     OW 7681   4.780   5.000   0.439  0.7478  0.5653 -0.1097
 2261SOL    HW1 7682   4.806   4.908   0.408 -0.9943 -0.4962  1.3461
 2261SOL    HW2 7683   4.860   5.049   0.473  1.4647 -1.0284  0.5750
 2262SOL     OW 7684   6.269   1.016   2.127  0.1329  0.1074  0.1782
 2262SOL    HW1 7685   6.232   1.081   2.061  1.9630  0.8680 -0.1814
 2262SOL    HW2 7686   6.280   0.927   2.084  0.5200  0.3835 -0.3133
 2263SOL     OW 7687   3.434   4.844   6.408  0.0732  0.1484  0.4896
 2263SOL    HW1 7688   3.498   4.772   6.436  1.4055  1.6726  1.5834
 2263SOL    HW2 7689   3.484   4.917   6.363 -1.2270  0.4931 -0.4356
 2264SOL     OW 7690   2.522   1.529   6.061  0.1555  0.4958 -0.1314
 2264SOL    HW1 7691   2.590   1.550   5.991 -0.3878  1.1452 -0.4808
 2264SOL    HW2 7692   2.463   1.609   6.074 -0.8654 -0.2304 -0.2196
 2265SOL     OW 7693   6.983   6.614   3.224  0.0941 -0.8049 -0.3408
 2265SOL    HW1 7694   6.901   6.672   3.223  0.5738 -0.1062 -1.1909
 2265SOL    HW2 7695   7.028   6.620   3.313 -1.4427 -2.1994  0.5898
 2266SOL     OW 7696   6.206   4.028   6.685  0.3477  0.0711  0.3893
 2266SOL    HW1 7697   6.283   3.965   6.675  0.2874 -0.0470  0.6532
 2266SOL    HW2 7698   6.154   4.030   6.599 -0.6208 -1.5314  0.8926
 2267SOL     OW 7699   5.371   4.799   2.021  0.1944  0.2585  0.1867
 2267SOL    HW1 7700   5.359   4.830   2.116 -0.7179 -0.3418  0.2716
 2267SOL    HW2 7701   5.327   4.864   1.959  2.3945  1.6822  0.0021
 2268SOL     OW 7702   0.683   4.900   3.582 -0.2839  0.0971 -0.5255
 2268SOL    HW1 7703   0.683   4.993   3.547 -1.1065 -0.3345 -1.7616
 2268SOL    HW2 7704   0.656   4.900   3.678 -0.5301  1.1085 -0.5881
 2269SOL     OW 7705   1.476   2.916   5.977 -0.2031  0.0362 -0.2129
 2269SOL    HW1 7706   1.496   2.841   6.040 -0.7435 -1.9826 -2.3209
 2269SOL    HW2 7707   1.507   2.892   5.886 -1.5867  1.8432 -1.2313
 2270SOL     OW 7708   4.914   1.213   6.967  0.1631  0.5650  0.1112
 2270SOL    HW1 7709   4.946   1.269   6.890 -2.7483  0.8239 -1.0366
 2270SOL    HW2 7710   4.861   1.270   7.030  0.6367 -0.1106  1.1529
 2271SOL     OW 7711   3.679   6.540   4.699  0.5785  0.8286  0.4904
 2271SOL    HW1 7712   3.747   6.551   4.626  0.6688  2.6027  0.7935
 2271SOL    HW2 7713   3.706   6.464   4.758  0.6630 -0.4535 -1.1101
 2272SOL     OW 7714   3.702   0.835   0.885  0.3714 -0.7945  0.8040
 2272SOL    HW1 7715   3.626   0.798   0.831  1.3272 -1.7776  0.0860
 2272SOL    HW2 7716   3.674   0.921   0.927 -0.2875  0.2692 -1.6434
 2273SOL     OW 7717   2.685   2.413   4.348  0.0760  0.5779  0.5765
 2273SOL    HW1 7718   2.699   2.390   4.444 -0.7193 -0.7690  0.3953
 2273SOL    HW2 7719   2.591   2.445   4.334 -1.1325 -2.8810 -0.3062
 2274SOL     OW 7720   1.650   3.183   7.000  0.0489 -0.3434 -0.1950
 2274SOL    HW1 7721   1.711   3.230   7.064  0.3373 -1.4979  0.4026
 2274SOL    HW2 7722   1.636   3.240   6.919  0.3892  0.7579  0.4983
 2275SOL     OW 7723   6.494   3.104   2.735  0.2736 -0.2013  0.0995
 2275SOL    HW1 7724   6.554   3.028   2.707 -0.7184 -1.2446  0.7483
 2275SOL    HW2 7725   6.542   3.191   2.720  2.8334 -1.0420  2.5850
 2276SOL     OW 7726   1.811   0.621   0.807  0.5393  0.4461 -0.0494
 2276SOL    HW1 7727   1.796   0.545   0.871  1.8255 -0.5360 -0.8501
 2276SOL    HW2 7728   1.893   0.602   0.753  0.1285  1.8033 -1.1893
 2277SOL     OW 7729   2.891   3.681   3.044  0.6836 -0.4646  0.1599
 2277SOL    HW1 7730   2.909   3.696   3.141  2.2733  0.5076 -0.2329
 2277SOL    HW2 7731   2.793   3.683   3.027  0.4370  1.1064  1.5114
 2278SOL     OW 7732   0.784   1.264   3.338 -0.5877  0.5284 -0.2546
 2278SOL    HW1 7733   0.777   1.164   3.339  1.7764  0.2507  2.2271
 2278SOL    HW2 7734   0.817   1.294   3.249 -2.7058 -0.6977 -1.5385
 2279SOL     OW 7735   0.866   4.790   4.856  0.3912 -0.0568  0.5854
 2279SOL    HW1 7736   0.918   4.716   4.898  1.0768 -0.1070 -0.3137
 2279SOL    HW2 7737   0.926   4.845   4.797 -0.6990 -0.6005 -1.1297
 2280SOL     OW 7738   4.843   3.124   4.117  0.1267  0.0361 -0.4164
 2280SOL    HW1 7739   4.878   3.153   4.206  0.5779 -1.8298  0.0535
 2280SOL    HW2 7740   4.781   3.194   4.081  1.1153  1.5125  0.6435
 2281SOL     OW 7741   3.583   6.443   1.728  0.2326 -0.2421 -0.0340
 2281SOL    HW1 7742   3.484   6.436   1.715  0.1701  1.4005 -0.6751
 2281SOL    HW2 7743   3.603   6.491   1.813  0.4276  1.0477 -0.7857
 2282SOL     OW 7744   3.649   5.742   4.754  0.0813  0.2949  0.6534
 2282SOL    HW1 7745   3.551   5.753   4.734  0.0674 -1.2585 -0.3095
 2282SOL    HW2 7746   3.685   5.827   4.790 -1.5131  1.0660  0.5268
 2283SOL     OW 7747   5.393   1.783   5.641 -0.2978  0.2750  0.5482
 2283SOL    HW1 7748   5.477   1.781   5.695  1.8906  2.3610 -2.4169
 2283SOL    HW2 7749   5.395   1.710   5.572 -0.7062  0.5561  0.2327
 2284SOL     OW 7750   3.109   5.123   6.117  0.0834  0.3055 -0.7318
 2284SOL    HW1 7751   3.104   5.028   6.083 -0.0531  0.2193 -0.4722
 2284SOL    HW2 7752   3.044   5.179   6.066 -0.3536  0.1097 -0.4004
 2285SOL     OW 7753   0.497   5.029   0.468 -0.0438 -0.2995  0.0832
 2285SOL    HW1 7754   0.523   5.051   0.562  0.2524  0.2351 -0.1196
 2285SOL    HW2 7755   0.411   5.075   0.446  1.0752  1.5437 -0.6659
 2286SOL     OW 7756   4.358   4.829   3.284 -0.2945  0.8527  0.1963
 2286SOL    HW1 7757   4.334   4.822   3.381  0.9183  2.8585  0.6923
 2286SOL    HW2 7758   4.352   4.738   3.242 -0.2729 -0.1765  2.2800
 2287SOL     OW 7759   1.129   2.607   3.745 -0.5314  0.7028 -0.0258
 2287SOL    HW1 7760   1.201   2.653   3.796 -0.4048  0.2843  0.1814
 2287SOL    HW2 7761   1.152   2.605   3.647  1.2039 -1.9425  0.3226
 2288SOL     OW 7762   0.633   4.337   1.674 -0.0357  0.2439 -0.9230
 2288SOL    HW1 7763   0.562   4.393   1.715 -1.3414 -0.7965 -1.6736
 2288SOL    HW2 7764   0.632   4.246   1.714  1.1655  0.3201 -0.6588
 2289SOL     OW 7765   2.655   4.574   0.703 -0.4043 -0.2870 -0.2781
 2289SOL    HW1 7766   2.556   4.567   0.710 -0.4693 -1.4276 -1.7520
 2289SOL    HW2 7767   2.679   4.654   0.647 -0.3877  1.0245  1.5303
 2290SOL     OW 7768   1.806   5.163   0.191  0.2535  0.4802  0.2157
 2290SOL    HW1 7769   1.801   5.103   0.111 -0.1484 -0.3656  0.8527
 2290SOL    HW2 7770   1.727   5.224   0.192 -0.5863 -0.5881  0.7842
 2291SOL     OW 7771   2.563   1.401   0.345 -0.1610  0.3902 -0.7756
 2291SOL    HW1 7772   2.588   1.326   0.284  1.4319  0.5947 -0.4008
 2291SOL    HW2 7773   2.629   1.408   0.419 -1.3990  0.9150  0.3254
 2292SOL     OW 7774   2.255   0.422   3.657  0.2322  0.2219  0.6506
 2292SOL    HW1 7775   2.256   0.390   3.562  0.7954  0.1161  0.6925
 2292SOL    HW2 7776   2.284   0.518   3.660  1.0562 -0.0313  0.8122
 2293SOL     OW 7777   0.099   4.419   1.924 -0.6706  0.3205 -1.1597
 2293SOL    HW1 7778   0.075   4.362   1.845 -0.7388  0.5084 -1.2744
 2293SOL    HW2 7779   0.031   4.491   1.936 -0.2998  0.7097 -1.3444
 2294SOL     OW 7780   5.466   6.720   6.473  0.2557 -0.1181 -0.4445
 2294SOL    HW1 7781   5.488   6.769   6.557  0.7658  0.3889 -0.8665
 2294SOL    HW2 7782   5.547   6.670   6.441 -0.0421 -0.6118 -0.4328
 2295SOL     OW 7783   1.039   6.885   1.627 -0.2320 -0.3590 -0.4478
 2295SOL    HW1 7784   1.057   6.793   1.591  0.6040 -0.2841 -0.2368
 2295SOL    HW2 7785   1.069   6.953   1.560 -2.3938 -0.2134 -1.3534
 2296SOL     OW 7786   0.335   5.391   0.445  0.2118  0.1980  0.2212
 2296SOL    HW1 7787   0.363   5.404   0.350 -0.9472 -0.9699 -0.3083
 2296SOL    HW2 7788   0.281   5.470   0.474  2.7554  1.8304  0.8231
 2297SOL     OW 7789   3.704   5.986   0.421 -0.3477  0.1540  0.1515
 2297SOL    HW1 7790   3.765   5.907   0.429 -1.2417 -0.7786 -1.5633
 2297SOL    HW2 7791   3.613   5.954   0.393 -0.4102  1.8712 -1.8183
 2298SOL     OW 7792   4.026   3.059   0.803  0.6278  0.6501  0.4692
 2298SOL    HW1 7793   4.057   3.146   0.840  0.6467  1.0278 -0.4258
 2298SOL    HW2 7794   3.949   3.025   0.858 -0.7014  2.2207 -0.3494
 2299SOL     OW 7795   4.696   6.312   0.769 -1.0061  0.3347 -0.3290
 2299SOL    HW1 7796   4.675   6.215   0.760  0.6855 -0.1781  0.7340
 2299SOL    HW2 7797   4.636   6.365   0.709 -1.5865 -1.3962 -1.3463
 2300SOL     OW 7798   2.310   5.556   0.997  0.0280 -0.8863  0.2299
 2300SOL    HW1 7799   2.295   5.607   1.082 -1.4070 -0.5506 -0.1899
 2300SOL    HW2 7800   2.321   5.459   1.017 -0.5420 -0.8397  0.7944
 2301SOL     OW 7801   4.407   1.582   1.965 -0.2994  0.0414 -0.8699
 2301SOL    HW1 7802   4.468   1.503   1.966  0.6666  0.7760  0.2428
 2301SOL    HW2 7803   4.334   1.566   1.898  0.9919 -0.9380 -2.1071
 2302SOL     OW 7804   1.183   5.513   2.839 -0.5382  0.4087  0.3010
 2302SOL    HW1 7805   1.127   5.435   2.866 -1.6661  1.4593  1.1087
 2302SOL    HW2 7806   1.184   5.520   2.739 -0.9702 -0.2457  0.2496
 2303SOL     OW 7807   6.899   1.885   3.968 -0.5311 -0.1294 -0.7796
 2303SOL    HW1 7808   6.997   1.902   3.960 -0.3630  1.2283  2.6412
 2303SOL    HW2 7809   6.850   1.972   3.978 -1.4196 -0.8643  2.4908
 2304SOL     OW 7810   1.349   6.126   6.084 -0.0241  0.3939 -0.1123
 2304SOL    HW1 7811   1.447   6.112   6.101  0.0242 -0.3247 -0.8744
 2304SOL    HW2 7812   1.337   6.163   5.992 -0.5377 -1.1011 -0.6725
 2305SOL     OW 7813   6.501   6.243   1.865  0.1564  0.3871 -0.0231
 2305SOL    HW1 7814   6.569   6.169   1.866 -0.1782  0.0871  0.5492
 2305SOL    HW2 7815   6.459   6.252   1.955 -2.2947 -1.0444 -0.9294
 2306SOL     OW 7816   0.901   6.085   0.504 -0.0638  0.0574  0.4255
 2306SOL    HW1 7817   0.815   6.036   0.487  0.0128  0.1131 -0.1389
 2306SOL    HW2 7818   0.887   6.150   0.579 -1.0321  1.3616 -0.8439
 2307SOL     OW 7819   0.181   5.295   3.067  0.0196  0.8857  0.2733
 2307SOL    HW1 7820   0.165   5.393   3.059 -0.4499  0.8898  1.1857
 2307SOL    HW2 7821   0.131   5.246   2.996 -1.4543  1.1515  1.0983
 2308SOL     OW 7822   1.449   5.476   0.471  0.1575 -0.3795  0.6671
 2308SOL    HW1 7823   1.486   5.383   0.475  1.2139 -0.0163 -0.0585
 2308SOL    HW2 7824   1.522   5.541   0.493 -0.9709  0.2392  2.8705
 2309SOL     OW 7825   1.352   4.674   5.804  0.2176  0.4629 -0.1512
 2309SOL    HW1 7826   1.317   4.705   5.892 -1.3563 -0.0079 -0.5759
 2309SOL    HW2 7827   1.321   4.736   5.732 -0.4209 -0.3887 -0.6357
 2310SOL     OW 7828   4.902   0.634   3.294 -0.2403  0.8521 -0.2734
 2310SOL    HW1 7829   4.980   0.576   3.272 -0.8430 -0.1146  0.0564
 2310SOL    HW2 7830   4.912   0.669   3.387 -0.4270  0.3157 -0.0436
 2311SOL     OW 7831   2.849   2.018   4.565  0.1459 -0.3451 -0.0762
 2311SOL    HW1 7832   2.812   1.936   4.521 -1.0902 -0.5908  1.3439
 2311SOL    HW2 7833   2.781   2.091   4.561  1.0630  0.4970 -0.9193
 2312SOL     OW 7834   1.166   6.533   4.225 -0.0073 -0.2095  0.1314
 2312SOL    HW1 7835   1.170   6.441   4.187  1.1175  0.2422 -0.9229
 2312SOL    HW2 7836   1.187   6.529   4.323  1.4403 -0.9467 -0.1711
 2313SOL     OW 7837   4.760   5.902   0.953 -0.2640  0.1877 -0.0506
 2313SOL    HW1 7838   4.858   5.898   0.974 -0.5302 -0.3450  1.1649
 2313SOL    HW2 7839   4.746   5.875   0.858  0.6793 -0.8464  0.0741
 2314SOL     OW 7840   6.634   0.127   2.653  0.6083  0.7693  0.3868
 2314SOL    HW1 7841   6.633   0.070   2.735  0.6063 -1.2447 -0.9585
 2314SOL    HW2 7842   6.721   0.118   2.606  0.3103  1.2759 -0.2847
 2315SOL     OW 7843   5.520   5.577   4.011  0.5795  0.2826  0.9059
 2315SOL    HW1 7844   5.504   5.479   4.003 -1.9769  0.6770  0.2228
 2315SOL    HW2 7845   5.570   5.596   4.096  0.5016 -1.5384  1.3946
 2316SOL     OW 7846   4.406   1.045   0.814 -0.6089 -0.0216  0.3723
 2316SOL    HW1 7847   4.329   1.109   0.813  0.2827  1.0928  1.0791
 2316SOL    HW2 7848   4.372   0.953   0.797 -1.7391  0.7855 -2.2406
 2317SOL     OW 7849   6.781   6.170   1.038  0.1700 -0.1726  0.0535
 2317SOL    HW1 7850   6.783   6.270   1.032  0.8939 -0.0596  1.7045
 2317SOL    HW2 7851   6.874   6.136   1.050 -0.1766 -0.9689  0.5228
 2318SOL     OW 7852   1.405   3.560   2.822 -0.1632 -0.1731 -0.2004
 2318SOL    HW1 7853   1.341   3.516   2.885  0.2463 -1.1956 -0.4777
 2318SOL    HW2 7854   1.448   3.637   2.868 -1.6120  0.5642 -0.0264
 2319SOL     OW 7855   2.171   4.495   4.163  0.3918  0.4660  0.0242
 2319SOL    HW1 7856   2.247   4.430   4.172  1.2891  1.7419  2.5906
 2319SOL    HW2 7857   2.116   4.494   4.246 -1.6864  0.5499 -1.2586
 2320SOL     OW 7858   0.855   1.907   5.770 -0.0405 -0.1629 -0.6050
 2320SOL    HW1 7859   0.936   1.958   5.799  0.2715 -0.1975 -1.3898
 2320SOL    HW2 7860   0.852   1.819   5.817  1.0296 -0.6653 -1.4353
 2321SOL     OW 7861   2.542   4.965   5.040  0.2870  0.2531  0.1049
 2321SOL    HW1 7862   2.483   4.946   5.118 -0.4323  0.6562 -0.3311
 2321SOL    HW2 7863   2.537   4.888   4.975  0.9628 -0.1283  0.4899
 2322SOL     OW 7864   2.726   3.970   0.957  0.0754  0.5989 -0.5495
 2322SOL    HW1 7865   2.817   3.929   0.962 -0.0892  0.0088 -1.8168
 2322SOL    HW2 7866   2.734   4.063   0.919  0.3234  1.3483  1.2141
 2323SOL     OW 7867   1.471   5.552   4.510  0.1407  0.1850 -0.1922
 2323SOL    HW1 7868   1.524   5.532   4.428  2.4163 -1.0159  1.4689
 2323SOL    HW2 7869   1.463   5.651   4.521  2.3944  0.4366 -0.3540
 2324SOL     OW 7870   6.661   4.682   1.018  0.2157 -0.5112  0.1507
 2324SOL    HW1 7871   6.600   4.622   0.965 -1.6590 -0.5327  2.1608
 2324SOL    HW2 7872   6.661   4.773   0.978  0.2321 -0.9346 -0.8571
 2325SOL     OW 7873   4.895   5.677   2.049  0.3744 -0.3427  0.6884
 2325SOL    HW1 7874   4.876   5.628   1.964 -1.0338 -0.5803  1.1115
 2325SOL    HW2 7875   4.945   5.617   2.111  1.9802  0.0415 -0.1782
 2326SOL     OW 7876   2.728   4.476   0.208  0.6221  0.0357 -0.2056
 2326SOL    HW1 7877   2.705   4.385   0.174 -1.3081 -0.0650  1.2013
 2326SOL    HW2 7878   2.798   4.468   0.279 -0.8200 -0.6173  1.2132
 2327SOL     OW 7879   5.698   6.195   0.360 -0.1752  0.3665 -0.4064
 2327SOL    HW1 7880   5.742   6.242   0.436 -0.4431  0.9228 -0.5869
 2327SOL    HW2 7881   5.649   6.114   0.394 -0.4531  0.7190  0.0349
 2328SOL     OW 7882   0.371   2.672   2.437 -0.4168 -0.0415  0.4826
 2328SOL    HW1 7883   0.392   2.576   2.419  0.4256 -0.3560  2.8228
 2328SOL    HW2 7884   0.455   2.722   2.457 -0.9627  0.9340  0.4023
 2329SOL     OW 7885   2.341   4.363   3.275 -0.2438 -0.0631  0.5673
 2329SOL    HW1 7886   2.398   4.374   3.357 -0.5482  1.5958  0.5978
 2329SOL    HW2 7887   2.258   4.418   3.285 -0.2502  0.2202 -0.8795
 2330SOL     OW 7888   6.749   3.382   0.688 -0.0662  0.7022 -0.1350
 2330SOL    HW1 7889   6.758   3.481   0.696 -3.5100  1.2160 -0.9829
 2330SOL    HW2 7890   6.709   3.358   0.600 -0.9511 -1.2712  0.7208
 2331SOL     OW 7891   6.104   5.373   6.384 -0.0649  0.5927 -0.4288
 2331SOL    HW1 7892   6.005   5.367   6.396 -0.1735  1.7450 -0.6538
 2331SOL    HW2 7893   6.125   5.438   6.311  0.8985  1.3443  0.4943
 2332SOL     OW 7894   6.002   0.265   5.648  0.1105 -0.0565 -0.0733
 2332SOL    HW1 7895   5.950   0.197   5.700 -0.5092  0.8620  0.5266
 2332SOL    HW2 7896   6.088   0.284   5.695 -0.4031  0.6964  0.5815
 2333SOL     OW 7897   2.117   3.676   2.317  0.4778 -0.2210 -0.2859
 2333SOL    HW1 7898   2.131   3.577   2.322  0.3917 -0.2212 -0.0278
 2333SOL    HW2 7899   2.104   3.704   2.222 -2.1774 -0.8194 -0.1595
 2334SOL     OW 7900   1.947   0.044   0.458  0.1202  0.4229  0.2825
 2334SOL    HW1 7901   2.014  -0.014   0.504 -0.3936 -1.7680 -1.5182
 2334SOL    HW2 7902   1.860  -0.004   0.451 -0.5296  1.6661 -0.7510
 2335SOL     OW 7903   5.740   0.281   3.224 -0.1762 -0.6439 -0.5378
 2335SOL    HW1 7904   5.734   0.182   3.236 -0.1360 -0.7322 -1.2311
 2335SOL    HW2 7905   5.650   0.317   3.200 -0.0895 -0.5737 -0.7534
 2336SOL     OW 7906   1.757   3.111   3.900  0.9884  0.1657  0.6967
 2336SOL    HW1 7907   1.716   3.144   3.815  1.0115  1.1977  1.0758
 2336SOL    HW2 7908   1.788   3.016   3.888 -1.4843 -0.6804  0.3935
 2337SOL     OW 7909   5.006   2.368   2.891  0.5196  0.6787  0.1378
 2337SOL    HW1 7910   5.066   2.407   2.822 -0.1594  0.4612 -0.5893
 2337SOL    HW2 7911   5.028   2.271   2.905  1.0605  0.8785  0.6758
 2338SOL     OW 7912   5.795   2.401   2.052  0.6069 -0.3796  0.1838
 2338SOL    HW1 7913   5.736   2.425   1.975  0.8647 -0.4896 -0.0510
 2338SOL    HW2 7914   5.740   2.359   2.124  0.7163 -2.7623 -1.0227
 2339SOL     OW 7915   3.653   3.816   1.912 -0.7367 -0.2819 -0.1824
 2339SOL    HW1 7916   3.597   3.735   1.893  0.2618 -0.6864 -1.5662
 2339SOL    HW2 7917   3.647   3.879   1.834 -1.9564  1.2861  1.1033
 2340SOL     OW 7918   3.058   4.311   6.435  0.2197 -0.1452  0.1399
 2340SOL    HW1 7919   3.126   4.338   6.503  1.6862  0.7057 -1.5906
 2340SOL    HW2 7920   3.057   4.211   6.428  0.1902 -0.2354  1.2503
 2341SOL     OW 7921   1.472   4.480   4.594  0.1251  0.3222  0.4007
 2341SOL    HW1 7922   1.524   4.516   4.671 -0.9756  2.2759  0.3223
 2341SOL    HW2 7923   1.375   4.479   4.617 -0.1387  0.0902 -0.6391
 2342SOL     OW 7924   3.224   1.377   5.420 -0.1884  0.7079  0.1327
 2342SOL    HW1 7925   3.162   1.412   5.350 -0.7702 -0.2898  0.1267
 2342SOL    HW2 7926   3.313   1.356   5.378 -0.1995  1.0943 -0.0897
 2343SOL     OW 7927   6.356   1.706   0.227  0.3371 -0.7747 -0.4092
 2343SOL    HW1 7928   6.363   1.800   0.196 -0.9494 -0.5439 -0.0841
 2343SOL    HW2 7929   6.409   1.695   0.311 -1.6811  0.4324  1.1228
 2344SOL     OW 7930   0.536   3.433   5.283  0.2746  0.2326  0.5089
 2344SOL    HW1 7931   0.539   3.357   5.349  0.5907  1.7735  2.3690
 2344SOL    HW2 7932   0.599   3.505   5.313  0.2484  1.0901 -1.3995
 2345SOL     OW 7933   2.506   4.936   3.721 -0.4468 -0.3188 -0.2606
 2345SOL    HW1 7934   2.449   4.894   3.792 -0.9734 -2.3818 -1.8179
 2345SOL    HW2 7935   2.561   5.009   3.762 -0.5747 -1.5471  2.2975
 2346SOL     OW 7936   2.824   4.085   6.055 -0.7186 -0.5957 -0.1071
 2346SOL    HW1 7937   2.772   4.112   5.974  0.8385  1.2038 -0.5907
 2346SOL    HW2 7938   2.916   4.057   6.029 -0.3116 -0.3605  0.9997
 2347SOL     OW 7939   1.754   0.683   1.376  0.8170 -0.9212  0.1489
 2347SOL    HW1 7940   1.744   0.781   1.360  1.4719 -0.9125 -0.2162
 2347SOL    HW2 7941   1.808   0.642   1.303 -0.9787 -1.8881 -0.6975
 2348SOL     OW 7942   0.548   5.111   0.943  0.2336  0.5319  0.1278
 2348SOL    HW1 7943   0.574   5.127   0.848 -2.4847 -1.2157 -1.0453
 2348SOL    HW2 7944   0.579   5.187   0.999  1.1486  2.0735 -2.2913
 2349SOL     OW 7945   2.891   5.413   5.719 -0.1432 -0.3668  0.0685
 2349SOL    HW1 7946   2.858   5.321   5.696  0.0190 -0.7912  1.3994
 2349SOL    HW2 7947   2.849   5.480   5.658 -0.3485 -1.3128 -0.8525
 2350SOL     OW 7948   6.005   4.658   0.981  0.7528  0.2240  0.0474
 2350SOL    HW1 7949   5.938   4.606   0.928  0.6369  0.2427  0.1735
 2350SOL    HW2 7950   6.044   4.599   1.052  0.6040  0.3125  0.2057
 2351SOL     OW 7951   2.649   4.574   1.085  0.2967  0.0636  0.1699
 2351SOL    HW1 7952   2.623   4.666   1.055 -0.0691 -0.6870 -2.0201
 2351SOL    HW2 7953   2.745   4.558   1.061  0.5535  0.0817  1.1505
 2352SOL     OW 7954   0.121   4.248   2.501  0.5108 -0.4344 -0.0483
 2352SOL    HW1 7955   0.022   4.240   2.508  0.5310 -1.1737 -0.4325
 2352SOL    HW2 7956   0.151   4.336   2.538 -0.2419 -0.3812  0.4415
 2353SOL     OW 7957   3.828   1.675   4.366  0.1319  0.2212 -0.0242
 2353SOL    HW1 7958   3.754   1.741   4.377  0.5108  0.3568  2.0789
 2353SOL    HW2 7959   3.824   1.607   4.440  0.8744 -1.0075 -1.0630
 2354SOL     OW 7960   2.134   2.652   3.838 -0.1425 -0.0514  0.0568
 2354SOL    HW1 7961   2.190   2.720   3.791 -0.3337  0.4748  0.5800
 2354SOL    HW2 7962   2.185   2.613   3.914 -0.2913  0.0365  0.2022
 2355SOL     OW 7963   3.865   5.248   3.626  0.1946 -0.0501  0.1376
 2355SOL    HW1 7964   3.841   5.338   3.590 -1.7331 -1.5922 -2.8715
 2355SOL    HW2 7965   3.782   5.199   3.652  1.2345 -0.8745  2.0743
 2356SOL     OW 7966   0.292   1.971   1.088 -0.2454 -0.3604  0.4495
 2356SOL    HW1 7967   0.298   1.889   1.031  1.1900 -0.2415  0.3896
 2356SOL    HW2 7968   0.373   2.028   1.073 -0.7071  0.5492  1.2903
 2357SOL     OW 7969   1.757   0.974   4.799  0.1483  0.1768 -0.1278
 2357SOL    HW1 7970   1.657   0.975   4.803  0.1314  2.6514  0.8802
 2357SOL    HW2 7971   1.794   0.993   4.891  1.4348  1.9395 -0.9379
 2358SOL     OW 7972   4.160   6.601   6.415 -0.9685 -0.0655 -0.8199
 2358SOL    HW1 7973   4.215   6.685   6.406 -0.2106 -0.6514 -1.7442
 2358SOL    HW2 7974   4.155   6.576   6.512  2.1899 -1.1454 -0.8305
 2359SOL     OW 7975   1.242   1.835   5.663 -0.0245 -0.0123  0.3189
 2359SOL    HW1 7976   1.164   1.776   5.684 -0.9099  1.4559  1.3585
 2359SOL    HW2 7977   1.218   1.929   5.684  1.3904  0.7308 -1.2012
 2360SOL     OW 7978   1.761   3.303   0.224  0.0998 -0.1295  0.8220
 2360SOL    HW1 7979   1.755   3.401   0.243 -2.0228 -0.4852  2.3310
 2360SOL    HW2 7980   1.798   3.256   0.305 -2.4175 -0.9316  1.5838
 2361SOL     OW 7981   2.608   5.380   6.762 -0.1962  0.4260 -0.4212
 2361SOL    HW1 7982   2.672   5.311   6.794 -3.1918 -2.2835  0.1977
 2361SOL    HW2 7983   2.519   5.366   6.806 -1.8068  2.7718 -2.6443
 2362SOL     OW 7984   3.820   5.619   3.202  0.1557 -0.6172  0.1805
 2362SOL    HW1 7985   3.770   5.629   3.116  0.9073 -4.6455 -0.9709
 2362SOL    HW2 7986   3.757   5.596   3.276 -0.2734  0.6928  0.2366
 2363SOL     OW 7987   3.533   0.743   3.059  0.4689 -0.1572  0.3150
 2363SOL    HW1 7988   3.510   0.688   3.139 -0.1643 -2.4851 -1.3623
 2363SOL    HW2 7989   3.632   0.738   3.042  0.4905 -0.3316  0.4951
 2364SOL     OW 7990   0.491   3.106   1.653 -0.3555  0.0162  0.0433
 2364SOL    HW1 7991   0.554   3.056   1.713  0.2699  0.8725  0.1160
 2364SOL    HW2 7992   0.408   3.128   1.703 -0.9313 -1.5107 -0.1828
 2365SOL     OW 7993   4.763   2.603   1.003  0.0943  0.6672  0.4611
 2365SOL    HW1 7994   4.805   2.561   0.923  2.3990 -0.0936  1.9695
 2365SOL    HW2 7995   4.780   2.702   1.001  1.6292  0.4394  0.7897
 2366SOL     OW 7996   4.839   5.324   0.676  0.0796  0.1113 -0.9590
 2366SOL    HW1 7997   4.862   5.351   0.582 -0.3042  0.0649 -1.0661
 2366SOL    HW2 7998   4.791   5.237   0.674 -1.1868  0.7805 -0.8353
 2367SOL     OW 7999   2.717   2.162   0.150  0.1826 -0.5647  0.1720
 2367SOL    HW1 8000   2.793   2.206   0.199  0.0384 -0.7713  0.5930
 2367SOL    HW2 8001   2.741   2.150   0.054  1.0610 -1.4819  0.4912
 2368SOL     OW 8002   4.835   0.321   3.333  0.2380  0.5710 -0.3629
 2368SOL    HW1 8003   4.934   0.334   3.325  0.4690 -0.1543  1.1043
 2368SOL    HW2 8004   4.807   0.333   3.428 -0.8304 -0.9182 -0.4654
 2369SOL     OW 8005   2.064   1.927   4.135 -0.5404  0.5852  0.2897
 2369SOL    HW1 8006   2.068   1.922   4.235 -1.8533 -2.8967  0.3011
 2369SOL    HW2 8007   2.156   1.939   4.098  0.9633 -3.9888  1.9015
 2370SOL     OW 8008   5.628   3.825   4.547  0.3442  0.1602  0.1078
 2370SOL    HW1 8009   5.554   3.872   4.499 -0.1240 -1.6027 -1.0219
 2370SOL    HW2 8010   5.597   3.734   4.575  2.3153 -1.0283 -1.2754
 2371SOL     OW 8011   2.323   5.737   1.854 -0.0080  0.3382  0.8039
 2371SOL    HW1 8012   2.247   5.749   1.917  0.3392  1.9975  0.9555
 2371SOL    HW2 8013   2.289   5.735   1.760 -0.4226 -1.1018  0.9586
 2372SOL     OW 8014   5.586   2.112   3.243 -0.0859  0.2021 -0.1711
 2372SOL    HW1 8015   5.683   2.117   3.265  0.1964  3.5605 -1.5870
 2372SOL    HW2 8016   5.573   2.063   3.156  0.1013 -1.5634  0.7444
 2373SOL     OW 8017   2.384   3.072   5.633 -0.0931  0.0481 -0.1641
 2373SOL    HW1 8018   2.466   3.030   5.592  1.1249  3.0289 -1.0470
 2373SOL    HW2 8019   2.303   3.038   5.587  1.0998  1.8004 -3.9528
 2374SOL     OW 8020   6.569   2.212   6.553  0.3459  0.4527  0.8969
 2374SOL    HW1 8021   6.499   2.215   6.482  0.7309 -0.9914  0.4392
 2374SOL    HW2 8022   6.529   2.243   6.640 -0.9269 -0.5486  0.6977
 2375SOL     OW 8023   0.631   4.560   5.582  0.3168  0.1143  0.1150
 2375SOL    HW1 8024   0.625   4.504   5.499  0.1419 -0.0356  0.2292
 2375SOL    HW2 8025   0.586   4.513   5.658  1.3816 -0.2198  0.5548
 2376SOL     OW 8026   1.310   2.440   2.361 -0.2818 -0.3074 -0.7915
 2376SOL    HW1 8027   1.247   2.365   2.341  1.1535 -1.5828 -0.6838
 2376SOL    HW2 8028   1.404   2.407   2.359  0.2957  0.8748  1.9771
 2377SOL     OW 8029   4.097   3.528   4.201  0.2773 -0.1240 -0.4326
 2377SOL    HW1 8030   4.077   3.468   4.279  0.9043  0.9480  0.5936
 2377SOL    HW2 8031   4.119   3.473   4.121  0.0691 -1.2536  0.2643
 2378SOL     OW 8032   5.972   2.273   2.254  0.0169  0.2138  0.6534
 2378SOL    HW1 8033   5.975   2.290   2.156  3.0148 -4.0813 -0.2977
 2378SOL    HW2 8034   5.881   2.241   2.280 -0.0744 -1.5135 -1.4999
 2379SOL     OW 8035   6.242   0.669   0.329  0.2334  0.1851 -0.4372
 2379SOL    HW1 8036   6.298   0.631   0.403  2.1564  1.7213 -1.0208
 2379SOL    HW2 8037   6.165   0.719   0.369 -0.5058 -1.5581  0.4009
 2380SOL     OW 8038   6.213   0.049   2.784  0.0017 -0.0693 -0.2704
 2380SOL    HW1 8039   6.198  -0.018   2.711 -0.2519  0.1024 -0.3791
 2380SOL    HW2 8040   6.158   0.024   2.864 -0.3827  0.2112 -0.4434
 2381SOL     OW 8041   2.302   5.763   2.231  0.4904  0.4673  0.0524
 2381SOL    HW1 8042   2.257   5.756   2.321  0.4727  2.2976  0.2108
 2381SOL    HW2 8043   2.324   5.858   2.212 -1.4172  0.4507 -2.8308
 2382SOL     OW 8044   1.812   2.404   0.569  0.5462 -0.3530 -0.0095
 2382SOL    HW1 8045   1.758   2.321   0.552  0.2758 -0.6726  2.0686
 2382SOL    HW2 8046   1.788   2.474   0.502 -0.0093 -1.5878 -1.1481
 2383SOL     OW 8047   6.715   0.503   6.058 -0.1249  0.3416 -0.6214
 2383SOL    HW1 8048   6.626   0.458   6.061  0.5196 -0.9758 -0.5516
 2383SOL    HW2 8049   6.781   0.450   6.112  0.4110  1.9717  0.3984
 2384SOL     OW 8050   4.441   2.797   0.712  0.3027  0.1718  0.2688
 2384SOL    HW1 8051   4.465   2.700   0.703 -0.3325  0.0632 -0.3771
 2384SOL    HW2 8052   4.344   2.805   0.734 -0.3321  0.6793 -2.3374
 2385SOL     OW 8053   3.745   3.048   6.034 -0.2556  0.0409 -0.0573
 2385SOL    HW1 8054   3.797   3.122   5.992  1.9526 -2.3663 -1.8768
 2385SOL    HW2 8055   3.682   3.009   5.967 -1.5923  0.3618  0.9643
 2386SOL     OW 8056   5.159   4.098   1.791 -0.0208  0.5385  0.0815
 2386SOL    HW1 8057   5.098   4.060   1.861  1.5768 -1.0526  0.6829
 2386SOL    HW2 8058   5.126   4.071   1.701 -1.8112  2.1785  0.1580
 2387SOL     OW 8059   0.656   1.245   2.934 -0.0775 -0.0391  0.1964
 2387SOL    HW1 8060   0.569   1.291   2.952  0.4366  0.8070  0.5637
 2387SOL    HW2 8061   0.721   1.311   2.897  0.1383 -0.8627 -0.9420
 2388SOL     OW 8062   4.967   1.781   1.336 -0.5381 -0.3525  0.5140
 2388SOL    HW1 8063   4.902   1.711   1.366 -0.1686 -1.1851 -0.5606
 2388SOL    HW2 8064   5.027   1.805   1.411  0.2807 -2.2866  0.5547
 2389SOL     OW 8065   2.926   4.878   2.852  0.3171 -0.0234  0.3397
 2389SOL    HW1 8066   2.876   4.809   2.904  1.2369 -0.9283  0.0523
 2389SOL    HW2 8067   2.926   4.854   2.755 -0.8277  1.3085 -0.0270
 2390SOL     OW 8068   3.384   4.126   0.959  0.1218 -0.1076 -0.1483
 2390SOL    HW1 8069   3.327   4.053   0.998 -0.4930  1.1156  1.3809
 2390SOL    HW2 8070   3.396   4.198   1.027  0.1719  1.5231 -1.7982
 2391SOL     OW 8071   3.663   5.640   4.265  0.2946  0.3895 -0.1022
 2391SOL    HW1 8072   3.585   5.620   4.325 -0.4894  0.9149 -0.9157
 2391SOL    HW2 8073   3.738   5.677   4.319 -0.9681  2.3972  0.4051
 2392SOL     OW 8074   5.525   0.202   0.965 -0.1742 -0.0916  0.2035
 2392SOL    HW1 8075   5.477   0.129   1.013 -0.5018  0.9311  1.4709
 2392SOL    HW2 8076   5.621   0.203   0.993  0.0012 -0.4802 -0.3629
 2393SOL     OW 8077   1.940   3.929   5.179  0.7401 -0.5303 -0.4747
 2393SOL    HW1 8078   2.023   3.960   5.226  1.2806 -0.9236 -1.1658
 2393SOL    HW2 8079   1.924   3.833   5.200 -1.2240  0.2189  2.0933
 2394SOL     OW 8080   0.925   4.550   0.249 -0.6591 -0.1494 -0.7293
 2394SOL    HW1 8081   0.963   4.463   0.281  0.2952  0.5244  0.0455
 2394SOL    HW2 8082   0.826   4.540   0.236 -0.5534 -1.3739 -0.7753
 2395SOL     OW 8083   3.432   6.482   7.015  0.5332  0.0136 -0.3407
 2395SOL    HW1 8084   3.395   6.408   6.959  0.0736  0.5650 -0.7793
 2395SOL    HW2 8085   3.400   6.473   7.109 -0.1151  0.0579 -0.5505
 2396SOL     OW 8086   2.081   6.324   1.061  0.0737 -0.0636  0.4159
 2396SOL    HW1 8087   2.020   6.292   1.134 -0.4594 -1.6290 -0.6600
 2396SOL    HW2 8088   2.033   6.393   1.007 -0.3566 -0.4629  0.2695
 2397SOL     OW 8089   1.827   4.125   3.349 -0.5818 -0.4086 -0.2373
 2397SOL    HW1 8090   1.870   4.118   3.439 -1.6576 -0.9943  0.2535
 2397SOL    HW2 8091   1.897   4.139   3.279  0.3443 -0.7707  0.5981
 2398SOL     OW 8092   6.178   3.941   5.027  0.6482 -0.2210 -0.1331
 2398SOL    HW1 8093   6.232   3.866   4.988  3.2617  2.9569 -3.3133
 2398SOL    HW2 8094   6.100   3.961   4.967 -0.3035 -0.6042  0.9410
 2399SOL     OW 8095   4.731   3.944   0.586  0.3616 -0.2970  0.4637
 2399SOL    HW1 8096   4.709   4.029   0.634 -1.3649 -0.2654 -0.3194
 2399SOL    HW2 8097   4.734   3.961   0.488  3.9831 -0.3365  0.4291
 2400SOL     OW 8098   1.425   3.670   0.162 -0.1437 -0.3453  0.1776
 2400SOL    HW1 8099   1.436   3.766   0.136 -0.5712  0.5844  3.0118
 2400SOL    HW2 8100   1.469   3.612   0.095  3.0000  2.0073 -0.0393
 2401SOL     OW 8101   6.843   5.733   6.910 -0.2071  0.3429 -1.1271
 2401SOL    HW1 8102   6.781   5.660   6.938 -0.5025  0.1467 -2.2428
 2401SOL    HW2 8103   6.878   5.780   6.991 -0.9350 -0.2673 -0.4417
 2402SOL     OW 8104   0.342   5.977   5.001 -0.1041  0.1333 -0.2901
 2402SOL    HW1 8105   0.311   5.953   5.093  0.2047 -0.0453 -0.2297
 2402SOL    HW2 8106   0.290   6.055   4.967 -1.0539 -0.5532 -0.4381
 2403SOL     OW 8107   0.017   1.230   5.565  0.1851  0.0587 -0.1243
 2403SOL    HW1 8108  -0.012   1.213   5.471  2.0173 -0.0989 -0.7028
 2403SOL    HW2 8109  -0.001   1.325   5.588  1.0664  0.5016 -1.1714
 2404SOL     OW 8110   0.266   1.437   0.525 -0.3687  0.1174  0.0073
 2404SOL    HW1 8111   0.343   1.442   0.588  0.8332 -2.2218 -1.1419
 2404SOL    HW2 8112   0.288   1.490   0.443  0.6444 -1.5760 -0.8632
 2405SOL     OW 8113   2.430   4.154   1.061 -0.0989 -0.6248  0.1236
 2405SOL    HW1 8114   2.452   4.072   1.114  0.4847  0.8293  2.2636
 2405SOL    HW2 8115   2.514   4.190   1.021 -0.1923 -0.5104  0.0340
 2406SOL     OW 8116   5.630   1.261   1.813  0.3864 -0.3222 -0.0266
 2406SOL    HW1 8117   5.555   1.260   1.879  1.2928 -1.8814  1.0285
 2406SOL    HW2 8118   5.593   1.245   1.721 -0.6105 -0.5744  0.4097
 2407SOL     OW 8119   4.562   0.389   4.255 -0.4354  0.1975 -0.0813
 2407SOL    HW1 8120   4.496   0.322   4.221  1.3742 -2.1871  0.7626
 2407SOL    HW2 8121   4.633   0.403   4.186  0.6280 -0.9196  0.7229
 2408SOL     OW 8122   4.782   4.198   2.032  0.4223 -0.7740  0.2785
 2408SOL    HW1 8123   4.797   4.219   2.129  0.7417 -1.1215  0.3063
 2408SOL    HW2 8124   4.687   4.218   2.008 -0.2380 -2.5723  1.1730
 2409SOL     OW 8125   2.335   4.910   6.474  0.2296  0.2405  0.4235
 2409SOL    HW1 8126   2.300   4.911   6.568  0.0418 -0.4620  0.3645
 2409SOL    HW2 8127   2.435   4.911   6.475  0.2595 -1.0569  0.6726
 2410SOL     OW 8128   2.895   3.436   4.502 -0.0575 -0.2196 -0.3217
 2410SOL    HW1 8129   2.911   3.422   4.404  0.0079 -1.3406 -0.1638
 2410SOL    HW2 8130   2.797   3.428   4.521  0.1169 -2.0196 -0.0198
 2411SOL     OW 8131   4.038   0.987   4.187  0.1426 -0.6467 -0.3720
 2411SOL    HW1 8132   3.978   1.066   4.205  2.6021  1.1557  0.5648
 2411SOL    HW2 8133   4.067   0.948   4.274  2.7404  0.5504 -0.6049
 2412SOL     OW 8134   5.521   2.359   6.944  0.0474  0.3370 -0.1322
 2412SOL    HW1 8135   5.429   2.383   6.974 -0.1580 -1.0780  0.4465
 2412SOL    HW2 8136   5.516   2.292   6.871  0.6062 -0.8857  0.9095
 2413SOL     OW 8137   3.258   0.845   4.327 -0.0196 -0.0259  0.2766
 2413SOL    HW1 8138   3.355   0.861   4.343  0.7930 -0.3589 -3.4784
 2413SOL    HW2 8139   3.220   0.919   4.272 -1.1438 -1.2515 -0.6679
 2414SOL     OW 8140   4.245   2.942   5.626  0.1369  0.4283  0.1671
 2414SOL    HW1 8141   4.184   2.873   5.587  1.5288  0.1927 -1.7849
 2414SOL    HW2 8142   4.222   3.031   5.588 -0.8588  0.8623  1.7260
 2415SOL     OW 8143   2.112   0.640   3.380 -0.4540 -0.2151 -0.1389
 2415SOL    HW1 8144   2.027   0.672   3.420 -0.5351 -1.5771  0.8157
 2415SOL    HW2 8145   2.187   0.702   3.407 -0.4659 -1.1988  2.3414
 2416SOL     OW 8146   6.056   2.098   4.709 -0.3795 -0.1184 -0.5783
 2416SOL    HW1 8147   5.978   2.153   4.739  2.0392  2.9938  0.5013
 2416SOL    HW2 8148   6.093   2.135   4.624  0.7371 -0.7030 -0.3745
 2417SOL     OW 8149   4.046   3.211   6.165  0.0033 -0.2062 -0.2010
 2417SOL    HW1 8150   4.003   3.235   6.078 -3.3221 -0.4687  1.2174
 2417SOL    HW2 8151   4.034   3.114   6.182  0.8697 -0.2104  0.4398
 2418SOL     OW 8152   4.382   3.517   1.717  0.9278  0.0034  0.4949
 2418SOL    HW1 8153   4.410   3.432   1.672 -0.0770  0.9634 -2.1733
 2418SOL    HW2 8154   4.321   3.496   1.794  0.4118 -1.7040 -0.3278
 2419SOL     OW 8155   6.127   0.903   4.555  0.0965  0.4574 -0.3430
 2419SOL    HW1 8156   6.177   0.965   4.615 -0.1531  0.3391 -0.0120
 2419SOL    HW2 8157   6.156   0.808   4.572 -1.7305  0.1446  1.3627
 2420SOL     OW 8158   3.254   6.335   2.682  0.4343  0.4452  0.2342
 2420SOL    HW1 8159   3.257   6.433   2.705  0.2959  0.6123 -0.4356
 2420SOL    HW2 8160   3.237   6.325   2.584 -0.4524 -0.2649  0.4478
 2421SOL     OW 8161   4.608   2.321   1.673  0.4331  0.3667 -0.2697
 2421SOL    HW1 8162   4.598   2.359   1.581  1.1638 -1.6099 -1.2098
 2421SOL    HW2 8163   4.675   2.247   1.672  0.2940  0.1410  1.8248
 2422SOL     OW 8164   4.560   3.050   0.736 -0.0349 -0.5312 -0.4852
 2422SOL    HW1 8165   4.569   3.074   0.639 -1.3441  1.6665 -0.1585
 2422SOL    HW2 8166   4.531   2.955   0.744  2.3316 -1.4793 -2.1058
 2423SOL     OW 8167   1.774   5.985   1.086  0.1960  0.0606 -0.4796
 2423SOL    HW1 8168   1.773   5.906   1.148 -1.4841 -0.8285 -1.5729
 2423SOL    HW2 8169   1.720   6.059   1.125  0.4910  0.1000 -0.1466
 2424SOL     OW 8170   0.466   1.327   0.213  0.1304 -0.6079 -0.0265
 2424SOL    HW1 8171   0.458   1.389   0.291  0.4965  0.2595 -0.6673
 2424SOL    HW2 8172   0.493   1.236   0.246  0.3224 -0.2469  0.8517
 2425SOL     OW 8173   6.688   0.696   4.387 -0.5002 -0.0345 -0.1981
 2425SOL    HW1 8174   6.674   0.760   4.311  1.7064  1.1084  0.2767
 2425SOL    HW2 8175   6.717   0.608   4.350 -1.0777 -0.0043 -0.7509
 2426SOL     OW 8176   2.262   5.907   3.233 -0.2291 -0.2138 -0.0224
 2426SOL    HW1 8177   2.268   5.831   3.299 -1.2183  0.0173  0.3469
 2426SOL    HW2 8178   2.251   5.993   3.282 -0.3015  0.0420 -0.4818
 2427SOL     OW 8179   4.675   0.527   5.631 -0.1594  0.3590  0.2046
 2427SOL    HW1 8180   4.628   0.542   5.544  0.2413 -1.4632 -0.3541
 2427SOL    HW2 8181   4.639   0.445   5.675 -0.9512  1.6846  2.2173
 2428SOL     OW 8182   4.398   1.229   2.242  0.6376 -0.1807  0.1935
 2428SOL    HW1 8183   4.307   1.195   2.216 -0.1222  1.2553  0.8519
 2428SOL    HW2 8184   4.461   1.152   2.251  0.0342 -1.0795 -2.2489
 2429SOL     OW 8185   5.437   4.137   4.878  0.3427 -0.3811  0.1967
 2429SOL    HW1 8186   5.518   4.097   4.920  1.5175 -0.8086 -2.3143
 2429SOL    HW2 8187   5.359   4.129   4.940  1.9807 -0.8068  2.2897
 2430SOL     OW 8188   3.905   5.723   0.635  0.6547  0.2104 -0.1122
 2430SOL    HW1 8189   3.975   5.789   0.609 -0.2030  0.5724 -1.5873
 2430SOL    HW2 8190   3.946   5.654   0.696  1.9684  1.1092  0.0656
 2431SOL     OW 8191   2.678   6.537   0.159  0.1402  0.0513 -0.3360
 2431SOL    HW1 8192   2.681   6.596   0.240 -3.7738  0.1303 -0.0767
 2431SOL    HW2 8193   2.657   6.444   0.187 -0.9309  0.0194 -1.1778
 2432SOL     OW 8194   3.848   6.207   2.574  0.8037 -0.4487 -0.1721
 2432SOL    HW1 8195   3.826   6.151   2.494  2.2929  0.1992 -1.0823
 2432SOL    HW2 8196   3.864   6.301   2.545 -0.6048  0.2600  1.1954
 2433SOL     OW 8197   5.183   0.711   6.766  0.6627 -0.2131  0.2405
 2433SOL    HW1 8198   5.251   0.722   6.694  0.4422  2.5899  0.3217
 2433SOL    HW2 8199   5.215   0.759   6.848 -1.1857  0.8641  0.3943
 2434SOL     OW 8200   3.296   2.890   6.519  0.3498  0.2412  0.6015
 2434SOL    HW1 8201   3.363   2.856   6.454  0.4673  1.1799  0.2199
 2434SOL    HW2 8202   3.248   2.813   6.560 -0.6748 -0.3541 -1.5799
 2435SOL     OW 8203   5.881   5.454   6.886 -0.2602  0.0752  0.4697
 2435SOL    HW1 8204   5.794   5.501   6.901  0.2543  1.3563 -0.3467
 2435SOL    HW2 8205   5.937   5.508   6.823  0.3946 -1.6333 -0.4716
 2436SOL     OW 8206   5.754   6.636   0.095  0.1953  0.4012 -0.1562
 2436SOL    HW1 8207   5.731   6.732   0.083  2.1422  1.3196  2.5037
 2436SOL    HW2 8208   5.846   6.620   0.058  0.6056  0.0321  0.9827
 2437SOL     OW 8209   0.268   0.977   5.035 -0.3275 -0.1063 -0.1167
 2437SOL    HW1 8210   0.199   0.908   5.014 -1.9218  0.9814  1.2866
 2437SOL    HW2 8211   0.273   0.990   5.134 -0.3003  1.9927 -0.3493
 2438SOL     OW 8212   5.114   3.198   6.778 -0.0733  0.3188  0.1760
 2438SOL    HW1 8213   5.072   3.270   6.725  0.0455  0.3036  0.0614
 2438SOL    HW2 8214   5.043   3.142   6.821 -0.3211 -1.6886 -2.5936
 2439SOL     OW 8215   0.860   4.396   4.788  0.4173 -0.3078 -0.2455
 2439SOL    HW1 8216   0.932   4.440   4.841  0.9687 -0.2899 -0.9954
 2439SOL    HW2 8217   0.859   4.433   4.696 -0.5679 -0.3018 -0.2421
 2440SOL     OW 8218   0.497   4.867   6.416 -0.2001 -0.0830  0.3463
 2440SOL    HW1 8219   0.503   4.923   6.499 -0.7853 -0.0657  0.3858
 2440SOL    HW2 8220   0.560   4.790   6.422  2.6051  1.9533 -0.8130
 2441SOL     OW 8221   6.783   2.072   2.445 -0.1523  0.5643  0.2304
 2441SOL    HW1 8222   6.722   2.087   2.523 -1.3490 -0.1447 -0.5540
 2441SOL    HW2 8223   6.740   2.106   2.362  1.9986  3.3172  0.1000
 2442SOL     OW 8224   5.065   2.103   2.761  0.3690  0.1477  0.0883
 2442SOL    HW1 8225   4.965   2.096   2.771  0.6592 -4.3757  3.0638
 2442SOL    HW2 8226   5.089   2.108   2.664 -2.6990  0.8195 -0.7395
 2443SOL     OW 8227   3.687   1.693   6.400 -0.1173  0.1235 -0.5786
 2443SOL    HW1 8228   3.682   1.629   6.477  0.1568  0.6249 -0.1350
 2443SOL    HW2 8229   3.697   1.786   6.435 -1.9752  0.5781 -1.1907
 2444SOL     OW 8230   5.050   0.377   1.173  0.1158  0.0211 -0.0510
 2444SOL    HW1 8231   5.124   0.443   1.169  1.8771 -1.8809 -3.6329
 2444SOL    HW2 8232   4.969   0.415   1.128 -0.4409  1.2202  1.8123
 2445SOL     OW 8233   0.655   0.129   2.656  0.5420  0.3499 -0.2712
 2445SOL    HW1 8234   0.564   0.121   2.615  0.5983 -1.0560 -0.1717
 2445SOL    HW2 8235   0.700   0.040   2.655  0.1150 -0.1323  3.8014
 2446SOL     OW 8236   3.633   3.903   6.204 -0.4026  0.4638  0.1018
 2446SOL    HW1 8237   3.587   3.937   6.122 -2.8808 -1.0800  0.7411
 2446SOL    HW2 8238   3.671   3.812   6.186  3.9039  2.2019 -0.8306
 2447SOL     OW 8239   0.927   4.463   4.495 -0.1068 -0.3722  0.0924
 2447SOL    HW1 8240   0.954   4.546   4.446  0.7852  0.6928  2.2703
 2447SOL    HW2 8241   0.995   4.391   4.478  1.0820  0.4928  0.9740
 2448SOL     OW 8242   0.556   5.576   4.839  0.4813  0.6811  0.6807
 2448SOL    HW1 8243   0.649   5.613   4.836  0.4968  0.5690 -1.3225
 2448SOL    HW2 8244   0.550   5.508   4.912  2.1599  0.2002  0.4150
 2449SOL     OW 8245   6.021   3.286   5.528  0.2275 -0.3219  0.1226
 2449SOL    HW1 8246   6.088   3.293   5.454  1.0881  0.0487  0.9270
 2449SOL    HW2 8247   6.066   3.298   5.616 -0.7088 -1.1989  0.7516
 2450SOL     OW 8248   1.941   3.742   1.743 -0.8369  0.0722 -0.2516
 2450SOL    HW1 8249   2.016   3.675   1.748 -1.7741 -1.1114 -1.4349
 2450SOL    HW2 8250   1.950   3.807   1.819 -0.0581 -1.5624  1.1373
 2451SOL     OW 8251   2.490   6.096   6.103 -0.0402 -0.1851 -0.5736
 2451SOL    HW1 8252   2.393   6.075   6.109 -0.9050  2.4800 -3.1534
 2451SOL    HW2 8253   2.508   6.185   6.145  1.3474 -0.6901 -0.0281
 2452SOL     OW 8254   2.102   2.294   3.198  0.0440 -0.3325 -0.2778
 2452SOL    HW1 8255   2.032   2.365   3.194  0.8976  0.7156  1.8700
 2452SOL    HW2 8256   2.170   2.310   3.126  0.0890  0.8868  0.0167
 2453SOL     OW 8257   1.719   5.439   1.697  0.3467 -0.4107  0.0541
 2453SOL    HW1 8258   1.746   5.351   1.657  0.7385 -0.7474  1.0344
 2453SOL    HW2 8259   1.757   5.447   1.789 -0.4664  0.3829  0.3379
 2454SOL     OW 8260   0.358   6.942   2.787  0.3004 -0.1110  0.1938
 2454SOL    HW1 8261   0.392   6.878   2.718  0.6805 -0.5676  0.7841
 2454SOL    HW2 8262   0.430   6.958   2.855  0.2991  1.1541 -0.0807
 2455SOL     OW 8263   5.611   5.298   1.205 -0.8334 -0.2298 -0.5439
 2455SOL    HW1 8264   5.538   5.357   1.170 -1.9532 -0.0477  1.8546
 2455SOL    HW2 8265   5.646   5.336   1.291  0.7650 -1.3353 -0.6597
 2456SOL     OW 8266   4.193   4.110   0.518 -0.2630  0.3834  0.2692
 2456SOL    HW1 8267   4.122   4.040   0.520 -0.3188  0.2416 -2.8210
 2456SOL    HW2 8268   4.230   4.122   0.611 -3.7513 -0.0174  1.8829
 2457SOL     OW 8269   4.349   4.936   5.829  0.1648 -0.5382 -0.4401
 2457SOL    HW1 8270   4.352   4.999   5.751  1.6295 -0.4282 -0.3231
 2457SOL    HW2 8271   4.404   4.972   5.904 -1.1434 -0.6968  0.6391
 2458SOL     OW 8272   1.225   5.929   1.077  0.0344 -0.3528  0.2800
 2458SOL    HW1 8273   1.317   5.928   1.115 -0.2355 -0.2316  0.9539
 2458SOL    HW2 8274   1.198   6.023   1.057  0.8782 -0.5418 -1.9997
 2459SOL     OW 8275   2.091   0.916   6.865  0.0082 -0.4398 -0.0987
 2459SOL    HW1 8276   2.009   0.870   6.900  0.6923 -0.6095  1.3754
 2459SOL    HW2 8277   2.072   0.953   6.774 -1.4206 -1.2322 -0.1591
 2460SOL     OW 8278   2.663   4.824   1.011  0.2291  0.2734  0.2237
 2460SOL    HW1 8279   2.750   4.846   0.968  0.4684 -0.4738  0.3092
 2460SOL    HW2 8280   2.591   4.820   0.942  0.4962 -0.3158 -0.0242
 2461SOL     OW 8281   6.006   1.740   4.590 -0.0509  0.5892  0.0703
 2461SOL    HW1 8282   6.089   1.784   4.555 -0.4106  1.6390  0.4927
 2461SOL    HW2 8283   5.978   1.785   4.674 -0.1579 -0.8023  0.8147
 2462SOL     OW 8284   4.830   5.432   0.419  0.1890 -0.2487 -0.4217
 2462SOL    HW1 8285   4.812   5.530   0.410 -2.3828 -0.5952  0.2658
 2462SOL    HW2 8286   4.827   5.389   0.329  0.3084  0.1214 -0.6090
 2463SOL     OW 8287   1.773   2.606   4.773 -0.4406 -0.4242  0.0381
 2463SOL    HW1 8288   1.845   2.584   4.839 -0.2997  1.6584  0.6218
 2463SOL    HW2 8289   1.742   2.521   4.729  1.7706 -1.4846  0.3618
 2464SOL     OW 8290   1.943   1.747   6.719 -0.1555 -0.0282 -0.1769
 2464SOL    HW1 8291   1.853   1.736   6.677 -0.4715  0.8676  0.2372
 2464SOL    HW2 8292   1.990   1.659   6.719 -0.6299 -0.3107 -1.2866
 2465SOL     OW 8293   5.234   2.264   3.310 -0.2670 -0.4818 -0.7270
 2465SOL    HW1 8294   5.315   2.318   3.288 -0.1268  0.5485  1.9810
 2465SOL    HW2 8295   5.157   2.325   3.331 -0.7174 -1.3472  0.2446
 2466SOL     OW 8296   5.091   2.756   2.712 -0.4222  0.0454  0.1900
 2466SOL    HW1 8297   5.013   2.795   2.664 -0.9045  1.5681  2.0406
 2466SOL    HW2 8298   5.059   2.701   2.789  0.3142 -2.7672 -1.3846
 2467SOL     OW 8299   2.256   1.834   5.506 -0.7226  0.6879 -0.1735
 2467SOL    HW1 8300   2.334   1.777   5.483 -0.7912  0.4393  0.2108
 2467SOL    HW2 8301   2.288   1.925   5.532 -0.4226  0.0686  1.7264
 2468SOL     OW 8302   6.168   6.416   0.757  0.5692 -0.3906  0.0173
 2468SOL    HW1 8303   6.125   6.326   0.757 -0.7798  0.2280  1.0577
 2468SOL    HW2 8304   6.217   6.429   0.843 -2.2193  1.1766  1.5045
 2469SOL     OW 8305   2.737   1.312   1.297 -0.8543 -0.1488  0.0583
 2469SOL    HW1 8306   2.740   1.245   1.223 -0.6025 -1.1782  0.9884
 2469SOL    HW2 8307   2.751   1.267   1.385  2.1768  1.4147  0.5365
 2470SOL     OW 8308   5.350   4.146   0.645 -0.0741  0.6781 -0.4964
 2470SOL    HW1 8309   5.419   4.074   0.644  0.1674  0.9005 -2.1911
 2470SOL    HW2 8310   5.386   4.226   0.694 -0.2733 -0.2432  1.2233
 2471SOL     OW 8311   6.245   0.545   3.367 -0.1793 -0.6599 -0.9568
 2471SOL    HW1 8312   6.190   0.464   3.384 -0.3588 -0.6794 -1.5980
 2471SOL    HW2 8313   6.201   0.625   3.407  0.4985 -1.0078  0.5638
 2472SOL     OW 8314   6.940   0.952   4.555 -0.6099  0.3296 -0.1616
 2472SOL    HW1 8315   6.914   0.934   4.459  1.2153  0.1747 -0.6548
 2472SOL    HW2 8316   6.943   0.865   4.605  1.0732  0.0455 -0.6888
 2473SOL     OW 8317   0.523   4.963   1.712 -0.2355  0.6938 -0.2304
 2473SOL    HW1 8318   0.436   4.921   1.686 -0.8821  1.3329  0.8587
 2473SOL    HW2 8319   0.557   5.017   1.635 -0.4187 -0.1390 -0.9195
 2474SOL     OW 8320   1.152   6.236   5.197  0.6164 -0.2172  0.3035
 2474SOL    HW1 8321   1.144   6.335   5.210  0.2567 -0.2088  0.0067
 2474SOL    HW2 8322   1.088   6.190   5.258 -2.1163 -0.1409 -2.2836
 2475SOL     OW 8323   2.791   2.652   6.779  0.5853 -0.0467  0.0047
 2475SOL    HW1 8324   2.712   2.637   6.839  0.8576  2.7484  1.2104
 2475SOL    HW2 8325   2.759   2.671   6.686 -0.2189  1.2174  0.5140
 2476SOL     OW 8326   4.718   0.438   4.026  0.0168 -0.2515 -0.0204
 2476SOL    HW1 8327   4.778   0.518   4.034  1.0363 -1.0354  0.4565
 2476SOL    HW2 8328   4.652   0.453   3.953  0.7753  0.6607 -0.5408
 2477SOL     OW 8329   4.939   4.177   0.782  0.1139 -0.1555  0.4338
 2477SOL    HW1 8330   4.937   4.208   0.878 -0.5079 -1.5420  0.8938
 2477SOL    HW2 8331   4.845   4.163   0.750  0.3693 -1.4848  0.2311
 2478SOL     OW 8332   0.251   6.903   1.957  0.1637  0.0665 -0.2332
 2478SOL    HW1 8333   0.330   6.891   1.897  0.2720  1.9638 -0.5309
 2478SOL    HW2 8334   0.247   6.826   2.022  0.7661 -1.3691 -1.8096
 2479SOL     OW 8335   1.297   2.723   0.642 -0.3743  0.0228 -0.1389
 2479SOL    HW1 8336   1.396   2.734   0.633 -0.2898 -0.8302 -0.2789
 2479SOL    HW2 8337   1.274   2.708   0.738 -0.3272 -0.1782 -0.1591
 2480SOL     OW 8338   0.027   4.070   0.721  0.7634  0.1218 -0.6820
 2480SOL    HW1 8339  -0.014   4.052   0.632  0.6145 -0.5805 -0.4773
 2480SOL    HW2 8340  -0.041   4.054   0.793  1.3577 -0.9915 -0.3435
 2481SOL     OW 8341   3.721   6.065   4.004 -0.7117  0.2946  0.7121
 2481SOL    HW1 8342   3.768   6.132   4.061  0.0328 -0.1291  0.6042
 2481SOL    HW2 8343   3.694   5.987   4.060 -0.8284  0.3003  0.6652
 2482SOL     OW 8344   3.920   0.751   3.895 -0.5946  0.1763 -0.7715
 2482SOL    HW1 8345   4.013   0.775   3.924 -0.1004 -0.9330 -1.3733
 2482SOL    HW2 8346   3.880   0.828   3.845  0.8333 -0.0894 -2.4180
 2483SOL     OW 8347   0.628   1.921   7.021  0.1261  0.7393 -0.0193
 2483SOL    HW1 8348   0.539   1.884   6.995  0.1122  0.6605  0.1350
 2483SOL    HW2 8349   0.648   2.003   6.968  0.1877  0.4724 -0.4099
 2484SOL     OW 8350   2.958   3.736   6.008 -0.1719  0.0039  0.4922
 2484SOL    HW1 8351   3.054   3.709   6.012 -0.1959 -0.0614  0.6322
 2484SOL    HW2 8352   2.939   3.777   5.919  0.8022  3.1546  1.6081
 2485SOL     OW 8353   0.610   4.635   5.913  0.7542 -0.0473 -0.0038
 2485SOL    HW1 8354   0.635   4.678   6.000 -0.2888  1.3633 -0.3593
 2485SOL    HW2 8355   0.691   4.596   5.870  1.4048 -0.1290  1.2566
 2486SOL     OW 8356   6.003   3.817   3.640  0.3493 -0.0437 -0.4755
 2486SOL    HW1 8357   5.945   3.795   3.719  1.0172  2.5923  0.8433
 2486SOL    HW2 8358   5.966   3.897   3.593  1.3704 -0.0401 -1.2910
 2487SOL     OW 8359   2.159   0.509   0.949 -0.2512 -0.7504 -0.3070
 2487SOL    HW1 8360   2.226   0.584   0.940  0.0503 -0.9044  0.5719
 2487SOL    HW2 8361   2.085   0.538   1.009 -0.5573 -0.8742 -0.6237
 2488SOL     OW 8362   3.510   0.443   0.243 -0.2128 -0.4371 -0.1539
 2488SOL    HW1 8363   3.427   0.495   0.263  0.2716  0.5964 -0.7449
 2488SOL    HW2 8364   3.490   0.345   0.246 -1.0356 -0.2434  1.4594
 2489SOL     OW 8365   6.656   4.658   4.256  0.1211  0.0212  0.5720
 2489SOL    HW1 8366   6.628   4.726   4.189  0.2824  0.2713  0.7540
 2489SOL    HW2 8367   6.575   4.612   4.293  0.0577 -0.4384 -0.1179
 2490SOL     OW 8368   5.721   3.186   0.475  0.0575 -0.0542  0.3786
 2490SOL    HW1 8369   5.634   3.185   0.426  0.5050  1.5073 -0.5167
 2490SOL    HW2 8370   5.704   3.182   0.574 -0.9453 -1.2815  0.1794
 2491SOL     OW 8371   6.522   2.420   2.006 -0.0395 -0.2881 -0.3608
 2491SOL    HW1 8372   6.545   2.367   1.924  2.0098  1.1945 -0.8396
 2491SOL    HW2 8373   6.557   2.513   1.996  0.2782 -0.0570  2.2144
 2492SOL     OW 8374   3.628   2.021   0.605  0.5456  0.2290  0.0019
 2492SOL    HW1 8375   3.711   1.970   0.583  0.2312 -0.5021  0.4408
 2492SOL    HW2 8376   3.642   2.118   0.589  1.1743  0.0105 -0.8490
 2493SOL     OW 8377   5.274   1.480   0.151  0.0833 -0.0436 -0.5121
 2493SOL    HW1 8378   5.202   1.519   0.209  0.1447 -0.5037 -0.1279
 2493SOL    HW2 8379   5.349   1.447   0.208  0.6082  0.4301 -0.9097
 2494SOL     OW 8380   5.723   6.011   6.859 -0.3630 -0.1411  0.0087
 2494SOL    HW1 8381   5.773   5.932   6.821  2.1384  0.5618  1.6134
 2494SOL    HW2 8382   5.739   6.016   6.957 -1.9036  1.4212  0.2216
 2495SOL     OW 8383   0.980   0.956   0.929 -0.1206  0.1763  0.0016
 2495SOL    HW1 8384   1.009   0.864   0.956  0.0003 -0.4720 -2.1246
 2495SOL    HW2 8385   0.882   0.966   0.945  0.1396  0.2880  1.7373
 2496SOL     OW 8386   2.136   4.291   0.069  0.0541  0.1181 -0.2267
 2496SOL    HW1 8387   2.222   4.292   0.017  0.5518 -1.6842  0.4987
 2496SOL    HW2 8388   2.119   4.383   0.106  0.9783  0.8220 -1.4468
 2497SOL     OW 8389   5.156   0.735   0.269  0.3847 -0.1565 -0.7993
 2497SOL    HW1 8390   5.185   0.822   0.230 -1.4794  0.3672 -1.1475
 2497SOL    HW2 8391   5.184   0.659   0.210  0.4995  0.3598 -1.4073
 2498SOL     OW 8392   0.682   2.212   5.241  0.2081 -0.9216 -0.0501
 2498SOL    HW1 8393   0.733   2.262   5.311  3.3506 -2.6628 -0.8999
 2498SOL    HW2 8394   0.603   2.168   5.283  0.1472  0.6789  1.6740
 2499SOL     OW 8395   4.983   6.510   0.580  0.7575 -0.0937  0.1426
 2499SOL    HW1 8396   5.010   6.418   0.609 -0.2663 -1.1538 -2.0048
 2499SOL    HW2 8397   4.904   6.540   0.633 -0.3958 -1.4989 -0.7290
 2500SOL     OW 8398   5.319   5.200   5.350 -0.3854  0.3630 -0.1882
 2500SOL    HW1 8399   5.406   5.204   5.400 -0.0505  1.0850 -0.8017
 2500SOL    HW2 8400   5.304   5.107   5.317 -0.0024  0.1586  0.1958
 2501SOL     OW 8401   6.882   5.716   0.791  0.3046  0.1459  0.2430
 2501SOL    HW1 8402   6.882   5.617   0.804 -3.7780  0.0717  0.7557
 2501SOL    HW2 8403   6.896   5.737   0.695 -0.2570 -1.0022 -0.1051
 2502SOL     OW 8404   6.121   1.603   3.197 -0.3497  0.6914  0.1772
 2502SOL    HW1 8405   6.136   1.539   3.121  3.5725  0.7222  0.7140
 2502SOL    HW2 8406   6.129   1.696   3.163  2.2801  0.6992  0.6415
 2503SOL     OW 8407   6.438   6.812   5.238  0.0114 -0.6253 -0.6082
 2503SOL    HW1 8408   6.517   6.857   5.279 -0.6876  1.0547 -1.0249
 2503SOL    HW2 8409   6.403   6.868   5.163 -2.5440 -0.4762  0.5846
 2504SOL     OW 8410   5.798   5.786   2.354 -0.0008 -0.0596  0.4202
 2504SOL    HW1 8411   5.874   5.721   2.351  3.5251  3.5965  1.8819
 2504SOL    HW2 8412   5.783   5.823   2.262  0.1823 -0.5394  0.1891
 2505SOL     OW 8413   5.473   4.651   3.840  0.1646 -0.5254  0.3024
 2505SOL    HW1 8414   5.469   4.660   3.741 -0.0713 -0.9043  0.2785
 2505SOL    HW2 8415   5.380   4.652   3.877  0.1316 -2.2581  0.3537
 2506SOL     OW 8416   2.294   1.098   5.168  0.1777  0.1341 -0.3056
 2506SOL    HW1 8417   2.302   1.166   5.095 -0.4999 -0.0856 -0.5866
 2506SOL    HW2 8418   2.293   1.145   5.257  2.7408  0.3126 -0.2932
 2507SOL     OW 8419   0.606   5.593   0.689  0.0792 -0.1930 -0.0496
 2507SOL    HW1 8420   0.656   5.654   0.628 -0.0833 -1.4666 -1.5214
 2507SOL    HW2 8421   0.546   5.646   0.749  2.1936  1.2714  0.8676
 2508SOL     OW 8422   1.987   1.082   2.495  0.2627 -0.8320 -0.3577
 2508SOL    HW1 8423   2.085   1.098   2.513  0.5628 -0.1075 -2.3819
 2508SOL    HW2 8424   1.934   1.161   2.527  0.7542  0.3343 -2.2773
 2509SOL     OW 8425   5.270   0.289   2.455 -0.6766 -0.2368 -0.4621
 2509SOL    HW1 8426   5.301   0.225   2.385 -0.2679  0.5898 -1.0530
 2509SOL    HW2 8427   5.208   0.242   2.518 -0.0587 -1.3115 -0.6347
 2510SOL     OW 8428   4.614   5.045   3.255 -0.1006  0.0925  0.2711
 2510SOL    HW1 8429   4.539   5.091   3.302 -0.3316  0.3328 -0.3230
 2510SOL    HW2 8430   4.702   5.083   3.286 -0.0743 -1.5549  2.4792
 2511SOL     OW 8431   0.553   3.705   3.652 -0.7277  1.3244 -0.7967
 2511SOL    HW1 8432   0.509   3.692   3.563 -1.7648 -2.0829  0.0318
 2511SOL    HW2 8433   0.650   3.682   3.645 -0.3218  3.0464 -1.3883
 2512SOL     OW 8434   5.412   2.626   5.274 -0.4513  0.0242  0.3885
 2512SOL    HW1 8435   5.396   2.672   5.361 -2.4186 -0.8144  0.5172
 2512SOL    HW2 8436   5.438   2.693   5.205  5.1262  0.3790  2.3432
 2513SOL     OW 8437   0.442   5.032   2.776  0.1593  0.2405 -1.1623
 2513SOL    HW1 8438   0.440   5.129   2.799 -2.8989  0.3525 -1.5076
 2513SOL    HW2 8439   0.460   5.022   2.678  1.4991  0.3569 -0.9508
 2514SOL     OW 8440   0.048   3.105   5.342 -0.0099 -0.2854  0.2493
 2514SOL    HW1 8441   0.088   3.148   5.261 -1.9523 -0.4451 -0.8617
 2514SOL    HW2 8442  -0.043   3.143   5.358  0.5036  0.0792  2.6792
 2515SOL     OW 8443   0.526   4.772   4.294 -0.8193 -0.4176  0.4810
 2515SOL    HW1 8444   0.590   4.719   4.238 -2.0672 -0.6232 -0.7997
 2515SOL    HW2 8445   0.493   4.714   4.369  2.7243  0.5745  3.1173
 2516SOL     OW 8446   5.270   0.227   4.092 -0.6194  0.0591 -0.2963
 2516SOL    HW1 8447   5.277   0.157   4.021 -1.4059 -0.0553 -0.2663
 2516SOL    HW2 8448   5.189   0.283   4.076  0.5296  1.6401 -0.9170
 2517SOL     OW 8449   3.849   0.485   6.608 -0.1108  0.5089  0.2542
 2517SOL    HW1 8450   3.825   0.543   6.530 -1.3715  1.6696  1.4583
 2517SOL    HW2 8451   3.799   0.399   6.602 -0.0937  0.5276 -0.2684
 2518SOL     OW 8452   2.676   1.935   5.876 -0.2221 -0.1312 -0.5647
 2518SOL    HW1 8453   2.754   1.994   5.894 -1.3487  1.2383  0.0419
 2518SOL    HW2 8454   2.644   1.894   5.961 -1.4545  1.0472 -0.4129
 2519SOL     OW 8455   6.495   3.698   3.363 -0.4231  0.2913 -0.2269
 2519SOL    HW1 8456   6.567   3.758   3.399 -0.5560  0.9831 -1.0907
 2519SOL    HW2 8457   6.536   3.631   3.302 -0.3958  0.1105 -0.0094
 2520SOL     OW 8458   5.479   5.553   1.422  0.0713  0.3769  0.0842
 2520SOL    HW1 8459   5.433   5.542   1.334 -1.6706  0.5206  0.9356
 2520SOL    HW2 8460   5.548   5.480   1.433 -1.6975 -1.4197 -0.2077
 2521SOL     OW 8461   6.628   5.841   4.747  0.1542 -0.8318 -0.3828
 2521SOL    HW1 8462   6.555   5.773   4.740 -0.2394 -0.2955 -1.6199
 2521SOL    HW2 8463   6.621   5.907   4.673  0.4995  0.6232  0.8173
 2522SOL     OW 8464   2.599   6.854   5.315  0.1974  1.0973 -0.5030
 2522SOL    HW1 8465   2.578   6.771   5.263 -1.4458  1.9891 -1.3328
 2522SOL    HW2 8466   2.675   6.902   5.271  0.9572  0.2158 -0.1923
 2523SOL     OW 8467   6.586   2.092   6.054  0.4831 -0.7827 -0.4319
 2523SOL    HW1 8468   6.638   2.158   6.001 -0.7969 -0.3544 -1.2063
 2523SOL    HW2 8469   6.648   2.033   6.105  1.7345  2.3660  2.0312
 2524SOL     OW 8470   2.389   5.984   4.704  0.5317 -0.1414 -0.0529
 2524SOL    HW1 8471   2.489   5.992   4.706  0.4142  1.7449 -0.0524
 2524SOL    HW2 8472   2.350   6.049   4.770 -0.7429  0.2009 -1.1218
 2525SOL     OW 8473   3.900   5.502   2.408  0.0922  0.0307 -0.2648
 2525SOL    HW1 8474   3.868   5.572   2.344 -0.4080  0.3696  0.3465
 2525SOL    HW2 8475   3.899   5.539   2.501  2.0794 -0.0025 -0.1826
 2526SOL     OW 8476   1.194   2.818   5.297 -0.0697  0.0311  0.3831
 2526SOL    HW1 8477   1.214   2.721   5.301 -0.3497 -0.0169  0.6573
 2526SOL    HW2 8478   1.103   2.832   5.258 -0.2669  0.1510  0.8742
 2527SOL     OW 8479   0.686   6.993   5.204 -0.7188 -0.0308  0.3288
 2527SOL    HW1 8480   0.740   6.913   5.231 -1.0356  0.0069  1.0856
 2527SOL    HW2 8481   0.743   7.075   5.207  0.4182 -0.5390 -3.1263
 2528SOL     OW 8482   5.157   6.319   2.685 -0.2211  0.0993  0.2418
 2528SOL    HW1 8483   5.229   6.290   2.622 -0.6480 -0.0033 -0.2034
 2528SOL    HW2 8484   5.178   6.285   2.777  0.8730  1.0129  0.3520
 2529SOL     OW 8485   4.217   6.418   5.244  0.3287  0.1255 -0.1097
 2529SOL    HW1 8486   4.283   6.343   5.249  1.3511  1.0557  1.3787
 2529SOL    HW2 8487   4.142   6.401   5.308 -1.0282 -1.0031 -1.9071
 2530SOL     OW 8488   5.973   5.493   3.513  0.1958  0.1012  0.1405
 2530SOL    HW1 8489   6.055   5.493   3.570 -1.2852  1.2376  2.3921
 2530SOL    HW2 8490   5.894   5.466   3.567 -1.2386  0.7686 -1.5054
 2531SOL     OW 8491   3.754   2.886   5.294 -0.6064 -0.3222 -0.4699
 2531SOL    HW1 8492   3.748   2.986   5.295  1.4354 -0.1676  0.0610
 2531SOL    HW2 8493   3.662   2.847   5.283 -1.3749  1.6037 -1.2120
 2532SOL     OW 8494   6.220   1.017   6.720 -0.2315 -0.1827  0.2880
 2532SOL    HW1 8495   6.244   1.094   6.779 -1.2372 -0.2024  0.7357
 2532SOL    HW2 8496   6.214   0.934   6.775  2.0994 -0.8677 -0.3842
 2533SOL     OW 8497   5.023   6.781   1.230 -0.3820  0.9435  0.0364
 2533SOL    HW1 8498   5.011   6.816   1.137 -0.1911  2.1498  0.4548
 2533SOL    HW2 8499   5.077   6.697   1.226  0.8806  1.7555 -0.8335
 2534SOL     OW 8500   0.946   6.741   1.316 -0.3602 -0.4256  0.0941
 2534SOL    HW1 8501   1.016   6.672   1.336 -1.4241 -1.1425  1.5690
 2534SOL    HW2 8502   0.856   6.705   1.343 -1.1192  0.9964 -0.4615
 2535SOL     OW 8503   2.315   2.250   1.250  0.6143  0.2486 -0.2773
 2535SOL    HW1 8504   2.353   2.284   1.336  0.0884 -0.2242  0.1440
 2535SOL    HW2 8505   2.288   2.328   1.193 -0.8206  0.5709  0.7930
 2536SOL     OW 8506   2.007   2.290   4.387  0.0059  0.3823  0.5052
 2536SOL    HW1 8507   1.913   2.296   4.355 -0.4103 -0.6927  1.4486
 2536SOL    HW2 8508   2.025   2.366   4.450 -0.4478  0.2133  0.8456
 2537SOL     OW 8509   3.765   6.403   1.534  0.4764  0.0397  0.0033
 2537SOL    HW1 8510   3.731   6.324   1.482 -0.9564  1.4288 -1.2908
 2537SOL    HW2 8511   3.701   6.423   1.608  0.2528  0.6309 -0.3460
 2538SOL     OW 8512   5.835   4.959   4.221 -0.3339 -0.3036 -0.5846
 2538SOL    HW1 8513   5.900   4.959   4.298 -0.2576 -1.8055 -0.6220
 2538SOL    HW2 8514   5.849   5.041   4.166 -0.3471  0.7733  0.9579
 2539SOL     OW 8515   1.469   0.050   6.172  0.4044 -0.4471 -0.4471
 2539SOL    HW1 8516   1.538   0.120   6.152  0.2986  0.5822  2.3777
 2539SOL    HW2 8517   1.387   0.093   6.208 -0.2734 -1.9326 -0.1371
 2540SOL     OW 8518   5.681   3.364   2.030  0.8544 -0.8620 -0.1330
 2540SOL    HW1 8519   5.640   3.321   2.110 -1.6623 -0.4513 -1.1208
 2540SOL    HW2 8520   5.692   3.296   1.957 -1.4987 -0.3063 -1.0890
 2541SOL     OW 8521   2.159   0.145   1.031 -0.8814  0.2922  0.2161
 2541SOL    HW1 8522   2.182   0.177   0.939 -0.8016  0.0164  0.1410
 2541SOL    HW2 8523   2.084   0.080   1.026 -0.6281 -0.0088  0.3089
 2542SOL     OW 8524   4.315   2.274   2.209 -0.2169 -0.0563 -0.5222
 2542SOL    HW1 8525   4.299   2.258   2.306  0.4758 -0.3197 -0.4480
 2542SOL    HW2 8526   4.394   2.335   2.197  0.0425 -0.4664 -0.9329
 2543SOL     OW 8527   6.965   6.222   5.915  0.2488 -0.0866  0.1419
 2543SOL    HW1 8528   6.985   6.223   5.817  2.0654 -2.6523  0.3874
 2543SOL    HW2 8529   7.046   6.250   5.966 -0.3983  0.3181  0.9802
 2544SOL     OW 8530   0.446   2.260   0.118  0.1815  0.0759 -0.1211
 2544SOL    HW1 8531   0.392   2.227   0.041 -1.0270  0.6849  0.4228
 2544SOL    HW2 8532   0.503   2.337   0.089  0.6724 -0.4931 -0.6763
 2545SOL     OW 8533   2.537   1.127   0.287 -0.0451 -0.3476  0.0113
 2545SOL    HW1 8534   2.635   1.121   0.269 -0.0999 -0.3010 -0.3082
 2545SOL    HW2 8535   2.512   1.061   0.359  0.5613  1.0443  1.5612
 2546SOL     OW 8536   4.807   2.373   3.625 -0.4823  0.0911  0.2436
 2546SOL    HW1 8537   4.775   2.356   3.532  2.1931 -0.7474 -0.6171
 2546SOL    HW2 8538   4.802   2.289   3.679 -0.5377  0.1722  0.3661
 2547SOL     OW 8539   6.687   3.846   0.462  0.0948  0.0739  0.0354
 2547SOL    HW1 8540   6.690   3.789   0.380 -0.0773  0.4518 -0.2340
 2547SOL    HW2 8541   6.724   3.936   0.441  0.4389  0.0433  0.4820
 2548SOL     OW 8542   0.010   6.097   5.530 -0.3100  0.3150  0.7136
 2548SOL    HW1 8543   0.036   6.005   5.558  0.1283  0.7802  1.8724
 2548SOL    HW2 8544   0.064   6.164   5.581 -0.6907  1.2228 -0.0458
 2549SOL     OW 8545   2.319   4.629   5.770  0.1617  0.2530 -0.0430
 2549SOL    HW1 8546   2.251   4.669   5.709  1.3052 -0.6813 -2.0316
 2549SOL    HW2 8547   2.387   4.579   5.716  2.9216  1.8076  1.7461
 2550SOL     OW 8548   4.491   1.307   1.148  0.1769 -0.0990  0.2137
 2550SOL    HW1 8549   4.511   1.355   1.062  2.4919  0.6922  1.1269
 2550SOL    HW2 8550   4.497   1.208   1.133 -1.1466 -0.0397 -0.8890
 2551SOL     OW 8551   3.001   6.242   1.495 -0.0525  0.1979  0.0938
 2551SOL    HW1 8552   3.004   6.212   1.399 -2.0906  1.3070 -0.3821
 2551SOL    HW2 8553   3.041   6.333   1.503  0.7557 -0.1823  0.4401
 2552SOL     OW 8554   3.391   5.183   3.461  0.1258  0.1583  0.2354
 2552SOL    HW1 8555   3.422   5.240   3.538  0.7060  1.2436 -0.7665
 2552SOL    HW2 8556   3.442   5.097   3.461  2.3292  1.3883 -0.6281
 2553SOL     OW 8557   5.502   2.294   1.244 -0.3290 -0.2303 -0.8375
 2553SOL    HW1 8558   5.566   2.370   1.253 -0.8853  0.2818 -1.1504
 2553SOL    HW2 8559   5.444   2.289   1.325  1.0176 -1.5794  0.1118
 2554SOL     OW 8560   6.177   0.742   6.234  0.2442 -0.0625 -0.1900
 2554SOL    HW1 8561   6.265   0.750   6.279  0.5448 -0.6254 -0.6697
 2554SOL    HW2 8562   6.106   0.782   6.292  0.9489  1.3176 -0.2315
 2555SOL     OW 8563   0.430   4.021   3.617  0.4860 -0.1318 -0.6294
 2555SOL    HW1 8564   0.427   3.924   3.594  0.6014  0.0541 -1.4705
 2555SOL    HW2 8565   0.397   4.075   3.539 -0.3709  0.4674  0.1266
 2556SOL     OW 8566   5.274   3.062   0.352 -0.1695  0.1002 -0.1235
 2556SOL    HW1 8567   5.262   3.005   0.270 -1.6042 -1.5351  1.1300
 2556SOL    HW2 8568   5.312   3.006   0.426  3.7292  2.1699 -0.2994
 2557SOL     OW 8569   2.237   2.817   1.919  0.0967 -0.0974 -0.3401
 2557SOL    HW1 8570   2.227   2.773   2.008 -0.6456 -0.8731 -0.7888
 2557SOL    HW2 8571   2.322   2.787   1.875  0.4417  0.2543  0.0792
 2558SOL     OW 8572   4.759   2.691   1.979 -0.4766  0.4166  0.5748
 2558SOL    HW1 8573   4.754   2.749   1.897 -1.1292 -1.0967 -0.5140
 2558SOL    HW2 8574   4.667   2.658   2.001 -0.1074 -0.2460  1.1277
 2559SOL     OW 8575   0.168   4.971   3.571  0.3698 -0.4355  0.1473
 2559SOL    HW1 8576   0.246   5.021   3.535  0.1510 -0.4967 -0.4250
 2559SOL    HW2 8577   0.196   4.878   3.596  1.2230  0.4635  2.9550
 2560SOL     OW 8578   3.973   3.711   2.311 -0.0824 -0.3561  0.0229
 2560SOL    HW1 8579   3.981   3.809   2.293 -0.6948 -0.1496  0.8528
 2560SOL    HW2 8580   4.049   3.663   2.267  0.3628  0.5196 -0.1781
 2561SOL     OW 8581   4.500   0.764   2.859  0.0129 -0.0106 -0.6483
 2561SOL    HW1 8582   4.564   0.706   2.808  0.0340 -1.6120  1.0884
 2561SOL    HW2 8583   4.423   0.789   2.800  0.8810 -0.3051 -1.9650
 2562SOL     OW 8584   1.898   6.373   4.638  0.3751 -0.6931 -0.3231
 2562SOL    HW1 8585   1.946   6.286   4.625  0.2775 -0.7034 -0.6316
 2562SOL    HW2 8586   1.914   6.432   4.558  0.9551 -0.1815  0.1667
 2563SOL     OW 8587   3.676   1.493   0.595 -0.1005 -0.4860  0.9264
 2563SOL    HW1 8588   3.653   1.509   0.499 -1.7445 -1.8049  1.0566
 2563SOL    HW2 8589   3.770   1.459   0.602  0.3824  0.5635 -0.0934
 2564SOL     OW 8590   2.277   1.334   3.197 -0.6017 -0.0288  0.2598
 2564SOL    HW1 8591   2.310   1.427   3.183  0.8008 -0.4765  0.4558
 2564SOL    HW2 8592   2.184   1.337   3.234 -1.7623  1.2621 -2.4293
 2565SOL     OW 8593   5.192   0.097   0.294 -0.6933  0.3038  0.5848
 2565SOL    HW1 8594   5.263   0.096   0.224 -0.0084 -2.9827  1.1622
 2565SOL    HW2 8595   5.102   0.102   0.251 -0.2300  1.8443 -0.2747
 2566SOL     OW 8596   3.429   1.450   0.919  0.0750  0.3864 -0.2490
 2566SOL    HW1 8597   3.360   1.512   0.957  0.1745  2.1425 -2.7419
 2566SOL    HW2 8598   3.502   1.503   0.878  0.8851 -1.4325 -1.2505
 2567SOL     OW 8599   2.855   0.592   6.925 -0.1801  0.7844  0.2395
 2567SOL    HW1 8600   2.808   0.513   6.964 -1.9859  1.0094 -1.3460
 2567SOL    HW2 8601   2.891   0.569   6.835  1.3890  1.1051  0.7571
 2568SOL     OW 8602   1.609   6.379   5.662  0.4316 -0.5143 -0.4899
 2568SOL    HW1 8603   1.580   6.459   5.714 -0.4242 -1.5402  0.6523
 2568SOL    HW2 8604   1.698   6.348   5.694  1.5840  0.9373 -2.0794
 2569SOL     OW 8605   2.921   5.446   0.223  0.1586  0.4511  0.1515
 2569SOL    HW1 8606   2.954   5.437   0.129  0.0495  0.5049  0.1067
 2569SOL    HW2 8607   2.973   5.518   0.270  0.9661 -0.3384  0.4810
 2570SOL     OW 8608   6.336   0.314   3.006 -0.2939 -0.5883  0.0928
 2570SOL    HW1 8609   6.355   0.299   2.909 -0.3586 -0.5511  0.0745
 2570SOL    HW2 8610   6.357   0.409   3.030  0.7333 -0.8680  0.3541
 2571SOL     OW 8611   3.323   2.855   2.786 -0.0781  0.0444 -0.2471
 2571SOL    HW1 8612   3.375   2.781   2.828  1.8286  1.7552  0.5761
 2571SOL    HW2 8613   3.301   2.924   2.854  1.4985  2.0251 -1.6282
 2572SOL     OW 8614   1.721   6.752   4.305  0.0738  0.1454 -0.7819
 2572SOL    HW1 8615   1.722   6.701   4.218 -2.0435  0.9544 -1.3551
 2572SOL    HW2 8616   1.773   6.837   4.294  1.3404 -0.5830 -0.6564
 2573SOL     OW 8617   5.048   1.339   2.068 -0.8031 -0.6329 -0.2920
 2573SOL    HW1 8618   5.083   1.365   1.978  0.2547  1.5398  0.6660
 2573SOL    HW2 8619   5.072   1.410   2.135 -1.8341 -2.0197  1.6541
 2574SOL     OW 8620   1.435   5.566   1.929 -0.0269 -0.3684 -0.2945
 2574SOL    HW1 8621   1.482   5.556   2.017  0.3004 -0.7752 -0.5084
 2574SOL    HW2 8622   1.388   5.654   1.925  0.7571  0.0663 -0.0935
 2575SOL     OW 8623   3.859   3.198   4.506  0.6652  0.3474 -0.3633
 2575SOL    HW1 8624   3.855   3.126   4.437  2.1377 -0.5387  0.4258
 2575SOL    HW2 8625   3.785   3.264   4.490 -0.1072 -0.7916 -1.6901
 2576SOL     OW 8626   1.687   0.142   4.457 -0.0833 -0.6864 -0.0230
 2576SOL    HW1 8627   1.673   0.092   4.542 -1.2179  0.5990  0.5769
 2576SOL    HW2 8628   1.609   0.202   4.439  0.9323  0.3931 -1.0411
 2577SOL     OW 8629   0.329   3.567   2.364  0.0794  0.0126  0.0206
 2577SOL    HW1 8630   0.305   3.655   2.323 -1.7435  0.1414  1.2443
 2577SOL    HW2 8631   0.338   3.578   2.463 -1.7373 -1.4345  0.3971
 2578SOL     OW 8632   5.585   1.313   6.209 -0.1966  0.2387  0.3535
 2578SOL    HW1 8633   5.569   1.313   6.308 -0.7066 -0.8573  0.2918
 2578SOL    HW2 8634   5.501   1.282   6.163 -0.5189  2.2916 -0.5354
 2579SOL     OW 8635   0.681   2.079   5.896 -0.3148 -0.7018 -0.5731
 2579SOL    HW1 8636   0.740   2.016   5.846 -0.9511 -2.9713  1.3357
 2579SOL    HW2 8637   0.732   2.118   5.973 -0.7277 -1.1689 -0.0550
 2580SOL     OW 8638   2.042   1.561   5.994 -0.4720 -0.6807 -0.0881
 2580SOL    HW1 8639   1.978   1.484   5.993 -2.0300  0.5708 -0.1551
 2580SOL    HW2 8640   2.072   1.579   6.088 -2.3723  0.4059  0.3535
 2581SOL     OW 8641   3.854   6.994   5.146  0.4431  0.1025  0.4335
 2581SOL    HW1 8642   3.767   7.000   5.097  1.0024  0.8356 -0.4946
 2581SOL    HW2 8643   3.847   6.925   5.218 -0.9009  0.1535  0.3682
 2582SOL     OW 8644   0.412   4.428   1.898  0.6836 -0.6986  0.1514
 2582SOL    HW1 8645   0.316   4.435   1.928  0.1245  0.7731 -1.7586
 2582SOL    HW2 8646   0.469   4.403   1.976 -1.0202  0.1822  1.7737
 2583SOL     OW 8647   2.298   0.080   0.354  0.1433  0.4210  0.1308
 2583SOL    HW1 8648   2.289  -0.016   0.327  1.2228  0.3050  0.1335
 2583SOL    HW2 8649   2.365   0.125   0.295 -0.8728  1.3687 -0.3303
 2584SOL     OW 8650   1.817   0.870   4.553  0.4623  0.1244 -0.3490
 2584SOL    HW1 8651   1.822   0.772   4.575 -1.0256 -0.0767 -0.7484
 2584SOL    HW2 8652   1.789   0.921   4.634  3.1272  0.5239  0.4068
 2585SOL     OW 8653   4.069   0.008   4.484  0.1087  0.6849  0.6041
 2585SOL    HW1 8654   4.162   0.046   4.486 -0.3300  1.9152 -0.5351
 2585SOL    HW2 8655   4.005   0.074   4.523 -0.4872  0.4983 -0.0352
 2586SOL     OW 8656   2.365   0.397   4.071 -0.3585  0.1312 -0.2145
 2586SOL    HW1 8657   2.354   0.496   4.063  0.3931  0.1933 -0.5723
 2586SOL    HW2 8658   2.366   0.371   4.168 -1.0512  0.4081 -0.1301
 2587SOL     OW 8659   1.828   4.568   3.116  0.2326  0.0287  0.5371
 2587SOL    HW1 8660   1.841   4.522   3.203 -1.2319  1.3395  1.5110
 2587SOL    HW2 8661   1.739   4.542   3.077  0.6290 -0.1151 -0.2995
 2588SOL     OW 8662   4.148   0.686   1.298 -0.6407 -0.3532 -0.9218
 2588SOL    HW1 8663   4.175   0.732   1.214  0.1987  0.1773 -0.3717
 2588SOL    HW2 8664   4.096   0.604   1.276 -0.3271 -0.2782 -1.9614
 2589SOL     OW 8665   2.963   0.777   2.984 -0.2867 -0.6456 -0.3579
 2589SOL    HW1 8666   2.948   0.779   3.083 -0.6165  1.0170 -0.4146
 2589SOL    HW2 8667   3.056   0.746   2.965  0.0695 -0.1536  0.5273
 2590SOL     OW 8668   1.601   5.936   4.096 -0.5578  0.1330 -0.2412
 2590SOL    HW1 8669   1.511   5.967   4.064 -1.7643 -1.8668  1.0120
 2590SOL    HW2 8670   1.629   5.991   4.174 -0.5142  0.9640 -0.8198
 2591SOL     OW 8671   3.331   1.011   0.588 -0.3823 -0.5342 -0.4527
 2591SOL    HW1 8672   3.320   1.085   0.655  0.5829 -0.0474 -0.8217
 2591SOL    HW2 8673   3.240   0.981   0.557 -0.8551 -0.9295  1.2298
 2592SOL     OW 8674   0.893   5.133   1.608 -0.4207 -0.4058  0.0737
 2592SOL    HW1 8675   0.933   5.201   1.546 -1.2801  0.2005  0.1656
 2592SOL    HW2 8676   0.794   5.138   1.603 -0.4948 -1.2933  0.4944
 2593SOL     OW 8677   3.806   1.154   4.148  0.4851 -0.0120  0.3082
 2593SOL    HW1 8678   3.794   1.072   4.091 -0.4291  1.8994 -2.4464
 2593SOL    HW2 8679   3.737   1.155   4.220  0.3999 -1.5676  0.2779
 2594SOL     OW 8680   1.494   5.752   0.187  0.2583 -0.3595  0.0718
 2594SOL    HW1 8681   1.566   5.705   0.136  0.5142  1.2298 -1.1135
 2594SOL    HW2 8682   1.473   5.838   0.142  0.8567  1.4095  2.9504
 2595SOL     OW 8683   6.755   2.521   4.724  0.6639  0.8818 -0.3844
 2595SOL    HW1 8684   6.726   2.600   4.671 -1.0140  0.0104 -0.8373
 2595SOL    HW2 8685   6.675   2.474   4.761  1.7059  0.3405  1.3007
 2596SOL     OW 8686   6.442   1.168   7.010 -0.2271  0.0337 -0.0914
 2596SOL    HW1 8687   6.516   1.105   6.985  0.5858  0.5243  0.9588
 2596SOL    HW2 8688   6.379   1.178   6.933  0.5469 -0.7522 -0.8592
 2597SOL     OW 8689   3.098   1.945   6.477 -0.1322 -0.1903  0.2346
 2597SOL    HW1 8690   3.014   1.987   6.441 -0.6355  0.6610  2.2676
 2597SOL    HW2 8691   3.171   2.013   6.477 -0.2210 -0.0883  1.0702
 2598SOL     OW 8692   6.821   1.381   2.784 -0.5370 -0.2246 -0.2378
 2598SOL    HW1 8693   6.886   1.440   2.831  1.4028 -3.6731  1.7961
 2598SOL    HW2 8694   6.729   1.419   2.792  0.7128  3.0632 -0.2098
 2599SOL     OW 8695   4.058   6.987   6.319 -0.0083 -0.0867  0.0827
 2599SOL    HW1 8696   4.116   7.069   6.320 -0.5335  0.4030 -2.5680
 2599SOL    HW2 8697   4.060   6.944   6.409 -0.1750  3.1492  1.7981
 2600SOL     OW 8698   1.091   3.691   6.052  0.2671  0.2001 -0.2437
 2600SOL    HW1 8699   1.152   3.613   6.065  2.3958  1.2738 -2.8480
 2600SOL    HW2 8700   1.142   3.767   6.011 -2.3280  2.0549 -0.3063
 2601SOL     OW 8701   3.987   3.953   5.936 -0.6632 -0.1009 -0.2350
 2601SOL    HW1 8702   4.003   4.036   5.882 -0.7787 -0.6551 -1.1551
 2601SOL    HW2 8703   3.983   3.976   6.033  0.4326  0.8034 -0.3860
 2602SOL     OW 8704   6.317   1.958   0.114  0.0005  0.1429 -0.1427
 2602SOL    HW1 8705   6.377   2.038   0.117  0.3733 -0.1709  1.0746
 2602SOL    HW2 8706   6.221   1.988   0.119  0.1495  0.5007  0.6221
 2603SOL     OW 8707   1.431   6.957   0.407 -0.6277 -0.4020  0.2954
 2603SOL    HW1 8708   1.423   6.932   0.310 -1.3804 -0.0701  0.2678
 2603SOL    HW2 8709   1.345   6.997   0.439 -0.9588 -2.0077  1.5468
 2604SOL     OW 8710   4.078   0.649   2.072  0.4089  0.0592 -0.3981
 2604SOL    HW1 8711   4.111   0.711   2.143 -1.2594  2.1719 -1.3397
 2604SOL    HW2 8712   4.133   0.661   1.990 -1.7517  2.8059 -1.6217
 2605SOL     OW 8713   4.591   1.958   5.143 -0.3737  0.4272  0.2255
 2605SOL    HW1 8714   4.572   1.871   5.096 -0.1900  0.0136  0.9049
 2605SOL    HW2 8715   4.505   2.003   5.166 -0.4688  0.5090 -0.2776
 2606SOL     OW 8716   5.232   4.931   5.764  0.0242 -0.4788 -0.0393
 2606SOL    HW1 8717   5.179   4.882   5.694  0.4307  0.0990 -0.7655
 2606SOL    HW2 8718   5.214   4.891   5.854 -1.4964 -0.4187 -0.2953
 2607SOL     OW 8719   5.861   6.711   3.918 -0.0839 -0.1580  0.4852
 2607SOL    HW1 8720   5.814   6.625   3.897  3.4276 -1.8041 -1.2975
 2607SOL    HW2 8721   5.918   6.698   3.999  1.6862 -0.0608 -0.7136
 2608SOL     OW 8722   4.192   1.835   0.361  0.1656 -0.5792 -0.7418
 2608SOL    HW1 8723   4.208   1.916   0.306  0.0805 -0.6523 -0.8744
 2608SOL    HW2 8724   4.277   1.784   0.371  0.1387 -0.6696 -0.9716
 2609SOL     OW 8725   2.295   4.232   2.748  0.3830  0.3151 -0.5419
 2609SOL    HW1 8726   2.315   4.264   2.841 -0.6136  0.2473 -0.2930
 2609SOL    HW2 8727   2.357   4.277   2.684 -1.3974  3.3591 -0.3071
 2610SOL     OW 8728   6.223   2.604   4.917 -0.1619 -0.0807 -0.3078
 2610SOL    HW1 8729   6.133   2.625   4.879 -0.2656  0.9424  0.4837
 2610SOL    HW2 8730   6.257   2.682   4.969  0.0925 -1.3390  1.5141
 2611SOL     OW 8731   3.472   5.504   2.985 -0.2874  0.6004 -0.0286
 2611SOL    HW1 8732   3.489   5.410   2.955 -1.8580  0.1501  0.3906
 2611SOL    HW2 8733   3.394   5.506   3.047 -0.3533  2.2031 -0.1111
 2612SOL     OW 8734   5.507   6.478   4.907 -0.1040 -0.1488 -0.1681
 2612SOL    HW1 8735   5.507   6.554   4.973 -2.1642  0.3986 -0.7160
 2612SOL    HW2 8736   5.444   6.408   4.938  2.0633 -1.9032  0.5203
 2613SOL     OW 8737   2.326   2.274   0.009 -0.1394 -0.0348  0.1557
 2613SOL    HW1 8738   2.264   2.318  -0.057  0.6227  0.7053 -0.0940
 2613SOL    HW2 8739   2.385   2.344   0.050  0.4454 -0.7083  0.4760
 2614SOL     OW 8740   5.841   6.809   5.623 -0.1063 -0.7598  0.4403
 2614SOL    HW1 8741   5.865   6.712   5.621  0.2983 -0.6587 -0.5197
 2614SOL    HW2 8742   5.742   6.820   5.613 -0.1527 -1.0785  0.5563
 2615SOL     OW 8743   0.286   4.840   2.207  0.0714  0.3108 -0.0413
 2615SOL    HW1 8744   0.263   4.854   2.303  1.2396 -0.1778  0.3396
 2615SOL    HW2 8745   0.337   4.754   2.198 -0.5812  0.0342 -1.1982
 2616SOL     OW 8746   4.434   3.843   0.822 -0.5011  0.5546  0.2302
 2616SOL    HW1 8747   4.410   3.868   0.728 -0.8559  1.5804  0.5816
 2616SOL    HW2 8748   4.363   3.876   0.884 -0.7869 -0.9842  0.7853
 2617SOL     OW 8749   2.620   6.160   0.647 -0.2372 -0.1464 -0.3631
 2617SOL    HW1 8750   2.559   6.138   0.724  0.9285  0.5154  0.7983
 2617SOL    HW2 8751   2.648   6.075   0.601 -1.2095 -0.5296 -0.2687
 2618SOL     OW 8752   2.802   6.002   0.995 -0.5345 -0.4836 -0.1233
 2618SOL    HW1 8753   2.791   6.070   1.068 -2.2501 -0.6144 -0.2147
 2618SOL    HW2 8754   2.899   5.992   0.973 -0.1820  1.3237  0.4603
 2619SOL     OW 8755   6.708   1.689   2.625 -0.4013  0.1239  0.2741
 2619SOL    HW1 8756   6.646   1.666   2.550 -1.2748 -1.3777  1.4020
 2619SOL    HW2 8757   6.800   1.654   2.605  0.3272  2.7190 -1.5997
 2620SOL     OW 8758   2.021   0.290   3.778  0.0694  0.3966  0.1930
 2620SOL    HW1 8759   2.035   0.224   3.851 -0.6929  1.7859  1.6383
 2620SOL    HW2 8760   2.108   0.335   3.756  0.1659  0.4703  0.7311
 2621SOL     OW 8761   1.942   5.957   5.870  0.2818 -0.4511  0.3355
 2621SOL    HW1 8762   1.925   5.874   5.925 -0.2934 -0.1318  0.6480
 2621SOL    HW2 8763   1.868   5.969   5.805  1.7137 -1.6949 -1.6585
 2622SOL     OW 8764   2.230   3.015   4.263  0.3137 -0.3680 -0.2482
 2622SOL    HW1 8765   2.224   2.968   4.175  1.0353  0.9262 -1.0315
 2622SOL    HW2 8766   2.183   3.104   4.256  0.1892 -0.3501  0.7467
 2623SOL     OW 8767   2.261   6.281   4.599 -0.3006  0.2514  0.3002
 2623SOL    HW1 8768   2.190   6.211   4.588  0.5102 -0.4274 -0.8327
 2623SOL    HW2 8769   2.307   6.268   4.686 -0.8696  0.0506  0.5810
 2624SOL     OW 8770   3.454   1.829   3.732  0.3493  0.3321  0.0129
 2624SOL    HW1 8771   3.463   1.874   3.643 -1.8418 -0.6379 -0.7628
 2624SOL    HW2 8772   3.526   1.862   3.793  0.7178  2.5181 -1.4779
 2625SOL     OW 8773   1.221   0.383   5.537  0.4176 -0.5931  0.0988
 2625SOL    HW1 8774   1.301   0.330   5.566  2.2937  2.2701  0.5592
 2625SOL    HW2 8775   1.224   0.396   5.438  1.6930  1.0842  0.3008
 2626SOL     OW 8776   2.295   0.660   3.142 -0.2407  0.5775 -0.0937
 2626SOL    HW1 8777   2.345   0.730   3.091  2.3050  0.1645  1.6539
 2626SOL    HW2 8778   2.266   0.697   3.230  0.8321 -0.4137  0.7009
 2627SOL     OW 8779   0.383   6.397   5.733  0.5926  0.7885  0.0499
 2627SOL    HW1 8780   0.414   6.482   5.691  2.0528  0.6545  0.7888
 2627SOL    HW2 8781   0.439   6.321   5.701 -1.4096 -0.1338 -1.4799
 2628SOL     OW 8782   4.045   6.649   6.736  0.3395  0.1506 -0.0403
 2628SOL    HW1 8783   4.063   6.554   6.709  1.2390  0.2975 -0.0036
 2628SOL    HW2 8784   4.018   6.651   6.832  0.4126 -0.0601 -0.0138
 2629SOL     OW 8785   3.401   3.508   1.444  0.6574 -0.5996 -0.4557
 2629SOL    HW1 8786   3.443   3.420   1.463  0.3565 -0.4450  1.0220
 2629SOL    HW2 8787   3.302   3.498   1.439  0.4918 -0.1412  1.1986
 2630SOL     OW 8788   3.158   1.350   2.762  0.0966  0.0750  0.1274
 2630SOL    HW1 8789   3.166   1.407   2.843  1.0657  0.8911 -0.5168
 2630SOL    HW2 8790   3.214   1.388   2.689 -0.3681 -0.9199 -0.7742
 2631SOL     OW 8791   4.260   6.764   3.566 -0.1655 -0.6345  0.4911
 2631SOL    HW1 8792   4.317   6.683   3.551  0.5895  0.0839 -0.7198
 2631SOL    HW2 8793   4.309   6.846   3.535 -1.3633  0.1618  0.6123
 2632SOL     OW 8794   5.726   2.192   0.379 -0.4045 -0.0067  0.0299
 2632SOL    HW1 8795   5.793   2.229   0.314  0.4121 -0.5869  0.5071
 2632SOL    HW2 8796   5.716   2.255   0.456 -0.1961 -0.0397  0.0857
 2633SOL     OW 8797   0.090   3.551   6.583  0.0773  0.0760 -0.3050
 2633SOL    HW1 8798   0.185   3.554   6.612 -0.4903  3.5840  1.7982
 2633SOL    HW2 8799   0.074   3.623   6.515 -1.1684 -0.2726 -0.4059
 2634SOL     OW 8800   2.230   4.875   0.063 -0.3904  0.4452  0.4638
 2634SOL    HW1 8801   2.228   4.975   0.060  0.2930  0.4495 -1.3212
 2634SOL    HW2 8802   2.320   4.842   0.034 -1.1679 -0.6906 -0.8115
 2635SOL     OW 8803   0.326   2.643   3.170 -0.3107  0.0022  0.3288
 2635SOL    HW1 8804   0.340   2.742   3.164 -0.3417  0.0015  0.2383
 2635SOL    HW2 8805   0.234   2.624   3.204 -0.5206  0.0031 -0.2256
 2636SOL     OW 8806   5.957   5.471   3.850 -0.4611  0.8848  0.2816
 2636SOL    HW1 8807   6.039   5.424   3.818 -1.1606 -0.0116 -0.2465
 2636SOL    HW2 8808   5.883   5.456   3.785 -1.2761  0.9876  1.1742
 2637SOL     OW 8809   5.226   6.522   1.033  0.7250 -0.1866  0.3417
 2637SOL    HW1 8810   5.270   6.611   1.044  0.7671 -0.0625 -0.7141
 2637SOL    HW2 8811   5.173   6.501   1.115  0.8983  0.7090  0.6971
 2638SOL     OW 8812   0.247   5.817   2.232  0.0344  0.4327  0.4930
 2638SOL    HW1 8813   0.174   5.848   2.172  0.1398  2.5095  1.3379
 2638SOL    HW2 8814   0.280   5.894   2.287  2.7593 -0.4540  0.2686
 2639SOL     OW 8815   6.263   1.301   1.466 -0.0011  0.1812 -0.6313
 2639SOL    HW1 8816   6.200   1.258   1.401  0.2341 -0.7679 -0.2471
 2639SOL    HW2 8817   6.224   1.387   1.498 -0.0997  0.7020 -2.0588
 2640SOL     OW 8818   1.189   0.155   1.157  0.1464 -0.1641 -0.4342
 2640SOL    HW1 8819   1.140   0.213   1.222 -0.4863 -0.3215 -0.7543
 2640SOL    HW2 8820   1.280   0.133   1.193 -0.2992 -0.4912  0.5353
 2641SOL     OW 8821   5.636   6.207   2.074 -0.8713  0.4672 -0.4852
 2641SOL    HW1 8822   5.691   6.127   2.097 -0.0097  1.0763 -0.3832
 2641SOL    HW2 8823   5.627   6.266   2.154  1.0968  1.9747 -1.2792
 2642SOL     OW 8824   5.721   6.847   3.717 -0.7451 -0.8007 -0.1571
 2642SOL    HW1 8825   5.712   6.827   3.619  1.1599 -0.8145 -0.3605
 2642SOL    HW2 8826   5.777   6.777   3.760 -1.2902 -0.6019  0.8954
 2643SOL     OW 8827   2.830   6.138   3.042 -0.1283 -0.6537  0.4760
 2643SOL    HW1 8828   2.844   6.196   3.123  1.2621 -0.1475 -0.0833
 2643SOL    HW2 8829   2.914   6.137   2.988 -1.0574 -0.9099 -1.0149
 2644SOL     OW 8830   6.264   6.916   4.161  0.6158  0.0314  0.1547
 2644SOL    HW1 8831   6.217   6.878   4.240  2.5111  0.2098  1.4237
 2644SOL    HW2 8832   6.199   6.970   4.107 -0.9606 -0.9530  0.9661
 2645SOL     OW 8833   5.803   0.046   6.593  0.3507  1.0606  1.2448
 2645SOL    HW1 8834   5.803   0.143   6.615 -0.4242  1.6430 -1.0501
 2645SOL    HW2 8835   5.852   0.031   6.507 -1.1510 -0.2921  0.5639
 2646SOL     OW 8836   4.423   5.989   5.774  0.5772 -0.0727  0.3321
 2646SOL    HW1 8837   4.353   6.019   5.839  0.6111 -0.4027  0.5187
 2646SOL    HW2 8838   4.510   5.979   5.821  0.7844  0.4710  0.0719
 2647SOL     OW 8839   4.513   5.463   0.497  0.6234 -0.0841 -0.2451
 2647SOL    HW1 8840   4.501   5.467   0.596  0.0206 -2.6908 -0.1330
 2647SOL    HW2 8841   4.611   5.463   0.475  0.7827  2.5291  0.1359
 2648SOL     OW 8842   6.355   0.948   4.212  0.0514 -0.1471 -0.2188
 2648SOL    HW1 8843   6.268   0.919   4.171  0.3803  0.8170 -1.6936
 2648SOL    HW2 8844   6.337   0.994   4.299 -0.9049 -0.2123 -0.3680
 2649SOL     OW 8845   2.483   4.882   5.621 -0.4109 -0.3948 -0.2767
 2649SOL    HW1 8846   2.502   4.981   5.624 -0.6434 -0.3439 -0.4297
 2649SOL    HW2 8847   2.456   4.857   5.528  0.4526 -0.7560 -0.4384
 2650SOL     OW 8848   5.893   0.580   3.870 -0.0971  0.0839 -0.0822
 2650SOL    HW1 8849   5.886   0.675   3.901  0.7582 -0.3538  1.6255
 2650SOL    HW2 8850   5.935   0.577   3.780  0.7442  1.3033  0.2390
 2651SOL     OW 8851   1.094   0.922   3.644  0.4700  0.5476  0.6082
 2651SOL    HW1 8852   1.087   0.983   3.565 -1.2710 -0.2533  0.0731
 2651SOL    HW2 8853   1.066   0.830   3.617 -0.6462  0.3528  2.2590
 2652SOL     OW 8854   3.187   5.256   2.462 -0.2080 -0.4451 -0.0513
 2652SOL    HW1 8855   3.123   5.182   2.484 -2.0617  0.4886 -2.0045
 2652SOL    HW2 8856   3.234   5.235   2.376 -0.3001  0.3699 -0.3031
 2653SOL     OW 8857   4.541   0.192   2.087  0.4577 -0.2379  0.8545
 2653SOL    HW1 8858   4.571   0.288   2.084  1.6477 -0.5319  2.1060
 2653SOL    HW2 8859   4.614   0.134   2.050 -0.0263 -0.7026  0.6252
 2654SOL     OW 8860   1.540   3.979   0.363 -0.0661 -0.0729  0.3446
 2654SOL    HW1 8861   1.537   3.895   0.417 -0.4148 -0.5501 -0.4007
 2654SOL    HW2 8862   1.481   3.969   0.283  1.2738  0.1908 -0.7183
 2655SOL     OW 8863   6.398   4.832   3.004 -0.3595 -0.2303  0.3445
 2655SOL    HW1 8864   6.322   4.810   2.942 -0.6380  2.8924 -0.5960
 2655SOL    HW2 8865   6.479   4.855   2.951 -0.4185  1.8828  1.0696
 2656SOL     OW 8866   5.494   4.877   6.776 -0.7154  0.3020 -0.9356
 2656SOL    HW1 8867   5.427   4.811   6.810 -1.1640  0.8777 -0.6854
 2656SOL    HW2 8868   5.577   4.873   6.831 -0.6034 -0.3063 -1.1483
 2657SOL     OW 8869   4.590   2.357   3.928 -0.1918 -0.6998  0.5592
 2657SOL    HW1 8870   4.509   2.380   3.874 -0.7003  0.3168  1.6966
 2657SOL    HW2 8871   4.617   2.263   3.908  1.2805  0.3546 -3.4786
 2658SOL     OW 8872   6.504   4.741   5.597  0.1074  0.0568 -0.0814
 2658SOL    HW1 8873   6.562   4.817   5.625  1.9591 -1.2502 -0.1928
 2658SOL    HW2 8874   6.453   4.767   5.514 -2.0453  2.3693  1.8130
 2659SOL     OW 8875   0.756   6.044   3.213 -0.0007 -0.8482  0.3227
 2659SOL    HW1 8876   0.707   6.059   3.127 -1.2326 -0.2880  1.0879
 2659SOL    HW2 8877   0.694   6.002   3.279  0.3195  0.5785  1.5650
 2660SOL     OW 8878   2.001   0.543   3.085 -0.8397 -0.2839 -0.0582
 2660SOL    HW1 8879   2.002   0.554   2.985 -1.4102 -0.7775 -0.1239
 2660SOL    HW2 8880   2.092   0.562   3.121 -0.0759 -2.0894 -0.8934
 2661SOL     OW 8881   2.700   0.383   2.536  0.1002  0.5550 -0.7574
 2661SOL    HW1 8882   2.686   0.343   2.445  2.9904 -0.9482 -0.6597
 2661SOL    HW2 8883   2.626   0.448   2.555 -2.9526 -2.0882 -2.4008
 2662SOL     OW 8884   4.869   0.873   4.867  0.6915  0.1984  0.0905
 2662SOL    HW1 8885   4.818   0.834   4.944 -0.7449  1.0490 -0.3869
 2662SOL    HW2 8886   4.886   0.970   4.885  1.0088  0.2217 -0.3270
 2663SOL     OW 8887   0.966   5.402   3.040 -0.0962 -0.1740  0.4715
 2663SOL    HW1 8888   0.991   5.488   3.084 -0.9660 -0.0366  0.7161
 2663SOL    HW2 8889   0.868   5.402   3.020 -0.4799 -1.8408  2.1155
 2664SOL     OW 8890   4.603   5.587   5.598 -0.4980 -0.2817  0.4923
 2664SOL    HW1 8891   4.535   5.654   5.630 -0.5439 -1.2291  2.5101
 2664SOL    HW2 8892   4.644   5.541   5.676  0.0346 -2.1471 -0.8118
 2665SOL     OW 8893   2.888   0.833   4.628  0.0855 -0.4806 -0.3787
 2665SOL    HW1 8894   2.900   0.786   4.540  2.1837 -0.2194 -0.2794
 2665SOL    HW2 8895   2.802   0.803   4.670  0.3099 -2.6203 -1.3028
 2666SOL     OW 8896   3.852   5.666   3.773  0.1520 -0.3332  0.2895
 2666SOL    HW1 8897   3.861   5.611   3.689 -1.7349 -0.6614  0.2651
 2666SOL    HW2 8898   3.885   5.613   3.851 -0.4764 -1.0210  0.0945
 2667SOL     OW 8899   3.373   5.480   4.230  0.0273  0.2001  0.4212
 2667SOL    HW1 8900   3.278   5.500   4.256 -0.1631  0.1714 -0.2477
 2667SOL    HW2 8901   3.400   5.393   4.272  0.3183  1.0063  1.9704
 2668SOL     OW 8902   0.400   3.340   3.849 -0.0532 -0.2595 -0.1325
 2668SOL    HW1 8903   0.361   3.426   3.815 -0.0495 -0.5768 -0.9700
 2668SOL    HW2 8904   0.383   3.332   3.947  1.6931  1.6603  0.4158
 2669SOL     OW 8905   4.694   4.513   4.726 -0.1003 -0.6588 -0.3417
 2669SOL    HW1 8906   4.606   4.548   4.758  0.6407 -0.2628  1.3593
 2669SOL    HW2 8907   4.746   4.587   4.682 -0.8565 -1.0492 -1.9500
 2670SOL     OW 8908   1.682   6.413   4.235 -0.1256  0.1100 -0.4860
 2670SOL    HW1 8909   1.584   6.427   4.220 -0.1050  0.0519 -0.6888
 2670SOL    HW2 8910   1.727   6.400   4.146 -0.0199 -0.4340 -0.3571
 2671SOL     OW 8911   3.156   1.530   0.010 -0.1556  0.2261  0.3271
 2671SOL    HW1 8912   3.057   1.543   0.007 -0.6641 -2.9138 -0.5313
 2671SOL    HW2 8913   3.185   1.475  -0.068  1.9092 -0.7164  1.6597
 2672SOL     OW 8914   0.978   5.710   1.227  0.1627  0.0431 -0.8174
 2672SOL    HW1 8915   1.036   5.713   1.145  2.2764  2.1937  0.6365
 2672SOL    HW2 8916   0.961   5.803   1.259 -0.5791 -0.7426  1.2298
 2673SOL     OW 8917   5.031   1.338   3.154 -0.4927  0.1440  0.0294
 2673SOL    HW1 8918   5.098   1.319   3.083  1.4025 -0.2402  1.8043
 2673SOL    HW2 8919   4.969   1.260   3.164 -0.8493  0.2567 -1.2413
 2674SOL     OW 8920   4.675   5.406   4.560  0.4638  0.4194  0.2566
 2674SOL    HW1 8921   4.662   5.356   4.646 -1.4529  1.1283  0.4495
 2674SOL    HW2 8922   4.758   5.460   4.565  0.1099  0.8751  1.9223
 2675SOL     OW 8923   5.459   6.308   5.541  0.1051 -0.1616 -0.2067
 2675SOL    HW1 8924   5.415   6.385   5.588 -0.4316  1.2929 -2.9021
 2675SOL    HW2 8925   5.473   6.331   5.445  1.3424 -2.9105 -0.7827
 2676SOL     OW 8926   3.746   5.556   1.218  0.1483  0.1704  0.0023
 2676SOL    HW1 8927   3.710   5.601   1.136  1.8701  0.3117 -0.7204
 2676SOL    HW2 8928   3.681   5.566   1.293 -0.6070  1.7373 -0.8185
 2677SOL     OW 8929   2.550   3.016   1.418  0.6631 -0.3512 -0.1260
 2677SOL    HW1 8930   2.634   2.968   1.391  0.7262  0.2922 -1.1154
 2677SOL    HW2 8931   2.566   3.114   1.416  0.7141 -0.2457  2.4794
 2678SOL     OW 8932   2.856   0.427   6.698 -0.4307 -0.2848 -0.2974
 2678SOL    HW1 8933   2.927   0.357   6.698  0.7025  0.7746  2.1714
 2678SOL    HW2 8934   2.851   0.469   6.607  1.3074 -1.1496 -0.8303
 2679SOL     OW 8935   2.000   4.662   2.044  0.0029  0.1708  0.1058
 2679SOL    HW1 8936   2.063   4.584   2.044 -1.2363 -0.8749  0.8525
 2679SOL    HW2 8937   2.051   4.747   2.057  1.3440 -0.5537 -0.3316
 2680SOL     OW 8938   0.690   3.064   1.048 -0.0176 -0.4216 -0.0203
 2680SOL    HW1 8939   0.629   3.141   1.032 -0.7666 -0.7888  0.9621
 2680SOL    HW2 8940   0.782   3.097   1.069 -0.6433  0.2821  1.7709
 2681SOL     OW 8941   1.771   1.555   1.253 -0.1780  0.5315 -0.3498
 2681SOL    HW1 8942   1.775   1.654   1.262 -1.0634  0.7764 -2.1610
 2681SOL    HW2 8943   1.821   1.512   1.328 -1.2403  2.3030  1.4717
 2682SOL     OW 8944   2.157   3.567   1.736 -0.3143 -0.3980  0.0526
 2682SOL    HW1 8945   2.176   3.491   1.674 -0.9484  0.0990 -0.7725
 2682SOL    HW2 8946   2.167   3.536   1.831  1.4696 -0.9581 -0.2889
 2683SOL     OW 8947   0.243   0.511   2.257  0.4341 -0.0176 -0.0663
 2683SOL    HW1 8948   0.154   0.466   2.258  1.1076 -1.3734  0.3936
 2683SOL    HW2 8949   0.274   0.529   2.351  0.5315  0.7131 -0.2255
 2684SOL     OW 8950   2.297   4.864   3.458  0.0734 -0.2803  0.6909
 2684SOL    HW1 8951   2.321   4.769   3.437 -0.3058 -0.1072 -0.5927
 2684SOL    HW2 8952   2.359   4.899   3.528  1.1892 -1.0017  0.1011
 2685SOL     OW 8953   3.938   6.195   5.568  0.4672  0.0867  0.2315
 2685SOL    HW1 8954   3.970   6.279   5.524 -1.1335  0.7650  0.2931
 2685SOL    HW2 8955   3.900   6.134   5.499  1.1772 -0.3884  0.2509
 2686SOL     OW 8956   2.077   3.545   3.406 -0.2786 -0.3283 -0.7060
 2686SOL    HW1 8957   2.124   3.456   3.401 -0.9136 -0.6892 -0.4323
 2686SOL    HW2 8958   1.978   3.530   3.409 -0.3656  0.3303  0.4498
 2687SOL     OW 8959   3.918   4.903   3.915 -0.6597 -0.0386  0.6010
 2687SOL    HW1 8960   3.980   4.866   3.985 -0.3940 -0.2949  0.2394
 2687SOL    HW2 8961   3.926   5.002   3.911  1.8272 -0.2094 -1.3119
 2688SOL     OW 8962   3.504   4.903   5.142  0.2570  0.2158  0.4073
 2688SOL    HW1 8963   3.409   4.931   5.155  0.3321  0.7862 -0.1922
 2688SOL    HW2 8964   3.558   4.928   5.222  0.3677  2.0323 -0.1776
 2689SOL     OW 8965   5.834   0.511   4.657 -0.0823  0.1739 -0.0507
 2689SOL    HW1 8966   5.757   0.532   4.718 -0.2605  1.1685 -0.5889
 2689SOL    HW2 8967   5.799   0.498   4.564  0.3754  0.4031 -0.2552
 2690SOL     OW 8968   3.335   4.125   3.637 -0.5106 -0.3256  0.7307
 2690SOL    HW1 8969   3.332   4.091   3.543 -0.7466 -1.1306  1.0147
 2690SOL    HW2 8970   3.429   4.147   3.662 -0.1148 -2.1256  0.9782
 2691SOL     OW 8971   2.247   4.558   1.200  0.2610  0.0517 -0.3461
 2691SOL    HW1 8972   2.257   4.494   1.276 -0.6857 -1.5947 -1.5543
 2691SOL    HW2 8973   2.255   4.652   1.235  2.0951 -0.6608  1.4136
 2692SOL     OW 8974   6.816   2.539   2.470 -0.2894  0.1972  0.0593
 2692SOL    HW1 8975   6.905   2.501   2.444  1.6715  4.2070  0.0774
 2692SOL    HW2 8976   6.769   2.571   2.388  0.1572  1.5954  0.3216
 2693SOL     OW 8977   0.551   1.934   2.884  0.4015 -0.2406  0.7700
 2693SOL    HW1 8978   0.622   1.887   2.936 -0.7150 -0.0021  2.5678
 2693SOL    HW2 8979   0.553   2.032   2.906  1.4959  0.3570 -1.5476
 2694SOL     OW 8980   2.319   2.824   3.743 -0.2264  0.0833  0.0713
 2694SOL    HW1 8981   2.280   2.868   3.662 -1.6262 -0.1893  0.5678
 2694SOL    HW2 8982   2.405   2.780   3.718 -0.3392  0.4875 -1.1356
 2695SOL     OW 8983   4.757   1.530   1.958 -0.4263 -0.3924 -0.0799
 2695SOL    HW1 8984   4.762   1.461   1.885 -0.6458 -0.0982 -0.3737
 2695SOL    HW2 8985   4.690   1.501   2.026 -1.5091  0.1508 -0.8732
 2696SOL     OW 8986   1.777   2.501   6.029  0.0418 -0.2293  0.1456
 2696SOL    HW1 8987   1.786   2.409   6.068 -0.6603 -1.0158 -1.4615
 2696SOL    HW2 8988   1.865   2.548   6.033  0.4962 -1.1056  0.6590
 2697SOL     OW 8989   2.139   1.012   4.588 -0.4716  0.1659  0.2767
 2697SOL    HW1 8990   2.106   1.012   4.682 -1.2645  4.4820  0.1854
 2697SOL    HW2 8991   2.081   1.072   4.532  1.1998 -0.6164 -2.4907
 2698SOL     OW 8992   3.707   0.710   1.175 -0.2004  0.1713 -0.3951
 2698SOL    HW1 8993   3.663   0.717   1.085  1.1965 -0.4382 -1.1543
 2698SOL    HW2 8994   3.784   0.646   1.170  1.2524  1.7622  0.7094
 2699SOL     OW 8995   1.191   3.872   3.747  0.6471  0.4144 -0.3453
 2699SOL    HW1 8996   1.184   3.798   3.680  1.1707 -0.4756  0.5500
 2699SOL    HW2 8997   1.163   3.838   3.837  4.7142  0.0119  0.9828
 2700SOL     OW 8998   1.875   2.296   3.538 -0.3579 -0.6711 -0.3861
 2700SOL    HW1 8999   1.947   2.329   3.599  1.2787 -1.8863 -1.5435
 2700SOL    HW2 9000   1.814   2.235   3.588  0.6041 -1.1794  0.2112
 2701SOL     OW 9001   0.161   0.952   4.728 -0.2630 -0.2790  0.1187
 2701SOL    HW1 9002   0.224   0.877   4.745  0.0131 -0.1371 -0.2690
 2701SOL    HW2 9003   0.162   0.976   4.631  0.1716  0.6808  0.3465
 2702SOL     OW 9004   5.532   6.311   4.242 -0.2026 -0.0414  0.4777
 2702SOL    HW1 9005   5.501   6.291   4.335 -0.1079  2.2713  1.0589
 2702SOL    HW2 9006   5.473   6.380   4.201 -0.2788 -1.0855 -1.2373
 2703SOL     OW 9007   0.499   3.847   1.745 -0.3840 -0.0660  0.1398
 2703SOL    HW1 9008   0.513   3.836   1.647 -1.7140  0.6247 -0.1458
 2703SOL    HW2 9009   0.506   3.758   1.790 -1.1471 -0.6137 -0.7833
 2704SOL     OW 9010   0.617   6.709   0.795 -0.1743 -0.4466 -0.0572
 2704SOL    HW1 9011   0.667   6.732   0.712 -1.0120 -2.2938 -1.1153
 2704SOL    HW2 9012   0.682   6.694   0.870  0.8376 -1.9046 -1.1733
 2705SOL     OW 9013   0.079   3.387   2.399 -0.9267 -0.3240 -0.1071
 2705SOL    HW1 9014   0.170   3.413   2.366  0.5047 -2.0167  2.1650
 2705SOL    HW2 9015   0.046   3.455   2.464 -0.3712 -0.6024  0.4900
 2706SOL     OW 9016   5.693   1.143   0.971  0.3203 -0.2014 -0.6496
 2706SOL    HW1 9017   5.698   1.243   0.979  1.7167 -0.1088 -2.0293
 2706SOL    HW2 9018   5.756   1.113   0.899 -1.2695 -1.9348 -1.4107
 2707SOL     OW 9019   2.520   1.242   1.829  0.3164  0.2393  0.0748
 2707SOL    HW1 9020   2.457   1.165   1.817  0.5604  0.0321  0.1090
 2707SOL    HW2 9021   2.503   1.285   1.918  0.6665 -0.2285  0.3702
 2708SOL     OW 9022   6.724   2.558   5.185 -0.6428  0.2626 -0.4827
 2708SOL    HW1 9023   6.724   2.628   5.114 -0.8408 -1.3947 -2.1840
 2708SOL    HW2 9024   6.736   2.601   5.275  1.2071  2.2676 -1.6236
 2709SOL     OW 9025   2.151   1.520   0.922  0.0007  0.0768 -0.3100
 2709SOL    HW1 9026   2.185   1.535   1.015 -1.1601 -0.4911  0.2273
 2709SOL    HW2 9027   2.203   1.576   0.858  1.2714 -0.0309  0.5929
 2710SOL     OW 9028   5.034   3.104   3.565  0.0998  0.0160 -0.1422
 2710SOL    HW1 9029   4.966   3.032   3.575  0.2761 -0.2819 -0.9725
 2710SOL    HW2 9030   5.077   3.123   3.653  0.0634 -0.9039  0.0776
 2711SOL     OW 9031   6.421   6.394   1.665  0.0076 -0.3226 -0.2192
 2711SOL    HW1 9032   6.454   6.340   1.742 -2.0386  0.0033  0.9734
 2711SOL    HW2 9033   6.339   6.445   1.693  0.5382  1.6248 -1.9576
 2712SOL     OW 9034   4.164   4.857   2.381 -0.7784  0.7758 -0.0151
 2712SOL    HW1 9035   4.093   4.853   2.451 -0.8180  0.7437 -0.0576
 2712SOL    HW2 9036   4.142   4.793   2.307  0.6851 -1.3382  1.2720
 2713SOL     OW 9037   2.699   1.347   6.756  0.1813 -0.3326  0.2084
 2713SOL    HW1 9038   2.629   1.348   6.828 -0.1876  0.2928 -0.1473
 2713SOL    HW2 9039   2.664   1.396   6.676  1.1619  0.3020  0.1571
 2714SOL     OW 9040   5.150   1.698   6.404  0.1797  0.2359  0.4005
 2714SOL    HW1 9041   5.137   1.599   6.404 -0.2944  0.2778 -0.6343
 2714SOL    HW2 9042   5.205   1.723   6.324  0.7545  0.7642  0.9497
 2715SOL     OW 9043   6.371   6.725   6.765  0.2445 -0.0871 -0.2373
 2715SOL    HW1 9044   6.326   6.637   6.781 -0.0080 -0.0450 -0.6778
 2715SOL    HW2 9045   6.305   6.799   6.783 -0.0665 -0.0408 -1.4749
 2716SOL     OW 9046   6.229   0.815   1.416 -0.0587 -0.5146 -0.7167
 2716SOL    HW1 9047   6.273   0.766   1.340 -0.0451  0.2861 -1.2376
 2716SOL    HW2 9048   6.173   0.751   1.469  1.4058 -1.4870 -0.2768
 2717SOL     OW 9049   6.976   5.169   3.720  0.0743 -0.6077  0.3577
 2717SOL    HW1 9050   6.970   5.250   3.661  0.7141  0.3102  1.5110
 2717SOL    HW2 9051   7.064   5.124   3.706 -0.2408 -1.0664 -0.2093
 2718SOL     OW 9052   0.861   5.775   1.549  0.0661 -0.4197 -0.1803
 2718SOL    HW1 9053   0.865   5.872   1.576 -0.6295  0.0013 -1.4861
 2718SOL    HW2 9054   0.775   5.735   1.580 -0.5060 -0.0744 -1.2656
 2719SOL     OW 9055   3.664   6.431   3.255  0.0517 -0.3005 -0.0734
 2719SOL    HW1 9056   3.696   6.499   3.189 -0.9562  0.6295  0.3554
 2719SOL    HW2 9057   3.610   6.362   3.209 -0.5895  0.3063 -0.2390
 2720SOL     OW 9058   0.458   6.862   5.124 -0.2430 -0.4351 -0.3027
 2720SOL    HW1 9059   0.524   6.935   5.141  0.1357 -0.5317 -1.3005
 2720SOL    HW2 9060   0.425   6.867   5.030 -0.4685 -1.3397 -0.2857
 2721SOL     OW 9061   4.931   6.585   4.573  0.3605 -0.2744 -0.4182
 2721SOL    HW1 9062   4.953   6.676   4.608  0.9612 -0.7235  0.3908
 2721SOL    HW2 9063   4.840   6.587   4.529  0.4498  0.7456 -0.5780
 2722SOL     OW 9064   5.600   6.108   3.583 -0.4750 -0.1828  0.0951
 2722SOL    HW1 9065   5.525   6.170   3.561  0.3379  0.5949 -0.5598
 2722SOL    HW2 9066   5.566   6.014   3.588 -0.9560 -0.3020 -3.4743
 2723SOL     OW 9067   2.591   0.601   5.165 -0.1331 -0.0384  0.4578
 2723SOL    HW1 9068   2.582   0.648   5.253 -0.1701 -0.6050  0.7601
 2723SOL    HW2 9069   2.688   0.596   5.140 -0.1455  0.4016  0.3079
 2724SOL     OW 9070   5.502   6.823   6.727  0.3625  0.8652 -0.2710
 2724SOL    HW1 9071   5.526   6.892   6.795  0.5873 -0.2405  0.8127
 2724SOL    HW2 9072   5.404   6.824   6.711  0.2124  0.6939  0.5829
 2725SOL     OW 9073   6.570   6.055   2.137  0.5789  0.0093 -0.6250
 2725SOL    HW1 9074   6.570   6.073   2.039  0.4471  0.7263 -0.5073
 2725SOL    HW2 9075   6.481   6.082   2.175 -0.2659 -2.4623 -0.6683
 2726SOL     OW 9076   5.155   6.538   3.974  0.0477 -0.7986  0.3020
 2726SOL    HW1 9077   5.114   6.457   4.015 -0.1846 -0.8485 -0.0152
 2726SOL    HW2 9078   5.157   6.526   3.874  1.4112 -1.0596  0.3488
 2727SOL     OW 9079   0.660   4.651   2.721 -0.0810 -0.4391 -0.2377
 2727SOL    HW1 9080   0.632   4.600   2.802  0.5523 -0.0612  0.2268
 2727SOL    HW2 9081   0.760   4.660   2.719  0.0731 -2.0285 -2.0363
 2728SOL     OW 9082   0.729   6.240   0.150 -0.4636 -0.0846  0.3424
 2728SOL    HW1 9083   0.694   6.250   0.243  1.6486  0.4031  1.1478
 2728SOL    HW2 9084   0.747   6.331   0.111 -0.9490 -0.2968 -0.4054
 2729SOL     OW 9085   0.421   3.280   0.389 -0.3451  0.6946  0.0860
 2729SOL    HW1 9086   0.430   3.231   0.302 -0.7283  0.1807  0.3311
 2729SOL    HW2 9087   0.329   3.316   0.397 -1.7854 -2.9036  2.1169
 2730SOL     OW 9088   2.345   3.240   0.262  0.0047 -0.0801  0.3469
 2730SOL    HW1 9089   2.278   3.313   0.275 -1.0620 -1.2348  1.6651
 2730SOL    HW2 9090   2.397   3.257   0.179  0.5012  2.7075  1.1142
 2731SOL     OW 9091   2.085   2.144   6.809 -0.1805 -0.3619 -0.1961
 2731SOL    HW1 9092   1.990   2.122   6.785  0.1810  0.3475 -2.4436
 2731SOL    HW2 9093   2.089   2.237   6.846 -0.3954 -0.5584  0.3413
 2732SOL     OW 9094   5.639   2.188   4.038 -0.0513 -0.1672 -0.3003
 2732SOL    HW1 9095   5.703   2.125   3.994  0.7716  0.9721 -0.7533
 2732SOL    HW2 9096   5.688   2.247   4.102 -1.0897 -1.1890  1.5211
 2733SOL     OW 9097   3.252   0.470   0.384  0.2455 -0.1767  0.2351
 2733SOL    HW1 9098   3.242   0.558   0.337  0.9329 -0.3120 -0.1870
 2733SOL    HW2 9099   3.162   0.427   0.395 -0.3095  1.3051  1.9157
 2734SOL     OW 9100   3.675   0.987   3.942  0.1305  0.2520 -0.3041
 2734SOL    HW1 9101   3.643   0.925   3.870 -0.9379  1.3203 -0.7845
 2734SOL    HW2 9102   3.605   1.054   3.961  1.7014  2.0894 -0.6716
 2735SOL     OW 9103   0.933   5.908   6.956  0.1153 -0.1023 -0.0751
 2735SOL    HW1 9104   0.938   5.809   6.948  0.1777 -0.0547 -0.6695
 2735SOL    HW2 9105   0.977   5.951   6.877  2.6183  0.4327  1.5096
 2736SOL     OW 9106   4.623   0.912   1.654  0.3549 -0.3518 -0.2387
 2736SOL    HW1 9107   4.548   0.902   1.719 -1.2829  1.6598 -1.6928
 2736SOL    HW2 9108   4.697   0.965   1.696 -1.0107  1.6116 -0.1572
 2737SOL     OW 9109   3.558   3.401   4.901  0.6193  0.0298  0.4583
 2737SOL    HW1 9110   3.503   3.344   4.839  1.3431 -0.6529  0.4274
 2737SOL    HW2 9111   3.648   3.416   4.860  0.0346  2.2828 -0.1315
 2738SOL     OW 9112   0.162   2.843   5.359  0.9067  0.2636 -0.1194
 2738SOL    HW1 9113   0.129   2.937   5.350  0.6523  0.2175  0.2978
 2738SOL    HW2 9114   0.112   2.784   5.294  0.7587  0.3424 -0.0781
 2739SOL     OW 9115   2.593   4.893   6.506 -0.5921  0.5150 -0.4299
 2739SOL    HW1 9116   2.624   4.812   6.457 -0.6031  1.3892 -1.9441
 2739SOL    HW2 9117   2.642   4.974   6.472  0.0973  1.0473  1.6825
 2740SOL     OW 9118   0.424   2.002   5.881  0.0269  0.5848  0.1463
 2740SOL    HW1 9119   0.387   2.062   5.810 -0.4276  2.2306  1.6811
 2740SOL    HW2 9120   0.518   2.029   5.903  0.2271 -0.0227  0.0634
 2741SOL     OW 9121   2.364   2.133   5.533 -0.0615  0.4670 -0.1735
 2741SOL    HW1 9122   2.277   2.182   5.542  0.1648  1.0626 -1.1052
 2741SOL    HW2 9123   2.367   2.089   5.443  0.2393 -0.2773  0.1952
 2742SOL     OW 9124   2.919   6.944   4.432  0.4236 -0.5530 -0.2248
 2742SOL    HW1 9125   2.986   6.897   4.489 -1.0225 -0.8242  1.3035
 2742SOL    HW2 9126   2.841   6.883   4.414 -2.4780  1.6150  3.4857
 2743SOL     OW 9127   4.941   4.288   1.047  0.1460 -0.0080  0.0998
 2743SOL    HW1 9128   4.969   4.197   1.076 -0.5140 -0.8211 -1.7132
 2743SOL    HW2 9129   4.850   4.308   1.084  0.2588 -0.1052  0.4336
 2744SOL     OW 9130   4.878   6.403   1.133 -0.4076  0.0421 -0.0709
 2744SOL    HW1 9131   4.841   6.313   1.157 -0.7413 -0.6500 -2.8661
 2744SOL    HW2 9132   4.818   6.475   1.167 -2.5597 -0.9595 -1.5484
 2745SOL     OW 9133   1.634   5.732   4.322 -0.9777 -0.0364  0.2803
 2745SOL    HW1 9134   1.681   5.651   4.286 -0.4455  0.8385 -1.0845
 2745SOL    HW2 9135   1.699   5.809   4.325 -2.1033  1.0232 -1.0190
 2746SOL     OW 9136   0.450   2.403   4.326 -0.0071  0.0434 -0.0760
 2746SOL    HW1 9137   0.393   2.450   4.258  0.2752  0.1675 -0.2299
 2746SOL    HW2 9138   0.445   2.452   4.413  0.0945  0.2214 -0.1694
 2747SOL     OW 9139   5.617   7.002   4.444  0.6452  0.4340  0.6719
 2747SOL    HW1 9140   5.563   7.023   4.362  1.9252  1.4746  0.0667
 2747SOL    HW2 9141   5.558   6.959   4.512 -0.1160 -2.1684 -1.4213
 2748SOL     OW 9142   6.596   2.486   6.882 -0.1153  0.0125  0.4007
 2748SOL    HW1 9143   6.674   2.455   6.827  2.0269  5.4042 -0.2109
 2748SOL    HW2 9144   6.513   2.485   6.826  0.1788 -2.3202 -0.1134
 2749SOL     OW 9145   6.822   5.212   3.094 -0.0848 -0.3605  0.0753
 2749SOL    HW1 9146   6.899   5.211   3.030  2.3007  0.3651  2.7332
 2749SOL    HW2 9147   6.739   5.241   3.046  1.2963 -0.8463 -2.8411
 2750SOL     OW 9148   1.916   0.261   0.842 -0.4788  0.4039  0.0523
 2750SOL    HW1 9149   1.889   0.166   0.831  1.3075 -0.1656  0.3223
 2750SOL    HW2 9150   1.842   0.312   0.887 -0.4812 -1.4398  2.3190
 2751SOL     OW 9151   1.712   2.516   5.681 -0.2626 -0.3708 -0.0721
 2751SOL    HW1 9152   1.640   2.486   5.744  1.6111 -0.1467  2.3263
 2751SOL    HW2 9153   1.734   2.442   5.618 -1.0417 -1.2421  0.6400
 2752SOL     OW 9154   1.223   6.509   0.095 -0.6806  0.4967  0.2485
 2752SOL    HW1 9155   1.256   6.433   0.039 -0.3795  0.9643 -0.2076
 2752SOL    HW2 9156   1.268   6.507   0.184  0.7289  1.2262 -0.4218
 2753SOL     OW 9157   2.567   6.401   3.471  0.1565  0.4846 -0.2597
 2753SOL    HW1 9158   2.664   6.402   3.495  0.2579  0.0413 -0.6412
 2753SOL    HW2 9159   2.519   6.470   3.525  0.7707  1.0617 -0.4420
 2754SOL     OW 9160   6.929   6.177   3.787  0.2947  0.6432  0.0646
 2754SOL    HW1 9161   6.970   6.267   3.773  0.1964  0.9125  1.3675
 2754SOL    HW2 9162   6.998   6.115   3.824 -0.0466  0.6413  0.7086
 2755SOL     OW 9163   4.262   0.108   1.657  0.8808  0.6177  0.2434
 2755SOL    HW1 9164   4.176   0.124   1.705  0.2233  0.6666 -0.9201
 2755SOL    HW2 9165   4.316   0.041   1.708 -0.9165 -1.2956 -0.2545
 2756SOL     OW 9166   0.581   1.355   5.998 -0.3372  0.4631 -0.4205
 2756SOL    HW1 9167   0.592   1.403   5.911 -3.0204  1.0559 -0.5032
 2756SOL    HW2 9168   0.511   1.400   6.053 -1.3464 -2.0196  0.4778
 2757SOL     OW 9169   4.117   4.785   5.441 -0.2523  0.1817  0.0648
 2757SOL    HW1 9170   4.146   4.791   5.537  0.6358  0.3523 -0.2087
 2757SOL    HW2 9171   4.051   4.858   5.422 -1.5659 -0.7326  0.9203
 2758SOL     OW 9172   0.051   1.722   6.554  0.0451  0.5643  0.5841
 2758SOL    HW1 9173  -0.023   1.739   6.620  0.5091  2.4781  0.6446
 2758SOL    HW2 9174   0.015   1.724   6.461 -0.2380 -0.0927  0.6707
 2759SOL     OW 9175   3.643   3.519   4.214 -0.0251  0.3438  0.0391
 2759SOL    HW1 9176   3.730   3.506   4.166 -0.3211 -1.1051 -0.1512
 2759SOL    HW2 9177   3.596   3.598   4.176  1.5569  1.6772  0.6974
 2760SOL     OW 9178   3.305   5.413   1.783 -0.2808 -0.1872  0.4212
 2760SOL    HW1 9179   3.345   5.486   1.839  1.0102  0.1318 -0.8563
 2760SOL    HW2 9180   3.290   5.447   1.690  1.6155 -1.8716 -0.5968
 2761SOL     OW 9181   0.894   4.828   3.388 -0.5051  0.1079 -0.1903
 2761SOL    HW1 9182   0.843   4.762   3.333 -0.2590  0.8075 -1.2968
 2761SOL    HW2 9183   0.854   4.834   3.480 -1.3015 -0.6438 -0.4800
 2762SOL     OW 9184   4.085   5.215   2.691 -0.4320  0.1157  0.3518
 2762SOL    HW1 9185   4.053   5.298   2.736 -0.0757 -0.3020  1.4111
 2762SOL    HW2 9186   4.179   5.229   2.658 -0.2948  0.0842  0.7146
 2763SOL     OW 9187   5.987   6.856   3.250  0.0283 -0.4052  0.3357
 2763SOL    HW1 9188   5.927   6.776   3.239  1.0364 -1.0323 -0.8192
 2763SOL    HW2 9189   6.024   6.882   3.161  2.0240 -0.4775  1.0937
 2764SOL     OW 9190   6.025   3.549   2.231 -0.1910 -0.2883  0.1868
 2764SOL    HW1 9191   6.068   3.500   2.155 -1.6313 -0.8195 -0.3343
 2764SOL    HW2 9192   5.929   3.567   2.208 -0.7792 -0.8292  2.0534
 2765SOL     OW 9193   4.921   1.043   1.465  0.3294 -0.3129 -0.5392
 2765SOL    HW1 9194   4.907   1.008   1.557 -0.0074 -1.7674 -1.1248
 2765SOL    HW2 9195   5.008   1.008   1.429 -0.2648 -1.0090 -1.3297
 2766SOL     OW 9196   5.336   0.847   0.620  0.2461 -0.2719 -0.6490
 2766SOL    HW1 9197   5.291   0.936   0.622 -0.2143 -0.5134 -0.0723
 2766SOL    HW2 9198   5.355   0.817   0.714  0.5076 -0.7261 -0.8425
 2767SOL     OW 9199   6.812   6.889   6.199 -0.1297  0.2650 -0.4147
 2767SOL    HW1 9200   6.852   6.807   6.239  0.2495  1.3393  1.5251
 2767SOL    HW2 9201   6.714   6.892   6.219 -0.0865  0.4372 -0.2300
 2768SOL     OW 9202   3.661   0.355   2.670  0.0438 -0.4555 -0.2572
 2768SOL    HW1 9203   3.698   0.444   2.697 -0.5338  0.6268 -2.7165
 2768SOL    HW2 9204   3.721   0.312   2.603 -0.6471 -1.0146 -0.5384
 2769SOL     OW 9205   1.645   4.102   5.951 -0.6798  0.5185  0.0603
 2769SOL    HW1 9206   1.727   4.158   5.964 -0.0198 -0.6382  1.0426
 2769SOL    HW2 9207   1.672   4.006   5.937 -1.7985  0.3791 -1.3579
 2770SOL     OW 9208   3.266   4.933   6.667  0.5774 -0.1545 -0.4482
 2770SOL    HW1 9209   3.166   4.933   6.672  0.4664 -2.0849 -1.7552
 2770SOL    HW2 9210   3.295   4.919   6.573  2.0716 -0.5648  0.0462
 2771SOL     OW 9211   3.757   4.833   6.312  0.3509  0.5343  0.1275
 2771SOL    HW1 9212   3.800   4.749   6.280  2.2623  1.4339  0.2126
 2771SOL    HW2 9213   3.695   4.868   6.242  2.3834  1.0133 -1.5156
 2772SOL     OW 9214   5.798   2.703   2.161 -0.8915  0.5545 -0.2816
 2772SOL    HW1 9215   5.758   2.774   2.218 -1.4136  0.0006  0.0574
 2772SOL    HW2 9216   5.732   2.629   2.148 -0.7262  0.5897 -1.4674
 2773SOL     OW 9217   4.576   0.080   6.695 -0.3579 -0.4263  0.3721
 2773SOL    HW1 9218   4.661   0.055   6.649 -0.2389  2.3842 -1.1575
 2773SOL    HW2 9219   4.588   0.072   6.794  1.4159 -0.8402  0.1511
 2774SOL     OW 9220   6.145   5.829   5.893 -0.2992  0.3011  0.3915
 2774SOL    HW1 9221   6.178   5.883   5.816  0.3571 -0.1920  0.3165
 2774SOL    HW2 9222   6.219   5.772   5.928 -0.5856  0.5120  1.3919
 2775SOL     OW 9223   0.086   2.176   4.130  0.4042  0.3411  0.1782
 2775SOL    HW1 9224   0.027   2.167   4.051  0.7971 -2.4511  0.0948
 2775SOL    HW2 9225   0.050   2.120   4.205  2.2056 -0.4287  0.5283
 2776SOL     OW 9226   6.469   5.077   6.133  0.0063  0.2027 -0.5031
 2776SOL    HW1 9227   6.467   5.063   6.034  2.7210  0.1164 -0.6181
 2776SOL    HW2 9228   6.466   5.175   6.153  0.6616  0.2811 -0.7572
 2777SOL     OW 9229   3.525   2.025   2.812 -0.1036 -0.3512 -0.4567
 2777SOL    HW1 9230   3.487   2.059   2.726 -0.5361 -0.4612 -0.3154
 2777SOL    HW2 9231   3.618   2.058   2.824  0.7472 -2.0089 -1.9825
 2778SOL     OW 9232   1.994   6.594   5.824  0.3480  0.1103  0.6487
 2778SOL    HW1 9233   2.090   6.565   5.822  0.1374 -0.6524  0.9276
 2778SOL    HW2 9234   1.960   6.603   5.730  0.2472 -1.2355  0.5257
 2779SOL     OW 9235   2.880   0.640   4.417  0.4134  0.1312 -0.2948
 2779SOL    HW1 9236   2.828   0.583   4.354  1.9143 -1.4252 -0.1919
 2779SOL    HW2 9237   2.885   0.597   4.507 -0.0447  1.3901  0.3721
 2780SOL     OW 9238   0.959   6.318   4.536 -0.2318  0.0951  0.1494
 2780SOL    HW1 9239   1.029   6.390   4.532 -2.4631  2.3462 -0.4119
 2780SOL    HW2 9240   0.944   6.292   4.631 -0.2758  1.2871  0.4784
 2781SOL     OW 9241   6.358   0.827   2.998 -0.8562  0.1681 -0.1162
 2781SOL    HW1 9242   6.366   0.907   3.057 -0.0010  1.2288 -1.6133
 2781SOL    HW2 9243   6.268   0.826   2.955 -1.3413 -0.3999  0.8956
 2782SOL     OW 9244   3.262   5.988   4.331 -0.0510 -0.1970 -0.1723
 2782SOL    HW1 9245   3.333   6.055   4.353 -0.9235  1.0455 -0.9796
 2782SOL    HW2 9246   3.288   5.937   4.249  0.7528 -1.0807  0.6134
 2783SOL     OW 9247   6.436   3.045   0.639 -0.4990  0.5055 -0.7270
 2783SOL    HW1 9248   6.367   2.973   0.634 -0.0471 -0.0385  0.4598
 2783SOL    HW2 9249   6.433   3.087   0.730 -0.5694  1.8021 -1.3144
 2784SOL     OW 9250   1.228   7.009   1.398  0.3036  0.0098 -0.4886
 2784SOL    HW1 9251   1.156   7.064   1.441  1.1993  0.5739  0.3160
 2784SOL    HW2 9252   1.317   7.037   1.434  0.8409 -1.4391 -0.6465
 2785SOL     OW 9253   5.131   1.742   4.274 -0.2641  0.3401 -0.3100
 2785SOL    HW1 9254   5.098   1.795   4.353 -0.6011  0.1305 -0.3073
 2785SOL    HW2 9255   5.098   1.648   4.281  2.2715 -0.5625  0.9206
 2786SOL     OW 9256   6.644   0.298   1.592 -0.4227 -0.4679  0.2365
 2786SOL    HW1 9257   6.658   0.338   1.501 -0.0375 -1.2518 -0.0529
 2786SOL    HW2 9258   6.702   0.218   1.603  0.1606  0.1084  1.4979
 2787SOL     OW 9259   6.332   6.235   5.308 -0.5325 -0.1720 -0.5316
 2787SOL    HW1 9260   6.286   6.286   5.235 -0.4115  1.6103  0.5690
 2787SOL    HW2 9261   6.425   6.211   5.279 -1.1218 -1.2111 -1.6591
 2788SOL     OW 9262   2.704   6.235   6.826 -0.4908  0.1887 -0.4040
 2788SOL    HW1 9263   2.740   6.307   6.767  0.5533  0.3393  0.3902
 2788SOL    HW2 9264   2.753   6.150   6.808 -0.4976  0.1173 -0.0911
 2789SOL     OW 9265   1.751   2.298   4.266 -0.0774 -0.1089 -0.0956
 2789SOL    HW1 9266   1.725   2.390   4.295  1.4981  0.0941  0.7752
 2789SOL    HW2 9267   1.679   2.259   4.209 -1.8182  0.7762  1.3991
 2790SOL     OW 9268   0.095   4.649   7.006 -0.3764  0.8831 -0.4271
 2790SOL    HW1 9269   0.037   4.668   6.926  1.5444 -0.9073 -2.3660
 2790SOL    HW2 9270   0.104   4.551   7.018  1.3514  1.1209  0.4882
 2791SOL     OW 9271   0.563   4.354   6.020  0.5799 -0.3939  0.2137
 2791SOL    HW1 9272   0.589   4.449   6.003 -1.3026 -0.2557 -2.5355
 2791SOL    HW2 9273   0.635   4.293   5.986  0.4822  0.0269 -0.7646
 2792SOL     OW 9274   4.549   1.421   5.915  0.3592 -0.0440  0.3926
 2792SOL    HW1 9275   4.529   1.447   6.009  1.4331  0.5200  0.4819
 2792SOL    HW2 9276   4.576   1.502   5.863 -2.4252  0.0896 -1.0488
 2793SOL     OW 9277   5.680   5.620   5.473  0.1069 -0.1719 -0.5134
 2793SOL    HW1 9278   5.693   5.664   5.561 -2.6241  0.0813 -0.1570
 2793SOL    HW2 9279   5.594   5.651   5.432  0.9584 -0.7878 -2.9856
 2794SOL     OW 9280   0.937   1.360   0.179  0.1812 -0.4103 -0.1688
 2794SOL    HW1 9281   0.924   1.278   0.123  0.1063 -0.0050 -0.7473
 2794SOL    HW2 9282   0.982   1.334   0.265 -0.2225 -1.1198 -0.1636
 2795SOL     OW 9283   1.455   2.034   2.812  0.0074  0.1397  0.7058
 2795SOL    HW1 9284   1.383   2.006   2.748  0.4501 -0.1895  0.3396
 2795SOL    HW2 9285   1.543   2.035   2.765  0.2644  0.4167  1.1795
 2796SOL     OW 9286   3.560   5.084   0.651  0.0212  0.2218 -0.3263
 2796SOL    HW1 9287   3.657   5.107   0.646  0.2556 -0.7854 -0.6344
 2796SOL    HW2 9288   3.549   4.987   0.672 -0.9336  0.8735  2.7131
 2797SOL     OW 9289   4.898   4.517   6.304 -0.6020  0.2340 -0.5730
 2797SOL    HW1 9290   4.874   4.427   6.268 -3.5540  1.1601 -1.2260
 2797SOL    HW2 9291   4.845   4.536   6.386 -1.6791  2.1269 -1.6177
 2798SOL     OW 9292   0.131   2.257   1.925 -0.1706 -0.2045  0.1506
 2798SOL    HW1 9293   0.155   2.348   1.890 -1.3797  0.6125  1.3250
 2798SOL    HW2 9294   0.040   2.232   1.892  0.7531 -1.6645 -1.3618
 2799SOL     OW 9295   4.075   6.659   3.140 -0.1457 -0.2479  0.5405
 2799SOL    HW1 9296   3.991   6.608   3.154 -1.5977  2.0545  0.7712
 2799SOL    HW2 9297   4.077   6.696   3.047  0.3474  0.1416  0.6986
 2800SOL     OW 9298   4.844   2.680   6.354 -0.4293  0.5507 -0.1090
 2800SOL    HW1 9299   4.848   2.668   6.453 -1.6597 -1.1138 -0.2234
 2800SOL    HW2 9300   4.772   2.622   6.316  0.0662  1.1012 -2.0003
 2801SOL     OW 9301   5.778   3.646   2.080  0.5224  0.4789 -0.5971
 2801SOL    HW1 9302   5.696   3.678   2.126  0.2315 -0.4421 -0.4578
 2801SOL    HW2 9303   5.775   3.546   2.072  1.9368  0.3721  0.0049
 2802SOL     OW 9304   2.837   6.516   5.877  0.1440  0.5590 -0.2120
 2802SOL    HW1 9305   2.902   6.448   5.845  1.2308  1.9130 -1.0016
 2802SOL    HW2 9306   2.752   6.509   5.823 -0.1161 -0.7379  0.3401
 2803SOL     OW 9307   3.869   2.289   5.357 -0.2061 -0.0090 -0.3236
 2803SOL    HW1 9308   3.906   2.245   5.276 -1.5521  0.6789 -1.3520
 2803SOL    HW2 9309   3.900   2.383   5.362 -0.8332  0.2154 -0.5444
 2804SOL     OW 9310   5.912   3.491   2.918  0.4630 -0.3422 -0.0815
 2804SOL    HW1 9311   5.848   3.422   2.952 -0.7098  0.1865 -1.1174
 2804SOL    HW2 9312   5.871   3.582   2.928  0.7667 -0.0443 -1.3481
 2805SOL     OW 9313   4.931   5.515   6.189  0.6029 -0.1330 -0.0776
 2805SOL    HW1 9314   5.001   5.451   6.157 -0.1691 -2.1175  1.9865
 2805SOL    HW2 9315   4.946   5.604   6.146  2.4012 -1.3453 -2.1950
 2806SOL     OW 9316   1.195   3.196   3.953  0.4251  0.6005  0.2491
 2806SOL    HW1 9317   1.132   3.127   3.988 -0.8317  0.4712 -2.0736
 2806SOL    HW2 9318   1.281   3.191   4.004 -0.1675 -1.6425  1.1579
 2807SOL     OW 9319   5.139   1.000   3.181  0.0680  0.2861 -0.1476
 2807SOL    HW1 9320   5.197   1.079   3.198 -1.1495  1.3391 -0.7197
 2807SOL    HW2 9321   5.044   1.023   3.202 -0.4593 -0.6856 -1.3156
 2808SOL     OW 9322   5.235   6.731   6.208  0.0474  0.5672 -0.1051
 2808SOL    HW1 9323   5.306   6.703   6.272  1.3666 -1.5863 -2.3652
 2808SOL    HW2 9324   5.149   6.685   6.231 -0.0524  1.3492  1.2182
 2809SOL     OW 9325   1.015   6.590   0.615 -0.4127  0.2014  0.7392
 2809SOL    HW1 9326   1.026   6.491   0.602 -0.8968  0.2608 -0.1950
 2809SOL    HW2 9327   1.103   6.635   0.596  0.1661 -0.1437  2.4279
 2810SOL     OW 9328   6.807   6.600   1.214  0.0119  0.3670  0.1412
 2810SOL    HW1 9329   6.707   6.611   1.212 -0.0675  0.4450  2.4667
 2810SOL    HW2 9330   6.850   6.690   1.211  0.1677  0.3003 -3.0814
 2811SOL     OW 9331   2.585   6.325   0.910 -0.3973 -0.3887  0.2198
 2811SOL    HW1 9332   2.614   6.394   0.977  0.1332 -1.8407  1.5303
 2811SOL    HW2 9333   2.659   6.308   0.845 -0.1655 -0.4406  0.4974
 2812SOL     OW 9334   2.384   6.809   0.524  0.2557 -0.5200  0.4566
 2812SOL    HW1 9335   2.468   6.834   0.476  0.0121 -0.9266 -0.1862
 2812SOL    HW2 9336   2.378   6.862   0.609  0.4250  0.6007 -0.2032
 2813SOL     OW 9337   6.233   3.988   1.684 -0.3931 -0.0723 -0.3760
 2813SOL    HW1 9338   6.159   3.949   1.739  0.0717 -1.6752 -0.8468
 2813SOL    HW2 9339   6.248   3.932   1.603  1.6419 -0.0520 -0.0696
 2814SOL     OW 9340   1.146   4.960   6.264  0.3230 -0.0496 -0.1624
 2814SOL    HW1 9341   1.213   5.029   6.239  0.8084  0.0107  1.2226
 2814SOL    HW2 9342   1.189   4.869   6.261  0.0759 -0.1555 -0.6098
 2815SOL     OW 9343   0.891   5.427   5.019 -0.7225 -0.0551 -0.0459
 2815SOL    HW1 9344   0.907   5.334   4.984  1.0238 -1.0709  3.0189
 2815SOL    HW2 9345   0.822   5.424   5.091 -1.7282  1.3452 -0.9074
 2816SOL     OW 9346   1.203   5.360   5.614  0.1078 -0.0728 -0.2733
 2816SOL    HW1 9347   1.201   5.432   5.545  1.5160  2.8444  2.4750
 2816SOL    HW2 9348   1.113   5.354   5.657  0.0816  0.3615 -0.2558
 2817SOL     OW 9349   3.262   6.718   1.558 -0.2962  0.2099 -0.0870
 2817SOL    HW1 9350   3.281   6.810   1.592  1.1606  0.0666 -0.4643
 2817SOL    HW2 9351   3.310   6.703   1.471 -0.8668 -0.7564 -0.2580
 2818SOL     OW 9352   1.779   1.794   1.922 -0.2914 -0.5609 -0.0335
 2818SOL    HW1 9353   1.789   1.824   1.827  1.9732  1.1670  0.6493
 2818SOL    HW2 9354   1.697   1.836   1.962  0.7360  1.7786 -0.2222
 2819SOL     OW 9355   5.758   0.233   1.734 -0.0055  0.1587  0.2854
 2819SOL    HW1 9356   5.845   0.248   1.781  0.2828  1.4842 -0.6297
 2819SOL    HW2 9357   5.757   0.284   1.648 -2.1279  1.0924  0.8088
 2820SOL     OW 9358   1.722   2.023   2.713  0.5427 -0.0231  0.0710
 2820SOL    HW1 9359   1.816   2.006   2.685  0.6135 -0.7875  0.7346
 2820SOL    HW2 9360   1.683   2.096   2.657  1.4912  0.2295 -0.2741
 2821SOL     OW 9361   3.641   1.511   6.195  0.4197  0.4712 -0.6238
 2821SOL    HW1 9362   3.649   1.591   6.255  1.3657  0.3854 -0.6123
 2821SOL    HW2 9363   3.709   1.442   6.222 -2.0898 -1.5237  1.0816
 2822SOL     OW 9364   5.210   3.734   0.255 -0.1927 -0.2597 -0.3810
 2822SOL    HW1 9365   5.222   3.679   0.173  0.4282 -2.1949  0.9355
 2822SOL    HW2 9366   5.113   3.754   0.268 -0.3680 -0.5561 -1.1880
 2823SOL     OW 9367   5.144   4.570   4.427  0.1648  0.0660 -0.0426
 2823SOL    HW1 9368   5.173   4.588   4.521 -0.6320 -1.1378  0.4519
 2823SOL    HW2 9369   5.204   4.619   4.364  0.6738  0.9418  1.0880
 2824SOL     OW 9370   6.741   4.975   0.637 -0.1362 -0.1760 -0.7430
 2824SOL    HW1 9371   6.783   5.064   0.616 -0.1181 -0.5689 -2.6070
 2824SOL    HW2 9372   6.810   4.903   0.627 -0.1054 -0.4200  0.9398
 2825SOL     OW 9373   3.449   1.427   4.416 -0.2214 -0.5967 -0.0418
 2825SOL    HW1 9374   3.379   1.390   4.355  0.3613 -0.4258 -0.8321
 2825SOL    HW2 9375   3.455   1.526   4.404 -0.4863 -0.4786  0.7108
 2826SOL     OW 9376   3.174   1.314   5.856 -0.2169  0.1038  0.3745
 2826SOL    HW1 9377   3.206   1.405   5.882 -0.9454  0.7942 -1.0040
 2826SOL    HW2 9378   3.242   1.246   5.881 -0.0844  0.8811  2.3342
 2827SOL     OW 9379   0.028   2.007   1.014  0.6638  0.7210 -0.5953
 2827SOL    HW1 9380   0.014   1.947   0.935 -0.2145  0.6680 -0.4140
 2827SOL    HW2 9381   0.124   2.003   1.043  0.6361 -0.5596 -0.6197
 2828SOL     OW 9382   2.728   2.552   0.234  0.0739 -0.0422 -0.2324
 2828SOL    HW1 9383   2.735   2.501   0.319 -0.8691  1.1752  0.6069
 2828SOL    HW2 9384   2.813   2.602   0.216 -0.2816  1.0052  0.8785
 2829SOL     OW 9385   4.397   4.995   1.472  0.2073 -0.4099 -0.0290
 2829SOL    HW1 9386   4.422   5.022   1.564  1.9269 -0.2023 -0.5175
 2829SOL    HW2 9387   4.477   4.956   1.426 -0.4066  0.1918 -1.6808
 2830SOL     OW 9388   2.138   4.115   5.244 -0.4601 -0.1071  0.5086
 2830SOL    HW1 9389   2.143   4.214   5.233 -0.0063 -0.2293 -0.4238
 2830SOL    HW2 9390   2.199   4.070   5.179 -3.6131 -1.1480 -2.0030
 2831SOL     OW 9391   6.419   3.721   0.799  0.3634  0.2337  0.0257
 2831SOL    HW1 9392   6.413   3.819   0.818  0.3755  0.0088  1.3126
 2831SOL    HW2 9393   6.475   3.677   0.870  1.2455 -0.5541 -1.1264
 2832SOL     OW 9394   1.587   2.760   6.997  0.2078 -0.3593  0.1479
 2832SOL    HW1 9395   1.613   2.734   6.904  1.9661  0.9615  0.2158
 2832SOL    HW2 9396   1.587   2.679   7.055  1.3282 -0.8629 -0.5234
 2833SOL     OW 9397   5.816   1.744   3.182 -0.2031  0.0309 -0.2510
 2833SOL    HW1 9398   5.907   1.724   3.146 -1.2047 -1.1445 -2.2992
 2833SOL    HW2 9399   5.763   1.793   3.113 -1.0854  0.8591  0.9825
 2834SOL     OW 9400   1.916   0.463   4.197 -0.4369  0.1893 -0.4540
 2834SOL    HW1 9401   1.917   0.392   4.267  0.0277  0.9358  0.3258
 2834SOL    HW2 9402   1.994   0.524   4.211  0.1555 -0.1233 -2.1470
 2835SOL     OW 9403   0.669   0.627   5.811 -0.0121  0.4421  0.0369
 2835SOL    HW1 9404   0.713   0.537   5.809  1.4876  1.1447 -0.4786
 2835SOL    HW2 9405   0.730   0.693   5.856 -0.1408  1.6449 -1.4536
 2836SOL     OW 9406   3.996   0.089   1.685 -0.0986  0.5368 -0.4588
 2836SOL    HW1 9407   3.939   0.106   1.604 -1.3160 -1.0277  0.0091
 2836SOL    HW2 9408   3.971   0.001   1.725 -0.9561  2.1108  2.8079
 2837SOL     OW 9409   6.938   3.512   1.689 -0.1014  0.5259 -0.7333
 2837SOL    HW1 9410   6.975   3.604   1.695 -0.2315  0.5976 -1.0091
 2837SOL    HW2 9411   6.971   3.457   1.766  1.8075  0.1475 -1.7878
 2838SOL     OW 9412   6.043   3.152   4.429  0.0127  0.2867 -0.3174
 2838SOL    HW1 9413   5.954   3.160   4.474  0.7304 -0.4643  1.3022
 2838SOL    HW2 9414   6.033   3.099   4.345 -0.5573 -2.8087  1.5541
 2839SOL     OW 9415   6.778   1.870   5.329  0.5057 -0.1307 -0.4059
 2839SOL    HW1 9416   6.821   1.960   5.335 -3.7648  2.1499 -0.0950
 2839SOL    HW2 9417   6.724   1.864   5.245 -2.4447 -0.6776  1.3755
 2840SOL     OW 9418   0.376   4.429   5.230 -0.2276  0.0353 -0.0512
 2840SOL    HW1 9419   0.280   4.429   5.255 -0.3254  0.4656 -0.4057
 2840SOL    HW2 9420   0.420   4.511   5.267  0.5670 -1.2958  2.1487
 2841SOL     OW 9421   5.448   5.518   3.632 -0.2949 -0.4157  0.1871
 2841SOL    HW1 9422   5.386   5.591   3.605 -0.6197  0.5209  3.0871
 2841SOL    HW2 9423   5.542   5.553   3.637  0.3533 -1.4326 -2.6606
 2842SOL     OW 9424   1.565   5.975   4.674  0.5151 -0.3286  0.1815
 2842SOL    HW1 9425   1.514   5.984   4.760  0.8692 -1.9718  0.6009
 2842SOL    HW2 9426   1.512   5.919   4.610  0.8364 -0.2103 -0.1891
 2843SOL     OW 9427   1.043   1.670   2.435  0.1246  0.1443  0.2563
 2843SOL    HW1 9428   1.042   1.707   2.527  0.3854  0.6686  0.0554
 2843SOL    HW2 9429   1.089   1.735   2.374 -1.0626  0.3335 -0.4642
 2844SOL     OW 9430   5.482   2.899   6.418  0.1150 -0.0571 -0.2803
 2844SOL    HW1 9431   5.474   2.847   6.503 -0.5286 -0.3014 -0.4898
 2844SOL    HW2 9432   5.548   2.855   6.358  0.3185 -0.0703 -0.0487
 2845SOL     OW 9433   4.549   2.415   2.170  0.3384 -0.1812 -0.0690
 2845SOL    HW1 9434   4.533   2.424   2.071  1.2171  0.1764 -0.1969
 2845SOL    HW2 9435   4.569   2.505   2.208  0.9824 -0.4494  0.2422
 2846SOL     OW 9436   6.022   0.824   0.405  0.2675  0.6633  1.0522
 2846SOL    HW1 9437   5.950   0.818   0.335  0.3598  1.6192  0.8574
 2846SOL    HW2 9438   6.008   0.906   0.460  1.3409  1.0025  0.8540
 2847SOL     OW 9439   6.254   3.399   4.637 -0.3903  0.4872  0.5663
 2847SOL    HW1 9440   6.297   3.393   4.727  0.9926  1.6254  0.0163
 2847SOL    HW2 9441   6.190   3.475   4.635  0.6574  1.3867  0.1923
 2848SOL     OW 9442   0.312   3.925   5.941 -0.0926  0.5402 -0.1356
 2848SOL    HW1 9443   0.310   3.998   6.010  0.5212  2.0226 -1.6217
 2848SOL    HW2 9444   0.400   3.926   5.895  0.1462 -1.5597  0.1840
 2849SOL     OW 9445   6.603   1.647   1.832  0.1844 -0.3957 -0.1302
 2849SOL    HW1 9446   6.663   1.655   1.753 -1.3616  1.5654 -1.2067
 2849SOL    HW2 9447   6.620   1.723   1.895 -0.1336 -0.6716  0.2973
 2850SOL     OW 9448   5.688   3.770   1.270 -0.1791  0.4981 -0.3486
 2850SOL    HW1 9449   5.654   3.835   1.202  0.8248  0.6609 -0.7120
 2850SOL    HW2 9450   5.787   3.767   1.266 -0.2068 -1.0848 -0.3412
 2851SOL     OW 9451   3.551   2.138   1.657 -0.1629  0.1327 -0.6406
 2851SOL    HW1 9452   3.589   2.194   1.730 -0.2033 -0.6890  0.0238
 2851SOL    HW2 9453   3.616   2.133   1.581  0.0291  0.6958 -0.5148
 2852SOL     OW 9454   1.398   4.253   5.570  0.3818  0.7167 -0.3982
 2852SOL    HW1 9455   1.345   4.337   5.558 -2.0108 -0.6637 -0.1357
 2852SOL    HW2 9456   1.489   4.275   5.605 -0.9756  3.0696  1.9255
 2853SOL     OW 9457   6.803   5.976   5.191 -0.0236  0.4320  0.8460
 2853SOL    HW1 9458   6.849   5.904   5.243 -2.8067 -0.1397  2.7004
 2853SOL    HW2 9459   6.721   5.938   5.148 -1.1729  2.3100  1.2989
 2854SOL     OW 9460   2.515   0.297   1.829 -0.6373  0.0040 -0.1995
 2854SOL    HW1 9461   2.529   0.214   1.883 -1.9677  0.8003  1.4787
 2854SOL    HW2 9462   2.481   0.370   1.889 -0.8684  1.3418 -1.8915
 2855SOL     OW 9463   2.032   1.037   4.825 -0.3581  0.1848  0.4055
 2855SOL    HW1 9464   1.935   1.042   4.798 -0.3497 -1.1889  0.0333
 2855SOL    HW2 9465   2.050   0.948   4.867  0.8203  0.3104  0.1943
 2856SOL     OW 9466   1.415   6.648   5.501 -0.4872  0.9535  0.0635
 2856SOL    HW1 9467   1.384   6.655   5.406 -0.8756 -1.1180  0.0061
 2856SOL    HW2 9468   1.387   6.560   5.539  2.5732  0.3060  1.0398
 2857SOL     OW 9469   1.047   4.237   5.624 -0.3552 -0.2384 -0.0621
 2857SOL    HW1 9470   1.059   4.315   5.685  0.4707 -0.0182 -0.4879
 2857SOL    HW2 9471   0.950   4.211   5.620 -0.3858 -0.4572  1.5734
 2858SOL     OW 9472   4.620   4.806   3.745  0.5698  0.0281 -0.5635
 2858SOL    HW1 9473   4.611   4.845   3.654 -0.8396 -0.1668 -0.5308
 2858SOL    HW2 9474   4.699   4.846   3.791  0.6691  0.9123 -1.4715
 2859SOL     OW 9475   1.922   6.099   4.233  0.4862  0.5425 -0.1949
 2859SOL    HW1 9476   1.915   6.133   4.139  0.4292 -1.3539 -0.9071
 2859SOL    HW2 9477   1.831   6.094   4.274  0.3111 -0.3469 -0.6825
 2860SOL     OW 9478   1.771   4.877   2.019 -0.1262 -0.0774 -0.0572
 2860SOL    HW1 9479   1.685   4.881   1.968  0.0026 -1.4703 -0.4278
 2860SOL    HW2 9480   1.781   4.787   2.061  1.7574 -0.4160 -1.1110
 2861SOL     OW 9481   4.600   2.680   4.648 -0.2585 -0.3230  0.2007
 2861SOL    HW1 9482   4.533   2.639   4.586 -0.8526 -1.9414  1.8455
 2861SOL    HW2 9483   4.668   2.612   4.674  0.8434  0.7423  0.2065
 2862SOL     OW 9484   3.266   0.116   1.958 -0.3582  0.0736 -0.5570
 2862SOL    HW1 9485   3.230   0.088   1.869  1.8666 -3.1748 -0.6218
 2862SOL    HW2 9486   3.341   0.181   1.944 -1.8163  1.7822 -0.7922
 2863SOL     OW 9487   6.458   2.209   6.852 -0.0161  0.7223  0.4490
 2863SOL    HW1 9488   6.533   2.213   6.920  1.3407 -1.1178 -0.8337
 2863SOL    HW2 9489   6.384   2.270   6.881  1.6430  2.0595  2.1748
 2864SOL     OW 9490   3.481   3.575   5.629 -0.0657  0.0065  0.3841
 2864SOL    HW1 9491   3.504   3.672   5.630 -1.0648  0.2715  2.1110
 2864SOL    HW2 9492   3.560   3.522   5.598  0.4725  1.3572 -0.6316
 2865SOL     OW 9493   6.576   3.888   5.107  0.6031  0.7914 -0.9187
 2865SOL    HW1 9494   6.603   3.982   5.128  1.6886  0.1325  0.8661
 2865SOL    HW2 9495   6.510   3.856   5.175  0.8800 -0.0049 -1.0121
 2866SOL     OW 9496   5.923   6.439   1.784  0.3786  0.1438  0.6393
 2866SOL    HW1 9497   5.904   6.430   1.881  1.5460  2.3523  1.1277
 2866SOL    HW2 9498   5.856   6.501   1.742 -0.8891 -1.7534 -0.2910
 2867SOL     OW 9499   1.252   5.028   1.049 -0.9371 -0.2950  0.2234
 2867SOL    HW1 9500   1.199   5.063   0.972 -0.9617 -0.9820 -0.0777
 2867SOL    HW2 9501   1.267   4.929   1.037 -2.0608 -0.6748  1.7386
 2868SOL     OW 9502   6.199   1.118   0.097  0.2624  0.6762 -0.1376
 2868SOL    HW1 9503   6.292   1.146   0.074  1.1471 -1.4494  0.6241
 2868SOL    HW2 9504   6.162   1.181   0.165  0.8915  1.8829 -0.8685
 2869SOL     OW 9505   6.292   2.485   4.357 -0.5938  0.1626 -0.3520
 2869SOL    HW1 9506   6.371   2.546   4.361  1.5748 -2.4969  0.0197
 2869SOL    HW2 9507   6.302   2.422   4.281 -1.2992 -1.5380  0.9010
 2870SOL     OW 9508   0.263   0.224   1.778  0.0894  0.5064 -0.3157
 2870SOL    HW1 9509   0.288   0.317   1.802  2.4469 -0.4257  1.3329
 2870SOL    HW2 9510   0.345   0.175   1.747 -0.5046 -1.6769  1.2875
 2871SOL     OW 9511   5.541   1.006   5.440  0.5486  0.4394  0.1410
 2871SOL    HW1 9512   5.611   1.048   5.497  1.3100 -0.8835  0.2075
 2871SOL    HW2 9513   5.566   1.016   5.344  0.4156  0.6739  0.1303
 2872SOL     OW 9514   3.650   1.251   3.608 -0.1799  0.5337 -0.2125
 2872SOL    HW1 9515   3.605   1.196   3.538 -0.6880 -1.0052  1.2473
 2872SOL    HW2 9516   3.615   1.225   3.698  1.2335  1.6844  0.7176
 2873SOL     OW 9517   1.116   0.919   3.011  0.1535  0.0454  0.0965
 2873SOL    HW1 9518   1.125   1.016   3.031 -0.2548  0.1016  0.0240
 2873SOL    HW2 9519   1.019   0.897   2.995  0.3053 -0.2658 -0.4212
 2874SOL     OW 9520   1.577   6.771   1.623 -0.3811 -0.3007  0.4941
 2874SOL    HW1 9521   1.574   6.672   1.640  1.1515 -0.0632  2.6070
 2874SOL    HW2 9522   1.619   6.788   1.534 -0.1267 -1.5521  0.3475
 2875SOL     OW 9523   5.048   1.051   2.306  0.0836 -0.0540  0.1209
 2875SOL    HW1 9524   5.046   0.962   2.260 -0.1888 -0.2253  0.4553
 2875SOL    HW2 9525   5.121   1.108   2.266 -1.1530  0.3994 -1.5935
 2876SOL     OW 9526   0.248   0.271   6.119  0.1823  0.2585 -0.1670
 2876SOL    HW1 9527   0.291   0.181   6.131  0.1245  0.3424  0.7459
 2876SOL    HW2 9528   0.163   0.261   6.067 -2.1227 -0.9126  3.4314
 2877SOL     OW 9529   2.013   1.972   6.523  0.2388 -0.2185  0.5012
 2877SOL    HW1 9530   2.057   1.921   6.596 -0.3593 -0.1057  0.9459
 2877SOL    HW2 9531   1.926   2.010   6.555  1.5688  2.8377  0.8722
 2878SOL     OW 9532   3.589   3.766   4.100  0.1252  0.0916 -0.2783
 2878SOL    HW1 9533   3.532   3.800   4.025 -2.0356  0.8501  1.5801
 2878SOL    HW2 9534   3.673   3.820   4.105 -1.2984  2.4613 -0.0310
 2879SOL     OW 9535   6.784   0.690   1.654 -0.4263 -0.7694 -0.3561
 2879SOL    HW1 9536   6.855   0.619   1.648 -2.1649 -2.6908  0.4589
 2879SOL    HW2 9537   6.695   0.646   1.670 -1.8169  1.5408 -1.2771
 2880SOL     OW 9538   6.829   1.286   3.412 -0.0371  0.3228 -0.0747
 2880SOL    HW1 9539   6.780   1.302   3.498  1.2927  0.2858  0.7138
 2880SOL    HW2 9540   6.869   1.195   3.413 -0.2524  0.2146 -0.8703
 2881SOL     OW 9541   5.899   1.072   0.229 -0.6950  0.2856  0.0204
 2881SOL    HW1 9542   5.934   1.100   0.318 -1.6342  1.0521  0.1664
 2881SOL    HW2 9543   5.851   0.985   0.238 -1.0847  0.5298  0.3405
 2882SOL     OW 9544   4.868   0.593   0.281 -0.3396 -0.0397 -0.0454
 2882SOL    HW1 9545   4.888   0.573   0.376 -0.5114  0.4008  0.0884
 2882SOL    HW2 9546   4.929   0.666   0.249 -0.9327  0.4940  0.0204
 2883SOL     OW 9547   4.922   0.502   1.815 -0.4453 -0.4892 -0.1593
 2883SOL    HW1 9548   4.985   0.446   1.868  0.3107 -0.8834 -1.4425
 2883SOL    HW2 9549   4.832   0.457   1.812 -0.2462 -0.9037  0.0309
 2884SOL     OW 9550   4.393   5.738   3.168 -1.0080  0.8551  0.2644
 2884SOL    HW1 9551   4.387   5.796   3.087 -1.3922 -0.7109 -0.8841
 2884SOL    HW2 9552   4.402   5.643   3.140 -2.3138  0.1471  2.0651
 2885SOL     OW 9553   6.699   4.199   2.800 -0.1507  0.0864  0.4742
 2885SOL    HW1 9554   6.618   4.250   2.828 -0.6553 -0.9814  0.9750
 2885SOL    HW2 9555   6.780   4.239   2.843 -0.1257  2.3249 -1.4533
 2886SOL     OW 9556   1.837   5.252   3.185 -0.2897 -0.3000  0.3345
 2886SOL    HW1 9557   1.793   5.218   3.102  0.4895 -1.9114  0.5285
 2886SOL    HW2 9558   1.834   5.352   3.186  1.4867 -0.1000 -2.6398
 2887SOL     OW 9559   6.180   3.515   6.464  0.0975  0.3043 -0.7179
 2887SOL    HW1 9560   6.149   3.549   6.375 -0.7660 -1.3743 -1.0944
 2887SOL    HW2 9561   6.227   3.427   6.452 -0.8018 -0.3834  0.5532
 2888SOL     OW 9562   4.725   5.155   0.965  0.5268  0.3522 -0.3554
 2888SOL    HW1 9563   4.814   5.122   0.996  1.3427  1.7199 -1.1630
 2888SOL    HW2 9564   4.713   5.134   0.868 -0.1281  0.0078 -0.2106
 2889SOL     OW 9565   4.928   4.264   3.147 -0.0477  0.2142 -0.0174
 2889SOL    HW1 9566   4.929   4.341   3.084 -1.0189  0.3330  0.0993
 2889SOL    HW2 9567   5.016   4.259   3.195  1.2683 -0.7585 -2.3980
 2890SOL     OW 9568   3.148   6.764   0.067 -0.2760  0.5320  0.3994
 2890SOL    HW1 9569   3.135   6.665   0.064  1.7116  0.1782  1.8458
 2890SOL    HW2 9570   3.131   6.797   0.160 -2.5344  1.8623 -0.3991
 2891SOL     OW 9571   0.465   1.134   3.854 -0.0379  0.3606  0.1908
 2891SOL    HW1 9572   0.419   1.214   3.815 -0.0943 -0.4411 -1.4838
 2891SOL    HW2 9573   0.538   1.164   3.915 -0.8099  1.6609  0.5272
 2892SOL     OW 9574   5.974   5.555   1.752 -0.1769  0.1278 -0.7816
 2892SOL    HW1 9575   6.058   5.537   1.803  0.1543  3.8080  0.2644
 2892SOL    HW2 9576   5.996   5.570   1.656  0.2004  0.1170 -0.6973
 2893SOL     OW 9577   2.328   4.597   5.141 -0.3204  0.0147 -0.4006
 2893SOL    HW1 9578   2.427   4.584   5.144 -0.2960  0.2602  0.0148
 2893SOL    HW2 9579   2.284   4.528   5.199 -0.5473 -1.4237 -2.2025
 2894SOL     OW 9580   1.902   4.771   1.229  0.0017  0.0027 -0.4502
 2894SOL    HW1 9581   1.934   4.786   1.322  1.6253 -0.6007 -0.8609
 2894SOL    HW2 9582   1.811   4.732   1.229 -0.2557  0.5818  0.8596
 2895SOL     OW 9583   6.213   5.673   5.377 -0.0197  0.2386 -0.0286
 2895SOL    HW1 9584   6.172   5.762   5.398  0.4273  0.2790  0.7420
 2895SOL    HW2 9585   6.309   5.672   5.408  0.0277 -0.4503 -0.1725
 2896SOL     OW 9586   6.965   1.710   1.775 -0.1513 -0.2536 -0.4630
 2896SOL    HW1 9587   6.993   1.801   1.805  1.9486 -1.0117  0.0712
 2896SOL    HW2 9588   6.977   1.702   1.676  2.3850 -0.7222 -0.2075
 2897SOL     OW 9589   3.953   5.852   3.361 -0.5784  0.3886 -0.2382
 2897SOL    HW1 9590   3.999   5.886   3.279  1.0664  0.6609  0.7554
 2897SOL    HW2 9591   3.879   5.790   3.334 -0.6137  1.0957 -1.9347
 2898SOL     OW 9592   5.560   3.512   4.463  0.4544  0.3392 -0.0075
 2898SOL    HW1 9593   5.514   3.577   4.403  0.8612 -1.2894 -2.1985
 2898SOL    HW2 9594   5.624   3.456   4.409  1.4904 -0.6313  2.1137
 2899SOL     OW 9595   6.472   4.417   6.342 -0.4600  0.4503 -0.2401
 2899SOL    HW1 9596   6.419   4.494   6.307 -1.4955 -0.3499 -0.4760
 2899SOL    HW2 9597   6.530   4.380   6.270 -0.7420  0.3534 -0.4160
 2900SOL     OW 9598   2.687   4.359   5.748  0.0292 -0.1485 -0.5095
 2900SOL    HW1 9599   2.632   4.337   5.828 -0.4563 -2.0768 -1.3307
 2900SOL    HW2 9600   2.642   4.432   5.696 -1.1930 -0.9134 -0.5661
 2901SOL     OW 9601   1.182   2.387   1.194  0.2912  0.0955 -0.4674
 2901SOL    HW1 9602   1.135   2.305   1.225 -2.8897  0.4234 -3.7912
 2901SOL    HW2 9603   1.213   2.375   1.100  3.2005  1.4722  0.2178
 2902SOL     OW 9604   5.421   0.918   5.721  0.8359  0.6188  0.1516
 2902SOL    HW1 9605   5.327   0.936   5.690  1.2483  0.0166 -1.5522
 2902SOL    HW2 9606   5.455   0.998   5.771 -1.1322  0.2250  2.3289
 2903SOL     OW 9607   6.864   5.785   2.828  0.0042  0.1560  0.5978
 2903SOL    HW1 9608   6.880   5.853   2.899 -0.0670  0.2808  0.4949
 2903SOL    HW2 9609   6.766   5.777   2.811  0.0401  0.3484  0.2964
 2904SOL     OW 9610   2.195   6.564   6.524  0.5115  0.1069 -1.1399
 2904SOL    HW1 9611   2.259   6.606   6.460 -0.2823  1.8347 -0.8519
 2904SOL    HW2 9612   2.178   6.626   6.601 -1.3452 -0.3722 -1.1089
 2905SOL     OW 9613   3.853   4.623   1.131  0.6744  0.2174 -0.1672
 2905SOL    HW1 9614   3.839   4.721   1.137 -0.4827  0.0236  0.4463
 2905SOL    HW2 9615   3.868   4.597   1.035 -1.2184  0.7315 -0.6469
 2906SOL     OW 9616   4.660   6.884   6.135  0.3483  0.2343 -0.1194
 2906SOL    HW1 9617   4.666   6.784   6.138  0.7881  0.2436 -0.5178
 2906SOL    HW2 9618   4.566   6.911   6.116  0.3947 -0.1351 -0.9413
 2907SOL     OW 9619   5.035   1.740   5.395  0.8566  0.0129  0.5035
 2907SOL    HW1 9620   5.081   1.683   5.327  0.7766 -0.1640  0.5957
 2907SOL    HW2 9621   5.045   1.836   5.371  0.3592 -0.0731 -0.0527
 2908SOL     OW 9622   3.828   0.702   5.206  0.2766  0.0594  0.2029
 2908SOL    HW1 9623   3.823   0.798   5.234 -0.3178  0.4508 -1.1583
 2908SOL    HW2 9624   3.916   0.685   5.162  0.7141 -0.2510  1.1537
 2909SOL     OW 9625   6.187   1.290   0.805  0.0639 -0.5277  0.4767
 2909SOL    HW1 9626   6.269   1.310   0.752  0.1221  0.8217  1.0202
 2909SOL    HW2 9627   6.212   1.268   0.899 -0.1429 -1.1189  0.3972
 2910SOL     OW 9628   1.247   0.287   4.661  0.6013 -0.2690  0.6355
 2910SOL    HW1 9629   1.224   0.219   4.591  0.5854  0.9402 -0.5706
 2910SOL    HW2 9630   1.238   0.379   4.622  0.8929  0.4238  2.1529
 2911SOL     OW 9631   5.880   2.352   2.828 -0.6365 -1.0721 -0.3283
 2911SOL    HW1 9632   5.951   2.402   2.779  0.2709 -1.9750  0.0317
 2911SOL    HW2 9633   5.839   2.284   2.768  0.0770 -1.7901 -0.0044
 2912SOL     OW 9634   5.971   2.137   5.183 -0.1750 -0.1452 -0.5369
 2912SOL    HW1 9635   5.975   2.156   5.281  0.5690  0.2261 -0.6301
 2912SOL    HW2 9636   6.038   2.066   5.161 -0.9859 -0.8968 -0.6365
 2913SOL     OW 9637   1.877   1.623   4.774  0.5200  0.5005  0.1116
 2913SOL    HW1 9638   1.866   1.683   4.853  0.8345  1.4286 -0.5443
 2913SOL    HW2 9639   1.787   1.591   4.744  0.1053  2.6513 -1.0679
 2914SOL     OW 9640   4.412   5.140   1.099  0.0843 -0.0911 -0.0143
 2914SOL    HW1 9641   4.407   5.087   1.014 -1.0760 -1.2451  0.7307
 2914SOL    HW2 9642   4.500   5.124   1.144  1.1504  1.3541 -1.4735
 2915SOL     OW 9643   2.215   6.021   2.344  0.4365  0.1666 -0.1710
 2915SOL    HW1 9644   2.126   6.034   2.387 -0.1355 -2.0642 -0.5707
 2915SOL    HW2 9645   2.210   6.048   2.248 -0.6868 -2.5474 -0.9578
 2916SOL     OW 9646   6.812   6.492   5.698 -0.0541  0.1952 -0.0750
 2916SOL    HW1 9647   6.716   6.514   5.678  0.4295  1.4758 -1.1214
 2916SOL    HW2 9648   6.853   6.567   5.750  0.0598 -0.9232  1.5198
 2917SOL     OW 9649   2.233   1.924   4.805  0.0873  0.2340  0.0329
 2917SOL    HW1 9650   2.257   1.947   4.711 -0.9460 -1.2332 -0.6315
 2917SOL    HW2 9651   2.233   2.007   4.861 -0.3400  1.3126 -1.4945
 2918SOL     OW 9652   1.280   2.533   0.387  0.3215 -0.3141 -0.2593
 2918SOL    HW1 9653   1.233   2.549   0.301 -2.1577 -0.3913  0.9897
 2918SOL    HW2 9654   1.297   2.621   0.432 -2.0387 -0.4010  0.9375
 2919SOL     OW 9655   1.200   4.900   5.455 -0.1668 -0.2794 -0.5823
 2919SOL    HW1 9656   1.148   4.847   5.522  1.2267  0.1634  0.9236
 2919SOL    HW2 9657   1.161   4.886   5.364 -3.1045  0.2878  0.4645
 2920SOL     OW 9658   1.373   1.420   1.888 -0.6279 -1.0397  0.5325
 2920SOL    HW1 9659   1.283   1.421   1.844 -1.4668  2.3559  2.0022
 2920SOL    HW2 9660   1.363   1.383   1.981 -0.2917 -1.5799  0.3551
 2921SOL     OW 9661   6.239   3.292   3.117  0.7288 -0.0676  0.6309
 2921SOL    HW1 9662   6.169   3.259   3.053  0.8919 -1.3552  1.0803
 2921SOL    HW2 9663   6.218   3.386   3.144  0.5127  0.4251 -1.0972
 2922SOL     OW 9664   4.194   6.575   4.264  0.2790 -0.1201  0.1235
 2922SOL    HW1 9665   4.217   6.658   4.214  1.0646 -0.4947 -0.1489
 2922SOL    HW2 9666   4.098   6.552   4.248  0.5783 -0.3760 -1.4265
 2923SOL     OW 9667   2.525   2.443   4.826 -0.0442 -0.6678 -0.1678
 2923SOL    HW1 9668   2.575   2.508   4.769 -0.8269 -0.1071 -0.2388
 2923SOL    HW2 9669   2.590   2.386   4.877  0.6571 -0.3910 -0.7338
 2924SOL     OW 9670   4.252   2.661   6.424  0.1330  0.0102  1.0003
 2924SOL    HW1 9671   4.280   2.578   6.376  0.5684  1.7926 -2.0981
 2924SOL    HW2 9672   4.159   2.685   6.397 -0.3842  0.0094  2.6929
 2925SOL     OW 9673   5.546   5.862   3.505 -0.8212  0.2286  0.0604
 2925SOL    HW1 9674   5.591   5.836   3.420 -0.4436  0.0954  0.2993
 2925SOL    HW2 9675   5.484   5.789   3.533  0.3521 -0.5141  0.8104
 2926SOL     OW 9676   6.836   2.467   3.617  0.3650  0.2078  0.3276
 2926SOL    HW1 9677   6.809   2.537   3.683 -1.3251  0.6832 -0.7907
 2926SOL    HW2 9678   6.775   2.388   3.625  0.7497 -0.1277 -0.0098
 2927SOL     OW 9679   0.047   2.848   3.156  0.2746  0.3688  0.5194
 2927SOL    HW1 9680  -0.044   2.866   3.192  0.5644 -0.5133  1.7846
 2927SOL    HW2 9681   0.075   2.755   3.182  1.4990  0.5995  0.0862
 2928SOL     OW 9682   6.438   4.912   6.363  0.0998  0.0171 -0.2944
 2928SOL    HW1 9683   6.537   4.903   6.375  0.2412  0.2224 -1.2607
 2928SOL    HW2 9684   6.419   4.974   6.287 -0.7990  2.1149  1.5198
 2929SOL     OW 9685   0.455   0.755   2.292 -0.3355 -0.7204 -0.2744
 2929SOL    HW1 9686   0.427   0.766   2.387 -0.1305 -1.2864 -0.1471
 2929SOL    HW2 9687   0.479   0.845   2.254  0.6214 -0.6089  0.5410
 2930SOL     OW 9688   0.668   4.471   1.406 -0.4083 -0.1314  0.1566
 2930SOL    HW1 9689   0.640   4.414   1.482  1.8785  0.9088  1.8886
 2930SOL    HW2 9690   0.645   4.567   1.426  1.1580  0.2865  0.0668
 2931SOL     OW 9691   6.161   4.499   4.472 -0.5329  0.0431  1.3309
 2931SOL    HW1 9692   6.120   4.590   4.481  0.1010  0.5840 -0.7293
 2931SOL    HW2 9693   6.257   4.509   4.446 -0.5337 -1.2196  0.8177
 2932SOL     OW 9694   0.808   0.585   1.858  0.3595  0.9318 -0.1172
 2932SOL    HW1 9695   0.887   0.646   1.871  0.8489  0.0097  1.5660
 2932SOL    HW2 9696   0.794   0.531   1.941 -1.1522  0.0021 -0.9347
 2933SOL     OW 9697   1.148   0.959   6.785  0.2652  0.0188 -0.2307
 2933SOL    HW1 9698   1.198   0.892   6.841 -0.2410  0.1590  0.3975
 2933SOL    HW2 9699   1.144   0.926   6.691 -1.4279 -1.6850  0.3658
 2934SOL     OW 9700   6.038   5.964   3.818  0.5620 -0.2159  0.6996
 2934SOL    HW1 9701   6.111   5.910   3.776  1.0874  0.1242  1.1632
 2934SOL    HW2 9702   5.994   6.020   3.748  1.3835  0.2932  0.5719
 2935SOL     OW 9703   0.014   4.288   4.660  0.2885 -0.3260 -0.4436
 2935SOL    HW1 9704   0.036   4.192   4.647 -1.3339 -1.0390  1.5516
 2935SOL    HW2 9705  -0.065   4.296   4.721  1.5062  2.3237  0.9299
 2936SOL     OW 9706   4.640   0.164   3.157  0.0351  0.0759  0.2083
 2936SOL    HW1 9707   4.694   0.213   3.224 -1.3029  2.5111 -0.3569
 2936SOL    HW2 9708   4.545   0.158   3.188  0.0153 -1.6346 -0.0598
 2937SOL     OW 9709   6.780   2.974   2.739  0.6248 -0.3897  0.8228
 2937SOL    HW1 9710   6.781   3.021   2.651 -0.3685  0.6535  1.3303
 2937SOL    HW2 9711   6.729   2.888   2.732 -3.6978  1.8498  1.3000
 2938SOL     OW 9712   0.214   5.904   1.959 -0.1039 -1.1869  0.2774
 2938SOL    HW1 9713   0.159   5.947   1.887 -1.0664 -0.2732  1.5175
 2938SOL    HW2 9714   0.227   5.807   1.937 -0.9030 -1.0747 -0.8019
 2939SOL     OW 9715   5.280   6.819   0.803 -0.3305  0.2827  0.0365
 2939SOL    HW1 9716   5.187   6.838   0.835  0.2027  1.9377  0.7048
 2939SOL    HW2 9717   5.277   6.747   0.734 -2.0905  0.1787  0.1735
 2940SOL     OW 9718   6.207   6.635   2.787  0.0521 -0.0420 -0.2483
 2940SOL    HW1 9719   6.301   6.660   2.811 -0.2083 -1.2347  2.3121
 2940SOL    HW2 9720   6.162   6.592   2.865 -3.1845  1.8769 -0.8548
 2941SOL     OW 9721   3.291   5.636   1.201 -0.0629 -0.3770 -0.7547
 2941SOL    HW1 9722   3.339   5.686   1.129 -0.3013  2.2668  0.7618
 2941SOL    HW2 9723   3.345   5.640   1.286 -1.5149 -0.0008  0.1901
 2942SOL     OW 9724   2.121   6.627   0.028  0.4579 -0.4948  0.2788
 2942SOL    HW1 9725   2.023   6.618   0.007  0.3333  2.3222 -0.8924
 2942SOL    HW2 9726   2.141   6.579   0.113 -2.2860  0.0348  1.3443
 2943SOL     OW 9727   6.873   4.593   3.087 -0.2014 -0.2317 -0.3268
 2943SOL    HW1 9728   6.894   4.517   3.025 -1.8800 -0.8728 -0.1897
 2943SOL    HW2 9729   6.957   4.637   3.116  0.7807 -1.5939 -0.9845
 2944SOL     OW 9730   1.238   4.728   4.160 -0.0125  0.0056  0.2246
 2944SOL    HW1 9731   1.215   4.821   4.187 -1.3452 -0.2511  0.0392
 2944SOL    HW2 9732   1.288   4.683   4.234 -1.7625 -0.0044  1.4493
 2945SOL     OW 9733   5.144   2.284   0.008 -0.0159  0.6079  0.4216
 2945SOL    HW1 9734   5.203   2.262  -0.069  0.4988 -1.0862  1.2510
 2945SOL    HW2 9735   5.169   2.228   0.087 -2.4089  0.1594  0.9593
 2946SOL     OW 9736   2.913   3.580   5.046 -0.0457 -0.4864 -0.3917
 2946SOL    HW1 9737   2.919   3.542   4.954 -0.2656 -0.1828 -0.5306
 2946SOL    HW2 9738   2.911   3.505   5.112  0.5400 -0.6951 -0.6055
 2947SOL     OW 9739   6.603   1.429   0.365  0.3115 -0.2739  0.5404
 2947SOL    HW1 9740   6.679   1.380   0.409 -0.0106 -1.1907  0.1099
 2947SOL    HW2 9741   6.575   1.506   0.422  2.0410  0.5308  0.3693
 2948SOL     OW 9742   6.590   6.886   2.237 -0.0955 -0.4424 -0.3933
 2948SOL    HW1 9743   6.561   6.926   2.324  0.9979 -2.5155  0.9969
 2948SOL    HW2 9744   6.661   6.943   2.196  1.6144 -0.9487  1.6683
 2949SOL     OW 9745   1.882   5.529   1.385 -0.1033 -0.2419 -0.0629
 2949SOL    HW1 9746   1.811   5.458   1.384  0.3197 -0.6657 -0.5242
 2949SOL    HW2 9747   1.967   5.490   1.422 -0.0527  0.2107  0.3107
 2950SOL     OW 9748   6.964   4.565   2.794  0.0879  0.0518  0.0834
 2950SOL    HW1 9749   6.936   4.648   2.746  2.0271  1.0812  0.6587
 2950SOL    HW2 9750   7.057   4.576   2.830 -0.9354 -0.9064  3.4496
 2951SOL     OW 9751   2.515   1.678   0.306 -0.0978  0.8793  0.0324
 2951SOL    HW1 9752   2.533   1.588   0.344 -1.0318  1.4884  2.0708
 2951SOL    HW2 9753   2.417   1.687   0.287 -0.6169  2.4711  2.8960
 2952SOL     OW 9754   0.657   2.374   4.992  0.1553  0.1972  0.1602
 2952SOL    HW1 9755   0.601   2.436   5.047 -1.2349 -0.4778 -0.4409
 2952SOL    HW2 9756   0.668   2.287   5.041 -0.6480 -0.2182 -0.3649
 2953SOL     OW 9757   3.106   5.624   1.565  0.4644 -0.4520 -0.8063
 2953SOL    HW1 9758   3.059   5.702   1.526 -2.1807 -1.9139 -0.7870
 2953SOL    HW2 9759   3.059   5.595   1.649  1.2215 -2.1864 -0.9299
 2954SOL     OW 9760   2.531   5.059   5.972  0.1706  0.0966 -0.4874
 2954SOL    HW1 9761   2.495   4.972   5.939  2.6860 -0.6749 -1.3983
 2954SOL    HW2 9762   2.629   5.051   5.989 -0.0226  2.0067  2.1056
 2955SOL     OW 9763   0.382   4.791   6.019  0.5783 -0.1745 -0.4198
 2955SOL    HW1 9764   0.436   4.865   6.061  0.1800 -0.1367  0.0268
 2955SOL    HW2 9765   0.439   4.742   5.954  0.1908  2.1254 -2.6756
 2956SOL     OW 9766   1.764   2.341   5.000 -0.5881 -0.0125 -0.3019
 2956SOL    HW1 9767   1.711   2.386   5.071 -0.0223  1.5159 -0.8171
 2956SOL    HW2 9768   1.858   2.376   5.000 -0.4662 -0.2913 -1.5254
 2957SOL     OW 9769   0.312   5.755   2.926 -0.0136 -0.5573 -0.0738
 2957SOL    HW1 9770   0.293   5.694   3.003  1.1784  0.3424  0.9658
 2957SOL    HW2 9771   0.244   5.739   2.854  0.5300 -3.4090 -0.0474
 2958SOL     OW 9772   3.526   2.120   2.262  0.0251 -0.4180  0.3383
 2958SOL    HW1 9773   3.565   2.164   2.181  0.0113  0.6835  0.9160
 2958SOL    HW2 9774   3.448   2.064   2.236  0.2745 -0.4030 -0.4592
 2959SOL     OW 9775   1.791   2.074   5.878  0.2435 -0.1658  0.2220
 2959SOL    HW1 9776   1.761   2.067   5.783  0.5754  1.3197 -0.0106
 2959SOL    HW2 9777   1.850   1.996   5.900 -0.4238 -0.9148 -0.5502
 2960SOL     OW 9778   5.516   5.629   1.677 -0.0481  0.1502 -0.7553
 2960SOL    HW1 9779   5.433   5.675   1.708  0.0765  0.2839 -0.6203
 2960SOL    HW2 9780   5.509   5.610   1.579  0.0082  0.6847 -0.8647
 2961SOL     OW 9781   5.469   2.244   0.253 -0.2835  0.1987  0.2682
 2961SOL    HW1 9782   5.562   2.210   0.267  0.2250  1.2653 -0.4203
 2961SOL    HW2 9783   5.462   2.339   0.284 -1.4841 -0.2497  1.4622
 2962SOL     OW 9784   6.244   1.622   5.358 -0.7883  0.1371  0.2078
 2962SOL    HW1 9785   6.251   1.722   5.364 -4.8707  0.7865 -2.0428
 2962SOL    HW2 9786   6.300   1.590   5.281 -3.6189  1.6863 -2.7758
 2963SOL     OW 9787   3.845   1.053   0.709 -0.1747 -0.4481  0.8524
 2963SOL    HW1 9788   3.834   0.990   0.632 -1.9201 -0.4895  1.0891
 2963SOL    HW2 9789   3.811   1.144   0.684 -0.1620 -0.2948  1.3636
 2964SOL     OW 9790   0.825   0.082   5.889  0.2698  0.1223  0.0095
 2964SOL    HW1 9791   0.909   0.071   5.942  0.1285  0.8131  0.3883
 2964SOL    HW2 9792   0.746   0.078   5.951 -0.1516 -2.6924 -0.5634
 2965SOL     OW 9793   4.631   6.819   6.918 -0.6055 -0.3810  0.6325
 2965SOL    HW1 9794   4.624   6.727   6.880 -0.5407 -1.1299  2.3504
 2965SOL    HW2 9795   4.539   6.856   6.934 -0.6758  0.5906 -1.6377
 2966SOL     OW 9796   3.393   0.825   2.610 -0.0083  0.4946 -0.1839
 2966SOL    HW1 9797   3.401   0.792   2.516  1.6843 -2.7290  0.9325
 2966SOL    HW2 9798   3.469   0.887   2.630 -0.1550  0.8849 -0.8079
 2967SOL     OW 9799   5.587   6.781   5.384  0.3430 -0.4096  0.2900
 2967SOL    HW1 9800   5.633   6.726   5.315  1.0110  1.8154 -1.1117
 2967SOL    HW2 9801   5.494   6.801   5.354 -0.2225 -1.4765  1.2322
 2968SOL     OW 9802   2.694   2.988   0.006  0.3040 -0.1716  0.2142
 2968SOL    HW1 9803   2.691   2.968  -0.092  0.1387 -0.8463  0.3462
 2968SOL    HW2 9804   2.772   3.047   0.026  0.8342 -0.7096 -0.2150
 2969SOL     OW 9805   5.547   1.444   2.552  0.9519 -0.2936  0.8717
 2969SOL    HW1 9806   5.500   1.356   2.554  0.4226 -0.0305  0.3841
 2969SOL    HW2 9807   5.645   1.430   2.562  0.9484 -1.0041  0.0277
 2970SOL     OW 9808   3.324   1.578   6.640 -0.1024 -0.6283 -0.1543
 2970SOL    HW1 9809   3.346   1.590   6.737  0.7867  1.7624 -0.5871
 2970SOL    HW2 9810   3.371   1.648   6.586 -2.4575 -0.4113 -2.0781
 2971SOL     OW 9811   4.556   5.444   6.988  0.5113 -0.1173 -0.0990
 2971SOL    HW1 9812   4.629   5.511   6.981  0.2594  0.2363  0.5289
 2971SOL    HW2 9813   4.520   5.444   7.081 -0.8905  0.3609 -0.6167
 2972SOL     OW 9814   0.689   6.251   6.514 -0.2549 -0.0831 -0.1983
 2972SOL    HW1 9815   0.694   6.214   6.607 -1.4430  1.3951  0.5053
 2972SOL    HW2 9816   0.768   6.220   6.461 -0.0654 -1.7553  0.9937
 2973SOL     OW 9817   6.942   0.889   5.944  0.2810 -0.7447 -0.5495
 2973SOL    HW1 9818   7.001   0.969   5.931  1.6224 -1.8442 -1.5495
 2973SOL    HW2 9819   6.904   0.890   6.037  1.0907  0.5075 -0.2091
 2974SOL     OW 9820   6.834   4.059   3.991 -1.0153  0.4410  0.3992
 2974SOL    HW1 9821   6.923   4.042   3.950 -0.9923  0.2161  0.5432
 2974SOL    HW2 9822   6.767   3.994   3.954 -1.1658  0.7380  0.1406
 2975SOL     OW 9823   0.730   3.737   6.405  0.0330 -0.1211  0.4395
 2975SOL    HW1 9824   0.822   3.727   6.443  0.9637 -0.1757 -1.6976
 2975SOL    HW2 9825   0.704   3.653   6.359 -0.1109  0.6445 -0.9386
 2976SOL     OW 9826   2.544   0.202   0.676 -0.8514 -0.5384  0.2096
 2976SOL    HW1 9827   2.581   0.173   0.765 -0.2350 -0.8356 -0.1339
 2976SOL    HW2 9828   2.470   0.268   0.690 -2.1661 -2.1060  1.0191
 2977SOL     OW 9829   0.500   0.764   4.448 -0.1391 -0.2887 -0.5698
 2977SOL    HW1 9830   0.436   0.759   4.524  1.7841 -0.9584  1.0930
 2977SOL    HW2 9831   0.464   0.826   4.378 -1.5183  1.1583  1.3228
 2978SOL     OW 9832   3.127   4.648   6.172 -0.0128 -0.6602  0.1194
 2978SOL    HW1 9833   3.223   4.623   6.159  0.1279 -0.7205  1.1758
 2978SOL    HW2 9834   3.069   4.570   6.147  0.0634  0.1189 -2.6928
 2979SOL     OW 9835   1.429   1.347   4.619 -0.3843  0.4020 -0.1248
 2979SOL    HW1 9836   1.348   1.392   4.657 -0.1621  3.0361 -2.4716
 2979SOL    HW2 9837   1.401   1.282   4.549 -0.5608 -1.3534  1.4903
 2980SOL     OW 9838   3.979   3.373   1.511 -0.1294  0.1087 -0.3043
 2980SOL    HW1 9839   3.939   3.301   1.567 -1.0921 -0.0177 -1.1063
 2980SOL    HW2 9840   4.079   3.371   1.518 -0.2236  0.6746  2.0755
 2981SOL     OW 9841   1.884   2.469   2.410  0.4213  0.5800 -0.0085
 2981SOL    HW1 9842   1.900   2.498   2.316  0.5615  0.5532  0.0056
 2981SOL    HW2 9843   1.898   2.371   2.418 -0.1472  0.4963 -0.0745
 2982SOL     OW 9844   6.983   0.951   3.107 -0.6892 -0.4327 -0.7585
 2982SOL    HW1 9845   6.899   1.002   3.094 -0.1810  0.6655  0.0979
 2982SOL    HW2 9846   6.962   0.861   3.146 -1.3779  0.4099  0.9171
 2983SOL     OW 9847   5.682   2.943   4.903 -0.0858  0.1291 -0.2927
 2983SOL    HW1 9848   5.680   3.032   4.858  0.0164 -0.2794 -1.1141
 2983SOL    HW2 9849   5.777   2.919   4.925 -0.2320  0.9938  1.5294
 2984SOL     OW 9850   1.899   5.198   1.674  0.6174  0.1397 -0.2429
 2984SOL    HW1 9851   1.848   5.156   1.600  0.6429  0.0859 -0.2301
 2984SOL    HW2 9852   1.893   5.141   1.756 -0.1488  0.6420  0.0586
 2985SOL     OW 9853   0.891   0.593   6.948  0.1580 -0.9013 -0.2328
 2985SOL    HW1 9854   0.933   0.502   6.953  1.8915 -0.0888  1.5381
 2985SOL    HW2 9855   0.866   0.614   6.854  0.1437 -3.0216 -0.7394
 2986SOL     OW 9856   3.606   3.959   2.420  0.0162 -0.2453 -0.3924
 2986SOL    HW1 9857   3.613   4.043   2.475  2.5920  1.4846 -3.0865
 2986SOL    HW2 9858   3.551   3.977   2.339  1.5256 -0.7654 -1.5700
 2987SOL     OW 9859   3.918   5.350   6.508 -0.0285  0.0306  0.2147
 2987SOL    HW1 9860   3.972   5.413   6.451  1.7648 -2.5373 -1.1524
 2987SOL    HW2 9861   3.973   5.269   6.529 -2.3829 -1.3727  1.3793
 2988SOL     OW 9862   6.851   1.229   0.441  0.0922 -0.0708 -0.2780
 2988SOL    HW1 9863   6.950   1.218   0.446  0.1507 -0.4662 -1.8781
 2988SOL    HW2 9864   6.807   1.154   0.491  0.5583  1.0647  1.9778
 2989SOL     OW 9865   5.847   5.412   4.854  0.0418 -0.1010 -0.2177
 2989SOL    HW1 9866   5.916   5.476   4.819  1.1230 -1.4927 -0.6879
 2989SOL    HW2 9867   5.766   5.417   4.796  0.4922  0.1450 -0.8410
 2990SOL     OW 9868   4.852   1.182   2.149 -0.5511  0.2929  0.0835
 2990SOL    HW1 9869   4.920   1.247   2.114 -0.3656  0.1753  0.2212
 2990SOL    HW2 9870   4.887   1.141   2.233  0.1849 -1.4414 -1.0246
 2991SOL     OW 9871   5.260   2.343   1.366  0.3242  0.2002 -0.6112
 2991SOL    HW1 9872   5.225   2.427   1.409  0.0716 -0.5767  0.7653
 2991SOL    HW2 9873   5.202   2.266   1.391  0.8702 -0.4810 -1.4096
 2992SOL     OW 9874   1.854   3.470   5.556 -0.4884  0.1409 -0.3348
 2992SOL    HW1 9875   1.903   3.517   5.629 -1.5396  0.0922  0.4178
 2992SOL    HW2 9876   1.919   3.441   5.486  0.8398 -1.5139  1.4853
 2993SOL     OW 9877   5.003   4.862   6.415  0.5340 -0.1590 -0.4492
 2993SOL    HW1 9878   4.993   4.961   6.401 -0.0641 -0.2142 -0.4517
 2993SOL    HW2 9879   4.969   4.838   6.505 -1.3398 -0.6392 -1.2201
 2994SOL     OW 9880   5.350   5.573   6.306 -0.4043 -0.2634  0.3646
 2994SOL    HW1 9881   5.292   5.605   6.231 -0.5386 -1.6798 -0.1746
 2994SOL    HW2 9882   5.440   5.617   6.300  0.2637 -1.7401 -1.8443
 2995SOL     OW 9883   0.182   1.835   2.040 -0.5458 -0.0505  0.2088
 2995SOL    HW1 9884   0.207   1.889   2.120 -1.1570 -1.0291  1.0917
 2995SOL    HW2 9885   0.179   1.894   1.959 -0.4272  1.0614  0.9951
 2996SOL     OW 9886   5.057   1.406   4.073  0.2391  0.4341 -0.0456
 2996SOL    HW1 9887   5.151   1.433   4.050  0.2874  0.6299  0.3641
 2996SOL    HW2 9888   5.002   1.405   3.990  0.5130  0.7011 -0.2363
 2997SOL     OW 9889   3.401   6.852   3.641  0.6061 -0.5228  0.4452
 2997SOL    HW1 9890   3.442   6.942   3.631 -0.2872 -0.0492  0.8675
 2997SOL    HW2 9891   3.365   6.842   3.734 -1.0284 -0.5433 -0.1461
 2998SOL     OW 9892   2.476   0.830   2.933 -0.4091 -0.1558  0.2351
 2998SOL    HW1 9893   2.463   0.929   2.941 -0.4391 -0.0828 -0.6603
 2998SOL    HW2 9894   2.573   0.811   2.916  0.0314 -0.4407  2.6267
 2999SOL     OW 9895   2.029   3.797   6.196  0.0625  0.8981 -0.5209
 2999SOL    HW1 9896   2.090   3.722   6.225  1.4164  2.2951  0.4156
 2999SOL    HW2 9897   2.053   3.825   6.103  1.2814  1.8125  0.0442
 3000SOL     OW 9898   1.034   4.443   5.436 -0.3549  0.2458  0.2067
 3000SOL    HW1 9899   1.030   4.361   5.494 -2.8916 -0.5544 -0.9491
 3000SOL    HW2 9900   1.119   4.441   5.383  0.9123 -0.1861  2.1255
 3001SOL     OW 9901   1.788   6.992   6.988 -0.1480 -0.4765 -0.6003
 3001SOL    HW1 9902   1.805   6.941   7.072 -0.8943 -0.9339 -0.7222
 3001SOL    HW2 9903   1.874   7.032   6.955  0.1413 -0.2693  0.3892
 3002SOL     OW 9904   0.882   2.072   1.602 -0.0537 -0.0555  0.6902
 3002SOL    HW1 9905   0.933   2.129   1.666 -1.2175 -0.4403  2.0202
 3002SOL    HW2 9906   0.793   2.048   1.642  0.1378 -2.2826 -0.0571
 3003SOL     OW 9907   1.130   6.345   0.832  0.4577  0.0812  0.0987
 3003SOL    HW1 9908   1.217   6.382   0.862 -0.4508  1.6397  0.9681
 3003SOL    HW2 9909   1.112   6.374   0.738  0.5922  0.3033  0.1419
 3004SOL     OW 9910   3.437   1.769   5.326 -0.3752  0.3493  0.1891
 3004SOL    HW1 9911   3.435   1.745   5.423 -1.6489 -0.6767 -0.0644
 3004SOL    HW2 9912   3.355   1.821   5.304  0.1732  1.0493 -0.2442
 3005SOL     OW 9913   2.294   6.931   6.544  0.1780  0.0931 -0.2758
 3005SOL    HW1 9914   2.196   6.947   6.557  0.5479  2.0169  0.5249
 3005SOL    HW2 9915   2.345   6.979   6.615  1.6635 -2.5183  0.5488
 3006SOL     OW 9916   5.885   1.259   6.370 -0.0098  0.1241 -0.2078
 3006SOL    HW1 9917   5.814   1.195   6.341  0.5250 -0.2546 -0.7022
 3006SOL    HW2 9918   5.845   1.327   6.431 -0.1101 -2.3376  2.7315
 3007SOL     OW 9919   6.553   5.427   6.682  0.7659  0.1771  0.2039
 3007SOL    HW1 9920   6.469   5.407   6.630 -0.8007  4.1491  0.8410
 3007SOL    HW2 9921   6.629   5.439   6.618  0.8742 -3.0472 -0.4214
 3008SOL     OW 9922   4.671   3.306   1.545 -0.0618  0.9339  0.1127
 3008SOL    HW1 9923   4.716   3.235   1.491 -0.6209  0.0630  0.7817
 3008SOL    HW2 9924   4.642   3.380   1.484  0.3459  0.5092 -0.6151
 3009SOL     OW 9925   0.788   3.176   1.790 -0.7519  0.2116  0.2137
 3009SOL    HW1 9926   0.815   3.189   1.695  0.8149 -1.6010  0.3504
 3009SOL    HW2 9927   0.859   3.212   1.851 -0.9693 -0.1173  0.6712
 3010SOL     OW 9928   6.413   4.007   0.279 -0.6963 -0.0732  0.2222
 3010SOL    HW1 9929   6.435   3.912   0.297 -0.4390  0.0953  0.8280
 3010SOL    HW2 9930   6.347   4.040   0.347 -0.8847  0.1452 -0.0607
 3011SOL     OW 9931   5.952   0.300   2.469  0.5128  0.3812  0.3263
 3011SOL    HW1 9932   5.868   0.355   2.474  0.9907  1.1444  0.1723
 3011SOL    HW2 9933   5.929   0.207   2.442 -0.2618  0.6331  0.0760
 3012SOL     OW 9934   2.007   1.442   5.411 -0.5043 -0.8579  0.6029
 3012SOL    HW1 9935   2.007   1.484   5.320 -0.2125  0.0741  1.0266
 3012SOL    HW2 9936   2.010   1.342   5.401  2.0224 -0.7565 -0.4215
 3013SOL     OW 9937   1.169   3.911   6.424 -0.5801 -0.2902  0.1866
 3013SOL    HW1 9938   1.198   3.933   6.330 -2.5167 -0.1162 -0.4097
 3013SOL    HW2 9939   1.247   3.873   6.474  0.2499 -1.4531 -1.8268
 3014SOL     OW 9940   4.578   5.389   1.003 -0.0001 -0.3287 -0.3499
 3014SOL    HW1 9941   4.632   5.305   1.015 -0.6010 -1.0650 -2.4592
 3014SOL    HW2 9942   4.482   5.370   1.022  0.0184  0.2146  0.3455
 3015SOL     OW 9943   4.510   1.720   0.015  0.1864  0.4925 -0.2881
 3015SOL    HW1 9944   4.604   1.722   0.050  0.3115 -1.3543 -0.4237
 3015SOL    HW2 9945   4.508   1.760  -0.077  1.0652 -0.4171 -0.7202
 3016SOL     OW 9946   2.915   0.449   4.861 -0.5334  0.2594 -0.5469
 3016SOL    HW1 9947   2.898   0.351   4.860  1.9163 -0.2670  1.2733
 3016SOL    HW2 9948   3.013   0.467   4.852 -0.6435  2.3720  1.3362
 3017SOL     OW 9949   1.005   4.737   1.892  0.0603 -0.0104 -0.4297
 3017SOL    HW1 9950   0.949   4.806   1.937 -1.6818  0.0030 -2.4758
 3017SOL    HW2 9951   1.064   4.780   1.824 -0.8044 -0.4558 -1.4937
 3018SOL     OW 9952   1.037   2.644   2.791 -0.1989 -0.5813  0.1414
 3018SOL    HW1 9953   1.028   2.667   2.694  0.9854 -0.4263  0.0471
 3018SOL    HW2 9954   1.120   2.687   2.828 -1.4144  0.5987  1.6179
 3019SOL     OW 9955   0.405   6.810   5.918 -0.0413  0.2032 -0.1174
 3019SOL    HW1 9956   0.452   6.837   5.834  1.2227 -0.9250  0.2092
 3019SOL    HW2 9957   0.314   6.776   5.895  0.2488  0.0041 -1.0233
 3020SOL     OW 9958   5.825   4.282   5.552  0.3986  0.0699  0.2592
 3020SOL    HW1 9959   5.789   4.371   5.582  0.8566 -0.0016  1.0376
 3020SOL    HW2 9960   5.766   4.246   5.479 -2.6843 -1.1680  3.0796
 3021SOL     OW 9961   3.342   0.508   3.659 -0.3514  0.5591  0.1560
 3021SOL    HW1 9962   3.423   0.542   3.706  0.6466 -1.7755  0.2956
 3021SOL    HW2 9963   3.288   0.452   3.722 -0.8984  0.3161 -0.5138
 3022SOL     OW 9964   6.365   0.442   0.513  0.1042 -0.1865  0.1989
 3022SOL    HW1 9965   6.283   0.399   0.551 -0.1936  0.3729  0.2065
 3022SOL    HW2 9966   6.443   0.380   0.521 -0.3025 -0.6897  0.2679
 3023SOL     OW 9967   6.252   6.174   4.208 -0.3048 -0.3802 -0.3975
 3023SOL    HW1 9968   6.216   6.081   4.206 -1.8918  0.1087  1.6952
 3023SOL    HW2 9969   6.345   6.173   4.243 -0.3193 -1.1881 -0.3610
 3024SOL     OW 9970   5.759   1.757   6.936  0.1272  0.1263  0.3596
 3024SOL    HW1 9971   5.831   1.690   6.921 -0.3198 -0.4897  0.8778
 3024SOL    HW2 9972   5.679   1.711   6.976  0.4762  1.2674  2.5060
 3025SOL     OW 9973   3.562   5.163   1.271  0.1262  0.5234  0.2655
 3025SOL    HW1 9974   3.538   5.094   1.339  0.3030  1.9142  1.8052
 3025SOL    HW2 9975   3.488   5.230   1.263  0.5936  1.0158 -0.0615
 3026SOL     OW 9976   6.077   6.957   1.927  0.2347  0.0894  0.5225
 3026SOL    HW1 9977   6.080   6.979   1.829  0.3958  0.1604  0.5436
 3026SOL    HW2 9978   6.134   7.021   1.977 -0.2344  0.3514  0.7197
 3027SOL     OW 9979   4.021   6.567   1.162  0.1560  0.8658  0.3166
 3027SOL    HW1 9980   4.107   6.589   1.117 -0.0778  0.1201 -0.5271
 3027SOL    HW2 9981   3.983   6.483   1.123 -1.5469  1.8052 -0.1576
 3028SOL     OW 9982   3.894   3.083   3.000 -0.3020 -0.1217  0.3737
 3028SOL    HW1 9983   3.933   3.168   2.964 -0.7941 -0.8575 -2.0630
 3028SOL    HW2 9984   3.964   3.034   3.052  2.1037 -1.2210 -3.5302
 3029SOL     OW 9985   5.831   3.099   5.488  0.5413  0.0090  0.1729
 3029SOL    HW1 9986   5.910   3.160   5.500  2.2411 -1.7955 -1.2198
 3029SOL    HW2 9987   5.747   3.152   5.495  1.8954  2.3102  0.0868
 3030SOL     OW 9988   6.358   4.369   5.370 -0.5545  0.7432 -0.2715
 3030SOL    HW1 9989   6.269   4.326   5.359 -0.2589  0.3366 -1.1812
 3030SOL    HW2 9990   6.424   4.301   5.404  0.3828 -0.1854 -3.5103
 3031SOL     OW 9991   6.643   4.440   5.928  0.0844 -0.2628 -0.4073
 3031SOL    HW1 9992   6.600   4.508   5.868  1.7985  0.3678 -1.0164
 3031SOL    HW2 9993   6.736   4.422   5.895  0.4953 -1.1499  1.1332
 3032SOL     OW 9994   2.833   0.001   6.676 -0.5963  0.1767 -0.5332
 3032SOL    HW1 9995   2.799   0.036   6.589 -1.6680 -0.5782 -0.4443
 3032SOL    HW2 9996   2.762  -0.055   6.719 -1.2047  2.7486  2.1443
 3033SOL     OW 9997   1.245   2.172   0.966  0.4381  0.2117 -0.1288
 3033SOL    HW1 9998   1.249   2.101   0.895 -0.4037  0.6671 -0.6489
 3033SOL    HW2 9999   1.338   2.196   0.993  0.7684 -2.2991  1.3173
 3034SOL     OW10000   6.360   3.749   1.485  0.1290 -0.3068 -0.4904
 3034SOL    HW110001   6.406   3.738   1.573 -1.2595  0.3917  0.3638
 3034SOL    HW210002   6.379   3.840   1.448  1.7803 -1.0576 -1.5966
 3035SOL     OW10003   5.320   5.691   5.659  0.3704  0.7247  0.6269
 3035SOL    HW110004   5.380   5.739   5.723 -0.1564  1.9441  0.2404
 3035SOL    HW210005   5.325   5.735   5.570  2.0635 -1.6963 -0.5963
 3036SOL     OW10006   2.123   3.349   6.881  0.2485  0.3703  0.0673
 3036SOL    HW110007   2.219   3.346   6.853  0.7377 -0.5078  1.7316
 3036SOL    HW210008   2.116   3.332   6.979 -1.5475  1.3751  0.1514
 3037SOL     OW10009   2.128   5.756   4.781 -1.0417 -0.1016  0.1490
 3037SOL    HW110010   2.148   5.775   4.685 -1.0020  2.8132  0.6300
 3037SOL    HW210011   2.087   5.665   4.790  0.2023 -1.0160 -2.4094
 3038SOL     OW10012   1.463   4.024   4.928  0.0704  0.1825 -0.1421
 3038SOL    HW110013   1.446   4.067   4.840  1.3036 -1.4019 -1.2158
 3038SOL    HW210014   1.490   4.093   4.995  1.1250  1.1952 -1.5592
 3039SOL     OW10015   0.509   3.456   4.875  0.4333  0.1899  0.2236
 3039SOL    HW110016   0.541   3.456   4.780  0.1443  1.1274  0.1085
 3039SOL    HW210017   0.415   3.490   4.878  0.2146 -0.4485  0.7842
 3040SOL     OW10018   3.683   5.984   6.677  0.1068 -0.5523 -0.1716
 3040SOL    HW110019   3.764   6.039   6.695 -0.1630  0.5941 -2.1635
 3040SOL    HW210020   3.706   5.887   6.687  1.8146 -0.2650 -0.9553
 3041SOL     OW10021   0.492   6.275   6.340 -0.0383 -0.1485  0.3401
 3041SOL    HW110022   0.548   6.266   6.422 -0.1003  2.3769  0.7351
 3041SOL    HW210023   0.445   6.363   6.341 -3.9854 -2.0706 -0.0567
 3042SOL     OW10024   6.540   4.285   3.562 -0.1048 -0.1058  0.3057
 3042SOL    HW110025   6.569   4.205   3.510  0.9943 -0.2899  1.1890
 3042SOL    HW210026   6.495   4.255   3.646  0.6429  0.1969  0.8179
 3043SOL     OW10027   3.333   3.876   1.871  0.1886  0.3078  0.0840
 3043SOL    HW110028   3.364   3.786   1.839  0.6392  1.2997 -2.4516
 3043SOL    HW210029   3.311   3.870   1.968 -1.2060 -2.9287 -0.2859
 3044SOL     OW10030   3.768   3.940   2.130  0.1785  0.2899  0.0040
 3044SOL    HW110031   3.691   3.941   2.193  0.8977  0.7023  0.8995
 3044SOL    HW210032   3.743   3.890   2.047 -0.4337 -1.2522  1.0812
 3045SOL     OW10033   6.405   6.683   4.124 -0.5031  0.1633 -0.5420
 3045SOL    HW110034   6.329   6.747   4.130 -0.8410 -0.3184  0.7056
 3045SOL    HW210035   6.376   6.594   4.161  0.1880 -0.4877 -1.5273
 3046SOL     OW10036   5.195   5.836   2.550  0.1885  0.2137 -0.2717
 3046SOL    HW110037   5.276   5.864   2.602  0.2733 -0.3273 -0.1072
 3046SOL    HW210038   5.184   5.737   2.556 -2.0366  0.4963  2.0375
 3047SOL     OW10039   3.905   1.768   5.003 -0.4065  0.1252  0.1036
 3047SOL    HW110040   3.995   1.813   5.000  0.3362 -1.3190 -1.0190
 3047SOL    HW210041   3.840   1.825   5.053  1.4816  0.6046  2.1755
 3048SOL     OW10042   5.464   4.790   0.843  0.3845  0.4058 -0.0992
 3048SOL    HW110043   5.409   4.802   0.925  1.1155 -1.1386  0.6552
 3048SOL    HW210044   5.545   4.848   0.847  0.0715  0.8387 -0.0492
 3049SOL     OW10045   0.516   1.135   0.920 -0.2814  0.0742 -0.1205
 3049SOL    HW110046   0.566   1.197   0.861 -1.9243  0.9822 -0.6172
 3049SOL    HW210047   0.419   1.162   0.923 -0.1141  0.8003  3.8908
 3050SOL     OW10048   3.294   1.093   5.990 -0.5338 -0.3078  0.0051
 3050SOL    HW110049   3.265   1.001   5.962  2.2350 -0.6058 -2.4070
 3050SOL    HW210050   3.363   1.085   6.062  1.1467 -0.3681 -1.5237
 3051SOL     OW10051   1.972   5.654   0.125 -0.2913  0.6877  0.1551
 3051SOL    HW110052   2.069   5.647   0.102 -0.5492  1.9024 -1.4686
 3051SOL    HW210053   1.960   5.641   0.224  1.2102 -1.9379  0.0959
 3052SOL     OW10054   5.062   6.379   4.231 -0.4069  0.1010  0.3488
 3052SOL    HW110055   5.066   6.397   4.329 -0.2197  1.8632  0.0368
 3052SOL    HW210056   4.981   6.422   4.192  0.1767  0.4653 -0.4800
 3053SOL     OW10057   2.044   4.034   6.319  0.2481  0.4123 -0.4729
 3053SOL    HW110058   2.033   3.953   6.263  2.0464  0.6541 -1.2686
 3053SOL    HW210059   1.969   4.098   6.302 -2.0013 -1.5858  1.2184
 3054SOL     OW10060   6.387   4.227   2.648  0.2767 -0.6501 -0.5360
 3054SOL    HW110061   6.288   4.235   2.661  0.4767  0.9730  0.1786
 3054SOL    HW210062   6.432   4.229   2.738  1.0930  1.0179 -0.9523
 3055SOL     OW10063   6.932   0.408   1.358  0.1645 -0.1851  0.5113
 3055SOL    HW110064   6.983   0.418   1.443  1.0323 -2.4920  0.3527
 3055SOL    HW210065   6.965   0.327   1.309  1.9840  2.6749 -3.6258
 3056SOL     OW10066   4.902   3.038   0.224  0.1308 -0.1898  0.2973
 3056SOL    HW110067   4.965   3.115   0.211 -1.0153  0.9878  1.4135
 3056SOL    HW210068   4.836   3.035   0.149  0.3840 -0.3065  0.0770
 3057SOL     OW10069   6.045   1.573   2.230  0.1674  0.8575  0.0923
 3057SOL    HW110070   6.007   1.493   2.275  4.3838 -1.3693  0.2031
 3057SOL    HW210071   6.037   1.653   2.290 -1.0516 -0.2796  1.5051
 3058SOL     OW10072   5.942   6.629   4.191 -0.2317  0.0637  0.6928
 3058SOL    HW110073   5.967   6.549   4.137  0.5304  0.1956  0.8446
 3058SOL    HW210074   5.952   6.608   4.288 -2.6043 -0.5193  0.8743
 3059SOL     OW10075   0.628   3.154   3.827 -0.6912  0.0131 -0.4872
 3059SOL    HW110076   0.611   3.245   3.865 -0.7996  0.3846 -1.4037
 3059SOL    HW210077   0.699   3.159   3.757 -1.0456 -0.5198 -0.8973
 3060SOL     OW10078   0.545   2.669   3.866 -0.2882  0.7760 -0.4385
 3060SOL    HW110079   0.581   2.592   3.920 -0.7569  0.9373  0.1186
 3060SOL    HW210080   0.556   2.649   3.769 -1.2521 -0.4229 -0.3314
 3061SOL     OW10081   4.803   4.572   1.621  0.0450  0.6148 -0.0100
 3061SOL    HW110082   4.847   4.518   1.693  0.5172  1.8178  0.6338
 3061SOL    HW210083   4.708   4.589   1.645 -0.8324 -1.8705 -1.3372
 3062SOL     OW10084   4.234   3.509   5.721 -0.2839  0.5399 -0.7107
 3062SOL    HW110085   4.268   3.595   5.685 -2.3905  1.6889 -0.0858
 3062SOL    HW210086   4.245   3.507   5.820 -2.6376  1.2937 -0.3839
 3063SOL     OW10087   5.645   5.844   2.878  0.4635 -0.5634 -0.1852
 3063SOL    HW110088   5.708   5.769   2.856  0.2489 -0.7441 -0.1831
 3063SOL    HW210089   5.555   5.807   2.902  0.0024 -0.2491 -1.3814
 3064SOL     OW10090   4.841   0.040   6.031 -0.3792  0.4707 -1.3189
 3064SOL    HW110091   4.771  -0.010   6.081  0.3155  1.8959  1.2345
 3064SOL    HW210092   4.927  -0.011   6.033  0.1704  1.3732  0.7713
 3065SOL     OW10093   5.812   3.116   0.192 -0.2835 -0.2635 -0.1598
 3065SOL    HW110094   5.714   3.107   0.174 -0.3705 -0.0135  0.1762
 3065SOL    HW210095   5.826   3.128   0.291  0.0046  0.8002 -0.3203
 3066SOL     OW10096   6.105   0.329   0.067 -0.0304 -0.0520 -0.2499
 3066SOL    HW110097   6.041   0.403   0.043 -1.5080 -1.2910 -0.2733
 3066SOL    HW210098   6.189   0.369   0.103 -0.1479  1.6792 -1.7460
 3067SOL     OW10099   6.915   0.634   4.146  0.2426  0.2052  0.0871
 3067SOL    HW110100   6.848   0.577   4.193  0.6565 -1.7650 -1.5688
 3067SOL    HW210101   6.867   0.705   4.093 -0.4347 -0.0766  0.3118
 3068SOL     OW10102   5.974   2.106   0.500 -0.2781  0.0323  0.1088
 3068SOL    HW110103   5.915   2.180   0.469  0.3293  0.2950 -0.4379
 3068SOL    HW210104   5.918   2.027   0.526 -0.9864  0.9507  1.4759
 3069SOL     OW10105   5.947   5.444   5.470 -0.1221  0.6767  0.2744
 3069SOL    HW110106   5.864   5.500   5.464  0.4134  1.5846  1.1132
 3069SOL    HW210107   5.922   5.347   5.476 -1.0408  0.6871 -2.2536
 3070SOL     OW10108   1.886   1.010   1.209  0.6624 -0.1385 -0.3434
 3070SOL    HW110109   1.858   1.105   1.195  1.0859 -0.1148 -1.0861
 3070SOL    HW210110   1.967   0.990   1.154  3.3130  0.3170  3.0786
 3071SOL     OW10111   6.646   4.556   3.879 -1.2483 -0.1325 -0.1353
 3071SOL    HW110112   6.727   4.554   3.820 -0.6795  1.7899  0.4922
 3071SOL    HW210113   6.631   4.466   3.919 -0.4251 -0.9429 -1.5679
 3072SOL     OW10114   2.530   5.187   5.666 -0.3488  0.3925  0.1799
 3072SOL    HW110115   2.516   5.203   5.764 -1.4523  1.2352 -0.1020
 3072SOL    HW210116   2.509   5.271   5.616  0.5949  0.0854 -0.7562
 3073SOL     OW10117   0.443   3.945   2.387 -0.0060  0.2031 -0.2926
 3073SOL    HW110118   0.530   3.898   2.399 -0.9538 -1.4361  0.6688
 3073SOL    HW210119   0.431   4.013   2.460  1.1976  1.7411 -1.4586
 3074SOL     OW10120   3.200   3.304   2.845  0.7174 -0.0267  0.0797
 3074SOL    HW110121   3.239   3.268   2.929  3.3463 -1.8461 -1.7562
 3074SOL    HW210122   3.261   3.374   2.807 -1.3447  2.1361  0.5047
 3075SOL     OW10123   4.320   4.420   0.833 -0.3646  0.0466  0.2626
 3075SOL    HW110124   4.315   4.464   0.744 -2.4047 -0.6265 -0.0236
 3075SOL    HW210125   4.355   4.485   0.901 -0.1977  1.0396 -0.7537
 3076SOL     OW10126   0.093   0.546   3.974  0.2660 -0.2388  0.4408
 3076SOL    HW110127   0.167   0.498   4.022 -0.1345 -0.8573  0.4490
 3076SOL    HW210128   0.013   0.551   4.033  0.3278  0.5232  0.4692
 3077SOL     OW10129   2.159   4.447   2.063  0.1849 -0.1193  0.2992
 3077SOL    HW110130   2.215   4.512   2.116  1.1014  0.2124 -1.0239
 3077SOL    HW210131   2.218   4.396   2.000 -0.8982 -0.3047 -0.5952
 3078SOL     OW10132   0.038   6.021   1.770  0.2019  0.6281  0.3339
 3078SOL    HW110133   0.047   6.048   1.674  0.9604  1.1095  0.5235
 3078SOL    HW210134  -0.008   5.933   1.776  1.0441  0.1068 -0.5338
 3079SOL     OW10135   2.343   4.311   2.274  0.0813 -0.5557  0.6942
 3079SOL    HW110136   2.373   4.351   2.188  1.1820 -0.0667  1.2864
 3079SOL    HW210137   2.415   4.322   2.343 -1.1646 -0.0287  1.9560
 3080SOL     OW10138   3.976   4.893   2.054 -0.0753 -0.2559  0.4471
 3080SOL    HW110139   3.898   4.929   2.105 -0.3526 -0.2079  0.0023
 3080SOL    HW210140   3.943   4.846   1.972  0.3498 -0.4633  0.3914
 3081SOL     OW10141   2.019   1.424   5.688  0.1711  0.3711 -0.0682
 3081SOL    HW110142   2.112   1.437   5.720  0.0508  2.2990 -0.3640
 3081SOL    HW210143   2.017   1.427   5.588 -0.0233 -1.3429 -0.1516
 3082SOL     OW10144   5.161   3.714   5.338  0.5385 -0.3360  0.1071
 3082SOL    HW110145   5.193   3.632   5.385  0.1170  0.2156  1.3919
 3082SOL    HW210146   5.110   3.688   5.256  1.8425 -1.2951 -0.4200
 3083SOL     OW10147   5.387   5.656   2.841 -0.0220 -0.0136  0.0249
 3083SOL    HW110148   5.370   5.566   2.801 -0.7834 -0.2035  0.7408
 3083SOL    HW210149   5.369   5.727   2.773 -1.6193 -0.3148  0.0930
 3084SOL     OW10150   1.821   4.251   3.918  0.0885 -0.2114 -0.9523
 3084SOL    HW110151   1.835   4.242   4.017 -0.0995  2.3774 -0.6033
 3084SOL    HW210152   1.795   4.163   3.880 -2.7921 -0.7954  1.8280
 3085SOL     OW10153   5.994   6.764   5.230 -0.5140 -0.0559  0.0304
 3085SOL    HW110154   5.935   6.745   5.152  0.1831  2.4453 -1.2323
 3085SOL    HW210155   5.999   6.684   5.290 -2.1647 -1.5729 -1.7582
 3086SOL     OW10156   0.114   0.556   1.023  0.1250  0.1184  0.1973
 3086SOL    HW110157   0.086   0.623   1.092 -0.1819 -0.1738  0.3599
 3086SOL    HW210158   0.131   0.602   0.936 -0.4530  0.3557  0.2063
 3087SOL     OW10159   0.623   5.830   2.469 -0.5983  0.0664 -0.5917
 3087SOL    HW110160   0.620   5.744   2.417 -1.6053  0.4700 -1.2341
 3087SOL    HW210161   0.566   5.822   2.551  3.1617 -1.5605  2.1665
 3088SOL     OW10162   1.969   2.615   3.593 -0.3002  0.9617  0.2091
 3088SOL    HW110163   1.988   2.696   3.539 -1.2950  1.2969  0.3374
 3088SOL    HW210164   1.994   2.632   3.689  2.4127  0.0273 -0.2330
 3089SOL     OW10165   6.524   6.540   0.731  0.1389  0.3613  0.1848
 3089SOL    HW110166   6.429   6.518   0.754  0.5500  0.2154  1.8711
 3089SOL    HW210167   6.532   6.553   0.633 -1.4980 -0.2708 -0.0657
 3090SOL     OW10168   6.558   1.580   2.356 -0.6816 -0.2514  0.3991
 3090SOL    HW110169   6.619   1.517   2.307 -1.5177  0.7495 -2.0527
 3090SOL    HW210170   6.472   1.533   2.376 -0.2868 -0.7092  1.0636
 3091SOL     OW10171   6.942   1.721   3.238 -0.3341  0.2359 -0.2730
 3091SOL    HW110172   6.881   1.679   3.171  0.6219  0.6497 -1.4519
 3091SOL    HW210173   7.034   1.685   3.226 -0.1937  0.0954  1.0522
 3092SOL     OW10174   3.476   1.518   4.884 -0.0821  0.2286  0.5273
 3092SOL    HW110175   3.501   1.615   4.895  0.5327  0.2143 -0.5962
 3092SOL    HW210176   3.441   1.483   4.971 -0.1404  1.4096  1.0013
 3093SOL     OW10177   0.069   6.696   0.108  0.5230 -0.3422  0.2799
 3093SOL    HW110178  -0.030   6.681   0.115  0.5024  0.2392  1.5284
 3093SOL    HW210179   0.117   6.610   0.120  0.1478 -0.7861 -1.2616
 3094SOL     OW10180   3.138   0.478   4.627 -0.0609  0.1001 -0.4834
 3094SOL    HW110181   3.154   0.576   4.638 -0.2419  0.2483 -1.4937
 3094SOL    HW210182   3.190   0.444   4.549 -2.7308  0.1103 -2.3771
 3095SOL     OW10183   2.164   3.638   4.591  0.4522 -0.4602  0.6438
 3095SOL    HW110184   2.095   3.702   4.627  0.4616 -0.3002  0.3772
 3095SOL    HW210185   2.179   3.566   4.658  1.0469  0.2687  1.3150
 3096SOL     OW10186   0.285   2.089   2.898  0.6107 -0.3055 -0.0527
 3096SOL    HW110187   0.313   2.185   2.909 -0.4112 -0.1407  1.4233
 3096SOL    HW210188   0.364   2.034   2.870  1.3874  0.8405 -0.1730
 3097SOL     OW10189   0.456   1.689   5.783  0.1414 -0.1260  0.0554
 3097SOL    HW110190   0.436   1.747   5.704  1.3162 -0.0317 -0.1970
 3097SOL    HW210191   0.501   1.744   5.854 -0.6670 -0.2696  0.6951
 3098SOL     OW10192   1.976   4.260   2.954 -0.3136  0.1890  0.7043
 3098SOL    HW110193   1.925   4.205   2.888  0.4563  1.0372 -0.6647
 3098SOL    HW210194   1.973   4.356   2.926  1.6023  0.3305  0.8333
 3099SOL     OW10195   0.964   2.315   5.572 -0.4081 -0.2260 -0.2564
 3099SOL    HW110196   0.995   2.361   5.489 -0.8083 -1.4294 -1.1084
 3099SOL    HW210197   0.865   2.302   5.567 -0.7395  1.3761  1.2975
 3100SOL     OW10198   5.578   4.262   1.764 -0.3100 -0.1451 -0.0513
 3100SOL    HW110199   5.491   4.218   1.785  0.0120 -0.5489  0.4868
 3100SOL    HW210200   5.566   4.328   1.690 -1.2511  0.4402  0.6101
 3101SOL     OW10201   3.566   6.968   3.145  0.1701 -0.3948  0.5810
 3101SOL    HW110202   3.501   7.026   3.194 -1.7803 -0.8302 -1.3124
 3101SOL    HW210203   3.572   6.879   3.190 -0.2974 -0.2209  0.9959
 3102SOL     OW10204   6.167   2.426   2.384 -0.0883  0.2002 -0.5212
 3102SOL    HW110205   6.172   2.331   2.356 -1.7692 -0.5157  1.3817
 3102SOL    HW210206   6.260   2.464   2.389  0.7261 -1.7147 -0.0917
 3103SOL     OW10207   0.318   6.968   5.475 -0.0955 -0.3857  0.0835
 3103SOL    HW110208   0.380   7.030   5.428  1.0598  0.0786  2.0799
 3103SOL    HW210209   0.313   6.881   5.426  0.6687  0.2268 -1.1101
 3104SOL     OW10210   5.081   2.595   5.380 -0.7630 -0.2954  0.0135
 3104SOL    HW110211   5.053   2.582   5.285  0.0414 -1.2875 -0.1013
 3104SOL    HW210212   5.027   2.535   5.439  1.3702 -2.6421 -0.2675
 3105SOL     OW10213   6.190   6.061   6.893 -0.2665 -0.1978 -0.0827
 3105SOL    HW110214   6.105   6.113   6.900  0.3386  0.8845 -0.6019
 3105SOL    HW210215   6.226   6.043   6.985 -0.6027  0.1164  0.1128
 3106SOL     OW10216   4.976   1.239   6.157 -0.2597  0.6487  0.3017
 3106SOL    HW110217   4.973   1.179   6.077 -0.5805  0.9655  0.0723
 3106SOL    HW210218   5.065   1.282   6.164  0.5230 -1.0262  1.3456
 3107SOL     OW10219   4.251   0.596   5.712 -0.4331 -0.1559  0.5526
 3107SOL    HW110220   4.311   0.642   5.777  0.9239 -0.2076 -0.6097
 3107SOL    HW210221   4.296   0.589   5.623 -2.2214 -0.0933 -0.4249
 3108SOL     OW10222   2.667   5.463   4.683  0.3054 -0.0955  0.0623
 3108SOL    HW110223   2.578   5.505   4.699  0.4181 -0.7911  3.1333
 3108SOL    HW210224   2.658   5.364   4.682  0.9873 -0.1668 -0.0619
 3109SOL     OW10225   0.455   4.904   5.760 -0.5886  1.0512  0.4701
 3109SOL    HW110226   0.364   4.871   5.786 -0.9933  0.5729 -1.4146
 3109SOL    HW210227   0.504   4.832   5.711  0.3878  1.6730  0.5043
 3110SOL     OW10228   1.128   4.267   4.454 -0.4735  0.0292 -0.1557
 3110SOL    HW110229   1.161   4.291   4.546 -2.6747 -0.7719  0.9233
 3110SOL    HW210230   1.163   4.177   4.429 -1.1326 -0.4551  0.6150
 3111SOL     OW10231   6.792   1.720   3.793 -0.8228 -0.1508 -0.2817
 3111SOL    HW110232   6.837   1.779   3.860  0.0946  0.3730 -1.3250
 3111SOL    HW210233   6.833   1.735   3.702 -0.9188 -1.9932 -0.6776
 3112SOL     OW10234   5.190   0.849   0.009  0.1643 -0.0575 -0.0653
 3112SOL    HW110235   5.091   0.858  -0.003  0.1179 -1.2054 -0.7532
 3112SOL    HW210236   5.222   0.912   0.080 -1.2658 -0.5716  1.0816
 3113SOL     OW10237   0.730   6.041   3.961  0.8974  0.0260  0.3410
 3113SOL    HW110238   0.678   6.051   4.046 -1.4156  0.3688 -1.0205
 3113SOL    HW210239   0.757   5.946   3.948  1.1201 -0.0527  1.3479
 3114SOL     OW10240   6.157   4.709   5.385 -0.1652  0.5212  0.0013
 3114SOL    HW110241   6.136   4.617   5.417  1.1105  0.1991 -0.0410
 3114SOL    HW210242   6.253   4.731   5.405 -0.4659  1.8799  0.1024
 3115SOL     OW10243   5.201   3.573   4.231 -0.3603  0.5766  0.4880
 3115SOL    HW110244   5.128   3.557   4.297 -0.4921 -0.6324  0.0714
 3115SOL    HW210245   5.214   3.492   4.175  0.4538  1.2218 -0.2922
 3116SOL     OW10246   5.284   3.726   5.639 -0.8719 -0.4333  0.3284
 3116SOL    HW110247   5.313   3.802   5.698 -0.4782 -1.2799  1.2621
 3116SOL    HW210248   5.186   3.735   5.620 -0.8368  0.2907  0.4513
 3117SOL     OW10249   2.115   0.227   2.312  0.5503 -0.2981 -0.1205
 3117SOL    HW110250   2.191   0.235   2.248 -0.1321 -0.8767 -1.0259
 3117SOL    HW210251   2.047   0.299   2.293  0.6796 -0.0278  0.4257
 3118SOL     OW10252   1.710   2.869   2.353 -0.4190  0.0853 -0.2883
 3118SOL    HW110253   1.663   2.957   2.345 -1.9491 -0.7368 -0.9107
 3118SOL    HW210254   1.728   2.833   2.262  0.3588 -0.1723 -0.0356
 3119SOL     OW10255   2.900   4.807   4.395 -1.3548 -0.2993 -0.9273
 3119SOL    HW110256   2.991   4.811   4.354  0.6132 -2.1250  2.7586
 3119SOL    HW210257   2.876   4.897   4.432 -0.1029 -0.2149 -0.2534
 3120SOL     OW10258   3.571   5.574   1.447  0.2796 -0.4657  0.5806
 3120SOL    HW110259   3.548   5.476   1.449 -0.0342 -0.6069 -3.3840
 3120SOL    HW210260   3.492   5.627   1.478 -1.1773 -1.3869 -1.3658
 3121SOL     OW10261   3.537   6.941   1.122  0.0576 -0.4936 -0.0217
 3121SOL    HW110262   3.606   6.901   1.062  2.5129  1.7821  1.0306
 3121SOL    HW210263   3.530   6.886   1.206  0.6220 -0.7608 -0.1453
 3122SOL     OW10264   5.367   2.972   5.912  0.3515 -0.7008  0.5916
 3122SOL    HW110265   5.355   3.066   5.878  0.7074 -0.5673  0.8364
 3122SOL    HW210266   5.305   2.911   5.862 -0.5308 -0.1971  1.0376
 3123SOL     OW10267   1.919   3.046   4.203 -0.2515 -0.6962  0.5987
 3123SOL    HW110268   1.886   3.105   4.129 -1.8396  0.0992  1.8847
 3123SOL    HW210269   1.920   3.097   4.289  0.7890 -1.8268  1.2877
 3124SOL     OW10270   3.875   6.083   5.292  0.1655 -0.0728 -0.2341
 3124SOL    HW110271   3.966   6.099   5.255  1.0412 -1.7320  1.0535
 3124SOL    HW210272   3.844   5.991   5.265 -1.0892  0.4075 -0.5291
 3125SOL     OW10273   6.904   1.018   4.048 -0.3978 -0.5252 -0.8586
 3125SOL    HW110274   6.896   0.966   4.133 -1.2393  1.0259  0.0634
 3125SOL    HW210275   7.001   1.030   4.026 -0.1241  0.0391  0.5438
 3126SOL     OW10276   4.792   4.263   4.964  0.6415 -0.0504  0.1421
 3126SOL    HW110277   4.729   4.244   5.039 -0.5006  2.3563 -0.0999
 3126SOL    HW210278   4.753   4.229   4.878 -0.2879  1.2180  0.0281
 3127SOL     OW10279   6.955   1.036   6.373 -0.1611  0.1643 -0.1391
 3127SOL    HW110280   6.893   1.100   6.418 -0.6382 -0.9350  0.8296
 3127SOL    HW210281   7.039   1.028   6.428  0.1557  0.4099 -0.5805
 3128SOL     OW10282   4.217   1.729   2.681 -0.2434  0.4463 -0.0957
 3128SOL    HW110283   4.158   1.698   2.606 -1.6498  1.9357  0.3254
 3128SOL    HW210284   4.188   1.687   2.767 -0.4806  0.9039  0.0537
 3129SOL     OW10285   2.638   1.705   6.555  0.0977 -0.1441 -0.0457
 3129SOL    HW110286   2.563   1.671   6.611  0.4195  3.2338  2.7529
 3129SOL    HW210287   2.726   1.677   6.594  0.3259  0.0614 -0.3982
 3130SOL     OW10288   6.641   5.896   2.541 -0.8291 -0.0029 -0.1589
 3130SOL    HW110289   6.684   5.921   2.454 -2.0436  0.0503 -0.7743
 3130SOL    HW210290   6.676   5.955   2.614 -1.1114  1.1812 -0.9512
 3131SOL     OW10291   5.509   1.363   3.138  0.1441  0.1353 -0.1116
 3131SOL    HW110292   5.425   1.395   3.183  0.4665  3.2213 -1.4387
 3131SOL    HW210293   5.486   1.291   3.072 -1.1823 -0.3142  0.8008
 3132SOL     OW10294   5.629   3.484   5.696 -0.3408 -0.1411 -0.7510
 3132SOL    HW110295   5.585   3.529   5.619 -0.7778  2.6405  0.9692
 3132SOL    HW210296   5.563   3.477   5.772  1.2202  1.2055  0.8047
 3133SOL     OW10297   0.276   6.253   3.232  0.3841 -0.3312 -0.7791
 3133SOL    HW110298   0.311   6.169   3.192  1.3274  0.5528 -1.8936
 3133SOL    HW210299   0.266   6.323   3.161 -2.0348  0.0104 -0.1986
 3134SOL     OW10300   4.285   6.615   3.937  0.8122 -0.2092  0.0435
 3134SOL    HW110301   4.266   6.706   3.975 -2.0341 -0.8553  0.3819
 3134SOL    HW210302   4.254   6.612   3.842  0.2992 -1.0017  0.2306
 3135SOL     OW10303   4.046   1.436   1.804  0.2862  0.2049 -0.1634
 3135SOL    HW110304   3.981   1.437   1.728 -0.9727  2.6826  0.8362
 3135SOL    HW210305   4.111   1.510   1.793  0.6152  0.0626  0.7429
 3136SOL     OW10306   0.816   5.473   1.186  0.2908  0.4863  0.1033
 3136SOL    HW110307   0.886   5.543   1.175 -0.0124  0.3529 -3.9650
 3136SOL    HW210308   0.859   5.383   1.195  0.6499  0.5921 -0.5544
 3137SOL     OW10309   6.428   4.726   4.990 -0.3195  0.5148  0.2352
 3137SOL    HW110310   6.348   4.723   5.051 -0.3963 -0.5966  0.1058
 3137SOL    HW210311   6.416   4.659   4.917  0.8168  0.2004  0.3199
 3138SOL     OW10312   0.410   4.389   4.934 -0.2226 -0.0226  0.6253
 3138SOL    HW110313   0.432   4.444   5.015 -0.0759  0.9654 -0.0716
 3138SOL    HW210314   0.311   4.373   4.930 -0.2392 -0.0161  0.9564
 3139SOL     OW10315   1.824   4.786   3.403  0.2183 -0.0323 -0.6466
 3139SOL    HW110316   1.757   4.721   3.439  1.2861 -0.7664  0.0740
 3139SOL    HW210317   1.792   4.822   3.316 -0.8183 -0.8411 -0.6146
 3140SOL     OW10318   5.362   6.481   6.150 -0.2665  0.3849  1.1783
 3140SOL    HW110319   5.308   6.546   6.096  2.2243  1.1698 -0.5853
 3140SOL    HW210320   5.460   6.502   6.139  0.5175 -1.9073  2.9160
 3141SOL     OW10321   6.133   1.882   6.337 -0.0429 -0.5246 -0.4857
 3141SOL    HW110322   6.098   1.790   6.318 -2.4272  0.1135  0.5374
 3141SOL    HW210323   6.076   1.950   6.292  0.6920  0.5471  0.1403
 3142SOL     OW10324   5.457   1.628   5.044  0.3443  0.2257  0.2251
 3142SOL    HW110325   5.413   1.556   4.991 -1.4110  0.9491  0.6185
 3142SOL    HW210326   5.508   1.588   5.120 -0.3913 -0.6154  0.2887
 3143SOL     OW10327   4.441   1.737   0.435 -0.1784 -0.2066 -0.1995
 3143SOL    HW110328   4.496   1.812   0.398 -1.9842  0.3781 -1.8586
 3143SOL    HW210329   4.469   1.651   0.392  0.6840 -0.2277  0.3804
 3144SOL     OW10330   6.251   4.070   5.704  0.1599 -0.0637 -0.3783
 3144SOL    HW110331   6.233   4.160   5.744  0.8895 -0.1510  0.1692
 3144SOL    HW210332   6.169   4.013   5.713  0.2901 -0.0713  1.0062
 3145SOL     OW10333   1.847   4.766   5.051 -0.5628  0.5389 -0.4265
 3145SOL    HW110334   1.932   4.737   5.095 -0.2953  1.1202 -0.5552
 3145SOL    HW210335   1.775   4.773   5.120 -0.2868  0.9002 -0.1721
 3146SOL     OW10336   5.108   1.461   4.359  0.5665 -0.3944 -0.4112
 3146SOL    HW110337   5.014   1.490   4.379  0.7878  0.6963 -0.8505
 3146SOL    HW210338   5.110   1.411   4.272  0.4244 -0.2031 -0.5251
 3147SOL     OW10339   4.232   6.319   1.572 -1.1343 -0.5608 -0.6530
 3147SOL    HW110340   4.195   6.312   1.664 -2.3662  1.7728 -0.8734
 3147SOL    HW210341   4.157   6.328   1.506 -0.2585 -0.3038 -1.6559
 3148SOL     OW10342   5.752   0.175   1.106  0.1185  0.2942 -0.1061
 3148SOL    HW110343   5.770   0.263   1.151 -0.9517  1.4263 -1.7881
 3148SOL    HW210344   5.839   0.137   1.074  0.4502  1.4730 -0.6550
 3149SOL     OW10345   4.548   2.925   6.128 -0.0290  0.0629 -0.5656
 3149SOL    HW110346   4.501   3.013   6.126 -0.4150 -0.0966  0.6768
 3149SOL    HW210347   4.629   2.929   6.068  0.6142  1.6368  0.3528
 3150SOL     OW10348   1.300   0.718   4.082 -0.8440 -0.1872  0.6146
 3150SOL    HW110349   1.250   0.710   3.996 -1.4534 -0.0263  0.9494
 3150SOL    HW210350   1.398   0.730   4.063 -0.8861 -0.8274 -0.0355
 3151SOL     OW10351   6.594   1.403   6.466 -0.1140 -0.0843 -0.0180
 3151SOL    HW110352   6.680   1.354   6.477 -0.2309 -0.0713  1.1294
 3151SOL    HW210353   6.523   1.339   6.436  0.3090 -0.0682 -1.0953
 3152SOL     OW10354   3.500   1.419   5.974  0.3617 -0.3073 -0.3337
 3152SOL    HW110355   3.567   1.445   6.043 -0.8282  1.5419  0.1949
 3152SOL    HW210356   3.415   1.469   5.990 -1.6005 -3.4430 -0.2700
 3153SOL     OW10357   3.801   4.910   1.159 -0.2481 -0.3388  0.1308
 3153SOL    HW110358   3.871   4.939   1.094  1.4983  1.5122  2.6169
 3153SOL    HW210359   3.840   4.911   1.252 -4.3857  4.6294  2.2968
 3154SOL     OW10360   5.536   3.202   0.248 -0.1896  0.0045  0.1753
 3154SOL    HW110361   5.532   3.298   0.275 -1.9880  0.1052 -0.3052
 3154SOL    HW210362   5.469   3.185   0.176  0.7631 -1.4213 -0.4169
 3155SOL     OW10363   5.715   6.373   6.953 -0.2864  0.1433 -0.1261
 3155SOL    HW110364   5.646   6.396   6.884 -2.7154 -2.3686  1.2579
 3155SOL    HW210365   5.711   6.439   7.028 -1.4184 -0.0944  0.0439
 3156SOL     OW10366   1.555   4.319   0.071 -0.0193 -0.6418  0.2483
 3156SOL    HW110367   1.543   4.347   0.166 -0.3909 -0.0311  0.0252
 3156SOL    HW210368   1.533   4.395   0.010  0.6395 -0.8855 -0.3179
 3157SOL     OW10369   1.727   1.243   4.008  0.2847  0.0784 -0.1326
 3157SOL    HW110370   1.740   1.144   4.015 -0.5368 -0.3649 -3.2280
 3157SOL    HW210371   1.662   1.273   4.076 -2.1656 -2.1978 -1.2835
 3158SOL     OW10372   0.990   0.107   0.132 -0.0366 -0.1959  0.2594
 3158SOL    HW110373   0.979   0.071   0.039 -0.9007  1.3876 -0.3018
 3158SOL    HW210374   1.073   0.163   0.136  0.5651 -1.1074  0.7464
 3159SOL     OW10375   5.839   5.633   2.898  0.0985 -0.5693 -0.2464
 3159SOL    HW110376   5.921   5.649   2.842 -0.8868 -0.8106 -1.8182
 3159SOL    HW210377   5.794   5.549   2.867 -2.1692  0.9363 -1.2171
 3160SOL     OW10378   2.806   0.557   0.466 -0.6033  0.2911  0.1020
 3160SOL    HW110379   2.766   0.484   0.410  0.0524  0.9189 -1.2154
 3160SOL    HW210380   2.743   0.635   0.469 -0.8701  0.0603  0.6969
 3161SOL     OW10381   0.880   1.026   4.356  0.3391 -0.3124 -0.6046
 3161SOL    HW110382   0.978   1.009   4.371 -0.0842 -1.2173  1.5150
 3161SOL    HW210383   0.835   1.041   4.443 -1.8067 -2.1486 -1.3016
 3162SOL     OW10384   2.005   6.233   2.762  0.0587  0.2162 -0.2262
 3162SOL    HW110385   1.926   6.282   2.798 -0.3000 -0.6169  0.1548
 3162SOL    HW210386   2.022   6.261   2.668 -1.6109 -0.6725 -0.8337
 3163SOL     OW10387   5.826   5.294   6.074  0.2745  1.1395 -0.4879
 3163SOL    HW110388   5.733   5.290   6.038 -0.7005 -1.3191  1.9226
 3163SOL    HW210389   5.865   5.202   6.077  1.5002  1.6478  1.5261
 3164SOL     OW10390   2.465   4.533   2.871  0.8106 -0.5265  0.1971
 3164SOL    HW110391   2.444   4.456   2.932  0.9295  0.0472  0.9820
 3164SOL    HW210392   2.558   4.564   2.888  0.4945  0.3040  0.4612
 3165SOL     OW10393   0.031   4.807   1.390  0.2895 -1.1327 -0.6503
 3165SOL    HW110394   0.011   4.905   1.384 -1.2504 -1.4002 -0.1808
 3165SOL    HW210395   0.130   4.793   1.380  0.6692  0.5590  0.3240
 3166SOL     OW10396   3.564   0.949   4.363 -0.0114 -0.1960  0.0132
 3166SOL    HW110397   3.564   1.049   4.370 -1.6617 -0.2406  2.1052
 3166SOL    HW210398   3.555   0.910   4.455  0.9955 -2.3064 -0.7215
 3167SOL     OW10399   6.428   2.535   2.389 -0.2371  0.0857  0.0483
 3167SOL    HW110400   6.494   2.467   2.357  1.7654  1.9882 -0.2161
 3167SOL    HW210401   6.415   2.604   2.318 -1.7655  0.3026  0.5024
 3168SOL     OW10402   0.690   2.251   6.282  0.4688  0.0086  0.2563
 3168SOL    HW110403   0.702   2.307   6.199 -2.0210  2.4710  1.4105
 3168SOL    HW210404   0.774   2.255   6.336  0.8345  1.5438 -0.3585
 3169SOL     OW10405   1.780   0.989   2.665 -0.3821 -0.2895 -0.5679
 3169SOL    HW110406   1.852   0.985   2.596 -0.6522  0.3721 -0.8889
 3169SOL    HW210407   1.766   1.083   2.694  0.4393 -0.6433  1.1513
 3170SOL     OW10408   1.474   6.600   3.098  0.3268  0.0989  0.0613
 3170SOL    HW110409   1.562   6.632   3.133  1.0298 -1.8603  0.1732
 3170SOL    HW210410   1.484   6.573   3.002 -0.4394  0.8522 -0.2517
 3171SOL     OW10411   0.292   1.471   5.711  0.2901  0.0427 -0.4327
 3171SOL    HW110412   0.224   1.502   5.643 -0.5617 -0.0231  0.3700
 3171SOL    HW210413   0.348   1.549   5.739  0.2403  0.1966 -0.7483
 3172SOL     OW10414   7.022   5.314   0.368  0.0016 -0.4014 -0.1158
 3172SOL    HW110415   6.974   5.228   0.386  1.5947 -1.4521 -0.7012
 3172SOL    HW210416   7.099   5.297   0.306  1.4249  1.1196  1.1480
 3173SOL     OW10417   0.082   4.409   2.217 -0.2937 -0.2081  0.0091
 3173SOL    HW110418   0.087   4.440   2.123  1.3070  1.5822  0.6296
 3173SOL    HW210419   0.167   4.361   2.241 -0.9813 -1.2995  0.3624
 3174SOL     OW10420   2.200   2.792   0.987 -0.0746  0.3846  0.1644
 3174SOL    HW110421   2.188   2.728   1.063  0.3129  0.5095  0.3343
 3174SOL    HW210422   2.298   2.805   0.970 -0.1478  1.0632  0.2429
 3175SOL     OW10423   5.068   4.975   3.318  0.1733 -0.4468 -1.1169
 3175SOL    HW110424   5.065   4.875   3.329 -1.3083 -0.3237 -0.1454
 3175SOL    HW210425   5.143   5.012   3.372  0.0341 -0.9368 -0.5710
 3176SOL     OW10426   6.693   4.990   4.224 -0.3973 -0.0461 -1.0875
 3176SOL    HW110427   6.621   4.988   4.293  0.9011  0.3184  0.3410
 3176SOL    HW210428   6.674   4.922   4.154 -2.1867  0.1485 -0.8463
 3177SOL     OW10429   0.705   1.925   0.761 -0.3670  0.1623  0.4657
 3177SOL    HW110430   0.721   1.996   0.830 -0.4353  0.7202 -0.0841
 3177SOL    HW210431   0.793   1.894   0.724 -0.3743  0.5141  0.1531
 3178SOL     OW10432   1.265   0.531   3.596  0.0069 -0.1609 -0.0501
 3178SOL    HW110433   1.291   0.603   3.531 -1.9483 -0.1464 -0.8682
 3178SOL    HW210434   1.195   0.566   3.658  0.1052 -0.9195  0.4900
 3179SOL     OW10435   1.046   5.089   0.527  0.3551 -0.4757 -0.3652
 3179SOL    HW110436   1.037   5.165   0.461 -0.1681 -0.0549  0.1844
 3179SOL    HW210437   1.129   5.038   0.506  0.1129 -0.4564 -1.4637
 3180SOL     OW10438   6.742   6.421   0.998 -0.5202  0.2516  0.3000
 3180SOL    HW110439   6.815   6.475   1.039  0.0115 -2.2396  2.9438
 3180SOL    HW210440   6.656   6.471   1.003  0.2341  1.5343  1.0290
 3181SOL     OW10441   0.078   5.452   5.364 -0.6667 -0.1832 -0.8410
 3181SOL    HW110442   0.159   5.454   5.305 -0.3354 -0.5707 -0.4035
 3181SOL    HW210443  -0.004   5.452   5.307 -0.3879  1.0071 -1.2834
 3182SOL     OW10444   2.012   6.651   0.861  0.4529  0.0994 -0.6765
 3182SOL    HW110445   2.034   6.743   0.830 -0.7251  0.2133 -1.2521
 3182SOL    HW210446   1.958   6.656   0.945  0.5697 -0.0769 -0.5894
 3183SOL     OW10447   4.393   4.759   0.021 -0.2163  0.3228  0.2083
 3183SOL    HW110448   4.307   4.729   0.063 -0.3933 -0.1498 -0.4835
 3183SOL    HW210449   4.412   4.704  -0.060  1.0781 -0.0119  0.7206
 3184SOL     OW10450   5.465   1.706   4.441 -0.6539 -0.0074  0.5894
 3184SOL    HW110451   5.391   1.660   4.489  1.0725 -2.1812  1.3709
 3184SOL    HW210452   5.542   1.720   4.505  0.7321 -0.6327 -0.8750
 3185SOL     OW10453   2.137   0.831   0.270 -0.2822  0.3417  0.3922
 3185SOL    HW110454   2.154   0.927   0.249 -0.7717  0.2739 -0.3665
 3185SOL    HW210455   2.068   0.823   0.342  1.3373  0.5815  2.0323
 3186SOL     OW10456   1.897   2.001   6.258  0.1924  0.1239  0.1940
 3186SOL    HW110457   1.839   1.920   6.248  0.8685 -0.6621  2.1274
 3186SOL    HW210458   1.948   1.995   6.344  1.8514  1.6049 -0.6203
 3187SOL     OW10459   4.556   1.013   2.266  0.1126  0.9426 -0.1654
 3187SOL    HW110460   4.581   0.960   2.347  0.1556 -0.6752 -1.1833
 3187SOL    HW210461   4.613   0.984   2.189 -1.5762  0.6694 -1.3655
 3188SOL     OW10462   6.669   0.030   3.150  0.1386 -0.0163  0.1355
 3188SOL    HW110463   6.582   0.019   3.103 -0.5543 -2.8584  1.8082
 3188SOL    HW210464   6.742  -0.009   3.095  0.0452  0.5654 -0.4061
 3189SOL     OW10465   4.082   0.357   6.998 -0.1814  0.2534  0.2147
 3189SOL    HW110466   4.099   0.318   7.088  0.5389  0.1180  0.0261
 3189SOL    HW210467   4.000   0.315   6.958  0.1037 -0.4519  0.3643
 3190SOL     OW10468   6.456   5.740   6.408 -0.0736  0.3699 -0.1405
 3190SOL    HW110469   6.508   5.721   6.491  0.5994 -1.1704 -0.8838
 3190SOL    HW210470   6.358   5.733   6.427  0.0842 -0.2375  0.4636
 3191SOL     OW10471   4.765   4.306   0.492 -0.1514  0.1407 -0.0376
 3191SOL    HW110472   4.727   4.384   0.442 -0.6964 -0.0242  0.1181
 3191SOL    HW210473   4.864   4.302   0.477 -0.4258 -0.5039 -1.9502
 3192SOL     OW10474   4.652   1.409   1.334  0.2760 -0.2464  0.4065
 3192SOL    HW110475   4.646   1.348   1.414 -2.7876  1.1099  1.3600
 3192SOL    HW210476   4.597   1.370   1.259  1.2779 -0.3877 -0.2690
 3193SOL     OW10477   3.785   1.358   4.942  0.2566  0.3954  0.5090
 3193SOL    HW110478   3.828   1.272   4.915 -0.0268  0.4634 -0.1665
 3193SOL    HW210479   3.823   1.433   4.888 -0.7744  0.4438 -0.1725
 3194SOL     OW10480   1.695   5.937   5.700  0.1118  0.3221 -0.5781
 3194SOL    HW110481   1.670   5.874   5.774 -0.3966  0.2857 -0.7782
 3194SOL    HW210482   1.628   5.930   5.626  0.0797  1.0502 -0.6308
 3195SOL     OW10483   6.802   6.815   1.941 -0.4368  0.1642  0.2392
 3195SOL    HW110484   6.782   6.903   1.985 -1.4477  1.5120 -2.6676
 3195SOL    HW210485   6.896   6.817   1.907  0.0470 -0.5306  1.4656
 3196SOL     OW10486   0.521   0.004   3.904  0.3984 -0.3038 -0.6060
 3196SOL    HW110487   0.425   0.032   3.909  0.2306 -0.9802  0.3303
 3196SOL    HW210488   0.562   0.010   3.994  0.7262 -1.7242 -0.6334
 3197SOL     OW10489   3.721   1.363   0.242 -0.7430 -0.1653  0.1779
 3197SOL    HW110490   3.634   1.390   0.201 -1.3061 -0.8701  0.8673
 3197SOL    HW210491   3.784   1.440   0.241 -1.8267  0.7562  0.8435
 3198SOL     OW10492   0.431   2.452   3.372 -0.7960  0.5758  0.2216
 3198SOL    HW110493   0.420   2.536   3.319 -1.9053  0.2637 -0.0550
 3198SOL    HW210494   0.450   2.375   3.311 -1.2193  0.3691  0.3445
 3199SOL     OW10495   5.077   3.534   4.741  0.1148  0.8975 -0.0733
 3199SOL    HW110496   5.029   3.620   4.759 -0.4508  0.3224  1.3573
 3199SOL    HW210497   5.155   3.527   4.803 -0.7873 -0.3201  0.9689
 3200SOL     OW10498   6.526   2.807   6.743 -0.9503 -0.0986  0.1167
 3200SOL    HW110499   6.472   2.833   6.823 -0.3014 -0.9876  0.8704
 3200SOL    HW210500   6.508   2.710   6.721  0.2325 -0.3764  0.3082
 3201SOL     OW10501   6.749   2.890   3.019  0.3092 -0.1293  0.5365
 3201SOL    HW110502   6.778   2.794   3.026 -0.4015 -0.4341 -0.3526
 3201SOL    HW210503   6.776   2.926   2.930 -2.4526 -0.6374 -0.6283
 3202SOL     OW10504   2.875   2.959   6.079 -0.4762  0.0800  0.0389
 3202SOL    HW110505   2.930   2.919   6.006 -0.6155  1.1619 -0.6918
 3202SOL    HW210506   2.782   2.922   6.076 -0.4236 -0.0302 -0.2019
 3203SOL     OW10507   4.894   5.895   1.532  0.0485  0.5689 -0.6854
 3203SOL    HW110508   4.894   5.798   1.511  2.1188  0.4381 -0.2330
 3203SOL    HW210509   4.933   5.946   1.455 -1.6414  1.1645 -1.2098
 3204SOL     OW10510   5.653   1.166   2.522 -0.1390 -0.4386  0.1252
 3204SOL    HW110511   5.625   1.207   2.435  1.7958 -0.5712 -0.5968
 3204SOL    HW210512   5.596   1.085   2.539 -1.7806  0.6297 -0.0624
 3205SOL     OW10513   5.477   4.340   0.816 -0.1244  0.8839 -0.1967
 3205SOL    HW110514   5.412   4.302   0.881 -0.5341  0.9213 -0.5845
 3205SOL    HW210515   5.504   4.432   0.845 -1.3021  1.4219 -0.7643
 3206SOL     OW10516   4.344   5.698   5.004 -0.1169  0.6956  0.3053
 3206SOL    HW110517   4.339   5.616   4.947  1.3897  2.3453 -2.4426
 3206SOL    HW210518   4.405   5.681   5.081  0.8682 -0.5410 -0.6929
 3207SOL     OW10519   1.753   5.705   2.493  0.3876  0.4610  0.2126
 3207SOL    HW110520   1.830   5.661   2.447 -0.5700 -1.4575  0.3401
 3207SOL    HW210521   1.788   5.770   2.561  2.0426 -2.1693  2.0939
 3208SOL     OW10522   6.939   4.633   0.226 -0.6417 -0.9664 -0.3197
 3208SOL    HW110523   7.033   4.651   0.196 -1.2988  1.0952 -1.3432
 3208SOL    HW210524   6.912   4.704   0.292 -2.3036  0.0332 -2.0068
 3209SOL     OW10525   5.716   5.654   4.950  0.1082  0.2256 -0.7994
 3209SOL    HW110526   5.704   5.555   4.942  1.3090 -0.1045  0.8822
 3209SOL    HW210527   5.709   5.680   5.047  1.2545  1.5753 -1.0601
 3210SOL     OW10528   5.050   5.625   3.602 -0.0963  0.0354  0.3525
 3210SOL    HW110529   4.975   5.596   3.662 -0.5780 -2.0661 -1.1640
 3210SOL    HW210530   5.028   5.714   3.561 -1.1153  0.0834  0.9847
 3211SOL     OW10531   3.162   1.608   1.579  0.8888 -0.0077 -0.3627
 3211SOL    HW110532   3.221   1.561   1.644  1.8175  0.0520 -1.1278
 3211SOL    HW210533   3.115   1.541   1.522 -2.2130 -0.2134  2.1836
 3212SOL     OW10534   2.983   5.683   4.374  0.6685  0.4021  0.4187
 3212SOL    HW110535   2.998   5.749   4.300  2.7328 -0.4422  0.0152
 3212SOL    HW210536   3.056   5.690   4.441  3.4105 -4.0168 -1.6471
 3213SOL     OW10537   1.584   6.120   6.960  0.1854  0.5353 -0.7680
 3213SOL    HW110538   1.639   6.036   6.963 -0.9818 -0.2423 -0.8518
 3213SOL    HW210539   1.599   6.171   7.044  1.8748  0.8974 -1.2385
 3214SOL     OW10540   1.482   6.246   3.385 -0.7009 -0.7330  0.1675
 3214SOL    HW110541   1.558   6.274   3.327 -0.7974 -2.1748 -0.7085
 3214SOL    HW210542   1.479   6.146   3.391 -3.0324 -0.7718 -0.5674
 3215SOL     OW10543   0.909   2.348   2.908  0.4455  0.0392 -0.3229
 3215SOL    HW110544   0.901   2.261   2.859  0.3407 -0.2647  0.2315
 3215SOL    HW210545   0.933   2.420   2.843 -1.3453 -0.0375 -1.1295
 3216SOL     OW10546   0.132   5.521   2.484  0.4844 -0.7720 -0.2125
 3216SOL    HW110547   0.041   5.563   2.475  0.5239 -0.4745  0.6473
 3216SOL    HW210548   0.196   5.588   2.522  0.9502 -1.1244 -0.3609
 3217SOL     OW10549   0.389   0.383   6.545 -0.0167 -0.3665  0.2123
 3217SOL    HW110550   0.326   0.318   6.502 -1.0573 -0.4228  1.7099
 3217SOL    HW210551   0.420   0.449   6.478  0.1262 -1.6980 -1.0838
 3218SOL     OW10552   6.198   6.859   2.604  0.4448 -0.2163  0.3083
 3218SOL    HW110553   6.126   6.879   2.538  1.4018 -0.7480 -0.9460
 3218SOL    HW210554   6.170   6.782   2.661 -0.4298  0.2988  0.5979
 3219SOL     OW10555   3.073   1.221   3.780 -0.2770  0.7348 -0.0270
 3219SOL    HW110556   3.093   1.204   3.683 -0.3162  1.1083 -0.0999
 3219SOL    HW210557   3.010   1.151   3.814  0.5221  0.0101 -0.0075
 3220SOL     OW10558   0.878   3.974   6.305 -0.2625 -0.5287  0.0167
 3220SOL    HW110559   0.973   3.948   6.324 -0.5476 -0.6786  1.3624
 3220SOL    HW210560   0.823   3.891   6.293 -0.4343 -0.4714  0.3943
 3221SOL     OW10561   5.026   2.238   1.847 -0.4661 -0.4041 -0.2657
 3221SOL    HW110562   5.081   2.179   1.788 -2.4117 -0.3891 -2.2582
 3221SOL    HW210563   5.052   2.224   1.942  2.5774 -0.7305 -1.0181
 3222SOL     OW10564   2.573   2.129   2.519 -0.0436 -0.0988  0.2726
 3222SOL    HW110565   2.624   2.050   2.484 -2.8233 -0.7976 -2.7277
 3222SOL    HW210566   2.591   2.208   2.461  0.0121  0.5104  1.1104
 3223SOL     OW10567   4.473   5.198   2.404 -0.1181 -0.6039 -0.4151
 3223SOL    HW110568   4.451   5.273   2.342 -0.0170  0.3472  0.6724
 3223SOL    HW210569   4.483   5.233   2.497  1.9427 -1.6233 -0.1898
 3224SOL     OW10570   4.953   1.132   4.983  0.0602 -0.7505  0.0395
 3224SOL    HW110571   5.013   1.132   5.064  0.4424 -2.2707 -0.2211
 3224SOL    HW210572   4.911   1.222   4.973  1.4794  0.0322  0.8441
 3225SOL     OW10573   1.755   0.527   3.996  0.1095  0.1151 -0.1742
 3225SOL    HW110574   1.758   0.467   3.915  0.7400  0.3538 -0.3372
 3225SOL    HW210575   1.815   0.490   4.067 -0.8055 -0.3443  0.3693
 3226SOL     OW10576   4.841   0.308   6.155  0.4579 -0.1008  0.0515
 3226SOL    HW110577   4.763   0.335   6.099  1.6088  0.2310 -1.4465
 3226SOL    HW210578   4.876   0.220   6.124  2.6980  1.2456 -1.5776
 3227SOL     OW10579   6.633   4.526   4.958 -0.0641  0.0268  0.2992
 3227SOL    HW110580   6.627   4.561   4.864 -0.1566 -0.1946  0.2226
 3227SOL    HW210581   6.727   4.533   4.990  0.0660 -0.3732  0.0053
 3228SOL     OW10582   1.893   5.048   0.950 -0.9760 -0.7070 -0.0927
 3228SOL    HW110583   1.884   5.111   0.872 -1.1319 -1.3062 -0.5663
 3228SOL    HW210584   1.874   5.098   1.035 -1.8630 -0.2805 -0.5209
 3229SOL     OW10585   6.969   6.764   5.593 -0.0088  0.5320 -0.0372
 3229SOL    HW110586   6.946   6.861   5.594  0.9876  0.7666  1.3208
 3229SOL    HW210587   6.885   6.710   5.585 -0.5627  1.4881 -0.8558
 3230SOL     OW10588   3.805   0.444   5.761 -0.7549 -0.0745  0.7581
 3230SOL    HW110589   3.742   0.439   5.838 -3.8741  0.3921 -1.5476
 3230SOL    HW210590   3.782   0.523   5.704  1.6410 -0.1872 -0.5107
 3231SOL     OW10591   2.062   1.815   3.339 -0.1455 -0.2849 -0.0777
 3231SOL    HW110592   2.082   1.848   3.246  0.3695  0.2262  0.2062
 3231SOL    HW210593   2.098   1.880   3.405  2.0871 -2.0289  0.5347
 3232SOL     OW10594   2.691   4.871   3.971  0.2205  0.4906 -0.0140
 3232SOL    HW110595   2.597   4.859   4.001  0.1912  1.9000  0.5068
 3232SOL    HW210596   2.753   4.831   4.038  0.0371  0.7261  0.2956
 3233SOL     OW10597   1.907   6.518   4.392 -0.0804 -0.4564 -0.0254
 3233SOL    HW110598   1.838   6.468   4.340 -1.1588  0.7580  0.1848
 3233SOL    HW210599   1.893   6.616   4.381  1.6346 -0.1654  0.0316
 3234SOL     OW10600   2.500   3.905   0.809 -0.0239 -0.5915 -0.4892
 3234SOL    HW110601   2.442   3.849   0.868 -1.7190  2.0503  0.4969
 3234SOL    HW210602   2.572   3.948   0.864 -1.4919  1.7281 -0.2674
 3235SOL     OW10603   0.756   2.056   4.138 -0.1281  0.1269 -0.0931
 3235SOL    HW110604   0.665   2.028   4.111  0.1015  1.2413 -2.2672
 3235SOL    HW210605   0.750   2.141   4.192 -0.4585 -0.9569  1.6515
 3236SOL     OW10606   6.889   6.380   0.786  0.4167 -0.1687 -0.2308
 3236SOL    HW110607   6.841   6.394   0.873 -0.7195 -0.4207 -0.8035
 3236SOL    HW210608   6.832   6.326   0.725  2.0429 -1.8326 -0.3984
 3237SOL     OW10609   5.167   2.050   3.556 -0.2173 -0.1075  0.7028
 3237SOL    HW110610   5.118   2.119   3.503 -0.4019 -2.1793 -2.0465
 3237SOL    HW210611   5.260   2.042   3.523 -0.8214 -2.6345 -0.6757
 3238SOL     OW10612   6.694   5.066   0.035 -0.2054  0.2926  0.5941
 3238SOL    HW110613   6.777   5.035  -0.011  0.1956  0.4452  1.2073
 3238SOL    HW210614   6.651   5.138  -0.019  0.5411  0.8306  0.7098
 3239SOL     OW10615   6.505   1.706   4.976 -0.2189  0.2914  0.7772
 3239SOL    HW110616   6.443   1.731   4.901  0.8538 -1.5701 -0.8391
 3239SOL    HW210617   6.454   1.655   5.045 -0.7329 -0.2442  0.0223
 3240SOL     OW10618   2.915   2.609   1.669 -0.2772 -0.3658  0.1367
 3240SOL    HW110619   2.921   2.559   1.756  0.6938  1.3049  1.0759
 3240SOL    HW210620   2.846   2.566   1.611 -1.0751 -1.4313  1.7962
 3241SOL     OW10621   0.458   3.198   5.471  0.4228 -0.1110  1.0512
 3241SOL    HW110622   0.361   3.208   5.491  0.2215  0.3044 -0.0667
 3241SOL    HW210623   0.471   3.123   5.406  0.8383 -0.0606  1.0737
 3242SOL     OW10624   0.505   4.436   6.421 -0.3809 -0.3737 -0.0648
 3242SOL    HW110625   0.570   4.509   6.400 -1.3415  0.1899 -1.1761
 3242SOL    HW210626   0.448   4.417   6.341 -0.8488 -1.6283  0.5365
 3243SOL     OW10627   4.017   4.294   5.566  0.1952  0.4472 -0.5177
 3243SOL    HW110628   3.998   4.392   5.570  0.2961  0.4290  1.7453
 3243SOL    HW210629   3.931   4.244   5.554  0.1531  0.7900 -1.7702
 3244SOL     OW10630   4.245   5.271   0.184  0.4307  0.0206  0.0281
 3244SOL    HW110631   4.170   5.223   0.230  0.1145  0.3500 -0.1464
 3244SOL    HW210632   4.237   5.258   0.085  1.1090 -0.6865  0.0567
 3245SOL     OW10633   0.301   4.346   3.989  0.9272  0.6016  0.2273
 3245SOL    HW110634   0.280   4.263   4.041  0.6307  0.7472  0.3423
 3245SOL    HW210635   0.284   4.426   4.046 -1.0166  0.8396 -0.6079
 3246SOL     OW10636   6.215   6.534   1.777 -0.0221 -0.1201  0.2616
 3246SOL    HW110637   6.136   6.487   1.737 -0.5358 -0.0032  1.0973
 3246SOL    HW210638   6.183   6.598   1.847  0.7067  1.1061 -0.5013
 3247SOL     OW10639   2.003   3.814   4.848  0.5040 -0.3514 -0.2260
 3247SOL    HW110640   1.995   3.797   4.750  0.7433  0.8052 -0.4625
 3247SOL    HW210641   2.037   3.907   4.863  0.1078 -0.3826  0.9621
 3248SOL     OW10642   3.410   1.704   4.261 -0.4050 -0.2096  0.0674
 3248SOL    HW110643   3.438   1.685   4.167 -1.3482  0.7083 -0.4237
 3248SOL    HW210644   3.472   1.772   4.301 -0.4881  0.0058 -0.1693
 3249SOL     OW10645   3.808   3.412   5.319  0.0407 -0.6310 -0.3359
 3249SOL    HW110646   3.825   3.404   5.417  0.1075 -0.8633 -0.3679
 3249SOL    HW210647   3.873   3.356   5.268  1.1698  0.8447 -0.6007
 3250SOL     OW10648   5.272   4.959   5.223 -0.1717  0.5694  0.5421
 3250SOL    HW110649   5.322   4.893   5.167 -1.3700 -0.6281  0.8398
 3250SOL    HW210650   5.193   4.994   5.172 -1.7189 -1.1148  1.6916
 3251SOL     OW10651   4.347   0.509   2.850  0.8199 -0.4605  0.4242
 3251SOL    HW110652   4.333   0.601   2.887  0.2759 -0.3425 -0.0490
 3251SOL    HW210653   4.309   0.505   2.757  1.5630 -0.9389  0.1382
 3252SOL     OW10654   6.796   0.781   3.254 -0.1138  0.8339 -0.5023
 3252SOL    HW110655   6.757   0.816   3.339  0.4419 -0.3241  0.2457
 3252SOL    HW210656   6.738   0.809   3.177 -2.2116 -0.4898  0.5163
 3253SOL     OW10657   6.922   3.719   1.312 -1.0308  0.4437 -0.5170
 3253SOL    HW110658   6.833   3.685   1.343 -1.2738  0.6876 -0.9302
 3253SOL    HW210659   6.987   3.644   1.309 -0.7780  0.5413  1.3204
 3254SOL     OW10660   5.666   1.664   1.205  0.5202  0.4533  0.1287
 3254SOL    HW110661   5.609   1.703   1.277  0.7122 -0.5697  0.8488
 3254SOL    HW210662   5.608   1.621   1.136  0.3665  0.7471  0.0742
 3255SOL     OW10663   4.212   5.459   3.742  0.1506  0.0102 -0.2587
 3255SOL    HW110664   4.264   5.542   3.762  1.4636 -1.1480  1.4982
 3255SOL    HW210665   4.124   5.462   3.790  0.3401  0.2552  0.0811
 3256SOL     OW10666   4.717   1.679   1.704 -0.7319  0.1960  0.3800
 3256SOL    HW110667   4.770   1.763   1.716 -0.9861  0.4113  0.0169
 3256SOL    HW210668   4.753   1.608   1.764  0.2823  0.1876 -0.2245
 3257SOL     OW10669   3.115   2.605   0.426 -0.6477  0.3574 -0.5889
 3257SOL    HW110670   3.030   2.655   0.439 -0.4555  0.7807 -0.9685
 3257SOL    HW210671   3.135   2.596   0.329 -0.4862 -0.1294 -0.5152
 3258SOL     OW10672   6.922   4.101   4.255 -0.0302 -0.3104  0.6980
 3258SOL    HW110673   6.870   4.146   4.327  0.4983  0.5110  0.5897
 3258SOL    HW210674   6.867   4.097   4.171 -0.6903 -1.3817  1.1628
 3259SOL     OW10675   5.756   3.790   3.315  0.0585  0.6381  0.0416
 3259SOL    HW110676   5.830   3.730   3.344 -0.3960  0.4692  0.8896
 3259SOL    HW210677   5.669   3.741   3.321 -0.1013  0.7116 -1.2912
 3260SOL     OW10678   2.390   4.853   4.718 -0.0659  0.1476  0.0214
 3260SOL    HW110679   2.329   4.842   4.797  0.9036  0.5858  0.8553
 3260SOL    HW210680   2.467   4.911   4.744  1.0554 -0.9296 -0.8091
 3261SOL     OW10681   5.202   0.550   4.399 -0.6539  0.0825 -0.4041
 3261SOL    HW110682   5.259   0.537   4.318  0.1400 -1.9560  0.4103
 3261SOL    HW210683   5.220   0.641   4.438  1.8672 -0.3375 -0.3660
 3262SOL     OW10684   2.655   1.170   2.306  0.3262  0.3677 -0.3030
 3262SOL    HW110685   2.569   1.123   2.326 -0.5845  2.4549  1.0457
 3262SOL    HW210686   2.704   1.188   2.391  1.7558 -0.1109 -0.9922
 3263SOL     OW10687   5.815   6.169   0.110 -0.0975 -0.2169 -0.0603
 3263SOL    HW110688   5.750   6.181   0.034  0.6304 -0.1923 -0.6926
 3263SOL    HW210689   5.773   6.199   0.195 -1.4667 -1.6378 -0.1937
 3264SOL     OW10690   1.225   4.931   1.479 -0.0305 -0.0179 -0.3509
 3264SOL    HW110691   1.250   4.857   1.415  0.2187 -2.2837  2.1884
 3264SOL    HW210692   1.290   5.006   1.470  1.7158 -1.5062 -0.8071
 3265SOL     OW10693   0.986   6.218   5.778 -0.0212  0.1407 -0.0998
 3265SOL    HW110694   0.906   6.160   5.766  1.0970 -1.1693 -1.7262
 3265SOL    HW210695   1.064   6.177   5.732  1.5918  1.4289  1.3411
 3266SOL     OW10696   3.331   3.050   0.346  0.2032 -0.5546 -0.2586
 3266SOL    HW110697   3.420   3.039   0.390  0.5747  0.8323 -0.6173
 3266SOL    HW210698   3.295   2.960   0.321  0.5075 -1.2911  1.7835
 3267SOL     OW10699   2.440   1.230   1.471 -0.0703 -0.6448  0.5425
 3267SOL    HW110700   2.426   1.329   1.470 -0.6565 -0.7214  1.0736
 3267SOL    HW210701   2.520   1.208   1.527  0.6329 -0.4103 -0.3391
 3268SOL     OW10702   6.113   2.752   2.299 -0.4989  0.2895  0.3389
 3268SOL    HW110703   6.111   2.817   2.375 -1.0794  0.5640  0.0944
 3268SOL    HW210704   6.208   2.735   2.272 -0.3199  0.6297  0.7493
 3269SOL     OW10705   2.968   4.878   1.436  0.2421 -0.5081 -0.0498
 3269SOL    HW110706   2.889   4.935   1.455  1.3097  0.8942  0.3536
 3269SOL    HW210707   2.938   4.787   1.407 -1.4907  0.1390 -0.3583
 3270SOL     OW10708   0.632   3.593   5.537 -0.4738  0.0588 -0.2556
 3270SOL    HW110709   0.602   3.681   5.500 -0.9855 -0.3568 -0.8273
 3270SOL    HW210710   0.635   3.600   5.637  1.9929  1.5288 -0.3426
 3271SOL     OW10711   1.164   2.913   2.564 -0.3213 -0.5154  0.1542
 3271SOL    HW110712   1.261   2.891   2.568 -0.3502 -0.8059 -0.5034
 3271SOL    HW210713   1.151   3.012   2.563 -0.1557 -0.4092  2.5762
 3272SOL     OW10714   3.928   1.080   6.776 -0.5933 -0.0481  0.4949
 3272SOL    HW110715   3.929   1.130   6.690 -0.5430 -2.3666 -0.9292
 3272SOL    HW210716   3.860   1.120   6.837  0.1386  2.3306 -0.1296
 3273SOL     OW10717   4.655   5.477   6.224  0.4580  0.5632 -0.5147
 3273SOL    HW110718   4.618   5.442   6.311  0.1384  2.9381  0.3734
 3273SOL    HW210719   4.754   5.485   6.231  0.5236 -0.0101 -0.6914
 3274SOL     OW10720   5.281   6.230   2.901  0.1084  0.6797 -0.0408
 3274SOL    HW110721   5.251   6.203   2.993 -1.2861  2.0326 -0.0608
 3274SOL    HW210722   5.381   6.238   2.900  0.2949 -1.1405  0.8393
 3275SOL     OW10723   4.773   0.107   1.397  0.3793 -0.9129  0.0963
 3275SOL    HW110724   4.814   0.162   1.470  1.1372  0.2568 -1.1691
 3275SOL    HW210725   4.834   0.032   1.373  0.6580 -0.6259 -0.1012
 3276SOL     OW10726   6.931   6.641   2.126 -0.2864  0.4477  0.6620
 3276SOL    HW110727   6.876   6.559   2.117  1.7914 -0.8453 -1.6786
 3276SOL    HW210728   6.906   6.707   2.055  0.3763  0.3149  0.2887
 3277SOL     OW10729   5.246   0.721   3.375  0.1049 -0.0706 -0.0508
 3277SOL    HW110730   5.306   0.662   3.321 -0.1537  0.3719 -0.8290
 3277SOL    HW210731   5.182   0.769   3.314  0.1311  0.8083  0.5988
 3278SOL     OW10732   4.970   1.158   0.748  0.3654  0.1257 -0.4682
 3278SOL    HW110733   5.055   1.203   0.722 -0.1855  1.1558 -0.5489
 3278SOL    HW210734   4.990   1.074   0.799  1.4147  0.4694 -0.3015
 3279SOL     OW10735   2.802   6.499   3.022 -0.3822 -0.3611 -0.7130
 3279SOL    HW110736   2.767   6.585   3.059 -0.4909 -0.2697 -1.0280
 3279SOL    HW210737   2.784   6.425   3.088  0.3760 -0.0224 -0.1113
 3280SOL     OW10738   1.452   1.495   4.381 -0.0296  0.0045  0.2969
 3280SOL    HW110739   1.498   1.469   4.466  0.5025  0.7439  0.2447
 3280SOL    HW210740   1.356   1.467   4.385  0.5192 -2.0831  0.1739
 3281SOL     OW10741   5.870   2.870   1.927  0.2173 -0.5211  0.5435
 3281SOL    HW110742   5.852   2.796   1.993 -1.8745 -0.3728  0.2200
 3281SOL    HW210743   5.799   2.940   1.937  1.7021  1.0672  0.2745
 3282SOL     OW10744   6.464   4.097   4.405 -0.2053 -0.0888  0.1114
 3282SOL    HW110745   6.403   4.082   4.483 -0.0701  0.9343  0.4303
 3282SOL    HW210746   6.417   4.154   4.337  0.5992  1.2667  0.6531
 3283SOL     OW10747   4.145   2.119   6.941 -0.1123  0.1956 -0.0967
 3283SOL    HW110748   4.202   2.077   6.871  0.5661 -0.1079  0.6254
 3283SOL    HW210749   4.147   2.218   6.932  1.0442  0.2195  0.3002
 3284SOL     OW10750   2.197   1.181   0.915  0.2760 -0.0376 -0.6394
 3284SOL    HW110751   2.111   1.142   0.947  0.0519 -0.5233 -1.7759
 3284SOL    HW210752   2.181   1.273   0.879  0.1897 -0.2087 -1.0419
 3285SOL     OW10753   4.009   2.140   5.173  0.1523  0.6839  0.8006
 3285SOL    HW110754   4.038   2.153   5.078  1.8751  0.7631  1.2989
 3285SOL    HW210755   4.074   2.185   5.234 -1.3713  1.3310  2.0100
 3286SOL     OW10756   0.217   5.276   2.532  0.4512 -0.3092  0.0126
 3286SOL    HW110757   0.189   5.371   2.520 -0.7338 -0.3122  2.3091
 3286SOL    HW210758   0.305   5.273   2.579  0.6832 -0.3603 -0.4185
 3287SOL     OW10759   3.584   2.494   0.904 -0.1612 -0.2061  0.8464
 3287SOL    HW110760   3.523   2.416   0.914 -0.8299 -0.0064 -1.2394
 3287SOL    HW210761   3.676   2.462   0.881 -0.1255 -0.3968  1.2370
 3288SOL     OW10762   2.645   4.178   6.245 -0.3061  0.2239  0.1326
 3288SOL    HW110763   2.715   4.131   6.192  0.0078  0.5517  0.2547
 3288SOL    HW210764   2.591   4.237   6.185 -1.1784 -0.8323 -0.1576
 3289SOL     OW10765   5.322   5.443   5.540 -0.2908  0.0156 -0.6603
 3289SOL    HW110766   5.336   5.499   5.622  2.9930 -1.0506 -0.3146
 3289SOL    HW210767   5.248   5.378   5.556  1.5542 -1.5807  2.4564
 3290SOL     OW10768   1.414   4.818   6.858 -0.4373  0.0649  0.1961
 3290SOL    HW110769   1.399   4.860   6.769 -1.0703  0.7385  0.6200
 3290SOL    HW210770   1.439   4.888   6.925  3.0293 -0.7376 -0.0643
 3291SOL     OW10771   6.888   6.389   4.071 -0.5652  0.4689  0.4189
 3291SOL    HW110772   6.838   6.452   4.011 -0.1704  0.8113  0.4480
 3291SOL    HW210773   6.977   6.370   4.032 -0.9261 -0.5919  0.0816
 3292SOL     OW10774   0.356   2.879   6.708  0.3248 -0.5635  0.3711
 3292SOL    HW110775   0.413   2.861   6.628 -0.4336 -0.0772 -0.2897
 3292SOL    HW210776   0.395   2.955   6.760  1.0318 -1.1288  0.6923
 3293SOL     OW10777   5.997   7.019   0.678  0.2100 -0.2591 -0.6808
 3293SOL    HW110778   5.942   6.936   0.675 -1.5234  0.8566 -2.0419
 3293SOL    HW210779   5.937   7.097   0.697  1.6778  0.7731 -0.1482
 3294SOL     OW10780   4.603   3.957   5.429 -0.1402  0.7933  0.5505
 3294SOL    HW110781   4.528   4.007   5.385 -0.8690 -0.1377  0.7022
 3294SOL    HW210782   4.629   3.879   5.373  0.8847  1.2385  0.3936
 3295SOL     OW10783   2.388   4.359   1.978 -0.0772 -0.1023  0.4351
 3295SOL    HW110784   2.420   4.451   1.956  0.0982 -0.4469 -0.8610
 3295SOL    HW210785   2.373   4.308   1.893 -0.9357 -1.0146  1.1062
 3296SOL     OW10786   1.766   1.652   0.389 -0.0494 -0.2821  0.2202
 3296SOL    HW110787   1.809   1.606   0.311 -0.3019 -0.0854 -0.0405
 3296SOL    HW210788   1.666   1.647   0.380 -0.1041 -1.3679  1.1954
 3297SOL     OW10789   3.517   2.174   5.828  0.7568  1.2847  0.1595
 3297SOL    HW110790   3.458   2.214   5.898  2.8319  2.3046  1.4256
 3297SOL    HW210791   3.537   2.243   5.759 -0.9370  0.4038 -1.2923
 3298SOL     OW10792   5.337   4.500   0.068  0.3744 -0.5220 -0.3799
 3298SOL    HW110793   5.287   4.563   0.127  2.2023  0.4481  0.1954
 3298SOL    HW210794   5.281   4.419   0.050 -1.8521  1.0108 -0.7394
 3299SOL     OW10795   2.787   6.285   3.266 -0.1320  0.8313 -0.2956
 3299SOL    HW110796   2.691   6.291   3.292 -0.2237  0.3997 -0.5333
 3299SOL    HW210797   2.841   6.247   3.341 -0.3939 -0.4067 -0.7107
 3300SOL     OW10798   1.454   2.921   3.295 -0.0141  0.5278  0.4822
 3300SOL    HW110799   1.441   2.916   3.394  2.0073  0.5541  0.7870
 3300SOL    HW210800   1.393   2.855   3.250  1.2107 -1.7482  1.9750
 3301SOL     OW10801   1.101   6.980   4.214  0.1267 -0.3043 -0.1548
 3301SOL    HW110802   1.048   7.013   4.136 -0.7453  1.2343  1.0243
 3301SOL    HW210803   1.053   6.904   4.258 -0.0945 -0.2386 -0.2817
 3302SOL     OW10804   2.364   4.305   3.869  0.1489 -0.3321  0.1385
 3302SOL    HW110805   2.353   4.370   3.794  0.5718  2.7440  2.5490
 3302SOL    HW210806   2.381   4.214   3.831  1.2045  1.1624 -3.4476
 3303SOL     OW10807   6.839   3.221   0.027  0.3576 -0.0019  0.1682
 3303SOL    HW110808   6.867   3.137  -0.019 -1.0368 -1.7688  2.3326
 3303SOL    HW210809   6.776   3.272  -0.031  0.0676 -1.2213 -0.6235
 3304SOL     OW10810   1.231   3.021   1.974 -0.4523 -0.3296 -0.3572
 3304SOL    HW110811   1.226   3.116   1.942 -0.5913 -0.5070 -0.8776
 3304SOL    HW210812   1.299   2.972   1.920  1.6290  0.1551  1.7098
 3305SOL     OW10813   3.756   2.179   6.373  0.3990 -0.5057  0.5106
 3305SOL    HW110814   3.714   2.258   6.327 -0.4147 -0.7885  0.7559
 3305SOL    HW210815   3.842   2.156   6.327 -0.3022 -0.6768 -0.7774
 3306SOL     OW10816   1.609   0.977   1.595 -0.9917 -0.2106 -0.3171
 3306SOL    HW110817   1.543   0.904   1.612 -2.0593  0.5380 -1.1030
 3306SOL    HW210818   1.658   0.958   1.509  0.3114 -1.0909  0.5860
 3307SOL     OW10819   2.248   5.918   5.505  0.1207  0.0001  0.2900
 3307SOL    HW110820   2.161   5.942   5.463 -0.7333 -1.4472  1.1608
 3307SOL    HW210821   2.266   5.979   5.582 -0.6904 -0.4155  0.8128
 3308SOL     OW10822   5.821   5.106   6.534 -0.7497  0.6248  0.1241
 3308SOL    HW110823   5.835   5.144   6.625  1.1473  0.8228 -0.2081
 3308SOL    HW210824   5.845   5.175   6.465  1.6389 -0.6922 -0.4928
 3309SOL     OW10825   5.333   1.135   4.043  0.1366 -0.1839 -0.2628
 3309SOL    HW110826   5.401   1.062   4.032 -0.4895 -1.0241  1.2064
 3309SOL    HW210827   5.269   1.132   3.967 -0.3410 -1.6906  0.1752
 3310SOL     OW10828   0.123   4.266   5.794 -0.3151  0.1834 -0.3476
 3310SOL    HW110829   0.049   4.250   5.859 -1.4214  1.3497 -1.2804
 3310SOL    HW210830   0.135   4.365   5.780  1.1836  0.0096 -0.4954
 3311SOL     OW10831   1.478   2.435   0.047  0.4491 -0.1834  0.6221
 3311SOL    HW110832   1.407   2.505   0.060  0.3041 -0.2214  0.0738
 3311SOL    HW210833   1.452   2.352   0.097  1.3060  0.5943  2.4531
 3312SOL     OW10834   4.024   3.674   6.443  0.1270 -0.0929 -0.2984
 3312SOL    HW110835   3.947   3.655   6.504 -0.0196 -1.7434 -0.9498
 3312SOL    HW210836   4.087   3.738   6.487 -1.3352  0.8713  0.4576
 3313SOL     OW10837   0.646   5.103   4.855 -0.4251  0.7291  0.3565
 3313SOL    HW110838   0.693   5.056   4.929 -1.4166  0.5914  0.9195
 3313SOL    HW210839   0.612   5.036   4.789 -0.6199  0.7606  0.4250
 3314SOL     OW10840   2.936   0.252   4.511  0.1520  0.6325  0.4979
 3314SOL    HW110841   2.846   0.289   4.533 -0.5354  0.1688 -1.3122
 3314SOL    HW210842   2.970   0.293   4.426  0.7705 -0.5706  0.1290
 3315SOL     OW10843   5.749   1.214   4.789 -0.1942 -0.2193 -0.2452
 3315SOL    HW110844   5.678   1.246   4.851 -0.4450 -2.1866  0.5489
 3315SOL    HW210845   5.709   1.151   4.722  0.4169  0.3789 -1.1928
 3316SOL     OW10846   4.526   1.039   1.089  0.1294  0.1769  0.1811
 3316SOL    HW110847   4.468   1.048   1.008 -0.2145 -1.0962  0.2632
 3316SOL    HW210848   4.512   0.949   1.130  2.6274 -0.4297 -0.1431
 3317SOL     OW10849   4.607   0.833   2.479 -0.4017  0.0999 -0.1623
 3317SOL    HW110850   4.693   0.863   2.520  0.0793 -0.0444 -1.0342
 3317SOL    HW210851   4.613   0.735   2.458 -1.3525 -0.2672  1.1665
 3318SOL     OW10852   3.490   4.112   0.409  0.1148 -0.5558  0.6374
 3318SOL    HW110853   3.538   4.067   0.484 -0.3907 -1.4482  0.4433
 3318SOL    HW210854   3.412   4.164   0.445 -0.0784 -0.9146  0.7374
 3319SOL     OW10855   0.103   5.347   4.018 -0.7092  0.3478  0.8559
 3319SOL    HW110856   0.047   5.264   4.021  0.8265 -0.7968 -0.4802
 3319SOL    HW210857   0.163   5.349   4.097  0.1324 -0.4969  0.2589
 3320SOL     OW10858   5.641   0.882   2.341  0.0145  0.3062 -0.2295
 3320SOL    HW110859   5.735   0.883   2.375  0.1464  1.1812 -0.5970
 3320SOL    HW210860   5.619   0.791   2.307  0.4307 -0.1439  0.6582
 3321SOL     OW10861   3.406   1.756   1.587  0.2146 -0.0771 -0.7994
 3321SOL    HW110862   3.368   1.847   1.604 -1.6133 -0.5623 -2.0514
 3321SOL    HW210863   3.338   1.686   1.609  1.3390 -1.1467 -0.5499
 3322SOL     OW10864   4.378   3.379   1.092 -0.7719  0.8089 -0.2100
 3322SOL    HW110865   4.408   3.448   1.025  0.0935  0.9663  0.3330
 3322SOL    HW210866   4.431   3.295   1.079 -0.4087  0.9326  0.4524
 3323SOL     OW10867   1.860   0.718   1.772 -0.1890 -0.0820 -0.0325
 3323SOL    HW110868   1.873   0.682   1.865 -1.1891 -1.9570 -0.5746
 3323SOL    HW210869   1.901   0.808   1.766 -1.0343  0.5715  2.5536
 3324SOL     OW10870   6.397   5.703   5.779 -0.1022  0.3649  0.3697
 3324SOL    HW110871   6.414   5.694   5.681 -2.7833 -0.3077 -0.1343
 3324SOL    HW210872   6.465   5.764   5.820  1.4391  0.1787 -1.7620
 3325SOL     OW10873   4.602   5.127   6.287  0.4331 -0.1285  0.3423
 3325SOL    HW110874   4.503   5.137   6.278  0.7396  1.7263 -1.8822
 3325SOL    HW210875   4.624   5.035   6.319 -1.9698 -0.7685  0.3169
 3326SOL     OW10876   3.572   1.783   0.982  0.5676  0.2493  0.0723
 3326SOL    HW110877   3.572   1.736   0.893  1.1205  2.1925 -1.0211
 3326SOL    HW210878   3.546   1.719   1.054 -0.8618 -1.1698 -1.6086
 3327SOL     OW10879   3.405   6.736   6.755 -0.3462 -0.1545  0.0834
 3327SOL    HW110880   3.313   6.703   6.775 -0.6429  0.7283  0.2257
 3327SOL    HW210881   3.426   6.815   6.813  0.9292 -1.0155  0.8376
 3328SOL     OW10882   3.765   4.167   4.869 -0.0545  0.3461  0.5846
 3328SOL    HW110883   3.790   4.234   4.800 -1.0353 -1.1628 -1.3472
 3328SOL    HW210884   3.667   4.148   4.864  0.3497 -2.0469  0.2138
 3329SOL     OW10885   6.443   0.088   5.667 -0.5726 -0.5911  0.3297
 3329SOL    HW110886   6.406  -0.005   5.666 -0.5638 -0.5998  0.6686
 3329SOL    HW210887   6.408   0.138   5.588  0.6299 -1.3425 -0.7359
 3330SOL     OW10888   6.117   2.543   2.014 -0.2213  0.7355 -0.2138
 3330SOL    HW110889   6.190   2.606   1.988  0.0540  0.3529 -0.3667
 3330SOL    HW210890   6.131   2.455   1.970  0.9634 -0.3520  2.1254
 3331SOL     OW10891   0.910   3.909   0.182 -0.5054 -0.2141  0.8017
 3331SOL    HW110892   0.862   3.821   0.179 -1.7954  0.4276  1.6069
 3331SOL    HW210893   0.928   3.939   0.088 -1.5328 -0.5645  0.4763
 3332SOL     OW10894   6.726   3.931   1.720  0.2041 -0.6420 -0.2472
 3332SOL    HW110895   6.776   3.873   1.655 -2.2689 -0.9534 -2.0117
 3332SOL    HW210896   6.669   3.873   1.779 -1.5045 -0.1203 -1.3365
 3333SOL     OW10897   1.966   5.509   4.759 -0.5033 -0.3999  0.2522
 3333SOL    HW110898   1.993   5.415   4.740 -1.7537 -0.8536  0.6101
 3333SOL    HW210899   1.937   5.516   4.855 -1.6854  0.0222 -0.1153
 3334SOL     OW10900   2.501   2.961   0.483 -0.0264 -0.2347  0.0700
 3334SOL    HW110901   2.402   2.950   0.494 -0.0586 -0.3489 -0.3038
 3334SOL    HW210902   2.523   2.966   0.385  0.5126 -1.7640  0.0862
 3335SOL     OW10903   0.027   2.735   3.900 -0.4149  0.0034 -0.0616
 3335SOL    HW110904  -0.040   2.741   3.826 -2.2756 -1.5626  1.4141
 3335SOL    HW210905   0.115   2.703   3.863 -1.3350 -0.8742 -1.5649
 3336SOL     OW10906   2.607   6.339   4.175 -0.2737 -0.1207  0.0149
 3336SOL    HW110907   2.681   6.405   4.183  1.1330 -1.3568 -1.9669
 3336SOL    HW210908   2.548   6.346   4.256  1.0767  1.9565  0.9255
 3337SOL     OW10909   2.958   2.037   2.787 -0.0665  0.2237 -0.3882
 3337SOL    HW110910   2.874   1.984   2.799 -0.2466  0.4877 -0.4840
 3337SOL    HW210911   2.944   2.107   2.718  0.3352  0.0570 -0.6420
 3338SOL     OW10912   6.810   6.477   2.721 -0.0454 -0.8949 -0.5459
 3338SOL    HW110913   6.726   6.461   2.669 -0.2338  1.2245 -0.9858
 3338SOL    HW210914   6.804   6.566   2.766  2.6539  0.1472 -2.0229
 3339SOL     OW10915   6.948   4.235   5.348 -0.4802  0.9666 -0.6539
 3339SOL    HW110916   6.879   4.270   5.412  0.0021  2.4031 -0.8952
 3339SOL    HW210917   6.977   4.143   5.377 -0.0577  1.6900  1.3655
 3340SOL     OW10918   2.732   6.449   2.776 -0.7223 -0.0250  0.0707
 3340SOL    HW110919   2.777   6.441   2.864  0.8106 -1.8040 -0.8019
 3340SOL    HW210920   2.717   6.545   2.754  0.5720  0.5178  1.4283
 3341SOL     OW10921   3.122   5.527   6.020  0.4819 -0.1274 -0.0958
 3341SOL    HW110922   3.132   5.626   6.010 -0.3363 -0.1989 -2.0741
 3341SOL    HW210923   3.144   5.483   5.934  1.4311 -1.7444  0.9418
 3342SOL     OW10924   1.955   5.911   4.951 -0.0442  0.3361  0.1210
 3342SOL    HW110925   1.972   5.893   5.047  1.8983  0.1809 -0.2025
 3342SOL    HW210926   2.024   5.863   4.895 -1.0760  0.4787 -1.3370
 3343SOL     OW10927   0.993   2.551   0.464  0.4313 -0.1223  0.2945
 3343SOL    HW110928   1.089   2.531   0.444  0.8573  1.9758  0.0556
 3343SOL    HW210929   0.954   2.605   0.390 -1.1016 -1.3180  0.1743
 3344SOL     OW10930   1.873   1.267   6.400 -0.0726  0.5207 -0.2904
 3344SOL    HW110931   1.820   1.348   6.422  0.5505  1.4830 -2.1598
 3344SOL    HW210932   1.944   1.253   6.469 -0.5235  1.2459  0.3271
 3345SOL     OW10933   3.264   4.147   5.912 -0.4166 -0.0343 -0.4827
 3345SOL    HW110934   3.299   4.106   5.828  1.6215 -1.2291  0.8595
 3345SOL    HW210935   3.269   4.247   5.905  0.8281 -0.1339 -1.3603
 3346SOL     OW10936   2.981   5.528   0.672 -0.4273  0.5337  0.0739
 3346SOL    HW110937   3.005   5.461   0.601  1.7634  0.6809  0.6072
 3346SOL    HW210938   2.963   5.480   0.758 -2.0925  0.4367 -0.2860
 3347SOL     OW10939   5.621   3.662   3.765  0.4694 -0.2983  0.6861
 3347SOL    HW110940   5.647   3.611   3.684 -0.2867  0.1510  0.1544
 3347SOL    HW210941   5.565   3.605   3.825  1.1858 -0.6909  0.9964
 3348SOL     OW10942   3.794   3.334   2.649  0.1140 -0.1129  0.2239
 3348SOL    HW110943   3.874   3.378   2.690 -0.5376  0.3102  1.0669
 3348SOL    HW210944   3.778   3.371   2.558  1.1346 -0.5174 -0.1348
 3349SOL     OW10945   6.647   2.641   0.610 -0.1068 -0.0015  0.5371
 3349SOL    HW110946   6.608   2.700   0.540 -0.8144 -0.0679  0.8675
 3349SOL    HW210947   6.662   2.694   0.693 -2.0648 -0.5627  1.3023
 3350SOL     OW10948   2.843   1.802   1.732 -0.4955  0.2843 -0.0677
 3350SOL    HW110949   2.935   1.809   1.695 -0.9883  1.8070 -1.0899
 3350SOL    HW210950   2.776   1.819   1.659 -1.5336  1.8259  1.1717
 3351SOL     OW10951   6.877   3.856   6.454  0.2430 -0.4009  0.1653
 3351SOL    HW110952   6.842   3.948   6.467 -0.5633 -0.3208 -2.1649
 3351SOL    HW210953   6.977   3.859   6.443  0.1620  0.2641 -0.4284
 3352SOL     OW10954   0.354   2.474   6.060 -0.1488 -0.2368  0.5152
 3352SOL    HW110955   0.309   2.396   6.103  0.5519 -0.8257  0.2096
 3352SOL    HW210956   0.403   2.527   6.128  0.2239 -0.6573  0.5758
 3353SOL     OW10957   1.355   5.894   1.425 -0.2728 -0.5919 -0.0606
 3353SOL    HW110958   1.289   5.846   1.484 -0.2375  1.0612  1.4226
 3353SOL    HW210959   1.317   5.982   1.398  0.8700 -0.1109 -0.1524
 3354SOL     OW10960   0.266   0.863   1.818 -0.1629  0.1609  0.2401
 3354SOL    HW110961   0.233   0.878   1.911 -1.6783  1.5721 -0.4722
 3354SOL    HW210962   0.340   0.796   1.819 -1.4155 -1.2974  2.2130
 3355SOL     OW10963   4.560   1.783   2.246 -0.4179 -0.0930 -0.1190
 3355SOL    HW110964   4.461   1.780   2.233 -0.2987 -1.0283 -0.9080
 3355SOL    HW210965   4.605   1.807   2.160  0.1265 -1.6520 -0.3085
 3356SOL     OW10966   0.748   2.893   1.682 -0.7248  0.0048  0.2882
 3356SOL    HW110967   0.846   2.877   1.668 -0.7908  0.6430 -1.0838
 3356SOL    HW210968   0.734   2.986   1.716 -0.8196 -0.2922  1.0687
 3357SOL     OW10969   3.253   0.887   3.733 -0.3128 -0.0492 -0.2127
 3357SOL    HW110970   3.325   0.851   3.793 -1.5555 -0.7995  0.8976
 3357SOL    HW210971   3.169   0.834   3.747 -2.4094  3.4526  1.8237
 3358SOL     OW10972   6.578   3.033   4.377 -0.0088 -0.3927 -0.2723
 3358SOL    HW110973   6.637   3.057   4.454 -0.6212  2.2008 -0.5087
 3358SOL    HW210974   6.482   3.048   4.402 -0.4064 -1.8895 -0.7861
 3359SOL     OW10975   2.412   1.762   2.692  0.1387  0.5238 -0.3021
 3359SOL    HW110976   2.403   1.843   2.750 -0.3162  0.3922 -0.1802
 3359SOL    HW210977   2.503   1.722   2.704  0.2250  0.7918 -0.0613
 3360SOL     OW10978   1.401   1.237   6.056  0.5625  0.1269 -0.8288
 3360SOL    HW110979   1.357   1.326   6.067  0.7617 -0.0597  2.5990
 3360SOL    HW210980   1.331   1.167   6.043  0.0690  0.3720  0.3059
 3361SOL     OW10981   3.241   0.685   2.012 -0.0584  0.1622  0.4815
 3361SOL    HW110982   3.258   0.589   1.989  1.1373  0.1877  1.1603
 3361SOL    HW210983   3.148   0.709   1.987 -0.5069 -1.2931  0.6511
 3362SOL     OW10984   2.433   1.653   4.100 -0.3072  0.2062  0.0586
 3362SOL    HW110985   2.444   1.556   4.079 -1.6683 -0.0615  0.5241
 3362SOL    HW210986   2.511   1.683   4.155  1.2547 -0.0434 -1.9007
 3363SOL     OW10987   0.511   0.051   0.450  0.0313 -0.1726 -0.4124
 3363SOL    HW110988   0.466   0.073   0.536  0.0483  1.3603 -0.7796
 3363SOL    HW210989   0.517  -0.049   0.441 -1.1794 -0.3829  0.7183
 3364SOL     OW10990   1.807   5.192   5.282 -0.3177  0.5699 -0.3222
 3364SOL    HW110991   1.833   5.147   5.197 -2.2658  0.4448 -0.8964
 3364SOL    HW210992   1.881   5.253   5.312  0.7844 -0.1050 -1.5727
 3365SOL     OW10993   1.259   3.293   5.969  0.0541  0.1695 -0.0156
 3365SOL    HW110994   1.236   3.292   5.871  1.0512 -0.9960 -0.2572
 3365SOL    HW210995   1.356   3.276   5.981  0.0783  1.0216  1.1712
 3366SOL     OW10996   4.224   1.901   6.264 -0.1709 -0.5070 -0.6374
 3366SOL    HW110997   4.141   1.881   6.211  0.2497 -0.7089 -1.2264
 3366SOL    HW210998   4.251   1.819   6.316  1.3478 -1.4449 -2.7730
 3367SOL     OW10999   3.037   0.346   3.358 -0.3920 -0.2090 -0.0896
 3367SOL    HW111000   3.054   0.291   3.276 -2.9371 -1.4095  0.0724
 3367SOL    HW211001   2.940   0.369   3.363 -0.1648  0.5043  2.2020
 3368SOL     OW11002   0.381   0.018   0.700 -0.5109  0.0664 -0.2852
 3368SOL    HW111003   0.290   0.057   0.684 -0.5944 -0.6447 -1.7160
 3368SOL    HW211004   0.372  -0.068   0.750 -0.4506  0.9912  1.3733
 3369SOL     OW11005   4.010   6.457   1.424  0.2339 -0.2012 -0.1454
 3369SOL    HW111006   3.922   6.421   1.456 -0.4193  0.9419 -0.6027
 3369SOL    HW211007   3.997   6.507   1.339  1.1360  0.9466  0.3624
 3370SOL     OW11008   6.931   0.460   6.996  0.2405 -0.0225 -0.3093
 3370SOL    HW111009   6.918   0.536   6.932  0.7257  0.3278 -0.0055
 3370SOL    HW211010   7.024   0.425   6.988  0.6331  0.6839  0.8838
 3371SOL     OW11011   0.590   5.650   1.861 -0.0277  0.3586  0.0846
 3371SOL    HW111012   0.688   5.635   1.853  0.2209  0.7486  1.8889
 3371SOL    HW211013   0.551   5.582   1.924 -0.9906 -0.0174 -0.8882
 3372SOL     OW11014   1.087   4.035   1.586 -0.0067  0.4422 -0.4316
 3372SOL    HW111015   1.141   4.097   1.529 -0.1208  1.5833  0.6501
 3372SOL    HW211016   1.144   3.997   1.658  0.0024 -0.5494 -0.9483
 3373SOL     OW11017   2.374   2.875   6.147 -0.1261 -0.1036 -0.3221
 3373SOL    HW111018   2.320   2.956   6.123 -1.5980 -1.1954 -0.8372
 3373SOL    HW211019   2.389   2.874   6.246  1.0430  1.4496 -0.4456
 3374SOL     OW11020   2.999   6.210   5.433 -0.2348 -0.1791  0.0043
 3374SOL    HW111021   2.949   6.288   5.468 -1.4123 -0.2565 -1.3970
 3374SOL    HW211022   2.967   6.188   5.341  2.9549  0.2723 -1.3455
 3375SOL     OW11023   3.014   4.108   5.415 -0.1427  0.6726  0.5327
 3375SOL    HW111024   3.069   4.127   5.334  2.3981  1.5769  2.3377
 3375SOL    HW211025   2.966   4.192   5.443 -2.6269 -0.1040 -1.0223
 3376SOL     OW11026   3.379   4.141   0.099 -0.0427 -0.3417 -0.0831
 3376SOL    HW111027   3.426   4.205   0.159  0.5358 -0.2053 -0.6756
 3376SOL    HW211028   3.375   4.051   0.143 -2.9303  0.5572  1.8114
 3377SOL     OW11029   3.293   3.883   5.374  0.0322  0.2101  0.1022
 3377SOL    HW111030   3.248   3.926   5.295 -0.8691 -1.1065 -0.1399
 3377SOL    HW211031   3.352   3.809   5.341 -1.0995 -0.9903  0.6931
 3378SOL     OW11032   6.647   1.866   1.471  0.3378  0.2968  0.2894
 3378SOL    HW111033   6.568   1.926   1.481  0.3731  0.3808  0.0662
 3378SOL    HW211034   6.619   1.782   1.424  0.0866 -0.2689  1.4024
 3379SOL     OW11035   6.036   4.469   5.494 -0.2412 -0.2857  0.0678
 3379SOL    HW111036   5.939   4.477   5.519 -0.3970  0.5990 -0.7608
 3379SOL    HW211037   6.048   4.390   5.434 -0.1759 -1.3053  1.3758
 3380SOL     OW11038   0.190   3.663   0.232 -0.2773  0.0328 -0.0342
 3380SOL    HW111039   0.104   3.710   0.253 -0.7025 -0.3925 -0.7848
 3380SOL    HW211040   0.195   3.644   0.134 -0.0533 -1.3684  0.2312
 3381SOL     OW11041   2.906   2.230   3.073  0.1103 -0.0060  0.4482
 3381SOL    HW111042   2.874   2.181   2.992  1.0420  2.0610 -1.2590
 3381SOL    HW211043   2.994   2.192   3.101 -0.8487 -1.6432  1.4112
 3382SOL     OW11044   1.776   6.127   0.549 -0.0784  0.4781  0.2115
 3382SOL    HW111045   1.747   6.222   0.545  0.6489  0.6841 -0.4300
 3382SOL    HW211046   1.875   6.122   0.537 -0.0187 -0.3111  0.9005
 3383SOL     OW11047   1.934   4.714   2.527  0.0206  0.9364 -0.4809
 3383SOL    HW111048   1.937   4.661   2.611 -0.1978  1.4257 -0.1639
 3383SOL    HW211049   1.849   4.766   2.523  0.2584  1.3123 -0.7613
 3384SOL     OW11050   2.943   3.409   3.167 -0.0780  0.2010  0.0580
 3384SOL    HW111051   2.928   3.507   3.155 -1.9504 -0.1170 -0.5606
 3384SOL    HW211052   2.966   3.390   3.262 -1.3695  1.0967  0.5855
 3385SOL     OW11053   0.355   3.608   3.835 -0.6039  0.2746  0.0602
 3385SOL    HW111054   0.407   3.612   3.920  0.1670 -0.6858 -0.3461
 3385SOL    HW211055   0.410   3.644   3.760 -0.7086 -0.2704 -0.2862
 3386SOL     OW11056   0.216   4.551   2.882  0.3177 -1.0278  0.2919
 3386SOL    HW111057   0.294   4.613   2.877  0.2372 -0.8583  0.9453
 3386SOL    HW211058   0.217   4.504   2.970 -2.1066  1.4608  1.8446
 3387SOL     OW11059   4.430   1.024   1.396  0.4194  0.3672  0.8830
 3387SOL    HW111060   4.517   1.073   1.394  0.5350  0.1485 -0.7656
 3387SOL    HW211061   4.440   0.937   1.348 -0.9993  0.8785 -0.4163
 3388SOL     OW11062   6.067   1.772   1.865  0.2706  0.1666 -0.2004
 3388SOL    HW111063   6.085   1.682   1.826  0.4475 -0.5916  1.5408
 3388SOL    HW211064   6.143   1.833   1.846  0.2492 -0.1073 -1.2061
 3389SOL     OW11065   5.467   4.036   2.414 -0.0420 -0.2407  0.0611
 3389SOL    HW111066   5.543   4.099   2.429  0.6259 -0.4475 -2.0880
 3389SOL    HW211067   5.406   4.072   2.344 -1.5596 -0.4299  1.2319
 3390SOL     OW11068   4.351   1.608   3.698 -0.4623 -0.7014 -0.0141
 3390SOL    HW111069   4.289   1.548   3.648 -1.2044  0.4725 -0.5554
 3390SOL    HW211070   4.299   1.666   3.760  0.2581 -0.7544  0.6528
 3391SOL     OW11071   1.808   0.854   6.002  0.6388 -0.0908 -0.2026
 3391SOL    HW111072   1.750   0.777   5.973 -0.1956  0.9439 -1.4156
 3391SOL    HW211073   1.842   0.902   5.921 -0.2380  1.8178  0.5041
 3392SOL     OW11074   0.102   5.838   5.583 -0.2968  0.2629  0.4184
 3392SOL    HW111075   0.196   5.857   5.611  0.0007 -0.4776 -0.0451
 3392SOL    HW211076   0.061   5.773   5.647  0.5154 -1.7447 -0.9942
 3393SOL     OW11077   6.215   0.870   4.883 -0.2472 -0.2796  0.9893
 3393SOL    HW111078   6.232   0.963   4.850 -0.4453 -0.5110  0.1882
 3393SOL    HW211079   6.294   0.837   4.933  0.2851 -0.0880  0.3004
 3394SOL     OW11080   4.275   0.608   0.475 -0.4561  0.0779  0.1160
 3394SOL    HW111081   4.201   0.588   0.412 -0.5507  0.4911  0.0923
 3394SOL    HW211082   4.244   0.592   0.569 -0.1470 -1.0645  0.0440
 3395SOL     OW11083   1.968   3.558   5.784  0.7006 -0.3545 -0.3974
 3395SOL    HW111084   2.061   3.590   5.768  1.2474 -1.8123 -0.2552
 3395SOL    HW211085   1.962   3.516   5.874  0.1231 -1.0717 -0.7620
 3396SOL     OW11086   6.040   3.599   4.606 -0.0016  0.2312 -0.6935
 3396SOL    HW111087   5.996   3.689   4.606  1.3322  0.9877  1.9192
 3396SOL    HW211088   5.976   3.531   4.641  0.1023  0.9103  0.9288
 3397SOL     OW11089   3.350   4.903   6.963 -0.4424 -0.2361  0.3400
 3397SOL    HW111090   3.353   4.881   6.865 -1.0017 -0.6248  0.4034
 3397SOL    HW211091   3.288   4.980   6.977  2.3162  2.2279 -0.0142
 3398SOL     OW11092   0.658   1.665   3.824 -0.0507 -0.5240  0.1172
 3398SOL    HW111093   0.604   1.680   3.907 -0.7509  0.2985 -0.4769
 3398SOL    HW211094   0.752   1.696   3.839 -0.3119  0.1248  0.4294
 3399SOL     OW11095   2.028   4.521   5.423 -0.5561 -0.1235 -0.3162
 3399SOL    HW111096   2.037   4.423   5.441  1.3253 -0.0941 -0.9024
 3399SOL    HW211097   1.940   4.553   5.459 -0.3243 -1.5866  1.7585
 3400SOL     OW11098   5.083   2.801   1.148  0.4917 -0.1848 -0.2063
 3400SOL    HW111099   5.079   2.769   1.053  1.4288  1.6797 -0.9019
 3400SOL    HW211100   5.002   2.767   1.197  0.7851 -2.5090 -1.1995
 3401SOL     OW11101   6.925   4.582   6.808  0.1857  0.4625  0.5047
 3401SOL    HW111102   6.952   4.579   6.712  0.1098  0.3089  0.4873
 3401SOL    HW211103   6.835   4.625   6.817 -0.2030 -0.3041  0.4124
 3402SOL     OW11104   5.729   4.815   1.944  0.4098 -0.5294  0.3749
 3402SOL    HW111105   5.699   4.852   1.856  3.6481  0.9027 -0.3134
 3402SOL    HW211106   5.745   4.891   2.008 -2.3836 -1.5757  2.4952
 3403SOL     OW11107   2.726   0.796   1.088  0.1769  0.2177  0.4022
 3403SOL    HW111108   2.728   0.732   1.011 -0.1487  1.0645 -0.3312
 3403SOL    HW211109   2.756   0.749   1.171  0.9811 -0.5981 -0.3249
 3404SOL     OW11110   4.038   5.623   3.043 -0.1409  0.2245  0.1081
 3404SOL    HW111111   4.091   5.551   3.087 -1.3433  0.6512  2.3812
 3404SOL    HW211112   3.960   5.648   3.101 -1.8293  0.8680 -2.2586
 3405SOL     OW11113   0.214   3.643   4.704 -0.0456  0.2052 -0.4896
 3405SOL    HW111114   0.125   3.609   4.675  0.3534 -1.7876  0.4333
 3405SOL    HW211115   0.215   3.656   4.803  1.0943 -1.2493 -0.2730
 3406SOL     OW11116   1.580   4.074   2.008 -0.2897 -0.2268  0.0324
 3406SOL    HW111117   1.492   4.078   2.054 -0.1907  2.7345  0.1467
 3406SOL    HW211118   1.647   4.030   2.067 -1.2512 -0.7571  0.7374
 3407SOL     OW11119   0.575   4.355   2.574 -0.3095  0.1509  0.1968
 3407SOL    HW111120   0.627   4.342   2.490  3.6067  0.4784  2.3507
 3407SOL    HW211121   0.537   4.448   2.575 -0.7539  0.0213 -1.2911
 3408SOL     OW11122   6.627   3.121   1.084  0.2477  0.2157  0.5216
 3408SOL    HW111123   6.687   3.079   1.152  0.1054  0.7151  0.9699
 3408SOL    HW211124   6.662   3.212   1.061  1.0678 -0.4810 -1.1250
 3409SOL     OW11125   5.482   1.868   6.409  0.0845  0.4533 -0.7318
 3409SOL    HW111126   5.477   1.770   6.425  0.4558  0.3772 -1.0752
 3409SOL    HW211127   5.415   1.894   6.339 -1.2092  0.7147  0.5499
 3410SOL     OW11128   2.181   1.292   1.843 -0.6939 -0.0117 -0.1027
 3410SOL    HW111129   2.083   1.304   1.860 -0.2957  1.2593  1.4561
 3410SOL    HW211130   2.229   1.378   1.859  0.8825 -0.9810  0.5883
 3411SOL     OW11131   5.202   1.230   2.964  0.5322 -0.4064 -0.6615
 3411SOL    HW111132   5.224   1.228   2.866  0.0155 -2.4053 -0.7714
 3411SOL    HW211133   5.257   1.162   3.012  0.6459  0.4327  0.4388
 3412SOL     OW11134   6.539   6.133   1.438 -0.1915 -0.1927  0.3633
 3412SOL    HW111135   6.625   6.123   1.488  0.1395  0.5557 -0.0509
 3412SOL    HW211136   6.462   6.113   1.500  0.1928  1.1004  1.3022
 3413SOL     OW11137   5.274   1.909   0.802  0.4438 -0.0670  0.2488
 3413SOL    HW111138   5.291   1.892   0.705  0.4820  0.9999  0.0616
 3413SOL    HW211139   5.300   2.002   0.825  0.0856 -0.1930  1.2097
 3414SOL     OW11140   4.615   1.071   6.359  0.2158  0.5187 -0.4674
 3414SOL    HW111141   4.617   1.044   6.455 -1.8121 -0.0965 -0.5578
 3414SOL    HW211142   4.651   1.164   6.350  0.5215  0.5564  0.8684
 3415SOL     OW11143   1.265   5.885   5.952 -0.2792  0.3715 -0.4839
 3415SOL    HW111144   1.260   5.805   6.011 -2.2408  1.8672  1.5271
 3415SOL    HW211145   1.280   5.967   6.007  0.4034  1.5850 -2.3498
 3416SOL     OW11146   2.303   4.796   4.455 -0.0747  0.3137 -0.0117
 3416SOL    HW111147   2.371   4.757   4.393  0.2904  1.0870 -0.1025
 3416SOL    HW211148   2.349   4.836   4.535 -0.3045  1.8569 -0.6186
 3417SOL     OW11149   6.195   2.568   0.487  0.5041 -0.0851 -0.0947
 3417SOL    HW111150   6.166   2.594   0.395 -1.1467 -0.8580  0.1696
 3417SOL    HW211151   6.249   2.484   0.482  0.2388 -0.2438 -0.3486
 3418SOL     OW11152   4.095   1.725   5.501 -0.0789  0.6540 -0.0831
 3418SOL    HW111153   4.053   1.640   5.470 -1.6419  0.9515  1.0935
 3418SOL    HW211154   4.026   1.798   5.502  0.5139  1.2360  1.6535
 3419SOL     OW11155   3.422   3.606   4.752  0.0723 -0.1577  0.5875
 3419SOL    HW111156   3.476   3.548   4.812  1.8417  1.5836  0.7672
 3419SOL    HW211157   3.344   3.643   4.803  0.6861  0.0840  1.3717
 3420SOL     OW11158   3.577   0.891   5.719 -0.4112 -0.2736 -0.0625
 3420SOL    HW111159   3.505   0.903   5.787 -2.8574  0.8876 -2.6392
 3420SOL    HW211160   3.641   0.968   5.725 -0.6330 -0.1494  0.8651
 3421SOL     OW11161   0.457   6.300   4.576  0.1014 -0.6609 -0.0946
 3421SOL    HW111162   0.384   6.365   4.599 -0.6009 -2.2991  2.8478
 3421SOL    HW211163   0.541   6.350   4.555 -1.1450  1.2141 -0.9461
 3422SOL     OW11164   2.709   1.924   2.817 -0.0341 -0.1800  0.4012
 3422SOL    HW111165   2.691   1.836   2.772 -2.2632  0.6537 -0.4298
 3422SOL    HW211166   2.624   1.974   2.829  1.3548  2.6800 -0.7713
 3423SOL     OW11167   3.187   6.696   1.078 -0.2888 -0.3133  0.3087
 3423SOL    HW111168   3.154   6.603   1.065  1.1915 -0.7129 -0.9216
 3423SOL    HW211169   3.225   6.730   0.992 -1.0390  1.5445  0.6677
 3424SOL     OW11170   3.650   1.748   2.449  0.0795  0.1433  0.1865
 3424SOL    HW111171   3.611   1.729   2.359 -1.1143 -1.2316  0.9514
 3424SOL    HW211172   3.577   1.759   2.515  0.9579  0.0305  1.1990
 3425SOL     OW11173   3.918   2.459   0.429  0.3588 -0.3919 -0.2947
 3425SOL    HW111174   3.869   2.516   0.495  0.8198  0.5360 -0.7252
 3425SOL    HW211175   4.005   2.430   0.468 -0.2978 -1.6397  0.2904
 3426SOL     OW11176   5.910   5.328   0.284  0.4000  0.7956  0.0511
 3426SOL    HW111177   5.975   5.370   0.221  0.7978  1.7312  1.0453
 3426SOL    HW211178   5.957   5.302   0.368  0.3121 -2.3119 -0.7417
 3427SOL     OW11179   3.027   0.338   0.436  0.1902 -0.0025  0.1870
 3427SOL    HW111180   2.976   0.408   0.386 -1.8050 -0.4044  1.5359
 3427SOL    HW211181   3.042   0.369   0.530 -1.3966 -1.6295  1.0282
 3428SOL     OW11182   3.716   5.118   3.334 -0.0234 -0.5336  0.4451
 3428SOL    HW111183   3.803   5.166   3.341 -0.8669  1.0095  0.6403
 3428SOL    HW211184   3.728   5.023   3.364  1.1102  0.2093  2.5376
 3429SOL     OW11185   6.070   3.887   5.821  0.3565 -0.4278  0.3176
 3429SOL    HW111186   5.993   3.826   5.799  0.5177 -0.8666  0.9398
 3429SOL    HW211187   6.155   3.835   5.815  0.3594 -0.7743  2.6802
 3430SOL     OW11188   1.690   6.936   0.492  0.2826 -0.3965 -0.1492
 3430SOL    HW111189   1.706   7.001   0.566  0.9088 -1.5115  0.7293
 3430SOL    HW211190   1.592   6.927   0.476  0.0400 -1.1434  1.5108
 3431SOL     OW11191   1.074   4.865   5.223 -0.2728 -0.2735 -0.1628
 3431SOL    HW111192   1.104   4.881   5.129  1.9297  0.7397  0.6633
 3431SOL    HW211193   1.016   4.941   5.253  0.3339  0.1987 -0.1803
 3432SOL     OW11194   6.697   2.497   6.230  0.2166  0.1711  0.0437
 3432SOL    HW111195   6.692   2.512   6.131  0.2443 -0.8097 -0.1223
 3432SOL    HW211196   6.605   2.502   6.269 -0.1130 -1.5858 -0.3973
 3433SOL     OW11197   2.786   5.625   6.655  0.6638  0.3375  0.3621
 3433SOL    HW111198   2.796   5.642   6.753  0.4262 -0.5394  0.5509
 3433SOL    HW211199   2.785   5.712   6.606 -0.2404  0.8389  1.2296
 3434SOL     OW11200   2.422   0.649   2.337 -0.2228 -0.4488 -0.6228
 3434SOL    HW111201   2.338   0.594   2.343  0.8407 -2.1649 -0.8087
 3434SOL    HW211202   2.468   0.649   2.426  2.0876 -3.7887 -1.6266
 3435SOL     OW11203   5.860   1.891   6.670 -0.1340  0.0765  0.2969
 3435SOL    HW111204   5.945   1.851   6.634  0.1540  0.5213  0.4667
 3435SOL    HW211205   5.849   1.863   6.765 -0.0631  0.1831  0.3380
 3436SOL     OW11206   4.718   6.061   0.630 -0.3661  0.1950  0.6181
 3436SOL    HW111207   4.684   6.048   0.536  0.1586  1.6728  0.1854
 3436SOL    HW211208   4.818   6.064   0.629 -0.3437 -0.2151  1.3006
 3437SOL     OW11209   4.532   6.580   6.646 -0.2746  0.4171  0.1758
 3437SOL    HW111210   4.455   6.638   6.671  0.7479  1.5700  0.7745
 3437SOL    HW211211   4.574   6.542   6.728  0.5034  0.7626 -0.0443
 3438SOL     OW11212   0.282   5.034   6.784  0.3464  0.5705 -0.8916
 3438SOL    HW111213   0.278   5.122   6.832  0.5803 -0.2453  0.6928
 3438SOL    HW211214   0.307   4.962   6.849  0.0579 -0.6906 -2.1343
 3439SOL     OW11215   1.129   2.203   4.821 -0.5408 -0.4632 -0.3462
 3439SOL    HW111216   1.147   2.297   4.793  2.2242 -0.6484  0.5191
 3439SOL    HW211217   1.167   2.140   4.753 -1.1378 -0.9478 -0.2377
 3440SOL     OW11218   4.434   2.423   0.151  0.3627  0.1458  0.9033
 3440SOL    HW111219   4.520   2.418   0.201  1.0194  2.4240  0.0685
 3440SOL    HW211220   4.440   2.367   0.068  1.5820  1.3946  0.1147
 3441SOL     OW11221   2.070   0.269   4.699 -0.2132  0.7755  0.8031
 3441SOL    HW111222   2.024   0.182   4.682 -2.0300  1.9018 -0.3548
 3441SOL    HW211223   2.013   0.326   4.758  1.2036  1.0140  2.0026
 3442SOL     OW11224   6.676   2.424   4.094 -0.3462 -0.1679 -1.1221
 3442SOL    HW111225   6.773   2.445   4.087 -0.2786 -0.4203 -0.9768
 3442SOL    HW211226   6.664   2.331   4.130 -0.6392  0.0721 -0.5695
 3443SOL     OW11227   0.069   2.175   5.476  0.3433 -0.2879  0.3351
 3443SOL    HW111228  -0.025   2.186   5.445 -0.0909  0.6051  1.8731
 3443SOL    HW211229   0.110   2.095   5.431 -0.6069  0.2154 -1.5395
 3444SOL     OW11230   4.788   5.930   0.001  0.4308  0.0801 -0.9905
 3444SOL    HW111231   4.805   6.007   0.062 -1.6167  1.4907 -2.1221
 3444SOL    HW211232   4.875   5.886  -0.021  1.4893  1.1566  0.8144
 3445SOL     OW11233   6.676   4.142   5.024 -0.5166  0.0313 -0.4474
 3445SOL    HW111234   6.609   4.214   5.045 -1.3714 -0.1891 -2.1877
 3445SOL    HW211235   6.768   4.181   5.023 -0.4783  0.2225  2.5863
 3446SOL     OW11236   2.763   5.718   0.185  0.2455 -0.3767 -0.4078
 3446SOL    HW111237   2.827   5.766   0.125  1.5456 -1.2629  0.2152
 3446SOL    HW211238   2.813   5.679   0.262 -0.5347 -3.5004 -1.3263
 3447SOL     OW11239   5.343   4.242   3.918 -0.6089 -0.4004  0.2039
 3447SOL    HW111240   5.420   4.302   3.940 -1.1303  1.3679 -2.3832
 3447SOL    HW211241   5.266   4.264   3.978 -0.3148  0.5185  0.2663
 3448SOL     OW11242   4.498   4.256   6.588  0.2650  0.0425  0.1858
 3448SOL    HW111243   4.526   4.178   6.532  0.8007 -1.1291  1.9982
 3448SOL    HW211244   4.409   4.237   6.629 -0.2134  0.9697 -0.3895
 3449SOL     OW11245   6.150   6.735   5.512  0.1427 -0.0961 -0.5477
 3449SOL    HW111246   6.157   6.833   5.493  0.2281  0.2960  1.2703
 3449SOL    HW211247   6.056   6.706   5.499  0.3643 -0.1182 -2.4255
 3450SOL     OW11248   1.626   0.426   2.003  0.4040  0.1620  0.2461
 3450SOL    HW111249   1.549   0.365   1.982 -0.5961  0.5427  2.4731
 3450SOL    HW211250   1.704   0.401   1.946 -0.8332 -1.3506 -0.9008
 3451SOL     OW11251   3.515   6.093   3.817 -0.2648  0.3501  0.0242
 3451SOL    HW111252   3.436   6.050   3.860 -0.1823  1.3971  1.3220
 3451SOL    HW211253   3.595   6.084   3.877 -0.2620  2.3039  0.3954
 3452SOL     OW11254   6.318   2.210   1.010 -0.6147 -0.6625  0.2234
 3452SOL    HW111255   6.415   2.188   1.014 -0.6616 -0.7041  2.1096
 3452SOL    HW211256   6.283   2.189   0.919  0.7967 -2.1238 -0.0321
 3453SOL     OW11257   5.041   4.725   3.403 -0.1154  0.1043  0.0016
 3453SOL    HW111258   5.043   4.754   3.499 -0.3901 -1.3372  0.4661
 3453SOL    HW211259   4.956   4.676   3.385  1.2679 -2.3936 -0.1210
 3454SOL     OW11260   6.858   0.258   6.780  0.2073 -0.3396  0.8056
 3454SOL    HW111261   6.917   0.177   6.779  0.2086 -0.3429  1.0066
 3454SOL    HW211262   6.828   0.276   6.874 -0.7192 -0.7755  0.6112
 3455SOL     OW11263   0.245   3.851   2.236  0.2335  0.5333  0.0344
 3455SOL    HW111264   0.164   3.909   2.248 -0.3431 -0.0942 -0.6555
 3455SOL    HW211265   0.319   3.884   2.293 -0.3574  1.4284  0.3015
 3456SOL     OW11266   0.472   0.324   0.760 -0.0959  0.3057 -0.1838
 3456SOL    HW111267   0.471   0.224   0.752  0.4979  0.3019 -0.2024
 3456SOL    HW211268   0.466   0.365   0.669 -1.0293  0.2998 -0.1410
 3457SOL     OW11269   0.373   5.109   3.435  0.0101  0.1958  0.2479
 3457SOL    HW111270   0.461   5.147   3.461  0.4863 -0.2207 -0.7015
 3457SOL    HW211271   0.382   5.061   3.347 -1.4380  1.2282 -0.5109
 3458SOL     OW11272   5.203   5.076   0.951  0.5959  0.0240 -0.2762
 3458SOL    HW111273   5.206   5.072   1.051  1.0701 -0.6429 -0.3127
 3458SOL    HW211274   5.295   5.092   0.916  0.7497 -1.5535 -0.6726
 3459SOL     OW11275   5.609   2.229   5.320 -0.4958 -0.6043 -0.3847
 3459SOL    HW111276   5.657   2.176   5.249 -0.3962 -0.6715 -0.2672
 3459SOL    HW211277   5.543   2.170   5.366  0.5810 -1.0075  0.6835
 3460SOL     OW11278   6.894   2.970   6.176 -0.3327  0.0250  0.5760
 3460SOL    HW111279   6.797   2.962   6.157 -0.4283 -0.3140  1.1696
 3460SOL    HW211280   6.928   2.884   6.215 -0.1000  0.5764  1.6434
 3461SOL     OW11281   2.067   5.327   1.987 -0.3272 -0.2689  0.2795
 3461SOL    HW111282   2.027   5.242   1.953  0.0046 -0.6848  0.8881
 3461SOL    HW211283   2.164   5.312   2.005 -0.3452  0.1343  0.7266
 3462SOL     OW11284   4.249   0.643   1.750  0.4621 -0.1211  0.4294
 3462SOL    HW111285   4.305   0.566   1.720  0.1520 -0.1948  0.0231
 3462SOL    HW211286   4.237   0.707   1.674 -0.8753 -0.6368  0.1740
 3463SOL     OW11287   0.714   3.198   5.876 -0.2116  0.4677 -0.0426
 3463SOL    HW111288   0.736   3.151   5.962 -1.5672 -0.0018  0.0702
 3463SOL    HW211289   0.796   3.201   5.819  0.1100 -1.4837  0.2205
 3464SOL     OW11290   5.644   2.084   6.263  0.2585  0.1012 -0.1182
 3464SOL    HW111291   5.659   2.180   6.289  1.5085 -0.0101 -0.3247
 3464SOL    HW211292   5.551   2.057   6.284 -1.3741  2.4662 -3.4077
 3465SOL     OW11293   1.510   5.150   1.144 -0.2422 -0.4825 -0.4055
 3465SOL    HW111294   1.510   5.052   1.122 -1.1004 -0.7663  0.7693
 3465SOL    HW211295   1.534   5.202   1.062 -0.9217 -1.6065 -1.3600
 3466SOL     OW11296   6.847   3.492   3.071  1.0079  0.2050  0.2525
 3466SOL    HW111297   6.859   3.399   3.107  0.1684  0.6290  1.7209
 3466SOL    HW211298   6.853   3.490   2.971  0.7429 -1.4660  0.2348
 3467SOL     OW11299   4.108   4.476   6.959 -0.0017 -0.5395  0.2443
 3467SOL    HW111300   4.076   4.381   6.956 -0.9809 -0.1970 -1.3182
 3467SOL    HW211301   4.205   4.478   6.982  0.6400 -2.1066 -1.9829
 3468SOL     OW11302   5.190   0.468   2.051  0.4492  0.6602  0.0112
 3468SOL    HW111303   5.168   0.563   2.025 -2.8813 -0.1554 -0.6709
 3468SOL    HW211304   5.186   0.460   2.151  0.8032  1.2398  0.0796
 3469SOL     OW11305   3.950   6.606   4.924 -0.0258  0.3161  0.1047
 3469SOL    HW111306   3.990   6.675   4.864  2.2946 -2.1788 -1.4786
 3469SOL    HW211307   3.859   6.582   4.891 -1.5436  3.4967  1.5686
 3470SOL     OW11308   2.598   2.235   0.591 -0.6729  0.1850 -0.2839
 3470SOL    HW111309   2.618   2.177   0.670  0.8643 -0.1975 -0.9079
 3470SOL    HW211310   2.502   2.223   0.564 -0.7824 -0.9242  0.5222
 3471SOL     OW11311   4.774   4.755   5.892 -0.0974 -0.2016  0.1298
 3471SOL    HW111312   4.738   4.664   5.873  2.4956 -1.0627 -1.2265
 3471SOL    HW211313   4.805   4.760   5.987 -0.1219 -0.7895  0.1715
 3472SOL     OW11314   5.070   1.625   2.564 -0.0365  0.3609  0.0119
 3472SOL    HW111315   5.078   1.530   2.536 -2.6161  0.1194 -0.0834
 3472SOL    HW211316   5.040   1.630   2.659 -1.4402  1.0304 -0.4443
 3473SOL     OW11317   6.032   5.690   3.332 -0.1445  0.0983 -0.4255
 3473SOL    HW111318   6.129   5.691   3.307  0.0338  1.9917  0.1279
 3473SOL    HW211319   6.014   5.614   3.394  1.0471 -0.1346 -0.3440
 3474SOL     OW11320   4.671   4.460   2.686 -0.3641 -0.1351 -0.7583
 3474SOL    HW111321   4.637   4.445   2.593 -3.0987 -1.4895  0.3536
 3474SOL    HW211322   4.723   4.381   2.717  1.4725  0.7511 -1.4378
 3475SOL     OW11323   0.363   3.492   4.498 -0.3645  0.4832  0.1047
 3475SOL    HW111324   0.300   3.525   4.568  1.3778  2.8659  0.6936
 3475SOL    HW211325   0.329   3.519   4.407 -1.0851  0.1273  0.2614
 3476SOL     OW11326   0.592   3.779   3.229 -0.3155 -0.4221  0.5509
 3476SOL    HW111327   0.601   3.778   3.129  0.4081  0.0908  0.5990
 3476SOL    HW211328   0.504   3.819   3.254 -0.3434 -0.2036  0.1196
 3477SOL     OW11329   0.171   4.411   0.804  0.0453 -0.0253 -0.4913
 3477SOL    HW111330   0.211   4.320   0.789 -0.7940 -0.0650 -2.8805
 3477SOL    HW211331   0.241   4.481   0.790  0.6932 -0.2527  1.3491
 3478SOL     OW11332   1.319   0.856   1.332 -0.5466  0.1539  0.2244
 3478SOL    HW111333   1.237   0.913   1.321 -0.1938  0.7318  0.5596
 3478SOL    HW211334   1.333   0.838   1.429  1.5485  2.8018  0.5219
 3479SOL     OW11335   2.597   3.553   6.102  0.0345 -0.4324 -0.1451
 3479SOL    HW111336   2.667   3.527   6.036  0.0809 -0.2928 -0.1521
 3479SOL    HW211337   2.553   3.471   6.139  0.0590 -0.5128 -0.2944
 3480SOL     OW11338   1.044   5.518   5.943  0.0352  0.1339  0.3205
 3480SOL    HW111339   1.010   5.603   5.901  1.0314  1.0006  1.2101
 3480SOL    HW211340   1.132   5.536   5.988 -1.6752 -0.2686  4.2441
 3481SOL     OW11341   5.303   6.955   5.567  0.5543  0.3678 -0.2302
 3481SOL    HW111342   5.349   7.001   5.642  2.4308 -3.7708  1.4938
 3481SOL    HW211343   5.224   6.905   5.601  0.6669 -0.5372 -1.2138
 3482SOL     OW11344   4.888   5.169   6.363  0.0198 -0.1593  0.4390
 3482SOL    HW111345   4.802   5.152   6.315 -0.8588 -1.8957  2.4940
 3482SOL    HW211346   4.869   5.203   6.455  1.4932 -1.1736  1.1536
 3483SOL     OW11347   4.416   2.374   4.160 -0.3276  0.1848 -0.4902
 3483SOL    HW111348   4.433   2.302   4.092  1.1849 -0.3469  0.4197
 3483SOL    HW211349   4.489   2.442   4.155 -0.4922  0.4186  0.2421
 3484SOL     OW11350   1.429   3.265   3.641 -0.7349  0.3393 -0.2985
 3484SOL    HW111351   1.361   3.290   3.710 -1.5361  0.4853 -1.1193
 3484SOL    HW211352   1.407   3.311   3.554 -0.3395 -0.6294 -0.9297
 3485SOL     OW11353   4.922   3.786   6.266  0.1784 -0.5457 -0.4108
 3485SOL    HW111354   4.917   3.808   6.169 -1.0109 -0.2037 -0.2885
 3485SOL    HW211355   5.018   3.784   6.295  0.4891  1.2364 -1.1832
 3486SOL     OW11356   0.595   2.963   4.203 -0.1971  0.4057  0.8104
 3486SOL    HW111357   0.555   2.933   4.117  0.5352  1.3988  0.1043
 3486SOL    HW211358   0.609   2.884   4.263  0.8407 -0.5526 -0.6429
 3487SOL     OW11359   4.835   2.277   0.656  0.0172 -0.3080 -0.4453
 3487SOL    HW111360   4.844   2.197   0.715  0.2207  0.2293  0.2747
 3487SOL    HW211361   4.841   2.249   0.561 -1.1688 -1.3059 -0.2481
 3488SOL     OW11362   4.141   0.699   6.062 -0.1616  0.0281  0.2702
 3488SOL    HW111363   4.072   0.716   5.992 -0.3533  1.1285  0.6982
 3488SOL    HW211364   4.120   0.615   6.111 -0.2337 -0.5514 -0.7350
 3489SOL     OW11365   3.492   4.883   0.422  0.1604  0.0458 -0.3469
 3489SOL    HW111366   3.447   4.835   0.347  0.6685 -0.4097 -0.3676
 3489SOL    HW211367   3.490   4.982   0.405 -3.0224  0.3005  0.8437
 3490SOL     OW11368   5.230   6.294   0.880  0.0434  0.5276  0.3394
 3490SOL    HW111369   5.137   6.290   0.844  0.2591 -1.5302 -0.1279
 3490SOL    HW211370   5.243   6.381   0.928 -0.6902  2.9039 -3.2904
 3491SOL     OW11371   6.084   4.084   6.450 -0.1906  0.2552  0.0324
 3491SOL    HW111372   6.144   4.026   6.393 -0.4231  2.2047 -2.3860
 3491SOL    HW211373   6.131   4.170   6.470 -0.1444 -0.3597  2.9191
 3492SOL     OW11374   4.394   4.676   2.328 -0.2606  0.4787 -0.9233
 3492SOL    HW111375   4.336   4.635   2.258  0.5855  1.2799 -2.1333
 3492SOL    HW211376   4.381   4.776   2.328  0.7009  0.6105 -0.8321
 3493SOL     OW11377   1.532   3.050   5.563  0.0323 -0.4371  0.1062
 3493SOL    HW111378   1.606   2.982   5.561  0.2881 -0.1584 -0.1648
 3493SOL    HW211379   1.570   3.139   5.589 -0.3920 -0.5057  0.9940
 3494SOL     OW11380   4.693   0.942   2.951  0.5140 -0.3662 -0.5214
 3494SOL    HW111381   4.624   0.873   2.928  0.5952 -0.1166 -1.5371
 3494SOL    HW211382   4.727   0.984   2.868  3.7869 -2.2480 -0.2927
 3495SOL     OW11383   2.109   3.808   5.434  0.0369  0.0046 -0.3375
 3495SOL    HW111384   2.012   3.786   5.422 -0.3655  1.5555 -0.1417
 3495SOL    HW211385   2.165   3.737   5.391 -1.1817 -0.7412 -0.7460
 3496SOL     OW11386   0.103   0.725   7.014  0.5166 -0.5765 -0.2060
 3496SOL    HW111387   0.009   0.725   6.982  0.7936 -1.7701 -1.0800
 3496SOL    HW211388   0.136   0.820   7.020  0.0529 -0.2205 -2.3166
 3497SOL     OW11389   1.297   1.310   3.781  0.0050  0.1831 -0.7230
 3497SOL    HW111390   1.393   1.287   3.799 -0.5981 -2.1435  0.0006
 3497SOL    HW211391   1.239   1.259   3.845 -1.6974  2.5862 -0.2204
 3498SOL     OW11392   3.376   2.821   1.071  0.0618  0.1671 -0.3097
 3498SOL    HW111393   3.303   2.792   1.009  0.2220  1.8261 -1.3410
 3498SOL    HW211394   3.341   2.892   1.133  0.2190 -0.6592  0.7616
 3499SOL     OW11395   6.832   6.833   3.299  0.4793  0.1339 -0.2667
 3499SOL    HW111396   6.908   6.855   3.360  0.7845  0.8146 -0.8837
 3499SOL    HW211397   6.783   6.917   3.275 -0.4162 -0.2856  0.0492
 3500SOL     OW11398   2.677   1.658   2.691 -0.2375  0.7116 -0.1744
 3500SOL    HW111399   2.776   1.650   2.686 -0.1393  0.1756  1.7952
 3500SOL    HW211400   2.635   1.594   2.627  0.6901 -1.1986  1.0653
 3501SOL     OW11401   1.367   6.212   6.351  0.0251  0.9310 -0.6312
 3501SOL    HW111402   1.362   6.188   6.254 -0.9149 -1.0262 -0.1411
 3501SOL    HW211403   1.455   6.256   6.370  0.7217  0.2620 -2.1400
 3502SOL     OW11404   5.173   4.213   1.344 -0.0823 -0.6851  0.0536
 3502SOL    HW111405   5.162   4.170   1.254 -0.1160  1.2020 -0.8916
 3502SOL    HW211406   5.270   4.219   1.366 -0.0890 -1.5543  0.3789
 3503SOL     OW11407   1.244   1.248   0.159  0.0388 -0.2886  0.4357
 3503SOL    HW111408   1.265   1.158   0.197 -0.5821 -0.4148  0.4787
 3503SOL    HW211409   1.208   1.238   0.066 -1.1296 -0.1690  0.8624
 3504SOL     OW11410   1.347   6.835   6.145  0.5545 -0.3867  0.1693
 3504SOL    HW111411   1.278   6.867   6.210  0.4072 -0.0630 -0.1431
 3504SOL    HW211412   1.406   6.912   6.119  0.4521 -0.4568 -0.2784
 3505SOL     OW11413   5.808   2.857   3.555  0.6828  0.1056  0.2022
 3505SOL    HW111414   5.831   2.817   3.643  1.4177  1.4411  0.6390
 3505SOL    HW211415   5.755   2.790   3.501 -3.2498  0.5128  3.1049
 3506SOL     OW11416   3.097   5.673   5.650  0.1998  0.1455 -0.2463
 3506SOL    HW111417   3.126   5.662   5.555 -0.4628 -2.4769 -0.2039
 3506SOL    HW211418   3.172   5.712   5.703  1.4805 -0.7152 -1.3534
 3507SOL     OW11419   3.218   2.465   6.858 -0.1263  0.9074 -0.5611
 3507SOL    HW111420   3.259   2.548   6.821  2.0940  0.1541  0.0436
 3507SOL    HW211421   3.210   2.397   6.785  1.2612  0.5283 -0.4028
 3508SOL     OW11422   4.934   0.380   6.395 -0.1557 -0.1791  0.4634
 3508SOL    HW111423   4.910   0.355   6.301 -0.0353 -0.7252  0.5747
 3508SOL    HW211424   4.874   0.454   6.425 -1.4961 -1.2735  0.6034
 3509SOL     OW11425   6.466   0.936   1.655  0.0322 -0.2348 -0.4415
 3509SOL    HW111426   6.527   0.981   1.721  1.2983 -0.4040 -1.4682
 3509SOL    HW211427   6.373   0.973   1.666  0.9913  2.6387 -1.1868
 3510SOL     OW11428   2.302   1.166   2.049 -0.0029  0.2341  0.0192
 3510SOL    HW111429   2.341   1.223   2.121  1.7462 -0.4971 -0.3175
 3510SOL    HW211430   2.235   1.220   1.997  0.2779  1.4113  0.8399
 3511SOL     OW11431   4.211   3.974   1.773 -0.0954 -0.3564 -0.2196
 3511SOL    HW111432   4.168   3.911   1.838  0.9750  0.5179  1.3948
 3511SOL    HW211433   4.227   4.062   1.817  0.8420  0.2265 -1.6394
 3512SOL     OW11434   0.742   0.390   6.220 -0.0977 -0.2921 -0.0447
 3512SOL    HW111435   0.797   0.308   6.226 -0.2596 -0.6613 -2.4847
 3512SOL    HW211436   0.800   0.469   6.199 -0.3304 -0.6193 -2.2396
 3513SOL     OW11437   6.192   3.236   0.055 -0.5867  0.2223  0.2546
 3513SOL    HW111438   6.168   3.295   0.132 -0.9348 -0.1351  0.4263
 3513SOL    HW211439   6.132   3.257  -0.022 -2.1171 -1.2662  0.9617
 3514SOL     OW11440   3.346   2.101   1.259 -0.6176  0.2058 -0.9757
 3514SOL    HW111441   3.374   2.021   1.312 -0.3418 -1.2261 -3.1286
 3514SOL    HW211442   3.416   2.171   1.264 -0.3928 -0.0796  0.1416
 3515SOL     OW11443   2.147   3.962   2.440 -0.3534  0.1661  0.1062
 3515SOL    HW111444   2.127   3.868   2.411  2.9929 -0.8287  0.6125
 3515SOL    HW211445   2.162   4.019   2.359  0.1129 -0.3723 -0.1915
 3516SOL     OW11446   6.576   0.056   1.145  0.2954 -0.3008 -0.8825
 3516SOL    HW111447   6.544   0.151   1.152 -1.6969 -0.8626 -1.7104
 3516SOL    HW211448   6.526   0.009   1.072  0.2817 -2.3611  0.3715
 3517SOL     OW11449   5.617   1.751   0.616  0.2591  0.6893 -0.2031
 3517SOL    HW111450   5.610   1.825   0.549 -0.1156  3.5339  2.7277
 3517SOL    HW211451   5.540   1.756   0.680  1.4166 -0.8571  1.4271
 3518SOL     OW11452   5.496   3.195   4.147 -0.5637 -0.1718 -0.1418
 3518SOL    HW111453   5.495   3.130   4.071  2.0128 -1.3672  0.7377
 3518SOL    HW211454   5.461   3.151   4.229 -0.2813  0.0758  0.1111
 3519SOL     OW11455   2.277   2.119   1.840  0.2664  0.2466 -0.0772
 3519SOL    HW111456   2.314   2.121   1.933 -0.7034  1.5379  0.3022
 3519SOL    HW211457   2.195   2.062   1.839  1.0963 -0.9890 -0.4929
 3520SOL     OW11458   2.158   0.088   4.416 -0.7837 -0.0679  0.0656
 3520SOL    HW111459   2.229   0.029   4.455  0.1759  0.5992 -0.6305
 3520SOL    HW211460   2.068   0.061   4.453 -0.3546 -1.8132 -0.0728
 3521SOL     OW11461   1.534   0.194   3.596 -0.5651 -0.4374 -0.0711
 3521SOL    HW111462   1.467   0.212   3.523 -0.5070 -0.5476 -0.1525
 3521SOL    HW211463   1.486   0.173   3.681 -0.6342  0.0540  0.0148
 3522SOL     OW11464   1.958   5.226   6.872 -0.3810 -0.2674  0.2455
 3522SOL    HW111465   2.032   5.287   6.901  0.2570 -1.5506  1.4554
 3522SOL    HW211466   1.880   5.280   6.840  1.1292  1.1256 -1.2887
 3523SOL     OW11467   4.049   4.671   1.507 -0.2976 -0.0702  0.5329
 3523SOL    HW111468   3.949   4.668   1.510 -0.2667 -0.6726  2.4505
 3523SOL    HW211469   4.081   4.619   1.427 -1.5009  0.2433 -0.1871
 3524SOL     OW11470   4.192   0.619   3.675 -0.4210  0.5345 -0.1273
 3524SOL    HW111471   4.163   0.711   3.651  0.7491  1.3396  1.3616
 3524SOL    HW211472   4.137   0.585   3.751  0.4633  0.8388  0.6681
 3525SOL     OW11473   1.473   2.042   4.158  0.0491 -0.1307 -0.1198
 3525SOL    HW111474   1.397   2.059   4.095 -0.2801 -0.5781  0.1513
 3525SOL    HW211475   1.466   1.949   4.195  0.5048 -0.0372  0.2153
 3526SOL     OW11476   5.486   6.629   2.125  0.1176  0.2761  0.7690
 3526SOL    HW111477   5.526   6.685   2.053  0.8465 -0.9223  0.1996
 3526SOL    HW211478   5.506   6.669   2.214 -0.3995  1.5300  0.3415
 3527SOL     OW11479   0.142   3.505   5.839 -0.5063  0.0329 -0.2581
 3527SOL    HW111480   0.231   3.460   5.835 -0.7299 -0.5192  0.7221
 3527SOL    HW211481   0.150   3.598   5.800  1.0891  0.9380  2.0192
 3528SOL     OW11482   2.448   5.718   5.508  0.1839  0.0490 -0.2179
 3528SOL    HW111483   2.500   5.758   5.433  0.7993  1.5168  0.9410
 3528SOL    HW211484   2.378   5.783   5.539 -1.2371 -1.2197 -0.6199
 3529SOL     OW11485   0.260   4.067   6.354 -0.0299 -0.2695  0.7668
 3529SOL    HW111486   0.224   4.109   6.437 -1.8516 -0.2591  0.0091
 3529SOL    HW211487   0.196   4.081   6.278  1.2062 -0.9758 -0.4602
 3530SOL     OW11488   0.836   1.132   2.194 -0.4279 -0.6129 -0.5014
 3530SOL    HW111489   0.930   1.165   2.185 -1.0004  1.4016  0.3413
 3530SOL    HW211490   0.837   1.033   2.207  1.6167 -0.5580  0.1937
 3531SOL     OW11491   5.182   2.582   1.424 -0.3213 -0.3810 -0.1467
 3531SOL    HW111492   5.118   2.596   1.499  0.3315  0.8012  0.2061
 3531SOL    HW211493   5.171   2.655   1.357 -0.0704 -0.7632 -0.6145
 3532SOL     OW11494   2.319   7.019   2.142  0.7619 -0.3089  0.6368
 3532SOL    HW111495   2.374   6.937   2.156  0.3796 -0.8525 -0.9135
 3532SOL    HW211496   2.237   6.997   2.089  1.3125  1.2863 -0.9922
 3533SOL     OW11497   2.188   2.966   3.960  0.2091 -0.3855  0.3726
 3533SOL    HW111498   2.174   3.063   3.937 -1.0516 -0.6664 -0.1618
 3533SOL    HW211499   2.259   2.928   3.901 -0.5910 -0.2275 -0.7234
 3534SOL     OW11500   2.383   0.718   0.501  0.3546 -0.2617  0.0691
 3534SOL    HW111501   2.342   0.729   0.592 -2.5474  0.3076 -1.1865
 3534SOL    HW211502   2.349   0.791   0.441  0.3791 -1.9358 -2.0746
 3535SOL     OW11503   4.071   6.839   3.737  0.3130 -0.2810  0.2431
 3535SOL    HW111504   4.122   6.901   3.796 -1.2587  2.7328 -1.3656
 3535SOL    HW211505   4.131   6.807   3.663  0.8999  0.0705  0.5589
 3536SOL     OW11506   3.080   1.473   4.382  0.1277 -0.1158  0.7972
 3536SOL    HW111507   3.152   1.455   4.315 -0.2715 -1.0178  0.5953
 3536SOL    HW211508   3.051   1.569   4.375 -0.2344 -0.3026 -0.6550
 3537SOL     OW11509   1.725   5.454   2.639  0.5460 -0.2022 -0.4166
 3537SOL    HW111510   1.727   5.535   2.581 -2.0913  0.1421 -0.1330
 3537SOL    HW211511   1.795   5.389   2.609  1.4055  1.3479 -1.8663
 3538SOL     OW11512   3.648   5.212   6.494  0.0060  0.4127  0.4466
 3538SOL    HW111513   3.702   5.294   6.477 -0.0958 -0.2706 -5.4818
 3538SOL    HW211514   3.551   5.236   6.492 -0.0146  0.4137  1.2156
 3539SOL     OW11515   3.888   3.938   3.207  0.3193  0.0334  0.1893
 3539SOL    HW111516   3.946   3.868   3.248  1.5242  0.9881  0.1659
 3539SOL    HW211517   3.902   3.941   3.108  0.9805  0.9105  0.2948
 3540SOL     OW11518   0.436   2.504   4.600  0.4698  0.0242  0.0485
 3540SOL    HW111519   0.482   2.432   4.652  2.4088 -0.1151 -1.7599
 3540SOL    HW211520   0.446   2.591   4.648  2.2923 -0.0824 -0.0586
 3541SOL     OW11521   3.553   3.273   4.132  0.6764  0.1653  0.2338
 3541SOL    HW111522   3.496   3.240   4.208 -0.9052  1.2666 -0.4136
 3541SOL    HW211523   3.584   3.366   4.152  1.2713  0.0080  0.0537
 3542SOL     OW11524   6.839   0.139   2.486 -0.0631  0.4383 -0.5354
 3542SOL    HW111525   6.897   0.185   2.554  1.0150  0.0529 -1.1599
 3542SOL    HW211526   6.846   0.040   2.499  0.4265  0.3506 -1.4115
 3543SOL     OW11527   5.661   2.230   6.534  0.0272 -0.8119 -0.4061
 3543SOL    HW111528   5.725   2.157   6.511  1.2672  0.0629  0.1876
 3543SOL    HW211529   5.667   2.302   6.465  0.5573 -0.1855  0.2829
 3544SOL     OW11530   3.665   6.690   5.685  0.5682 -0.0915  0.1136
 3544SOL    HW111531   3.709   6.770   5.726  1.4899 -0.7915  0.5301
 3544SOL    HW211532   3.696   6.607   5.732 -0.4398 -0.6938 -0.2533
 3545SOL     OW11533   4.020   5.015   5.818 -0.2458  0.4645 -0.1835
 3545SOL    HW111534   4.097   4.966   5.779 -0.2866 -0.0723  0.3968
 3545SOL    HW211535   3.939   5.002   5.760 -1.1220 -2.8607  1.5365
 3546SOL     OW11536   2.219   4.088   2.211 -0.1303  0.7645  0.9014
 3546SOL    HW111537   2.257   4.037   2.134 -2.4883 -1.1550  0.8693
 3546SOL    HW211538   2.283   4.159   2.240  2.0620 -0.3489 -0.9474
 3547SOL     OW11539   5.405   4.689   3.583 -0.0282 -0.2258 -1.1179
 3547SOL    HW111540   5.423   4.655   3.490  1.4903  2.2572 -1.8335
 3547SOL    HW211541   5.395   4.788   3.580 -0.1896 -0.1213  1.3889
 3548SOL     OW11542   0.381   4.532   4.404  0.2960 -0.4973 -0.7963
 3548SOL    HW111543   0.298   4.482   4.428  0.3980 -0.9011 -1.2898
 3548SOL    HW211544   0.461   4.487   4.444  0.4522 -1.0902 -1.7592
 3549SOL     OW11545   4.916   3.279   2.390 -0.2249  0.7337 -0.4679
 3549SOL    HW111546   4.883   3.212   2.456 -1.5403  0.9107 -0.9156
 3549SOL    HW211547   4.905   3.371   2.428 -1.5218  0.8732 -1.1110
 3550SOL     OW11548   4.305   2.034   3.913 -0.3239 -0.2982  0.8026
 3550SOL    HW111549   4.365   1.978   3.969  0.2052 -1.1594 -0.5563
 3550SOL    HW211550   4.251   1.974   3.853 -1.1336  0.5688  0.6399
 3551SOL     OW11551   1.435   0.960   3.906  0.3401 -0.0757 -0.1829
 3551SOL    HW111552   1.475   0.929   3.992  0.4136  1.3148  0.2929
 3551SOL    HW211553   1.371   0.890   3.873  1.1736 -1.1418  0.3837
 3552SOL     OW11554   1.890   3.761   2.681  0.2875 -0.2392 -0.4302
 3552SOL    HW111555   1.829   3.682   2.686  0.5530 -0.4875 -1.0484
 3552SOL    HW211556   1.984   3.733   2.698  0.3206  0.0219 -0.1803
 3553SOL     OW11557   5.341   2.413   2.988 -0.1578  0.1797 -0.1646
 3553SOL    HW111558   5.314   2.327   3.031 -0.1797  0.3790  0.2250
 3553SOL    HW211559   5.276   2.437   2.916  0.4197 -0.6575 -0.9853
 3554SOL     OW11560   3.468   5.124   6.741 -0.7929  0.1552 -0.1527
 3554SOL    HW111561   3.396   5.060   6.714 -1.1233  0.5649 -0.2554
 3554SOL    HW211562   3.529   5.140   6.663 -1.4966  1.0060 -0.5372
 3555SOL     OW11563   6.501   2.076   3.078  0.1393  0.0641 -0.1323
 3555SOL    HW111564   6.600   2.075   3.090  0.2887 -1.4956 -1.1649
 3555SOL    HW211565   6.474   2.156   3.025  0.6239  1.4195  1.6036
 3556SOL     OW11566   4.644   6.967   5.614  0.0923  0.0853  0.1889
 3556SOL    HW111567   4.673   6.921   5.699  1.2063 -0.7194 -0.6033
 3556SOL    HW211568   4.722   6.977   5.553 -0.7654  0.3521 -0.8904
 3557SOL     OW11569   0.726   1.463   4.201 -1.2075 -0.4592 -0.2420
 3557SOL    HW111570   0.717   1.554   4.162  0.5211  0.3464  1.0981
 3557SOL    HW211571   0.816   1.425   4.179 -0.0794  0.1044  2.9113
 3558SOL     OW11572   4.586   1.975   1.603  0.3011 -0.5744  0.0026
 3558SOL    HW111573   4.619   2.050   1.547  0.7322 -0.2033  0.7423
 3558SOL    HW211574   4.640   1.969   1.687 -1.1146 -0.3297  0.9717
 3559SOL     OW11575   1.639   6.778   6.346  0.5367 -0.4696 -0.0522
 3559SOL    HW111576   1.590   6.853   6.391  0.4218 -0.2500 -0.5426
 3559SOL    HW211577   1.736   6.785   6.368  0.4435 -0.5314  0.3957
 3560SOL     OW11578   5.993   5.499   2.198  0.2288  0.6116  0.1573
 3560SOL    HW111579   6.052   5.417   2.199 -0.9953 -0.3603 -1.5664
 3560SOL    HW211580   6.009   5.552   2.281  1.9969 -0.7006  0.7356
 3561SOL     OW11581   6.345   3.536   3.525  0.4084 -0.2453 -0.0818
 3561SOL    HW111582   6.404   3.602   3.478 -0.1452 -0.7313 -1.5379
 3561SOL    HW211583   6.379   3.443   3.507 -0.6991 -0.5266 -0.8653
 3562SOL     OW11584   5.000   2.866   3.104 -0.0154  0.2692 -0.2346
 3562SOL    HW111585   4.927   2.898   3.164 -0.3726  0.1834 -0.6174
 3562SOL    HW211586   4.991   2.768   3.089  0.7125  0.0963  0.4352
 3563SOL     OW11587   4.157   0.774   6.963 -0.4106  0.1358 -0.1914
 3563SOL    HW111588   4.115   0.705   6.904 -1.4250 -0.5746  1.2818
 3563SOL    HW211589   4.245   0.801   6.925 -1.5164  0.5853 -2.6133
 3564SOL     OW11590   6.143   4.198   2.443 -0.0039 -0.0049 -0.1774
 3564SOL    HW111591   6.113   4.234   2.355 -1.1767 -3.1248 -1.1936
 3564SOL    HW211592   6.235   4.161   2.435  0.0567  0.1010  0.0206
 3565SOL     OW11593   0.513   0.500   4.386  0.1397  0.0136  0.2448
 3565SOL    HW111594   0.609   0.482   4.365  0.2380  1.1897 -0.4222
 3565SOL    HW211595   0.499   0.599   4.394 -0.5399 -0.2207  2.7256
 3566SOL     OW11596   0.846   4.497   5.212  0.2778 -0.0345 -0.4043
 3566SOL    HW111597   0.876   4.450   5.295 -1.2373  0.9574  0.7521
 3566SOL    HW211598   0.812   4.430   5.146  0.5386 -0.7485  0.1677
 3567SOL     OW11599   5.681   1.957   1.831  0.1240 -0.4387 -0.7729
 3567SOL    HW111600   5.622   1.970   1.911  0.5541 -0.0191 -0.5239
 3567SOL    HW211601   5.652   1.874   1.783 -0.8442 -0.1013 -0.8062
 3568SOL     OW11602   4.854   3.000   4.778  0.1781  0.9737 -0.1001
 3568SOL    HW111603   4.804   2.967   4.698 -1.0917 -0.7616  1.3296
 3568SOL    HW211604   4.859   3.100   4.775 -1.5184  1.0639 -1.3831
 3569SOL     OW11605   3.462   3.214   3.510 -0.0434 -0.1242 -0.1454
 3569SOL    HW111606   3.455   3.134   3.451  2.6109 -1.6831  1.4945
 3569SOL    HW211607   3.544   3.266   3.487 -1.4452  1.9209 -0.8263
 3570SOL     OW11608   5.684   3.411   4.927 -0.3304  0.3967  0.2570
 3570SOL    HW111609   5.708   3.324   4.969  0.5948  1.1088  1.2738
 3570SOL    HW211610   5.652   3.475   4.998  2.2806  1.9825  0.1384
 3571SOL     OW11611   3.914   0.084   3.781  0.5007 -0.2759 -0.6452
 3571SOL    HW111612   3.928  -0.015   3.794  3.8707 -0.1553 -2.3755
 3571SOL    HW211613   3.879   0.101   3.689 -0.5463  0.1567 -0.1811
 3572SOL     OW11614   3.270   5.680   5.070 -0.6272  0.3023  0.6417
 3572SOL    HW111615   3.335   5.611   5.037 -0.7773 -0.1066  1.1806
 3572SOL    HW211616   3.265   5.676   5.170 -0.0781  1.6068  0.7448
 3573SOL     OW11617   0.100   3.823   1.785 -0.0402 -0.1760 -0.0633
 3573SOL    HW111618   0.163   3.781   1.851  0.6157 -0.0240 -0.5726
 3573SOL    HW211619   0.036   3.883   1.833  0.7267  0.2946  0.3926
 3574SOL     OW11620   2.321   1.487   5.258  0.4302 -0.8262 -0.2039
 3574SOL    HW111621   2.229   1.449   5.275 -0.5174  1.1880 -0.5481
 3574SOL    HW211622   2.384   1.413   5.236 -1.2930 -2.1943 -0.7431
 3575SOL     OW11623   5.440   6.281   6.827 -0.2032 -0.1295 -0.3176
 3575SOL    HW111624   5.398   6.372   6.829  0.9435  0.5110 -2.1560
 3575SOL    HW211625   5.422   6.239   6.738  0.8643 -0.9051 -0.1794
 3576SOL     OW11626   6.693   2.804   6.484 -0.7437  0.8332 -0.4758
 3576SOL    HW111627   6.707   2.711   6.450 -3.4228  0.5451 -0.9432
 3576SOL    HW211628   6.627   2.802   6.559 -0.9284  2.3836 -0.5816
 3577SOL     OW11629   2.053   1.088   3.818 -0.5153  0.3449  0.1852
 3577SOL    HW111630   2.035   1.134   3.731  1.0911  2.2001  0.7600
 3577SOL    HW211631   2.129   1.133   3.864 -0.0900 -1.7841  1.7033
 3578SOL     OW11632   4.702   3.749   5.794 -0.0353 -0.1154 -0.7076
 3578SOL    HW111633   4.628   3.807   5.826  0.2417  0.1179 -0.4853
 3578SOL    HW211634   4.771   3.739   5.867  1.3509  1.6329 -1.6862
 3579SOL     OW11635   6.372   3.429   2.705  0.0206  0.4589 -0.3051
 3579SOL    HW111636   6.315   3.500   2.746  1.2396  3.1824 -3.0089
 3579SOL    HW211637   6.464   3.434   2.745 -0.1773 -0.4178  0.2935
 3580SOL     OW11638   6.166   5.525   1.514  0.3743  0.0309  0.0773
 3580SOL    HW111639   6.079   5.531   1.465 -0.1237  0.2011  0.9561
 3580SOL    HW211640   6.241   5.520   1.449 -0.2242  0.9370 -0.7010
 3581SOL     OW11641   2.194   7.000   1.687 -0.5353 -0.4612 -0.3578
 3581SOL    HW111642   2.267   6.998   1.755 -0.0718 -1.6810 -0.8747
 3581SOL    HW211643   2.222   7.057   1.610 -0.7153  0.2247  0.0761
 3582SOL     OW11644   5.169   6.015   6.737 -0.1267  0.1929 -0.1659
 3582SOL    HW111645   5.145   5.965   6.654 -0.2232  1.0642 -0.6719
 3582SOL    HW211646   5.269   6.025   6.743 -0.1423  0.5143 -0.4117
 3583SOL     OW11647   1.929   6.508   0.639  0.1799  0.0057  0.2908
 3583SOL    HW111648   1.962   6.414   0.639 -0.7672 -0.3407  0.4081
 3583SOL    HW211649   1.962   6.555   0.721  0.1860 -0.3968  0.5220
 3584SOL     OW11650   5.755   4.857   4.571 -0.3216 -0.0430  0.4134
 3584SOL    HW111651   5.758   4.758   4.577 -0.4642 -0.1263 -0.7797
 3584SOL    HW211652   5.661   4.888   4.561 -0.3101  0.2451  1.1021
 3585SOL     OW11653   4.307   1.638   4.419  0.6018 -0.0805  0.1241
 3585SOL    HW111654   4.231   1.662   4.360  0.4017 -0.4524  0.2291
 3585SOL    HW211655   4.367   1.573   4.372  0.8499  0.2034  0.0446
 3586SOL     OW11656   1.558   4.206   5.109  0.4255 -0.0646  0.0776
 3586SOL    HW111657   1.651   4.187   5.142  0.8453 -0.7836 -1.4314
 3586SOL    HW211658   1.496   4.209   5.187  1.5846 -0.3734  1.0507
 3587SOL     OW11659   2.464   0.460   6.655 -0.2862  0.4160 -0.0309
 3587SOL    HW111660   2.422   0.423   6.738 -0.9016 -1.1045 -0.9692
 3587SOL    HW211661   2.405   0.531   6.616 -1.6918 -1.1499 -0.9047
 3588SOL     OW11662   6.349   3.877   2.770 -0.3221  0.6509 -0.5448
 3588SOL    HW111663   6.342   3.941   2.847  2.0462  0.8742 -0.4364
 3588SOL    HW211664   6.310   3.919   2.688  1.0741  2.2583 -0.4421
 3589SOL     OW11665   0.947   0.563   6.138 -0.4893  0.4981 -1.4532
 3589SOL    HW111666   0.993   0.519   6.061  0.7622  0.2702 -0.6059
 3589SOL    HW211667   1.015   0.605   6.198 -1.1798 -1.4406  0.8476
 3590SOL     OW11668   5.921   6.353   4.497 -0.1740  0.3536 -0.0424
 3590SOL    HW111669   5.954   6.277   4.552 -0.8313 -1.8322 -2.4673
 3590SOL    HW211670   5.914   6.324   4.401 -2.2522  2.9054 -0.7705
 3591SOL     OW11671   4.139   1.198   2.166 -0.3254 -0.2852  0.5757
 3591SOL    HW111672   4.090   1.281   2.191 -1.3802 -0.5917 -0.3742
 3591SOL    HW211673   4.131   1.183   2.067  1.7484 -0.3293  0.3605
 3592SOL     OW11674   2.165   5.984   1.303 -0.0140  0.2488 -0.2662
 3592SOL    HW111675   2.134   5.938   1.219 -0.2787  0.8208 -0.4906
 3592SOL    HW211676   2.263   6.004   1.296 -0.0978  0.5662 -0.5720
 3593SOL     OW11677   4.075   3.119   6.531  0.3633  0.5940 -0.0899
 3593SOL    HW111678   4.128   3.136   6.614 -0.8945  2.4292  0.4056
 3593SOL    HW211679   3.994   3.065   6.553 -0.8962  2.5179  0.3042
 3594SOL     OW11680   2.974   3.580   5.466  0.0887  0.2861  0.2757
 3594SOL    HW111681   2.955   3.678   5.475  0.0767  0.2286  0.8826
 3594SOL    HW211682   2.985   3.539   5.556 -0.9117 -0.4711  0.0715
 3595SOL     OW11683   3.440   0.372   5.331  0.3092  0.3226 -0.0172
 3595SOL    HW111684   3.341   0.383   5.318  0.2910 -1.8373 -2.8910
 3595SOL    HW211685   3.482   0.461   5.347 -1.8953  1.5482 -0.6211
 3596SOL     OW11686   3.425   0.869   2.102 -0.3085  0.0540 -0.1861
 3596SOL    HW111687   3.339   0.831   2.067 -0.6000 -0.2309  0.8003
 3596SOL    HW211688   3.442   0.832   2.194  0.2262  1.0820  0.1379
 3597SOL     OW11689   5.841   5.060   4.953 -0.7386 -0.9606 -0.2816
 3597SOL    HW111690   5.883   4.989   5.010 -0.6001 -0.9064 -0.3154
 3597SOL    HW211691   5.744   5.039   4.939 -0.6439 -1.2610 -0.4785
 3598SOL     OW11692   0.275   4.997   4.381 -0.2002  0.4549 -0.1027
 3598SOL    HW111693   0.225   5.083   4.368  0.8092  1.0848  0.0358
 3598SOL    HW211694   0.323   5.000   4.469  0.6768  0.1797 -0.5673
 3599SOL     OW11695   1.875   2.748   5.841 -0.9298 -0.2499 -0.2092
 3599SOL    HW111696   1.845   2.658   5.809  0.1374 -1.1250  1.0984
 3599SOL    HW211697   1.960   2.773   5.795 -0.6073 -0.4573  0.2683
 3600SOL     OW11698   0.904   3.863   1.090 -0.0178  0.2810  0.6070
 3600SOL    HW111699   0.922   3.934   1.158 -0.0507 -0.7768  1.7520
 3600SOL    HW211700   0.982   3.856   1.028  0.0471  1.2111  0.5712
 3601SOL     OW11701   3.673   2.207   6.777  0.1507  0.4430 -0.0494
 3601SOL    HW111702   3.634   2.116   6.793 -0.5859  0.9696  1.3541
 3601SOL    HW211703   3.758   2.215   6.828  0.0577  0.6394  0.0742
 3602SOL     OW11704   2.623   1.624   6.957  0.0515 -0.0829  0.9591
 3602SOL    HW111705   2.577   1.596   6.873  2.6660  1.2340 -1.0627
 3602SOL    HW211706   2.565   1.688   7.007 -1.2650 -0.3268 -0.1867
 3603SOL     OW11707   1.945   6.241   0.352 -0.4965 -0.5923 -0.3551
 3603SOL    HW111708   1.973   6.146   0.340  0.1053 -0.4370 -0.2212
 3603SOL    HW211709   2.014   6.290   0.405 -0.8424 -0.0972 -0.3455
 3604SOL     OW11710   6.675   1.736   5.536  0.7412 -0.0790  0.1261
 3604SOL    HW111711   6.653   1.639   5.525  0.8367 -0.0685 -0.1900
 3604SOL    HW211712   6.701   1.774   5.447 -0.5351  0.5467 -0.0092
 3605SOL     OW11713   0.830   5.377   5.420  0.3491  0.3223  0.2206
 3605SOL    HW111714   0.805   5.442   5.349  0.1113  0.7905  0.7257
 3605SOL    HW211715   0.749   5.352   5.473  0.5082 -0.0862  0.2736
 3606SOL     OW11716   1.577   1.363   2.543 -0.0023  0.0820  0.1305
 3606SOL    HW111717   1.612   1.343   2.452  1.7952 -0.1938  0.8445
 3606SOL    HW211718   1.537   1.454   2.544 -0.6636 -0.1693 -1.0828
 3607SOL     OW11719   5.848   1.512   3.464  0.1233 -0.2300  0.0624
 3607SOL    HW111720   5.850   1.469   3.374  0.1690 -1.5845  0.6925
 3607SOL    HW211721   5.930   1.569   3.476  0.7222 -0.9958 -0.3019
 3608SOL     OW11722   3.636   1.989   5.332  0.0859  0.1651  0.4797
 3608SOL    HW111723   3.686   1.991   5.245  0.8135 -2.5459  0.7422
 3608SOL    HW211724   3.570   1.914   5.330 -1.2928  1.2918  1.5949
 3609SOL     OW11725   2.700   5.598   5.572 -0.5085  0.3936 -0.0543
 3609SOL    HW111726   2.749   5.592   5.485  0.2489 -1.2483  0.4377
 3609SOL    HW211727   2.608   5.631   5.556 -0.4694 -0.1347 -1.5273
 3610SOL     OW11728   0.098   1.796   5.829 -0.1741  0.0395 -1.1742
 3610SOL    HW111729   0.068   1.718   5.774 -0.5719  0.4857 -1.6108
 3610SOL    HW211730   0.197   1.791   5.844  0.0102  0.1100 -2.2770
 3611SOL     OW11731   5.868   4.249   2.520 -0.1988 -0.5824  0.3645
 3611SOL    HW111732   5.828   4.175   2.572 -0.4168 -1.1604 -0.5939
 3611SOL    HW211733   5.968   4.245   2.527 -0.2358 -0.5137  0.9184
 3612SOL     OW11734   5.164   1.464   1.331 -0.0264 -0.6797 -0.3646
 3612SOL    HW111735   5.234   1.426   1.272  0.9688  3.0724 -1.8714
 3612SOL    HW211736   5.073   1.445   1.293  0.5069 -0.1523 -1.9577
 3613SOL     OW11737   3.313   1.348   3.326  0.1356 -0.5629  0.4908
 3613SOL    HW111738   3.243   1.323   3.259 -0.5143  0.2375  0.8634
 3613SOL    HW211739   3.271   1.363   3.415  0.4796  1.7166  0.3311
 3614SOL     OW11740   3.285   5.498   0.074  0.9209  0.0302 -0.4389
 3614SOL    HW111741   3.312   5.505   0.170 -0.2737 -0.9140  0.0003
 3614SOL    HW211742   3.332   5.421   0.032  2.4699  1.2431 -1.0176
 3615SOL     OW11743   4.889   4.544   4.421 -0.1657  0.2262 -0.1873
 3615SOL    HW111744   4.989   4.545   4.420 -0.1038  0.1865 -3.1734
 3615SOL    HW211745   4.855   4.588   4.338 -2.6226 -0.6693  0.2754
 3616SOL     OW11746   2.528   1.335   2.118  0.0507 -0.4316  0.3368
 3616SOL    HW111747   2.581   1.281   2.184  0.2434  0.3479  0.8422
 3616SOL    HW211748   2.479   1.407   2.167  0.3398  0.2712 -0.3937
 3617SOL     OW11749   3.916   4.925   5.153 -0.1353 -0.2785  0.0853
 3617SOL    HW111750   3.848   4.978   5.103  1.2271  1.1433 -0.3480
 3617SOL    HW211751   3.955   4.981   5.226  2.4451 -0.0446 -1.3485
 3618SOL     OW11752   0.431   6.616   6.582  0.5239 -0.1917  0.0214
 3618SOL    HW111753   0.344   6.570   6.592  0.8224 -0.9343 -0.6614
 3618SOL    HW211754   0.480   6.617   6.669 -0.4779  0.9200  0.6024
 3619SOL     OW11755   6.599   0.631   5.195 -0.4648  0.1265  0.0157
 3619SOL    HW111756   6.511   0.620   5.148 -1.1353  2.6796  0.5386
 3619SOL    HW211757   6.588   0.608   5.292 -0.7403  1.1011  0.2191
 3620SOL     OW11758   4.262   0.327   6.118  0.7062  0.5495  0.0329
 3620SOL    HW111759   4.203   0.296   6.043 -2.4194  1.9399  1.7142
 3620SOL    HW211760   4.211   0.390   6.177  3.8245  1.5321  1.9388
 3621SOL     OW11761   3.494   3.709   2.792 -0.1414 -0.2882  0.0750
 3621SOL    HW111762   3.466   3.780   2.857 -0.1062  0.8725 -1.1380
 3621SOL    HW211763   3.580   3.668   2.822  0.0962  0.5370  0.5390
 3622SOL     OW11764   1.087   0.046   6.555 -0.2855 -0.4716 -0.0403
 3622SOL    HW111765   1.142   0.081   6.631 -0.5009 -1.1319  0.4256
 3622SOL    HW211766   1.002   0.007   6.590 -0.0714 -1.4099 -0.5524
 3623SOL     OW11767   3.365   6.915   5.118  0.3916  0.5175  0.0219
 3623SOL    HW111768   3.349   6.975   5.196  0.5403 -0.6765  1.0054
 3623SOL    HW211769   3.312   6.831   5.129  0.7811  0.1327 -0.9319
 3624SOL     OW11770   2.156   3.084   2.611 -0.0095  0.3516  0.3124
 3624SOL    HW111771   2.063   3.079   2.575  0.0044  1.2939  0.1240
 3624SOL    HW211772   2.199   2.994   2.606 -0.9014 -0.0894  0.3871
 3625SOL     OW11773   5.468   2.907   0.188 -0.0520  0.3783 -0.4812
 3625SOL    HW111774   5.474   2.996   0.235  0.8383  0.4333 -0.6882
 3625SOL    HW211775   5.467   2.921   0.089 -1.7186  0.2478 -0.5118
 3626SOL     OW11776   0.966   3.038   6.858 -0.1364 -0.3742 -0.4301
 3626SOL    HW111777   0.886   2.994   6.898 -0.3314  0.0958 -0.2924
 3626SOL    HW211778   1.032   2.969   6.828 -0.4733 -0.7530 -0.2904
 3627SOL     OW11779   3.187   1.279   4.987  0.5676 -0.0619 -0.2532
 3627SOL    HW111780   3.104   1.320   5.024  1.2388 -0.7093  2.1389
 3627SOL    HW211781   3.217   1.205   5.047  2.7539  0.0142 -1.1648
 3628SOL     OW11782   5.607   1.945   0.432 -0.4227 -0.0988  0.0861
 3628SOL    HW111783   5.596   1.885   0.352  1.4940  0.6714 -0.8174
 3628SOL    HW211784   5.655   2.029   0.404  1.7360 -0.4800  2.3352
 3629SOL     OW11785   6.975   0.979   5.117 -0.1269 -0.1241  0.0997
 3629SOL    HW111786   6.883   0.945   5.101 -0.5057  0.8219  0.2113
 3629SOL    HW211787   7.042   0.910   5.089 -0.8811 -1.4641  1.4756
 3630SOL     OW11788   6.431   2.697   1.408  0.1129 -0.2578  0.1832
 3630SOL    HW111789   6.403   2.779   1.359  0.8199 -0.1014  0.0234
 3630SOL    HW211790   6.478   2.634   1.345  1.8472  0.3459  0.8077
 3631SOL     OW11791   1.718   2.817   2.083 -0.3099 -0.2966  0.2269
 3631SOL    HW111792   1.699   2.786   1.990  0.1777 -1.0615  0.3797
 3631SOL    HW211793   1.769   2.903   2.080 -0.9926  0.0975 -0.2024
 3632SOL     OW11794   4.473   4.510   3.417 -0.5543  0.2022  0.3946
 3632SOL    HW111795   4.441   4.494   3.323  1.6175 -2.6596 -0.0071
 3632SOL    HW211796   4.563   4.554   3.414 -0.9606  1.1370  1.2273
 3633SOL     OW11797   3.747   5.498   4.040  0.1385 -0.2328  0.1798
 3633SOL    HW111798   3.676   5.463   3.979 -0.0171  0.8715 -0.2983
 3633SOL    HW211799   3.705   5.532   4.124  0.0814  0.5107 -0.1444
 3634SOL     OW11800   1.554   3.973   6.482 -0.2069 -0.6533 -0.0148
 3634SOL    HW111801   1.638   3.978   6.535 -0.1098 -0.9401 -0.1389
 3634SOL    HW211802   1.514   4.065   6.473  0.2559 -0.4693 -0.2198
 3635SOL     OW11803   1.841   6.576   1.640 -0.1176 -0.6507 -0.1148
 3635SOL    HW111804   1.809   6.534   1.725  1.4777 -1.4214  0.1601
 3635SOL    HW211805   1.866   6.671   1.657 -4.1650  0.7366 -0.8346
 3636SOL     OW11806   0.753   4.079   4.129 -0.1507  0.4304  0.3252
 3636SOL    HW111807   0.807   4.135   4.191  0.2424  0.7532 -0.2981
 3636SOL    HW211808   0.708   4.137   4.061  1.3226 -0.0729 -1.1556
 3637SOL     OW11809   6.229   1.484   6.408 -0.8519  0.4239 -0.3541
 3637SOL    HW111810   6.287   1.431   6.345  0.2417  1.4540 -0.2440
 3637SOL    HW211811   6.210   1.429   6.489 -0.6978 -0.2228 -0.7462
 3638SOL     OW11812   6.472   2.100   3.874 -0.2297  0.2501  0.2495
 3638SOL    HW111813   6.501   2.084   3.780 -0.4295 -0.3915  0.2979
 3638SOL    HW211814   6.454   2.198   3.887  0.3117  0.4178 -0.2306
 3639SOL     OW11815   3.106   4.037   1.953  0.4468 -0.1344 -0.0850
 3639SOL    HW111816   3.015   4.067   1.924  0.2272  0.0307  0.7452
 3639SOL    HW211817   3.176   4.088   1.904  0.0921 -0.1296 -0.5909
 3640SOL     OW11818   5.895   0.871   5.291  0.7588  0.0027 -0.1803
 3640SOL    HW111819   5.857   0.784   5.320  1.0664  0.5292  1.9922
 3640SOL    HW211820   5.870   0.942   5.358  2.5538  1.0681 -0.5763
 3641SOL     OW11821   0.465   3.952   0.136  0.3668 -0.1754 -0.6896
 3641SOL    HW111822   0.462   3.862   0.178 -0.9445  1.5473  3.4222
 3641SOL    HW211823   0.385   3.965   0.078  0.0328 -1.2739 -0.4835
 3642SOL     OW11824   3.749   4.711   6.027  0.9769 -0.2683 -0.0326
 3642SOL    HW111825   3.741   4.642   5.955  4.0514  1.1513 -1.9715
 3642SOL    HW211826   3.666   4.767   6.029  0.1915 -1.3281 -1.4203
 3643SOL     OW11827   5.958   5.149   4.708 -0.1523 -0.2069 -0.2940
 3643SOL    HW111828   5.911   5.116   4.790  0.5929  1.2640  0.7794
 3643SOL    HW211829   5.920   5.238   4.682 -1.1187 -1.1474 -2.2262
 3644SOL     OW11830   3.221   0.964   3.199 -0.0687  0.2405  0.2533
 3644SOL    HW111831   3.308   1.006   3.174  0.7324  0.3449  2.9544
 3644SOL    HW211832   3.237   0.890   3.264 -1.8708 -1.0704 -0.7014
 3645SOL     OW11833   1.309   4.908   3.082  0.1517  0.1233  0.9546
 3645SOL    HW111834   1.320   4.918   2.983  0.0046 -0.7627  0.8423
 3645SOL    HW211835   1.375   4.967   3.129  0.1126  0.6716  0.3299
 3646SOL     OW11836   2.485   4.791   4.177  0.0443 -0.3969  0.3651
 3646SOL    HW111837   2.478   4.888   4.197 -1.8452 -0.6795  1.2325
 3646SOL    HW211838   2.552   4.748   4.238 -0.7184 -0.0265  1.4712
 3647SOL     OW11839   3.597   6.933   6.114 -0.5510  0.1655  0.4856
 3647SOL    HW111840   3.652   6.851   6.135  0.6074  0.9936  0.8096
 3647SOL    HW211841   3.657   7.004   6.077 -1.2293  1.4356  1.7295
 3648SOL     OW11842   3.983   5.651   4.116 -0.0719 -0.4347  0.1936
 3648SOL    HW111843   3.962   5.675   4.211 -0.7110 -0.7593  0.1405
 3648SOL    HW211844   3.916   5.584   4.083 -0.5647  0.5392 -0.8565
 3649SOL     OW11845   5.515   3.456   0.636  0.6461  0.0268 -0.5594
 3649SOL    HW111846   5.475   3.506   0.712  0.0691 -0.4480 -0.5388
 3649SOL    HW211847   5.446   3.394   0.597  1.2631 -0.5498 -0.7485
 3650SOL     OW11848   5.580   5.794   0.068 -0.0380  0.0117  0.2935
 3650SOL    HW111849   5.577   5.709   0.015  2.3442  1.9861 -3.4356
 3650SOL    HW211850   5.675   5.814   0.094 -0.5099  1.6361  0.9028
 3651SOL     OW11851   6.957   1.228   5.278  0.1407  0.1555 -0.3260
 3651SOL    HW111852   6.881   1.280   5.238  0.7609  0.5983 -0.9461
 3651SOL    HW211853   6.968   1.142   5.229  0.9955  0.7631 -1.2501
 3652SOL     OW11854   4.786   2.848   1.742  0.1785  0.1594  0.3052
 3652SOL    HW111855   4.712   2.904   1.778 -0.4816 -0.5883  0.1342
 3652SOL    HW211856   4.874   2.893   1.760 -0.3533  1.4505 -0.2001
 3653SOL     OW11857   2.685   1.192   0.556 -0.1632 -1.2698  0.5091
 3653SOL    HW111858   2.750   1.183   0.481 -1.7675 -1.3999 -0.9456
 3653SOL    HW211859   2.683   1.288   0.586  0.3136 -1.1611  0.2136
 3654SOL     OW11860   4.858   0.061   1.020 -0.6561 -0.0918 -0.2831
 3654SOL    HW111861   4.784   0.006   1.058 -1.7315 -0.3187 -2.5898
 3654SOL    HW211862   4.826   0.154   1.005 -0.8403 -0.4163 -2.1587
 3655SOL     OW11863   0.905   6.246   4.833  0.2876 -0.1798 -0.0978
 3655SOL    HW111864   0.951   6.183   4.895  0.8029 -0.7178 -0.9947
 3655SOL    HW211865   0.825   6.202   4.793  1.3221 -0.7411 -1.6429
 3656SOL     OW11866   0.488   0.319   2.287  0.0339  0.1380  0.4797
 3656SOL    HW111867   0.584   0.299   2.304  0.0762 -0.0026  0.0743
 3656SOL    HW211868   0.446   0.355   2.371  0.5839  0.7821  0.4784
 3657SOL     OW11869   5.858   3.742   5.726 -0.1931  0.4181  0.0858
 3657SOL    HW111870   5.843   3.681   5.648  0.5688  1.8319 -1.2371
 3657SOL    HW211871   5.783   3.734   5.790 -1.2513 -0.2283 -1.1925
 3658SOL     OW11872   3.833   5.461   5.226  0.3904  0.5931  0.0400
 3658SOL    HW111873   3.827   5.531   5.298  1.0678 -0.4113  1.1110
 3658SOL    HW211874   3.861   5.504   5.140 -1.8065  2.0613 -0.0475
 3659SOL     OW11875   2.535   2.941   0.770 -0.4027 -0.2752  0.4555
 3659SOL    HW111876   2.502   3.032   0.796  1.2228  0.6640 -0.5613
 3659SOL    HW211877   2.546   2.937   0.670 -0.1989 -1.5070  0.5090
 3660SOL     OW11878   3.924   5.595   4.991  0.1513 -0.1453  0.5560
 3660SOL    HW111879   3.981   5.669   4.956  0.4884 -0.3906  0.5838
 3660SOL    HW211880   3.892   5.538   4.916  0.9313 -0.7120  0.6461
 3661SOL     OW11881   0.487   6.630   5.578 -0.4259 -0.4214 -0.0490
 3661SOL    HW111882   0.572   6.577   5.577  0.1180  0.3850 -2.4922
 3661SOL    HW211883   0.502   6.717   5.624 -0.3457 -0.8759  0.8003
 3662SOL     OW11884   3.744   2.928   3.818  0.1070 -0.7149 -0.4097
 3662SOL    HW111885   3.833   2.940   3.773  0.7204 -2.2564  0.3224
 3662SOL    HW211886   3.678   2.894   3.752 -0.0705  0.7669 -1.0453
 3663SOL     OW11887   1.260   0.259   4.920 -0.0285  0.5548 -0.1507
 3663SOL    HW111888   1.256   0.265   4.820  1.9280 -0.0212 -0.3033
 3663SOL    HW211889   1.332   0.320   4.954  1.2533 -1.3050  0.6219
 3664SOL     OW11890   2.022   3.804   6.576  0.0346  0.4110  0.1909
 3664SOL    HW111891   1.930   3.768   6.592 -0.1226  0.6300 -0.2073
 3664SOL    HW211892   2.025   3.851   6.487  0.3111  1.1228  0.5665
 3665SOL     OW11893   0.051   6.416   5.400 -0.0067  0.7730  0.2074
 3665SOL    HW111894   0.095   6.492   5.449 -0.8147  0.9129  0.7388
 3665SOL    HW211895   0.042   6.338   5.461 -0.4026  0.7145  0.0735
 3666SOL     OW11896   1.766   2.447   3.963  1.1520  0.8553 -0.7233
 3666SOL    HW111897   1.742   2.351   3.976  1.9766  0.5562 -1.3573
 3666SOL    HW211898   1.865   2.459   3.972  1.1279  1.5381 -1.2464
 3667SOL     OW11899   3.510   5.344   3.681  0.3863  0.8735  0.3087
 3667SOL    HW111900   3.531   5.360   3.778 -3.6994  1.9006  1.2305
 3667SOL    HW211901   3.466   5.426   3.644 -2.9778 -1.2421 -0.7755
 3668SOL     OW11902   3.543   1.738   2.191  0.0542 -0.0729 -0.0812
 3668SOL    HW111903   3.463   1.797   2.179 -0.5264 -0.4575  1.6534
 3668SOL    HW211904   3.625   1.787   2.162 -0.6408  0.8209 -0.6070
 3669SOL     OW11905   0.156   3.174   2.679 -0.0506 -0.5210  0.7613
 3669SOL    HW111906   0.159   3.119   2.763 -0.5095 -0.7992  0.6011
 3669SOL    HW211907   0.244   3.167   2.632  0.2557 -0.2557  1.2839
 3670SOL     OW11908   1.490   6.533   1.968 -0.4471  0.0219 -0.4929
 3670SOL    HW111909   1.494   6.607   2.034  0.7222 -0.8858  0.5017
 3670SOL    HW211910   1.402   6.487   1.974 -0.6288  0.4207 -0.0929
 3671SOL     OW11911   6.702   6.568   5.019  0.4085  0.3599  0.4355
 3671SOL    HW111912   6.664   6.555   5.111  0.4081  1.1585  0.5564
 3671SOL    HW211913   6.789   6.519   5.012 -0.0690 -0.5032  0.5418
 3672SOL     OW11914   2.693   6.862   1.058 -0.4155  0.3629 -0.1232
 3672SOL    HW111915   2.779   6.879   1.106 -0.9553  1.1428  0.6002
 3672SOL    HW211916   2.625   6.828   1.124  0.0166 -2.7796 -1.1122
 3673SOL     OW11917   4.129   1.381   2.652  0.1968 -0.5065  0.2884
 3673SOL    HW111918   4.201   1.321   2.618 -0.0344 -0.1989 -0.8153
 3673SOL    HW211919   4.162   1.434   2.730  1.4828  0.2857 -0.7508
 3674SOL     OW11920   0.788   5.279   0.386  0.6962 -0.4370 -0.0175
 3674SOL    HW111921   0.837   5.343   0.327 -0.5088 -1.5107 -2.2946
 3674SOL    HW211922   0.727   5.330   0.446 -0.2903  0.6216 -1.8305
 3675SOL     OW11923   6.820   0.333   5.623  0.0625  0.1420  0.0094
 3675SOL    HW111924   6.796   0.406   5.687  0.8343 -0.0287  0.5068
 3675SOL    HW211925   6.777   0.248   5.652  0.8062 -0.0440  0.5912
 3676SOL     OW11926   2.927   6.620   6.897  0.1489 -0.8176  0.3040
 3676SOL    HW111927   2.938   6.638   6.994  1.8171 -1.6029  0.2780
 3676SOL    HW211928   2.832   6.592   6.879  0.2862 -2.5883  2.0203
 3677SOL     OW11929   6.584   5.866   5.921 -0.3903  0.4020  0.1545
 3677SOL    HW111930   6.679   5.849   5.895 -0.7744  1.6131 -2.3425
 3677SOL    HW211931   6.565   5.822   6.009  1.8134 -1.8373 -0.3732
 3678SOL     OW11932   2.147   2.042   3.482  0.2762  0.3769  0.2326
 3678SOL    HW111933   2.088   2.057   3.561  2.7712 -0.3076  2.3675
 3678SOL    HW211934   2.214   2.116   3.475  0.7667 -0.1289 -0.5982
 3679SOL     OW11935   0.326   1.428   3.264 -0.0524  0.3409  0.2684
 3679SOL    HW111936   0.267   1.403   3.341 -1.0679 -1.3816 -1.0305
 3679SOL    HW211937   0.391   1.354   3.247 -0.1682  0.4906 -0.8521
 3680SOL     OW11938   6.031   0.881   4.273 -0.1428  0.4112  0.1473
 3680SOL    HW111939   6.059   0.843   4.361  0.9969 -0.1515 -0.4373
 3680SOL    HW211940   6.043   0.981   4.275 -1.0921  0.5202  0.9569
 3681SOL     OW11941   0.161   6.177   2.605 -0.2314  0.3162 -0.6713
 3681SOL    HW111942   0.209   6.264   2.596  1.2353 -0.0362  2.2773
 3681SOL    HW211943   0.075   6.191   2.655  1.0340 -0.0689  1.7879
 3682SOL     OW11944   4.386   6.635   2.095 -0.5006  0.2233 -0.4332
 3682SOL    HW111945   4.304   6.677   2.055 -0.1165  0.3275 -1.1202
 3682SOL    HW211946   4.436   6.703   2.148  0.1926  0.6953 -1.6557
 3683SOL     OW11947   5.733   3.141   2.589 -0.1874  0.1801 -0.1086
 3683SOL    HW111948   5.688   3.057   2.559 -0.9589  0.1443  1.0726
 3683SOL    HW211949   5.666   3.216   2.591  0.3216  0.6514 -0.4422
 3684SOL     OW11950   1.439   3.778   4.843  0.2719 -0.3743  0.1628
 3684SOL    HW111951   1.512   3.710   4.847 -0.8834 -1.7782 -1.3932
 3684SOL    HW211952   1.469   3.862   4.890  2.5040 -1.2088  0.3471
 3685SOL     OW11953   1.018   6.558   2.805 -0.1191 -0.3515  0.9990
 3685SOL    HW111954   0.979   6.632   2.860  0.3223 -0.1284  1.0178
 3685SOL    HW211955   1.028   6.476   2.861  0.9617  0.0746  1.4410
 3686SOL     OW11956   1.550   5.317   0.957 -0.5491  0.1176  0.1879
 3686SOL    HW111957   1.626   5.379   0.936  0.2107 -0.8356  0.0615
 3686SOL    HW211958   1.472   5.339   0.898  0.2145  0.0240 -0.8970
 3687SOL     OW11959   5.716   2.382   4.197 -0.0860 -0.5409 -0.7727
 3687SOL    HW111960   5.667   2.388   4.284  1.8855 -1.3785  0.4722
 3687SOL    HW211961   5.693   2.461   4.140 -2.2608 -0.5388  0.0265
 3688SOL     OW11962   6.727   5.426   0.203  0.1270  0.3716 -0.0516
 3688SOL    HW111963   6.824   5.405   0.219  0.5976  1.8368 -0.8134
 3688SOL    HW211964   6.713   5.525   0.212 -1.1592  0.2615 -0.6809
 3689SOL     OW11965   3.788   1.987   5.108 -0.0639 -0.4128  0.0422
 3689SOL    HW111966   3.874   2.027   5.140  1.7148 -3.6725 -0.1836
 3689SOL    HW211967   3.753   2.038   5.030  2.5999  0.0675 -0.9070
 3690SOL     OW11968   6.299   0.877   3.534 -0.4294 -0.1594 -0.0368
 3690SOL    HW111969   6.250   0.944   3.478 -0.0704  1.6813  1.7007
 3690SOL    HW211970   6.390   0.913   3.557  0.6091 -2.1847 -0.7123
 3691SOL     OW11971   3.869   2.158   6.964  0.3455 -0.0723  0.2742
 3691SOL    HW111972   3.947   2.099   6.945  0.9768  1.5808 -3.0284
 3691SOL    HW211973   3.892   2.220   7.039  1.8547 -0.2485 -0.0106
 3692SOL     OW11974   1.269   3.007   6.607 -0.2576 -0.0233  0.5188
 3692SOL    HW111975   1.242   2.971   6.518  0.2264 -1.4499  0.9234
 3692SOL    HW211976   1.366   3.028   6.606 -0.1782 -0.3736  0.8138
 3693SOL     OW11977   0.376   0.666   3.625  0.3127  0.8711  0.3119
 3693SOL    HW111978   0.320   0.591   3.662 -1.9683  2.9196  1.3472
 3693SOL    HW211979   0.434   0.703   3.698  0.1648  1.1711  0.2801
 3694SOL     OW11980   6.387   5.539   0.357  0.8076  0.0606 -0.3432
 3694SOL    HW111981   6.378   5.510   0.261  1.2890  0.5564 -0.5450
 3694SOL    HW211982   6.445   5.473   0.406  0.3180 -0.3558 -0.3130
 3695SOL     OW11983   6.244   1.842   4.491  0.7108  0.4073  0.6359
 3695SOL    HW111984   6.231   1.843   4.392  1.2613 -3.0187  0.4057
 3695SOL    HW211985   6.336   1.874   4.513  0.9221  0.3030 -0.0543
 3696SOL     OW11986   4.843   6.860   3.822 -0.3171 -0.0652 -0.4599
 3696SOL    HW111987   4.834   6.854   3.723 -1.2256  0.5842 -0.4290
 3696SOL    HW211988   4.823   6.771   3.863  1.3193 -0.6812 -0.9158
 3697SOL     OW11989   0.610   5.461   2.826 -0.0358  0.3335  0.2107
 3697SOL    HW111990   0.512   5.443   2.813 -0.0170  0.7530 -0.5278
 3697SOL    HW211991   0.662   5.379   2.800 -0.2282 -0.1826  1.3902
 3698SOL     OW11992   1.077   6.880   4.889  0.5539  0.5319  0.7612
 3698SOL    HW111993   0.990   6.917   4.856  1.2069  1.2594 -0.2064
 3698SOL    HW211994   1.122   6.829   4.815  0.5615 -0.5836  1.5125
 3699SOL     OW11995   1.927   6.936   3.012  0.0706 -0.2254 -0.1170
 3699SOL    HW111996   1.972   6.858   3.055  1.5266 -0.0522 -1.2485
 3699SOL    HW211997   1.930   7.015   3.073  1.7810 -0.0837 -0.3479
 3700SOL     OW11998   0.190   6.307   3.775  0.0892  0.2755  0.4380
 3700SOL    HW111999   0.275   6.360   3.775  0.6020 -0.2188 -3.6892
 3700SOL    HW212000   0.211   6.210   3.766 -0.7556  0.2965 -2.9948
 3701SOL     OW12001   5.576   6.684   2.379  0.0993  0.3198 -0.2643
 3701SOL    HW112002   5.570   6.683   2.478 -0.4234 -0.2768 -0.2905
 3701SOL    HW212003   5.671   6.678   2.351  0.2757  0.9692  0.2024
 3702SOL     OW12004   6.619   3.353   4.923 -0.2726 -0.0861 -0.4054
 3702SOL    HW112005   6.585   3.320   5.010  0.9459 -2.3429 -0.7029
 3702SOL    HW212006   6.712   3.389   4.935 -0.3053  0.0941 -0.6752
 3703SOL     OW12007   0.201   0.835   2.099  0.0474  0.2452  0.3576
 3703SOL    HW112008   0.157   0.747   2.116 -1.1804  0.4757 -1.3223
 3703SOL    HW212009   0.252   0.864   2.180  0.2660 -1.8719  1.0230
 3704SOL     OW12010   5.831   6.452   2.083 -0.0364 -0.1555 -0.1749
 3704SOL    HW112011   5.755   6.407   2.131  1.2265 -1.6003  0.5618
 3704SOL    HW212012   5.917   6.432   2.130  0.9257  0.6741 -1.5075
 3705SOL     OW12013   5.400   2.347   3.526  0.2177  0.2316  0.4987
 3705SOL    HW112014   5.394   2.248   3.536  0.5445  0.2845  1.2254
 3705SOL    HW212015   5.426   2.369   3.431 -2.5455 -0.2695 -0.4570
 3706SOL     OW12016   0.882   0.302   0.704  0.1395  0.0117 -0.3354
 3706SOL    HW112017   0.818   0.231   0.675 -1.1350  1.6189 -1.6974
 3706SOL    HW212018   0.943   0.265   0.773 -0.6865 -2.2883 -0.7253
 3707SOL     OW12019   6.448   3.746   3.804  0.1390  0.0890  0.0120
 3707SOL    HW112020   6.527   3.728   3.864  0.7658 -0.4322 -0.9536
 3707SOL    HW212021   6.391   3.665   3.799 -2.0015  1.2211  2.8369
 3708SOL     OW12022   6.452   5.033   5.834 -0.1379  0.0909  0.3392
 3708SOL    HW112023   6.366   5.001   5.794  0.5657 -1.2047 -0.2073
 3708SOL    HW212024   6.529   4.990   5.787  0.7674 -0.0931  1.9075
 3709SOL     OW12025   1.203   6.876   2.889 -0.0867 -0.4508 -0.3198
 3709SOL    HW112026   1.109   6.844   2.883 -0.5593 -0.1459  3.2530
 3709SOL    HW212027   1.231   6.880   2.985  3.2420  0.5165 -1.1843
 3710SOL     OW12028   2.155   3.651   4.086  0.1775  0.4031  0.2713
 3710SOL    HW112029   2.225   3.581   4.070 -1.9454 -1.6445 -0.7271
 3710SOL    HW212030   2.109   3.672   4.000  1.7492  4.3656  0.1801
 3711SOL     OW12031   6.892   6.671   0.813 -0.0488  0.1483 -0.1652
 3711SOL    HW112032   6.977   6.725   0.816 -1.3340  2.6530 -3.2862
 3711SOL    HW212033   6.907   6.588   0.759  0.4702  0.4593 -0.5090
 3712SOL     OW12034   5.385   5.805   3.783 -0.4466  0.0618  0.1931
 3712SOL    HW112035   5.438   5.867   3.840 -0.3878  0.0229  0.1803
 3712SOL    HW212036   5.331   5.858   3.717  1.0647  0.0410 -1.1240
 3713SOL     OW12037   5.137   1.734   6.005 -1.0068 -0.2425 -0.8624
 3713SOL    HW112038   5.164   1.732   5.909 -2.1850 -1.2283 -1.2106
 3713SOL    HW212039   5.216   1.714   6.063 -0.7781 -2.2614 -1.7905
 3714SOL     OW12040   1.652   4.894   0.725  0.1360  0.3471  0.3710
 3714SOL    HW112041   1.751   4.881   0.725  0.1216  0.2024  1.2259
 3714SOL    HW212042   1.607   4.805   0.730 -0.0547  0.3898 -0.3773
 3715SOL     OW12043   5.535   6.338   1.377  0.3549  0.3664 -0.3053
 3715SOL    HW112044   5.503   6.360   1.285 -2.8447  3.2898  1.2798
 3715SOL    HW212045   5.619   6.388   1.396 -0.8332  2.6138 -0.5895
 3716SOL     OW12046   0.771   4.772   6.679 -0.4088  0.2724 -0.1691
 3716SOL    HW112047   0.682   4.811   6.705  0.6991  1.8170  1.5338
 3716SOL    HW212048   0.817   4.738   6.760  1.2617  1.0644 -0.7418
 3717SOL     OW12049   3.191   6.613   2.269 -0.0004  0.7613 -0.2193
 3717SOL    HW112050   3.172   6.515   2.276 -1.9624  1.2175  2.0648
 3717SOL    HW212051   3.275   6.627   2.217  1.3515 -2.2554  0.9325
 3718SOL     OW12052   0.582   0.276   7.002  0.6765  0.0948  0.1844
 3718SOL    HW112053   0.555   0.363   6.960  2.5620  0.5656 -0.1165
 3718SOL    HW212054   0.577   0.285   7.102 -1.0827 -0.1356  0.1532
 3719SOL     OW12055   3.076   3.357   0.132  0.1929  0.2005  0.1381
 3719SOL    HW112056   3.124   3.361   0.045 -0.2411  0.4694 -0.0908
 3719SOL    HW212057   3.071   3.449   0.171  2.1822 -0.1769  1.4409
 3720SOL     OW12058   0.013   3.329   1.908 -0.0831  0.0764  0.5397
 3720SOL    HW112059  -0.045   3.277   1.971 -0.1743  0.0320  0.4193
 3720SOL    HW212060   0.082   3.378   1.960 -0.5449  0.5382  0.7319
 3721SOL     OW12061   5.176   6.438   5.305 -0.7109  0.5342  0.3116
 3721SOL    HW112062   5.108   6.492   5.354 -0.7951  0.7931 -0.0811
 3721SOL    HW212063   5.167   6.455   5.207  1.6344  2.6844  0.3672
 3722SOL     OW12064   3.843   5.067   0.747 -0.3321  0.0976 -0.2399
 3722SOL    HW112065   3.898   5.066   0.831  0.5960  2.5549 -0.7367
 3722SOL    HW212066   3.873   4.993   0.687  1.5788  0.5537  0.0811
 3723SOL     OW12067   3.758   3.803   5.851 -0.1199 -0.1109  0.3666
 3723SOL    HW112068   3.829   3.853   5.900  2.1407 -1.0716 -1.6335
 3723SOL    HW212069   3.781   3.801   5.753 -2.5700 -1.1144 -0.2672
 3724SOL     OW12070   4.871   5.809   4.555 -0.3050  0.1035 -0.3105
 3724SOL    HW112071   4.828   5.893   4.523  0.2512  0.0138 -1.3632
 3724SOL    HW212072   4.944   5.831   4.620 -2.2070  0.2266  1.9093
 3725SOL     OW12073   6.522   6.692   1.642 -0.2719 -0.2885  0.5955
 3725SOL    HW112074   6.587   6.683   1.718 -2.2129  0.7560  2.4772
 3725SOL    HW212075   6.469   6.608   1.634  1.0732 -1.0620 -0.8085
 3726SOL     OW12076   4.519   5.482   4.828 -0.2506 -0.1962  0.2340
 3726SOL    HW112077   4.567   5.395   4.817  1.3618  0.4496  1.6712
 3726SOL    HW212078   4.420   5.465   4.831 -0.0482 -1.8139 -0.7052
 3727SOL     OW12079   6.503   0.441   4.866 -0.4421  0.0911  0.8727
 3727SOL    HW112080   6.586   0.469   4.913 -0.2943  0.5769  0.3334
 3727SOL    HW212081   6.486   0.344   4.882  0.5696 -0.1581  0.4745
 3728SOL     OW12082   3.329   2.819   6.894 -0.0338  0.4106  0.2905
 3728SOL    HW112083   3.401   2.846   6.957 -0.1097  0.6582  0.2695
 3728SOL    HW212084   3.369   2.766   6.819  0.0150 -0.1725  0.7126
 3729SOL     OW12085   0.200   0.845   0.274  0.7240 -0.7975  0.7701
 3729SOL    HW112086   0.144   0.910   0.222 -0.6824 -0.2573  2.8330
 3729SOL    HW212087   0.233   0.773   0.212  0.8024  0.8448 -1.2197
 3730SOL     OW12088   5.279   3.248   3.444 -0.6043 -0.4392  0.5408
 3730SOL    HW112089   5.186   3.221   3.469 -1.5544  1.2261 -0.8813
 3730SOL    HW212090   5.304   3.204   3.357 -0.3861 -0.2693  0.5170
 3731SOL     OW12091   6.304   2.765   1.930  0.0582  0.2962  0.0330
 3731SOL    HW112092   6.369   2.722   1.867 -1.4719 -0.9727 -0.7579
 3731SOL    HW212093   6.226   2.800   1.878 -1.3562 -0.9762  1.1943
 3732SOL     OW12094   4.132   0.283   0.240  0.1505  0.2028 -0.5863
 3732SOL    HW112095   4.218   0.316   0.279  0.2748 -0.3643 -0.3664
 3732SOL    HW212096   4.131   0.183   0.241 -0.9240  0.1961  0.3264
 3733SOL     OW12097   1.526   2.385   4.555 -0.3054  0.1452  0.0560
 3733SOL    HW112098   1.518   2.334   4.470  1.8353  1.6461 -1.1648
 3733SOL    HW212099   1.621   2.380   4.588 -1.3472 -1.5691  3.2007
 3734SOL     OW12100   4.805   1.497   3.143 -0.3776 -0.2992  0.1184
 3734SOL    HW112101   4.868   1.562   3.099 -0.7800  0.9803  1.3561
 3734SOL    HW212102   4.857   1.438   3.205 -0.4258  1.4565  1.9586
 3735SOL     OW12103   3.251   1.133   2.505  0.2283 -0.0384 -0.0573
 3735SOL    HW112104   3.176   1.092   2.454 -0.0811 -0.4630  0.7211
 3735SOL    HW212105   3.251   1.098   2.599 -1.2055  3.0572  1.2362
 3736SOL     OW12106   6.926   2.328   0.108 -0.1375  0.0676 -0.0519
 3736SOL    HW112107   6.986   2.407   0.117  1.5003 -1.1336  0.0425
 3736SOL    HW212108   6.981   2.246   0.091 -1.7439 -1.1293  0.2532
 3737SOL     OW12109   6.593   2.973   3.204  0.0991  0.0865 -0.0626
 3737SOL    HW112110   6.657   2.975   3.281  0.6857  0.3464 -0.5550
 3737SOL    HW212111   6.638   2.935   3.124 -0.0644  1.1626 -0.6828
 3738SOL     OW12112   2.040   0.863   1.426  0.2719  0.0538  0.5860
 3738SOL    HW112113   2.129   0.847   1.384  0.1252 -0.2554  0.3966
 3738SOL    HW212114   1.976   0.896   1.357  0.0908 -0.2447  0.6100
 3739SOL     OW12115   3.305   1.994   1.685 -0.3751 -0.6534  0.1011
 3739SOL    HW112116   3.278   2.040   1.770 -2.4526  0.1382 -0.9006
 3739SOL    HW212117   3.381   2.043   1.643 -2.2822  1.8282 -0.7469
 3740SOL     OW12118   1.067   2.489   6.987 -0.1207 -0.3758  0.4985
 3740SOL    HW112119   1.075   2.536   6.899 -0.3541  0.7398  1.0523
 3740SOL    HW212120   1.027   2.399   6.973 -0.3857 -0.1184 -0.5101
 3741SOL     OW12121   6.442   3.476   0.385 -0.2786 -0.1969  0.1861
 3741SOL    HW112122   6.385   3.496   0.306 -1.7117 -1.1313  0.9184
 3741SOL    HW212123   6.509   3.406   0.361 -1.2713 -1.1134 -0.0212
 3742SOL     OW12124   5.313   4.676   6.873 -0.5007  0.1976  0.3916
 3742SOL    HW112125   5.290   4.606   6.806 -2.4458  0.6735  0.4983
 3742SOL    HW212126   5.343   4.633   6.958 -0.0038 -0.4497 -0.1070
 3743SOL     OW12127   4.249   3.134   1.858  0.3006  0.3389 -0.2047
 3743SOL    HW112128   4.295   3.172   1.778  0.2871  0.9214  0.0595
 3743SOL    HW212129   4.247   3.034   1.851 -0.5755  0.4260 -1.3967
 3744SOL     OW12130   4.610   4.885   2.787 -0.0113  0.4475  0.0344
 3744SOL    HW112131   4.535   4.901   2.723  0.5695 -0.2004 -0.8275
 3744SOL    HW212132   4.618   4.963   2.848  0.6311  2.0073 -1.9158
 3745SOL     OW12133   4.797   6.680   3.195 -0.6677  0.2406 -0.1524
 3745SOL    HW112134   4.877   6.732   3.165 -0.7088  0.1618 -0.4032
 3745SOL    HW212135   4.746   6.650   3.115 -0.0210 -1.1703 -0.0542
 3746SOL     OW12136   3.646   0.447   6.916 -0.2878  0.3611  0.2805
 3746SOL    HW112137   3.575   0.462   6.847  1.0981  0.3759 -1.2039
 3746SOL    HW212138   3.616   0.484   7.003 -2.2090  0.1118 -0.2313
 3747SOL     OW12139   2.930   5.313   5.971 -0.1511 -0.1319 -0.6561
 3747SOL    HW112140   2.968   5.399   6.006  1.5569 -0.3840 -1.7370
 3747SOL    HW212141   2.932   5.314   5.871  0.7820 -1.7711 -0.6935
 3748SOL     OW12142   6.265   0.401   3.978  0.6729 -0.2268 -0.1409
 3748SOL    HW112143   6.271   0.493   3.940  0.5283 -0.1622 -0.0084
 3748SOL    HW212144   6.278   0.405   4.077  0.0858 -0.2773 -0.0591
 3749SOL     OW12145   6.611   4.785   6.844  0.4779 -0.7499 -0.3459
 3749SOL    HW112146   6.542   4.750   6.781  0.7340  0.1996 -1.1785
 3749SOL    HW212147   6.582   4.874   6.880  1.6803  0.1535 -1.4938
 3750SOL     OW12148   5.617   4.362   0.481 -0.0342  0.2968 -0.1529
 3750SOL    HW112149   5.700   4.306   0.478 -0.3056 -0.1013 -0.2266
 3750SOL    HW212150   5.634   4.442   0.539  0.8681  0.9874 -1.3075
 3751SOL     OW12151   1.807   3.862   5.657 -0.1521 -0.6270  0.4340
 3751SOL    HW112152   1.751   3.928   5.608 -1.8652 -2.3613 -0.0898
 3751SOL    HW212153   1.902   3.895   5.661 -1.0824  2.2450  1.0635
 3752SOL     OW12154   1.050   5.812   5.232 -0.2006  0.0393  0.1486
 3752SOL    HW112155   1.006   5.769   5.312 -1.2090 -1.5615 -1.1769
 3752SOL    HW212156   0.979   5.850   5.172  0.3395 -0.6671 -0.9835
 3753SOL     OW12157   1.003   2.073   6.304  0.3106 -0.2284  0.3014
 3753SOL    HW112158   0.938   2.072   6.380  0.0104  0.5124  0.0628
 3753SOL    HW212159   1.094   2.050   6.338  0.0681 -0.4914  0.7808
 3754SOL     OW12160   5.716   6.061   1.597 -0.5996  0.0012 -0.1474
 3754SOL    HW112161   5.665   6.054   1.511 -1.2099 -0.1566  0.2175
 3754SOL    HW212162   5.683   5.991   1.660 -0.9131  0.7941  0.5937
 3755SOL     OW12163   5.477   3.986   4.055 -0.0265 -0.6396 -0.1355
 3755SOL    HW112164   5.431   3.939   3.979  1.0958 -1.6699 -0.2033
 3755SOL    HW212165   5.576   3.985   4.040  0.0571  1.6212 -0.0359
 3756SOL     OW12166   3.751   6.349   6.907  0.7776 -0.4677  0.3219
 3756SOL    HW112167   3.694   6.317   6.983  1.2529 -1.3837  0.3072
 3756SOL    HW212168   3.715   6.436   6.872 -0.3668 -0.8234  0.5784
 3757SOL     OW12169   2.499   3.208   0.803  0.2052  0.2911  0.0124
 3757SOL    HW112170   2.471   3.272   0.732 -0.6632 -1.2151 -1.0709
 3757SOL    HW212171   2.448   3.226   0.887 -0.6290  0.5181 -0.5303
 3758SOL     OW12172   0.556   0.148   1.349 -0.1574 -0.2940 -0.1652
 3758SOL    HW112173   0.482   0.165   1.284 -0.0214  0.0229 -0.2396
 3758SOL    HW212174   0.641   0.132   1.300 -0.2709 -1.1738 -0.0957
 3759SOL     OW12175   4.421   3.675   0.178 -0.3668 -0.1308  0.0832
 3759SOL    HW112176   4.452   3.607   0.245  0.4541 -1.4921 -1.5900
 3759SOL    HW212177   4.366   3.629   0.108 -0.8643  1.1832 -0.4135
 3760SOL     OW12178   2.241   1.482   5.822 -0.0073  0.6911  0.3582
 3760SOL    HW112179   2.181   1.528   5.888  0.0943  0.5889  0.5216
 3760SOL    HW212180   2.336   1.511   5.838  0.5474 -1.8683  2.5108
 3761SOL     OW12181   6.430   5.606   4.364 -0.0562 -0.1906  0.0284
 3761SOL    HW112182   6.523   5.639   4.379  0.4562 -1.9427  0.9844
 3761SOL    HW212183   6.377   5.676   4.316  1.8169  0.7507 -0.7855
 3762SOL     OW12184   0.092   6.697   0.503  0.2823 -0.7539 -0.0582
 3762SOL    HW112185   0.022   6.652   0.448  1.4028  0.0857 -2.2922
 3762SOL    HW212186   0.129   6.775   0.453  0.6905  0.7139  2.3380
 3763SOL     OW12187   0.515   0.882   3.764  0.0061 -0.0562 -0.8735
 3763SOL    HW112188   0.533   0.813   3.834  3.2628 -1.2554 -2.6688
 3763SOL    HW212189   0.505   0.972   3.807  0.5488 -0.9314  1.2065
 3764SOL     OW12190   0.270   1.245   4.080 -0.4216  0.0074  0.2121
 3764SOL    HW112191   0.283   1.292   3.993 -2.4534  2.4377  1.1124
 3764SOL    HW212192   0.273   1.311   4.155  1.1495 -1.9921  2.0564
 3765SOL     OW12193   6.651   6.607   1.867  0.0078  0.1747  0.0902
 3765SOL    HW112194   6.584   6.590   1.939  1.3463 -1.3038  1.0546
 3765SOL    HW212195   6.718   6.674   1.900  0.8583 -0.8116  0.4217
 3766SOL     OW12196   1.392   1.841   4.862  0.3811  0.6611  0.0225
 3766SOL    HW112197   1.458   1.906   4.824  0.8598  0.2688  0.1722
 3766SOL    HW212198   1.432   1.796   4.942 -0.8735  2.0149  1.4710
 3767SOL     OW12199   0.541   4.314   2.099 -0.4682 -0.4974 -0.2007
 3767SOL    HW112200   0.462   4.262   2.133 -0.0042 -0.8287  0.3837
 3767SOL    HW212201   0.621   4.254   2.094 -0.3841 -0.3070 -1.3386
 3768SOL     OW12202   5.013   5.970   0.580  0.0648  0.3485  0.1326
 3768SOL    HW112203   5.098   5.984   0.630 -0.9163 -0.2118  2.0637
 3768SOL    HW212204   4.976   5.880   0.602  0.2972 -0.5531 -2.7924
 3769SOL     OW12205   4.757   5.595   3.749  0.1534 -0.2170 -0.3491
 3769SOL    HW112206   4.748   5.501   3.783 -2.1728  0.4212  1.0219
 3769SOL    HW212207   4.691   5.610   3.675  0.8936  0.1979 -0.9379
 3770SOL     OW12208   2.089   3.252   5.692  0.2133 -0.3505  0.0212
 3770SOL    HW112209   2.081   3.344   5.652  1.8342 -0.0437  0.3107
 3770SOL    HW212210   2.103   3.185   5.619  0.8854 -0.1026 -0.0862
 3771SOL     OW12211   5.504   3.969   1.128 -0.1941  0.3454  0.5867
 3771SOL    HW112212   5.549   4.037   1.070  1.2278 -1.2854 -0.3283
 3771SOL    HW212213   5.448   3.909   1.072 -2.3413  1.3672  1.5304
 3772SOL     OW12214   4.299   6.410   2.236  0.0415  0.6932  0.1586
 3772SOL    HW112215   4.353   6.472   2.180 -0.2494  1.2175  0.4544
 3772SOL    HW212216   4.203   6.416   2.209  0.0117  0.3562  0.1778
 3773SOL     OW12217   6.428   2.649   1.704 -0.4627 -0.3095 -0.6308
 3773SOL    HW112218   6.355   2.595   1.663  0.5170 -0.7934 -1.8217
 3773SOL    HW212219   6.456   2.722   1.641  0.2732 -0.3240 -0.3352
 3774SOL     OW12220   2.062   0.294   1.712 -0.6312  0.0222 -0.3809
 3774SOL    HW112221   2.003   0.264   1.788 -1.7385  0.0479 -1.2047
 3774SOL    HW212222   2.151   0.250   1.720 -0.3076  0.8954  1.5768
 3775SOL     OW12223   5.372   3.082   2.726 -0.0302 -0.2220 -0.1602
 3775SOL    HW112224   5.464   3.095   2.763  0.5440 -0.8943 -1.2994
 3775SOL    HW212225   5.305   3.130   2.784  1.0252  0.2473  0.6931
 3776SOL     OW12226   2.647   1.985   3.421  0.0078 -0.8510 -0.6789
 3776SOL    HW112227   2.591   2.065   3.443 -0.6217 -1.0823 -1.3831
 3776SOL    HW212228   2.632   1.913   3.488  1.3508 -0.0373  0.5553
 3777SOL     OW12229   1.929   2.884   3.511  0.0491 -0.2646  0.2587
 3777SOL    HW112230   1.908   2.884   3.414  0.4278 -0.4675  0.1760
 3777SOL    HW212231   1.845   2.900   3.563 -0.2073 -0.4737 -0.0875
 3778SOL     OW12232   3.447   1.206   2.306  0.0327 -1.1049  0.5904
 3778SOL    HW112233   3.369   1.158   2.346  0.3884 -1.6254  0.6565
 3778SOL    HW212234   3.530   1.182   2.355  0.4204 -1.4760 -0.2293
 3779SOL     OW12235   3.681   4.349   1.355 -0.0947  0.7336  0.3491
 3779SOL    HW112236   3.777   4.350   1.330 -0.1088 -0.6915  0.1940
 3779SOL    HW212237   3.652   4.442   1.378  1.1384  1.2842 -0.2355
 3780SOL     OW12238   0.995   1.178   5.467  0.1510 -0.2005 -0.5977
 3780SOL    HW112239   0.972   1.182   5.564 -1.3778 -1.0404 -0.8860
 3780SOL    HW212240   0.932   1.236   5.415  0.9054  0.1818 -1.0987
 3781SOL     OW12241   2.925   6.143   5.181 -0.2187  0.1789  0.0792
 3781SOL    HW112242   2.837   6.169   5.142 -0.7465 -2.1184 -0.3567
 3781SOL    HW212243   2.921   6.049   5.215  1.4290  0.7530  2.0738
 3782SOL     OW12244   3.149   6.006   1.024 -0.0891 -0.2384 -0.0993
 3782SOL    HW112245   3.136   5.991   1.122 -2.8042  1.4667 -0.0701
 3782SOL    HW212246   3.243   5.984   0.998  0.0633 -2.9965  2.3822
 3783SOL     OW12247   6.323   4.627   4.747  0.2456  0.1097 -0.4249
 3783SOL    HW112248   6.244   4.688   4.750 -1.8261 -2.3811 -0.5714
 3783SOL    HW212249   6.391   4.663   4.684 -0.7466  2.3460 -0.3000
 3784SOL     OW12250   5.227   4.012   4.159  0.3115 -0.2943  0.7155
 3784SOL    HW112251   5.324   4.018   4.136  0.6525 -0.8833  1.9179
 3784SOL    HW212252   5.215   4.027   4.257 -0.4972 -2.7767  1.0759
 3785SOL     OW12253   0.475   1.474   6.678 -0.2783 -0.3140  0.1609
 3785SOL    HW112254   0.564   1.469   6.722 -0.7123 -1.5526  0.9323
 3785SOL    HW212255   0.435   1.383   6.671 -1.8366  0.3007  0.5436
 3786SOL     OW12256   2.171   4.893   1.945  0.2514  0.1130 -0.2255
 3786SOL    HW112257   2.264   4.927   1.957  0.7777 -1.4611  0.5539
 3786SOL    HW212258   2.174   4.804   1.900 -0.8237 -0.2705  0.4261
 3787SOL     OW12259   3.491   0.845   5.168  0.0147  0.1184 -0.2345
 3787SOL    HW112260   3.501   0.843   5.069 -0.8527 -0.7256 -0.3171
 3787SOL    HW212261   3.411   0.792   5.195 -1.7778  3.0588  0.6743
 3788SOL     OW12262   0.094   4.247   3.087 -0.1249 -0.8025  0.3720
 3788SOL    HW112263   0.170   4.312   3.080 -1.1527  0.3827 -0.1989
 3788SOL    HW212264   0.108   4.172   3.023 -0.6489  0.7268 -1.6407
 3789SOL     OW12265   2.574   4.148   0.417  0.1458  0.4349 -0.7874
 3789SOL    HW112266   2.568   4.228   0.356  2.6195  2.4729  1.4011
 3789SOL    HW212267   2.525   4.167   0.502  2.2904  0.4960  0.5162
 3790SOL     OW12268   6.840   2.707   1.614 -0.8641  0.1299  0.4229
 3790SOL    HW112269   6.930   2.750   1.622 -0.5176 -0.7762  1.8508
 3790SOL    HW212270   6.772   2.776   1.587  0.4522  0.5552 -2.0748
 3791SOL     OW12271   0.387   6.717   3.701  0.0192  0.5108  0.3347
 3791SOL    HW112272   0.394   6.629   3.747  1.3807  0.6296  0.4062
 3791SOL    HW212273   0.472   6.735   3.650 -0.8543  1.0673 -0.9902
 3792SOL     OW12274   0.792   5.876   6.037 -0.0771 -0.2532  0.1431
 3792SOL    HW112275   0.848   5.844   5.961 -0.3316  0.3374 -0.3023
 3792SOL    HW212276   0.725   5.943   6.004 -0.8649 -0.7377  0.7093
 3793SOL     OW12277   0.601   6.720   2.124 -0.7021 -0.8264 -0.0549
 3793SOL    HW112278   0.662   6.675   2.189  0.1938  2.2569  1.4441
 3793SOL    HW212279   0.506   6.708   2.152 -0.6068 -2.7113 -0.4185
 3794SOL     OW12280   5.064   0.036   6.784  0.1757  0.0203 -0.6462
 3794SOL    HW112281   5.016   0.123   6.778  0.5068  0.1848 -0.9176
 3794SOL    HW212282   5.009  -0.035   6.740  0.4508  0.3255 -1.5051
 3795SOL     OW12283   5.514   1.549   1.026 -0.1321  0.2372  0.3638
 3795SOL    HW112284   5.438   1.614   1.022 -2.0563 -1.7733  1.4999
 3795SOL    HW212285   5.479   1.456   1.009  2.0612 -0.8145  1.1666
 3796SOL     OW12286   0.756   3.491   1.520 -0.0516 -0.1924 -0.2266
 3796SOL    HW112287   0.784   3.512   1.613 -1.5686  0.0436  0.1934
 3796SOL    HW212288   0.831   3.444   1.473  0.1582 -1.8829  1.6519
 3797SOL     OW12289   6.247   2.495   3.768  0.4181 -0.7325 -0.2220
 3797SOL    HW112290   6.302   2.554   3.708 -0.2841 -0.0649 -0.2348
 3797SOL    HW212291   6.154   2.489   3.731  0.4830 -1.8815 -0.2299
 3798SOL     OW12292   2.874   4.356   6.927 -0.4786  0.0342 -0.2709
 3798SOL    HW112293   2.933   4.339   7.006 -1.3903  0.5953  0.5491
 3798SOL    HW212294   2.846   4.268   6.887  1.6996 -0.2550 -1.3233
 3799SOL     OW12295   6.150   2.199   5.408  0.3594  1.0001  0.5398
 3799SOL    HW112296   6.187   2.266   5.344  0.4760  0.5699  0.1508
 3799SOL    HW212297   6.226   2.151   5.453  0.3540 -0.9230 -1.3395
 3800SOL     OW12298   3.881   1.386   4.026  0.2992 -0.6473  0.1842
 3800SOL    HW112299   3.925   1.330   3.955  1.1478 -0.0516  0.2354
 3800SOL    HW212300   3.828   1.326   4.086 -0.2282 -1.1935 -0.7926
 3801SOL     OW12301   6.671   2.191   5.756 -0.1348  0.4504 -0.1677
 3801SOL    HW112302   6.761   2.177   5.795 -0.2150 -1.0753 -0.4751
 3801SOL    HW212303   6.635   2.280   5.786  0.6353  0.2214  1.5576
 3802SOL     OW12304   0.731   1.701   4.550  0.3913 -0.1934 -0.0852
 3802SOL    HW112305   0.759   1.774   4.613 -0.3981 -0.5611  0.7204
 3802SOL    HW212306   0.650   1.730   4.500  0.5159 -0.2287 -0.3054
 3803SOL     OW12307   5.667   0.253   0.072  0.6675  0.2312  0.2793
 3803SOL    HW112308   5.678   0.230  -0.024  0.1476  0.1746  0.2283
 3803SOL    HW212309   5.751   0.232   0.122  0.7247 -0.3309 -0.0501
 3804SOL     OW12310   6.653   4.938   5.682  0.0779 -0.0467  0.4090
 3804SOL    HW112311   6.656   4.991   5.597 -1.2175 -1.4925 -0.5751
 3804SOL    HW212312   6.746   4.910   5.706  0.7308  2.1088  0.6513
 3805SOL     OW12313   2.335   2.839   6.824  0.3309  0.6782 -0.8363
 3805SOL    HW112314   2.313   2.918   6.882 -2.1205 -1.2925  1.2198
 3805SOL    HW212315   2.269   2.834   6.749  1.4085  1.3221 -1.8719
 3806SOL     OW12316   4.016   0.461   1.632 -0.1039 -0.8477 -0.2098
 3806SOL    HW112317   4.016   0.385   1.568 -0.8784 -0.0466 -1.1932
 3806SOL    HW212318   4.106   0.506   1.631  0.7219 -2.3480  1.1705
 3807SOL     OW12319   6.755   0.498   2.488 -0.1926 -0.0698 -0.4292
 3807SOL    HW112320   6.655   0.499   2.497 -0.1715 -0.6499 -0.1277
 3807SOL    HW212321   6.787   0.405   2.472  0.2211  0.2440 -1.5450
 3808SOL     OW12322   2.297   1.540   1.931  0.3278 -0.5505 -0.2057
 3808SOL    HW112323   2.370   1.604   1.953 -0.9151  1.4389 -1.5805
 3808SOL    HW212324   2.209   1.579   1.958 -0.2952 -3.1826  2.0833
 3809SOL     OW12325   2.695   1.124   1.585 -0.0963 -0.6363 -0.4111
 3809SOL    HW112326   2.744   1.043   1.555 -0.1615 -0.7012 -0.3438
 3809SOL    HW212327   2.706   1.136   1.683 -1.5043 -1.5508 -0.1097
 3810SOL     OW12328   2.782   1.655   6.289 -0.1367 -0.3186  0.2456
 3810SOL    HW112329   2.709   1.661   6.357  0.4594 -1.6094  1.0343
 3810SOL    HW212330   2.869   1.683   6.329  0.0555 -0.1468 -0.2732
 3811SOL     OW12331   5.286   1.835   4.910  0.5171  0.0006 -0.5638
 3811SOL    HW112332   5.363   1.867   4.965 -0.1165  1.7509 -0.6389
 3811SOL    HW212333   5.246   1.754   4.954  0.5282  0.8620  1.1436
 3812SOL     OW12334   5.830   6.837   6.009 -0.2453  0.4430  0.6109
 3812SOL    HW112335   5.837   6.793   6.099 -0.3090  0.0699  0.4342
 3812SOL    HW212336   5.771   6.783   5.950 -1.1458  1.3027  0.7099
 3813SOL     OW12337   4.001   5.180   3.261  0.3999  0.5603 -0.0049
 3813SOL    HW112338   3.994   5.111   3.188  0.3150  0.6341 -0.0665
 3813SOL    HW212339   4.053   5.258   3.229 -0.8101  1.2022 -0.4582
 3814SOL     OW12340   2.226   0.999   3.599 -0.3585 -0.0384  0.7515
 3814SOL    HW112341   2.182   1.008   3.688 -1.0602  2.6722  0.2256
 3814SOL    HW212342   2.156   0.986   3.528  0.1874 -2.1386  0.5293
 3815SOL     OW12343   6.091   3.203   0.988  0.3036 -0.1128 -0.3757
 3815SOL    HW112344   6.066   3.180   0.893  0.4234  0.1669 -0.4751
 3815SOL    HW212345   6.039   3.144   1.050  1.1863 -1.2014 -0.6427
 3816SOL     OW12346   6.439   6.412   5.999 -0.1988  0.5472 -0.1388
 3816SOL    HW112347   6.518   6.362   6.034  0.0366 -0.3761 -1.8542
 3816SOL    HW212348   6.426   6.496   6.051  2.4717  1.1674 -0.3618
 3817SOL     OW12349   4.729   1.554   6.424 -0.0558  0.0382 -0.2908
 3817SOL    HW112350   4.733   1.613   6.343 -0.3041 -0.5502 -0.7360
 3817SOL    HW212351   4.658   1.587   6.486 -1.8806 -1.1896 -1.6557
 3818SOL     OW12352   4.730   5.702   2.387  0.8342 -0.0242  0.7932
 3818SOL    HW112353   4.792   5.766   2.433  1.1431  0.6668 -0.5335
 3818SOL    HW212354   4.699   5.742   2.301 -0.5984 -0.8264  0.9039
 3819SOL     OW12355   0.776   4.825   4.597  0.9723  0.2787  0.0487
 3819SOL    HW112356   0.845   4.804   4.529  0.6916 -0.2220 -0.0857
 3819SOL    HW212357   0.787   4.764   4.676 -0.8154 -1.5299 -1.0033
 3820SOL     OW12358   3.760   7.021   2.690  0.1749 -0.0012  0.0666
 3820SOL    HW112359   3.829   7.069   2.745  0.4437  0.7459 -0.8959
 3820SOL    HW212360   3.681   7.080   2.675 -0.5877 -0.7651  0.9506
 3821SOL     OW12361   1.657   3.745   1.786 -0.3338  0.7914  0.1892
 3821SOL    HW112362   1.596   3.824   1.786 -0.3628  0.7702 -0.3889
 3821SOL    HW212363   1.751   3.775   1.771 -0.6281  0.5203 -2.6619
 3822SOL     OW12364   0.549   2.570   2.208 -0.3248  0.0329  0.2797
 3822SOL    HW112365   0.477   2.520   2.159  1.1984 -1.9974 -0.0029
 3822SOL    HW212366   0.567   2.656   2.160 -1.0478 -0.4549 -0.9233
 3823SOL     OW12367   0.914   3.585   5.550  0.3079 -0.1815 -0.2495
 3823SOL    HW112368   0.941   3.494   5.518 -0.0256 -0.8007  1.1783
 3823SOL    HW212369   0.815   3.588   5.565  0.3705  0.2906  0.1146
 3824SOL     OW12370   0.010   3.425   5.043  0.1589  0.3230 -0.7693
 3824SOL    HW112371  -0.046   3.429   5.125  1.3979  0.1878  0.1213
 3824SOL    HW212372  -0.032   3.364   4.976  0.5136 -1.8951  0.9070
 3825SOL     OW12373   6.464   0.371   5.331 -0.2630 -0.3261  0.1687
 3825SOL    HW112374   6.558   0.364   5.300  0.1771 -1.2186  1.5810
 3825SOL    HW212375   6.454   0.447   5.395 -0.7795  0.4826 -0.8511
 3826SOL     OW12376   6.059   2.468   1.140 -0.8625 -0.1890 -0.6537
 3826SOL    HW112377   5.992   2.528   1.096  0.8536  1.2492 -1.4301
 3826SOL    HW212378   6.145   2.472   1.090  0.8840  0.7238  2.1813
 3827SOL     OW12379   6.173   2.161   2.842 -0.2803 -0.6111 -0.0510
 3827SOL    HW112380   6.184   2.063   2.829  0.8918 -0.6480  1.0208
 3827SOL    HW212381   6.174   2.206   2.753  3.9421 -1.1689 -0.5113
 3828SOL     OW12382   4.031   1.001   2.327  0.0813 -0.2361 -0.1801
 3828SOL    HW112383   4.019   1.047   2.415 -3.2089 -0.4499 -0.3915
 3828SOL    HW212384   4.031   1.070   2.254  1.2074 -0.1744 -0.1307
 3829SOL     OW12385   0.547   5.947   3.427 -0.2227 -0.2697  0.4296
 3829SOL    HW112386   0.559   6.000   3.511 -0.4589 -0.1654  0.4003
 3829SOL    HW212387   0.451   5.950   3.400 -0.1302 -0.2199  0.1006
 3830SOL     OW12388   2.935   0.893   6.321 -0.1479  0.0592 -0.1050
 3830SOL    HW112389   2.950   0.833   6.400  1.9127 -0.5503 -0.9016
 3830SOL    HW212390   2.950   0.988   6.347  1.6490 -0.2294  0.0248
 3831SOL     OW12391   5.682   3.068   2.043  0.3017 -0.2552 -0.2552
 3831SOL    HW112392   5.735   3.089   2.125  0.6644 -0.7554 -0.3551
 3831SOL    HW212393   5.629   2.984   2.059  0.7549 -0.6301 -0.6992
 3832SOL     OW12394   5.026   5.976   1.057  0.5944  0.4839 -0.2045
 3832SOL    HW112395   5.049   5.997   1.152  0.5421  2.0093 -0.4972
 3832SOL    HW212396   4.979   6.055   1.016 -0.6982 -0.6981 -1.0779
 3833SOL     OW12397   2.251   1.575   1.181  0.0648  0.0257 -0.1628
 3833SOL    HW112398   2.308   1.542   1.256 -1.6747 -1.6702  0.5181
 3833SOL    HW212399   2.223   1.669   1.198 -0.9997 -0.5948  1.8116
 3834SOL     OW12400   2.574   3.543   6.521 -0.1471 -0.0420 -0.2423
 3834SOL    HW112401   2.563   3.451   6.483  0.5102 -0.0555 -0.3965
 3834SOL    HW212402   2.526   3.609   6.463 -1.0033 -0.3314  0.1073
 3835SOL     OW12403   4.726   5.542   3.298 -0.1451 -0.0315 -0.1738
 3835SOL    HW112404   4.760   5.611   3.234  1.3678 -0.0129  0.5943
 3835SOL    HW212405   4.683   5.467   3.248 -0.2989  0.6671 -1.1072
 3836SOL     OW12406   2.325   2.778   0.098 -0.0956  0.6576 -0.1739
 3836SOL    HW112407   2.380   2.850   0.141 -0.1387  0.9062 -0.5252
 3836SOL    HW212408   2.355   2.765   0.004 -0.1303  0.2549 -0.1292
 3837SOL     OW12409   5.590   5.860   6.088 -0.5282  0.2645 -0.3003
 3837SOL    HW112410   5.544   5.944   6.058  1.5377  0.6754 -2.7740
 3837SOL    HW212411   5.650   5.880   6.165 -0.9257  0.8175 -0.1349
 3838SOL     OW12412   0.955   4.017   4.638  0.4086  0.0438 -0.3180
 3838SOL    HW112413   1.054   4.011   4.631  0.3649  0.6034 -1.7031
 3838SOL    HW212414   0.916   3.925   4.652  1.1465 -0.0936  0.9468
 3839SOL     OW12415   1.429   1.044   0.930  0.0862 -0.2913 -0.4440
 3839SOL    HW112416   1.475   1.015   0.846  1.5148  0.7393 -0.0635
 3839SOL    HW212417   1.418   0.965   0.991  0.8496 -0.6679 -0.7813
 3840SOL     OW12418   2.905   1.901   3.567  0.2471 -0.4850  0.3507
 3840SOL    HW112419   2.928   1.991   3.603 -0.3421 -0.5050  0.8122
 3840SOL    HW212420   2.806   1.896   3.549  0.3098 -0.9550  0.0990
 3841SOL     OW12421   2.146   3.885   3.039  0.3548  0.3023  0.6356
 3841SOL    HW112422   2.119   3.838   3.123 -0.9782  1.8118  1.1038
 3841SOL    HW212423   2.201   3.965   3.062  0.2986  0.5155  0.0387
 3842SOL     OW12424   6.974   5.491   0.976 -0.3981  0.3811 -0.2188
 3842SOL    HW112425   6.956   5.416   0.911 -0.7095  0.1366  0.1464
 3842SOL    HW212426   7.055   5.469   1.030 -1.2268 -0.3121  0.7864
 3843SOL     OW12427   6.085   0.505   6.365 -0.3888  0.5178 -0.2885
 3843SOL    HW112428   5.986   0.504   6.350 -0.4037  1.5746 -0.3152
 3843SOL    HW212429   6.127   0.573   6.305  0.3559  0.0991 -0.2522
 3844SOL     OW12430   3.802   4.230   5.241 -0.2145  0.4638  0.1368
 3844SOL    HW112431   3.761   4.172   5.171 -0.1624  0.9660 -0.3180
 3844SOL    HW212432   3.895   4.255   5.214 -0.9512  2.4877 -0.7302
 3845SOL     OW12433   2.422   4.291   5.215 -0.3465 -0.5096 -0.0522
 3845SOL    HW112434   2.325   4.303   5.193 -0.8258 -2.1480  0.9583
 3845SOL    HW212435   2.445   4.194   5.211  0.9089 -0.2889  1.0790
 3846SOL     OW12436   1.898   3.373   3.968 -0.1797  0.1504  0.4127
 3846SOL    HW112437   1.842   3.292   3.952  0.5448 -0.9192  2.8660
 3846SOL    HW212438   1.839   3.451   3.990 -0.7927 -0.4057  0.7690
 3847SOL     OW12439   0.373   1.538   0.101 -0.7641 -0.4197 -0.3237
 3847SOL    HW112440   0.375   1.447   0.141  0.7339  0.0518  0.7664
 3847SOL    HW212441   0.464   1.579   0.107 -1.0109  0.5274 -2.2951
 3848SOL     OW12442   1.592   6.756   2.430 -0.4256  0.2398 -0.1173
 3848SOL    HW112443   1.638   6.732   2.515  0.8317 -0.4362 -0.9461
 3848SOL    HW212444   1.532   6.681   2.402  1.1615 -0.7369 -1.1231
 3849SOL     OW12445   0.740   0.622   4.677 -0.0966 -0.2914  0.4404
 3849SOL    HW112446   0.824   0.577   4.708 -1.6430 -2.5626  1.6032
 3849SOL    HW212447   0.726   0.604   4.580  1.0914  0.7818  0.0261
 3850SOL     OW12448   0.713   2.368   1.314 -0.6741  0.0170 -0.2616
 3850SOL    HW112449   0.616   2.378   1.335 -0.4283  0.4255  0.7130
 3850SOL    HW212450   0.767   2.380   1.397  0.2738  0.8176 -0.9593
 3851SOL     OW12451   2.127   2.174   0.216  0.1132  0.2917  0.2878
 3851SOL    HW112452   2.117   2.251   0.280 -1.6941  0.3863 -0.0475
 3851SOL    HW212453   2.203   2.192   0.153  0.8417  0.9686  1.3210
 3852SOL     OW12454   4.429   6.023   5.055  0.2411  0.4771  0.1204
 3852SOL    HW112455   4.394   5.930   5.063 -1.0140  0.8367 -0.7287
 3852SOL    HW212456   4.472   6.035   4.965 -4.0303  1.9516 -2.0726
 3853SOL     OW12457   6.926   3.031   0.238  0.0138  0.1382 -0.2011
 3853SOL    HW112458   6.899   3.074   0.152 -0.6762 -1.9592 -1.1064
 3853SOL    HW212459   7.010   3.074   0.272  0.5505  0.7448 -2.1484
 3854SOL     OW12460   1.458   3.833   3.128  0.3040 -0.1074 -0.3093
 3854SOL    HW112461   1.494   3.796   3.042 -0.3046  0.9167 -1.0296
 3854SOL    HW212462   1.441   3.931   3.118 -1.4461 -0.2947  0.4033
 3855SOL     OW12463   6.855   2.885   4.523 -0.2109  0.6842  0.0796
 3855SOL    HW112464   6.924   2.836   4.470 -1.0849 -0.5326  0.0327
 3855SOL    HW212465   6.776   2.826   4.538 -0.3375  1.2629  2.0293
 3856SOL     OW12466   1.261   5.872   5.667  0.1639  0.0189 -0.7456
 3856SOL    HW112467   1.324   5.798   5.646 -0.8615 -1.1580  0.1821
 3856SOL    HW212468   1.256   5.886   5.766  0.6224  1.6114 -0.9068
 3857SOL     OW12469   5.109   1.655   0.635 -0.6082  0.0905 -0.3426
 3857SOL    HW112470   5.144   1.722   0.570 -1.2895  1.1004  0.2944
 3857SOL    HW212471   5.086   1.702   0.721 -0.1352 -1.1326  0.4769
 3858SOL     OW12472   4.381   5.773   6.024  0.1141  0.0551  0.4032
 3858SOL    HW112473   4.416   5.708   6.092  1.5407  1.0467  0.6593
 3858SOL    HW212474   4.413   5.746   5.933 -0.4338 -0.3481  0.3230
 3859SOL     OW12475   0.134   5.482   2.804 -0.5451  0.5709  0.0807
 3859SOL    HW112476   0.060   5.432   2.759  0.0216  1.0811 -1.4926
 3859SOL    HW212477   0.141   5.574   2.764  2.0836 -0.0751 -1.1512
 3860SOL     OW12478   2.263   6.083   6.870 -0.4435 -0.3276  0.4253
 3860SOL    HW112479   2.342   6.137   6.899 -2.7461  3.0839  0.9610
 3860SOL    HW212480   2.242   6.103   6.775  0.7499 -3.2263 -0.5356
 3861SOL     OW12481   3.654   5.000   6.884  0.4820 -0.1338 -0.1728
 3861SOL    HW112482   3.680   4.933   6.814  0.8775 -0.1300 -0.0318
 3861SOL    HW212483   3.558   5.027   6.871 -0.4447 -2.4728  1.1668
 3862SOL     OW12484   0.709   5.215   3.049 -0.5622  0.3323  0.4615
 3862SOL    HW112485   0.763   5.200   3.131 -0.0354  0.4736  0.1487
 3862SOL    HW212486   0.678   5.127   3.012 -0.6802  0.2611  0.7308
 3863SOL     OW12487   2.554   3.698   1.337 -0.2221  0.6441  0.0777
 3863SOL    HW112488   2.567   3.610   1.290  1.3327  0.3767  0.9407
 3863SOL    HW212489   2.505   3.684   1.422  0.0608  0.5931  0.2347
 3864SOL     OW12490   2.882   1.733   1.005 -0.4639 -0.0888 -0.4978
 3864SOL    HW112491   2.811   1.750   0.936 -0.8345 -0.9105 -0.3300
 3864SOL    HW212492   2.863   1.647   1.052  1.4125 -1.0834 -1.4368
 3865SOL     OW12493   5.377   0.037   1.113 -0.4128  0.0785 -0.6363
 3865SOL    HW112494   5.281   0.063   1.110 -0.8501 -1.4403 -1.0456
 3865SOL    HW212495   5.399   0.000   1.203  0.4567  2.6180  0.2742
 3866SOL     OW12496   4.951   5.727   5.075 -0.2599 -1.1481 -0.1615
 3866SOL    HW112497   4.875   5.785   5.103 -0.0942 -1.4102  0.8675
 3866SOL    HW212498   4.956   5.725   4.975  1.0456  2.3520 -0.3177
 3867SOL     OW12499   3.630   5.027   1.884  0.3262  0.1961 -0.4505
 3867SOL    HW112500   3.691   5.076   1.947 -0.4066  0.3749  0.1414
 3867SOL    HW212501   3.620   4.932   1.915 -0.3014  0.3724 -0.0835
 3868SOL     OW12502   2.605   5.754   3.462  0.4784  0.3759  0.9725
 3868SOL    HW112503   2.637   5.782   3.372  0.3300 -1.1709  0.3946
 3868SOL    HW212504   2.681   5.753   3.526  0.3782  2.5633  1.1849
 3869SOL     OW12505   6.695   1.316   3.659  0.2391  0.5976  0.0039
 3869SOL    HW112506   6.761   1.242   3.674  0.5156  0.5132 -1.4789
 3869SOL    HW212507   6.627   1.315   3.732  0.8657 -0.4255  0.6003
 3870SOL     OW12508   3.952   1.912   6.701  0.1378  0.4767 -0.2756
 3870SOL    HW112509   3.995   1.886   6.787  2.1690 -1.5446 -1.7895
 3870SOL    HW212510   4.014   1.971   6.649 -0.5248  0.5989 -0.9423
 3871SOL     OW12511   2.372   0.365   5.365  0.7602 -0.0651  0.6147
 3871SOL    HW112512   2.364   0.442   5.302 -0.1196  0.5631  1.4734
 3871SOL    HW212513   2.291   0.307   5.357  1.2996 -0.7848  0.1593
 3872SOL     OW12514   5.934   4.958   6.923  0.1972 -0.0499 -0.3103
 3872SOL    HW112515   5.917   4.944   7.021 -2.2467 -0.3810 -0.7305
 3872SOL    HW212516   5.883   4.890   6.870  0.0729  1.2141 -1.8802
 3873SOL     OW12517   4.861   6.763   1.879 -0.3681  0.1191 -0.7654
 3873SOL    HW112518   4.887   6.667   1.883 -0.3956  0.1594  2.0310
 3873SOL    HW212519   4.943   6.820   1.873 -0.2716 -0.0179 -0.7386
 3874SOL     OW12520   6.782   5.876   4.446 -0.1973  0.3542  0.5296
 3874SOL    HW112521   6.737   5.807   4.390 -0.9016 -0.8563  2.4717
 3874SOL    HW212522   6.714   5.943   4.476  0.3072  1.3953 -0.5701
 3875SOL     OW12523   3.301   3.238   6.267 -0.5160  0.0097 -0.2281
 3875SOL    HW112524   3.376   3.237   6.201 -0.2851 -0.0426  0.0323
 3875SOL    HW212525   3.260   3.330   6.271  0.5333  0.4583  0.7407
 3876SOL     OW12526   6.626   4.839   2.365  0.4119  0.7170  0.2755
 3876SOL    HW112527   6.724   4.849   2.376  0.4643  0.7876 -0.2348
 3876SOL    HW212528   6.593   4.765   2.423  0.9802 -0.2244 -0.5744
 3877SOL     OW12529   6.091   3.365   3.843 -0.3084 -0.7057  0.4755
 3877SOL    HW112530   6.081   3.388   3.940  1.4181 -1.0424  0.7610
 3877SOL    HW212531   6.098   3.265   3.833  1.9245 -0.5734  0.2970
 3878SOL     OW12532   6.427   4.364   4.980  0.1394 -0.3253 -0.2176
 3878SOL    HW112533   6.408   4.319   4.893 -1.4486  0.6495 -0.4360
 3878SOL    HW212534   6.496   4.435   4.967 -0.4690  0.1698 -0.8215
 3879SOL     OW12535   3.104   5.808   2.240  0.5863 -0.5415 -0.5558
 3879SOL    HW112536   3.075   5.809   2.145 -0.7376 -0.2359 -0.1656
 3879SOL    HW212537   3.049   5.743   2.292  1.0308 -0.4241  0.0886
 3880SOL     OW12538   4.678   2.309   4.441  0.1010  0.0105  0.3640
 3880SOL    HW112539   4.728   2.386   4.403  0.0172 -0.7869 -1.4657
 3880SOL    HW212540   4.653   2.245   4.368  1.8557 -2.7605  2.0083
 3881SOL     OW12541   1.658   6.355   6.131 -0.4565 -0.2095  0.0693
 3881SOL    HW112542   1.645   6.442   6.083  0.6306  0.1182  0.3285
 3881SOL    HW212543   1.638   6.368   6.228 -0.9347 -0.4195 -0.0002
 3882SOL     OW12544   6.697   6.516   5.291 -0.1062  0.1709  0.5991
 3882SOL    HW112545   6.776   6.570   5.318 -0.2163  0.4512  0.3659
 3882SOL    HW212546   6.627   6.522   5.362 -0.3779  0.8732  0.2863
 3883SOL     OW12547   4.838   2.706   0.681  0.3632 -0.1359  0.2022
 3883SOL    HW112548   4.767   2.636   0.688 -2.6364  2.7466  0.9703
 3883SOL    HW212549   4.883   2.699   0.591 -0.0222 -2.7776  0.1546
 3884SOL     OW12550   3.822   5.003   6.516 -0.6280 -0.3057  0.3567
 3884SOL    HW112551   3.761   5.082   6.510  0.4301  0.7527  2.4313
 3884SOL    HW212552   3.808   4.943   6.437 -2.2128  1.4080 -0.7238
 3885SOL     OW12553   1.451   6.873   3.462 -0.0103 -0.2976 -0.3840
 3885SOL    HW112554   1.443   6.789   3.516 -0.1981 -0.9188 -1.3520
 3885SOL    HW212555   1.359   6.907   3.439  0.0670  0.0880 -0.1296
 3886SOL     OW12556   6.979   4.851   4.618  0.1528 -0.7435  0.0365
 3886SOL    HW112557   6.924   4.844   4.535 -1.4891 -1.8011  1.1662
 3886SOL    HW212558   7.064   4.799   4.606  1.5425  1.7687 -2.1084
 3887SOL     OW12559   1.120   1.828   5.129 -0.0758  0.0722 -0.3764
 3887SOL    HW112560   1.108   1.926   5.112 -0.3561  0.1029 -0.0254
 3887SOL    HW212561   1.216   1.808   5.145 -0.2351  0.6039  1.4128
 3888SOL     OW12562   3.414   2.124   3.096  0.4411 -0.0944 -0.1715
 3888SOL    HW112563   3.435   2.211   3.052  0.4252  0.0226  0.0513
 3888SOL    HW212564   3.397   2.055   3.026 -0.4358  0.2941 -0.3550
 3889SOL     OW12565   0.290   5.250   0.909 -0.0863 -0.0424 -0.4397
 3889SOL    HW112566   0.384   5.215   0.914  0.1821  0.6810 -0.2460
 3889SOL    HW212567   0.240   5.202   0.837  1.3152  1.5513 -2.5953
 3890SOL     OW12568   6.314   2.109   3.395 -0.0752  0.0686  0.1092
 3890SOL    HW112569   6.241   2.172   3.367 -0.5801 -0.4712  0.1797
 3890SOL    HW212570   6.397   2.129   3.343 -0.6799 -0.2208 -0.9994
 3891SOL     OW12571   4.709   5.247   6.043  0.0383 -0.7336  0.0092
 3891SOL    HW112572   4.651   5.167   6.056  0.4137 -0.6486  2.6161
 3891SOL    HW212573   4.704   5.306   6.123  0.5775  1.3760 -1.4242
 3892SOL     OW12574   4.451   4.622   4.271  0.1317 -0.3812  0.4553
 3892SOL    HW112575   4.499   4.555   4.328  0.1868  0.6056  1.6202
 3892SOL    HW212576   4.497   4.710   4.278 -0.9945  0.2245  0.4149
 3893SOL     OW12577   3.269   6.457   5.855 -0.4448 -0.4777  0.4743
 3893SOL    HW112578   3.209   6.517   5.907 -0.3728 -0.3902  0.4558
 3893SOL    HW212579   3.252   6.362   5.882 -0.1905 -0.4105  0.8852
 3894SOL     OW12580   6.858   5.672   3.479 -0.0478 -0.2583  0.4541
 3894SOL    HW112581   6.881   5.613   3.401  0.1855 -0.8047  0.9313
 3894SOL    HW212582   6.842   5.616   3.560 -2.4573  0.1253  0.3277
 3895SOL     OW12583   1.270   2.564   5.334 -0.2070 -0.2837 -0.1864
 3895SOL    HW112584   1.332   2.526   5.402 -0.6800 -0.3053  0.2313
 3895SOL    HW212585   1.272   2.507   5.252 -0.7798 -1.1212  0.3667
 3896SOL     OW12586   5.751   5.561   1.046 -0.0538  0.5280  0.2397
 3896SOL    HW112587   5.822   5.601   1.103  1.1935  1.6389 -1.9615
 3896SOL    HW212588   5.760   5.461   1.047  1.2904  0.6300  0.3565
 3897SOL     OW12589   0.416   6.432   2.223 -0.3991 -0.1085  0.1070
 3897SOL    HW112590   0.322   6.438   2.255 -0.4554 -1.0551  0.1499
 3897SOL    HW212591   0.457   6.347   2.255  0.4796  0.2990  0.0990
 3898SOL     OW12592   2.904   3.223   2.574  0.6584 -0.4462 -0.3645
 3898SOL    HW112593   2.829   3.164   2.545  1.3846 -1.6903  0.2029
 3898SOL    HW212594   2.962   3.174   2.640  1.6018  0.7091 -0.2956
 3899SOL     OW12595   3.909   1.197   2.540 -0.5783 -0.0971 -0.0477
 3899SOL    HW112596   3.981   1.266   2.553 -1.6132  0.6842  1.9980
 3899SOL    HW212597   3.831   1.238   2.494 -1.1118  0.0719  0.9789
 3900SOL     OW12598   6.131   1.864   3.436 -0.1387 -0.3079 -0.2320
 3900SOL    HW112599   6.202   1.918   3.391  0.2403 -1.3351 -0.9326
 3900SOL    HW212600   6.131   1.771   3.397 -1.6452 -0.4306 -0.0115
 3901SOL     OW12601   5.442   6.686   4.742  0.1657  0.1560  0.0436
 3901SOL    HW112602   5.458   6.608   4.803 -1.9464 -0.4109 -0.0475
 3901SOL    HW212603   5.427   6.653   4.649 -3.2472  0.3292  0.4121
 3902SOL     OW12604   3.185   6.233   3.080 -0.0426 -0.1495 -0.3662
 3902SOL    HW112605   3.146   6.311   3.032  1.2792  1.9502  1.7135
 3902SOL    HW212606   3.134   6.217   3.165 -0.2857 -1.5713 -0.7616
 3903SOL     OW12607   3.249   4.937   5.813  0.1620 -0.2277 -0.2930
 3903SOL    HW112608   3.292   4.853   5.779 -0.8508 -0.4896 -0.9685
 3903SOL    HW212609   3.320   5.003   5.837  0.9611  0.0303 -3.0457
 3904SOL     OW12610   0.605   5.738   2.927  0.2906 -0.7006  0.1133
 3904SOL    HW112611   0.626   5.645   2.896 -2.6745 -1.4061 -0.1424
 3904SOL    HW212612   0.506   5.747   2.939  0.6218  2.0047  1.6258
 3905SOL     OW12613   5.383   0.334   4.645 -0.2000 -0.3539 -0.1743
 3905SOL    HW112614   5.430   0.315   4.559 -0.7681 -0.8715 -0.3763
 3905SOL    HW212615   5.336   0.421   4.639 -1.3847 -1.0269 -0.8904
 3906SOL     OW12616   0.948   4.727   2.740  0.2426 -0.1038  0.0249
 3906SOL    HW112617   1.035   4.765   2.709 -0.0778  1.3574  0.8115
 3906SOL    HW212618   0.961   4.633   2.770  1.4966  0.0282 -0.0652
 3907SOL     OW12619   0.912   6.213   4.292 -0.0027 -0.2167 -0.1037
 3907SOL    HW112620   0.865   6.126   4.302  0.6175 -0.7923 -1.8121
 3907SOL    HW212621   0.925   6.255   4.382  0.2737 -2.1991  0.8224
 3908SOL     OW12622   1.461   1.980   4.521  0.1272 -0.1089  0.1911
 3908SOL    HW112623   1.516   1.974   4.437  0.7882  1.1055  0.5319
 3908SOL    HW212624   1.364   1.987   4.496  0.2199 -0.8473 -0.4343
 3909SOL     OW12625   0.058   2.392   0.956 -0.3271 -0.3940  0.0711
 3909SOL    HW112626  -0.031   2.421   0.921 -0.5374  0.1381  1.0219
 3909SOL    HW212627   0.125   2.464   0.937 -0.3205 -0.3544  0.2422
 3910SOL     OW12628   2.231   0.196   6.724  0.6385 -0.1009  0.6372
 3910SOL    HW112629   2.178   0.125   6.677  0.1884  0.1122  0.8221
 3910SOL    HW212630   2.170   0.266   6.759  1.0545  0.2073  0.7550
 3911SOL     OW12631   0.143   0.653   3.155 -0.7991  0.4803  0.1793
 3911SOL    HW112632   0.121   0.614   3.066 -1.0403 -0.3533  0.5935
 3911SOL    HW212633   0.240   0.638   3.175 -1.4227 -2.4040  1.5021
 3912SOL     OW12634   5.177   5.596   1.607  0.2114 -0.1295 -0.6393
 3912SOL    HW112635   5.162   5.498   1.609  0.1998 -0.2207 -2.6834
 3912SOL    HW212636   5.185   5.626   1.512  1.4995  1.6516 -0.0202
 3913SOL     OW12637   5.106   3.557   0.027 -0.5838  0.2446 -0.2552
 3913SOL    HW112638   5.178   3.507   0.075  0.1271 -0.9339 -2.3871
 3913SOL    HW212639   5.021   3.504   0.030 -1.0318  0.9992  1.1177
 3914SOL     OW12640   0.978   1.060   6.230  0.5519 -0.2940  0.2542
 3914SOL    HW112641   0.901   1.075   6.292 -1.8705  0.7765 -2.7626
 3914SOL    HW212642   1.058   1.109   6.265 -0.3177 -0.6692  3.0290
 3915SOL     OW12643   2.448   6.309   4.376 -0.0896  0.1436 -0.2282
 3915SOL    HW112644   2.350   6.321   4.392 -0.0525  0.5671 -0.2979
 3915SOL    HW212645   2.474   6.214   4.394 -0.4411  0.1193  0.1650
 3916SOL     OW12646   1.061   0.448   4.296  0.5884 -0.2622  0.1510
 3916SOL    HW112647   1.072   0.364   4.348 -1.1051  0.6973  2.2338
 3916SOL    HW212648   0.976   0.493   4.322  0.9267  1.6054 -1.6339
 3917SOL     OW12649   2.652   5.724   3.964  0.3949  0.5874  0.2394
 3917SOL    HW112650   2.636   5.804   3.906 -2.0106 -0.8930 -1.3487
 3917SOL    HW212651   2.750   5.706   3.970  1.2797  4.7481  2.3808
 3918SOL     OW12652   5.474   5.642   6.783  0.2226 -0.3346 -0.3572
 3918SOL    HW112653   5.451   5.737   6.808  0.4988 -0.5763  0.8801
 3918SOL    HW212654   5.390   5.593   6.762 -0.1750 -0.3971  1.2087
 3919SOL     OW12655   4.634   4.316   1.704 -0.0863 -0.2054  0.6623
 3919SOL    HW112656   4.720   4.363   1.720  0.4347 -0.4022 -1.3412
 3919SOL    HW212657   4.598   4.282   1.791  3.0403 -2.1568  1.3412
 3920SOL     OW12658   4.152   7.014   5.700  0.0662  0.0364  0.2161
 3920SOL    HW112659   4.174   6.988   5.606 -2.2260 -1.8111  0.1007
 3920SOL    HW212660   4.193   6.947   5.763  1.3763  1.1210  0.5529
 3921SOL     OW12661   2.071   3.923   5.682  0.1324 -0.7371  0.4829
 3921SOL    HW112662   2.113   3.874   5.606 -0.3691  0.9914 -0.9815
 3921SOL    HW212663   2.101   4.018   5.681 -0.3924 -0.5217  2.0769
 3922SOL     OW12664   4.333   0.330   5.698 -0.9223  0.1824  0.0673
 3922SOL    HW112665   4.364   0.340   5.603  0.7326 -1.3466  0.3944
 3922SOL    HW212666   4.346   0.417   5.746  0.0108  0.4410 -0.6193
 3923SOL     OW12667   5.020   6.855   0.958 -0.0471 -0.0680  0.1666
 3923SOL    HW112668   4.959   6.934   0.963 -1.5148 -1.1859  0.6079
 3923SOL    HW212669   4.969   6.776   0.925  1.4434 -0.8019 -0.4717
 3924SOL     OW12670   4.129   5.654   5.601 -0.3495 -0.3374  0.4711
 3924SOL    HW112671   4.138   5.585   5.673 -0.4174  0.3896  1.1844
 3924SOL    HW212672   4.088   5.737   5.638  1.3809  0.7600  0.0889
 3925SOL     OW12673   4.085   5.442   2.208  0.1690  0.7718 -0.0383
 3925SOL    HW112674   4.052   5.385   2.133  0.9225 -0.8868  0.8492
 3925SOL    HW212675   4.019   5.441   2.283  0.7315  0.0707  0.4579
 3926SOL     OW12676   1.717   4.969   5.884 -0.3430  0.1800  0.0370
 3926SOL    HW112677   1.811   4.996   5.904 -1.2954  1.8280  2.9571
 3926SOL    HW212678   1.714   4.919   5.797  3.2038 -0.1597 -0.0320
 3927SOL     OW12679   6.190   5.045   5.704 -0.5474 -0.1522 -0.2673
 3927SOL    HW112680   6.188   5.023   5.607  0.2176 -0.3716 -0.2370
 3927SOL    HW212681   6.119   5.112   5.724  2.0764  3.4246 -1.8622
 3928SOL     OW12682   3.779   5.467   1.827 -0.3097 -0.3810 -0.0788
 3928SOL    HW112683   3.874   5.438   1.818  0.1438  1.0723 -0.2210
 3928SOL    HW212684   3.764   5.508   1.917 -1.2211 -2.0020  0.5484
 3929SOL     OW12685   1.554   6.235   0.186 -0.2266 -0.1040 -0.4915
 3929SOL    HW112686   1.608   6.162   0.227  0.9929  0.7137 -0.5933
 3929SOL    HW212687   1.469   6.248   0.238 -0.1563 -1.1394 -0.0980
 3930SOL     OW12688   0.929   5.158   4.954  0.0391  0.2176 -0.3198
 3930SOL    HW112689   0.894   5.187   4.865 -2.1289 -2.3619 -0.4223
 3930SOL    HW212690   0.868   5.090   4.994  1.4143  0.6473  2.7936
 3931SOL     OW12691   6.512   1.935   5.662 -0.1275  0.4432  0.2478
 3931SOL    HW112692   6.571   2.015   5.671 -0.6131  0.9886 -1.1841
 3931SOL    HW212693   6.557   1.867   5.605  0.2896 -0.3419  1.4733
 3932SOL     OW12694   1.518   3.886   2.458  0.2745 -0.3292  0.5271
 3932SOL    HW112695   1.440   3.937   2.495  0.6878 -0.4103  1.5337
 3932SOL    HW212696   1.486   3.796   2.428 -0.8003  0.9926 -2.7914
 3933SOL     OW12697   1.395   0.814   1.078 -0.4403  0.1042 -0.0287
 3933SOL    HW112698   1.479   0.761   1.084  0.9193  2.2850  3.1320
 3933SOL    HW212699   1.352   0.818   1.169 -1.9663  2.0505 -0.7581
 3934SOL     OW12700   1.702   0.554   1.613  0.1230 -0.2273 -0.2045
 3934SOL    HW112701   1.754   0.601   1.683  0.1617  0.9837 -1.0140
 3934SOL    HW212702   1.721   0.595   1.523 -0.8288 -0.9434 -0.7613
 3935SOL     OW12703   0.953   2.158   3.832  0.3667 -0.2926  0.0443
 3935SOL    HW112704   0.927   2.067   3.797  0.3300 -0.1676 -0.2542
 3935SOL    HW212705   0.873   2.201   3.875 -0.6685  1.1058 -2.9923
 3936SOL     OW12706   0.535   2.074   3.546  0.0294 -0.0330  0.6994
 3936SOL    HW112707   0.515   1.997   3.606 -1.7269  0.2092  0.4729
 3936SOL    HW212708   0.631   2.100   3.557  0.7345 -2.3362  0.6463
 3937SOL     OW12709   2.814   6.285   6.279  0.4496  0.4758 -0.0789
 3937SOL    HW112710   2.786   6.353   6.211 -1.7850 -0.2969 -0.0028
 3937SOL    HW212711   2.736   6.260   6.336  0.7706 -3.1034 -0.9596
 3938SOL     OW12712   6.907   5.216   0.619 -0.3132  0.3197  0.2456
 3938SOL    HW112713   6.864   5.271   0.691  0.0063  0.0572  0.6447
 3938SOL    HW212714   6.958   5.276   0.557 -0.8689  0.5846  0.0361
 3939SOL     OW12715   2.073   4.397   3.396  0.4795  0.0140  0.1575
 3939SOL    HW112716   2.076   4.330   3.322 -0.5248  2.9325 -2.7984
 3939SOL    HW212717   1.993   4.381   3.453 -0.5089 -0.5327 -1.3264
 3940SOL     OW12718   4.923   5.035   6.797 -0.3488  0.2603 -0.8044
 3940SOL    HW112719   4.977   4.972   6.740 -0.8134  0.0520 -1.0191
 3940SOL    HW212720   4.858   4.982   6.852  0.2658  0.4374  0.1187
 3941SOL     OW12721   0.418   2.787   3.611  0.5965 -0.7444 -0.1255
 3941SOL    HW112722   0.466   2.781   3.523 -0.0926 -0.8887 -0.5017
 3941SOL    HW212723   0.449   2.868   3.661  0.0977  0.0383 -1.0556
 3942SOL     OW12724   1.510   0.134   0.086  0.0044 -0.4472  0.0363
 3942SOL    HW112725   1.497   0.165  -0.008 -0.2667 -0.9136 -0.0839
 3942SOL    HW212726   1.581   0.190   0.130  1.2322 -1.1851 -0.9242
 3943SOL     OW12727   0.552   3.504   0.404 -0.1745  0.0493  0.3663
 3943SOL    HW112728   0.490   3.426   0.397 -0.3076  0.3045 -1.8386
 3943SOL    HW212729   0.623   3.483   0.472 -0.1568 -2.0451 -0.2091
 3944SOL     OW12730   0.363   2.620   0.598  0.5336  0.5744  0.3678
 3944SOL    HW112731   0.295   2.548   0.589  0.9658  0.0765  1.0147
 3944SOL    HW212732   0.337   2.682   0.673 -0.2600  1.5847 -0.7009
 3945SOL     OW12733   0.525   6.224   2.365 -0.4757  0.3552  0.0029
 3945SOL    HW112734   0.461   6.149   2.352  0.4597 -0.5812  0.7108
 3945SOL    HW212735   0.576   6.210   2.449  1.6334  0.3619 -1.2197
 3946SOL     OW12736   4.963   0.973   0.140  0.3478  0.1476 -0.3348
 3946SOL    HW112737   4.936   0.992   0.234  0.6721  0.0364 -0.2202
 3946SOL    HW212738   4.964   1.059   0.088 -0.6527  0.1015 -0.4576
 3947SOL     OW12739   5.185   1.197   1.616  0.1496  0.3849  0.3111
 3947SOL    HW112740   5.102   1.234   1.575  0.4049  1.1690  0.4840
 3947SOL    HW212741   5.185   1.218   1.714  1.5462  2.2906 -0.0510
 3948SOL     OW12742   0.496   0.536   3.870  0.0612 -0.4017 -0.3103
 3948SOL    HW112743   0.505   0.593   3.952  0.5803  0.8369 -1.2015
 3948SOL    HW212744   0.439   0.456   3.891  1.9020 -1.2481  1.8291
 3949SOL     OW12745   6.157   6.286   3.817  0.4513 -0.4268  0.1748
 3949SOL    HW112746   6.179   6.288   3.719 -2.1523  0.8790 -0.4736
 3949SOL    HW212747   6.198   6.205   3.859  3.6973  0.2504 -1.4072
 3950SOL     OW12748   2.443   5.060   6.762 -0.9348  0.0185 -0.3846
 3950SOL    HW112749   2.392   5.109   6.690  0.0270 -1.2532 -2.0047
 3950SOL    HW212750   2.413   4.965   6.765  0.2118 -0.3469 -0.2560
 3951SOL     OW12751   6.923   5.140   2.266 -0.3670  0.2251 -0.6370
 3951SOL    HW112752   7.010   5.130   2.218 -0.1276 -1.1525  0.0425
 3951SOL    HW212753   6.907   5.237   2.285  1.0812  0.4940 -0.6597
 3952SOL     OW12754   6.606   5.700   6.651 -0.7976  0.3275 -0.4442
 3952SOL    HW112755   6.702   5.702   6.624 -0.9385 -0.2379 -0.9916
 3952SOL    HW212756   6.581   5.607   6.677 -0.8742  0.6956  0.9198
 3953SOL     OW12757   4.044   3.674   5.165  0.0272 -0.0989  0.1403
 3953SOL    HW112758   3.957   3.655   5.210 -0.1376  0.0117 -0.1269
 3953SOL    HW212759   4.053   3.772   5.148  0.7363  0.0390  1.2306
 3954SOL     OW12760   0.295   6.097   1.271 -0.5042  0.0872 -0.3358
 3954SOL    HW112761   0.204   6.075   1.236 -1.0124  0.1528  0.9111
 3954SOL    HW212762   0.350   6.014   1.276 -1.2417 -0.3495  0.9989
 3955SOL     OW12763   5.901   4.090   6.661  0.1530 -0.7870 -0.3258
 3955SOL    HW112764   5.994   4.056   6.673  0.5274 -0.3683 -1.7740
 3955SOL    HW212765   5.854   4.033   6.593  1.1437  2.0382 -3.6525
 3956SOL     OW12766   5.709   3.320   3.761 -0.2812  0.0030 -0.1253
 3956SOL    HW112767   5.630   3.324   3.699 -1.6682  0.7190  1.6098
 3956SOL    HW212768   5.792   3.306   3.707 -1.5780 -0.9635 -2.0102
 3957SOL     OW12769   2.071   2.567   2.601 -0.0208  0.1786  0.0145
 3957SOL    HW112770   2.042   2.517   2.519 -0.8112 -0.5224  0.7044
 3957SOL    HW212771   2.153   2.621   2.580  0.4343 -0.8450 -0.9362
 3958SOL     OW12772   4.022   4.282   0.387  0.2228  0.0952  0.0767
 3958SOL    HW112773   4.089   4.218   0.424  0.0801  0.5394  1.1487
 3958SOL    HW212774   3.944   4.288   0.449 -0.3948  0.2713 -0.7028
 3959SOL     OW12775   0.635   5.345   6.449 -0.6750 -0.5283  0.0879
 3959SOL    HW112776   0.662   5.260   6.403 -2.1988  0.7780 -3.6401
 3959SOL    HW212777   0.543   5.334   6.487 -1.0949 -0.4404 -0.8697
 3960SOL     OW12778   4.792   5.670   2.714 -0.6574 -0.1494 -0.1526
 3960SOL    HW112779   4.850   5.729   2.659 -1.3206 -0.7814 -1.5828
 3960SOL    HW212780   4.696   5.681   2.687 -0.6862 -2.8636 -1.5172
 3961SOL     OW12781   6.807   2.107   1.516 -0.0617 -0.0849  0.4786
 3961SOL    HW112782   6.761   2.021   1.537  0.6750 -0.5042  0.4063
 3961SOL    HW212783   6.769   2.147   1.433 -0.4896 -0.2742  0.5832
 3962SOL     OW12784   2.154   5.767   6.228  0.2387 -0.2319  0.4198
 3962SOL    HW112785   2.141   5.710   6.147 -0.1129 -0.2022  0.4557
 3962SOL    HW212786   2.070   5.816   6.249  0.4575  0.0915  0.5536
 3963SOL     OW12787   5.435   2.449   4.295 -0.1288 -0.1498 -0.4479
 3963SOL    HW112788   5.421   2.529   4.236 -0.8201  0.8470  1.0078
 3963SOL    HW212789   5.356   2.438   4.356 -0.7163 -2.7989 -1.5135
 3964SOL     OW12790   0.632   5.677   6.614  0.3517 -0.1331 -0.1606
 3964SOL    HW112791   0.633   5.610   6.539 -1.5742 -0.8086  0.3614
 3964SOL    HW212792   0.686   5.758   6.587  0.9729 -0.9972 -1.6377
 3965SOL     OW12793   2.376   4.537   0.675 -0.3058 -0.0316 -0.2029
 3965SOL    HW112794   2.372   4.543   0.774  0.1154  0.0223 -0.1872
 3965SOL    HW212795   2.283   4.537   0.637 -0.4643 -0.0393  0.1878
 3966SOL     OW12796   0.391   2.871   3.997  0.5500 -0.2472 -0.0011
 3966SOL    HW112797   0.389   2.884   3.898  4.1392 -0.2570 -0.2265
 3966SOL    HW212798   0.409   2.774   4.017 -1.0322 -0.4139  0.7372
 3967SOL     OW12799   2.711   0.318   0.351  0.5616 -0.2301  0.7169
 3967SOL    HW112800   2.755   0.280   0.270  0.3430 -1.8668  1.3383
 3967SOL    HW212801   2.749   0.275   0.433  0.0901  0.6961  1.4427
 3968SOL     OW12802   5.347   2.170   6.023  0.0616  0.1725  0.4894
 3968SOL    HW112803   5.410   2.207   5.954  0.2846 -1.6920 -0.3656
 3968SOL    HW212804   5.264   2.226   6.025 -0.8273 -0.7807 -2.8080
 3969SOL     OW12805   0.029   6.437   1.980 -0.4151 -0.9907 -0.1894
 3969SOL    HW112806   0.104   6.419   1.916 -0.3325 -0.0737 -0.3522
 3969SOL    HW212807   0.016   6.535   1.990  0.1847 -1.0625  1.9172
 3970SOL     OW12808   6.418   5.104   1.490  0.5688 -0.6109  0.3174
 3970SOL    HW112809   6.428   5.071   1.584 -0.0575 -1.6399  0.0477
 3970SOL    HW212810   6.403   5.026   1.429  1.1002  0.0317 -0.6648
 3971SOL     OW12811   5.518   5.227   3.654 -0.5061 -0.2893  0.4461
 3971SOL    HW112812   5.525   5.305   3.593 -1.1889 -0.4717  0.1287
 3971SOL    HW212813   5.482   5.257   3.743  0.3605 -0.0489  0.7333
 3972SOL     OW12814   0.224   0.475   0.276  0.0891 -0.2977  0.2099
 3972SOL    HW112815   0.209   0.377   0.286  1.6784 -0.6157 -0.2655
 3972SOL    HW212816   0.234   0.497   0.179 -4.3911  1.0534 -0.1931
 3973SOL     OW12817   3.820   3.022   6.522 -0.2600 -0.2731 -0.5377
 3973SOL    HW112818   3.775   2.968   6.592  0.1572 -0.9344 -0.7736
 3973SOL    HW212819   3.757   3.091   6.487 -0.0854  0.9594  1.4077
 3974SOL     OW12820   5.794   0.456   6.324 -0.1656  0.0889  0.9138
 3974SOL    HW112821   5.720   0.398   6.289  0.1206 -1.9188  3.3017
 3974SOL    HW212822   5.762   0.550   6.333 -1.6999 -0.2982 -0.1657
 3975SOL     OW12823   1.120   5.524   3.942  0.1003  0.5035  0.2780
 3975SOL    HW112824   1.168   5.449   3.896 -0.3956  1.5326 -2.0700
 3975SOL    HW212825   1.034   5.491   3.980  0.0374 -0.1849 -0.4386
 3976SOL     OW12826   1.228   1.050   4.701 -0.1632  0.3569  0.2958
 3976SOL    HW112827   1.221   1.056   4.601 -1.2391  1.5901  0.4221
 3976SOL    HW212828   1.137   1.039   4.740 -0.0054  2.0625  1.2493
 3977SOL     OW12829   2.393   5.755   4.914 -0.3807 -0.0610 -0.1331
 3977SOL    HW112830   2.463   5.827   4.918 -0.9563  0.4826  0.4157
 3977SOL    HW212831   2.314   5.789   4.864 -1.2613  0.2491  1.3906
 3978SOL     OW12832   3.491   2.781   5.242 -0.1234  0.5472 -0.2394
 3978SOL    HW112833   3.404   2.821   5.269 -1.2396 -2.0015  0.2820
 3978SOL    HW212834   3.493   2.685   5.269  2.5710  0.3234 -0.9264
 3979SOL     OW12835   6.247   4.424   2.938  0.2831  0.8664 -0.0277
 3979SOL    HW112836   6.159   4.438   2.984  0.2245 -0.5998  0.3644
 3979SOL    HW212837   6.231   4.412   2.840  0.0103  0.3503  0.0756
 3980SOL     OW12838   5.067   1.730   3.817  0.1484  0.2142 -0.3522
 3980SOL    HW112839   5.151   1.783   3.807  0.9981 -0.9940  0.1083
 3980SOL    HW212840   5.003   1.755   3.745  1.9618 -0.7851 -2.4081
 3981SOL     OW12841   6.673   0.815   0.867 -0.0404  0.1447  0.0043
 3981SOL    HW112842   6.771   0.825   0.851  0.3926 -0.9061  1.6298
 3981SOL    HW212843   6.629   0.905   0.870  1.2087  0.7563  0.9932
 3982SOL     OW12844   1.233   1.502   2.382  0.1400  0.4228 -0.3727
 3982SOL    HW112845   1.195   1.410   2.370  0.9139  0.3661 -3.2274
 3982SOL    HW212846   1.159   1.567   2.399 -0.8226 -0.3043 -1.5725
 3983SOL     OW12847   3.351   3.460   6.091  0.0185  0.6438  0.7793
 3983SOL    HW112848   3.289   3.405   6.035  0.1437 -0.7231  1.9506
 3983SOL    HW212849   3.299   3.517   6.153 -0.0910  0.0882  1.2044
 3984SOL     OW12850   1.613   6.068   2.885 -0.5605  0.0661 -0.2186
 3984SOL    HW112851   1.615   6.031   2.792 -0.6109  1.4415 -0.7907
 3984SOL    HW212852   1.518   6.090   2.910 -0.5927 -0.6149  0.3063
 3985SOL     OW12853   0.990   2.168   6.975 -0.2352 -0.1851 -0.4380
 3985SOL    HW112854   1.016   2.183   6.880  1.7563  0.0465  0.1091
 3985SOL    HW212855   1.023   2.079   7.006  1.3664  0.7623  0.7273
 3986SOL     OW12856   0.949   0.446   4.609 -0.2907  0.1432 -0.7010
 3986SOL    HW112857   0.950   0.346   4.612  1.2478  0.0827 -1.9498
 3986SOL    HW212858   1.041   0.481   4.628 -1.2782  1.4721  2.1172
 3987SOL     OW12859   1.428   3.757   4.578  0.5912 -0.0133 -0.8164
 3987SOL    HW112860   1.433   3.660   4.556 -0.5690 -0.2185 -0.2040
 3987SOL    HW212861   1.408   3.769   4.675 -0.4892  0.8176 -1.1205
 3988SOL     OW12862   6.682   6.825   2.832  0.3096  0.1507  0.2083
 3988SOL    HW112863   6.781   6.817   2.819 -0.0222 -1.5403 -1.6964
 3988SOL    HW212864   6.638   6.843   2.744 -1.1177  0.6208  0.9887
 3989SOL     OW12865   3.183   1.719   0.568 -0.3633  0.2446 -0.0005
 3989SOL    HW112866   3.161   1.792   0.633  1.7872  1.2866 -0.3273
 3989SOL    HW212867   3.267   1.743   0.519  0.6014 -2.6070  0.0745
 3990SOL     OW12868   5.166   6.491   5.035 -0.1790 -0.6388 -0.3735
 3990SOL    HW112869   5.190   6.579   4.996  0.7220 -1.2693 -1.3005
 3990SOL    HW212870   5.177   6.419   4.965 -0.9335 -1.4788  0.3412
 3991SOL     OW12871   0.053   0.336   4.919  0.1237 -0.0445 -0.7790
 3991SOL    HW112872   0.009   0.319   4.830 -0.8428 -0.0265 -0.3186
 3991SOL    HW212873   0.134   0.394   4.906  0.3831 -0.5958 -1.7231
 3992SOL     OW12874   6.691   5.171   5.081  0.4218  0.4442  0.0923
 3992SOL    HW112875   6.705   5.074   5.061 -0.2791  0.3687 -0.0596
 3992SOL    HW212876   6.729   5.226   5.006  0.0524  0.2509 -0.2410
 3993SOL     OW12877   0.171   6.613   5.559 -0.7419  0.2556 -0.3684
 3993SOL    HW112878   0.113   6.690   5.586 -1.9832 -1.0780  0.8639
 3993SOL    HW212879   0.267   6.642   5.562 -1.1408  1.5839  0.6640
 3994SOL     OW12880   2.038   2.316   3.996  0.1851  0.5030  0.0160
 3994SOL    HW112881   2.106   2.306   4.069 -0.7214 -0.7854  0.7173
 3994SOL    HW212882   1.989   2.229   3.983 -0.1767  0.9149 -1.6363
 3995SOL     OW12883   2.419   5.160   2.499  0.1620 -0.3081  0.3456
 3995SOL    HW112884   2.320   5.162   2.482  0.0847 -1.1034  0.6436
 3995SOL    HW212885   2.467   5.192   2.418 -0.3421  0.1383  0.2158
 3996SOL     OW12886   6.192   3.991   4.004  0.2844  0.7071  0.0242
 3996SOL    HW112887   6.182   3.919   3.935 -2.4951  1.3470 -0.3416
 3996SOL    HW212888   6.174   3.953   4.094  1.5409  0.4079  0.1779
 3997SOL     OW12889   5.408   3.173   6.353 -0.2781  0.2209 -0.0647
 3997SOL    HW112890   5.382   3.219   6.438 -0.5879 -1.1203  0.5877
 3997SOL    HW212891   5.450   3.085   6.374  0.7738  0.4004 -1.2735
 3998SOL     OW12892   4.699   2.185   2.162  0.0077  0.5784  0.3972
 3998SOL    HW112893   4.619   2.133   2.132  0.1775  1.2762 -1.3980
 3998SOL    HW212894   4.672   2.280   2.179  0.0972  0.3895  1.7068
 3999SOL     OW12895   5.391   3.986   1.388 -0.1694 -0.6247 -0.3317
 3999SOL    HW112896   5.440   3.975   1.302  4.2710 -3.5503  2.2135
 3999SOL    HW212897   5.346   3.900   1.413  0.1360 -0.4153  1.0536
 4000SOL     OW12898   5.687   1.181   4.055 -0.7563  0.1927 -0.3714
 4000SOL    HW112899   5.635   1.201   4.138 -0.1511  0.8406 -0.1325
 4000SOL    HW212900   5.642   1.224   3.977 -0.3017  1.2409 -0.0823
 4001SOL     OW12901   1.176   5.169   4.638 -0.2599  0.5682  0.1371
 4001SOL    HW112902   1.201   5.214   4.724  1.4033  0.8303 -0.4474
 4001SOL    HW212903   1.114   5.093   4.657  0.8026  0.0415  1.6887
 4002SOL     OW12904   3.425   3.177   2.530  0.1699  0.2298 -0.2739
 4002SOL    HW112905   3.339   3.127   2.541  0.2266  0.3051  0.6604
 4002SOL    HW212906   3.457   3.169   2.436 -0.2320 -0.8289 -0.3353
 4003SOL     OW12907   2.668   1.505   5.203 -0.2507  0.2301 -0.1384
 4003SOL    HW112908   2.612   1.535   5.126 -0.1117  0.1139 -0.2862
 4003SOL    HW212909   2.629   1.422   5.243  1.2168 -1.3891 -1.8830
 4004SOL     OW12910   2.179   3.203   4.929 -0.0656 -0.6957 -0.3292
 4004SOL    HW112911   2.091   3.209   4.976  1.1361  1.2445  1.9064
 4004SOL    HW212912   2.231   3.125   4.964 -0.1295 -0.6810 -0.2009
 4005SOL     OW12913   0.505   2.114   1.058  0.3065 -0.6230 -0.1069
 4005SOL    HW112914   0.588   2.092   1.109 -0.4759 -0.0392  1.4978
 4005SOL    HW212915   0.516   2.202   1.012 -0.4913  1.1598  2.8360
 4006SOL     OW12916   0.015   6.819   1.804  0.1943  0.4370  0.2221
 4006SOL    HW112917   0.097   6.875   1.791  0.3145 -0.1161 -1.7069
 4006SOL    HW212918  -0.010   6.777   1.717 -1.9444  0.3120  0.8537
 4007SOL     OW12919   1.057   1.630   1.113  0.0274 -0.3701 -0.2567
 4007SOL    HW112920   0.996   1.636   1.191  0.4358 -0.7467  0.1014
 4007SOL    HW212921   1.011   1.663   1.031 -0.4835 -0.1950  0.1007
 4008SOL     OW12922   3.448   0.363   1.922 -0.4099 -0.0313  0.3982
 4008SOL    HW112923   3.364   0.397   1.966  0.6045  0.1692  2.3128
 4008SOL    HW212924   3.497   0.440   1.882 -1.5356 -0.2632 -1.5937
 4009SOL     OW12925   3.093   3.556   2.412 -0.1671 -0.1418 -0.0581
 4009SOL    HW112926   3.100   3.586   2.317  0.5127  0.5975  0.2174
 4009SOL    HW212927   3.000   3.524   2.430 -0.7351  1.1923 -0.5357
 4010SOL     OW12928   3.151   5.416   1.412 -0.1456  0.9263  0.0682
 4010SOL    HW112929   3.078   5.348   1.422  0.5798  0.1241 -0.0302
 4010SOL    HW212930   3.126   5.499   1.463  0.2528 -0.4646  2.7081
 4011SOL     OW12931   6.901   0.594   6.429 -0.4316  0.6576 -0.1371
 4011SOL    HW112932   6.957   0.532   6.484  0.8584  1.1975 -0.8059
 4011SOL    HW212933   6.812   0.552   6.412  1.1776 -2.1653 -2.5572
 4012SOL     OW12934   6.918   5.638   2.450  0.2495 -0.2086  0.1077
 4012SOL    HW112935   6.919   5.691   2.365 -2.4797  1.2421  0.8535
 4012SOL    HW212936   6.877   5.693   2.523  0.9219 -2.0268  1.9549
 4013SOL     OW12937   0.378   1.334   6.336 -0.2045  0.0635  0.5145
 4013SOL    HW112938   0.303   1.355   6.399 -0.3733 -1.9998  1.0621
 4013SOL    HW212939   0.342   1.329   6.243 -0.5943 -0.0982  0.6707
 4014SOL     OW12940   4.090   0.533   3.418  0.1289  0.5171  0.2358
 4014SOL    HW112941   4.120   0.575   3.504 -0.7437  0.5152  0.5567
 4014SOL    HW212942   3.996   0.560   3.400  0.1971  0.2363 -0.5481
 4015SOL     OW12943   4.064   0.040   4.818 -0.1983  0.4303  0.7484
 4015SOL    HW112944   3.995  -0.019   4.776 -0.2123 -0.5630  2.1046
 4015SOL    HW212945   4.048   0.044   4.917  1.9403 -0.1798  1.1696
 4016SOL     OW12946   6.004   5.045   3.679  0.3879  0.2281  0.2529
 4016SOL    HW112947   6.101   5.064   3.698 -0.1649  1.8504  1.6974
 4016SOL    HW212948   5.963   5.003   3.761 -0.4622  0.9001  0.1745
 4017SOL     OW12949   1.572   4.631   0.676 -0.2550  0.4544  0.1616
 4017SOL    HW112950   1.631   4.557   0.644 -0.8388  0.0386  0.0125
 4017SOL    HW212951   1.542   4.686   0.598 -1.1725 -0.1786  0.0509
 4018SOL     OW12952   6.297   4.890   6.937 -0.0736 -0.2921  0.3119
 4018SOL    HW112953   6.260   4.912   6.847  2.9861  0.8226 -0.7942
 4018SOL    HW212954   6.249   4.811   6.974 -1.9358 -0.3185 -1.9283
 4019SOL     OW12955   6.767   3.063   2.493  0.4272 -0.0914 -0.1851
 4019SOL    HW112956   6.851   3.057   2.440 -0.8158 -1.5591 -2.1524
 4019SOL    HW212957   6.699   3.000   2.454 -1.5679  1.0143  1.3443
 4020SOL     OW12958   0.746   6.381   5.428  0.2279 -0.4471 -0.0484
 4020SOL    HW112959   0.769   6.418   5.338  1.5882 -0.2593  0.3509
 4020SOL    HW212960   0.811   6.414   5.495  0.1838 -1.8398  0.7294
 4021SOL     OW12961   3.447   6.834   5.805  0.1802  0.4240 -0.2360
 4021SOL    HW112962   3.408   6.812   5.895 -1.5283  0.1999 -1.0079
 4021SOL    HW212963   3.496   6.754   5.770 -0.5892 -0.0570 -0.2331
 4022SOL     OW12964   2.975   0.284   1.585  0.5441 -0.2462 -0.4201
 4022SOL    HW112965   2.922   0.300   1.501  1.2283 -0.4034 -0.8982
 4022SOL    HW212966   2.921   0.311   1.664 -0.2067 -0.3089 -0.8983
 4023SOL     OW12967   1.427   3.670   3.609 -0.2895  0.4530  0.1438
 4023SOL    HW112968   1.336   3.629   3.603  0.1448 -0.3645 -1.4251
 4023SOL    HW212969   1.423   3.764   3.575 -0.7083  0.7331  0.9415
 4024SOL     OW12970   0.267   5.941   6.697  0.2317 -0.4820 -0.0452
 4024SOL    HW112971   0.247   5.850   6.734  0.6990 -0.2143  0.9099
 4024SOL    HW212972   0.366   5.955   6.696  0.1364  0.2793  0.4827
 4025SOL     OW12973   2.920   6.896   3.387 -0.3963  0.6411 -0.2850
 4025SOL    HW112974   2.925   6.801   3.357  0.1332  0.5744  0.0008
 4025SOL    HW212975   2.990   6.912   3.457 -0.4407  1.2572 -0.3808
 4026SOL     OW12976   6.389   0.556   3.109 -0.1045 -0.0374  0.4024
 4026SOL    HW112977   6.360   0.641   3.066 -1.6726 -0.1192  1.2064
 4026SOL    HW212978   6.362   0.557   3.206  0.0798 -1.3292  0.4824
 4027SOL     OW12979   4.907   5.342   4.164  0.3379  1.0477  0.0862
 4027SOL    HW112980   4.960   5.343   4.249 -1.8592 -0.6933  1.5954
 4027SOL    HW212981   4.823   5.395   4.176  0.9040  2.5063 -1.7612
 4028SOL     OW12982   5.878   2.690   3.805  0.3298 -0.1799 -0.4875
 4028SOL    HW112983   5.909   2.603   3.768  0.6884 -0.1929 -0.1554
 4028SOL    HW212984   5.957   2.745   3.833  0.1265  0.3929 -1.0151
 4029SOL     OW12985   2.877   6.230   1.758 -0.3733  0.3154  0.4214
 4029SOL    HW112986   2.920   6.244   1.669  0.0959 -0.1649  0.5666
 4029SOL    HW212987   2.855   6.133   1.769  0.2681  0.2400  1.1290
 4030SOL     OW12988   6.856   2.116   2.152  0.3923  0.1611 -0.0861
 4030SOL    HW112989   6.810   2.128   2.064 -0.4521  1.4582  0.5073
 4030SOL    HW212990   6.849   2.020   2.180 -2.7053  0.3885  0.3144
 4031SOL     OW12991   5.630   0.745   1.315 -0.1894  0.3510  0.4885
 4031SOL    HW112992   5.586   0.829   1.284  1.0903 -0.0386 -2.8129
 4031SOL    HW212993   5.560   0.676   1.332 -1.1139  1.0957 -0.1571
 4032SOL     OW12994   5.143   3.424   1.218  0.2978 -0.2384 -0.1609
 4032SOL    HW112995   5.197   3.364   1.278  0.5682  0.8648  0.7324
 4032SOL    HW212996   5.080   3.368   1.164 -0.0238 -1.2760  1.2212
 4033SOL     OW12997   2.657   4.611   3.441  0.9555  0.0827 -0.2015
 4033SOL    HW112998   2.735   4.669   3.415  1.6009 -0.5618  0.2634
 4033SOL    HW212999   2.628   4.634   3.534  0.8935 -0.0082 -0.1990
 4034SOL     OW13000   3.086   0.922   4.106  0.1506 -0.1176  0.6235
 4034SOL    HW113001   3.128   0.851   4.051 -0.7193  0.0331 -0.2706
 4034SOL    HW213002   3.006   0.885   4.154  1.8880 -0.7340  3.2993
 4035SOL     OW13003   2.600   2.683   1.607  0.5337 -0.0782 -0.4206
 4035SOL    HW113004   2.518   2.741   1.610 -1.1483 -2.3740  0.9991
 4035SOL    HW213005   2.676   2.730   1.652 -0.6436  1.2075  0.3035
 4036SOL     OW13006   3.563   0.815   3.746 -0.3848 -0.0609  0.3840
 4036SOL    HW113007   3.552   0.850   3.654  2.7298  2.3431  0.7582
 4036SOL    HW213008   3.594   0.719   3.742 -0.4818 -0.0467 -1.0495
 4037SOL     OW13009   2.488   0.339   0.184 -0.1676  0.0782  0.2953
 4037SOL    HW113010   2.507   0.271   0.113 -1.1679 -0.5746  0.6200
 4037SOL    HW213011   2.557   0.332   0.256  0.4013  0.2051 -0.2304
 4038SOL     OW13012   3.206   5.592   5.368  0.0099  0.8847  0.4056
 4038SOL    HW113013   3.168   5.500   5.376 -1.7099  1.5305  0.1482
 4038SOL    HW213014   3.291   5.597   5.420  1.6950 -1.6084 -1.8590
 4039SOL     OW13015   6.650   5.622   1.388 -0.0558 -0.0478  0.1623
 4039SOL    HW113016   6.690   5.533   1.410 -0.8027 -0.4429 -0.0586
 4039SOL    HW213017   6.629   5.625   1.290 -1.0505 -0.0537  0.3642
 4040SOL     OW13018   2.596   6.252   6.455  0.2111 -0.1157  0.1655
 4040SOL    HW113019   2.597   6.274   6.552 -1.1582  1.0681 -0.0608
 4040SOL    HW213020   2.559   6.160   6.442 -2.3156  0.7544  0.6468
 4041SOL     OW13021   0.303   6.443   2.629  0.3871  0.2409  1.2002
 4041SOL    HW113022   0.217   6.488   2.653  0.1773  0.3811  0.2297
 4041SOL    HW213023   0.351   6.498   2.561 -0.1323 -1.2372 -0.4453
 4042SOL     OW13024   1.270   0.945   3.366  0.3401  0.6501 -0.3438
 4042SOL    HW113025   1.192   1.003   3.391  1.6979  2.5950 -0.3980
 4042SOL    HW213026   1.283   0.947   3.267  0.0783 -0.2389 -0.4112
 4043SOL     OW13027   3.131   3.695   6.538 -0.2768  0.5633  0.4461
 4043SOL    HW113028   3.052   3.751   6.511  0.4422  0.6851 -1.5326
 4043SOL    HW213029   3.214   3.750   6.533  0.5450 -0.7804 -2.2319
 4044SOL     OW13030   5.310   4.650   4.204  0.0228  0.3902 -0.4332
 4044SOL    HW113031   5.301   4.740   4.248 -1.3875 -0.4524  1.1046
 4044SOL    HW213032   5.407   4.628   4.193  0.4115  2.5182 -1.7865
 4045SOL     OW13033   4.632   2.502   3.106 -0.1123  0.4749  0.0322
 4045SOL    HW113034   4.568   2.476   3.178 -1.3126  2.1112 -0.3954
 4045SOL    HW213035   4.671   2.420   3.065  0.7490 -0.5185  2.6146
 4046SOL     OW13036   4.487   1.280   3.166  0.6636  0.4201 -0.3220
 4046SOL    HW113037   4.496   1.380   3.162 -0.1039  0.5342  0.6164
 4046SOL    HW213038   4.514   1.247   3.256 -1.8004  0.1099  0.3720
 4047SOL     OW13039   2.985   2.273   6.408 -0.3771  0.1227 -0.1183
 4047SOL    HW113040   2.897   2.273   6.454 -0.8070  1.5232 -0.9123
 4047SOL    HW213041   2.982   2.209   6.331 -1.0576  0.9367 -0.7836
 4048SOL     OW13042   5.223   2.473   2.755 -0.1734  0.8361  0.5102
 4048SOL    HW113043   5.199   2.568   2.734  0.1613  0.9219  0.5191
 4048SOL    HW213044   5.263   2.431   2.673 -1.6881  0.2557  0.0387
 4049SOL     OW13045   3.812   3.923   4.331  0.5282  0.3607  0.0230
 4049SOL    HW113046   3.822   3.826   4.352  1.8872  0.4874  0.0628
 4049SOL    HW213047   3.841   3.978   4.410  4.8394  0.8286 -1.6054
 4050SOL     OW13048   6.666   4.073   2.352 -0.1039 -0.1014 -0.1028
 4050SOL    HW113049   6.631   4.166   2.348  0.6751  0.1649 -1.8024
 4050SOL    HW213050   6.595   4.009   2.323 -1.4703 -0.3792  3.4082
 4051SOL     OW13051   4.888   0.045   3.357  0.5488 -0.1021  0.1960
 4051SOL    HW113052   4.859   0.140   3.346 -0.7188 -0.5175 -0.3059
 4051SOL    HW213053   4.908   0.005   3.268 -1.5166 -1.0376  0.0762
 4052SOL     OW13054   3.844   0.280   6.915  0.1376 -0.1257  0.3176
 4052SOL    HW113055   3.819   0.219   6.990  1.5700  0.2491  1.1366
 4052SOL    HW213056   3.774   0.351   6.904  0.1139  0.0547  1.5665
 4053SOL     OW13057   1.241   4.326   3.835 -0.2512 -0.4152 -0.2458
 4053SOL    HW113058   1.270   4.371   3.920  1.3513  1.1458 -1.5422
 4053SOL    HW213059   1.146   4.297   3.844 -0.0891 -0.4349  2.1212
 4054SOL     OW13060   4.999   4.797   1.371  0.5472  0.3090 -0.2190
 4054SOL    HW113061   5.089   4.763   1.343  0.3640  0.0365 -0.4773
 4054SOL    HW213062   5.005   4.832   1.465  0.6669 -0.7211  0.1667
 4055SOL     OW13063   6.908   4.521   5.649 -0.6217  0.1877 -0.4127
 4055SOL    HW113064   6.830   4.517   5.587 -1.6450  1.6134  0.7202
 4055SOL    HW213065   6.916   4.435   5.699  0.0423 -0.8752 -2.2533
 4056SOL     OW13066   6.125   4.896   6.109  0.8586  0.0535 -0.0655
 4056SOL    HW113067   6.168   4.978   6.145  0.0574  0.0802  0.8459
 4056SOL    HW213068   6.195   4.838   6.068  1.9279 -0.2914  2.1047
 4057SOL     OW13069   6.582   5.855   5.061  0.2039 -0.3572 -0.0789
 4057SOL    HW113070   6.578   5.756   5.047  0.0557 -0.2900 -0.5203
 4057SOL    HW213071   6.564   5.901   4.975 -0.3742  0.0641  0.2680
 4058SOL     OW13072   3.432   0.162   4.082  0.2416  0.3634 -0.3295
 4058SOL    HW113073   3.346   0.162   4.031 -0.5448  1.1067  0.9538
 4058SOL    HW213074   3.415   0.137   4.177  1.2187  1.8953  0.2811
 4059SOL     OW13075   3.019   1.683   2.257 -0.9309  0.7003 -0.3221
 4059SOL    HW113076   3.076   1.726   2.328  1.3259  0.2548 -1.7480
 4059SOL    HW213077   2.989   1.754   2.193  1.4975  0.5041 -1.8078
 4060SOL     OW13078   6.938   6.700   5.304 -0.3750  0.4984  0.2995
 4060SOL    HW113079   6.970   6.794   5.296  2.8745 -0.4190  1.1099
 4060SOL    HW213080   6.970   6.661   5.390  1.6552 -2.4082 -1.5664
 4061SOL     OW13081   2.313   4.192   1.753  0.6944 -0.2919 -1.0194
 4061SOL    HW113082   2.402   4.211   1.710  1.7496 -1.6740  0.4230
 4061SOL    HW213083   2.263   4.127   1.696  1.5064 -1.0737 -0.8791
 4062SOL     OW13084   2.755   4.721   2.288 -0.4608  0.3144  0.4327
 4062SOL    HW113085   2.769   4.675   2.201  0.5203 -0.0070  0.7450
 4062SOL    HW213086   2.838   4.771   2.313  0.4368 -2.0657  2.6329
 4063SOL     OW13087   4.166   0.598   0.156  0.4327  0.0719 -0.3077
 4063SOL    HW113088   4.152   0.683   0.105 -1.0700  0.3718  0.5308
 4063SOL    HW213089   4.107   0.527   0.118  0.8029 -0.2644 -0.2544
 4064SOL     OW13090   2.195   6.446   5.678  0.5398 -0.0136 -0.1722
 4064SOL    HW113091   2.225   6.374   5.740 -1.5876  0.5351  1.6054
 4064SOL    HW213092   2.227   6.535   5.711  3.5265 -0.0104 -2.5822
 4065SOL     OW13093   2.403   6.533   1.934  0.1388 -0.1303  0.1268
 4065SOL    HW113094   2.309   6.515   1.906  0.1721  1.1292 -0.8759
 4065SOL    HW213095   2.452   6.446   1.944 -0.0959 -0.7496 -3.0340
 4066SOL     OW13096   0.070   2.504   4.281 -0.1703  0.4744  0.5950
 4066SOL    HW113097   0.029   2.413   4.275 -0.5553  0.6064  1.0771
 4066SOL    HW213098   0.104   2.520   4.374 -0.0514  0.7985  0.5005
 4067SOL     OW13099   0.071   6.316   0.510 -0.4536 -0.3822 -0.5272
 4067SOL    HW113100  -0.006   6.253   0.524 -1.1373  0.5248 -0.0182
 4067SOL    HW213101   0.139   6.303   0.583 -0.5870 -0.5502 -0.4328
 4068SOL     OW13102   1.175   2.968   5.918  0.1188  0.7616 -0.8333
 4068SOL    HW113103   1.157   2.969   5.820  0.3380  1.8404 -0.8668
 4068SOL    HW213104   1.272   2.945   5.934 -0.4487 -1.9801 -0.7501
 4069SOL     OW13105   2.307   1.339   0.342  0.0565  0.1923 -0.4775
 4069SOL    HW113106   2.402   1.369   0.352  0.0905 -0.0661 -0.0024
 4069SOL    HW213107   2.273   1.307   0.431 -0.7790  1.1690 -0.4317
 4070SOL     OW13108   2.195   3.883   2.768  0.0246 -0.1068 -0.4328
 4070SOL    HW113109   2.170   3.890   2.865 -3.1760  0.7488 -1.1735
 4070SOL    HW213110   2.203   3.787   2.743  2.3424 -0.3406  0.9120
 4071SOL     OW13111   0.897   6.442   5.686 -0.2230 -1.0864 -0.6444
 4071SOL    HW113112   0.834   6.481   5.754 -0.0081 -2.5009  0.4024
 4071SOL    HW213113   0.924   6.350   5.714 -0.3978 -1.8604 -2.8370
 4072SOL     OW13114   2.689   5.445   2.007 -0.1586  0.2707  0.0345
 4072SOL    HW113115   2.602   5.487   2.035 -0.0035  1.2775 -0.9201
 4072SOL    HW213116   2.674   5.348   1.987 -1.1315  0.4864 -0.3713
 4073SOL     OW13117   4.028   5.905   5.668  0.1003 -0.3869 -0.1600
 4073SOL    HW113118   4.016   6.004   5.667 -0.2072 -0.4211 -1.4316
 4073SOL    HW213119   4.058   5.876   5.759  1.4421  1.0124 -0.1203
 4074SOL     OW13120   1.148   5.583   1.422  0.2807 -0.2928  0.3412
 4074SOL    HW113121   1.172   5.637   1.503  0.0185 -1.2781  1.0981
 4074SOL    HW213122   1.079   5.632   1.369 -1.3998 -0.6955  2.0290
 4075SOL     OW13123   5.339   1.327   5.111  0.2671 -0.6538 -0.0215
 4075SOL    HW113124   5.282   1.261   5.160  2.0757  0.0092  3.3156
 4075SOL    HW213125   5.284   1.374   5.042 -2.8290 -1.0576  1.9762
 4076SOL     OW13126   0.886   6.809   2.132 -0.1365 -0.3190 -0.1443
 4076SOL    HW113127   0.803   6.863   2.140  1.7402  2.9148 -0.8404
 4076SOL    HW213128   0.909   6.770   2.222 -1.5319  0.0255  0.3870
 4077SOL     OW13129   3.129   1.876   2.982  0.2024  0.1713  0.0547
 4077SOL    HW113130   3.057   1.932   2.942 -0.5945  0.0368  1.2550
 4077SOL    HW213131   3.090   1.814   3.050  1.5500  0.7983  1.4716
 4078SOL     OW13132   4.533   4.332   1.438 -0.1280 -0.3931  0.2612
 4078SOL    HW113133   4.565   4.307   1.529 -0.4055  0.2435  0.5470
 4078SOL    HW213134   4.477   4.415   1.445  0.6255  0.2036 -0.6135
 4079SOL     OW13135   5.564   3.291   2.286 -0.2853 -0.4306  0.2811
 4079SOL    HW113136   5.585   3.339   2.371 -1.4052 -1.0651  0.9340
 4079SOL    HW213137   5.469   3.309   2.260  0.5304  1.2511 -1.8519
 4080SOL     OW13138   4.839   3.964   4.657 -0.0052 -0.2343  0.1408
 4080SOL    HW113139   4.880   3.956   4.566  1.3335 -1.5836  0.8166
 4080SOL    HW213140   4.822   4.060   4.678  0.5613  0.1695 -1.1385
 4081SOL     OW13141   0.901   4.650   2.378 -0.2277 -0.0434 -0.5382
 4081SOL    HW113142   0.809   4.646   2.415  0.0145 -1.1761 -0.0194
 4081SOL    HW213143   0.937   4.743   2.388 -1.3337  0.4321 -0.8380
 4082SOL     OW13144   1.939   2.614   6.429  0.3029 -0.3796  0.0061
 4082SOL    HW113145   2.016   2.650   6.375  1.2507 -1.8247  0.3460
 4082SOL    HW213146   1.918   2.521   6.399 -0.6299 -0.3860  0.6406
 4083SOL     OW13147   5.433   4.100   6.179  0.1067  0.2146 -0.1920
 4083SOL    HW113148   5.390   4.010   6.170 -0.8652  0.6135  0.3263
 4083SOL    HW213149   5.437   4.143   6.089  1.2154 -0.6190 -0.5616
 4084SOL     OW13150   3.911   6.521   4.522 -0.0540  0.5197 -0.1965
 4084SOL    HW113151   3.944   6.611   4.550  1.4637 -0.5294  1.5597
 4084SOL    HW213152   3.921   6.512   4.423 -1.0604  2.5588 -0.5511
 4085SOL     OW13153   2.975   6.975   5.877 -0.4029  0.3594  0.2318
 4085SOL    HW113154   2.989   7.059   5.824 -0.6686  0.9673  1.1003
 4085SOL    HW213155   2.994   6.896   5.819 -0.5151  1.0061 -0.7206
 4086SOL     OW13156   6.836   1.217   4.933 -0.7162  0.5589 -0.0037
 4086SOL    HW113157   6.928   1.178   4.939 -0.9308  0.1757  1.0619
 4086SOL    HW213158   6.777   1.155   4.882 -0.4587  0.6765 -0.4539
 4087SOL     OW13159   0.018   0.336   3.548  0.2862 -0.2387  0.1246
 4087SOL    HW113160   0.018   0.388   3.463  1.5188  0.7033  0.6487
 4087SOL    HW213161  -0.060   0.274   3.551 -0.0653  0.1041 -1.4386
 4088SOL     OW13162   0.063   3.965   3.517  0.4234 -0.3513  0.2540
 4088SOL    HW113163  -0.002   3.962   3.592  0.8635  1.4491  0.7526
 4088SOL    HW213164   0.115   3.880   3.515 -1.1880 -1.3773  0.4993
 4089SOL     OW13165   1.464   2.444   4.875 -0.3366  0.2769 -0.2744
 4089SOL    HW113166   1.422   2.386   4.944 -0.5130 -0.6195 -1.1140
 4089SOL    HW213167   1.549   2.401   4.842  0.4018  1.2886  0.2484
 4090SOL     OW13168   3.741   3.880   0.027 -0.3127 -0.3065  0.6948
 4090SOL    HW113169   3.817   3.909   0.086  2.7320 -1.4148 -2.3830
 4090SOL    HW213170   3.713   3.957  -0.031 -0.1230 -0.4540  0.4082
 4091SOL     OW13171   4.386   5.832   0.932  0.5669  0.1606  0.1283
 4091SOL    HW113172   4.320   5.766   0.895  1.7984 -0.5315 -0.9264
 4091SOL    HW213173   4.413   5.803   1.024  1.9451 -1.5289 -0.7395
 4092SOL     OW13174   1.152   0.966   4.434 -0.3496 -0.2760 -0.2526
 4092SOL    HW113175   1.152   0.866   4.433 -0.2773 -0.3024  0.9770
 4092SOL    HW213176   1.201   0.999   4.353  2.0574 -1.2850  0.6855
 4093SOL     OW13177   3.773   2.090   4.501 -0.0615 -0.6824  0.3581
 4093SOL    HW113178   3.838   2.126   4.567 -1.1459 -1.9664  2.2304
 4093SOL    HW213179   3.685   2.136   4.511 -0.2609 -0.9449 -0.1368
 4094SOL     OW13180   3.779   2.306   0.810 -0.4327 -0.3097  0.6006
 4094SOL    HW113181   3.779   2.281   0.713 -1.0384 -0.5774  0.6679
 4094SOL    HW213182   3.825   2.233   0.862  0.5350  0.1664  0.4403
 4095SOL     OW13183   3.005   2.080   6.220 -0.1291  0.1792 -0.1520
 4095SOL    HW113184   3.048   2.007   6.168 -1.1350 -0.7166  0.2521
 4095SOL    HW213185   2.970   2.150   6.158 -1.4780 -0.9611 -0.7062
 4096SOL     OW13186   4.001   5.824   1.300  0.2195  0.3416 -0.0065
 4096SOL    HW113187   4.071   5.889   1.270  0.7278 -0.4698 -0.6347
 4096SOL    HW213188   3.913   5.871   1.310  0.5359  1.0813 -0.6264
 4097SOL     OW13189   3.575   4.201   1.982 -0.4374 -0.0673  0.2115
 4097SOL    HW113190   3.631   4.119   1.967  0.5245  0.4444  0.8832
 4097SOL    HW213191   3.634   4.282   1.979 -1.3247  0.5778 -0.0969
 4098SOL     OW13192   1.768   4.486   1.544  0.9526  0.9030 -0.0595
 4098SOL    HW113193   1.704   4.495   1.620  0.3943 -0.6770 -0.2984
 4098SOL    HW213194   1.733   4.419   1.479  1.4205  2.2166 -1.7363
 4099SOL     OW13195   3.861   4.881   2.849 -0.2516 -0.7138  0.2289
 4099SOL    HW113196   3.784   4.941   2.827 -1.0161 -1.4669  0.7829
 4099SOL    HW213197   3.835   4.819   2.924  0.8417 -1.0819  0.3198
 4100SOL     OW13198   4.166   6.956   2.376 -0.5432 -0.2311  0.6663
 4100SOL    HW113199   4.126   6.926   2.289 -0.4627 -0.6449  0.7723
 4100SOL    HW213200   4.115   6.917   2.452 -1.4724  1.2381  0.8330
 4101SOL     OW13201   5.111   0.304   5.885  0.5825 -0.6395  0.0184
 4101SOL    HW113202   5.109   0.333   5.789  0.1552  0.8270  0.4526
 4101SOL    HW213203   5.044   0.231   5.899  0.6906 -0.9097 -0.8040
 4102SOL     OW13204   4.806   1.563   5.277  0.5800  0.1838  0.1110
 4102SOL    HW113205   4.760   1.563   5.366 -0.9842  1.0564 -0.6442
 4102SOL    HW213206   4.852   1.651   5.263 -0.2835  0.5614 -0.4518
 4103SOL     OW13207   6.545   1.326   1.499  0.0121  0.1399  0.4879
 4103SOL    HW113208   6.461   1.297   1.543  0.6148  0.2495  1.7353
 4103SOL    HW213209   6.620   1.324   1.564  1.0253 -0.1176 -0.6476
 4104SOL     OW13210   3.976   3.551   1.878  0.6685 -0.1927  0.4549
 4104SOL    HW113211   3.906   3.532   1.809  1.8177 -0.9133 -0.5351
 4104SOL    HW213212   4.002   3.466   1.924 -0.0290  0.2637  1.7652
 4105SOL     OW13213   0.256   4.750   6.303  0.2146  0.6003 -0.3856
 4105SOL    HW113214   0.320   4.816   6.344 -1.7231  2.5426 -0.2891
 4105SOL    HW213215   0.260   4.756   6.204  0.6211  0.2626 -0.3907
 4106SOL     OW13216   5.664   2.257   2.283  0.1481 -0.1723 -0.2128
 4106SOL    HW113217   5.566   2.269   2.265 -0.9235 -1.5688  3.7292
 4106SOL    HW213218   5.692   2.166   2.252  0.4316  0.4567 -1.9089
 4107SOL     OW13219   2.043   6.906   0.783  0.7633 -0.0848 -0.1840
 4107SOL    HW113220   1.996   6.953   0.857 -0.2433 -0.3252 -0.6540
 4107SOL    HW213221   2.111   6.967   0.741 -0.1679  0.7761 -0.4638
 4108SOL     OW13222   5.587   2.408   3.786  0.3021  0.0946 -0.4053
 4108SOL    HW113223   5.491   2.428   3.767  0.6235  2.1789 -0.0676
 4108SOL    HW213224   5.596   2.371   3.879 -0.2243 -0.6151 -0.6359
 4109SOL     OW13225   0.948   5.719   5.800 -0.4723 -0.5427 -0.1708
 4109SOL    HW113226   1.018   5.729   5.730 -0.4370  1.6496  0.1289
 4109SOL    HW213227   0.862   5.691   5.757 -0.0397 -0.8316 -0.8625
 4110SOL     OW13228   4.502   3.246   5.933 -0.1468  0.1692  0.0891
 4110SOL    HW113229   4.458   3.320   5.984 -0.0085  1.0306 -1.0005
 4110SOL    HW213230   4.464   3.242   5.840  1.8485  0.7837 -0.8131
 4111SOL     OW13231   4.507   3.582   6.668 -0.0835 -0.0541  0.0057
 4111SOL    HW113232   4.451   3.542   6.596 -0.4620 -0.8723  0.7317
 4111SOL    HW213233   4.603   3.563   6.650 -0.2020 -0.5752 -0.0975
 4112SOL     OW13234   4.658   1.006   6.624  0.1275 -0.4992  0.1240
 4112SOL    HW113235   4.612   0.922   6.596  0.2106 -0.0932 -1.3146
 4112SOL    HW213236   4.749   0.984   6.661  0.5284 -0.9979 -1.1046
 4113SOL     OW13237   3.029   6.644   3.299 -0.4079 -0.7377  0.0413
 4113SOL    HW113238   3.098   6.660   3.229  0.0949  0.8811  0.8735
 4113SOL    HW213239   3.072   6.605   3.381 -0.8451 -1.7218 -0.1720
 4114SOL     OW13240   3.309   1.891   4.591 -0.6187  0.9423 -0.4612
 4114SOL    HW113241   3.253   1.870   4.671  0.2573  2.1883  0.5327
 4114SOL    HW213242   3.272   1.844   4.511 -1.3240 -0.6146  0.7256
 4115SOL     OW13243   5.851   2.714   4.282  0.2320  0.1391 -0.2475
 4115SOL    HW113244   5.777   2.669   4.234 -0.1561  0.2915  0.2024
 4115SOL    HW213245   5.815   2.762   4.362  0.7294  0.7059 -0.3557
 4116SOL     OW13246   1.910   1.341   1.877 -0.8570  0.0720  0.2567
 4116SOL    HW113247   1.867   1.409   1.817 -1.7063 -0.1683  0.5764
 4116SOL    HW213248   1.903   1.251   1.835 -2.3660 -0.2567  1.1515
 4117SOL     OW13249   6.228   0.150   2.057 -0.4033  0.7430  0.6306
 4117SOL    HW113250   6.317   0.182   2.027 -0.5286  0.0065 -0.5960
 4117SOL    HW213251   6.166   0.228   2.066  0.1349  1.1702  0.7067
 4118SOL     OW13252   3.860   1.348   6.209 -0.3809  0.1662 -0.5544
 4118SOL    HW113253   3.887   1.252   6.204  0.0355  0.3537 -2.2684
 4118SOL    HW213254   3.932   1.400   6.257 -0.8588 -0.4358  0.8669
 4119SOL     OW13255   5.227   0.399   3.675  0.4036  0.3385  0.6850
 4119SOL    HW113256   5.134   0.405   3.637 -1.1263 -0.9143  3.8575
 4119SOL    HW213257   5.228   0.438   3.767  2.2503 -2.3333  1.9112
 4120SOL     OW13258   5.263   0.624   0.490 -0.3983  0.8018  0.1513
 4120SOL    HW113259   5.289   0.700   0.550 -3.2544  1.5343  0.5769
 4120SOL    HW213260   5.232   0.660   0.402  0.3014 -0.0519 -0.4662
 4121SOL     OW13261   4.949   3.737   2.936  0.1610 -0.0318  0.1682
 4121SOL    HW113262   4.927   3.748   2.839  0.5550  1.3659  0.2136
 4121SOL    HW213263   4.910   3.651   2.970  1.0876 -1.1728 -1.5269
 4122SOL     OW13264   1.112   5.211   6.040  0.1052 -0.3836  0.4792
 4122SOL    HW113265   1.018   5.177   6.044  0.2780 -1.3935 -2.2205
 4122SOL    HW213266   1.132   5.246   5.949  1.7955  1.6539  1.5349
 4123SOL     OW13267   3.605   2.970   4.812 -0.4161  0.8996 -0.2924
 4123SOL    HW113268   3.532   3.037   4.798 -1.0306  0.3753  0.3318
 4123SOL    HW213269   3.694   3.015   4.804 -0.8043  2.2246  1.9953
 4124SOL     OW13270   4.547   6.209   4.123 -0.5675 -0.2291  0.1398
 4124SOL    HW113271   4.611   6.143   4.085 -1.5702 -0.3334 -1.4586
 4124SOL    HW213272   4.555   6.211   4.223  1.1705 -0.9740  0.0354
 4125SOL     OW13273   4.151   3.664   0.891 -0.0853 -0.3788 -0.6014
 4125SOL    HW113274   4.137   3.653   0.990  0.7397  0.5761 -0.3629
 4125SOL    HW213275   4.240   3.626   0.866  2.3389  4.1743  0.0541
 4126SOL     OW13276   2.158   3.449   4.802  0.0283 -0.3248  0.4098
 4126SOL    HW113277   2.147   3.510   4.881  1.1709 -0.6737  0.8642
 4126SOL    HW213278   2.157   3.354   4.833  1.7164 -0.4488  0.2237
 4127SOL     OW13279   5.059   6.998   3.910  0.0673 -0.0953  0.5302
 4127SOL    HW113280   4.986   6.938   3.876  1.3676 -0.4235 -1.8983
 4127SOL    HW213281   5.147   6.960   3.885  1.0636  1.1037  2.0313
 4128SOL     OW13282   1.359   0.825   1.623 -0.4395 -0.1029 -0.3656
 4128SOL    HW113283   1.352   0.884   1.704  1.4071 -0.3034 -0.0124
 4128SOL    HW213284   1.329   0.733   1.646  0.4668 -0.2624  0.2378
 4129SOL     OW13285   0.009   3.794   5.291  0.2669  0.7235  0.5370
 4129SOL    HW113286  -0.079   3.777   5.246  1.4192 -2.3226 -0.8265
 4129SOL    HW213287   0.074   3.830   5.224  0.9417 -0.2479  0.6441
 4130SOL     OW13288   6.168   3.216   0.497  0.0080 -0.0866  0.3447
 4130SOL    HW113289   6.225   3.263   0.564  1.1651 -1.1966  0.1753
 4130SOL    HW213290   6.111   3.148   0.545  0.5085 -0.5682  0.2648
 4131SOL     OW13291   1.432   4.081   2.867  0.5348  0.0153  0.0075
 4131SOL    HW113292   1.527   4.111   2.874  0.3595  0.7733 -0.7294
 4131SOL    HW213293   1.421   4.021   2.788  0.3718  0.0561 -0.0017
 4132SOL     OW13294   3.748   1.315   2.960 -0.0132 -0.2176 -0.2386
 4132SOL    HW113295   3.649   1.300   2.955 -0.3230  1.8268 -1.6245
 4132SOL    HW213296   3.769   1.370   3.041 -0.0341 -0.5487 -0.0091
 4133SOL     OW13297   2.153   3.659   1.172  0.1930  0.0005  0.1499
 4133SOL    HW113298   2.172   3.708   1.257 -0.8746 -0.4534  0.6822
 4133SOL    HW213299   2.094   3.581   1.192  1.6377 -1.3517 -0.7193
 4134SOL     OW13300   2.233   0.015   0.655 -0.2654  0.6485  0.1882
 4134SOL    HW113301   2.243   0.026   0.556  1.3350  1.2991  0.3943
 4134SOL    HW213302   2.289   0.083   0.702  0.0860 -0.5403  1.5528
 4135SOL     OW13303   1.971   1.291   6.142  0.1816 -0.0910  0.2009
 4135SOL    HW113304   1.928   1.308   6.230  1.0394  2.1896  0.2492
 4135SOL    HW213305   2.035   1.215   6.150 -1.2750 -1.2955  0.9590
 4136SOL     OW13306   1.748   2.424   3.312 -0.0488 -0.6987 -0.2821
 4136SOL    HW113307   1.711   2.505   3.356  1.8249  1.0905 -1.7568
 4136SOL    HW213308   1.792   2.366   3.380  0.8042  0.8450  0.5468
 4137SOL     OW13309   2.010   2.676   5.332 -0.1115 -0.2404  0.2066
 4137SOL    HW113310   1.946   2.753   5.326 -1.6857 -1.4235  0.9637
 4137SOL    HW213311   2.097   2.707   5.370 -1.4156  0.8105  2.5011
 4138SOL     OW13312   0.150   5.465   1.436 -0.5157 -0.0088  0.2195
 4138SOL    HW113313   0.088   5.412   1.493 -0.5526 -0.3110 -0.0981
 4138SOL    HW213314   0.211   5.403   1.386 -0.7292  0.2291 -0.3507
 4139SOL     OW13315   3.161   1.560   0.956 -0.3763 -0.3001  0.0702
 4139SOL    HW113316   3.165   1.510   1.042  1.7150  0.0579  0.2460
 4139SOL    HW213317   3.074   1.608   0.949 -0.8170 -0.7967  1.7118
 4140SOL     OW13318   4.500   2.223   5.349 -0.2839  0.2204 -0.3041
 4140SOL    HW113319   4.531   2.271   5.431 -0.3899 -0.4707  0.1460
 4140SOL    HW213320   4.473   2.130   5.372 -1.2165  0.3070 -0.9594
 4141SOL     OW13321   5.028   5.544   2.844  0.2796  0.1442  0.2740
 4141SOL    HW113322   4.959   5.615   2.833  2.8447  3.5622  3.5481
 4141SOL    HW213323   5.104   5.561   2.782 -0.2892 -1.6910 -1.0306
 4142SOL     OW13324   5.526   3.007   2.370  0.0656  0.0698 -0.1792
 4142SOL    HW113325   5.597   2.939   2.388  0.9805  1.1578  0.4381
 4142SOL    HW213326   5.562   3.077   2.308 -1.4252 -0.9134 -2.2757
 4143SOL     OW13327   1.365   0.886   2.654  0.6964  0.0770  0.3119
 4143SOL    HW113328   1.457   0.846   2.666  1.1354  1.8111  5.8976
 4143SOL    HW213329   1.373   0.986   2.651 -0.9360  0.3795  3.0509
 4144SOL     OW13330   4.173   1.625   1.482  0.0203 -0.5749 -0.0161
 4144SOL    HW113331   4.273   1.618   1.478  0.0493 -0.3384  0.2460
 4144SOL    HW213332   4.143   1.699   1.422 -0.0536 -1.0732 -0.6022
 4145SOL     OW13333   1.342   0.052   3.053  0.2106  0.0093 -0.0059
 4145SOL    HW113334   1.325  -0.040   3.088 -0.7195 -0.0424 -0.5601
 4145SOL    HW213335   1.435   0.058   3.016  1.6933  0.3569  3.3629
 4146SOL     OW13336   6.949   5.065   6.326 -0.3534 -0.0510 -0.2071
 4146SOL    HW113337   6.877   5.108   6.272 -1.7293 -0.8803  0.9016
 4146SOL    HW213338   7.038   5.104   6.301 -1.2986  1.7974 -0.8018
 4147SOL     OW13339   3.242   6.608   5.625  0.0686  0.0841 -0.3582
 4147SOL    HW113340   3.243   6.544   5.702  0.3252  0.5126 -0.0001
 4147SOL    HW213341   3.182   6.686   5.646  1.3884  1.0102  0.0850
 4148SOL     OW13342   6.404   0.024   3.037  0.1625  0.4562  0.2800
 4148SOL    HW113343   6.376   0.097   3.099  2.4885  1.9503 -0.3445
 4148SOL    HW213344   6.352   0.031   2.952 -0.5961  0.4945  0.7325
 4149SOL     OW13345   5.143   4.540   3.841  0.7632 -0.1564 -0.3059
 4149SOL    HW113346   5.122   4.551   3.744  0.0578 -0.3862 -0.1892
 4149SOL    HW213347   5.122   4.625   3.889 -1.2489 -0.7855  0.0225
 4150SOL     OW13348   3.674   0.273   2.955 -0.6358 -0.4080  0.5131
 4150SOL    HW113349   3.754   0.243   3.009 -0.1527  0.3591  0.2338
 4150SOL    HW213350   3.705   0.324   2.875 -1.3652 -1.2129 -0.3032
 4151SOL     OW13351   0.130   6.373   1.162  0.2618 -0.9131 -0.1710
 4151SOL    HW113352   0.107   6.329   1.075 -1.6538  1.8143 -1.1598
 4151SOL    HW213353   0.050   6.369   1.222  1.1717 -1.6504  1.0435
 4152SOL     OW13354   3.880   4.436   0.212  0.7430 -0.1858  0.1358
 4152SOL    HW113355   3.962   4.397   0.251  0.7550 -0.6841 -0.3685
 4152SOL    HW213356   3.839   4.371   0.149  0.5381  0.4589 -0.4143
 4153SOL     OW13357   6.350   6.383   0.971  0.3631  0.0542 -0.5552
 4153SOL    HW113358   6.322   6.301   1.020 -1.1669  0.6946 -0.2755
 4153SOL    HW213359   6.387   6.450   1.036  0.5197  0.0294 -0.6179
 4154SOL     OW13360   5.311   2.688   3.033 -0.4325  0.6893  0.5062
 4154SOL    HW113361   5.301   2.593   3.006 -0.3533  0.7412  0.2947
 4154SOL    HW213362   5.327   2.694   3.131 -1.3786  0.5324  0.6810
 4155SOL     OW13363   0.765   3.642   0.262  0.3982 -0.1601 -0.6990
 4155SOL    HW113364   0.854   3.627   0.306  0.0779  1.9521  0.8006
 4155SOL    HW213365   0.692   3.607   0.321 -0.0482  2.8424  0.6993
 4156SOL     OW13366   4.888   1.606   4.432  0.1595 -0.0011 -0.5154
 4156SOL    HW113367   4.794   1.600   4.465  0.0641 -0.3483 -0.8460
 4156SOL    HW213368   4.921   1.700   4.443  0.2206 -0.1622  0.8020
 4157SOL     OW13369   4.936   1.137   4.107 -0.2408  0.5260  0.1533
 4157SOL    HW113370   4.994   1.213   4.078 -1.6198  1.6192  0.1392
 4157SOL    HW213371   4.903   1.155   4.200  1.1444 -1.1406  1.0425
 4158SOL     OW13372   6.179   6.202   3.537 -0.2985  0.2750 -0.3174
 4158SOL    HW113373   6.269   6.244   3.529  0.5302 -1.1012  1.1142
 4158SOL    HW213374   6.187   6.103   3.529 -1.9346  0.2126 -1.7774
 4159SOL     OW13375   0.543   6.049   5.960  0.1444  0.1090 -0.3305
 4159SOL    HW113376   0.571   6.133   6.007  0.4478 -0.4905  0.5771
 4159SOL    HW213377   0.451   6.024   5.988 -0.9725  1.4639 -2.4728
 4160SOL     OW13378   6.763   1.272   1.690  0.4625 -0.4896 -0.7681
 4160SOL    HW113379   6.806   1.259   1.601 -0.3628 -1.4517 -1.0373
 4160SOL    HW213380   6.833   1.264   1.762  1.6203  2.6727 -1.3608
 4161SOL     OW13381   6.857   2.797   1.037  0.5052 -0.0960  0.3931
 4161SOL    HW113382   6.946   2.819   0.997 -0.3791  1.7668 -0.6673
 4161SOL    HW213383   6.796   2.762   0.966  0.0646 -0.3774  0.9001
 4162SOL     OW13384   6.627   5.943   5.524 -0.2265  0.0513 -0.5947
 4162SOL    HW113385   6.684   6.025   5.515  0.6171 -0.3671  0.7029
 4162SOL    HW213386   6.663   5.885   5.598 -3.6068  0.8407  1.8712
 4163SOL     OW13387   1.774   2.335   4.655 -0.2666 -0.5295  0.1876
 4163SOL    HW113388   1.860   2.351   4.607 -1.1423 -0.4832 -1.4115
 4163SOL    HW213389   1.780   2.249   4.706  1.0413 -0.0565  0.8706
 4164SOL     OW13390   1.932   0.908   5.765 -0.0683 -0.9602  0.4223
 4164SOL    HW113391   2.003   0.880   5.829 -0.2873 -1.4805  0.4477
 4164SOL    HW213392   1.926   1.007   5.762  0.3645 -0.9243  0.7439
 4165SOL     OW13393   7.003   5.246   3.422  0.8846  0.3415  0.3498
 4165SOL    HW113394   7.096   5.272   3.394  0.5646  0.6731 -0.4042
 4165SOL    HW213395   6.994   5.147   3.417  1.6308  0.1660  1.7841
 4166SOL     OW13396   0.607   1.127   4.285 -0.0850 -0.0911 -0.0827
 4166SOL    HW113397   0.591   1.207   4.342  0.0252  1.4571 -2.1149
 4166SOL    HW213398   0.696   1.087   4.308  1.0698  1.9548 -0.7527
 4167SOL     OW13399   1.541   2.266   0.577  0.4049  0.8941 -0.4544
 4167SOL    HW113400   1.577   2.301   0.663  1.5786  0.8679 -0.9104
 4167SOL    HW213401   1.444   2.247   0.586  0.1715  2.3336  0.4102
 4168SOL     OW13402   4.566   4.490   0.682 -0.5787  0.1816 -0.2224
 4168SOL    HW113403   4.523   4.404   0.653 -0.3532 -0.2785  0.7333
 4168SOL    HW213404   4.591   4.483   0.779 -0.6238  1.3625 -0.1098
 4169SOL     OW13405   6.259   2.593   0.148 -0.0277 -0.3300  0.7458
 4169SOL    HW113406   6.324   2.523   0.121  0.4821  1.4432 -3.2972
 4169SOL    HW213407   6.308   2.669   0.192  0.2422 -0.2702  0.3508
 4170SOL     OW13408   2.355   1.276   6.725  0.2510  0.0004 -0.0310
 4170SOL    HW113409   2.405   1.307   6.806  0.0032 -1.1940  0.6018
 4170SOL    HW213410   2.414   1.216   6.671 -0.4422 -1.3305  0.6642
 4171SOL     OW13411   0.471   1.581   0.387  0.7567  0.3561 -0.5809
 4171SOL    HW113412   0.529   1.610   0.463  2.3981  0.2475 -1.7180
 4171SOL    HW213413   0.442   1.662   0.335  2.5610  0.2579 -1.8233
 4172SOL     OW13414   2.493   5.800   0.106  0.0629  0.3783  0.1931
 4172SOL    HW113415   2.568   5.742   0.139  0.5697 -1.1853 -3.3079
 4172SOL    HW213416   2.528   5.867   0.040 -1.5513 -0.5605 -1.7255
 4173SOL     OW13417   2.376   3.790   5.604 -0.2117 -0.0791 -0.4954
 4173SOL    HW113418   2.375   3.788   5.504 -0.8807  2.0481 -0.5722
 4173SOL    HW213419   2.322   3.714   5.640 -1.2129 -0.0036 -1.7887
 4174SOL     OW13420   3.767   6.919   4.696 -0.7035  0.3449  0.3569
 4174SOL    HW113421   3.696   6.859   4.732 -1.0431  0.5026 -0.0474
 4174SOL    HW213422   3.843   6.864   4.661 -0.3734  0.1870  1.2879
 4175SOL     OW13423   1.617   0.820   2.220 -0.8439  0.5527  0.0895
 4175SOL    HW113424   1.584   0.895   2.277 -3.9620 -0.9396  0.4471
 4175SOL    HW213425   1.594   0.733   2.263  1.3864 -0.6574 -1.0132
 4176SOL     OW13426   5.172   4.610   2.883 -0.3318  0.1331 -0.2878
 4176SOL    HW113427   5.228   4.692   2.898  0.0079 -0.1942  0.2749
 4176SOL    HW213428   5.211   4.533   2.935 -1.3365 -0.0897  0.1609
 4177SOL     OW13429   6.883   5.349   2.746  0.0172 -0.0914  0.4713
 4177SOL    HW113430   6.842   5.422   2.800 -2.7677 -0.8870 -0.4276
 4177SOL    HW213431   6.831   5.336   2.661  1.7768 -1.6403 -0.4630
 4178SOL     OW13432   4.736   1.787   4.845  0.0009 -0.2958  0.4435
 4178SOL    HW113433   4.666   1.750   4.906 -1.1235  0.5199 -0.3031
 4178SOL    HW213434   4.713   1.765   4.750  0.0988  0.9903  0.0990
 4179SOL     OW13435   0.637   0.789   5.590 -0.7345 -0.1165 -0.4261
 4179SOL    HW113436   0.603   0.876   5.626  1.6191  0.5224  0.4558
 4179SOL    HW213437   0.627   0.717   5.659 -2.1551 -0.4670 -0.9508
 4180SOL     OW13438   4.083   5.092   3.507 -0.2730  0.0675 -0.0351
 4180SOL    HW113439   4.005   5.135   3.552 -1.9793 -1.3532 -1.5004
 4180SOL    HW213440   4.092   5.128   3.415  1.6120  1.0901  0.4938
 4181SOL     OW13441   6.351   2.214   1.935  0.3077  0.3738 -0.3326
 4181SOL    HW113442   6.417   2.283   1.963  0.4747  1.1992 -2.5412
 4181SOL    HW213443   6.271   2.259   1.895 -0.3714 -0.6835 -0.2135
 4182SOL     OW13444   5.845   0.262   2.957  0.1835  0.0721 -0.6722
 4182SOL    HW113445   5.809   0.343   2.910  1.5214  0.4321 -1.1250
 4182SOL    HW213446   5.823   0.268   3.054  0.9904  1.4307 -0.5457
 4183SOL     OW13447   0.720   1.186   1.648  0.2084  0.3442 -0.2669
 4183SOL    HW113448   0.664   1.249   1.595 -0.2689  0.2463  0.1169
 4183SOL    HW213449   0.683   1.177   1.741 -0.1927 -1.0851 -0.5368
 4184SOL     OW13450   5.610   5.406   0.309 -0.2170 -0.3848  0.0426
 4184SOL    HW113451   5.546   5.363   0.245  0.9529  0.0276 -1.4617
 4184SOL    HW213452   5.699   5.416   0.265  0.7135 -0.3447  1.8714
 4185SOL     OW13453   6.622   1.342   5.098 -0.3196  0.1381 -0.2379
 4185SOL    HW113454   6.620   1.263   5.159 -1.4900  0.7381  0.5343
 4185SOL    HW213455   6.686   1.325   5.023  1.7555 -0.3125  1.5424
 4186SOL     OW13456   2.955   3.816   0.943 -0.1331 -0.5542 -0.3908
 4186SOL    HW113457   2.904   3.770   1.016 -0.0605 -0.2413 -0.1430
 4186SOL    HW213458   3.032   3.758   0.915  0.2265 -0.3865  0.2305
 4187SOL     OW13459   4.425   6.595   0.317  0.2067  0.5118  0.2287
 4187SOL    HW113460   4.496   6.554   0.375 -1.3484 -1.8020  0.6326
 4187SOL    HW213461   4.459   6.681   0.279  2.9621 -0.1484  0.9416
 4188SOL     OW13462   6.572   6.037   3.477 -0.2429 -0.0377  0.0753
 4188SOL    HW113463   6.531   5.988   3.554  1.0528 -0.2327  0.6554
 4188SOL    HW213464   6.653   6.086   3.507  0.9169 -0.9754 -1.3666
 4189SOL     OW13465   6.735   2.617   2.211 -0.5243  0.0521 -0.5750
 4189SOL    HW113466   6.643   2.622   2.172  0.5163  2.9570 -3.0915
 4189SOL    HW213467   6.790   2.694   2.176  3.2650 -2.2542 -0.2361
 4190SOL     OW13468   2.756   5.174   0.422  0.0123 -0.5236  0.0983
 4190SOL    HW113469   2.713   5.262   0.403 -0.2057 -0.9545 -1.5691
 4190SOL    HW213470   2.835   5.162   0.361  1.9978 -0.1500  2.4616
 4191SOL     OW13471   0.545   1.603   5.386  0.4211 -0.3588  0.6453
 4191SOL    HW113472   0.450   1.576   5.402  0.9983 -1.2279  2.9234
 4191SOL    HW213473   0.547   1.684   5.327 -1.7005 -0.4709  0.3484
 4192SOL     OW13474   1.169   5.490   5.134  0.1879  0.1732 -0.5418
 4192SOL    HW113475   1.242   5.527   5.078  0.6173 -0.3922 -0.3616
 4192SOL    HW213476   1.081   5.507   5.090  0.5253 -0.3320 -1.4255
 4193SOL     OW13477   1.367   4.172   4.704  0.2886  0.3768 -0.3196
 4193SOL    HW113478   1.451   4.168   4.649 -1.7861 -0.3090 -3.7361
 4193SOL    HW213479   1.319   4.257   4.685 -0.3284  0.2996  0.8131
 4194SOL     OW13480   4.792   6.867   3.535  0.3905 -0.6107  1.1996
 4194SOL    HW113481   4.834   6.939   3.481  0.4831 -1.8149 -0.4274
 4194SOL    HW213482   4.711   6.832   3.487  1.7970 -3.3213  0.5610
 4195SOL     OW13483   3.811   6.885   2.986  0.1224  0.3368 -0.0825
 4195SOL    HW113484   3.797   6.912   2.890 -0.4391 -1.6998 -0.6149
 4195SOL    HW213485   3.745   6.933   3.044 -1.3784 -0.4361 -1.0833
 4196SOL     OW13486   4.291   5.906   3.378 -1.1462 -0.0250 -0.2113
 4196SOL    HW113487   4.248   5.867   3.459  0.9647 -0.1060  0.9433
 4196SOL    HW213488   4.318   5.833   3.316  1.0927 -0.3744  1.0693
 4197SOL     OW13489   5.610   4.855   3.237 -0.2680 -0.2513  0.0906
 4197SOL    HW113490   5.541   4.797   3.195 -1.5260  0.1925  1.4612
 4197SOL    HW213491   5.688   4.799   3.264 -0.7750 -1.0349 -0.0289
 4198SOL     OW13492   6.766   3.417   5.173 -0.0965  0.1922  0.0969
 4198SOL    HW113493   6.827   3.367   5.234 -0.3539  0.0209  0.2161
 4198SOL    HW213494   6.678   3.371   5.169 -0.2752  0.5291  0.0577
 4199SOL     OW13495   1.815   4.300   6.512  0.0010 -0.0125  0.0454
 4199SOL    HW113496   1.832   4.251   6.427  0.1971 -0.2862  0.2377
 4199SOL    HW213497   1.827   4.237   6.589  2.3642  0.7933  0.4306
 4200SOL     OW13498   3.643   1.371   5.322 -0.1332  0.1272  0.3894
 4200SOL    HW113499   3.683   1.310   5.254  0.2364  0.6139  0.1619
 4200SOL    HW213500   3.552   1.398   5.294 -1.0115 -1.6795  1.3290
 4201SOL     OW13501   6.084   1.173   5.072 -0.6577 -0.1155 -0.1444
 4201SOL    HW113502   6.175   1.142   5.098 -0.1734  1.4312  0.1075
 4201SOL    HW213503   6.032   1.096   5.035  0.2185 -1.3600  1.1048
 4202SOL     OW13504   5.770   4.298   3.333  0.1987  0.1805 -0.2125
 4202SOL    HW113505   5.698   4.253   3.386  0.1477 -0.2515 -0.6458
 4202SOL    HW213506   5.783   4.250   3.247  2.9796 -1.5491  1.0150
 4203SOL     OW13507   4.160   0.578   6.429  0.5345 -0.4531  0.0684
 4203SOL    HW113508   4.172   0.654   6.492 -0.7837 -0.5837  0.5240
 4203SOL    HW213509   4.247   0.555   6.385  0.9367  1.3679 -0.1538
 4204SOL     OW13510   1.692   4.985   0.408 -0.3379 -0.2043  0.6340
 4204SOL    HW113511   1.743   4.976   0.494  0.1582 -2.3260  0.1751
 4204SOL    HW213512   1.755   5.013   0.335 -0.6080  0.8284  0.7771
 4205SOL     OW13513   3.586   1.671   4.662 -0.7098 -0.4536  0.1687
 4205SOL    HW113514   3.546   1.585   4.693 -0.6999 -0.2367  0.7816
 4205SOL    HW213515   3.583   1.738   4.735 -2.7704  0.8027 -0.9695
 4206SOL     OW13516   5.997   0.431   4.124 -0.2587 -0.3261 -0.3950
 4206SOL    HW113517   5.981   0.333   4.110 -0.8279 -0.1997 -0.6585
 4206SOL    HW213518   5.998   0.477   4.036 -1.6399  0.1412 -0.1957
 4207SOL     OW13519   1.878   6.352   0.104 -0.0520 -0.2341 -0.0161
 4207SOL    HW113520   1.869   6.346   0.204 -0.6891 -1.0185 -0.1135
 4207SOL    HW213521   1.849   6.443   0.074  0.8995  0.2839  0.5856
 4208SOL     OW13522   2.232   2.392   1.773  0.2237  0.3123 -0.4396
 4208SOL    HW113523   2.230   2.297   1.802 -0.3690  0.9099  1.6929
 4208SOL    HW213524   2.326   2.426   1.774  0.3476 -0.0341 -0.4058
 4209SOL     OW13525   3.043   5.873   6.530  0.0262 -0.2804  0.1650
 4209SOL    HW113526   3.093   5.890   6.445  0.4004  1.5875  0.7163
 4209SOL    HW213527   3.108   5.847   6.602  0.2214  1.6287  0.7446
 4210SOL     OW13528   0.869   3.328   0.457  0.5415  0.9383 -0.5119
 4210SOL    HW113529   0.935   3.401   0.439  1.8354  0.5427  2.1535
 4210SOL    HW213530   0.864   3.311   0.555  0.2269 -2.5105 -1.0132
 4211SOL     OW13531   0.190   2.133   3.288 -0.3941  0.0689  0.0615
 4211SOL    HW113532   0.105   2.178   3.260  0.3235  1.6417  0.3072
 4211SOL    HW213533   0.173   2.036   3.302 -2.3750  0.5050  1.0156
 4212SOL     OW13534   5.518   6.302   2.775  0.0262 -0.1115 -0.0488
 4212SOL    HW113535   5.610   6.316   2.738  0.2257 -0.6680  0.2216
 4212SOL    HW213536   5.450   6.321   2.705  0.3804 -0.5655 -0.5212
 4213SOL     OW13537   1.807   1.438   1.534 -0.0769 -0.2708  0.7387
 4213SOL    HW113538   1.751   1.383   1.473 -0.3172  1.1468 -0.3845
 4213SOL    HW213539   1.758   1.455   1.619  0.3725 -2.5031  1.4960
 4214SOL     OW13540   0.382   4.604   4.100 -0.0656  0.2010  0.1411
 4214SOL    HW113541   0.481   4.593   4.097 -0.1637 -0.5150 -0.9123
 4214SOL    HW213542   0.348   4.574   4.189  0.2181 -3.7854 -0.9354
 4215SOL     OW13543   2.752   0.364   1.153 -0.2006  0.4399 -0.6066
 4215SOL    HW113544   2.774   0.276   1.112 -0.9749  0.7995 -1.8519
 4215SOL    HW213545   2.736   0.352   1.251 -0.2313 -0.7842 -0.7441
 4216SOL     OW13546   2.097   3.475   0.517 -0.0138  0.1251  0.2438
 4216SOL    HW113547   2.179   3.465   0.460  0.7839 -0.0468  1.3724
 4216SOL    HW213548   2.080   3.572   0.534 -0.0833  0.1652 -0.0528
 4217SOL     OW13549   6.767   0.717   4.661  0.0278 -0.9680  0.0239
 4217SOL    HW113550   6.685   0.742   4.713 -0.3650 -2.8991  0.4015
 4217SOL    HW213551   6.752   0.734   4.564 -0.3680 -0.2016  0.2154
 4218SOL     OW13552   1.752   5.777   3.681  0.0312 -1.1562  0.4302
 4218SOL    HW113553   1.760   5.714   3.758 -2.0673 -3.8394 -1.3944
 4218SOL    HW213554   1.664   5.823   3.684  0.1711 -0.8415 -0.0982
 4219SOL     OW13555   6.180   0.310   1.186  0.1385 -0.4735 -0.4562
 4219SOL    HW113556   6.267   0.353   1.210  1.0393 -2.6365  0.5335
 4219SOL    HW213557   6.190   0.262   1.099 -0.1010 -0.6034 -0.4115
 4220SOL     OW13558   6.972   5.953   2.587  0.5959  0.1055  0.8428
 4220SOL    HW113559   7.047   5.973   2.524 -2.0630  2.8177 -1.8674
 4220SOL    HW213560   6.945   6.037   2.633 -1.1453 -0.6388  1.2489
 4221SOL     OW13561   6.817   5.512   4.895 -0.2369 -0.3737  0.1938
 4221SOL    HW113562   6.851   5.596   4.855  1.4997 -0.0078  2.2448
 4221SOL    HW213563   6.835   5.435   4.834  0.9497  0.3436 -0.3745
 4222SOL     OW13564   3.341   3.824   0.547  0.3480 -0.0358 -0.3784
 4222SOL    HW113565   3.349   3.725   0.561  0.8952  0.0867  0.2367
 4222SOL    HW213566   3.391   3.871   0.620 -1.0133  0.7178  0.0962
 4223SOL     OW13567   3.765   2.929   3.319  0.8341  0.0484  0.1850
 4223SOL    HW113568   3.715   2.842   3.308 -0.8822  0.4689  3.4315
 4223SOL    HW213569   3.711   3.003   3.279 -0.2100  0.2138  1.8122
 4224SOL     OW13570   3.079   1.616   4.625 -0.0939 -0.0143 -0.8241
 4224SOL    HW113571   3.122   1.604   4.715 -1.3511 -0.5931 -0.2756
 4224SOL    HW213572   3.095   1.534   4.570  0.0250  0.0178 -0.8359
 4225SOL     OW13573   5.256   5.532   4.965 -0.2884 -0.6874  0.0877
 4225SOL    HW113574   5.224   5.606   5.025  1.1085 -1.2690  1.6349
 4225SOL    HW213575   5.322   5.476   5.014  0.9723 -1.1879 -2.0548
 4226SOL     OW13576   2.168   3.283   4.214 -0.1444 -0.4823 -0.3785
 4226SOL    HW113577   2.164   3.255   4.118  1.1986  1.3592 -1.0313
 4226SOL    HW213578   2.118   3.369   4.226  0.9948  0.1194  0.2137
 4227SOL     OW13579   6.770   3.338   6.454 -0.7494 -0.0212  0.2534
 4227SOL    HW113580   6.848   3.377   6.405 -1.0518  1.0577  0.6017
 4227SOL    HW213581   6.770   3.239   6.443 -0.5662  0.1538 -1.5663
 4228SOL     OW13582   3.898   5.319   0.666 -0.4048 -0.2440  0.1338
 4228SOL    HW113583   3.874   5.222   0.676 -1.9884  0.1266  0.1858
 4228SOL    HW213584   3.846   5.358   0.590 -0.0497  0.6551  0.3497
 4229SOL     OW13585   4.422   5.235   3.371  0.1347  0.5661 -0.5790
 4229SOL    HW113586   4.370   5.166   3.420  2.1641  0.4816  1.6582
 4229SOL    HW213587   4.386   5.326   3.392  1.2535  0.5638  1.5616
 4230SOL     OW13588   1.677   1.106   5.446 -0.5398  0.3919  0.2106
 4230SOL    HW113589   1.582   1.080   5.429 -0.4135  1.0354 -1.7795
 4230SOL    HW213590   1.687   1.205   5.433  0.3551  0.3727  0.6864
 4231SOL     OW13591   2.490   5.494   6.263  0.1669  0.1505  0.2000
 4231SOL    HW113592   2.537   5.431   6.326 -0.6032 -0.2406  0.3976
 4231SOL    HW213593   2.397   5.462   6.248  0.1332  0.6076 -0.6305
 4232SOL     OW13594   2.260   3.316   1.312  0.1794 -0.7663  0.7516
 4232SOL    HW113595   2.181   3.367   1.349 -0.2865  1.8749 -3.2747
 4232SOL    HW213596   2.230   3.227   1.278 -1.4643  0.6155 -1.6803
 4233SOL     OW13597   5.938   4.740   0.666  0.4867 -0.3606 -0.0864
 4233SOL    HW113598   6.022   4.731   0.612  0.7004 -1.4168  0.3889
 4233SOL    HW213599   5.942   4.677   0.744  0.0486  0.9065  0.9941
 4234SOL     OW13600   3.533   5.931   5.331 -0.1303  0.0401 -1.0024
 4234SOL    HW113601   3.517   5.861   5.400  3.5587 -0.2980 -0.2934
 4234SOL    HW213602   3.548   5.887   5.242 -0.0753  0.0918 -1.0190
 4235SOL     OW13603   1.239   3.791   4.224  0.3240  0.1116 -0.3526
 4235SOL    HW113604   1.224   3.777   4.126 -0.1149  0.3445 -0.3209
 4235SOL    HW213605   1.217   3.886   4.248 -2.3611 -0.6234  0.4810
 4236SOL     OW13606   0.342   3.220   2.472 -0.1941  0.0019 -0.1225
 4236SOL    HW113607   0.410   3.165   2.423 -0.3951 -0.0589 -0.3353
 4236SOL    HW213608   0.314   3.296   2.414 -0.9879 -0.4959 -0.3975
 4237SOL     OW13609   5.623   4.166   5.390 -0.1612 -0.4184  0.1381
 4237SOL    HW113610   5.537   4.134   5.429 -0.5785 -0.6309 -0.9516
 4237SOL    HW213611   5.605   4.236   5.321  0.4389 -1.4300 -1.0799
 4238SOL     OW13612   5.999   4.226   3.947  0.3923 -0.6408  0.0083
 4238SOL    HW113613   6.062   4.152   3.972 -0.2360 -1.1649  0.0750
 4238SOL    HW213614   5.990   4.289   4.025  0.7195 -0.6437  0.0497
 4239SOL     OW13615   5.428   3.772   4.891 -0.2567  0.1030 -0.3325
 4239SOL    HW113616   5.484   3.719   4.828 -0.6571 -0.4398 -0.2366
 4239SOL    HW213617   5.367   3.831   4.839 -0.8250 -0.5934 -0.4645
 4240SOL     OW13618   2.049   3.290   0.130  0.7122 -0.5301 -0.0554
 4240SOL    HW113619   2.096   3.369   0.168  2.6353 -3.2756  3.9888
 4240SOL    HW213620   1.951   3.296   0.148  0.6387  1.3226 -0.8559
 4241SOL     OW13621   2.342   3.544   0.837  0.8466 -0.6507  0.6079
 4241SOL    HW113622   2.361   3.617   0.903  0.4181 -0.5299  0.6061
 4241SOL    HW213623   2.252   3.505   0.857  0.0921  0.3105 -0.7382
 4242SOL     OW13624   3.160   6.679   2.565 -0.5331 -0.1910  0.1022
 4242SOL    HW113625   3.126   6.769   2.593  1.1543  0.5493 -0.0911
 4242SOL    HW213626   3.140   6.664   2.469  0.5895  0.7109 -0.2944
 4243SOL     OW13627   0.448   2.392   1.377 -0.6095  0.3472  0.1040
 4243SOL    HW113628   0.362   2.347   1.402 -0.5131 -0.6779 -1.2641
 4243SOL    HW213629   0.429   2.466   1.313 -0.4185 -0.5241 -0.9896
 4244SOL     OW13630   1.454   6.433   1.731 -0.2651 -0.1255  0.3733
 4244SOL    HW113631   1.474   6.507   1.796 -0.0570 -0.5703  0.8192
 4244SOL    HW213632   1.535   6.376   1.719 -0.9331 -1.3386  1.4122
 4245SOL     OW13633   0.674   1.324   2.093  0.0780 -0.5646 -0.4378
 4245SOL    HW113634   0.733   1.259   2.140  1.7228  0.5794 -0.8086
 4245SOL    HW213635   0.651   1.399   2.155 -1.7714 -1.4260 -0.0223
 4246SOL     OW13636   2.862   0.847   4.217  0.2564  0.5715  0.3867
 4246SOL    HW113637   2.768   0.845   4.182  0.4563  1.4052 -0.2372
 4246SOL    HW213638   2.875   0.774   4.284 -0.1678 -1.0886 -1.2622
 4247SOL     OW13639   2.896   3.848   5.740 -0.0881 -0.0587 -0.2854
 4247SOL    HW113640   2.920   3.941   5.768 -0.1443 -0.2373  0.3640
 4247SOL    HW213641   2.799   3.844   5.716 -0.0420  0.0916 -0.5000
 4248SOL     OW13642   3.337   5.701   3.303  0.3630 -0.5037 -0.3008
 4248SOL    HW113643   3.245   5.706   3.341  0.5676 -2.0578  0.4534
 4248SOL    HW213644   3.354   5.783   3.248 -2.2799 -1.1213 -2.2877
 4249SOL     OW13645   5.637   1.760   5.838 -0.3407  0.4089  0.1173
 4249SOL    HW113646   5.661   1.817   5.917 -0.5070  0.3243  0.2299
 4249SOL    HW213647   5.720   1.737   5.788 -0.4353  2.2109 -0.9485
 4250SOL     OW13648   0.136   2.672   5.857 -0.5634 -0.1367 -0.2544
 4250SOL    HW113649   0.175   2.747   5.911 -2.1789  0.5837 -0.0310
 4250SOL    HW213650   0.208   2.606   5.835  0.7630  1.1424  0.1001
 4251SOL     OW13651   4.737   1.325   6.296 -0.0086  0.4867  0.1895
 4251SOL    HW113652   4.810   1.300   6.233  0.4565 -0.5293  1.0996
 4251SOL    HW213653   4.755   1.417   6.333  1.1380  0.0235  0.8436
 4252SOL     OW13654   6.175   6.897   6.816  0.2400 -0.2501 -0.4893
 4252SOL    HW113655   6.162   6.954   6.897  2.8455  0.0643 -0.1981
 4252SOL    HW213656   6.086   6.872   6.778 -1.0678  0.1157  2.0785
 4253SOL     OW13657   3.595   5.442   2.337 -0.0948  0.0945 -0.6500
 4253SOL    HW113658   3.565   5.499   2.413  1.4537  0.7724 -0.5074
 4253SOL    HW213659   3.577   5.346   2.358 -1.9020  0.4201 -0.5059
 4254SOL     OW13660   5.959   1.419   0.088 -0.3650  0.5223 -0.5226
 4254SOL    HW113661   6.051   1.424   0.128 -0.7319  0.7619  0.3131
 4254SOL    HW213662   5.894   1.464   0.149 -1.3861 -1.4592 -0.0749
 4255SOL     OW13663   2.105   4.289   3.679  0.2851 -0.2769 -0.2145
 4255SOL    HW113664   2.159   4.330   3.605 -0.5631 -0.4977 -0.9721
 4255SOL    HW213665   2.114   4.345   3.762  3.4372 -1.4795  0.3858
 4256SOL     OW13666   0.396   0.069   2.225  0.1554  1.4112 -0.0023
 4256SOL    HW113667   0.389   0.164   2.195 -0.2073  0.7589 -2.2206
 4256SOL    HW213668   0.414   0.010   2.146  1.9678 -0.2269  1.5207
 4257SOL     OW13669   1.167   1.838   2.256 -0.5572  0.3917  0.3268
 4257SOL    HW113670   1.256   1.835   2.210  0.4860  3.0445  1.9298
 4257SOL    HW213671   1.123   1.927   2.238 -1.3810  0.3894  2.1214
 4258SOL     OW13672   1.649   6.964   1.004 -0.6554  0.7466  0.5289
 4258SOL    HW113673   1.612   6.960   1.097 -0.8769  2.2504  0.5396
 4258SOL    HW213674   1.639   6.875   0.960 -1.5028  0.2948  1.5890
 4259SOL     OW13675   0.906   6.046   1.603 -0.0039  0.0036 -0.1535
 4259SOL    HW113676   0.900   6.124   1.541  1.6655  0.4928  0.2427
 4259SOL    HW213677   0.874   6.073   1.694 -0.2331 -0.0420 -0.2181
 4260SOL     OW13678   0.135   1.608   0.827 -0.3472  0.2592  0.4461
 4260SOL    HW113679   0.169   1.573   0.739 -0.8592  0.5035  0.1505
 4260SOL    HW213680   0.062   1.549   0.860 -0.7303  0.6412  0.2912
 4261SOL     OW13681   1.658   6.075   4.340 -0.3158 -0.1393  0.1626
 4261SOL    HW113682   1.677   6.099   4.435 -0.5892 -1.4740  0.5726
 4261SOL    HW213683   1.609   6.151   4.296 -0.0635  0.5487  1.0335
 4262SOL     OW13684   6.824   4.537   3.413  0.2926  0.9491  0.0580
 4262SOL    HW113685   6.800   4.599   3.339 -0.4920 -0.0010 -0.5088
 4262SOL    HW213686   6.857   4.451   3.374 -1.3959 -0.0588  0.7672
 4263SOL     OW13687   4.627   0.577   1.945  0.2722  0.1870  0.0235
 4263SOL    HW113688   4.677   0.521   2.011 -0.0485 -0.8844 -0.6039
 4263SOL    HW213689   4.535   0.594   1.978  0.6767  1.1964  0.6632
 4264SOL     OW13690   4.634   1.145   0.289 -0.1196 -0.7255  0.9133
 4264SOL    HW113691   4.693   1.070   0.316 -1.6214 -2.5906 -0.7190
 4264SOL    HW213692   4.547   1.138   0.337 -0.5162 -0.4265  0.2495
 4265SOL     OW13693   3.636   1.998   6.992 -0.1946 -0.1509 -0.9850
 4265SOL    HW113694   3.558   2.060   7.002 -1.4001 -1.6209 -0.8712
 4265SOL    HW213695   3.721   2.050   6.998 -1.0955  1.1989  1.3737
 4266SOL     OW13696   1.615   4.723   1.200 -0.0231  0.6173  0.0482
 4266SOL    HW113697   1.597   4.772   1.114 -0.2451 -0.5193 -0.5709
 4266SOL    HW213698   1.539   4.661   1.219  0.8023 -0.3743  0.1730
 4267SOL     OW13699   1.812   5.428   1.968 -0.0939  0.2046 -0.0917
 4267SOL    HW113700   1.911   5.412   1.973 -0.1142 -0.2551 -0.9454
 4267SOL    HW213701   1.763   5.347   1.998 -0.2013  0.1190 -0.4831
 4268SOL     OW13702   0.252   2.063   6.695 -0.4382 -0.5305 -0.0736
 4268SOL    HW113703   0.283   1.969   6.683  0.1856 -0.3526  0.1281
 4268SOL    HW213704   0.252   2.111   6.607  1.6386  0.0079  0.1808
 4269SOL     OW13705   5.336   2.757   3.626 -0.0527  0.5440  0.7147
 4269SOL    HW113706   5.293   2.668   3.639 -1.3460  1.2925  1.8438
 4269SOL    HW213707   5.415   2.748   3.565 -1.5429 -0.9759 -1.1064
 4270SOL     OW13708   3.517   4.828   1.152 -0.4099  0.5278  0.0815
 4270SOL    HW113709   3.612   4.858   1.147  0.0504 -0.7438  0.8171
 4270SOL    HW213710   3.465   4.891   1.210  0.0079  1.1228 -0.1730
 4271SOL     OW13711   6.126   0.990   6.103  0.6815 -0.2428  0.0076
 4271SOL    HW113712   6.204   0.928   6.110  0.4195 -0.5838 -0.0984
 4271SOL    HW213713   6.058   0.967   6.172  0.2038 -0.6208 -0.5762
 4272SOL     OW13714   6.079   1.120   6.494  0.7337 -0.4474 -0.1848
 4272SOL    HW113715   6.002   1.181   6.475  1.9615  0.8524 -1.2614
 4272SOL    HW213716   6.066   1.078   6.584 -1.9657 -1.5104 -0.9729
 4273SOL     OW13717   3.729   6.155   2.816  0.1124  0.1151 -0.1301
 4273SOL    HW113718   3.772   6.171   2.727  0.5006  0.1332  0.0619
 4273SOL    HW213719   3.668   6.231   2.838  1.5646  1.1178  0.5533
 4274SOL     OW13720   5.309   1.273   3.704 -0.8126  0.3225  0.2142
 4274SOL    HW113721   5.248   1.341   3.664 -0.3932 -0.3523 -1.6685
 4274SOL    HW213722   5.255   1.203   3.751 -1.2962  1.3219  1.1729
 4275SOL     OW13723   6.382   2.059   2.190 -0.0999  0.4536  0.2250
 4275SOL    HW113724   6.398   2.109   2.104 -0.5898 -1.6195 -1.1544
 4275SOL    HW213725   6.427   1.969   2.184 -1.1688 -0.2054  1.6524
 4276SOL     OW13726   3.747   2.088   2.461  0.2899 -0.2771 -0.3299
 4276SOL    HW113727   3.746   2.180   2.421 -1.2352 -0.4935 -0.8529
 4276SOL    HW213728   3.719   2.021   2.392 -2.8745 -0.6215  1.1248
 4277SOL     OW13729   0.165   2.982   2.910  0.4285  0.6472  0.2637
 4277SOL    HW113730   0.230   2.927   2.858  0.5097  2.4530 -1.6501
 4277SOL    HW213731   0.146   2.937   2.997  1.3360 -1.7967 -0.7249
 4278SOL     OW13732   0.383   2.569   1.616 -0.3465 -0.4425 -0.3229
 4278SOL    HW113733   0.407   2.507   1.541 -0.0543 -1.3895  0.5366
 4278SOL    HW213734   0.351   2.656   1.578 -0.8730 -1.1453 -1.5582
 4279SOL     OW13735   2.874   4.765   3.397 -0.0292 -0.5719 -0.0252
 4279SOL    HW113736   2.973   4.776   3.397 -0.1910  1.1670 -0.0540
 4279SOL    HW213737   2.833   4.835   3.456 -1.1096 -2.9344  2.2272
 4280SOL     OW13738   2.352   0.723   5.627 -0.3008  0.9835  0.4533
 4280SOL    HW113739   2.296   0.646   5.657  0.2146  0.6189  0.4856
 4280SOL    HW213740   2.404   0.758   5.705 -1.8787  2.5430  0.8886
 4281SOL     OW13741   6.588   6.416   3.280  0.9247 -0.3858  0.5311
 4281SOL    HW113742   6.616   6.493   3.336  0.3089  0.2201  0.0328
 4281SOL    HW213743   6.565   6.448   3.188  2.4124 -1.4197 -0.2592
 4282SOL     OW13744   5.684   5.522   2.515  0.3493 -0.0434 -0.0535
 4282SOL    HW113745   5.616   5.470   2.463  0.8297 -1.3958  0.6084
 4282SOL    HW213746   5.663   5.620   2.509  0.4871 -0.1134 -2.8968
 4283SOL     OW13747   1.478   1.877   6.427  0.4869 -0.1864 -0.0267
 4283SOL    HW113748   1.466   1.837   6.337  3.5899 -2.5054  0.4301
 4283SOL    HW213749   1.552   1.945   6.424 -0.3536  0.7837  0.5249
 4284SOL     OW13750   4.666   6.195   2.363 -0.9779  0.1357 -0.1588
 4284SOL    HW113751   4.745   6.139   2.389 -1.0857 -0.4521 -1.0568
 4284SOL    HW213752   4.688   6.292   2.374 -0.6271 -0.0581  0.9597
 4285SOL     OW13753   4.109   5.267   5.933 -0.8462 -0.6986 -0.6194
 4285SOL    HW113754   4.067   5.254   6.023 -1.8699  0.7451 -0.8557
 4285SOL    HW213755   4.100   5.183   5.880 -1.2179 -1.2158  0.2462
 4286SOL     OW13756   5.208   0.149   0.562  0.4029  0.1564  0.0127
 4286SOL    HW113757   5.248   0.106   0.642 -0.2933 -1.0586 -0.2608
 4286SOL    HW213758   5.255   0.118   0.479  0.1141  0.1745 -0.1628
 4287SOL     OW13759   4.152   5.266   1.143 -0.2828 -0.3470  0.1210
 4287SOL    HW113760   4.080   5.295   1.206  0.4652 -1.0135  1.3200
 4287SOL    HW213761   4.215   5.205   1.191  1.1251  0.2799 -0.8793
 4288SOL     OW13762   5.042   0.294   2.648 -0.6881  0.0611  0.0689
 4288SOL    HW113763   4.943   0.311   2.651 -0.5129  1.0296  1.8912
 4288SOL    HW213764   5.065   0.222   2.713 -0.0152  0.9889  0.8840
 4289SOL     OW13765   0.091   4.443   5.288 -0.3601 -0.3259  0.0711
 4289SOL    HW113766   0.049   4.356   5.314 -0.3080 -0.6857 -1.0079
 4289SOL    HW213767   0.056   4.472   5.199  1.2889 -0.3779 -0.6233
 4290SOL     OW13768   0.833   1.273   2.615  0.4950  0.2407 -0.3596
 4290SOL    HW113769   0.886   1.353   2.645 -1.5066  0.8151  2.0053
 4290SOL    HW213770   0.756   1.304   2.559  0.8112 -0.2701 -1.0937
 4291SOL     OW13771   3.883   5.391   5.555  0.7950  0.4043 -0.7095
 4291SOL    HW113772   3.886   5.480   5.508  1.1055 -0.1141 -1.7024
 4291SOL    HW213773   3.974   5.348   5.551  0.4298 -0.3539 -1.0372
 4292SOL     OW13774   6.607   1.037   6.293 -0.1686  0.2954  0.4295
 4292SOL    HW113775   6.652   0.956   6.253 -1.1879 -0.5347  0.9197
 4292SOL    HW213776   6.599   1.024   6.392 -2.1087  0.0927  0.2764
 4293SOL     OW13777   5.810   1.043   5.518 -0.4189  0.3151  0.3272
 4293SOL    HW113778   5.837   0.961   5.567 -0.8910 -0.4137 -0.5971
 4293SOL    HW213779   5.805   1.120   5.582  1.5893  0.0005  0.9277
 4294SOL     OW13780   4.477   2.197   6.960 -0.9686  0.1939  0.4259
 4294SOL    HW113781   4.411   2.160   7.024  0.3707 -1.2197  1.0555
 4294SOL    HW213782   4.478   2.142   6.877 -0.1398 -0.1923  0.6832
 4295SOL     OW13783   3.254   6.583   4.389  0.0068 -0.1219  0.4535
 4295SOL    HW113784   3.343   6.611   4.426  0.8584 -0.6442 -1.0976
 4295SOL    HW213785   3.210   6.519   4.452  0.5765  0.3827  1.3907
 4296SOL     OW13786   0.579   5.234   1.926  0.3808  0.3297  0.5288
 4296SOL    HW113787   0.649   5.273   1.866 -0.2066  0.8149  0.1569
 4296SOL    HW213788   0.536   5.156   1.881 -0.9401  1.4549 -0.2454
 4297SOL     OW13789   5.187   3.364   5.672  0.3453  0.5909 -0.6039
 4297SOL    HW113790   5.169   3.421   5.592  1.2114  0.0666 -1.1871
 4297SOL    HW213791   5.121   3.386   5.744 -0.4957  1.0184 -1.4813
 4298SOL     OW13792   1.529   4.939   6.385  0.0461  0.8921 -0.6485
 4298SOL    HW113793   1.437   4.971   6.406  0.7980  2.0542  1.0037
 4298SOL    HW213794   1.596   4.985   6.444  1.3848 -2.3146  0.5699
 4299SOL     OW13795   1.529   2.063   0.369 -0.0218 -0.0104  0.0529
 4299SOL    HW113796   1.619   2.021   0.354 -0.1467 -0.8695  1.5263
 4299SOL    HW213797   1.540   2.143   0.428 -0.3063 -0.6233  0.9548
 4300SOL     OW13798   2.972   0.757   2.383 -0.1453 -0.0479 -0.1163
 4300SOL    HW113799   2.925   0.705   2.311  0.6336 -1.2099  0.2015
 4300SOL    HW213800   3.066   0.726   2.391  0.1728  1.0203  0.4956
 4301SOL     OW13801   1.381   4.582   4.336  0.4701  0.2884  0.1211
 4301SOL    HW113802   1.429   4.542   4.415  0.5403  0.0758 -0.0264
 4301SOL    HW213803   1.441   4.579   4.256  0.1568 -0.1162 -0.1028
 4302SOL     OW13804   5.534   5.540   0.535 -0.2900  0.1041  0.4047
 4302SOL    HW113805   5.588   5.488   0.470  0.9482  1.4526  0.3129
 4302SOL    HW213806   5.507   5.481   0.611  1.2272 -0.6235  0.4023
 4303SOL     OW13807   5.327   6.099   3.825  0.5496 -0.2930 -0.5137
 4303SOL    HW113808   5.240   6.053   3.808 -0.6938  1.4284  0.8041
 4303SOL    HW213809   5.347   6.099   3.923 -0.1403  2.8319 -0.2456
 4304SOL     OW13810   2.408   4.254   0.617 -0.6759  0.8493  0.1753
 4304SOL    HW113811   2.386   4.351   0.620  0.6655  1.1534  0.7250
 4304SOL    HW213812   2.326   4.200   0.637 -1.8363  1.7854 -1.7250
 4305SOL     OW13813   1.581   1.416   5.964  0.5663  0.7272  0.5437
 4305SOL    HW113814   1.669   1.386   5.927 -0.1735 -0.3253 -0.4510
 4305SOL    HW213815   1.544   1.343   6.022  0.2911  1.1137  0.8520
 4306SOL     OW13816   0.134   2.188   4.523 -0.2652  0.0582 -0.7748
 4306SOL    HW113817   0.119   2.106   4.467 -0.3746 -0.2674 -0.2755
 4306SOL    HW213818   0.046   2.219   4.561  0.0346 -0.7795  0.6704
 4307SOL     OW13819   6.455   1.362   2.219  0.2923 -0.1889  0.9692
 4307SOL    HW113820   6.473   1.263   2.214  2.4449 -0.1345  4.5067
 4307SOL    HW213821   6.508   1.409   2.148 -1.2836 -1.4985 -1.2144
 4308SOL     OW13822   5.707   5.036   6.276  0.9436 -0.3305  0.2276
 4308SOL    HW113823   5.786   5.039   6.215  1.4162  0.7094  0.8721
 4308SOL    HW213824   5.737   5.028   6.371  0.2539 -0.7232  0.4190
 4309SOL     OW13825   1.755   2.604   0.398 -0.5559 -0.1245 -0.7523
 4309SOL    HW113826   1.673   2.629   0.347 -0.7503 -0.4695 -0.6117
 4309SOL    HW213827   1.837   2.627   0.344 -0.6597  2.2499 -0.0139
 4310SOL     OW13828   5.963   0.931   3.635 -0.6114 -0.1049  0.5116
 4310SOL    HW113829   5.893   0.917   3.705 -0.9850  1.6633  0.5187
 4310SOL    HW213830   6.000   1.023   3.642 -1.4001  0.5123 -2.2509
 4311SOL     OW13831   1.173   6.207   2.750  0.3693  0.2697  0.3036
 4311SOL    HW113832   1.191   6.118   2.790  2.0430 -0.2954 -1.5326
 4311SOL    HW213833   1.075   6.222   2.743  0.0699 -1.1501  1.2155
 4312SOL     OW13834   1.460   5.327   1.671 -0.1101 -0.3513 -0.5035
 4312SOL    HW113835   1.389   5.389   1.705 -0.9428 -1.5424  0.0154
 4312SOL    HW213836   1.550   5.359   1.702 -0.5649  0.3497  0.1361
 4313SOL     OW13837   0.747   5.565   6.377  0.1524 -0.0237  0.5351
 4313SOL    HW113838   0.844   5.583   6.394  0.1619 -0.5629  1.0714
 4313SOL    HW213839   0.724   5.472   6.405 -0.7024  0.3651  1.2069
 4314SOL     OW13840   3.196   1.891   5.310 -0.5271 -0.0264 -0.2838
 4314SOL    HW113841   3.247   1.976   5.300  1.4096 -1.1905 -0.8795
 4314SOL    HW213842   3.137   1.878   5.231 -1.0102  0.8478 -0.0788
 4315SOL     OW13843   2.726   1.843   4.308 -0.2438  0.0678  0.2375
 4315SOL    HW113844   2.747   1.939   4.288  1.7961 -0.4533 -0.3888
 4315SOL    HW213845   2.804   1.801   4.355 -1.1590 -1.2587  0.6234
 4316SOL     OW13846   5.903   4.259   0.733 -0.0793 -0.3523  0.2128
 4316SOL    HW113847   5.888   4.256   0.635  1.6225  0.7305 -0.1131
 4316SOL    HW213848   5.857   4.181   0.776 -1.1697 -0.6210 -1.3690
 4317SOL     OW13849   4.835   2.403   4.045  0.5521  0.7744 -0.3695
 4317SOL    HW113850   4.896   2.329   4.015  1.0610  1.3260 -0.7164
 4317SOL    HW213851   4.750   2.400   3.992  0.1267 -0.2021  0.3426
 4318SOL     OW13852   2.108   5.709   2.033 -0.3056 -0.0438  0.8067
 4318SOL    HW113853   2.151   5.738   2.118 -0.8768 -0.8199  1.3739
 4318SOL    HW213854   2.081   5.613   2.040 -0.3795 -0.1153 -0.2467
 4319SOL     OW13855   2.089   6.004   0.334 -0.1752  0.0897 -0.0847
 4319SOL    HW113856   2.164   5.938   0.341 -0.1793  0.0301 -0.5612
 4319SOL    HW213857   2.040   5.989   0.248 -1.4739 -0.6569  0.7473
 4320SOL     OW13858   4.409   0.502   2.144  0.0654  0.1519  0.1698
 4320SOL    HW113859   4.384   0.482   2.238  1.1285  1.6784  0.8145
 4320SOL    HW213860   4.432   0.599   2.135  0.1013  0.0103 -1.6359
 4321SOL     OW13861   1.720   6.101   3.563 -0.5155 -0.1067 -0.0234
 4321SOL    HW113862   1.730   6.107   3.662  0.2954  1.9912 -0.1786
 4321SOL    HW213863   1.771   6.175   3.520 -2.0757 -0.0689 -1.9437
 4322SOL     OW13864   3.837   1.548   2.836  0.2057  0.3393  0.0793
 4322SOL    HW113865   3.817   1.559   2.738  0.5349 -0.8108 -0.1260
 4322SOL    HW213866   3.818   1.454   2.864 -0.4063  0.7846  1.2573
 4323SOL     OW13867   5.119   4.392   2.284  0.6942  0.4757 -0.2294
 4323SOL    HW113868   5.166   4.480   2.280  1.2402  0.2892  1.3154
 4323SOL    HW213869   5.026   4.405   2.318  0.7999  0.4521  0.0705
 4324SOL     OW13870   5.485   3.621   5.489  0.1122  0.0384  0.4657
 4324SOL    HW113871   5.399   3.652   5.531 -0.8535 -1.2011 -0.5058
 4324SOL    HW213872   5.527   3.698   5.440 -2.5942 -0.1485 -2.5054
 4325SOL     OW13873   1.036   5.884   0.648  0.3252 -0.7879 -0.6240
 4325SOL    HW113874   0.965   5.821   0.678  0.0253  0.3067  1.1293
 4325SOL    HW213875   0.996   5.953   0.588 -0.3046  0.2070  0.8696
 4326SOL     OW13876   5.884   1.510   1.999 -0.4092 -0.4240 -0.2319
 4326SOL    HW113877   5.960   1.517   2.063 -1.0245 -1.4295  0.6441
 4326SOL    HW213878   5.800   1.544   2.043 -0.3862  1.2941 -1.3987
 4327SOL     OW13879   2.926   5.756   4.993 -0.1688 -0.4797  0.0835
 4327SOL    HW113880   3.004   5.803   4.951  2.1039 -2.7822  1.4283
 4327SOL    HW213881   2.908   5.671   4.944 -0.6781 -0.8165  0.8344
 4328SOL     OW13882   5.351   1.100   0.699 -0.0742  0.4695 -0.3346
 4328SOL    HW113883   5.447   1.102   0.669  0.6371 -2.3366  1.4141
 4328SOL    HW213884   5.330   1.184   0.749  1.8673  0.6140  0.3159
 4329SOL     OW13885   0.567   4.484   7.000  0.4853  0.7079 -0.6251
 4329SOL    HW113886   0.495   4.473   6.931 -0.5628  0.4962  0.4830
 4329SOL    HW213887   0.558   4.412   7.069  3.0337 -0.6098 -1.5316
 4330SOL     OW13888   1.756   5.186   4.814  0.0790  0.4901  0.0865
 4330SOL    HW113889   1.808   5.150   4.737  2.7641  1.3938  1.3758
 4330SOL    HW213890   1.684   5.248   4.780  0.7118  0.2972 -1.6948
 4331SOL     OW13891   6.105   1.482   2.884  0.0827  0.0686  0.2485
 4331SOL    HW113892   6.185   1.425   2.862  0.5919  1.1113 -0.7041
 4331SOL    HW213893   6.079   1.535   2.803 -0.2091  1.3917  1.1754
 4332SOL     OW13894   6.054   1.324   2.406  0.2454  0.5929 -0.3196
 4332SOL    HW113895   6.151   1.346   2.415 -0.0724  1.0992  2.6453
 4332SOL    HW213896   6.043   1.225   2.399  0.9242  0.4725  0.2319
 4333SOL     OW13897   3.950   3.174   5.870 -0.3202  0.0132 -0.3663
 4333SOL    HW113898   3.909   3.107   5.808 -1.1695  0.3465 -0.1676
 4333SOL    HW213899   3.981   3.254   5.818 -1.3735  0.4588 -0.3231
 4334SOL     OW13900   1.631   0.785   2.654 -0.2487 -0.7750 -0.3743
 4334SOL    HW113901   1.694   0.862   2.644  0.1982 -0.5698  2.8854
 4334SOL    HW213902   1.670   0.704   2.611  0.5000  0.1776 -1.5740
 4335SOL     OW13903   2.889   3.746   1.201 -0.5244 -0.1183  0.4826
 4335SOL    HW113904   2.854   3.681   1.268 -0.7398  1.3415  1.8376
 4335SOL    HW213905   2.944   3.816   1.247 -0.0665  0.5117 -0.9628
 4336SOL     OW13906   3.156   5.561   4.727 -0.1348 -0.2120  0.1705
 4336SOL    HW113907   3.071   5.613   4.732 -1.0678 -1.6865  0.0917
 4336SOL    HW213908   3.208   5.590   4.646 -0.7502  0.4144 -0.0122
 4337SOL     OW13909   0.657   2.430   3.963  0.2535  0.2924 -0.0688
 4337SOL    HW113910   0.670   2.338   3.929  2.4543  0.0479  1.2681
 4337SOL    HW213911   0.745   2.476   3.973 -0.5160  1.4621  2.1420
 4338SOL     OW13912   3.966   3.715   3.318 -0.2220  0.1411 -0.4870
 4338SOL    HW113913   3.982   3.641   3.253  0.3957  0.5308 -0.7939
 4338SOL    HW213914   3.939   3.677   3.406 -2.4372 -0.3405 -1.3172
 4339SOL     OW13915   3.632   2.917   4.480 -0.5654 -0.2745  0.3482
 4339SOL    HW113916   3.678   2.844   4.429 -0.8651 -0.9106  0.9706
 4339SOL    HW213917   3.647   2.904   4.578 -1.3783 -0.0343  0.5147
 4340SOL     OW13918   1.134   3.418   6.203  1.0435  0.0062 -0.8050
 4340SOL    HW113919   1.221   3.444   6.246  1.8419  2.5029 -3.5880
 4340SOL    HW213920   1.153   3.359   6.124  0.1844  0.3369 -1.2634
 4341SOL     OW13921   6.221   2.007   1.786 -0.6311 -0.0550 -0.0850
 4341SOL    HW113922   6.251   2.000   1.690 -1.3799  0.1726 -0.3380
 4341SOL    HW213923   6.292   2.056   1.838 -0.2300 -0.1484 -0.5263
 4342SOL     OW13924   4.990   4.730   2.629 -0.0870  0.0940  0.0177
 4342SOL    HW113925   4.936   4.812   2.612 -0.2406 -0.0978 -0.4382
 4342SOL    HW213926   4.946   4.674   2.699 -0.0616  0.3250  0.2187
 4343SOL     OW13927   5.760   0.792   5.962 -0.4073 -0.6168  0.0726
 4343SOL    HW113928   5.757   0.695   5.985 -1.7042 -0.1046  2.3885
 4343SOL    HW213929   5.667   0.830   5.962  0.1853  0.9636  1.0559
 4344SOL     OW13930   1.343   4.654   1.832 -0.1180  0.4393 -0.0807
 4344SOL    HW113931   1.437   4.644   1.799 -0.1429  0.7787 -0.2583
 4344SOL    HW213932   1.342   4.646   1.932  0.1432  0.7093 -0.0518
 4345SOL     OW13933   2.891   3.693   4.080 -0.4768 -0.1161  0.8510
 4345SOL    HW113934   2.980   3.656   4.107 -0.1042  0.1292 -0.0017
 4345SOL    HW213935   2.829   3.618   4.056  0.0612 -0.2452 -0.2172
 4346SOL     OW13936   6.884   2.973   1.237 -0.4149 -0.4248 -0.2248
 4346SOL    HW113937   6.976   2.957   1.273  0.1174  2.2042 -0.2313
 4346SOL    HW213938   6.867   2.909   1.161  1.9136 -0.1657 -1.0572
 4347SOL     OW13939   5.797   6.326   2.743 -0.4881  0.0426  0.1559
 4347SOL    HW113940   5.836   6.377   2.666 -0.9373  0.2096  0.0399
 4347SOL    HW213941   5.847   6.349   2.826  0.6133 -0.8413 -0.2349
 4348SOL     OW13942   5.745   5.204   3.885  0.2297 -0.7961 -0.3682
 4348SOL    HW113943   5.735   5.121   3.831  1.8849 -0.2781 -1.5675
 4348SOL    HW213944   5.823   5.193   3.948  1.2808  0.2439 -1.4318
 4349SOL     OW13945   0.149   3.058   4.741  0.1083 -0.0335  0.1864
 4349SOL    HW113946   0.052   3.058   4.765  0.0457  0.5537 -0.0376
 4349SOL    HW213947   0.166   3.129   4.673  0.7055 -0.1056  0.2553
 4350SOL     OW13948   6.524   5.997   3.741 -0.1870  0.3498 -0.4651
 4350SOL    HW113949   6.481   5.992   3.831 -0.1532 -0.8086 -0.5053
 4350SOL    HW213950   6.583   6.078   3.738  0.0853  0.2237  0.6781
 4351SOL     OW13951   0.985   6.488   1.819  0.2295  0.0481  0.3139
 4351SOL    HW113952   1.028   6.575   1.842 -2.2946  1.0671  1.6922
 4351SOL    HW213953   0.996   6.424   1.895  1.2632 -0.5166 -0.2991
 4352SOL     OW13954   4.034   4.246   1.122  0.2173 -0.2776 -0.4865
 4352SOL    HW113955   3.981   4.161   1.125 -0.8351  0.3858  0.1879
 4352SOL    HW213956   4.011   4.302   1.202  2.9732 -0.5621  0.6332
 4353SOL     OW13957   0.568   4.432   0.695  0.7533  0.0595 -0.2950
 4353SOL    HW113958   0.499   4.493   0.733  1.3845  0.8737 -0.4449
 4353SOL    HW213959   0.594   4.364   0.763 -1.6866 -1.5945 -0.8773
 4354SOL     OW13960   5.772   3.745   2.907 -0.2500  0.0670 -0.0925
 4354SOL    HW113961   5.855   3.778   2.954  0.1966 -1.7836  0.5015
 4354SOL    HW213962   5.691   3.777   2.956  0.1872 -0.4786  1.0322
 4355SOL     OW13963   1.584   3.562   3.402 -0.0791  0.0662  0.0106
 4355SOL    HW113964   1.563   3.599   3.311 -1.1063 -0.2146  0.1189
 4355SOL    HW213965   1.537   3.617   3.471 -1.0349 -1.0015  0.2232
 4356SOL     OW13966   5.811   1.355   5.210  0.0496  0.0296 -0.8521
 4356SOL    HW113967   5.838   1.264   5.241 -2.5927 -0.3595  0.6475
 4356SOL    HW213968   5.873   1.423   5.247 -0.1464 -0.8839  1.2900
 4357SOL     OW13969   3.875   4.776   1.809 -0.0870 -0.0376  0.1417
 4357SOL    HW113970   3.781   4.746   1.827  0.2096 -0.8268  0.4406
 4357SOL    HW213971   3.929   4.698   1.777  0.9195 -0.0458  1.7320
 4358SOL     OW13972   1.722   1.330   0.656  0.1949 -0.4069 -0.2826
 4358SOL    HW113973   1.727   1.347   0.755  1.6868  0.4081 -0.4718
 4358SOL    HW213974   1.706   1.417   0.609 -1.4415 -0.9137 -0.7357
 4359SOL     OW13975   3.747   4.095   6.845 -0.6202  0.1216 -0.3103
 4359SOL    HW113976   3.804   4.177   6.831  0.2987 -0.4971 -0.2610
 4359SOL    HW213977   3.773   4.025   6.778 -1.9755  0.1526 -0.9055
 4360SOL     OW13978   3.493   0.501   2.345  0.1465 -0.5198 -0.1485
 4360SOL    HW113979   3.553   0.447   2.285  0.1362 -0.7359  0.0357
 4360SOL    HW213980   3.449   0.441   2.412  1.4533 -0.0758  1.1726
 4361SOL     OW13981   1.221   5.963   0.028 -0.0860 -0.0475 -0.2923
 4361SOL    HW113982   1.167   5.891  -0.015 -0.3493  0.6164 -1.0922
 4361SOL    HW213983   1.169   6.049   0.028 -0.3578 -0.1370  1.8881
 4362SOL     OW13984   6.269   6.835   0.506  0.0551 -0.6044  0.0678
 4362SOL    HW113985   6.205   6.782   0.561  0.0925 -0.6105  0.1053
 4362SOL    HW213986   6.233   6.928   0.493  0.0368 -0.6091  0.0850
 4363SOL     OW13987   3.329   1.445   1.713  0.0357 -0.6102 -0.4919
 4363SOL    HW113988   3.355   1.440   1.810  1.7862 -1.5099 -0.9728
 4363SOL    HW213989   3.309   1.354   1.679 -0.2409 -0.3382 -1.0677
 4364SOL     OW13990   3.854   2.710   1.649  0.0934 -0.0905  0.0111
 4364SOL    HW113991   3.847   2.611   1.642  2.2501 -0.3464  0.7591
 4364SOL    HW213992   3.768   2.752   1.620 -0.6120 -2.1314 -1.0322
 4365SOL     OW13993   2.641   0.931   1.985  0.2174  0.7466  0.6991
 4365SOL    HW113994   2.555   0.925   1.934  1.5750 -2.1772 -1.5325
 4365SOL    HW213995   2.644   0.859   2.053  0.8707  0.8825  0.8172
 4366SOL     OW13996   4.128   5.279   5.561  0.1666 -0.0024  0.2125
 4366SOL    HW113997   4.156   5.299   5.467 -1.2452  0.1563 -0.1903
 4366SOL    HW213998   4.206   5.241   5.611  0.9459 -0.0666 -1.0060
 4367SOL     OW13999   1.066   1.117   1.618 -0.4331 -0.1710  0.0537
 4367SOL    HW114000   1.116   1.071   1.691  0.3329  1.8439  0.8678
 4367SOL    HW214001   0.969   1.120   1.640  0.0295  2.2994  2.1505
 4368SOL     OW14002   6.216   5.457   4.560  0.1100 -0.1614 -0.2223
 4368SOL    HW114003   6.242   5.371   4.604  1.0495 -0.5021 -1.3784
 4368SOL    HW214004   6.252   5.459   4.467 -3.1048 -0.1822 -1.6195
 4369SOL     OW14005   6.241   4.406   3.923 -0.2654 -0.0787 -0.0363
 4369SOL    HW114006   6.273   4.500   3.925  0.8998 -0.2858 -3.3153
 4369SOL    HW214007   6.159   4.399   3.864  0.2651 -1.2182 -0.6881
 4370SOL     OW14008   6.172   3.944   0.644  0.6241  0.0133 -0.0246
 4370SOL    HW114009   6.179   4.000   0.561  0.9767  2.6745  1.6711
 4370SOL    HW214010   6.248   3.966   0.705 -1.1253  0.2479  2.1821
 4371SOL     OW14011   2.529   2.085   3.820  0.2414  0.4991 -0.1913
 4371SOL    HW114012   2.620   2.121   3.800  0.6135 -0.4925 -0.3531
 4371SOL    HW214013   2.507   2.099   3.916  0.7729  0.3189 -0.0408
 4372SOL     OW14014   1.456   2.657   5.037 -0.6464 -0.1023 -0.3928
 4372SOL    HW114015   1.451   2.747   4.995  0.4593 -0.0320 -0.4048
 4372SOL    HW214016   1.438   2.587   4.967 -0.6414  0.0817 -0.5803
 4373SOL     OW14017   4.688   0.440   0.142  0.4062 -0.5489  0.1531
 4373SOL    HW114018   4.619   0.507   0.112  2.0176  1.2456  0.2333
 4373SOL    HW214019   4.767   0.489   0.181  0.8598 -2.5899  2.0177
 4374SOL     OW14020   1.375   5.904   2.294  0.1877  0.0929  0.5301
 4374SOL    HW114021   1.291   5.866   2.256 -1.2739  1.1955  2.4259
 4374SOL    HW214022   1.450   5.839   2.282 -1.0470 -1.1687 -0.7370
 4375SOL     OW14023   4.102   0.464   5.203  0.0419 -0.3255  0.1831
 4375SOL    HW114024   4.035   0.391   5.185 -1.4659  0.6859  1.4096
 4375SOL    HW214025   4.072   0.518   5.282  1.1839  1.5500 -0.5918
 4376SOL     OW14026   4.544   5.734   6.588 -0.3548 -0.0937  0.4021
 4376SOL    HW114027   4.634   5.735   6.631  0.9444 -0.2598 -2.1547
 4376SOL    HW214028   4.478   5.693   6.651  1.7109 -1.6444  1.6986
 4377SOL     OW14029   0.598   6.002   1.036  0.2661 -0.0932 -0.0993
 4377SOL    HW114030   0.590   6.029   1.132  1.6471  0.8745 -0.2288
 4377SOL    HW214031   0.526   5.936   1.014  1.3701 -2.2682  2.2531
 4378SOL     OW14032   2.905   4.564   0.998 -0.3159 -0.1036 -0.2845
 4378SOL    HW114033   2.913   4.465   0.998 -1.3708 -0.2339 -2.0060
 4378SOL    HW214034   2.946   4.601   0.914  0.3247  0.9590  0.4673
 4379SOL     OW14035   5.347   0.691   2.265 -0.3640  0.0438 -0.0033
 4379SOL    HW114036   5.432   0.656   2.224 -0.1490  1.9255 -1.2837
 4379SOL    HW214037   5.336   0.787   2.241 -3.0113 -0.2120 -0.0930
 4380SOL     OW14038   2.585   6.636   6.321  0.5781  0.9683  0.2399
 4380SOL    HW114039   2.627   6.621   6.410  1.7374  0.0602 -0.4320
 4380SOL    HW214040   2.490   6.666   6.333  1.0999  2.1316  1.7813
 4381SOL     OW14041   2.500   6.712   5.553 -0.1206 -0.2449  0.1982
 4381SOL    HW114042   2.506   6.755   5.463 -3.8823 -0.0599 -0.1293
 4381SOL    HW214043   2.566   6.755   5.615  1.6493  0.5210 -2.0654
 4382SOL     OW14044   5.864   6.676   2.354  0.2480  0.0217  0.7849
 4382SOL    HW114045   5.890   6.674   2.258  1.5506  0.5925  1.0965
 4382SOL    HW214046   5.893   6.591   2.399  1.6567  0.6368  1.1206
 4383SOL     OW14047   2.184   6.202   5.212 -0.7127  0.1695 -0.5396
 4383SOL    HW114048   2.086   6.195   5.196 -1.1052 -0.4783  1.8645
 4383SOL    HW214049   2.202   6.270   5.283  0.7454  1.3933 -1.9896
 4384SOL     OW14050   3.876   1.408   1.349 -0.4820  0.2683  0.3056
 4384SOL    HW114051   3.808   1.396   1.422  0.9577 -0.5915  1.5704
 4384SOL    HW214052   3.922   1.495   1.360 -1.4790  0.9490 -0.6812
 4385SOL     OW14053   4.741   4.090   3.157 -0.3113  0.0297 -0.1416
 4385SOL    HW114054   4.702   4.102   3.066  0.7413  2.3926 -0.3792
 4385SOL    HW214055   4.825   4.145   3.164 -0.4897  0.0972  2.3108
 4386SOL     OW14056   6.773   5.365   0.788 -0.2498 -0.4359 -0.3888
 4386SOL    HW114057   6.757   5.310   0.870 -3.2341  1.3811  0.4312
 4386SOL    HW214058   6.686   5.406   0.759  1.6693  3.6158 -1.0541
 4387SOL     OW14059   5.816   3.107   1.416 -0.1453 -0.2677  0.0387
 4387SOL    HW114060   5.733   3.153   1.447  0.3429 -0.5704  1.8597
 4387SOL    HW214061   5.880   3.096   1.492  1.2694 -0.7229 -1.1539
 4388SOL     OW14062   4.161   1.174   5.312  0.8682 -0.4562  0.3024
 4388SOL    HW114063   4.185   1.271   5.317  1.8392 -0.7415  2.5073
 4388SOL    HW214064   4.120   1.145   5.399  0.1772 -1.9191 -0.4733
 4389SOL     OW14065   1.609   2.723   1.566  0.1368  0.3078  0.2227
 4389SOL    HW114066   1.584   2.804   1.512 -1.4970  0.8254  1.6572
 4389SOL    HW214067   1.616   2.644   1.506 -1.2595  0.9316 -0.8352
 4390SOL     OW14068   4.976   4.596   6.895 -0.4593  0.4647  0.2087
 4390SOL    HW114069   5.045   4.525   6.900 -1.2262 -0.2029  2.9074
 4390SOL    HW214070   4.886   4.558   6.917 -1.2865  1.8067 -0.6708
 4391SOL     OW14071   1.812   5.937   2.639 -0.4051 -0.0060  0.3473
 4391SOL    HW114072   1.750   6.015   2.649  0.4217  1.0218 -1.9671
 4391SOL    HW214073   1.892   5.951   2.698 -0.8396  0.2604  0.8864
 4392SOL     OW14074   6.974   3.732   2.851 -0.0685 -0.5915 -0.2380
 4392SOL    HW114075   6.889   3.690   2.819 -0.2587  1.2677 -2.4619
 4392SOL    HW214076   6.958   3.828   2.872  1.1998 -0.5724  0.7939
 4393SOL     OW14077   4.329   0.362   4.623 -0.1845  0.9959 -0.3192
 4393SOL    HW114078   4.255   0.422   4.655  0.0704  0.3780  1.4920
 4393SOL    HW214079   4.417   0.406   4.640  0.1490 -0.6831  3.1299
 4394SOL     OW14080   4.674   0.612   2.724  0.1575  0.0477  0.2477
 4394SOL    HW114081   4.659   0.519   2.759  0.3170 -0.7737 -1.7219
 4394SOL    HW214082   4.758   0.613   2.669  0.4108  1.4930  0.6354
 4395SOL     OW14083   4.847   5.260   3.005  0.1607  0.7390  0.0750
 4395SOL    HW114084   4.803   5.235   3.091 -0.3358 -0.3679 -0.4859
 4395SOL    HW214085   4.923   5.197   2.987  0.7717  1.4537  0.0786
 4396SOL     OW14086   4.325   0.778   0.859 -0.1467  0.2798  0.1158
 4396SOL    HW114087   4.288   0.805   0.948 -0.7610  0.3116 -0.1458
 4396SOL    HW214088   4.378   0.694   0.869 -0.3615  0.1846  0.4794
 4397SOL     OW14089   3.450   1.833   6.617  0.4824  0.2246 -0.3681
 4397SOL    HW114090   3.393   1.897   6.565 -0.9992 -0.7811 -0.0447
 4397SOL    HW214091   3.543   1.869   6.623 -0.2502  2.2489 -0.3542
 4398SOL     OW14092   0.450   5.697   5.758 -0.0110 -0.5145  0.0072
 4398SOL    HW114093   0.384   5.689   5.833  1.3592 -1.4042  1.1642
 4398SOL    HW214094   0.542   5.678   5.791  0.6138 -1.2970 -1.9865
 4399SOL     OW14095   3.269   6.174   1.952 -0.2523  0.8379  0.3339
 4399SOL    HW114096   3.189   6.143   2.003  2.2283 -0.5981  3.7521
 4399SOL    HW214097   3.288   6.270   1.973 -0.3482  0.8085  0.5514
 4400SOL     OW14098   5.080   5.923   4.382  0.0109 -0.3391 -0.0708
 4400SOL    HW114099   5.095   5.972   4.296  0.7521 -0.4243  0.0104
 4400SOL    HW214100   5.056   5.828   4.361  0.1042 -0.3379 -0.1870
 4401SOL     OW14101   5.108   5.355   3.966  0.2603  0.3599  0.1473
 4401SOL    HW114102   5.035   5.356   4.034 -1.0784 -1.1222 -1.1875
 4401SOL    HW214103   5.106   5.441   3.914 -1.1633 -0.0180 -0.4721
 4402SOL     OW14104   0.304   6.215   0.680 -0.1760  0.0061  0.4850
 4402SOL    HW114105   0.294   6.294   0.740  1.3872  1.5332 -1.1434
 4402SOL    HW214106   0.393   6.172   0.696 -0.3724 -0.4841  0.2900
 4403SOL     OW14107   6.380   0.758   2.062  0.0736 -0.0979 -0.9652
 4403SOL    HW114108   6.429   0.797   2.140 -0.6325  1.5470 -1.2992
 4403SOL    HW214109   6.292   0.722   2.093  1.0763 -2.3304 -0.5049
 4404SOL     OW14110   1.405   2.787   2.652  0.3012 -0.4488  0.6381
 4404SOL    HW114111   1.406   2.690   2.631  0.0041  0.0786 -2.1844
 4404SOL    HW214112   1.494   2.827   2.629  0.3598 -0.0055  1.5933
 4405SOL     OW14113   5.054   4.829   0.969  0.0182  0.0428  0.2017
 4405SOL    HW114114   5.106   4.909   0.941  1.2434 -1.4422 -2.1251
 4405SOL    HW214115   5.115   4.750   0.976 -1.4387 -1.1264  0.3767
 4406SOL     OW14116   6.188   1.064   2.379 -0.0872 -0.1948  0.1192
 4406SOL    HW114117   6.222   1.040   2.288  0.8607  0.1275  0.3773
 4406SOL    HW214118   6.264   1.067   2.443 -0.7941 -0.8166  1.0194
 4407SOL     OW14119   0.002   0.286   5.985  0.3439 -0.0877 -0.3317
 4407SOL    HW114120  -0.041   0.283   6.075  2.5260 -1.2601  0.7781
 4407SOL    HW214121  -0.029   0.208   5.931 -0.6506  0.3757 -0.4422
 4408SOL     OW14122   5.800   6.666   3.198  0.1520 -0.1206 -0.4745
 4408SOL    HW114123   5.792   6.571   3.169  0.3520  0.2544 -1.7940
 4408SOL    HW214124   5.746   6.725   3.139 -0.9616  0.4795  1.0824
 4409SOL     OW14125   4.786   1.129   2.745  0.4641 -0.6422  0.3139
 4409SOL    HW114126   4.766   1.188   2.823 -0.8827 -0.4568 -0.1481
 4409SOL    HW214127   4.883   1.138   2.720  1.0019 -0.8943  2.0934
 4410SOL     OW14128   2.716   5.325   1.198 -0.1767  0.1347  0.4088
 4410SOL    HW114129   2.636   5.273   1.226  0.9142 -1.5054  0.5903
 4410SOL    HW214130   2.703   5.360   1.105 -0.0584 -2.4484 -0.6533
 4411SOL     OW14131   4.263   3.925   1.025  0.7235 -0.5263 -0.6386
 4411SOL    HW114132   4.247   3.998   1.092 -1.8459 -0.8450 -0.8147
 4411SOL    HW214133   4.224   3.839   1.059  1.6007 -1.2889 -1.4958
 4412SOL     OW14134   4.386   1.198   6.076  0.0049 -0.0313  0.3235
 4412SOL    HW114135   4.320   1.271   6.057 -0.0110 -0.2520 -0.4688
 4412SOL    HW214136   4.391   1.136   5.999  1.1294 -0.0326  0.3796
 4413SOL     OW14137   2.336   0.132   6.040 -0.0104 -0.0156 -0.1774
 4413SOL    HW114138   2.370   0.151   5.948 -0.9348 -0.5599 -0.6473
 4413SOL    HW214139   2.331   0.217   6.093 -2.5954  0.9083 -1.7126
 4414SOL     OW14140   3.439   3.306   2.006 -0.3875 -0.0071 -0.1759
 4414SOL    HW114141   3.474   3.219   1.972  0.5373  0.6654 -1.0055
 4414SOL    HW214142   3.347   3.322   1.970 -1.1940 -1.3120  1.1885
 4415SOL     OW14143   3.784   0.219   2.477 -0.0823  0.4701  0.0134
 4415SOL    HW114144   3.872   0.251   2.442  0.5917 -1.8506 -0.6404
 4415SOL    HW214145   3.719   0.211   2.401  0.1189 -0.6984 -0.0567
 4416SOL     OW14146   4.352   1.567   4.047  0.0731 -0.1993  0.5840
 4416SOL    HW114147   4.369   1.469   4.057 -1.2294 -0.6915 -1.2952
 4416SOL    HW214148   4.256   1.581   4.022 -0.0925  1.6822  2.0605
 4417SOL     OW14149   5.674   1.487   0.641  0.7947  0.7574  0.2249
 4417SOL    HW114150   5.733   1.480   0.722 -0.9070  2.6940  1.7436
 4417SOL    HW214151   5.668   1.583   0.614 -0.9018  0.4802 -0.4496
 4418SOL     OW14152   5.732   0.069   2.109 -0.2056 -0.0375 -0.0633
 4418SOL    HW114153   5.753   0.098   2.015  2.0026  1.0450  0.7000
 4418SOL    HW214154   5.761  -0.027   2.121 -0.9438 -0.3353 -0.6098
 4419SOL     OW14155   5.248   0.658   5.739  0.0710  0.1248 -0.3457
 4419SOL    HW114156   5.167   0.674   5.796  0.3875 -0.7503  0.3636
 4419SOL    HW214157   5.222   0.666   5.643 -1.1698 -1.4012 -0.1758
 4420SOL     OW14158   0.149   2.084   0.385  0.1114  0.4087  0.3726
 4420SOL    HW114159   0.197   2.060   0.469 -0.4986 -0.5358  0.4682
 4420SOL    HW214160   0.062   2.127   0.407  0.1261  0.5175  0.2184
 4421SOL     OW14161   5.267   1.855   4.074 -0.6933  0.2961  0.9942
 4421SOL    HW114162   5.217   1.801   4.142  0.7141 -0.3686  1.5474
 4421SOL    HW214163   5.358   1.877   4.110  0.8067 -1.6025 -1.2918
 4422SOL     OW14164   2.763   3.404   5.939 -0.0459 -0.5390  0.4977
 4422SOL    HW114165   2.768   3.325   5.878 -0.4440  0.4559 -0.8451
 4422SOL    HW214166   2.841   3.402   6.001  1.3362 -0.6607 -1.1756
 4423SOL     OW14167   0.959   2.244   6.713  0.4660  0.0119  0.2096
 4423SOL    HW114168   0.950   2.329   6.661 -1.3739  0.2041  0.7862
 4423SOL    HW214169   1.044   2.198   6.687  0.7019  1.2174 -1.2853
 4424SOL     OW14170   2.063   6.099   4.565  0.1356 -0.7315  0.5668
 4424SOL    HW114171   2.010   6.021   4.598 -0.1951 -1.0692 -0.7249
 4424SOL    HW214172   2.055   6.105   4.466  2.1700 -0.5142  0.3880
 4425SOL     OW14173   5.104   4.466   2.020  0.6384  0.9060  0.1218
 4425SOL    HW114174   5.081   4.418   2.105 -0.4007  1.0529 -0.0729
 4425SOL    HW214175   5.200   4.496   2.025  0.6761  0.6793  1.1256
 4426SOL     OW14176   5.317   0.123   6.719  0.0660 -0.5936 -0.8420
 4426SOL    HW114177   5.281   0.185   6.650  1.1843  1.2877  0.1791
 4426SOL    HW214178   5.241   0.070   6.758 -1.7725  3.0126  1.0417
 4427SOL     OW14179   6.832   5.300   5.255  0.7238  0.3189  0.5145
 4427SOL    HW114180   6.757   5.254   5.207  1.6772 -0.2175 -0.5010
 4427SOL    HW214181   6.906   5.235   5.272  1.0764  0.9006  1.2632
 4428SOL     OW14182   2.288   6.831   2.393 -0.0862  0.6563  0.0704
 4428SOL    HW114183   2.216   6.762   2.402  0.4687 -0.2349 -1.8553
 4428SOL    HW214184   2.258   6.902   2.329  0.3632  0.8152  0.0342
 4429SOL     OW14185   2.145   6.585   2.459  0.2938  0.2229  0.5046
 4429SOL    HW114186   2.168   6.506   2.515 -0.4471  0.6501  1.4445
 4429SOL    HW214187   2.081   6.558   2.387  0.6326 -0.1694  0.3457
 4430SOL     OW14188   1.722   5.911   3.090 -0.0628 -0.2068  0.1160
 4430SOL    HW114189   1.687   5.965   3.014  1.6479  0.5124 -0.2110
 4430SOL    HW214190   1.815   5.942   3.113 -0.1521 -1.0868  1.8316
 4431SOL     OW14191   1.826   1.852   3.078 -0.3087 -0.3092  0.0306
 4431SOL    HW114192   1.826   1.764   3.125  0.3477 -1.4743 -2.0080
 4431SOL    HW214193   1.880   1.918   3.130  2.2887 -2.1761 -0.0990
 4432SOL     OW14194   3.660   3.822   3.637  0.0364 -0.3414  0.1505
 4432SOL    HW114195   3.728   3.878   3.589 -1.6401  1.5532 -0.1419
 4432SOL    HW214196   3.606   3.772   3.570  1.3339 -2.1652  0.3997
 4433SOL     OW14197   4.807   0.753   1.839  0.0143  0.8729 -0.1185
 4433SOL    HW114198   4.716   0.712   1.840 -0.4558  1.7729 -1.8996
 4433SOL    HW214199   4.874   0.685   1.810 -0.2672  0.5305  0.0267
 4434SOL     OW14200   4.668   0.417   5.066 -0.3484 -0.0241  0.2882
 4434SOL    HW114201   4.599   0.487   5.050  1.1228  0.9687 -2.3121
 4434SOL    HW214202   4.759   0.456   5.053  0.6622 -1.7361  1.7643
 4435SOL     OW14203   3.659   3.044   0.776  0.5266 -0.3754 -0.3727
 4435SOL    HW114204   3.706   3.008   0.856  2.0561  1.2173 -0.4959
 4435SOL    HW214205   3.562   3.058   0.798  1.0947  0.8929  1.5448
 4436SOL     OW14206   5.674   6.933   0.791 -0.8188  0.6854  0.1690
 4436SOL    HW114207   5.630   6.906   0.705 -0.2693  0.6164 -0.0965
 4436SOL    HW214208   5.670   7.032   0.801 -0.5205  0.7296 -0.1393
 4437SOL     OW14209   3.103   0.895   6.733  0.0276 -0.1595  1.2859
 4437SOL    HW114210   3.007   0.869   6.721 -0.8599  2.4722  1.8210
 4437SOL    HW214211   3.133   0.872   6.825 -0.9124  1.1219  1.9472
 4438SOL     OW14212   2.320   2.157   6.024  0.0843 -0.6389  0.1996
 4438SOL    HW114213   2.269   2.233   5.985 -1.9208 -0.9109  2.1310
 4438SOL    HW214214   2.275   2.071   6.000  1.7605 -1.2043 -1.1172
 4439SOL     OW14215   0.382   5.412   1.723  0.1820 -0.3642 -0.4037
 4439SOL    HW114216   0.462   5.387   1.669  1.0558  0.3657  0.5031
 4439SOL    HW214217   0.300   5.370   1.684  0.9840 -1.0106 -1.4321
 4440SOL     OW14218   6.325   2.785   0.595  0.3359  0.1585 -0.0564
 4440SOL    HW114219   6.328   2.797   0.694 -2.1932  0.0844  0.0985
 4440SOL    HW214220   6.257   2.716   0.572  0.7523  0.2982 -1.8670
 4441SOL     OW14221   3.358   0.146   4.750  0.2832  0.1530  0.3348
 4441SOL    HW114222   3.419   0.088   4.804 -1.6824 -1.0798  1.3548
 4441SOL    HW214223   3.378   0.134   4.653  3.0062  1.3972  0.6608
 4442SOL     OW14224   1.391   6.191   3.062 -0.5030 -0.2471 -0.6497
 4442SOL    HW114225   1.300   6.231   3.052 -1.2621 -1.5068  0.7630
 4442SOL    HW214226   1.443   6.244   3.129 -1.7785 -1.9117  1.8013
 4443SOL     OW14227   2.412   0.101   1.124 -0.2838 -0.2073  0.1062
 4443SOL    HW114228   2.313   0.103   1.107 -1.0135 -0.5147  3.6139
 4443SOL    HW214229   2.442   0.191   1.158  0.8479  0.0801 -1.5092
 4444SOL     OW14230   4.389   1.594   4.665 -0.4986 -0.2141  1.0360
 4444SOL    HW114231   4.383   1.632   4.573 -0.1180 -1.6524  0.3912
 4444SOL    HW214232   4.298   1.574   4.700 -0.5875 -0.9021  0.4262
 4445SOL     OW14233   0.130   2.762   4.738  0.6513 -0.3024  0.1253
 4445SOL    HW114234   0.164   2.836   4.681  0.1777 -0.0426  0.1808
 4445SOL    HW214235   0.177   2.765   4.827 -1.1285  1.4905  1.0787
 4446SOL     OW14236   6.592   4.231   5.456  0.8283  0.0326  0.0521
 4446SOL    HW114237   6.611   4.167   5.531  1.5754 -2.0741 -1.8202
 4446SOL    HW214238   6.555   4.180   5.378 -0.7522  2.2732 -0.7557
 4447SOL     OW14239   5.259   4.602   5.536  0.1566 -0.0812  0.3085
 4447SOL    HW114240   5.308   4.570   5.617 -0.6361  0.1004  0.8751
 4447SOL    HW214241   5.276   4.700   5.524  1.4659 -0.3940 -0.6227
 4448SOL     OW14242   1.931   2.351   6.464  0.1634  0.4748  0.0903
 4448SOL    HW114243   2.010   2.359   6.524 -1.0355  0.0134  1.8060
 4448SOL    HW214244   1.847   2.368   6.516 -0.9504 -0.0319 -1.4432
 4449SOL     OW14245   0.973   3.954   6.961  0.0001  0.4638  0.4791
 4449SOL    HW114246   1.060   3.907   6.977 -0.3059  0.2928  1.7323
 4449SOL    HW214247   0.967   3.980   6.864 -0.3266 -3.1112 -0.6011
 4450SOL     OW14248   3.126   3.090   3.593  0.3570  0.0156  0.0918
 4450SOL    HW114249   3.159   3.178   3.556  0.1996 -0.5512 -1.4811
 4450SOL    HW214250   3.125   3.022   3.520 -1.2204 -0.8418  0.8634
 4451SOL     OW14251   6.879   5.472   1.655  0.0876 -0.7547  0.5410
 4451SOL    HW114252   6.845   5.397   1.598  0.6831 -0.5049 -0.1552
 4451SOL    HW214253   6.802   5.515   1.703 -0.4431 -0.8667 -0.1937
 4452SOL     OW14254   1.451   3.624   5.341  0.3526  0.3206  0.2944
 4452SOL    HW114255   1.540   3.669   5.347 -0.0757  1.0112  2.3971
 4452SOL    HW214256   1.420   3.597   5.433 -1.0511 -1.0518 -0.5128
 4453SOL     OW14257   6.687   1.919   0.592  0.3993 -0.0867 -0.1184
 4453SOL    HW114258   6.653   1.995   0.648 -0.8885 -0.9976  0.3873
 4453SOL    HW214259   6.726   1.849   0.652  0.7949 -0.2120 -0.5177
 4454SOL     OW14260   5.966   4.877   1.761  0.1672  0.2614  0.9410
 4454SOL    HW114261   5.935   4.930   1.682  1.5378 -1.0168 -0.5123
 4454SOL    HW214262   5.888   4.827   1.799 -0.2071 -0.5464 -0.7810
 4455SOL     OW14263   4.087   1.603   2.472  0.2820  0.0279 -0.9919
 4455SOL    HW114264   4.104   1.612   2.374  0.0174 -0.2085 -1.0627
 4455SOL    HW214265   4.110   1.510   2.501 -0.3636 -0.1431 -0.9900
 4456SOL     OW14266   5.715   5.095   2.275  0.2210 -0.0444 -0.0244
 4456SOL    HW114267   5.799   5.051   2.242 -0.2092 -1.4175  0.6535
 4456SOL    HW214268   5.680   5.157   2.205  1.1987 -0.2968 -0.7524
 4457SOL     OW14269   5.028   4.815   5.622  0.1235  0.7360 -0.1452
 4457SOL    HW114270   5.005   4.722   5.591  0.4650  0.7441 -0.4214
 4457SOL    HW214271   4.948   4.855   5.666 -0.1895  0.5086 -0.4986
 4458SOL     OW14272   6.567   2.360   0.399  0.0859 -0.4998  0.0457
 4458SOL    HW114273   6.564   2.448   0.350  0.2677 -0.2766  0.4322
 4458SOL    HW214274   6.661   2.341   0.428 -0.1435 -0.2654  0.9654
 4459SOL     OW14275   6.429   5.743   5.518 -0.3374  0.0688 -0.1439
 4459SOL    HW114276   6.484   5.676   5.468  0.0253 -0.1827  0.5808
 4459SOL    HW214277   6.480   5.829   5.524 -0.6825  0.3331 -0.8198
 4460SOL     OW14278   1.134   5.875   1.953  0.0023  0.1231  0.0526
 4460SOL    HW114279   1.040   5.901   1.972 -0.2294  0.7618 -1.7094
 4460SOL    HW214280   1.168   5.929   1.875  1.2355 -1.3202 -0.4599
 4461SOL     OW14281   2.704   6.584   3.719  0.0011  0.0004 -0.7619
 4461SOL    HW114282   2.607   6.569   3.735  0.1253 -0.1074 -0.0741
 4461SOL    HW214283   2.720   6.682   3.708 -0.0843  0.1010 -0.0799
 4462SOL     OW14284   0.303   2.512   6.996  0.5077  0.6858 -0.7851
 4462SOL    HW114285   0.232   2.515   7.066  1.8212 -1.7765  0.7816
 4462SOL    HW214286   0.393   2.519   7.039  1.3520 -0.4405 -2.2637
 4463SOL     OW14287   1.619   4.648   0.265 -0.1710 -0.0325 -0.2958
 4463SOL    HW114288   1.566   4.635   0.182  0.7611 -0.0130 -0.9132
 4463SOL    HW214289   1.690   4.577   0.271 -0.7992 -0.5899  0.9562
 4464SOL     OW14290   6.382   3.635   6.608  0.3943  0.2232 -0.0751
 4464SOL    HW114291   6.296   3.596   6.576 -0.9124  0.0051  3.2765
 4464SOL    HW214292   6.451   3.563   6.614  0.1640 -0.0579 -0.7566
 4465SOL     OW14293   0.447   5.325   6.834 -0.5901 -0.4027 -0.0397
 4465SOL    HW114294   0.461   5.424   6.835 -0.8021 -0.2900 -2.8080
 4465SOL    HW214295   0.501   5.284   6.908  2.7627  1.3992 -1.2809
 4466SOL     OW14296   5.563   4.536   2.378 -0.0701  0.1223  0.3289
 4466SOL    HW114297   5.614   4.555   2.294 -0.7295  2.1446  0.3274
 4466SOL    HW214298   5.626   4.525   2.454  0.4641  0.2319 -0.0949
 4467SOL     OW14299   1.732   1.861   3.404 -0.1948  0.2773 -0.4372
 4467SOL    HW114300   1.769   1.818   3.486 -0.6287 -0.1774 -0.4676
 4467SOL    HW214301   1.800   1.922   3.364  0.2635 -0.0197 -0.1211
 4468SOL     OW14302   6.682   0.417   6.454  0.3025  0.4281 -0.0630
 4468SOL    HW114303   6.723   0.326   6.449 -1.4459 -0.4232  0.2565
 4468SOL    HW214304   6.596   0.417   6.402  0.5584  2.0697 -0.5269
 4469SOL     OW14305   6.788   0.507   0.209 -0.1527  0.5800  0.1411
 4469SOL    HW114306   6.791   0.607   0.204  0.7856  0.7078  2.3629
 4469SOL    HW214307   6.845   0.468   0.137 -0.2855  1.6282 -0.5559
 4470SOL     OW14308   5.488   5.102   1.863 -0.0789  0.0302 -0.2023
 4470SOL    HW114309   5.488   5.035   1.790  1.1792 -1.0465  0.7531
 4470SOL    HW214310   5.407   5.161   1.854 -1.1376 -1.5089 -1.1371
 4471SOL     OW14311   4.818   2.983   0.740 -0.0851  0.3121 -1.1512
 4471SOL    HW114312   4.821   2.886   0.714  0.1863 -0.4544  1.4783
 4471SOL    HW214313   4.723   3.011   0.754 -0.0744 -0.6741  1.5249
 4472SOL     OW14314   2.937   5.890   1.527 -0.5406  0.1800  0.0341
 4472SOL    HW114315   2.879   5.964   1.490 -0.6557 -0.7872 -1.8306
 4472SOL    HW214316   2.913   5.804   1.482  1.0457 -0.6070  0.6408
 4473SOL     OW14317   4.362   0.463   1.385  0.0224 -0.2042  0.0340
 4473SOL    HW114318   4.389   0.402   1.459  1.2887  0.7590  0.4000
 4473SOL    HW214319   4.270   0.499   1.403 -0.3780 -1.3042  0.2466
 4474SOL     OW14320   0.012   3.574   5.511  0.2459 -0.4416  0.3675
 4474SOL    HW114321  -0.001   3.654   5.570  0.9260  0.3719 -0.5671
 4474SOL    HW214322   0.084   3.592   5.445  0.2236 -1.7393 -0.0418
 4475SOL     OW14323   1.166   3.366   0.626 -0.2081 -0.2357 -0.3544
 4475SOL    HW114324   1.228   3.408   0.560  0.6688 -0.1490  0.4960
 4475SOL    HW214325   1.076   3.352   0.584  0.2268  0.1375 -1.4402
 4476SOL     OW14326   1.444   6.509   2.815 -0.0375 -0.3686  0.4140
 4476SOL    HW114327   1.386   6.447   2.763  0.1184 -0.6328  0.5523
 4476SOL    HW214328   1.437   6.602   2.777  0.6367 -0.6927 -0.5475
 4477SOL     OW14329   0.798   3.292   0.715 -0.3586  0.0484  0.2217
 4477SOL    HW114330   0.719   3.238   0.685 -0.1938  0.2473 -0.5942
 4477SOL    HW214331   0.767   3.370   0.769 -0.5641 -1.2186  2.0107
 4478SOL     OW14332   2.837   5.092   1.822  0.1161  0.4559 -0.5320
 4478SOL    HW114333   2.828   5.017   1.756 -0.6410  1.9204 -2.1589
 4478SOL    HW214334   2.934   5.110   1.839  0.3680 -1.9122  1.1893
 4479SOL     OW14335   0.657   5.983   0.428  0.1795  0.1006 -0.3421
 4479SOL    HW114336   0.570   6.029   0.411  0.5202  0.6216 -0.6852
 4479SOL    HW214337   0.712   5.984   0.345  0.7058  0.1915  0.0085
 4480SOL     OW14338   0.160   1.080   3.007 -0.3862  0.2683  0.2552
 4480SOL    HW114339   0.078   1.023   3.019 -0.7677  0.5866 -0.7421
 4480SOL    HW214340   0.138   1.175   3.027 -0.0308  0.2423  0.8099
 4481SOL     OW14341   1.348   6.357   2.589 -0.6286  0.1432  0.2590
 4481SOL    HW114342   1.308   6.362   2.497 -0.7278 -0.6734  0.2440
 4481SOL    HW214343   1.288   6.303   2.648  0.1979 -0.6720  0.3763
 4482SOL     OW14344   0.768   4.194   2.676  0.5612 -0.4808  0.2887
 4482SOL    HW114345   0.861   4.217   2.648  0.0113  1.3638 -0.1281
 4482SOL    HW214346   0.704   4.263   2.642 -0.7521 -0.7716  2.0144
 4483SOL     OW14347   5.938   4.093   5.935 -0.0129 -0.3137  0.2410
 4483SOL    HW114348   5.947   4.080   6.034  1.4275 -1.0527  0.0305
 4483SOL    HW214349   5.967   4.010   5.888 -3.3316 -1.0410 -0.7659
 4484SOL     OW14350   2.086   4.726   5.205  0.1485  0.2091  0.2304
 4484SOL    HW114351   2.175   4.715   5.163 -0.6235 -1.1330 -1.1385
 4484SOL    HW214352   2.078   4.665   5.284 -0.6495 -2.1591 -1.5730
 4485SOL     OW14353   2.215   6.434   5.395  0.0658 -0.1884  0.5291
 4485SOL    HW114354   2.145   6.486   5.346  1.0020 -0.3812 -1.0898
 4485SOL    HW214355   2.213   6.459   5.492 -1.0455  1.1250  0.1994
 4486SOL     OW14356   5.444   4.430   1.982 -0.1903 -0.2428  0.7615
 4486SOL    HW114357   5.440   4.330   1.985 -0.4737 -0.3858 -1.8233
 4486SOL    HW214358   5.465   4.459   1.889  0.3419  2.1292  1.5565
 4487SOL     OW14359   2.524   2.050   0.327 -0.5598 -0.5179  0.3984
 4487SOL    HW114360   2.587   2.070   0.252 -0.3239 -0.9445  0.4768
 4487SOL    HW214361   2.430   2.054   0.294 -0.4230 -2.4882 -0.3895
 4488SOL     OW14362   5.701   3.994   6.829 -0.0174  0.1749 -0.3986
 4488SOL    HW114363   5.771   4.039   6.775  0.4621 -0.7518 -0.5685
 4488SOL    HW214364   5.658   3.922   6.775 -0.0423 -0.2691  0.2011
 4489SOL     OW14365   0.846   1.901   4.694 -0.0747  0.3172 -0.9311
 4489SOL    HW114366   0.939   1.904   4.730  0.1142  1.3928 -1.4713
 4489SOL    HW214367   0.798   1.984   4.721 -2.0123 -1.5930  2.2237
 4490SOL     OW14368   6.487   0.494   2.633 -0.3337  0.2535 -0.0237
 4490SOL    HW114369   6.441   0.577   2.664  0.0656 -0.3845  2.5012
 4490SOL    HW214370   6.439   0.414   2.668  1.6752 -0.4639  1.2910
 4491SOL     OW14371   3.690   5.527   2.095  0.1864  0.3111  0.3464
 4491SOL    HW114372   3.674   5.480   2.182 -0.7784  0.3397  0.1898
 4491SOL    HW214373   3.680   5.626   2.108 -0.9385  0.2516  0.0006
 4492SOL     OW14374   4.703   3.657   0.076 -0.6204  0.0163  0.3331
 4492SOL    HW114375   4.648   3.707   0.144 -0.5264  1.0254 -0.3042
 4492SOL    HW214376   4.677   3.688  -0.016  0.8718  0.3818  0.0122
 4493SOL     OW14377   6.523   3.263   3.529  0.6098  0.1161  0.2038
 4493SOL    HW114378   6.567   3.315   3.456  0.4769  0.8586  0.6508
 4493SOL    HW214379   6.432   3.234   3.498  0.8687 -0.2750 -0.2188
 4494SOL     OW14380   6.729   5.197   1.644 -0.0437  0.5671 -0.2270
 4494SOL    HW114381   6.718   5.106   1.605  0.9107  1.3444 -2.5047
 4494SOL    HW214382   6.673   5.262   1.592  0.8610  1.5868  0.0379
 4495SOL     OW14383   6.191   5.199   1.739  0.1479 -0.3462 -0.3318
 4495SOL    HW114384   6.213   5.292   1.710  3.5297 -1.8172 -3.1731
 4495SOL    HW214385   6.113   5.165   1.687  0.5242  0.0645 -1.1772
 4496SOL     OW14386   5.975   4.363   5.996 -0.3706 -0.2020 -0.1976
 4496SOL    HW114387   5.971   4.263   5.985 -0.8491 -0.0834 -1.0949
 4496SOL    HW214388   5.998   4.384   6.092 -2.9846 -1.1400  0.7295
 4497SOL     OW14389   6.357   1.396   1.884 -0.4921 -0.3199  0.1525
 4497SOL    HW114390   6.323   1.349   1.966  0.0068 -1.3073 -0.1899
 4497SOL    HW214391   6.457   1.397   1.885 -0.4827 -0.3493 -0.4506
 4498SOL     OW14392   2.894   3.252   6.934 -0.4042 -0.8223  0.2096
 4498SOL    HW114393   2.904   3.243   6.835 -0.2276 -0.9011  0.2350
 4498SOL    HW214394   2.959   3.192   6.980 -1.5728 -2.0172  0.3728
 4499SOL     OW14395   5.577   5.014   0.200  0.1017  0.6071 -0.0159
 4499SOL    HW114396   5.609   5.099   0.159 -0.6042  0.4658 -0.8725
 4499SOL    HW214397   5.478   5.005   0.187  0.4729 -1.4202 -2.0177
 4500SOL     OW14398   3.414   2.988   3.357  0.1476  0.4162  0.0319
 4500SOL    HW114399   3.432   2.923   3.283 -1.8703 -0.4632  0.2340
 4500SOL    HW214400   3.324   3.030   3.344 -0.5934 -0.2936  2.2818
 4501SOL     OW14401   0.659   5.319   4.493 -0.1188 -0.1858 -0.0292
 4501SOL    HW114402   0.703   5.231   4.513 -1.2709 -0.3274  2.2694
 4501SOL    HW214403   0.580   5.304   4.433 -0.0120 -0.6475 -0.0586
 4502SOL     OW14404   6.273   3.052   6.902  0.2342  0.0731  0.3105
 4502SOL    HW114405   6.254   3.122   6.971 -0.3833  0.4985 -0.2768
 4502SOL    HW214406   6.269   3.093   6.811  0.0537 -0.6885 -0.0318
 4503SOL     OW14407   1.566   3.095   2.647 -0.1029  0.2157  0.5502
 4503SOL    HW114408   1.466   3.103   2.652 -0.1613  0.4958 -0.5957
 4503SOL    HW214409   1.607   3.124   2.733 -1.0402 -0.4201  1.2232
 4504SOL     OW14410   4.199   1.814   4.992 -0.4213 -0.1107  0.1419
 4504SOL    HW114411   4.218   1.807   4.894  1.5270 -2.6924  0.5972
 4504SOL    HW214412   4.163   1.726   5.025 -0.4064  0.4970  1.8532
 4505SOL     OW14413   3.409   6.014   0.114  0.0862 -0.0390  0.4284
 4505SOL    HW114414   3.504   6.040   0.134  0.3326  1.8343 -2.6128
 4505SOL    HW214415   3.407   5.920   0.080  0.6325 -0.5433  1.7279
 4506SOL     OW14416   3.775   6.202   6.256  0.0080  0.1305 -0.0544
 4506SOL    HW114417   3.699   6.164   6.203 -2.2081  2.3373  1.2724
 4506SOL    HW214418   3.746   6.213   6.352  1.6998  1.7862  0.3255
 4507SOL     OW14419   6.153   3.639   0.740  0.1542 -0.1159  0.2832
 4507SOL    HW114420   6.249   3.651   0.765 -0.0253 -1.5002  1.7489
 4507SOL    HW214421   6.096   3.650   0.821 -0.8997  0.1366 -0.4713
 4508SOL     OW14422   3.319   4.867   1.775  0.1454 -0.4480  0.0840
 4508SOL    HW114423   3.295   4.961   1.751 -0.7254 -0.2406  1.6642
 4508SOL    HW214424   3.392   4.835   1.714 -1.4605  0.2487 -2.3334
 4509SOL     OW14425   6.949   2.775   4.259  0.1445 -0.4846  0.2020
 4509SOL    HW114426   6.850   2.779   4.249  0.1355  0.0842  0.5127
 4509SOL    HW214427   6.979   2.679   4.257 -0.5107 -0.7147  1.1021
 4510SOL     OW14428   2.345   0.703   0.822 -0.4413 -0.1284  0.1675
 4510SOL    HW114429   2.397   0.702   0.907 -0.6520  0.6374  0.3118
 4510SOL    HW214430   2.305   0.794   0.808 -1.9549 -0.7525  0.1947
 4511SOL     OW14431   0.538   2.938   1.231  0.1645  0.0057  0.2013
 4511SOL    HW114432   0.583   2.970   1.148 -0.4405 -1.2894 -0.6526
 4511SOL    HW214433   0.509   3.017   1.285 -1.8068  0.9815 -2.1127
 4512SOL     OW14434   2.050   3.699   1.431 -0.1097  0.0907  0.3259
 4512SOL    HW114435   2.025   3.762   1.505 -1.9918  0.2136 -0.3604
 4512SOL    HW214436   1.980   3.703   1.359  0.5218 -1.6878 -0.4266
 4513SOL     OW14437   5.953   2.906   3.071  0.9582  0.1373 -0.0373
 4513SOL    HW114438   5.976   2.998   3.039  0.0881  0.2181 -0.4562
 4513SOL    HW214439   5.855   2.900   3.089  0.7254 -1.1443 -1.5336
 4514SOL     OW14440   1.121   0.234   5.154  0.8794 -0.0086  0.1260
 4514SOL    HW114441   1.159   0.228   5.062 -0.8525  1.9963 -0.8201
 4514SOL    HW214442   1.183   0.286   5.213  0.7373  1.1174 -0.7005
 4515SOL     OW14443   1.861   4.117   0.114  0.7766 -0.5474 -0.0747
 4515SOL    HW114444   1.870   4.210   0.076  1.0388 -0.6543 -0.2791
 4515SOL    HW214445   1.951   4.073   0.114  0.4293 -1.3153 -1.2989
 4516SOL     OW14446   6.086   1.256   3.463  0.8475 -0.6347  0.5301
 4516SOL    HW114447   6.033   1.236   3.545  0.0738  0.0883  0.2192
 4516SOL    HW214448   6.100   1.354   3.456 -0.7919 -0.4671 -1.2119
 4517SOL     OW14449   3.353   6.983   0.668  0.2921 -0.3610 -0.0697
 4517SOL    HW114450   3.439   6.998   0.717  0.0055 -1.1363  0.6958
 4517SOL    HW214451   3.354   7.036   0.583  0.4405  1.7724  1.1645
 4518SOL     OW14452   0.404   6.801   4.215  0.2762  0.0484 -0.3495
 4518SOL    HW114453   0.319   6.847   4.190 -0.4122 -1.4831 -0.9008
 4518SOL    HW214454   0.415   6.805   4.315 -1.0947 -0.8071 -0.1372
 4519SOL     OW14455   1.855   2.389   5.305  0.0843 -0.3114 -0.2740
 4519SOL    HW114456   1.906   2.475   5.295  0.0437 -0.3412 -0.7679
 4519SOL    HW214457   1.768   2.396   5.257  0.1919 -0.7140 -0.5382
 4520SOL     OW14458   0.446   4.252   2.893  0.4596 -0.5695  0.0981
 4520SOL    HW114459   0.410   4.249   2.800  0.1802 -2.1491  0.2252
 4520SOL    HW214460   0.514   4.179   2.904  1.2556  0.2654  0.8381
 4521SOL     OW14461   4.686   2.662   0.372  0.1289 -0.0196  0.1036
 4521SOL    HW114462   4.771   2.714   0.381 -0.5798  1.2696 -0.4821
 4521SOL    HW214463   4.676   2.601   0.450  1.2477  0.3053  0.5252
 4522SOL     OW14464   4.471   6.189   1.655  0.0159 -0.0528  1.1360
 4522SOL    HW114465   4.395   6.217   1.596 -0.3800  0.7860  2.0049
 4522SOL    HW214466   4.462   6.092   1.677 -0.4304 -0.1175  0.6852
 4523SOL     OW14467   6.082   2.294   6.397  0.1335 -0.4236  0.4721
 4523SOL    HW114468   6.113   2.295   6.302 -2.5701 -0.4142 -0.5116
 4523SOL    HW214469   5.983   2.309   6.400  0.0233 -1.0551  3.2678
 4524SOL     OW14470   4.939   1.407   5.093  0.2485 -0.0502 -0.3100
 4524SOL    HW114471   4.923   1.501   5.121 -1.1801 -0.3921  0.0748
 4524SOL    HW214472   4.884   1.345   5.149 -1.6878 -0.8502 -2.8690
 4525SOL     OW14473   4.286   2.120   2.810 -0.1715  0.0631  0.3083
 4525SOL    HW114474   4.192   2.087   2.824 -0.5264  0.2489 -1.3552
 4525SOL    HW214475   4.335   2.056   2.751  0.4100  0.5001  0.3125
 4526SOL     OW14476   3.550   2.510   0.621 -0.4640 -0.0561 -0.0457
 4526SOL    HW114477   3.552   2.514   0.721 -2.5269 -0.9654  0.0735
 4526SOL    HW214478   3.562   2.416   0.591 -1.0172  0.0404 -0.5957
 4527SOL     OW14479   5.441   1.267   2.002 -0.9186  0.7375 -0.0597
 4527SOL    HW114480   5.387   1.182   1.996 -2.4096  1.6070  0.5812
 4527SOL    HW214481   5.398   1.329   2.067  1.2944  1.1990  1.0548
 4528SOL     OW14482   4.319   5.930   6.468  0.2781 -0.6170 -0.0809
 4528SOL    HW114483   4.309   5.854   6.532 -0.5329  1.2476  2.1537
 4528SOL    HW214484   4.359   6.008   6.515 -1.0117  1.0959 -1.6572
 4529SOL     OW14485   1.728   6.399   2.713  0.2169 -0.2550  0.1770
 4529SOL    HW114486   1.775   6.471   2.661  1.1213  0.5296  1.9605
 4529SOL    HW214487   1.639   6.433   2.742 -1.7397 -1.8250 -3.4003
 4530SOL     OW14488   5.089   0.895   4.164  0.2290  0.0077 -0.5737
 4530SOL    HW114489   5.040   0.978   4.137 -0.2259 -0.8471 -2.6166
 4530SOL    HW214490   5.074   0.825   4.095  1.1092 -1.5903  0.7992
 4531SOL     OW14491   6.854   1.756   3.507 -0.2606  0.7192 -0.3838
 4531SOL    HW114492   6.938   1.810   3.521  2.8954 -3.6854 -0.2769
 4531SOL    HW214493   6.858   1.710   3.419 -1.4704 -1.3019  0.5411
 4532SOL     OW14494   2.485   2.500   1.757 -0.4989  0.5196 -0.0577
 4532SOL    HW114495   2.536   2.568   1.704 -0.0035  0.9962  0.9999
 4532SOL    HW214496   2.549   2.446   1.812 -1.1053  1.4630  1.6809
 4533SOL     OW14497   3.234   4.708   0.571  0.0586  0.2491  0.5211
 4533SOL    HW114498   3.310   4.752   0.619 -0.1184  0.8642  0.2565
 4533SOL    HW214499   3.260   4.616   0.543  0.8690  0.6086  0.0591
 4534SOL     OW14500   6.698   0.805   6.211  0.0928  0.6037  0.2802
 4534SOL    HW114501   6.767   0.818   6.283  0.3631 -0.4901  0.2476
 4534SOL    HW214502   6.739   0.753   6.136 -1.2288 -1.8350  1.1110
 4535SOL     OW14503   2.248   2.318   3.439  0.2065  0.2874 -0.7574
 4535SOL    HW114504   2.189   2.318   3.358  0.4093  1.0924 -0.9146
 4535SOL    HW214505   2.203   2.368   3.513  0.4850  0.5095 -0.7328
 4536SOL     OW14506   4.857   0.848   2.594 -0.1501  0.6523 -0.0983
 4536SOL    HW114507   4.896   0.921   2.650  0.2135 -0.0443  0.5826
 4536SOL    HW214508   4.929   0.804   2.540 -0.2029  0.2103  0.1841
 4537SOL     OW14509   4.059   2.314   6.147  0.2918 -0.1118 -0.0037
 4537SOL    HW114510   4.148   2.336   6.108 -0.3190 -0.8340 -1.9657
 4537SOL    HW214511   3.991   2.379   6.113 -0.0983 -0.1205  0.7353
 4538SOL     OW14512   4.792   2.492   0.175 -0.3439  0.3515  0.1206
 4538SOL    HW114513   4.881   2.514   0.134 -0.6897  0.5269 -0.5403
 4538SOL    HW214514   4.774   2.557   0.249  1.3945 -1.4344  2.2794
 4539SOL     OW14515   1.461   4.221   6.496  0.1115 -0.2548 -0.1257
 4539SOL    HW114516   1.504   4.277   6.425  0.6666 -2.3564 -1.5537
 4539SOL    HW214517   1.385   4.271   6.537  3.3567  3.3777  2.0418
 4540SOL     OW14518   4.163   3.356   3.999 -0.1697 -0.5016  0.4631
 4540SOL    HW114519   4.119   3.271   3.970 -0.4430  0.0195 -0.7393
 4540SOL    HW214520   4.263   3.346   3.993 -0.2164 -0.4497 -0.6118
 4541SOL     OW14521   5.800   1.019   0.710 -0.0022  0.6631  0.1697
 4541SOL    HW114522   5.721   1.079   0.698  0.6670  1.1102 -2.8707
 4541SOL    HW214523   5.770   0.924   0.711 -0.5655  0.6904 -3.1103
 4542SOL     OW14524   5.210   6.411   3.262 -0.0276  0.0182  0.0710
 4542SOL    HW114525   5.158   6.399   3.177 -2.4023  2.7481  0.9714
 4542SOL    HW214526   5.269   6.491   3.255 -2.7991  2.4554  1.8891
 4543SOL     OW14527   5.051   3.273   2.144 -0.1513  0.0534  0.6990
 4543SOL    HW114528   5.030   3.328   2.063 -1.6271 -0.0121  1.0039
 4543SOL    HW214529   4.969   3.265   2.201 -0.0917 -2.6853  0.5441
 4544SOL     OW14530   6.330   5.501   1.278  0.0266  0.3852 -0.0778
 4544SOL    HW114531   6.365   5.442   1.205  0.8789  1.5794 -0.6875
 4544SOL    HW214532   6.322   5.595   1.243  1.1025  1.1207  1.5338
 4545SOL     OW14533   4.811   3.096   6.620 -0.0094 -0.3350  0.8544
 4545SOL    HW114534   4.759   3.011   6.630 -0.5067 -0.0934  0.3815
 4545SOL    HW214535   4.779   3.163   6.687 -2.4430  0.8402 -1.2815
 4546SOL     OW14536   6.065   5.391   0.067  0.3792  0.2822 -0.1043
 4546SOL    HW114537   6.129   5.316   0.046  0.5295  0.0278  1.2271
 4546SOL    HW214538   5.998   5.398  -0.007 -0.1110 -1.6776  0.0879
 4547SOL     OW14539   4.442   1.881   1.828  0.1780 -0.3724 -0.2516
 4547SOL    HW114540   4.481   1.790   1.844 -1.8278 -1.6081 -2.0432
 4547SOL    HW214541   4.462   1.910   1.735 -1.5644 -0.2181 -0.5960
 4548SOL     OW14542   1.761   4.000   4.749 -0.4727  0.3827 -0.1149
 4548SOL    HW114543   1.760   4.099   4.767 -1.2262  0.6912 -1.7077
 4548SOL    HW214544   1.748   3.951   4.835 -1.6926  1.7011  0.5004
 4549SOL     OW14545   5.631   1.019   5.184 -0.2294  0.0967  0.1517
 4549SOL    HW114546   5.635   1.048   5.089  0.1012  0.7430  0.3565
 4549SOL    HW214547   5.721   0.986   5.213  0.3727  2.2582  0.9482
 4550SOL     OW14548   3.494   6.106   4.416 -0.1786  0.0759 -0.0784
 4550SOL    HW114549   3.465   6.089   4.510  3.1226 -0.8837  0.8952
 4550SOL    HW214550   3.528   6.200   4.409 -0.2920  0.1027 -0.2584
 4551SOL     OW14551   6.145   3.401   0.269  0.5388  0.5487  0.1168
 4551SOL    HW114552   6.074   3.469   0.253 -0.2132 -0.0778  0.6979
 4551SOL    HW214553   6.138   3.368   0.363  0.7066 -0.5371 -0.2416
 4552SOL     OW14554   1.065   2.082   5.094  0.7985 -0.4770 -0.4519
 4552SOL    HW114555   1.086   2.153   5.161 -0.3212 -0.0763 -0.5139
 4552SOL    HW214556   1.091   2.115   5.003 -1.3260  0.6049 -0.7202
 4553SOL     OW14557   6.281   5.468   5.612 -0.6066  0.6235 -0.2440
 4553SOL    HW114558   6.186   5.468   5.579 -0.6932  2.4398 -0.0768
 4553SOL    HW214559   6.295   5.547   5.672  1.0671  0.4588 -0.3921
 4554SOL     OW14560   0.656   3.869   4.602  0.4764 -0.5181 -0.1826
 4554SOL    HW114561   0.677   3.846   4.507  1.4952 -0.6054  0.0503
 4554SOL    HW214562   0.739   3.859   4.657 -0.1627 -0.7097  0.7600
 4555SOL     OW14563   5.391   1.208   6.662  0.0706  0.2086 -0.1630
 4555SOL    HW114564   5.350   1.129   6.618  1.3245 -1.5482  1.6649
 4555SOL    HW214565   5.320   1.257   6.714 -0.4637 -0.5528 -0.1482
 4556SOL     OW14566   2.010   2.171   5.330 -0.1751  0.5427 -0.4634
 4556SOL    HW114567   1.944   2.230   5.284 -0.1391  0.4779 -0.5997
 4556SOL    HW214568   2.077   2.138   5.263  1.2312  2.2391  0.0181
 4557SOL     OW14569   4.589   6.532   1.828 -0.3925  0.0373  0.4661
 4557SOL    HW114570   4.504   6.545   1.777 -1.0088 -1.4787  1.0555
 4557SOL    HW214571   4.569   6.486   1.915  1.2762 -2.8256 -0.5256
 4558SOL     OW14572   6.872   4.663   5.042 -0.7476 -0.1984 -0.0247
 4558SOL    HW114573   6.957   4.623   5.009 -0.6895 -0.1313  0.0433
 4558SOL    HW214574   6.860   4.642   5.139 -0.3106  0.6323  0.2207
 4559SOL     OW14575   2.452   1.547   2.275  0.1921  0.8443  0.0264
 4559SOL    HW114576   2.542   1.540   2.319 -0.9523 -1.6338  2.1340
 4559SOL    HW214577   2.410   1.634   2.300  0.4221  0.3651  2.2779
 4560SOL     OW14578   5.883   1.114   2.666  0.0331  0.7559 -0.4912
 4560SOL    HW114579   5.794   1.138   2.627 -1.0686  1.1200  2.0146
 4560SOL    HW214580   5.880   1.019   2.700  0.7393  0.6409 -0.7300
 4561SOL     OW14581   3.032   0.165   5.725  0.5101  0.1684 -0.1270
 4561SOL    HW114582   3.000   0.249   5.769 -0.1354  0.3642 -0.9332
 4561SOL    HW214583   3.109   0.186   5.664  0.4803  0.1496 -0.1719
 4562SOL     OW14584   4.015   3.352   4.871  0.5311 -0.0471  0.2349
 4562SOL    HW114585   4.060   3.394   4.950  1.4412  0.0125 -0.2949
 4562SOL    HW214586   3.917   3.373   4.873  0.4055 -0.6682  1.7352
 4563SOL     OW14587   4.816   2.830   5.558 -0.0416 -0.4935  0.2162
 4563SOL    HW114588   4.761   2.747   5.561  0.2391 -0.7473 -0.9923
 4563SOL    HW214589   4.757   2.910   5.564 -0.4086 -0.7710  0.3344
 4564SOL     OW14590   6.122   6.438   2.121 -0.4083  0.2871  0.2080
 4564SOL    HW114591   6.121   6.518   2.061 -0.6697  0.2161  0.1144
 4564SOL    HW214592   6.186   6.371   2.086 -0.5866  0.2315 -0.0159
 4565SOL     OW14593   4.601   1.225   3.949 -0.1182  0.2133 -0.2507
 4565SOL    HW114594   4.573   1.281   3.871  1.3053 -0.5248 -1.3284
 4565SOL    HW214595   4.677   1.269   3.996 -0.3277  0.1704  0.1299
 4566SOL     OW14596   2.270   5.616   0.112 -0.3964  0.0411  0.2345
 4566SOL    HW114597   2.336   5.679   0.071 -0.7658 -0.0582 -0.5328
 4566SOL    HW214598   2.318   5.550   0.169 -0.0678  1.5511  1.8033
 4567SOL     OW14599   0.674   2.866   5.680  0.2141  0.3679 -0.3905
 4567SOL    HW114600   0.760   2.853   5.728 -0.4654  3.8684  2.1546
 4567SOL    HW214601   0.683   2.940   5.613 -0.6171  0.2231 -0.6855
 4568SOL     OW14602   5.511   5.032   4.536 -0.1678 -0.4442 -0.4777
 4568SOL    HW114603   5.454   5.110   4.561  1.5830  0.7694 -0.0532
 4568SOL    HW214604   5.556   5.049   4.448 -0.8281 -1.6034 -1.0618
 4569SOL     OW14605   2.436   0.021   3.465 -0.2591 -0.4756  0.5465
 4569SOL    HW114606   2.472   0.001   3.374 -3.5566 -0.4286 -0.8867
 4569SOL    HW214607   2.400  -0.063   3.506 -0.8405 -0.1012  0.8198
 4570SOL     OW14608   4.618   6.664   4.243 -0.2004  0.3199 -0.5129
 4570SOL    HW114609   4.585   6.649   4.149  3.6815 -0.7049 -1.9205
 4570SOL    HW214610   4.641   6.761   4.254 -0.5054  0.4141 -0.6827
 4571SOL     OW14611   3.925   3.918   2.929 -0.0377  0.1645 -0.4102
 4571SOL    HW114612   3.897   3.971   2.849 -2.5356 -3.0979 -1.9579
 4571SOL    HW214613   4.008   3.867   2.907  0.4499  0.8148 -0.1228
 4572SOL     OW14614   2.543   5.307   3.464  0.1559  0.4053 -0.3620
 4572SOL    HW114615   2.542   5.262   3.375  3.5914  1.1758 -0.9123
 4572SOL    HW214616   2.505   5.399   3.455 -0.0554  0.2731 -0.8787
 4573SOL     OW14617   2.923   6.636   2.292  0.3807  0.3914  0.6633
 4573SOL    HW114618   2.877   6.561   2.339 -0.4393  0.2292 -0.3657
 4573SOL    HW214619   3.022   6.620   2.291  0.3207 -0.0671  1.4959
 4574SOL     OW14620   0.930   5.700   0.894 -0.6520  0.3414  0.8246
 4574SOL    HW114621   0.881   5.780   0.928  1.6636  1.5620  1.4484
 4574SOL    HW214622   1.021   5.727   0.863 -0.8802 -1.5678 -1.8514
 4575SOL     OW14623   6.361   6.125   2.290  0.2091 -0.4041  0.4056
 4575SOL    HW114624   6.376   6.181   2.372 -1.1126  1.1742 -0.3544
 4575SOL    HW214625   6.316   6.039   2.317 -1.0295  0.4672  1.2985
 4576SOL     OW14626   3.674   0.224   5.357 -0.1718 -0.2601  0.2790
 4576SOL    HW114627   3.728   0.285   5.415 -1.4846  0.4312  0.8131
 4576SOL    HW214628   3.581   0.261   5.346 -1.0044 -2.1319  0.6164
 4577SOL     OW14629   2.943   4.797   2.578  0.2295  0.0549 -0.2030
 4577SOL    HW114630   2.863   4.739   2.566 -1.6472  2.3877  0.2505
 4577SOL    HW214631   3.007   4.781   2.503  0.0417 -2.8566  0.1609
 4578SOL     OW14632   5.495   0.433   3.576 -0.2343  0.5627  0.3856
 4578SOL    HW114633   5.404   0.438   3.618  0.4052  0.1736  1.8720
 4578SOL    HW214634   5.564   0.462   3.642  0.7529  0.6245 -0.6475
 4579SOL     OW14635   6.138   2.826   3.897 -0.5936 -0.4255  0.0696
 4579SOL    HW114636   6.068   2.880   3.944 -0.1966 -0.1129  0.3121
 4579SOL    HW214637   6.212   2.806   3.961  0.4680  0.9170 -0.6795
 4580SOL     OW14638   1.342   5.435   1.106  0.9174 -0.5361  0.4010
 4580SOL    HW114639   1.327   5.378   1.026 -0.4825 -1.0841  1.0089
 4580SOL    HW214640   1.376   5.378   1.181  2.4158  0.0088  0.1592
 4581SOL     OW14641   1.307   4.128   4.283  0.2910  0.5886  0.1852
 4581SOL    HW114642   1.262   4.201   4.232 -0.1512  0.3341  0.2030
 4581SOL    HW214643   1.380   4.088   4.228 -1.2129 -0.7702 -0.9337
 4582SOL     OW14644   5.403   6.115   4.077 -0.6242  0.3514 -0.5371
 4582SOL    HW114645   5.433   6.024   4.104  1.2457  0.8921 -0.6894
 4582SOL    HW214646   5.465   6.184   4.114 -2.6590  1.6955  0.5768
 4583SOL     OW14647   3.086   6.776   0.351  0.0124 -0.4600 -0.1081
 4583SOL    HW114648   3.017   6.761   0.422 -0.1062 -0.4408 -0.2184
 4583SOL    HW214649   3.177   6.777   0.392  0.1838 -3.0073 -0.2476
 4584SOL     OW14650   6.636   3.895   4.294 -0.3475  0.4588  0.8201
 4584SOL    HW114651   6.618   3.825   4.363 -0.1240 -0.4367 -0.0221
 4584SOL    HW214652   6.562   3.963   4.296 -2.0521 -1.2688 -0.1962
 4585SOL     OW14653   4.354   5.239   0.470 -0.1695 -0.1497 -0.2294
 4585SOL    HW114654   4.422   5.311   0.481  0.1974 -0.6111  0.6846
 4585SOL    HW214655   4.339   5.222   0.373  0.2159  0.7059 -0.4498
 4586SOL     OW14656   1.326   5.331   2.367 -0.0233 -0.3078  0.2604
 4586SOL    HW114657   1.337   5.256   2.301  2.0797  0.6252 -0.5593
 4586SOL    HW214658   1.375   5.308   2.451 -1.1165 -0.6986  0.8024
 4587SOL     OW14659   2.966   4.967   1.149  0.7272  0.1424  0.1161
 4587SOL    HW114660   3.060   5.001   1.145  1.6559 -2.3417 -0.8859
 4587SOL    HW214661   2.958   4.898   1.222 -0.0510 -0.3836 -0.4538
 4588SOL     OW14662   3.790   3.866   6.677  0.5317 -0.0899  0.1906
 4588SOL    HW114663   3.692   3.848   6.671  0.7972 -2.7609  2.0516
 4588SOL    HW214664   3.840   3.791   6.635  1.8580  1.9806 -2.1407
 4589SOL     OW14665   0.298   1.517   2.283  0.5006  0.2032  0.2618
 4589SOL    HW114666   0.362   1.590   2.257  1.8148 -1.1033 -0.3828
 4589SOL    HW214667   0.221   1.516   2.219  0.9178  0.4899 -0.2561
 4590SOL     OW14668   2.635   5.969   3.844 -0.4508  0.2526 -1.1570
 4590SOL    HW114669   2.693   5.984   3.765  1.1835  0.3226  0.0013
 4590SOL    HW214670   2.620   6.056   3.891  2.4662 -0.3263  1.1387
 4591SOL     OW14671   4.554   6.468   3.993  0.1020  0.3431  0.8526
 4591SOL    HW114672   4.466   6.507   3.968  0.7863  1.6464  0.3928
 4591SOL    HW214673   4.542   6.372   4.017 -1.1002 -0.1340 -1.3940
 4592SOL     OW14674   6.018   1.317   6.872  0.4037 -0.6850  0.0182
 4592SOL    HW114675   5.941   1.253   6.868  2.1883 -3.0827  1.5726
 4592SOL    HW214676   6.010   1.373   6.955 -0.1351 -0.2387 -0.3258
 4593SOL     OW14677   6.125   5.955   0.897  0.1588 -0.2111  0.3199
 4593SOL    HW114678   6.048   5.912   0.944 -0.3384  1.2838  0.9272
 4593SOL    HW214679   6.188   5.884   0.865 -1.4647 -1.4670 -0.2283
 4594SOL     OW14680   3.413   1.604   3.954  0.0976 -0.2801 -0.1601
 4594SOL    HW114681   3.454   1.518   3.923  0.0825 -0.4026  0.1561
 4594SOL    HW214682   3.477   1.679   3.938 -0.1947 -0.2315 -1.1536
 4595SOL     OW14683   3.585   4.140   3.664  0.0425  1.1244  0.4466
 4595SOL    HW114684   3.574   4.142   3.565 -0.5708 -0.1462  0.4748
 4595SOL    HW214685   3.668   4.088   3.688  0.2819  1.5708  0.6010
 4596SOL     OW14686   5.811   0.667   3.339  0.0008 -0.0497 -0.8359
 4596SOL    HW114687   5.906   0.698   3.337  0.1646 -0.1637  1.5479
 4596SOL    HW214688   5.807   0.572   3.369 -0.8762  0.4987  0.9952
 4597SOL     OW14689   6.169   4.768   4.444 -0.5214  0.2082  0.0182
 4597SOL    HW114690   6.114   4.852   4.445  1.4808  1.6498  2.9092
 4597SOL    HW214691   6.251   4.783   4.388  1.1419  1.2599  2.5596
 4598SOL     OW14692   2.188   4.230   5.921  0.4506 -0.0453 -0.2542
 4598SOL    HW114693   2.251   4.165   5.963  2.0151  0.6836 -1.3722
 4598SOL    HW214694   2.226   4.322   5.928 -1.0449  0.5683  0.0212
 4599SOL     OW14695   5.182   5.646   0.015  0.0305  0.1977  0.1770
 4599SOL    HW114696   5.147   5.611   0.102  0.6488  0.4058  0.5139
 4599SOL    HW214697   5.197   5.569  -0.047 -2.5614  0.2106 -0.5867
 4600SOL     OW14698   3.598   1.035   1.581  0.1122 -0.2391 -0.2589
 4600SOL    HW114699   3.661   1.101   1.622 -1.2899  1.0062 -0.0570
 4600SOL    HW214700   3.603   0.949   1.633  1.1420  0.0435  0.1560
 4601SOL     OW14701   1.486   5.257   2.907  0.3015  0.2018 -0.1562
 4601SOL    HW114702   1.435   5.338   2.935  1.2491  0.3255  1.3292
 4601SOL    HW214703   1.583   5.280   2.898  0.5828 -0.7559  0.3077
 4602SOL     OW14704   0.194   7.000   3.151  0.2646 -0.2006  0.3239
 4602SOL    HW114705   0.212   6.959   3.240  1.0063 -1.7771 -0.4942
 4602SOL    HW214706   0.251   7.081   3.138  0.2202 -0.0209  1.2307
 4603SOL     OW14707   2.030   1.280   2.114  0.5551 -0.1408 -0.1819
 4603SOL    HW114708   1.988   1.342   2.048 -0.4295  0.0607  0.6204
 4603SOL    HW214709   2.027   1.186   2.078  0.9588  0.0955 -0.8589
 4604SOL     OW14710   0.568   6.348   2.767  0.3559 -0.3932 -0.0448
 4604SOL    HW114711   0.635   6.408   2.813  1.1564 -1.2405 -0.0752
 4604SOL    HW214712   0.488   6.402   2.742  2.4519  1.5931 -3.2306
 4605SOL     OW14713   6.288   5.992   5.169  0.1331  0.3600  0.5901
 4605SOL    HW114714   6.331   5.909   5.205 -0.7082 -1.1013 -1.5460
 4605SOL    HW214715   6.299   6.067   5.234  0.3918 -1.5724  2.8887
 4606SOL     OW14716   6.566   6.267   3.712 -0.3085  0.1048  0.0353
 4606SOL    HW114717   6.505   6.305   3.781 -0.1440  0.6306 -0.0990
 4606SOL    HW214718   6.524   6.275   3.622  0.1180  0.8533 -0.1096
 4607SOL     OW14719   1.971   3.294   0.688 -0.8426 -0.3739  0.0630
 4607SOL    HW114720   2.045   3.227   0.696 -0.8389 -0.2673  1.1975
 4607SOL    HW214721   2.006   3.378   0.645  0.1144  0.2151  1.8583
 4608SOL     OW14722   3.083   4.064   0.980 -0.4504 -0.0429  0.2492
 4608SOL    HW114723   3.140   4.025   1.053 -2.1001 -0.0414  1.5993
 4608SOL    HW214724   3.016   3.995   0.951 -0.0086  0.0653 -1.0797
 4609SOL     OW14725   4.738   6.673   0.657  0.0610  0.0617  0.9669
 4609SOL    HW114726   4.774   6.663   0.750 -0.5167  1.1493  1.3102
 4609SOL    HW214727   4.740   6.769   0.630  1.6816 -0.3911 -0.7460
 4610SOL     OW14728   1.280   3.170   2.755  0.5098 -0.0958  0.2396
 4610SOL    HW114729   1.230   3.221   2.685  2.2454  0.5972 -0.5602
 4610SOL    HW214730   1.310   3.233   2.827  0.4629 -0.4496  0.5731
 4611SOL     OW14731   1.234   5.413   6.281 -0.2767 -0.3561 -0.1325
 4611SOL    HW114732   1.208   5.317   6.280  1.2004 -0.7957  0.4253
 4611SOL    HW214733   1.278   5.435   6.368  1.1930  0.2854 -0.9916
 4612SOL     OW14734   1.978   5.831   5.208  0.5835 -0.2452  0.2199
 4612SOL    HW114735   2.006   5.885   5.287 -0.2784  1.1156 -0.3603
 4612SOL    HW214736   1.880   5.812   5.213  0.7085 -1.0113 -0.0361
 4613SOL     OW14737   2.670   5.181   1.996  0.1839  0.2967 -0.9160
 4613SOL    HW114738   2.734   5.157   1.924  1.7648  2.3791 -0.3087
 4613SOL    HW214739   2.678   5.116   2.072  2.2639  1.0034 -0.4806
 4614SOL     OW14740   1.881   3.907   1.076  0.1592 -0.1251  0.2093
 4614SOL    HW114741   1.953   3.905   1.007  0.0365  0.6888  0.0415
 4614SOL    HW214742   1.869   3.816   1.115  2.8885  0.1393  1.9193
 4615SOL     OW14743   6.318   2.313   0.528  0.0973  0.2912  0.0870
 4615SOL    HW114744   6.404   2.295   0.481 -0.1087 -0.2460 -0.0969
 4615SOL    HW214745   6.241   2.284   0.471 -0.2024  0.6240  0.3099
 4616SOL     OW14746   4.924   0.829   0.782  0.3249 -0.2190 -0.0630
 4616SOL    HW114747   4.998   0.897   0.785  0.3797 -0.2592 -0.4003
 4616SOL    HW214748   4.963   0.737   0.787  0.3585 -0.2624 -0.9089
 4617SOL     OW14749   0.149   2.765   2.577  0.6792  0.1063 -0.0007
 4617SOL    HW114750   0.164   2.806   2.667  1.3244  1.5159 -0.7188
 4617SOL    HW214751   0.233   2.722   2.545  0.7649  0.5253 -0.3589
 4618SOL     OW14752   1.544   2.483   0.844 -0.1525  0.3576 -0.1797
 4618SOL    HW114753   1.546   2.549   0.920  2.1676  1.3602 -1.0038
 4618SOL    HW214754   1.545   2.533   0.757 -0.0273 -0.7641 -0.8371
 4619SOL     OW14755   5.110   0.566   6.275 -0.1599 -0.0659  0.3098
 4619SOL    HW114756   5.056   0.487   6.305 -2.0147  1.2118  0.5344
 4619SOL    HW214757   5.207   0.548   6.291 -0.3090 -2.9936 -1.2760
 4620SOL     OW14758   1.925   6.018   2.411  0.4729 -0.0947  0.1447
 4620SOL    HW114759   1.882   5.979   2.493 -1.0258 -0.0933 -0.6008
 4620SOL    HW214760   1.881   5.980   2.330  2.8088 -1.0867 -0.7247
 4621SOL     OW14761   4.190   1.279   1.564  0.3715 -0.3016  0.8824
 4621SOL    HW114762   4.233   1.288   1.474 -0.7478 -0.7619  0.2776
 4621SOL    HW214763   4.165   1.369   1.598 -1.9895 -0.2715 -0.7084
 4622SOL     OW14764   2.932   5.771   0.562 -0.4301 -0.0246  0.0935
 4622SOL    HW114765   2.859   5.816   0.614 -1.9140 -0.5512 -1.4264
 4622SOL    HW214766   2.952   5.682   0.603 -0.0978  0.4394  0.9561
 4623SOL     OW14767   1.271   2.968   4.251  0.1219  0.0988 -0.4201
 4623SOL    HW114768   1.366   2.948   4.227 -0.5519 -0.8938 -2.4168
 4623SOL    HW214769   1.220   2.883   4.263 -0.7330  0.6172 -0.2617
 4624SOL     OW14770   4.596   5.713   4.697 -0.0902 -0.2097  0.0205
 4624SOL    HW114771   4.677   5.719   4.639 -0.4255 -0.0805 -0.4428
 4624SOL    HW214772   4.572   5.617   4.712  0.5442 -0.2667  0.7291
 4625SOL     OW14773   0.891   4.052   5.828 -0.4808 -0.2105  0.3530
 4625SOL    HW114774   0.876   4.108   5.909  0.0103  1.2557 -0.5153
 4625SOL    HW214775   0.852   4.098   5.748  2.0138  0.1346 -0.7892
 4626SOL     OW14776   6.840   4.204   1.668  0.1164 -0.8179  0.5136
 4626SOL    HW114777   6.823   4.200   1.569  1.5444 -1.6899  0.2707
 4626SOL    HW214778   6.823   4.114   1.708  2.4124 -1.3042  0.5192
 4627SOL     OW14779   1.572   6.415   5.162 -0.1574 -0.0286 -0.4303
 4627SOL    HW114780   1.599   6.319   5.152 -1.8848 -0.5819 -0.1190
 4627SOL    HW214781   1.472   6.422   5.159 -0.2862  1.3322  2.9541
 4628SOL     OW14782   1.064   2.140   1.284 -0.2356 -0.5466  0.2446
 4628SOL    HW114783   1.044   2.075   1.357  0.4350 -0.9680  0.0566
 4628SOL    HW214784   1.040   2.100   1.196  0.9050 -0.8609  0.0594
 4629SOL     OW14785   5.287   5.490   4.674 -0.1856 -0.3974  0.2083
 4629SOL    HW114786   5.298   5.573   4.620  2.2311 -0.6982  0.1049
 4629SOL    HW214787   5.296   5.512   4.771  0.4760 -0.5008  0.1798
 4630SOL     OW14788   2.628   4.932   0.327 -0.0235 -0.0726 -0.0015
 4630SOL    HW114789   2.706   4.883   0.289 -0.3305  0.2755 -1.1316
 4630SOL    HW214790   2.659   4.996   0.397  0.6709 -0.0869 -0.2907
 4631SOL     OW14791   3.259   5.324   2.717  0.4089 -0.4392 -0.0376
 4631SOL    HW114792   3.221   5.267   2.644  0.2138 -1.8777  1.1479
 4631SOL    HW214793   3.248   5.277   2.805  0.2540  1.4452  0.9859
 4632SOL     OW14794   1.063   4.912   3.993 -0.4454  0.3656 -0.1884
 4632SOL    HW114795   1.096   4.959   3.911  1.3512  1.3153  1.0043
 4632SOL    HW214796   1.021   4.825   3.968  0.2405  0.5483 -2.0926
 4633SOL     OW14797   4.002   2.587   0.809  0.3699  0.1454  0.5290
 4633SOL    HW114798   3.991   2.494   0.844  1.0870  0.1906  0.8992
 4633SOL    HW214799   3.934   2.605   0.738 -0.0968 -0.4853  0.8134
 4634SOL     OW14800   3.745   3.365   3.747  0.0627 -0.4904 -0.0560
 4634SOL    HW114801   3.681   3.293   3.774 -4.0703  3.1863  1.2815
 4634SOL    HW214802   3.732   3.387   3.650  0.7599 -0.9456 -0.2640
 4635SOL     OW14803   5.916   3.573   0.434  0.4406 -0.3622  0.0350
 4635SOL    HW114804   5.922   3.565   0.334  0.2616 -0.0582 -0.0027
 4635SOL    HW214805   5.824   3.603   0.459  0.6991  0.2602  0.2477
 4636SOL     OW14806   6.307   0.103   2.326 -0.2408  0.0609 -0.1425
 4636SOL    HW114807   6.272   0.110   2.233  1.2490  2.6407 -0.6071
 4636SOL    HW214808   6.282   0.185   2.377  0.8878 -0.2917  1.0292
 4637SOL     OW14809   0.348   1.873   6.252  0.2012 -0.3276  0.4223
 4637SOL    HW114810   0.293   1.917   6.180 -2.5218 -0.9859  1.9523
 4637SOL    HW214811   0.436   1.920   6.260  1.1295 -0.8568 -3.9459
 4638SOL     OW14812   4.735   5.643   5.365  0.4925 -0.2102 -0.0462
 4638SOL    HW114813   4.670   5.617   5.436 -0.1022  1.7467  0.1640
 4638SOL    HW214814   4.698   5.618   5.276 -0.2995  0.3790  0.1113
 4639SOL     OW14815   0.626   3.507   3.076  0.0637  0.2294 -0.3903
 4639SOL    HW114816   0.558   3.539   3.141 -0.8629  0.6638 -1.5437
 4639SOL    HW214817   0.633   3.407   3.081 -0.1668  0.2420  0.2061
 4640SOL     OW14818   0.720   4.655   6.162  0.8891  0.2361  0.3127
 4640SOL    HW114819   0.725   4.560   6.190  0.6224  0.7028  2.0354
 4640SOL    HW214820   0.811   4.696   6.165  0.9195  0.1857  0.1028
 4641SOL     OW14821   2.366   4.442   5.515 -0.1608  0.4951  0.3720
 4641SOL    HW114822   2.336   4.352   5.485 -0.9885  0.6976  0.5585
 4641SOL    HW214823   2.463   4.454   5.495  0.1338 -0.7173  1.0234
 4642SOL     OW14824   5.797   6.654   5.031  0.9395 -0.3060  0.3686
 4642SOL    HW114825   5.709   6.699   5.026  0.7683 -0.5186  1.2042
 4642SOL    HW214826   5.854   6.680   4.953  0.7627  1.1528  0.7127
 4643SOL     OW14827   4.103   3.328   1.996  0.0697 -0.0697  0.2492
 4643SOL    HW114828   4.051   3.294   2.075  0.4749  1.0770  1.0340
 4643SOL    HW214829   4.161   3.254   1.961  0.5801 -0.3499  1.6255
 4644SOL     OW14830   4.212   6.454   4.985 -0.3538  0.2930 -0.1016
 4644SOL    HW114831   4.212   6.420   5.080 -1.9966  1.1483  0.2420
 4644SOL    HW214832   4.124   6.498   4.966  0.2487  0.8178 -1.7926
 4645SOL     OW14833   1.942   5.039   6.005 -0.4101  0.2189 -0.5015
 4645SOL    HW114834   2.000   4.966   6.040 -1.4896 -1.1560 -1.4475
 4645SOL    HW214835   1.992   5.126   6.005  0.5759 -0.2822  1.5986
 4646SOL     OW14836   3.003   1.244   1.748  0.4510 -0.6488  0.1583
 4646SOL    HW114837   2.938   1.175   1.782  0.6442 -1.2626 -0.6675
 4646SOL    HW214838   3.027   1.306   1.822 -1.8427  0.2252  0.2627
 4647SOL     OW14839   3.608   6.753   4.318 -0.0987  0.4873  0.1972
 4647SOL    HW114840   3.654   6.679   4.267 -0.3968  1.0084 -0.8585
 4647SOL    HW214841   3.583   6.826   4.255 -1.5902  0.6170  0.8980
 4648SOL     OW14842   0.760   0.412   3.252 -0.0949 -0.5487  0.4487
 4648SOL    HW114843   0.855   0.435   3.234 -0.5470 -0.0633 -1.5799
 4648SOL    HW214844   0.710   0.495   3.279 -0.6397 -0.0448 -1.9031
 4649SOL     OW14845   6.181   5.830   6.753  0.0793  0.5450  0.2599
 4649SOL    HW114846   6.171   5.908   6.815 -1.2509  1.0707 -0.5628
 4649SOL    HW214847   6.196   5.863   6.660  1.1118 -0.2169  0.1444
 4650SOL     OW14848   0.935   4.766   1.054  0.1968 -0.0921 -0.0918
 4650SOL    HW114849   0.949   4.797   1.148  1.1159 -1.0484  0.1122
 4650SOL    HW214850   0.888   4.678   1.054 -1.0682  0.5574 -0.6030
 4651SOL     OW14851   6.683   2.257   1.323 -0.0511 -0.2077  0.3660
 4651SOL    HW114852   6.639   2.179   1.278 -0.9190  0.1068  0.6470
 4651SOL    HW214853   6.770   2.278   1.277  0.9548 -2.2781  1.2264
 4652SOL     OW14854   0.826   1.285   1.070  0.7905 -0.6230  0.6034
 4652SOL    HW114855   0.917   1.324   1.054 -0.3220  0.9685 -2.6340
 4652SOL    HW214856   0.825   1.191   1.037  1.3833 -0.8302  1.1496
 4653SOL     OW14857   4.020   4.579   6.205  0.1115 -0.3140 -0.5320
 4653SOL    HW114858   3.956   4.591   6.281  0.7305  1.0486 -0.1885
 4653SOL    HW214859   3.982   4.621   6.123  0.4643  0.3145 -0.3784
 4654SOL     OW14860   2.517   1.106   6.573  0.4358 -0.6811  0.7316
 4654SOL    HW114861   2.490   1.013   6.547  1.4289 -1.3307  1.8870
 4654SOL    HW214862   2.549   1.156   6.493 -0.6359 -1.1441  0.0017
 4655SOL     OW14863   2.414   2.606   6.634 -0.1574 -0.0929 -0.6826
 4655SOL    HW114864   2.336   2.551   6.604 -0.0903  0.7852 -2.6055
 4655SOL    HW214865   2.382   2.676   6.698 -0.4652 -1.4141  0.6714
 4656SOL     OW14866   1.201   6.053   1.752 -0.3063 -0.2364 -0.0617
 4656SOL    HW114867   1.156   6.067   1.663 -2.8288 -0.7048  1.0516
 4656SOL    HW214868   1.225   6.142   1.791 -0.8590  0.0735 -0.4098
 4657SOL     OW14869   5.132   1.292   4.584  0.0077 -0.4671 -0.1111
 4657SOL    HW114870   5.108   1.332   4.495  0.1667 -0.7417 -0.2769
 4657SOL    HW214871   5.086   1.203   4.594  1.3213 -1.2244 -0.6330
 4658SOL     OW14872   4.308   0.784   2.535 -0.4885 -0.0959  0.5382
 4658SOL    HW114873   4.311   0.850   2.610 -0.1584  1.9085 -1.1469
 4658SOL    HW214874   4.401   0.767   2.502 -0.7790  1.0830 -1.0417
 4659SOL     OW14875   0.117   2.379   3.840  0.1200 -0.0274 -0.2611
 4659SOL    HW114876   0.194   2.336   3.887  0.8992  0.4002 -1.1087
 4659SOL    HW214877   0.151   2.446   3.775 -0.8972 -0.8233 -1.6748
 4660SOL     OW14878   0.199   1.136   3.367  0.0239  0.3323 -0.3484
 4660SOL    HW114879   0.299   1.135   3.368  0.1147 -2.5088  1.6646
 4660SOL    HW214880   0.166   1.054   3.320 -1.3294  0.6309  0.0446
 4661SOL     OW14881   4.059   3.374   3.415  0.5677 -0.1061  0.1987
 4661SOL    HW114882   4.099   3.443   3.475  0.6382  0.4013 -0.4254
 4661SOL    HW214883   4.064   3.284   3.459 -0.0778  0.3734  1.2726
 4662SOL     OW14884   4.166   1.758   4.237 -0.1368 -0.0646 -0.7344
 4662SOL    HW114885   4.100   1.802   4.177  0.4255  2.0017  0.0595
 4662SOL    HW214886   4.253   1.808   4.233  0.3998 -0.8311  0.5776
 4663SOL     OW14887   1.146   1.582   0.607  0.0408  0.4201  0.1126
 4663SOL    HW114888   1.173   1.634   0.526  0.6472  0.4555  0.3310
 4663SOL    HW214889   1.090   1.504   0.579 -2.2989  2.0860 -0.0843
 4664SOL     OW14890   4.340   3.972   0.213  0.5211 -0.0876 -0.3024
 4664SOL    HW114891   4.255   3.978   0.266  0.4085 -0.1781 -0.4715
 4664SOL    HW214892   4.377   3.879   0.219 -0.0875 -0.4083 -1.2931
 4665SOL     OW14893   6.792   0.004   0.769  0.0237 -0.0532  0.5191
 4665SOL    HW114894   6.716  -0.060   0.758 -1.2663  1.6078 -0.8611
 4665SOL    HW214895   6.856  -0.007   0.693 -1.4425  1.7799 -1.1036
 4666SOL     OW14896   1.657   0.622   6.025  0.7744  0.0256  0.9612
 4666SOL    HW114897   1.615   0.536   5.996  2.0347  0.0341 -1.1242
 4666SOL    HW214898   1.597   0.669   6.090 -1.3077 -1.0194 -0.1175
 4667SOL     OW14899   0.346   6.380   5.104  0.0590  0.5744 -0.3603
 4667SOL    HW114900   0.306   6.466   5.135  1.1381  0.4645  1.4799
 4667SOL    HW214901   0.413   6.348   5.171  1.0593 -0.7547 -1.9023
 4668SOL     OW14902   6.638   2.436   5.901  0.5135  0.6496 -0.0165
 4668SOL    HW114903   6.581   2.498   5.848  0.2745  1.2991  0.9806
 4668SOL    HW214904   6.731   2.473   5.907  0.7276  0.2256 -0.5559
 4669SOL     OW14905   1.474   3.203   1.144  0.3602 -0.0786  0.5817
 4669SOL    HW114906   1.377   3.191   1.164  0.5103 -0.7481  0.9354
 4669SOL    HW214907   1.508   3.284   1.192 -0.1474  0.4858  0.0014
 4670SOL     OW14908   1.899   2.908   5.418 -0.5645 -0.1696 -0.5124
 4670SOL    HW114909   1.870   2.940   5.508  1.5955  0.9857 -0.1663
 4670SOL    HW214910   1.829   2.933   5.350 -1.6796 -0.0406  0.6429
 4671SOL     OW14911   5.406   0.981   1.975  0.3732  0.3621  0.1838
 4671SOL    HW114912   5.386   0.954   2.069  1.3735 -1.3095 -0.0292
 4671SOL    HW214913   5.504   1.000   1.965  0.1993  1.0039 -0.4187
 4672SOL     OW14914   3.905   2.188   4.720  0.1528  0.2411  0.1148
 4672SOL    HW114915   3.833   2.250   4.752 -0.1204  0.6252 -1.1798
 4672SOL    HW214916   3.972   2.175   4.793 -1.1111  0.0359  1.2770
 4673SOL     OW14917   4.833   0.304   1.593  0.0052 -0.4359 -0.1130
 4673SOL    HW114918   4.896   0.369   1.549  0.2788 -0.0851  0.7710
 4673SOL    HW214919   4.741   0.342   1.594  0.0173 -0.3994 -0.2768
 4674SOL     OW14920   2.737   0.191   6.015 -0.2953  0.0886 -0.1033
 4674SOL    HW114921   2.831   0.196   5.984 -0.4609  1.1026 -0.4842
 4674SOL    HW214922   2.698   0.102   5.993  1.1295 -1.0567  1.7133
 4675SOL     OW14923   6.014   3.946   0.081  0.3473  0.0945 -0.1860
 4675SOL    HW114924   5.995   3.861   0.032  0.1420  0.2326 -0.3454
 4675SOL    HW214925   5.966   4.022   0.038 -0.7365  0.0436  0.8838
 4676SOL     OW14926   2.168   4.288   2.475 -0.2013 -0.3123  0.5804
 4676SOL    HW114927   2.235   4.293   2.400 -0.2598  1.2205  0.6105
 4676SOL    HW214928   2.092   4.349   2.455 -1.1601 -1.3515  0.9938
 4677SOL     OW14929   1.520   2.710   0.298  0.5680  0.2995 -0.7404
 4677SOL    HW114930   1.519   2.753   0.389  0.0772 -0.5818 -0.3161
 4677SOL    HW214931   1.428   2.678   0.276  0.7002  0.4522 -1.5317
 4678SOL     OW14932   5.934   1.874   2.090 -0.1044  0.1143 -0.0369
 4678SOL    HW114933   5.970   1.839   2.004  0.1690  0.1121  0.0794
 4678SOL    HW214934   6.000   1.936   2.131  0.0429 -0.3910  0.4985
 4679SOL     OW14935   3.470   5.846   2.690  0.3133  0.3353 -0.6656
 4679SOL    HW114936   3.508   5.786   2.619  1.7811  2.8457 -2.1499
 4679SOL    HW214937   3.391   5.801   2.732 -0.3724 -1.4778 -3.5831
 4680SOL     OW14938   2.974   1.683   2.680 -0.3652 -0.0844  0.1374
 4680SOL    HW114939   3.050   1.693   2.615 -1.5349  1.7657 -1.0323
 4680SOL    HW214940   3.009   1.696   2.773  0.8092  0.5029 -0.3565
 4681SOL     OW14941   3.779   4.878   3.135 -0.2512  0.3448  0.2639
 4681SOL    HW114942   3.767   4.970   3.173  0.6501  1.4014 -1.8096
 4681SOL    HW214943   3.876   4.856   3.130 -0.3627  0.0212 -0.8313
 4682SOL     OW14944   4.137   2.116   1.097  0.7470  0.3042 -0.5788
 4682SOL    HW114945   4.159   2.100   1.193  3.3944 -1.6416 -1.4138
 4682SOL    HW214946   4.216   2.094   1.040 -0.0623  3.2631 -3.1325
 4683SOL     OW14947   1.772   3.985   2.343  0.5068 -0.1160  0.2393
 4683SOL    HW114948   1.700   3.920   2.368 -0.9282  0.9076 -0.9888
 4683SOL    HW214949   1.733   4.078   2.342  2.1512  0.6089  0.6376
 4684SOL     OW14950   4.907   6.626   5.662  0.4547  0.4432 -0.1096
 4684SOL    HW114951   4.867   6.645   5.751  1.0981  1.5496 -0.0429
 4684SOL    HW214952   4.883   6.532   5.634 -0.7828  0.5068  0.6487
 4685SOL     OW14953   3.205   3.639   5.040  0.0091 -0.4572  0.3733
 4685SOL    HW114954   3.260   3.647   5.123  0.7931 -2.7205  0.1297
 4685SOL    HW214955   3.110   3.617   5.065 -0.2151  0.8305  0.7069
 4686SOL     OW14956   0.999   0.458   5.902  0.2415  0.0463 -0.3078
 4686SOL    HW114957   0.904   0.429   5.907  0.0624  0.6179 -0.3105
 4686SOL    HW214958   1.026   0.467   5.806  0.1298  0.4291 -0.3023
 4687SOL     OW14959   0.895   6.938   1.897  0.5875  0.3411  0.2482
 4687SOL    HW114960   0.925   6.891   1.814  1.5226  1.0157  0.1821
 4687SOL    HW214961   0.888   6.872   1.972 -1.7512 -0.5771 -0.6676
 4688SOL     OW14962   3.924   1.114   4.507  0.0153  0.2553  0.1257
 4688SOL    HW114963   4.012   1.110   4.460  1.4117  0.9545  2.5380
 4688SOL    HW214964   3.920   1.197   4.563 -1.5813 -0.5076  1.1954
 4689SOL     OW14965   6.005   1.769   1.591  0.6248 -0.3732  0.7316
 4689SOL    HW114966   5.943   1.827   1.538  0.7229 -0.2016  0.8031
 4689SOL    HW214967   6.006   1.800   1.686  0.4766 -0.6574  0.8262
 4690SOL     OW14968   2.594   3.436   1.248  0.5169  0.2884 -1.1226
 4690SOL    HW114969   2.561   3.394   1.332  1.0529  0.3585 -0.8725
 4690SOL    HW214970   2.542   3.400   1.170  0.6957 -0.5457 -0.8729
 4691SOL     OW14971   0.841   1.940   2.287 -0.1217  0.0555 -0.1447
 4691SOL    HW114972   0.823   1.868   2.355  0.1806 -0.1992 -0.3367
 4691SOL    HW214973   0.795   2.024   2.316 -0.1288 -0.0962  0.2972
 4692SOL     OW14974   5.156   1.810   1.550  0.1237 -0.2932 -0.2428
 4692SOL    HW114975   5.188   1.854   1.634  0.4446  0.4865 -0.7621
 4692SOL    HW214976   5.156   1.711   1.562 -0.7444 -0.1526  0.9972
 4693SOL     OW14977   6.256   1.299   2.730 -0.5047 -0.4243 -0.3572
 4693SOL    HW114978   6.203   1.218   2.707  1.9325 -2.0286 -0.6534
 4693SOL    HW214979   6.271   1.353   2.647 -2.2338  0.4647 -0.1377
 4694SOL     OW14980   0.771   5.005   0.329  0.3794 -0.4127  0.3399
 4694SOL    HW114981   0.782   4.959   0.418  1.9586  0.8272  0.8140
 4694SOL    HW214982   0.754   5.102   0.344 -0.2373 -0.3461 -0.7178
 4695SOL     OW14983   1.028   5.908   4.320 -0.4745 -0.1804  0.1506
 4695SOL    HW114984   0.930   5.929   4.314 -0.6189 -0.1393  1.9557
 4695SOL    HW214985   1.074   5.979   4.374  0.3277 -0.8272  0.3339
 4696SOL     OW14986   2.336   0.589   6.036  0.6384  0.4860 -0.1141
 4696SOL    HW114987   2.366   0.535   5.958 -2.8130 -1.3357 -0.3984
 4696SOL    HW214988   2.323   0.529   6.115 -1.9503  0.9940 -0.0409
 4697SOL     OW14989   3.540   4.818   0.672  0.6563 -0.0124 -0.0273
 4697SOL    HW114990   3.588   4.730   0.675 -1.9719 -1.6644 -1.9077
 4697SOL    HW214991   3.516   4.840   0.577 -2.1381  0.6974  0.7305
 4698SOL     OW14992   5.391   2.823   6.141  0.2668 -0.4535  0.1410
 4698SOL    HW114993   5.390   2.879   6.223  0.5630  1.0222 -0.8344
 4698SOL    HW214994   5.373   2.880   6.061 -2.8917 -2.2720 -0.6140
 4699SOL     OW14995   1.352   2.537   2.629  0.1564 -0.0095 -0.0402
 4699SOL    HW114996   1.320   2.497   2.543 -1.6030 -1.5497  1.2397
 4699SOL    HW214997   1.277   2.540   2.695  0.8971  3.0864  0.8475
 4700SOL     OW14998   0.518   0.532   3.447  0.0724 -0.2534  0.1413
 4700SOL    HW114999   0.594   0.486   3.493 -0.2071 -1.3278 -0.4219
 4700SOL    HW215000   0.472   0.593   3.512  2.8494  2.3637 -0.1340
 4701SOL     OW15001   1.176   2.925   2.217  0.1435 -0.4319  0.8045
 4701SOL    HW115002   1.209   2.831   2.219 -0.5078 -0.6814  0.2993
 4701SOL    HW215003   1.214   2.972   2.138  0.7238 -0.1610  1.2317
 4702SOL     OW15004   6.144   6.964   6.518 -0.7453 -0.4886 -1.2485
 4702SOL    HW115005   6.085   6.937   6.595  2.5170 -3.3994  0.5332
 4702SOL    HW215006   6.202   7.040   6.546 -1.3924  0.2358 -1.8452
 4703SOL     OW15007   6.265   3.926   3.678 -0.1320 -0.2632 -0.0721
 4703SOL    HW115008   6.172   3.889   3.683 -0.7402  1.2916  0.5132
 4703SOL    HW215009   6.328   3.861   3.721 -1.1367 -0.7128  0.7796
 4704SOL     OW15010   2.071   3.330   2.117 -0.8495 -0.6183  0.4840
 4704SOL    HW115011   2.079   3.250   2.057 -1.0960 -0.5669  0.3819
 4704SOL    HW215012   2.131   3.403   2.085 -0.8658 -0.6470  0.3903
 4705SOL     OW15013   3.444   2.614   0.340 -0.0596 -0.4447  0.4362
 4705SOL    HW115014   3.454   2.610   0.439  0.0089 -0.4854  0.4274
 4705SOL    HW215015   3.534   2.608   0.297 -0.0834 -0.3551  0.3742
 4706SOL     OW15016   2.426   1.117   1.038 -0.5957 -0.4235 -0.1094
 4706SOL    HW115017   2.348   1.146   0.983 -1.6913  0.5653  1.8229
 4706SOL    HW215018   2.394   1.084   1.127  1.0839 -1.9350  0.0092
 4707SOL     OW15019   3.057   4.797   1.950  0.4423  0.0415 -0.1512
 4707SOL    HW115020   3.025   4.703   1.967 -0.9316  0.7226  1.3462
 4707SOL    HW215021   3.156   4.801   1.963  0.1222 -0.4897  3.7519
 4708SOL     OW15022   2.259   1.979   0.361 -0.0428  0.4184 -0.7256
 4708SOL    HW115023   2.214   2.026   0.285 -0.5251  0.7793 -0.2203
 4708SOL    HW215024   2.252   1.880   0.347 -1.5641  0.4536 -0.3398
 4709SOL     OW15025   5.626   4.751   4.836  0.0975 -0.0340 -0.0677
 4709SOL    HW115026   5.725   4.746   4.826  0.0149 -0.0300 -1.0116
 4709SOL    HW215027   5.599   4.716   4.926  1.0171  0.8056  0.5558
 4710SOL     OW15028   0.297   3.513   5.471 -0.5893 -0.2674 -0.2127
 4710SOL    HW115029   0.240   3.438   5.436  1.1462 -2.2371  0.9338
 4710SOL    HW215030   0.383   3.516   5.420 -0.3806  0.5493  0.1716
 4711SOL     OW15031   5.716   4.227   4.158  0.2277  0.5007  0.2523
 4711SOL    HW115032   5.754   4.312   4.121  0.1249  0.4068 -0.0790
 4711SOL    HW215033   5.745   4.216   4.253 -1.0257  1.6735  0.7966
 4712SOL     OW15034   3.841   4.880   5.656  0.4278  0.0501  0.1470
 4712SOL    HW115035   3.758   4.848   5.702 -0.6062  1.3628 -0.7057
 4712SOL    HW215036   3.836   4.857   5.559  0.8218  0.5761 -0.0053
 4713SOL     OW15037   6.259   5.741   1.208 -0.0923  0.3453  0.7396
 4713SOL    HW115038   6.260   5.840   1.223 -0.4341  0.0456  3.1008
 4713SOL    HW215039   6.165   5.710   1.194 -0.1512  0.2075  1.3816
 4714SOL     OW15040   4.097   2.022   6.508 -0.6025 -0.4402  0.2557
 4714SOL    HW115041   4.140   1.963   6.441  1.3451 -0.6594  1.6186
 4714SOL    HW215042   4.099   2.117   6.476  1.1327 -0.4179  0.3491
 4715SOL     OW15043   1.624   2.050   1.993  0.0386  0.2552 -0.2059
 4715SOL    HW115044   1.661   2.142   1.977 -1.6353  0.9994  0.0051
 4715SOL    HW215045   1.656   2.016   2.082 -1.1199  1.6083  0.7726
 4716SOL     OW15046   3.522   5.658   5.853  0.1541 -0.0827  0.8567
 4716SOL    HW115047   3.498   5.725   5.923  0.0970  1.0950 -0.2522
 4716SOL    HW215048   3.521   5.566   5.893 -1.7618  0.3547  1.9359
 4717SOL     OW15049   2.095   4.649   6.606  0.5520 -0.2154  0.5321
 4717SOL    HW115050   2.172   4.685   6.657  1.4405 -0.1547 -0.8057
 4717SOL    HW215051   2.122   4.566   6.557  0.0731  0.3420 -0.7352
 4718SOL     OW15052   5.208   2.968   2.964  0.0934 -0.1945  0.2408
 4718SOL    HW115053   5.132   2.923   3.010 -1.5996  1.4203 -0.8616
 4718SOL    HW215054   5.254   2.903   2.903  0.8837 -1.7010  2.3154
 4719SOL     OW15055   5.549   3.412   2.662  0.3722  0.5437  0.2956
 4719SOL    HW115056   5.496   3.478   2.610  1.0911  0.3419 -0.7275
 4719SOL    HW215057   5.646   3.420   2.637  0.6133 -0.1558  0.9616
 4720SOL     OW15058   1.580   1.174   4.342 -0.5656 -0.6363  0.2196
 4720SOL    HW115059   1.534   1.257   4.372 -2.8937 -1.0959 -1.8302
 4720SOL    HW215060   1.676   1.194   4.324 -0.9719  1.4936  0.1706
 4721SOL     OW15061   7.021   3.123   2.430 -0.3013  0.2615 -0.2361
 4721SOL    HW115062   7.070   3.076   2.503  1.3233  1.1460 -0.7024
 4721SOL    HW215063   7.070   3.207   2.405 -2.3609  1.5042 -0.3775
 4722SOL     OW15064   6.670   5.981   6.517 -0.3055 -0.5031  0.2779
 4722SOL    HW115065   6.725   5.955   6.597 -1.6981 -0.9616  1.1228
 4722SOL    HW215066   6.610   5.905   6.492 -0.3604 -0.1154 -0.8059
 4723SOL     OW15067   2.412   2.966   6.419 -0.7021 -0.4398 -0.3555
 4723SOL    HW115068   2.386   2.892   6.482 -1.2882 -0.9325 -1.1581
 4723SOL    HW215069   2.344   3.039   6.424 -1.0202 -0.7033 -0.7762
 4724SOL     OW15070   1.325   6.385   4.987  0.0077 -0.0735  0.0512
 4724SOL    HW115071   1.248   6.328   5.016  1.0806 -1.7993 -0.3685
 4724SOL    HW215072   1.292   6.455   4.923 -1.7077  1.2969  2.2777
 4725SOL     OW15073   4.575   5.266   1.691 -0.4152  0.2498  0.5761
 4725SOL    HW115074   4.537   5.189   1.742  0.0013  0.1334  0.7178
 4725SOL    HW215075   4.516   5.346   1.702  0.0478  0.4342  1.8466
 4726SOL     OW15076   2.278   2.608   5.615 -0.1290 -0.1828 -0.0127
 4726SOL    HW115077   2.374   2.636   5.617  0.1219 -1.0534  1.5690
 4726SOL    HW215078   2.270   2.518   5.574 -0.1511 -0.4790  0.6280
 4727SOL     OW15079   5.366   6.741   1.074  0.0165 -0.3477 -0.4249
 4727SOL    HW115080   5.349   6.804   1.149  0.6080  0.3390 -0.8516
 4727SOL    HW215081   5.334   6.782   0.988 -0.0974 -0.8624 -0.6315
 4728SOL     OW15082   2.663   2.333   3.134 -0.3498 -0.6992 -0.0825
 4728SOL    HW115083   2.757   2.305   3.152 -0.5338  0.0137  2.2166
 4728SOL    HW215084   2.600   2.271   3.180 -0.9007  0.3675  0.6359
 4729SOL     OW15085   0.715   1.440   5.507  0.1311  0.4832  0.2829
 4729SOL    HW115086   0.750   1.368   5.447 -1.5022 -0.4004  0.3191
 4729SOL    HW215087   0.646   1.494   5.459  0.5446  1.3172  0.6132
 4730SOL     OW15088   1.522   0.536   5.230 -0.3769 -0.7708 -0.2211
 4730SOL    HW115089   1.508   0.575   5.321 -1.2811 -0.8790 -0.2986
 4730SOL    HW215090   1.561   0.605   5.169 -2.1126  0.1229 -0.4026
 4731SOL     OW15091   2.985   6.873   0.833 -0.0792  0.0323 -0.3843
 4731SOL    HW115092   2.941   6.867   0.922 -1.9567 -0.3912 -1.2695
 4731SOL    HW215093   3.004   6.968   0.811  1.1742  0.0699  0.8006
 4732SOL     OW15094   0.826   4.492   3.754 -0.6382 -0.2622  0.3225
 4732SOL    HW115095   0.844   4.462   3.660 -0.4408 -1.1004  0.6177
 4732SOL    HW215096   0.740   4.543   3.757  0.0214  0.9543 -0.5456
 4733SOL     OW15097   2.464   2.574   3.665 -0.0125 -0.2391 -0.0836
 4733SOL    HW115098   2.404   2.501   3.697 -0.1081 -0.2328 -0.2481
 4733SOL    HW215099   2.554   2.535   3.642 -0.3932 -0.4905 -1.2028
 4734SOL     OW15100   2.115   3.809   5.938  0.4224 -0.3515  0.2388
 4734SOL    HW115101   2.188   3.741   5.929  0.7496  0.0839 -0.5674
 4734SOL    HW215102   2.096   3.849   5.848 -1.3845 -1.0342  0.2578
 4735SOL     OW15103   6.414   1.463   5.569  0.0789 -0.0378  0.5473
 4735SOL    HW115104   6.361   1.459   5.484  0.3140 -4.8245  0.3339
 4735SOL    HW215105   6.353   1.474   5.646 -0.6051  0.2028 -0.0206
 4736SOL     OW15106   4.991   1.070   3.503 -0.3310 -0.3819 -0.0070
 4736SOL    HW115107   5.037   1.158   3.497  0.4645 -0.7630  0.3429
 4736SOL    HW215108   5.045   1.008   3.561 -0.8670 -1.1008 -0.2644
 4737SOL     OW15109   3.515   3.794   6.685  0.1627  0.0835  0.8206
 4737SOL    HW115110   3.475   3.799   6.776  0.7331 -1.1453  1.1622
 4737SOL    HW215111   3.545   3.700   6.667 -1.6945 -0.1728 -1.3919
 4738SOL     OW15112   1.450   2.794   2.070  1.3280  0.0294  0.3382
 4738SOL    HW115113   1.540   2.812   2.109  0.6593  2.5390  0.9495
 4738SOL    HW215114   1.389   2.760   2.142  1.9876 -2.7739 -0.3140
 4739SOL     OW15115   5.372   3.324   2.898  0.8127 -0.4558 -0.0726
 4739SOL    HW115116   5.275   3.321   2.922  0.5650 -1.2150 -1.1301
 4739SOL    HW215117   5.383   3.366   2.808  1.3552 -1.4009 -0.4591
 4740SOL     OW15118   1.691   0.302   2.397  0.3075 -0.0919 -0.0460
 4740SOL    HW115119   1.774   0.338   2.355  0.0704 -0.6885 -1.0430
 4740SOL    HW215120   1.695   0.318   2.496  1.2253  0.6228 -0.1825
 4741SOL     OW15121   4.780   4.296   2.305  0.0146 -0.0521  0.3063
 4741SOL    HW115122   4.750   4.236   2.380  0.8974 -0.9831 -0.0510
 4741SOL    HW215123   4.746   4.389   2.320 -0.5537 -0.4213  1.3967
 4742SOL     OW15124   2.409   5.688   0.787 -0.3835 -0.4448 -0.6146
 4742SOL    HW115125   2.507   5.702   0.773 -0.5669 -0.1509 -1.6961
 4742SOL    HW215126   2.394   5.644   0.876  0.7308 -0.6041 -0.4891
 4743SOL     OW15127   2.128   4.086   1.006  0.1269 -0.0919  0.4574
 4743SOL    HW115128   2.216   4.111   1.047 -0.0858  0.8009  0.3710
 4743SOL    HW215129   2.054   4.135   1.053 -0.0376  1.9211 -1.7391
 4744SOL     OW15130   2.733   0.546   0.960  0.1613  0.3079 -0.0219
 4744SOL    HW115131   2.741   0.462   1.014 -0.4452  0.1783 -0.1197
 4744SOL    HW215132   2.736   0.523   0.863 -2.1852  0.1088 -0.1053
 4745SOL     OW15133   4.532   5.020   4.680  0.2466 -0.1632 -0.0185
 4745SOL    HW115134   4.437   5.025   4.649 -0.4790 -0.1233  2.0572
 4745SOL    HW215135   4.537   4.967   4.765  2.2949 -1.3141 -0.7975
 4746SOL     OW15136   6.004   2.039   0.227  0.2049 -0.2565  0.0639
 4746SOL    HW115137   5.986   1.946   0.194  0.2607 -0.1373 -0.3046
 4746SOL    HW215138   5.992   2.041   0.326 -0.0744 -0.5926  0.0421
 4747SOL     OW15139   1.372   4.253   0.985  0.5116  0.0326  0.1005
 4747SOL    HW115140   1.375   4.317   0.908  0.9205 -0.7927 -0.5787
 4747SOL    HW215141   1.452   4.193   0.982  0.6814  0.1559  1.3286
 4748SOL     OW15142   4.164   0.087   6.791  0.5138 -0.2469  0.0080
 4748SOL    HW115143   4.094   0.141   6.745  0.6836 -0.5344 -0.6001
 4748SOL    HW215144   4.218   0.037   6.723  0.3022 -1.2588  0.5599
 4749SOL     OW15145   4.310   3.260   0.535  0.3764 -0.0137 -0.2999
 4749SOL    HW115146   4.390   3.203   0.552  0.0753 -0.3027  0.1789
 4749SOL    HW215147   4.264   3.228   0.452 -0.2883 -1.0589  0.4424
 4750SOL     OW15148   1.526   0.523   3.759 -0.0440 -0.3631 -0.2051
 4750SOL    HW115149   1.486   0.535   3.668  0.7752 -0.6039 -0.6132
 4750SOL    HW215150   1.609   0.468   3.751 -0.4675 -1.1693  0.8223
 4751SOL     OW15151   3.607   2.871   5.897 -1.1190 -0.8585  0.4428
 4751SOL    HW115152   3.553   2.856   5.814  1.2376 -2.0783 -0.9589
 4751SOL    HW215153   3.598   2.793   5.958 -0.2834 -1.4853 -0.2103
 4752SOL     OW15154   2.907   4.890   0.911 -0.6129  0.2582  0.4732
 4752SOL    HW115155   2.906   4.915   1.008 -0.6263 -1.8941  1.0800
 4752SOL    HW215156   3.000   4.867   0.884 -0.9169 -1.1221  0.5485
 4753SOL     OW15157   6.660   1.614   6.253  0.5729 -0.2633  0.2616
 4753SOL    HW115158   6.622   1.706   6.266  1.2237  0.4499 -2.4211
 4753SOL    HW215159   6.659   1.566   6.341  0.4019  2.3548  1.8114
 4754SOL     OW15160   3.523   4.907   6.125  0.2066 -0.1214  0.3553
 4754SOL    HW115161   3.447   4.842   6.133  0.5059 -0.5755 -0.3754
 4754SOL    HW215162   3.487   5.000   6.112 -0.2307 -0.0277  2.0014
 4755SOL     OW15163   1.724   0.339   3.444  0.0687 -0.2666 -0.1058
 4755SOL    HW115164   1.697   0.318   3.350 -1.0740  1.1311 -0.1357
 4755SOL    HW215165   1.670   0.285   3.507  0.6251 -0.9872 -0.2350
 4756SOL     OW15166   6.591   3.820   6.944 -0.1701  0.4242 -0.5984
 4756SOL    HW115167   6.642   3.902   6.972  1.5137 -1.0505  0.8921
 4756SOL    HW215168   6.649   3.740   6.953 -2.3984 -1.2270 -0.0670
 4757SOL     OW15169   2.370   2.851   1.271  0.4597 -0.0371  0.0214
 4757SOL    HW115170   2.425   2.904   1.335  2.7467 -1.1915 -0.8812
 4757SOL    HW215171   2.412   2.761   1.256 -0.2383 -0.0232 -2.6739
 4758SOL     OW15172   6.994   4.212   6.017 -0.2443 -0.0889 -0.1365
 4758SOL    HW115173   6.910   4.239   6.066 -0.0812  1.5441 -0.6882
 4758SOL    HW215174   7.025   4.124   6.051 -2.0819 -0.6506  0.2198
 4759SOL     OW15175   6.219   4.316   5.845 -0.5344  0.5050 -0.2867
 4759SOL    HW115176   6.150   4.317   5.917  1.2165  2.4817  1.5247
 4759SOL    HW215177   6.213   4.401   5.792  0.5459  0.7665 -0.0139
 4760SOL     OW15178   1.335   2.174   6.432 -0.1676  0.6239 -0.6990
 4760SOL    HW115179   1.287   2.202   6.516 -0.1833  0.5719 -0.6904
 4760SOL    HW215180   1.300   2.085   6.402  0.5815  0.1294 -0.1652
 4761SOL     OW15181   1.982   6.274   6.867 -0.1057  0.0705  0.1352
 4761SOL    HW115182   1.947   6.295   6.959  1.2980 -0.8398  0.9111
 4761SOL    HW215183   2.072   6.316   6.856  0.9703 -2.0529  0.2444
 4762SOL     OW15184   4.110   1.588   3.311  0.1975 -0.4407 -0.3660
 4762SOL    HW115185   4.127   1.518   3.242  1.6809  0.0945 -0.5921
 4762SOL    HW215186   4.141   1.556   3.400  0.7543 -0.1318 -0.4454
 4763SOL     OW15187   4.350   5.797   5.571  0.1372  0.1926 -0.4735
 4763SOL    HW115188   4.269   5.746   5.600  0.0704  0.4124 -0.2637
 4763SOL    HW215189   4.371   5.867   5.640  1.0717 -0.4837 -0.0483
 4764SOL     OW15190   2.871   3.384   5.277  0.1075  0.2943 -0.7047
 4764SOL    HW115191   2.773   3.402   5.283 -0.2860 -1.5691 -0.9441
 4764SOL    HW215192   2.917   3.418   5.360 -0.9542 -0.0054  0.0236
 4765SOL     OW15193   0.487   4.640   1.136  0.4521 -0.4033  0.2844
 4765SOL    HW115194   0.565   4.588   1.101  0.6681 -0.9753  1.5396
 4765SOL    HW215195   0.419   4.577   1.173  0.2401  0.1543  0.8704
 4766SOL     OW15196   3.542   1.480   1.436 -0.1082  0.2028 -0.4994
 4766SOL    HW115197   3.491   1.395   1.450 -1.3654  1.0775  0.4259
 4766SOL    HW215198   3.530   1.540   1.515 -1.9974  2.6057 -2.4592
 4767SOL     OW15199   4.317   0.353   6.779  0.2961  0.7642  0.1100
 4767SOL    HW115200   4.282   0.323   6.690 -1.2179 -2.1932  1.5299
 4767SOL    HW215201   4.242   0.353   6.845  1.9785 -0.4694  2.1300
 4768SOL     OW15202   0.410   6.936   4.881 -1.1538  0.5897 -0.5106
 4768SOL    HW115203   0.506   6.953   4.859 -1.2583  0.2521 -1.2339
 4768SOL    HW215204   0.356   7.018   4.861 -1.2655  0.2565 -1.6468
 4769SOL     OW15205   3.883   1.896   2.979 -0.2030 -0.1657 -0.5498
 4769SOL    HW115206   3.812   1.827   2.963 -1.5271  1.3048 -1.1727
 4769SOL    HW215207   3.958   1.854   3.030 -0.3355 -2.4218 -2.0682
 4770SOL     OW15208   1.540   1.194   3.806 -0.3127 -0.2425  0.4341
 4770SOL    HW115209   1.501   1.112   3.849 -0.8788  0.0950  0.5743
 4770SOL    HW215210   1.616   1.227   3.862  0.0850 -0.8110  0.2455
 4771SOL     OW15211   5.471   5.042   5.681 -0.0053  0.2847  0.1804
 4771SOL    HW115212   5.551   5.011   5.733 -0.4533  2.3743  2.3005
 4771SOL    HW215213   5.388   5.006   5.724 -0.3017 -0.5251 -1.0261
 4772SOL     OW15214   4.646   2.403   6.904  0.2064 -0.1979  0.6110
 4772SOL    HW115215   4.592   2.325   6.937  0.8937 -0.2396  1.6635
 4772SOL    HW215216   4.742   2.389   6.927  0.9341 -0.7409 -2.3936
 4773SOL     OW15217   0.005   3.938   2.628  0.5750  0.0894  0.8177
 4773SOL    HW115218  -0.019   4.031   2.655 -0.1868  0.1678 -0.0660
 4773SOL    HW215219  -0.052   3.910   2.551  0.0119 -1.5228  1.7715
 4774SOL     OW15220   2.659   5.347   0.030  0.5344 -0.5945 -0.6334
 4774SOL    HW115221   2.640   5.365   0.126  0.4978 -1.5631 -0.4463
 4774SOL    HW215222   2.574   5.355  -0.023  0.5337 -0.1787 -0.5750
 4775SOL     OW15223   6.061   4.711   1.412  0.3876  0.5267  0.5403
 4775SOL    HW115224   6.071   4.780   1.341  0.2358  0.2014  0.1942
 4775SOL    HW215225   6.144   4.708   1.468  0.8897  0.1647 -0.1928
 4776SOL     OW15226   2.838   5.366   1.427 -0.1226  0.4269 -0.5008
 4776SOL    HW115227   2.771   5.328   1.491 -1.1459  2.6372 -0.2095
 4776SOL    HW215228   2.810   5.346   1.333 -1.0536  1.0768 -0.3739
 4777SOL     OW15229   1.320   4.571   0.477 -0.0187 -0.6314 -0.3071
 4777SOL    HW115230   1.265   4.584   0.560  1.2829 -2.2907  0.8759
 4777SOL    HW215231   1.349   4.660   0.442 -3.0053  0.3008 -0.7422
 4778SOL     OW15232   4.295   3.771   1.604  0.2921  0.1132 -0.3808
 4778SOL    HW115233   4.270   3.839   1.674 -1.6448 -0.8761 -0.0545
 4778SOL    HW215234   4.330   3.689   1.648 -0.7864 -0.4548 -0.5595
 4779SOL     OW15235   6.084   1.856   3.126 -0.3431 -0.1511 -0.0575
 4779SOL    HW115236   6.180   1.878   3.141 -0.0732  0.3628 -2.2387
 4779SOL    HW215237   6.032   1.940   3.109 -1.1227 -0.4567  0.7094
 4780SOL     OW15238   0.651   1.217   4.928 -0.3175  0.1100 -0.0632
 4780SOL    HW115239   0.619   1.243   5.020  2.1740  2.1181  0.3572
 4780SOL    HW215240   0.702   1.293   4.889  0.3937 -1.4550 -2.3194
 4781SOL     OW15241   2.431   6.633   3.890  0.4502 -1.0054  0.0774
 4781SOL    HW115242   2.473   6.619   3.980  1.4246  3.5682  0.5441
 4781SOL    HW215243   2.344   6.680   3.900 -0.5015 -2.3303 -1.3711
 4782SOL     OW15244   1.206   0.431   0.794 -0.4603 -0.4485  0.1430
 4782SOL    HW115245   1.212   0.530   0.786  0.4705 -0.2370  2.5064
 4782SOL    HW215246   1.297   0.390   0.789 -0.7209 -1.0615  0.2182
 4783SOL     OW15247   3.739   6.581   4.143  0.7338  0.0178 -0.1873
 4783SOL    HW115248   3.812   6.630   4.096  0.0549 -0.0782 -1.3705
 4783SOL    HW215249   3.666   6.558   4.078 -0.7002  0.7495  1.1047
 4784SOL     OW15250   2.563   5.189   4.653  0.4212 -0.3912 -0.1920
 4784SOL    HW115251   2.484   5.207   4.712 -0.8708 -0.2073 -1.8656
 4784SOL    HW215252   2.588   5.092   4.658 -1.1012 -0.8561 -0.9675
 4785SOL     OW15253   6.688   6.381   0.300  0.2018 -0.0364  0.8916
 4785SOL    HW115254   6.624   6.447   0.340  0.4299  2.2442 -2.2013
 4785SOL    HW215255   6.638   6.298   0.275 -1.0432  0.7217  0.7850
 4786SOL     OW15256   1.116   3.421   3.191 -0.0368  0.3500 -0.6652
 4786SOL    HW115257   1.074   3.347   3.244 -0.4732  0.2304 -1.1718
 4786SOL    HW215258   1.045   3.471   3.141  0.2345  1.2537 -0.1587
 4787SOL     OW15259   5.730   1.699   1.749 -0.0919 -0.3942 -0.0790
 4787SOL    HW115260   5.813   1.669   1.703  0.0952  0.0438 -0.0331
 4787SOL    HW215261   5.745   1.700   1.848  0.1562  0.5495 -0.1093
 4788SOL     OW15262   2.551   0.571   4.414  0.3616  0.5715 -0.3599
 4788SOL    HW115263   2.605   0.521   4.482 -0.9753  0.4224  0.6395
 4788SOL    HW215264   2.489   0.508   4.368  0.2742  0.9199 -0.7236
 4789SOL     OW15265   5.723   0.875   6.568  0.0497  0.0490  0.5286
 4789SOL    HW115266   5.662   0.834   6.635  1.9370 -2.7374  0.6996
 4789SOL    HW215267   5.796   0.925   6.615  1.4818 -2.0646  0.6724
 4790SOL     OW15268   4.267   0.093   0.009  0.2538 -0.7411 -0.8626
 4790SOL    HW115269   4.233   0.080  -0.084 -0.3477 -0.9157 -0.6220
 4790SOL    HW215270   4.343   0.158   0.008 -0.0315 -0.4122 -1.4138
 4791SOL     OW15271   5.270   3.411   2.220 -0.5349 -0.2032 -0.3845
 4791SOL    HW115272   5.180   3.373   2.201 -0.4086 -0.6687 -0.0657
 4791SOL    HW215273   5.300   3.382   2.311  0.8300 -1.7690 -1.2942
 4792SOL     OW15274   1.876   3.047   2.152 -0.0198  0.3207 -0.1610
 4792SOL    HW115275   1.936   2.975   2.188 -0.1306  0.5475  0.4905
 4792SOL    HW215276   1.931   3.122   2.116  0.1382 -0.6786 -2.1593
 4793SOL     OW15277   0.002   0.691   6.217  0.3048  0.0194  0.5323
 4793SOL    HW115278   0.021   0.621   6.149  1.2507  0.2469  0.5589
 4793SOL    HW215279  -0.026   0.648   6.303 -1.7456 -0.2633 -0.2012
 4794SOL     OW15280   6.954   0.522   1.911  0.3118  0.5018  0.1583
 4794SOL    HW115281   6.976   0.611   1.870  1.3975  0.8074  1.3262
 4794SOL    HW215282   6.882   0.478   1.858 -0.1539  2.0105 -0.5254
 4795SOL     OW15283   5.450   2.068   5.494 -0.0762 -0.6170 -0.4343
 4795SOL    HW115284   5.433   1.970   5.493 -2.8357 -0.2180 -0.6567
 4795SOL    HW215285   5.452   2.101   5.588  1.0940 -0.9075 -0.3520
 4796SOL     OW15286   5.395   4.603   0.641  0.0098  0.1939  0.3747
 4796SOL    HW115287   5.366   4.523   0.692  1.0075 -0.2270  0.2953
 4796SOL    HW215288   5.410   4.679   0.704 -1.8109  0.6118  0.3607
 4797SOL     OW15289   1.537   5.198   5.418 -0.5559 -0.1088  0.6354
 4797SOL    HW115290   1.469   5.165   5.352 -0.6615  1.7339 -0.2357
 4797SOL    HW215291   1.626   5.203   5.373 -0.6209  1.1144  0.6156
 4798SOL     OW15292   1.529   3.564   6.944 -0.2885 -0.2126 -0.3491
 4798SOL    HW115293   1.512   3.631   6.872 -0.7217 -0.0512 -0.0939
 4798SOL    HW215294   1.543   3.474   6.902 -2.1973 -0.4513 -0.5548
 4799SOL     OW15295   4.475   0.642   3.676 -0.6772 -0.0252  0.0610
 4799SOL    HW115296   4.378   0.652   3.654 -0.4493  0.7307 -0.6955
 4799SOL    HW215297   4.523   0.602   3.598 -0.3190 -0.0167  0.2736
 4800SOL     OW15298   0.072   1.799   3.696  0.0342 -0.0131 -0.0946
 4800SOL    HW115299   0.082   1.842   3.785  0.1365 -1.5574  0.6712
 4800SOL    HW215300   0.161   1.771   3.662 -0.1142 -0.3321 -0.2247
 4801SOL     OW15301   0.892   1.312   6.690  0.3226 -0.1586 -0.7095
 4801SOL    HW115302   0.869   1.331   6.595  0.5547 -1.0945 -0.9656
 4801SOL    HW215303   0.843   1.375   6.750 -2.7752 -1.9267 -1.2161
 4802SOL     OW15304   2.132   6.094   0.908  0.2716  0.1373  0.0260
 4802SOL    HW115305   2.135   6.184   0.951  3.4668 -0.1177  0.5684
 4802SOL    HW215306   2.101   6.026   0.975  0.0225  0.5107  0.2901
 4803SOL     OW15307   0.712   1.753   0.381  0.7483  0.3563 -0.1769
 4803SOL    HW115308   0.776   1.680   0.354  0.7761 -0.2218  1.3829
 4803SOL    HW215309   0.715   1.826   0.312  1.4982 -0.6235 -1.2316
 4804SOL     OW15310   4.695   4.855   6.398 -0.3004 -0.1315 -0.1884
 4804SOL    HW115311   4.793   4.866   6.381 -0.5255  0.3626 -1.2623
 4804SOL    HW215312   4.662   4.774   6.349 -0.1797 -1.1100  1.2966
 4805SOL     OW15313   4.641   0.716   1.454 -0.1193  0.2318 -0.3230
 4805SOL    HW115314   4.641   0.788   1.523  0.6123 -0.8745  0.8793
 4805SOL    HW215315   4.653   0.627   1.499  1.4525 -0.4413 -1.9320
 4806SOL     OW15316   1.317   0.369   3.891  0.4063 -0.1063  0.6588
 4806SOL    HW115317   1.240   0.405   3.943 -0.4843 -0.0530 -0.6556
 4806SOL    HW215318   1.357   0.442   3.836  0.3989 -0.4962  0.1361
 4807SOL     OW15319   2.214   1.311   2.307 -0.1031  0.6417  0.1323
 4807SOL    HW115320   2.157   1.268   2.238  1.4921 -0.1367 -0.7573
 4807SOL    HW215321   2.253   1.396   2.271 -0.7565  1.2216  0.7656
 4808SOL     OW15322   5.644   1.154   6.753  0.2485  0.8194  0.7956
 4808SOL    HW115323   5.651   1.198   6.842 -1.2995 -1.1834  2.0003
 4808SOL    HW215324   5.556   1.178   6.711  0.8202  1.4749 -0.0343
 4809SOL     OW15325   3.527   5.370   0.797 -0.6819  0.3348  0.2850
 4809SOL    HW115326   3.605   5.315   0.828 -0.7033 -0.5125 -1.1073
 4809SOL    HW215327   3.558   5.435   0.728 -1.1902  0.0555 -0.2100
 4810SOL     OW15328   2.204   0.418   6.484 -0.4029 -0.4802  0.1053
 4810SOL    HW115329   2.199   0.508   6.527 -1.4597 -0.5242  0.1068
 4810SOL    HW215330   2.271   0.361   6.531 -0.7832 -0.1749  1.0240
 4811SOL     OW15331   6.049   5.213   2.619 -0.2649 -0.2961  0.5906
 4811SOL    HW115332   6.093   5.181   2.535 -0.5582  1.5212 -0.2930
 4811SOL    HW215333   6.111   5.200   2.696  0.4519 -0.9522 -0.0881
 4812SOL     OW15334   0.095   3.693   4.106  0.2276 -0.3531 -0.2152
 4812SOL    HW115335   0.016   3.751   4.127  1.9576  1.5425  1.4832
 4812SOL    HW215336   0.145   3.731   4.028  0.4068 -0.5483 -0.1977
 4813SOL     OW15337   6.484   4.705   1.348 -0.2533 -0.0792 -0.4544
 4813SOL    HW115338   6.432   4.665   1.273 -0.9713 -2.7081  1.3028
 4813SOL    HW215339   6.578   4.671   1.344  0.1655  1.0935 -1.0528
 4814SOL     OW15340   0.626   3.923   1.076 -0.6063  0.4622 -0.4808
 4814SOL    HW115341   0.577   3.958   1.156 -1.2190  1.7444 -1.4014
 4814SOL    HW215342   0.723   3.912   1.099 -0.1136  3.9643 -0.4668
 4815SOL     OW15343   6.656   0.780   2.985 -0.0430 -0.1400  0.1024
 4815SOL    HW115344   6.677   0.686   2.961 -0.5238 -0.3515  0.4738
 4815SOL    HW215345   6.562   0.802   2.957  0.0467  0.2104  0.0652
 4816SOL     OW15346   5.657   4.147   0.948 -0.5187  0.2491  0.1019
 4816SOL    HW115347   5.599   4.211   0.898  0.7082  0.6306 -0.8758
 4816SOL    HW215348   5.712   4.196   1.014 -1.3400 -0.1234  1.0894
 4817SOL     OW15349   0.078   0.448   6.614  0.1259 -0.0955 -0.2221
 4817SOL    HW115350   0.046   0.416   6.703 -0.7443  1.7210  0.1754
 4817SOL    HW215351   0.171   0.483   6.623  0.7388 -1.5950 -0.4647
 4818SOL     OW15352   5.497   0.920   4.020  0.4509 -0.2958  0.6069
 4818SOL    HW115353   5.482   0.864   3.938 -1.1915  1.0701 -0.0870
 4818SOL    HW215354   5.592   0.953   4.021  0.7125 -0.9832 -0.3247
 4819SOL     OW15355   2.504   1.312   6.953 -0.7809 -0.4839 -0.2607
 4819SOL    HW115356   2.474   1.225   6.992 -0.0405 -0.9957 -0.8066
 4819SOL    HW215357   2.494   1.384   7.022  0.6902 -1.3963  1.0009
 4820SOL     OW15358   5.324   5.446   1.945 -0.2560  0.2371  0.0308
 4820SOL    HW115359   5.424   5.450   1.942 -0.2758  0.4345 -1.3716
 4820SOL    HW215360   5.289   5.514   2.010  0.5038  0.6849 -0.0155
 4821SOL     OW15361   0.330   4.801   3.329 -0.6266  0.2799 -0.2938
 4821SOL    HW115362   0.311   4.862   3.252 -0.5387 -0.8289 -1.2266
 4821SOL    HW215363   0.247   4.750   3.352 -0.1886 -0.7190 -0.8720
 4822SOL     OW15364   2.467   6.239   5.617 -0.3900  0.0886  0.1264
 4822SOL    HW115365   2.384   6.262   5.567  0.7790  1.5536 -1.2516
 4822SOL    HW215366   2.536   6.205   5.553  0.7227  0.7535  0.9309
 4823SOL     OW15367   2.330   1.979   6.745  0.0523  0.6333 -0.3768
 4823SOL    HW115368   2.367   1.951   6.833  1.2247 -0.1584 -1.1015
 4823SOL    HW215369   2.238   2.017   6.758  0.4179  1.0251  1.2351
 4824SOL     OW15370   5.519   1.411   1.344 -0.5505  0.0511  0.2194
 4824SOL    HW115371   5.521   1.476   1.420  0.0511 -0.7180  0.8785
 4824SOL    HW215372   5.610   1.403   1.305 -0.7516  0.0533 -0.2598
 4825SOL     OW15373   0.866   5.908   2.005 -0.0253  0.3064 -0.5069
 4825SOL    HW115374   0.797   5.961   1.956 -2.1015 -1.7627 -0.0269
 4825SOL    HW215375   0.838   5.896   2.100  0.9365 -0.6557 -0.3209
 4826SOL     OW15376   4.516   5.960   2.482 -0.1652  0.0289  0.0225
 4826SOL    HW115377   4.445   6.027   2.503  0.0245  0.3643 -0.3876
 4826SOL    HW215378   4.558   5.982   2.394 -1.2862 -1.5964 -0.9793
 4827SOL     OW15379   4.886   1.660   0.280  0.5561 -0.1781  0.0998
 4827SOL    HW115380   4.931   1.676   0.193  0.7614 -0.1711  0.2087
 4827SOL    HW215381   4.852   1.566   0.284  2.0272 -0.7106  0.6873
 4828SOL     OW15382   6.147   1.989   6.594  0.2329  0.2955 -0.0177
 4828SOL    HW115383   6.239   2.022   6.613 -0.1405  2.7300 -1.9000
 4828SOL    HW215384   6.146   1.939   6.507 -0.2048  0.2063  0.0330
 4829SOL     OW15385   3.773   6.541   6.651  0.3301 -0.1018  0.1275
 4829SOL    HW115386   3.818   6.452   6.647 -0.0427 -0.4427  2.1427
 4829SOL    HW215387   3.842   6.613   6.657  0.6276 -0.2477 -1.2455
 4830SOL     OW15388   0.091   5.882   4.658  0.8543 -0.4874  0.6691
 4830SOL    HW115389   0.179   5.845   4.689  0.3787 -1.1921  1.1976
 4830SOL    HW215390   0.062   5.955   4.719  0.8911 -0.5085  0.7118
 4831SOL     OW15391   3.404   4.658   6.157 -0.3860 -0.0770 -0.2404
 4831SOL    HW115392   3.431   4.592   6.087  0.5704  0.4903 -0.4292
 4831SOL    HW215393   3.461   4.646   6.238  1.1283  1.7222 -0.9677
 4832SOL     OW15394   4.016   3.646   3.622  0.4814  0.1799 -0.0342
 4832SOL    HW115395   4.020   3.730   3.677 -0.6842  0.8020 -0.8566
 4832SOL    HW215396   4.031   3.567   3.681 -1.7296  0.7497  1.4288
 4833SOL     OW15397   6.357   2.254   6.381 -0.0238 -0.4387  0.2051
 4833SOL    HW115398   6.365   2.164   6.339 -1.4634 -0.6219  0.2615
 4833SOL    HW215399   6.265   2.265   6.419 -0.5536  1.7771 -1.4943
 4834SOL     OW15400   4.038   4.311   5.837  0.5771  0.2809  0.2519
 4834SOL    HW115401   4.028   4.321   5.738  0.8451 -0.6974  0.1124
 4834SOL    HW215402   4.080   4.393   5.874  0.0770  0.8406 -0.3772
 4835SOL     OW15403   1.967   3.741   0.536  0.3871 -0.3048  0.9669
 4835SOL    HW115404   1.867   3.733   0.539  0.1486  0.3253 -2.0111
 4835SOL    HW215405   1.994   3.829   0.573 -0.5842  1.0597 -1.3168
 4836SOL     OW15406   3.556   0.652   6.050  0.5633  0.0161  0.5363
 4836SOL    HW115407   3.592   0.562   6.025 -1.0806 -0.9899  1.5631
 4836SOL    HW215408   3.546   0.657   6.149 -1.1462  0.5887  0.3665
 4837SOL     OW15409   2.150   2.997   5.506 -0.0533  0.9589  0.1862
 4837SOL    HW115410   2.199   2.931   5.448  1.8960  1.8366  0.7568
 4837SOL    HW215411   2.055   3.004   5.475  0.2645 -0.4686 -1.2717
 4838SOL     OW15412   0.867   5.172   1.224  0.0264  0.0360 -0.0418
 4838SOL    HW115413   0.965   5.155   1.229  0.2738  1.5342  0.8806
 4838SOL    HW215414   0.818   5.094   1.263  0.9729  0.1971  1.5834
 4839SOL     OW15415   2.119   1.941   2.819 -0.3899  0.2750 -0.5722
 4839SOL    HW115416   2.082   1.849   2.813 -0.3453  0.2498 -0.4726
 4839SOL    HW215417   2.127   1.967   2.916 -2.2468  1.1273 -0.6059
 4840SOL     OW15418   5.049   2.017   5.330 -0.5691  0.3031  0.5087
 4840SOL    HW115419   5.071   2.001   5.233  3.5455 -2.0500  1.5442
 4840SOL    HW215420   5.108   2.089   5.366 -1.1046  0.2496  1.5269
 4841SOL     OW15421   2.431   5.518   2.428  0.1943 -0.8672  0.3256
 4841SOL    HW115422   2.346   5.570   2.418  1.0328  0.8561  1.6433
 4841SOL    HW215423   2.476   5.544   2.513  1.5338 -2.5455  0.1809
 4842SOL     OW15424   4.275   5.047   3.112  0.2023  0.4893  0.0367
 4842SOL    HW115425   4.190   5.011   3.073  0.2720 -0.1586  0.4668
 4842SOL    HW215426   4.323   4.973   3.161 -0.3577  1.5011  2.2069
 4843SOL     OW15427   4.843   2.517   5.479 -0.1419 -0.2459 -0.0369
 4843SOL    HW115428   4.771   2.545   5.543 -0.1731 -1.5842  0.5400
 4843SOL    HW215429   4.808   2.445   5.419  1.0090 -1.7826  1.0421
 4844SOL     OW15430   1.269   3.299   5.476 -0.0417  0.3413  0.4688
 4844SOL    HW115431   1.309   3.247   5.401  0.4606  0.1157  0.8840
 4844SOL    HW215432   1.326   3.380   5.494  0.2137  0.0373  1.0436
 4845SOL     OW15433   6.926   3.907   4.684 -0.1274 -0.3476 -0.2210
 4845SOL    HW115434   6.945   3.812   4.710  1.6790 -0.4587 -1.7373
 4845SOL    HW215435   6.957   3.923   4.590 -1.5719  1.4288 -0.4581
 4846SOL     OW15436   6.197   2.428   5.199 -0.2915  0.4642 -0.2411
 4846SOL    HW115437   6.154   2.434   5.109 -0.7879  0.1313 -0.0292
 4846SOL    HW215438   6.289   2.391   5.189 -0.5893 -0.2321 -0.5496
 4847SOL     OW15439   1.480   5.805   6.156 -0.3671 -0.0637 -0.2527
 4847SOL    HW115440   1.483   5.765   6.247  0.5822  0.5946  0.0172
 4847SOL    HW215441   1.499   5.903   6.162  3.1595 -0.5347 -1.4453
 4848SOL     OW15442   4.971   1.674   3.023 -0.1141  0.0489  0.2636
 4848SOL    HW115443   4.922   1.760   3.034 -1.6015 -0.8158  0.5779
 4848SOL    HW215444   5.011   1.671   2.931  0.6370  1.3909  0.5174
 4849SOL     OW15445   0.605   0.075   1.821 -0.2117  0.0701  0.0560
 4849SOL    HW115446   0.611  -0.023   1.836  0.6424  0.1273  0.1148
 4849SOL    HW215447   0.542   0.094   1.746 -0.3097 -0.5256 -0.0104
 4850SOL     OW15448   2.806   0.313   3.118 -0.1214  0.5605  0.5126
 4850SOL    HW115449   2.882   0.250   3.127  1.1040  2.1431  1.7123
 4850SOL    HW215450   2.798   0.343   3.023  1.6073  1.3531  0.5858
 4851SOL     OW15451   5.438   6.134   5.205 -0.3183  0.2295 -0.4743
 4851SOL    HW115452   5.436   6.104   5.301 -0.1363  3.3710  0.6474
 4851SOL    HW215453   5.527   6.112   5.165  1.5605  3.0357  1.7418
 4852SOL     OW15454   3.661   4.292   5.748  0.1930 -0.1781 -0.0739
 4852SOL    HW115455   3.732   4.228   5.720 -1.1078 -1.8600  0.2878
 4852SOL    HW215456   3.592   4.299   5.676  0.1474  0.5698  0.0315
 4853SOL     OW15457   2.961   6.627   1.725  0.1197  0.0768  0.2308
 4853SOL    HW115458   2.864   6.647   1.737  0.0664  0.2154 -0.3997
 4853SOL    HW215459   2.977   6.592   1.633  0.5342 -0.8220  0.6380
 4854SOL     OW15460   4.779   0.376   2.089 -0.1172 -0.0289 -0.0911
 4854SOL    HW115461   4.850   0.321   2.045 -0.5028  0.1603 -0.9823
 4854SOL    HW215462   4.803   0.393   2.184  1.8833  1.4209 -0.7894
 4855SOL     OW15463   5.289   4.169   4.413  0.3455 -0.0145 -0.1280
 4855SOL    HW115464   5.250   4.235   4.349  1.3014  1.0919  0.3869
 4855SOL    HW215465   5.312   4.215   4.499  1.1081 -1.0053  0.2194
 4856SOL     OW15466   0.954   3.110   2.230 -0.1348  0.6067  0.2307
 4856SOL    HW115467   1.015   3.031   2.226 -1.9687 -0.8650 -2.9408
 4856SOL    HW215468   0.895   3.102   2.310 -1.3627 -2.2613 -0.8060
 4857SOL     OW15469   3.683   1.140   6.357 -0.4511  0.0942 -1.0838
 4857SOL    HW115470   3.752   1.112   6.290 -0.8436 -0.7425 -1.1546
 4857SOL    HW215471   3.728   1.187   6.434  0.2291 -0.6456 -1.0153
 4858SOL     OW15472   3.790   5.775   5.939 -0.0656  0.2474  0.0097
 4858SOL    HW115473   3.779   5.730   6.028  0.5859 -1.4875 -0.7252
 4858SOL    HW215474   3.736   5.725   5.871 -0.8493  1.7734 -0.5195
 4859SOL     OW15475   6.924   4.898   3.591  0.0287  0.2189  0.0462
 4859SOL    HW115476   6.848   4.959   3.566 -0.1911 -0.7416 -1.8304
 4859SOL    HW215477   7.008   4.934   3.551  0.0609 -0.1821 -0.2548
 4860SOL     OW15478   3.365   4.550   0.770  0.1705 -0.2061  0.0237
 4860SOL    HW115479   3.317   4.467   0.795  1.6989 -0.7827  1.2349
 4860SOL    HW215480   3.321   4.629   0.814 -1.3733 -0.3013 -1.2528
 4861SOL     OW15481   4.850   4.290   4.645  0.4048  0.2008  0.0709
 4861SOL    HW115482   4.790   4.365   4.673  0.5836  0.1797  0.5098
 4861SOL    HW215483   4.887   4.309   4.554 -2.7816 -1.2240 -1.7205
 4862SOL     OW15484   1.147   4.219   2.924  0.4266  0.3959  0.0539
 4862SOL    HW115485   1.184   4.211   2.831  0.1542 -1.7927  0.0734
 4862SOL    HW215486   1.052   4.190   2.924  1.2967 -2.8760  1.4818
 4863SOL     OW15487   5.189   1.168   0.011 -0.2912 -0.3772  0.2434
 4863SOL    HW115488   5.102   1.185  -0.036 -0.9816 -1.9372  0.8819
 4863SOL    HW215489   5.256   1.131  -0.053  0.0810  1.2418 -0.3507
 4864SOL     OW15490   1.889   3.296   2.712  0.5154  0.1901  0.3753
 4864SOL    HW115491   1.839   3.211   2.698  0.9045 -0.3923  2.2307
 4864SOL    HW215492   1.978   3.291   2.667 -0.5383  0.7870 -1.9604
 4865SOL     OW15493   3.804   0.092   6.026  0.1152 -0.3368 -0.1872
 4865SOL    HW115494   3.867   0.016   6.041 -1.8944 -2.0020  0.3978
 4865SOL    HW215495   3.835   0.172   6.077  1.6107 -1.1592  0.2502
 4866SOL     OW15496   1.157   4.873   1.735 -0.1864 -0.1901 -0.4601
 4866SOL    HW115497   1.211   4.789   1.742 -0.1357 -0.3909 -2.5467
 4866SOL    HW215498   1.172   4.914   1.645 -1.3009  1.3166  0.0073
 4867SOL     OW15499   5.182   5.345   6.108 -0.7668 -0.9239 -0.4589
 4867SOL    HW115500   5.272   5.315   6.141 -0.5882 -0.1191 -0.1817
 4867SOL    HW215501   5.150   5.283   6.037 -0.0759 -1.3338 -0.4188
 4868SOL     OW15502   1.708   6.334   3.245  0.3287  0.4211 -0.2981
 4868SOL    HW115503   1.777   6.313   3.315  1.7778 -0.8580 -2.0239
 4868SOL    HW215504   1.730   6.421   3.202 -0.6221  1.2599  0.8433
 4869SOL     OW15505   1.986   2.488   1.881  0.1749  0.3291  0.7452
 4869SOL    HW115506   1.929   2.508   1.801 -0.4735  2.1337  1.6040
 4869SOL    HW215507   2.074   2.450   1.850  0.0175  1.1642 -0.8421
 4870SOL     OW15508   5.145   0.950   0.878 -0.0864 -0.9345 -0.2995
 4870SOL    HW115509   5.240   0.978   0.863 -0.2903  1.2778  1.8041
 4870SOL    HW215510   5.134   0.921   0.973 -1.5500 -1.0193 -0.4791
 4871SOL     OW15511   0.508   1.844   5.577  0.5860  0.4071  0.8293
 4871SOL    HW115512   0.594   1.882   5.609  0.9696  1.9391 -1.7788
 4871SOL    HW215513   0.526   1.763   5.521  0.3561  0.7474  0.2538
 4872SOL     OW15514   2.060   2.506   5.082  0.7379 -0.6048  0.4336
 4872SOL    HW115515   2.023   2.574   5.145  2.0957  0.8865 -0.3087
 4872SOL    HW215516   2.154   2.530   5.058  0.4895 -1.4808 -1.6247
 4873SOL     OW15517   1.330   5.042   4.444 -1.0669  0.1708  0.2378
 4873SOL    HW115518   1.283   5.095   4.514 -2.8476 -0.4499 -0.4335
 4873SOL    HW215519   1.272   5.035   4.362  0.6797  0.3380 -1.0821
 4874SOL     OW15520   0.016   1.626   5.643 -0.6181 -0.0219  0.2945
 4874SOL    HW115521  -0.047   1.549   5.643  1.4451 -1.8453  1.7554
 4874SOL    HW215522   0.033   1.656   5.549 -0.3400 -2.3587 -0.4501
 4875SOL     OW15523   0.497   4.002   0.693 -1.0946  0.2509  0.1421
 4875SOL    HW115524   0.494   3.990   0.593 -2.0943  0.6510  0.1085
 4875SOL    HW215525   0.541   3.923   0.735  0.1105  0.4672 -0.6782
 4876SOL     OW15526   0.862   1.504   0.526  0.3115 -0.1510  0.4185
 4876SOL    HW115527   0.913   1.422   0.499  0.1402 -0.2544  0.4112
 4876SOL    HW215528   0.850   1.505   0.625  0.6492  0.0607  0.4603
 4877SOL     OW15529   5.227   3.518   1.608 -0.2675  0.3478 -0.2103
 4877SOL    HW115530   5.231   3.513   1.508 -0.2198 -0.0172 -0.1904
 4877SOL    HW215531   5.181   3.603   1.635 -1.2506 -0.0606 -0.5594
 4878SOL     OW15532   0.555   3.293   1.036 -0.1500 -0.0633 -0.4730
 4878SOL    HW115533   0.463   3.317   1.066 -0.2855  0.4041 -1.2435
 4878SOL    HW215534   0.571   3.327   0.943  1.1871  0.8060  0.0458
 4879SOL     OW15535   3.945   0.125   2.846  0.5743  0.3037  0.3002
 4879SOL    HW115536   4.002   0.067   2.904  0.7381  0.0339 -0.1288
 4879SOL    HW215537   4.000   0.201   2.811  0.4302  0.5663  0.6368
 4880SOL     OW15538   2.235   3.649   6.559  0.5534 -0.0105 -0.4405
 4880SOL    HW115539   2.183   3.727   6.594 -0.3699 -0.5019 -0.6764
 4880SOL    HW215540   2.293   3.678   6.482 -0.7811  0.2081 -1.3991
 4881SOL     OW15541   3.621   1.353   6.820  0.1774 -0.2366 -0.0006
 4881SOL    HW115542   3.719   1.368   6.833  0.3379  0.4367 -1.8070
 4881SOL    HW215543   3.585   1.299   6.897  2.1578 -1.4168  0.1517
 4882SOL     OW15544   5.964   6.546   5.388 -0.4650  0.8925  0.3031
 4882SOL    HW115545   5.959   6.468   5.451  0.6038  0.8378  0.3376
 4882SOL    HW215546   5.933   6.517   5.297 -1.0565  0.7066  0.5595
 4883SOL     OW15547   6.605   6.077   0.211 -0.2091 -0.4911 -0.0823
 4883SOL    HW115548   6.518   6.075   0.261 -0.1720 -1.5242 -0.0280
 4883SOL    HW215549   6.586   6.081   0.113 -0.3041  0.0342 -0.0443
 4884SOL     OW15550   3.917   6.343   3.897 -0.2563  0.1830  0.1367
 4884SOL    HW115551   3.826   6.342   3.855 -0.0726 -1.6098 -0.3107
 4884SOL    HW215552   3.909   6.362   3.994 -1.2440 -1.1186  0.3320
 4885SOL     OW15553   1.013   0.317   1.298 -0.2111 -0.0375  0.0280
 4885SOL    HW115554   0.927   0.337   1.251 -0.4306 -1.3990 -0.1888
 4885SOL    HW215555   1.049   0.401   1.338 -0.9285  0.8136 -1.0521
 4886SOL     OW15556   0.213   1.426   4.882  0.3901 -0.5514 -0.0963
 4886SOL    HW115557   0.183   1.332   4.867  0.0750 -0.5548  0.5487
 4886SOL    HW215558   0.291   1.446   4.822  0.4649 -1.2209 -0.2266
 4887SOL     OW15559   0.054   0.747   6.677 -0.2000 -0.0096  0.2005
 4887SOL    HW115560   0.024   0.660   6.638  0.0069 -0.4280  0.9509
 4887SOL    HW215561  -0.026   0.805   6.695 -0.3525 -0.1166 -0.1340
 4888SOL     OW15562   6.605   5.825   1.012 -0.3634  0.2352 -0.0837
 4888SOL    HW115563   6.668   5.882   0.959 -1.0093  0.7607 -0.2997
 4888SOL    HW215564   6.558   5.882   1.080 -2.3107  0.3570 -1.4591
 4889SOL     OW15565   1.100   3.401   6.758 -0.1909 -0.1696 -0.0210
 4889SOL    HW115566   1.021   3.348   6.727  0.6861 -0.2813 -2.2680
 4889SOL    HW215567   1.117   3.381   6.855 -1.3247 -2.1576 -0.1646
 4890SOL     OW15568   0.256   6.761   5.293 -0.2337 -0.0669 -0.0971
 4890SOL    HW115569   0.344   6.782   5.250 -1.1888  0.1858 -2.0616
 4890SOL    HW215570   0.213   6.685   5.244 -1.1094 -0.2028  0.8575
 4891SOL     OW15571   1.308   4.261   0.610  0.3150 -0.6063  0.2718
 4891SOL    HW115572   1.260   4.347   0.629  0.1408 -0.3157 -1.3121
 4891SOL    HW215573   1.242   4.192   0.581  0.7632 -0.2598 -1.7315
 4892SOL     OW15574   3.081   6.525   1.487 -0.1832  0.0328 -0.1270
 4892SOL    HW115575   3.034   6.556   1.405  1.5169 -0.6262 -1.4185
 4892SOL    HW215576   3.135   6.600   1.525  0.3602 -0.1110 -0.6082
 4893SOL     OW15577   6.502   4.199   5.906  0.1329 -0.4096 -0.0266
 4893SOL    HW115578   6.531   4.284   5.950 -0.4980  0.8112 -1.8902
 4893SOL    HW215579   6.415   4.212   5.860  0.6456 -1.6746 -1.4670
 4894SOL     OW15580   0.147   6.773   4.570 -0.4742  0.0743 -0.2918
 4894SOL    HW115581   0.082   6.700   4.551 -1.2674  0.8515 -0.6537
 4894SOL    HW215582   0.142   6.842   4.497  0.1033  0.5859  0.1427
 4895SOL     OW15583   0.581   3.138   0.620  0.7241 -0.3685  0.0903
 4895SOL    HW115584   0.569   3.039   0.613  1.0167 -0.5023  1.1784
 4895SOL    HW215585   0.533   3.183   0.545  2.2303 -1.4208 -1.6003
 4896SOL     OW15586   4.979   1.960   6.140  0.2846 -0.3536  0.2353
 4896SOL    HW115587   5.078   1.977   6.140  0.1655  0.3898 -0.5678
 4896SOL    HW215588   4.961   1.872   6.184  1.5184 -1.7679 -1.9267
 4897SOL     OW15589   3.686   5.806   0.746  0.1763 -0.5883 -0.8558
 4897SOL    HW115590   3.676   5.892   0.696  1.8156 -1.1108 -2.1783
 4897SOL    HW215591   3.774   5.765   0.723  0.9381 -0.9985  2.3130
 4898SOL     OW15592   4.735   2.865   4.502  0.1839  0.6953 -0.0589
 4898SOL    HW115593   4.674   2.801   4.549 -1.8879  0.8247 -2.3546
 4898SOL    HW215594   4.819   2.818   4.476  0.1163 -0.1486  1.1760
 4899SOL     OW15595   0.596   1.845   5.249 -0.0756  0.2001  0.3307
 4899SOL    HW115596   0.632   1.844   5.156  0.9106 -0.2188  0.6990
 4899SOL    HW215597   0.659   1.895   5.309  0.2541 -1.1124  1.1240
 4900SOL     OW15598   0.391   6.125   0.413  0.1653  0.9926 -0.2610
 4900SOL    HW115599   0.333   6.156   0.338 -0.4960  1.7438  0.5381
 4900SOL    HW215600   0.370   6.178   0.495  0.6508 -0.0289  0.5415
 4901SOL     OW15601   6.153   1.030   3.359  0.8100  0.0018  0.1644
 4901SOL    HW115602   6.180   1.048   3.264  0.3035 -0.3876 -0.0623
 4901SOL    HW215603   6.102   1.108   3.394 -1.4585 -0.9237 -0.8427
 4902SOL     OW15604   3.295   6.722   3.245  0.2146 -0.5877  0.3542
 4902SOL    HW115605   3.342   6.683   3.325 -0.0512 -1.2470  0.1969
 4902SOL    HW215606   3.332   6.681   3.162  0.1596 -0.2540  0.1652
 4903SOL     OW15607   6.419   4.920   1.224  0.1518  0.1767  0.0323
 4903SOL    HW115608   6.455   4.841   1.275  2.3210  0.3146 -1.1794
 4903SOL    HW215609   6.416   4.898   1.127  0.0198  1.3249 -0.2305
 4904SOL     OW15610   1.682   0.200   3.215  0.0327 -0.3051  0.2430
 4904SOL    HW115611   1.614   0.216   3.143 -0.0460 -0.5801  0.2545
 4904SOL    HW215612   1.673   0.106   3.249  1.4129 -0.8558 -0.8090
 4905SOL     OW15613   0.173   4.904   2.477 -0.8501  0.4605 -0.1540
 4905SOL    HW115614   0.101   4.967   2.505 -0.2438  0.7921  0.7064
 4905SOL    HW215615   0.137   4.810   2.477 -1.6988  0.7783 -1.2499
 4906SOL     OW15616   0.293   1.119   1.294  0.4945  0.1040 -0.1925
 4906SOL    HW115617   0.280   1.217   1.313 -1.5307  0.3200 -2.1576
 4906SOL    HW215618   0.226   1.066   1.346 -0.3895  0.0855 -1.2961
 4907SOL     OW15619   3.511   0.772   2.336  0.1659  0.6958 -0.2348
 4907SOL    HW115620   3.524   0.673   2.340  0.2867  0.7305  0.3286
 4907SOL    HW215621   3.600   0.817   2.343  0.1763  0.8335 -1.1512
 4908SOL     OW15622   5.013   3.969   5.850  0.0701  0.1742 -0.5296
 4908SOL    HW115623   5.080   4.043   5.846  0.4723 -0.2101 -1.1033
 4908SOL    HW215624   4.997   3.933   5.758 -1.1691  0.4680 -0.4460
 4909SOL     OW15625   4.988   5.584   5.425  0.1151  0.5391  0.4129
 4909SOL    HW115626   4.906   5.605   5.372  1.7341  2.6673 -1.4682
 4909SOL    HW215627   5.052   5.532   5.368  0.3174 -0.6241  1.6674
 4910SOL     OW15628   5.524   0.673   5.627  0.1994 -0.0583  1.0136
 4910SOL    HW115629   5.470   0.743   5.674  2.1039  0.6062  2.3918
 4910SOL    HW215630   5.622   0.692   5.642  0.8478 -1.2462 -1.2561
 4911SOL     OW15631   0.925   3.175   6.629 -0.0973 -0.0090 -0.0018
 4911SOL    HW115632   0.950   3.113   6.554 -1.4897 -1.8316  0.9404
 4911SOL    HW215633   0.938   3.128   6.716 -0.5023  1.3159  0.7972
 4912SOL     OW15634   1.367   3.813   0.813 -0.2364  0.2923  0.1821
 4912SOL    HW115635   1.351   3.745   0.884  0.2205  0.8218  0.8055
 4912SOL    HW215636   1.342   3.903   0.847 -1.6340  0.3485 -0.9204
 4913SOL     OW15637   3.561   3.290   1.556 -0.2459  0.1698 -0.0074
 4913SOL    HW115638   3.614   3.234   1.620 -0.2516  0.2075  0.0303
 4913SOL    HW215639   3.471   3.249   1.541 -0.2416  0.1568  0.0027
 4914SOL     OW15640   0.602   6.472   4.224 -0.0997 -0.2943 -0.3851
 4914SOL    HW115641   0.563   6.543   4.166  2.3458  2.0481  0.6714
 4914SOL    HW215642   0.683   6.433   4.181  1.7162  1.4388  1.3039
 4915SOL     OW15643   3.771   6.460   5.760 -0.2366  0.2352  0.0580
 4915SOL    HW115644   3.782   6.368   5.721 -1.0146 -0.4504  1.3558
 4915SOL    HW215645   3.750   6.451   5.857 -0.8884  1.7863  0.0750
 4916SOL     OW15646   2.308   0.268   3.440  0.3724  0.6211  0.0910
 4916SOL    HW115647   2.371   0.345   3.424  2.2505 -1.2541 -2.3463
 4916SOL    HW215648   2.360   0.186   3.460 -1.2553 -0.9870 -1.8158
 4917SOL     OW15649   6.821   3.962   0.885  0.4947  0.5067 -0.0332
 4917SOL    HW115650   6.849   3.872   0.917  0.0998  0.4991  0.2922
 4917SOL    HW215651   6.742   3.993   0.937  1.0308  1.3251  0.3182
 4918SOL     OW15652   1.857   5.043   4.201 -0.0912  0.6153 -0.7740
 4918SOL    HW115653   1.895   5.078   4.286  0.1607 -1.1932 -0.1133
 4918SOL    HW215654   1.757   5.048   4.205 -0.0927  0.1973 -0.2155
 4919SOL     OW15655   1.841   2.522   1.660 -0.0335 -0.2311 -0.1427
 4919SOL    HW115656   1.766   2.583   1.688  0.7021  1.2830 -1.3625
 4919SOL    HW215657   1.811   2.465   1.584  0.3944  1.2856 -1.4973
 4920SOL     OW15658   3.988   2.722   6.343  0.2336  0.6137 -0.2160
 4920SOL    HW115659   3.951   2.810   6.311  0.0372  0.4204 -0.5212
 4920SOL    HW215660   3.928   2.684   6.413 -0.3931  0.0788 -1.0375
 4921SOL     OW15661   6.427   5.284   1.068 -0.4706  0.1772 -0.0302
 4921SOL    HW115662   6.425   5.222   0.989 -0.1598 -0.7450  0.6676
 4921SOL    HW215663   6.491   5.249   1.136 -0.9065  0.8315  0.7364
 4922SOL     OW15664   0.851   3.817   5.964  0.0122  0.0059 -0.3005
 4922SOL    HW115665   0.877   3.898   5.911 -0.9089 -0.1733 -1.0579
 4922SOL    HW215666   0.931   3.782   6.012  0.6099  0.8712 -0.6278
 4923SOL     OW15667   3.925   0.342   0.431  0.9461 -0.4421 -0.6234
 4923SOL    HW115668   4.008   0.353   0.377  2.1340  0.0612  1.2119
 4923SOL    HW215669   3.857   0.409   0.400  1.1462 -0.9490 -2.2351
 4924SOL     OW15670   0.787   3.582   4.155  0.1048  0.2725 -0.1463
 4924SOL    HW115671   0.851   3.658   4.171 -1.6061  2.4149 -2.7528
 4924SOL    HW215672   0.831   3.513   4.098  0.0623  1.9488 -2.3175
 4925SOL     OW15673   3.080   6.075   4.708  0.3236  0.3640 -0.1808
 4925SOL    HW115674   3.118   6.005   4.769  0.4621 -1.0032 -1.7747
 4925SOL    HW215675   3.019   6.134   4.761  1.0398 -0.2783  1.4403
 4926SOL     OW15676   4.261   4.198   6.701  0.6222 -0.1140  0.3387
 4926SOL    HW115677   4.203   4.279   6.711  2.0408  0.8849  0.7379
 4926SOL    HW215678   4.211   4.128   6.649 -1.2251  0.3788  1.3469
 4927SOL     OW15679   2.634   3.924   1.677 -0.2036  0.0648  0.3375
 4927SOL    HW115680   2.559   3.866   1.709 -0.4141  0.1690  0.0341
 4927SOL    HW215681   2.670   3.887   1.591 -0.6393  0.6443 -0.0963
 4928SOL     OW15682   6.608   3.077   6.801 -0.0702 -0.4358  0.0272
 4928SOL    HW115683   6.630   2.990   6.756  0.8875 -0.1029 -0.1567
 4928SOL    HW215684   6.600   3.062   6.900 -3.5825 -1.4681 -0.2653
 4929SOL     OW15685   0.790   5.523   3.671 -0.4688 -0.1187  0.1178
 4929SOL    HW115686   0.781   5.439   3.725 -0.0390  1.2672  2.4879
 4929SOL    HW215687   0.703   5.542   3.625 -0.7518 -1.5284  0.0163
 4930SOL     OW15688   1.840   1.112   6.914  0.5208 -0.4537 -0.2678
 4930SOL    HW115689   1.765   1.178   6.922 -0.6547 -1.6303 -1.0954
 4930SOL    HW215690   1.927   1.160   6.909 -0.1481  0.9462  0.8986
 4931SOL     OW15691   5.800   0.664   0.958 -0.1870  0.1083 -0.3278
 4931SOL    HW115692   5.899   0.656   0.964  0.1602  1.8071 -2.4979
 4931SOL    HW215693   5.765   0.592   0.898 -0.0753  0.3642 -0.7035
 4932SOL     OW15694   2.844   1.564   1.323  0.1228  0.6656 -0.2071
 4932SOL    HW115695   2.768   1.608   1.274 -1.0753  1.6491  2.3811
 4932SOL    HW215696   2.842   1.465   1.304  0.5003  1.1251 -3.0500
 4933SOL     OW15697   4.091   1.559   5.097  0.7614  0.0036  0.0282
 4933SOL    HW115698   4.023   1.592   5.162  0.4137 -0.3404 -0.1544
 4933SOL    HW215699   4.063   1.470   5.062  0.7383  0.3602 -0.8947
 4934SOL     OW15700   3.467   4.446   6.846  0.1698 -0.5457  0.7281
 4934SOL    HW115701   3.407   4.427   6.768 -0.9861  3.9187  0.2477
 4934SOL    HW215702   3.417   4.428   6.931  0.3755 -2.5340  0.4776
 4935SOL     OW15703   1.104   2.203   0.220 -0.2759  0.1656 -0.1383
 4935SOL    HW115704   1.055   2.249   0.294 -0.7226  1.0025 -0.9360
 4935SOL    HW215705   1.051   2.209   0.136  0.9621  0.6898 -0.9222
 4936SOL     OW15706   5.903   2.410   1.661 -0.1607  0.2499 -0.2536
 4936SOL    HW115707   5.870   2.495   1.703  0.1738 -0.0186  0.5743
 4936SOL    HW215708   5.922   2.426   1.564  1.0901  1.4696  0.1630
 4937SOL     OW15709   6.919   3.007   3.917  0.3487 -0.0627 -0.9206
 4937SOL    HW115710   6.980   2.929   3.934  1.0939  0.6071 -0.4046
 4937SOL    HW215711   6.824   2.977   3.922  0.5639 -0.5967  1.2120
 4938SOL     OW15712   1.804   4.102   6.692 -0.1524 -0.2275 -0.0605
 4938SOL    HW115713   1.804   4.002   6.690 -1.6285 -0.2315 -0.5957
 4938SOL    HW215714   1.816   4.133   6.787 -0.5998 -0.9267  0.2327
 4939SOL     OW15715   1.499   0.185   1.932  0.2461  0.6724 -0.1425
 4939SOL    HW115716   1.429   0.153   1.996 -0.1730 -0.6853 -1.2042
 4939SOL    HW215717   1.567   0.112   1.918  0.4333  1.0091 -1.0764
 4940SOL     OW15718   2.202   2.725   5.970  0.1852  0.0424 -0.3808
 4940SOL    HW115719   2.260   2.789   6.020 -1.4457  1.3843 -0.1102
 4940SOL    HW215720   2.176   2.765   5.883  0.5824 -1.0298 -1.0079
 4941SOL     OW15721   5.124   2.758   6.098  0.1668  0.6976 -0.5877
 4941SOL    HW115722   5.178   2.825   6.149 -1.0133 -0.1762  1.9768
 4941SOL    HW215723   5.185   2.699   6.046  1.5109  1.2536  0.3020
 4942SOL     OW15724   0.086   6.560   3.494 -0.1893  0.3488  0.1334
 4942SOL    HW115725   0.036   6.520   3.571  0.9376 -1.6196 -0.0978
 4942SOL    HW215726   0.166   6.505   3.474  1.2445  2.5223 -0.5344
 4943SOL     OW15727   5.068   1.638   0.952 -0.3804  0.5982  0.3089
 4943SOL    HW115728   5.013   1.697   1.010  0.0410  0.1297  1.2114
 4943SOL    HW215729   5.024   1.549   0.944 -0.9261  0.9606 -0.9023
 4944SOL     OW15730   5.897   4.201   0.026  0.2651  0.2525  0.0116
 4944SOL    HW115731   5.801   4.221   0.008  0.4223  0.8595 -0.1897
 4944SOL    HW215732   5.954   4.243  -0.045  0.8835  2.3972  1.6622
 4945SOL     OW15733   3.376   1.000   6.993 -0.0137  0.3876  0.2898
 4945SOL    HW115734   3.386   0.904   6.966  0.8342  0.9510 -1.5890
 4945SOL    HW215735   3.308   1.044   6.934  0.7718  1.3185  0.0678
 4946SOL     OW15736   2.759   5.045   1.424 -0.5796  0.1372  0.7802
 4946SOL    HW115737   2.679   5.102   1.440 -0.5981 -0.6215  4.0221
 4946SOL    HW215738   2.736   4.974   1.356 -2.3165  0.5387  0.8984
 4947SOL     OW15739   1.761   5.965   1.421  0.2685 -0.5236  0.5663
 4947SOL    HW115740   1.697   5.983   1.496  0.0990  1.1469  0.0554
 4947SOL    HW215741   1.727   5.890   1.365 -0.8077 -0.2103  0.7894
 4948SOL     OW15742   1.492   4.087   1.332  0.6889  0.4066  0.6148
 4948SOL    HW115743   1.498   3.997   1.374  0.1957  0.1606  0.1710
 4948SOL    HW215744   1.567   4.097   1.266 -0.2747 -0.3936 -0.6548
 4949SOL     OW15745   0.450   0.461   6.813 -0.1564  0.6325 -0.3863
 4949SOL    HW115746   0.404   0.550   6.823 -1.3242 -0.0262  0.2090
 4949SOL    HW215747   0.422   0.419   6.726 -0.9378  0.0900  0.1217
 4950SOL     OW15748   3.614   5.255   5.206  0.2320  0.0422  0.5350
 4950SOL    HW115749   3.561   5.266   5.291  0.3485 -3.3025  1.1938
 4950SOL    HW215750   3.695   5.313   5.210  0.9721 -0.9984  3.4156
 4951SOL     OW15751   5.773   5.406   3.655  0.1726 -0.2916  0.6004
 4951SOL    HW115752   5.709   5.482   3.655  0.0907 -0.3238  2.0299
 4951SOL    HW215753   5.744   5.338   3.724  3.2491  1.0798  3.5628
 4952SOL     OW15754   6.223   1.403   4.959 -0.0756  0.3237 -0.1546
 4952SOL    HW115755   6.210   1.449   4.871  0.8688  0.5966 -0.1616
 4952SOL    HW215756   6.144   1.346   4.978 -0.9093  1.3306 -0.5234
 4953SOL     OW15757   1.183   2.373   0.603 -0.3874 -0.2204  0.0825
 4953SOL    HW115758   1.221   2.423   0.526  2.3229 -3.0406 -0.6161
 4953SOL    HW215759   1.150   2.437   0.672 -1.3799  2.3844 -2.6335
 4954SOL     OW15760   2.565   4.435   6.595  0.7554 -0.3711  0.2503
 4954SOL    HW115761   2.504   4.409   6.520  0.4949 -0.7029  0.5728
 4954SOL    HW215762   2.654   4.390   6.583  1.0618  0.3738 -0.3993
 4955SOL     OW15763   3.523   6.027   1.638  0.0936 -0.2495 -0.2460
 4955SOL    HW115764   3.510   5.932   1.668 -1.0340  0.1522  0.6043
 4955SOL    HW215765   3.435   6.074   1.637  0.7808  1.0993  0.4249
 4956SOL     OW15766   1.069   6.511   4.901  0.2806 -0.0032 -0.2324
 4956SOL    HW115767   1.027   6.575   4.966  2.5609  1.2212  0.1539
 4956SOL    HW215768   1.003   6.439   4.878 -1.4502  0.9268  1.4647
 4957SOL     OW15769   4.710   0.022   1.963  0.2900 -0.3738 -0.4624
 4957SOL    HW115770   4.803   0.054   1.949 -0.8682  2.8823 -1.7068
 4957SOL    HW215771   4.682  -0.037   1.887  0.9641 -0.5148 -0.6051
 4958SOL     OW15772   2.527   6.419   0.516  0.1115  0.2070 -0.8184
 4958SOL    HW115773   2.560   6.335   0.559 -0.8847 -0.7171 -1.7910
 4958SOL    HW215774   2.434   6.439   0.549  0.2692  0.8285 -0.7385
 4959SOL     OW15775   1.678   6.924   3.299  0.3208  0.4531 -0.3804
 4959SOL    HW115776   1.756   6.904   3.358  0.5987  0.0209 -0.8855
 4959SOL    HW215777   1.594   6.899   3.346  0.5444  0.0232 -0.1998
 4960SOL     OW15778   6.348   2.696   3.594 -0.3989 -0.2452 -0.3677
 4960SOL    HW115779   6.286   2.741   3.530 -0.0524 -0.0347 -0.5630
 4960SOL    HW215780   6.364   2.756   3.673  0.9261  0.4817 -1.1417
 4961SOL     OW15781   3.821   4.065   4.560  0.3306  0.2220 -0.1783
 4961SOL    HW115782   3.728   4.037   4.584 -0.1300  1.1800 -0.7950
 4961SOL    HW215783   3.876   4.075   4.644 -0.2102 -0.0406  0.2103
 4962SOL     OW15784   1.676   1.313   0.139 -0.4807 -0.2990  0.1099
 4962SOL    HW115785   1.659   1.281   0.046  0.4979 -0.9658  0.1485
 4962SOL    HW215786   1.600   1.285   0.198 -1.0397  0.0123 -0.4515
 4963SOL     OW15787   0.590   4.319   6.652  0.2437 -0.5177  0.0129
 4963SOL    HW115788   0.573   4.364   6.565 -1.2124  0.8347  0.9363
 4963SOL    HW215789   0.677   4.349   6.690  0.0938  0.1730 -0.1894
 4964SOL     OW15790   1.065   3.657   3.352  0.0858  0.1317 -0.6856
 4964SOL    HW115791   1.076   3.582   3.287 -0.1068 -0.9898  0.5285
 4964SOL    HW215792   1.000   3.724   3.316 -1.0906 -1.1645 -1.0688
 4965SOL     OW15793   3.198   2.142   2.444 -0.0899 -0.5053  0.1761
 4965SOL    HW115794   3.173   2.192   2.361  2.0829  0.0442 -0.2259
 4965SOL    HW215795   3.130   2.072   2.463 -1.5764  0.5413 -1.0300
 4966SOL     OW15796   2.851   0.198   4.839  0.2893  0.0615  0.0356
 4966SOL    HW115797   2.806   0.200   4.929 -0.4441  1.9497 -0.3209
 4966SOL    HW215798   2.922   0.129   4.839 -1.6838 -2.1125  1.0934
 4967SOL     OW15799   5.760   4.710   3.710  0.3411 -0.2878 -0.1136
 4967SOL    HW115800   5.788   4.718   3.614  0.8941 -0.0809  0.0584
 4967SOL    HW215801   5.728   4.799   3.742 -0.3368 -0.4790 -0.2525
 4968SOL     OW15802   6.992   2.289   3.223  0.1071 -0.2264 -0.0026
 4968SOL    HW115803   6.969   2.272   3.127 -2.8079 -0.2505  0.6156
 4968SOL    HW215804   6.917   2.258   3.281  2.0850 -0.8491  2.3916
 4969SOL     OW15805   1.687   4.113   3.094 -0.6890 -0.5909 -0.2612
 4969SOL    HW115806   1.742   4.077   3.018 -0.0963  0.2751 -0.2561
 4969SOL    HW215807   1.747   4.155   3.162 -1.2674 -0.7906  0.3813
 4970SOL     OW15808   1.508   6.352   1.284  0.0085  0.0529  0.1712
 4970SOL    HW115809   1.571   6.334   1.359 -2.2624  0.4889  2.3241
 4970SOL    HW215810   1.440   6.419   1.313 -0.0404  1.5237 -2.8788
 4971SOL     OW15811   1.376   6.233   1.529  0.2843  0.0832  0.3137
 4971SOL    HW115812   1.470   6.201   1.520  0.1823 -0.6280  1.5898
 4971SOL    HW215813   1.375   6.320   1.577  0.4113  1.0745 -1.4100
 4972SOL     OW15814   0.421   3.227   6.466 -1.0496  0.4184 -0.2306
 4972SOL    HW115815   0.492   3.211   6.535 -0.0556 -0.9257 -1.4886
 4972SOL    HW215816   0.337   3.178   6.493 -0.7796  0.1797  0.1888
 4973SOL     OW15817   6.786   3.689   6.233 -0.2408  0.1499  0.0807
 4973SOL    HW115818   6.687   3.701   6.241  0.0401  2.8486  0.6515
 4973SOL    HW215819   6.830   3.721   6.317  1.2228  1.7293 -1.1980
 4974SOL     OW15820   3.814   0.034   6.418  0.6419 -0.2791 -0.1994
 4974SOL    HW115821   3.783  -0.061   6.427  1.7802 -0.5710  0.8518
 4974SOL    HW215822   3.890   0.039   6.354  2.6738 -0.6213  2.0620
 4975SOL     OW15823   5.870   3.810   0.641 -0.0102  0.2867  0.1760
 4975SOL    HW115824   5.815   3.853   0.712  1.0332  1.4917  0.2959
 4975SOL    HW215825   5.816   3.738   0.596 -0.4728 -0.9685  2.5808
 4976SOL     OW15826   2.885   0.779   5.402 -0.3227  0.0809 -0.6130
 4976SOL    HW115827   2.892   0.871   5.440  0.0401 -0.1482 -0.1059
 4976SOL    HW215828   2.931   0.775   5.314  1.6900 -0.1570  0.3852
 4977SOL     OW15829   2.724   5.327   3.198 -0.3575 -0.2079 -0.2236
 4977SOL    HW115830   2.711   5.239   3.153  0.0194 -1.1898  1.4810
 4977SOL    HW215831   2.760   5.393   3.133 -2.4235 -0.7441 -2.0249
 4978SOL     OW15832   6.193   4.270   4.326  0.2898  0.9930 -0.7661
 4978SOL    HW115833   6.159   4.340   4.388 -1.9840  0.7198 -1.6250
 4978SOL    HW215834   6.272   4.306   4.275  1.2655  1.7131  1.1528
 4979SOL     OW15835   2.798   1.082   5.426 -0.4788  0.3779 -0.1639
 4979SOL    HW115836   2.829   1.171   5.460  0.6182 -0.2325  0.4936
 4979SOL    HW215837   2.797   1.082   5.326  2.1451  0.3139 -0.2560
 4980SOL     OW15838   6.287   3.777   4.541 -0.4287  0.1819  0.3810
 4980SOL    HW115839   6.250   3.863   4.575  0.0261  1.3259 -1.8332
 4980SOL    HW215840   6.220   3.734   4.480  0.6824  0.8108 -1.3552
 4981SOL     OW15841   3.599   0.053   2.148  0.3120  0.2548 -0.5697
 4981SOL    HW115842   3.527   0.018   2.208 -1.5648  1.0975 -2.2249
 4981SOL    HW215843   3.682  -0.002   2.159  0.7501  1.4770  4.1021
 4982SOL     OW15844   4.221   2.296   5.815  0.4466  0.1090 -0.2896
 4982SOL    HW115845   4.314   2.330   5.808 -0.0334  1.5549 -0.0335
 4982SOL    HW215846   4.205   2.227   5.743  1.4214  0.5190 -0.9246
 4983SOL     OW15847   3.924   5.394   3.879  0.3244  0.6857 -1.2071
 4983SOL    HW115848   3.886   5.337   3.806  0.9636 -0.2980 -0.7871
 4983SOL    HW215849   3.859   5.399   3.955  0.4687  0.1312 -1.0498
 4984SOL     OW15850   4.601   4.398   5.903 -0.4281  0.0355  0.2928
 4984SOL    HW115851   4.641   4.452   5.829 -1.7435 -0.3399 -0.7325
 4984SOL    HW215852   4.569   4.311   5.867  0.7617 -1.0483  1.7365
 4985SOL     OW15853   3.285   0.598   2.713 -0.3404  0.1876  0.1585
 4985SOL    HW115854   3.198   0.577   2.669 -0.6101  0.9047  0.3437
 4985SOL    HW215855   3.318   0.688   2.683  1.1397 -0.7380 -1.1556
 4986SOL     OW15856   6.752   0.040   2.089  0.6635  0.4893 -0.4622
 4986SOL    HW115857   6.817   0.116   2.102  0.2849  0.9594 -1.2430
 4986SOL    HW215858   6.665   0.076   2.056  0.2776 -0.2284 -0.2434
 4987SOL     OW15859   1.327   4.167   3.108 -1.0474  0.3995  0.4237
 4987SOL    HW115860   1.379   4.142   3.026 -1.4151 -1.3044  0.6602
 4987SOL    HW215861   1.245   4.217   3.082 -1.3252 -0.4003 -0.2990
 4988SOL     OW15862   6.373   3.449   1.781  0.4972 -0.3641  0.6031
 4988SOL    HW115863   6.309   3.383   1.741  0.0886  0.2449  0.2362
 4988SOL    HW215864   6.455   3.401   1.813  0.0658 -1.0881  0.6361
 4989SOL     OW15865   6.521   0.578   5.485 -0.3714  0.0546  0.3992
 4989SOL    HW115866   6.532   0.534   5.574  2.8680  0.2213  0.1840
 4989SOL    HW215867   6.506   0.676   5.498 -3.3346 -0.3468  0.7497
 4990SOL     OW15868   6.023   1.760   0.916  0.3394  0.5596 -0.3902
 4990SOL    HW115869   6.035   1.820   0.995  2.0611  0.8782 -0.8450
 4990SOL    HW215870   5.997   1.815   0.837  1.4837  0.6664 -0.7041
 4991SOL     OW15871   2.034   6.614   6.195 -0.0670  0.5707  0.1134
 4991SOL    HW115872   2.131   6.618   6.170 -0.1483  0.5752 -0.2047
 4991SOL    HW215873   1.996   6.526   6.167 -0.1272  0.5281  0.3338
 4992SOL     OW15874   2.224   2.322   4.210 -0.1679 -0.7727 -0.0188
 4992SOL    HW115875   2.305   2.332   4.268 -0.5682 -1.4735  0.6717
 4992SOL    HW215876   2.142   2.330   4.265 -0.6452  1.4605 -0.9408
 4993SOL     OW15877   0.706   3.830   2.429 -0.4624  0.0729 -0.1946
 4993SOL    HW115878   0.736   3.874   2.514 -0.8536 -2.1983  1.2016
 4993SOL    HW215879   0.785   3.786   2.385 -0.3562  0.8282 -0.7983
 4994SOL     OW15880   2.694   3.744   5.423  0.2116 -0.0557 -0.3100
 4994SOL    HW115881   2.785   3.775   5.397  1.2001 -2.8732 -0.5048
 4994SOL    HW215882   2.686   3.744   5.523 -0.1990  1.6861 -0.3056
 4995SOL     OW15883   5.881   2.043   5.437 -0.1168  0.1939 -0.7622
 4995SOL    HW115884   5.846   2.088   5.519 -1.4292 -0.9793 -0.6511
 4995SOL    HW215885   5.979   2.061   5.429 -0.2043  1.3369  0.3849
 4996SOL     OW15886   1.056   0.539   5.137 -0.0685  0.0756  0.3922
 4996SOL    HW115887   1.035   0.636   5.126 -0.8417 -0.1230  0.0736
 4996SOL    HW215888   1.006   0.485   5.069  0.0430 -0.5836  0.8146
 4997SOL     OW15889   1.866   1.135   1.691  0.4358 -0.4402 -0.5957
 4997SOL    HW115890   1.773   1.110   1.663  0.4530 -3.2918  1.4821
 4997SOL    HW215891   1.924   1.054   1.690  2.5133  0.9746 -0.2508
 4998SOL     OW15892   0.937   5.610   3.227  0.2076 -0.0477 -0.1709
 4998SOL    HW115893   1.001   5.626   3.302  0.3468 -1.6886  0.0813
 4998SOL    HW215894   0.937   5.689   3.166  1.9937  0.2478  0.1673
 4999SOL     OW15895   5.311   2.249   1.904 -0.3245  0.0389  0.2639
 4999SOL    HW115896   5.312   2.347   1.923 -3.4389  0.6780 -2.1043
 4999SOL    HW215897   5.331   2.233   1.808  2.0207 -1.9026  0.9732
 5000SOL     OW15898   1.398   5.608   2.961 -0.3701 -0.3159  0.1140
 5000SOL    HW115899   1.312   5.573   2.924 -1.4406  0.6858  1.5024
 5000SOL    HW215900   1.397   5.708   2.957  1.5234 -0.3197 -1.4610
 5001SOL     OW15901   1.292   5.103   5.280  0.8056 -0.4373 -0.1074
 5001SOL    HW115902   1.259   5.049   5.358  0.2316 -1.4254 -1.0036
 5001SOL    HW215903   1.224   5.172   5.256 -0.0398 -1.5329 -1.0419
 5002SOL     OW15904   1.077   4.196   4.850 -0.2767  0.1758  0.0118
 5002SOL    HW115905   0.986   4.171   4.816 -0.3788 -0.2124  0.5557
 5002SOL    HW215906   1.114   4.120   4.904 -0.4231  1.0472  1.3817
 5003SOL     OW15907   3.184   2.605   1.213  0.2658 -0.3156 -0.2107
 5003SOL    HW115908   3.186   2.653   1.301 -1.2956 -2.0658  0.8298
 5003SOL    HW215909   3.267   2.550   1.204  0.3245 -0.3093  0.2577
 5004SOL     OW15910   3.529   0.164   6.906  0.5494  0.1960 -0.0058
 5004SOL    HW115911   3.511   0.175   6.808 -1.3883  1.6151  0.4546
 5004SOL    HW215912   3.559   0.251   6.945  2.3978 -0.6162  0.5176
 5005SOL     OW15913   4.886   3.557   1.363 -0.0611  0.5043 -0.1938
 5005SOL    HW115914   4.796   3.526   1.333 -1.0959  0.3142  2.7956
 5005SOL    HW215915   4.951   3.481   1.357 -0.1701  0.5039 -1.8989
 5006SOL     OW15916   2.718   0.910   2.627 -1.0123 -0.1501  0.0998
 5006SOL    HW115917   2.725   0.859   2.712  0.1076 -0.2003 -0.0058
 5006SOL    HW215918   2.754   0.854   2.551 -0.8610  0.3475 -0.2013
 5007SOL     OW15919   6.943   3.943   1.946 -0.0002  0.3015  0.0195
 5007SOL    HW115920   6.882   3.968   2.022 -0.5278 -1.9051  0.3734
 5007SOL    HW215921   6.969   4.026   1.896 -1.0451  1.6054  1.5419
 5008SOL     OW15922   3.222   0.726   2.949 -0.1262  0.1884  0.4010
 5008SOL    HW115923   3.257   0.687   2.865  1.1133 -0.6901  1.2932
 5008SOL    HW215924   3.295   0.773   2.998 -1.0470  1.5446  0.5376
 5009SOL     OW15925   6.512   2.475   5.474  0.3321 -0.2336 -0.0183
 5009SOL    HW115926   6.431   2.519   5.434  0.8026  1.2475  0.5914
 5009SOL    HW215927   6.587   2.540   5.477  0.2660 -0.1206  3.5234
 5010SOL     OW15928   6.211   5.154   6.198  0.4603 -0.3157  0.3665
 5010SOL    HW115929   6.309   5.176   6.195  0.0919  1.4564 -0.2005
 5010SOL    HW215930   6.166   5.211   6.267 -0.1033 -1.5040  1.0068
 5011SOL     OW15931   0.298   1.761   3.564 -0.1816 -0.2783  0.1456
 5011SOL    HW115932   0.285   1.813   3.480 -0.1639 -0.0281  0.2956
 5011SOL    HW215933   0.349   1.677   3.544  0.3086  0.0518 -0.0011
 5012SOL     OW15934   6.045   3.270   6.845 -0.0431  0.2925 -0.1954
 5012SOL    HW115935   6.120   3.238   6.788 -1.0705 -1.9533 -0.4112
 5012SOL    HW215936   5.960   3.227   6.816 -1.1011  1.3300  1.2038
 5013SOL     OW15937   3.945   6.673   5.627  0.1012 -0.1207 -0.3115
 5013SOL    HW115938   3.857   6.719   5.636  0.5106  0.9535 -1.4185
 5013SOL    HW215939   3.971   6.633   5.714 -0.7845  0.8355  0.4238
 5014SOL     OW15940   0.025   3.280   6.478 -0.4162  0.1703 -0.5875
 5014SOL    HW115941   0.083   3.271   6.397  3.5062  2.0680  1.6880
 5014SOL    HW215942   0.049   3.364   6.526 -3.6485 -0.0968  1.8145
 5015SOL     OW15943   6.506   5.362   4.467 -0.5299 -0.2019  0.0624
 5015SOL    HW115944   6.589   5.377   4.521 -0.3432 -0.0998 -0.2500
 5015SOL    HW215945   6.478   5.448   4.426 -1.0702 -0.1362  0.5593
 5016SOL     OW15946   2.536   1.278   5.256 -0.0591 -0.4385 -0.4347
 5016SOL    HW115947   2.551   1.224   5.173 -1.4705 -1.7956  0.1461
 5016SOL    HW215948   2.522   1.217   5.334 -2.5227  0.6924  0.1258
 5017SOL     OW15949   1.940   3.041   3.045  0.4938  0.1075 -0.0067
 5017SOL    HW115950   1.994   3.123   3.066  0.4703 -0.0729  0.8103
 5017SOL    HW215951   1.968   3.004   2.956  1.5029  0.1951  0.2557
 5018SOL     OW15952   1.398   0.895   5.868 -0.4551  0.2609 -0.0824
 5018SOL    HW115953   1.417   0.813   5.813  0.9939  0.7837 -0.4114
 5018SOL    HW215954   1.424   0.877   5.963 -2.3758 -0.4291  0.3710
 5019SOL     OW15955   6.956   2.202   3.824  0.3033 -0.5878  0.3629
 5019SOL    HW115956   7.018   2.279   3.834  0.6684 -1.0827  2.4386
 5019SOL    HW215957   6.965   2.164   3.732  0.3605  1.5929 -0.5825
 5020SOL     OW15958   0.996   0.545   1.642  0.2358 -0.2768  0.2497
 5020SOL    HW115959   0.925   0.492   1.689 -0.3372 -1.9698 -2.3082
 5020SOL    HW215960   1.003   0.635   1.684 -1.7893 -0.8723  2.0599
 5021SOL     OW15961   3.138   6.630   6.730  0.0492 -0.0934 -0.5772
 5021SOL    HW115962   3.066   6.615   6.798  2.2125 -1.9810  1.4307
 5021SOL    HW215963   3.133   6.558   6.660 -0.1849 -0.0401 -0.6164
 5022SOL     OW15964   6.524   3.659   1.735 -0.0408  0.6381  0.5468
 5022SOL    HW115965   6.476   3.570   1.734 -0.2705  0.7626 -0.7024
 5022SOL    HW215966   6.506   3.704   1.823 -1.1449  0.0996  0.6290
 5023SOL     OW15967   6.297   0.587   4.225 -0.3684 -0.2244 -0.1102
 5023SOL    HW115968   6.350   0.504   4.210 -0.8917 -0.9313  1.6446
 5023SOL    HW215969   6.296   0.608   4.323 -2.8789  0.0526 -0.1403
 5024SOL     OW15970   5.038   5.652   5.687  0.1718  0.9122  0.0050
 5024SOL    HW115971   5.027   5.607   5.598 -0.1122 -1.9654  1.3902
 5024SOL    HW215972   5.134   5.651   5.713  0.0152 -0.0457  0.5772
 5025SOL     OW15973   5.472   2.817   4.051 -0.3389  0.8323 -0.0517
 5025SOL    HW115974   5.427   2.880   3.988  1.0873 -0.2861 -2.3320
 5025SOL    HW215975   5.416   2.735   4.062 -0.6324  1.0670  0.1944
 5026SOL     OW15976   3.372   6.432   4.784  0.4874  0.4519 -0.2302
 5026SOL    HW115977   3.396   6.520   4.743  0.0002  0.9748  0.5800
 5026SOL    HW215978   3.452   6.393   4.829  0.7117  0.4634 -0.6157
 5027SOL     OW15979   5.039   6.992   1.929  0.8994 -0.1248 -0.3170
 5027SOL    HW115980   5.041   7.018   1.832  0.7236  0.2128 -0.2278
 5027SOL    HW215981   5.133   6.976   1.961  1.0732  1.1057 -0.1750
 5028SOL     OW15982   0.031   2.144   2.320 -0.6799  0.0133  0.0775
 5028SOL    HW115983   0.035   2.074   2.391  1.5294 -1.1142 -1.0659
 5028SOL    HW215984  -0.048   2.128   2.262  0.5305 -2.5214 -1.0305
 5029SOL     OW15985   5.697   2.195   1.669 -0.5809  0.0023  0.0475
 5029SOL    HW115986   5.717   2.117   1.729  0.2238 -0.0599 -0.2900
 5029SOL    HW215987   5.778   2.252   1.660 -0.7828  0.1735 -0.7436
 5030SOL     OW15988   0.866   1.877   1.989  0.5505 -0.7220 -0.0269
 5030SOL    HW115989   0.841   1.880   2.085  1.5321 -0.7235  0.2363
 5030SOL    HW215990   0.840   1.964   1.945  1.9420  0.1128  0.7237
 5031SOL     OW15991   5.394   1.833   6.892  0.0220 -0.0373  0.3540
 5031SOL    HW115992   5.441   1.875   6.815 -1.4703 -1.8158 -1.6429
 5031SOL    HW215993   5.441   1.748   6.917 -1.0443 -0.8998 -0.4768
 5032SOL     OW15994   2.898   5.247   6.709 -0.2764  0.3826  0.3115
 5032SOL    HW115995   2.847   5.167   6.680 -1.5520  1.0787  0.5418
 5032SOL    HW215996   2.880   5.323   6.645 -0.2299  0.8916  0.8965
 5033SOL     OW15997   6.918   6.548   6.122 -0.2189 -0.1195  0.2428
 5033SOL    HW115998   7.000   6.505   6.083  0.6614  0.8783  0.9276
 5033SOL    HW215999   6.918   6.536   6.221 -0.7554  0.1357  0.2765
 5034SOL     OW16000   2.529   5.016   3.170  0.3591 -0.6707  0.1502
 5034SOL    HW116001   2.445   5.060   3.200  0.2502 -0.0779 -0.9764
 5034SOL    HW216002   2.525   4.918   3.190 -1.0945 -0.8593 -0.9263
 5035SOL     OW16003   1.449   6.161   4.136 -0.1998 -0.0945  0.5201
 5035SOL    HW116004   1.440   6.216   4.053  0.9249  1.7254  1.5657
 5035SOL    HW216005   1.398   6.203   4.210 -0.1103 -0.9975  1.1140
 5036SOL     OW16006   1.583   1.940   5.288 -0.1799  0.2983  0.1670
 5036SOL    HW116007   1.605   1.989   5.204  0.2708 -0.7396 -0.3286
 5036SOL    HW216008   1.652   1.870   5.306 -0.5267  0.1855  1.1495
 5037SOL     OW16009   6.119   4.889   1.216  0.3766 -0.1726 -0.9187
 5037SOL    HW116010   6.094   4.879   1.119 -0.8086  1.0828 -0.7775
 5037SOL    HW216011   6.211   4.927   1.222  0.0922  0.6645 -1.5887
 5038SOL     OW16012   4.420   4.101   5.323  0.0401 -0.2702 -0.2595
 5038SOL    HW116013   4.327   4.094   5.288  0.2400  0.0793 -0.8769
 5038SOL    HW216014   4.435   4.193   5.360  0.1324 -0.3385 -0.1238
 5039SOL     OW16015   0.843   2.785   6.594  0.3936 -0.2364  0.2817
 5039SOL    HW116016   0.883   2.860   6.540  1.1996 -0.1455  0.9737
 5039SOL    HW216017   0.827   2.706   6.535 -0.7546  0.5736 -0.5251
 5040SOL     OW16018   1.833   0.103   3.991  0.0991  0.3720 -0.7578
 5040SOL    HW116019   1.913   0.142   4.037  0.1424  1.3745 -1.6656
 5040SOL    HW216020   1.819   0.149   3.903 -0.5697 -0.8487 -1.3048
 5041SOL     OW16021   6.129   3.724   2.405 -0.0781  0.1572 -0.4848
 5041SOL    HW116022   6.083   3.662   2.342 -1.0693 -2.8252  2.8406
 5041SOL    HW216023   6.223   3.694   2.419 -0.1674  0.1951  0.2048
 5042SOL     OW16024   1.584   1.415   3.584 -0.3316 -0.1151 -0.0221
 5042SOL    HW116025   1.569   1.317   3.593  0.1933 -0.0403  2.1601
 5042SOL    HW216026   1.615   1.452   3.671 -0.4611  1.9909 -0.8174
 5043SOL     OW16027   4.188   5.089   2.041  0.4481  0.0625 -0.2840
 5043SOL    HW116028   4.115   5.026   2.018  1.8696 -1.9038  0.3246
 5043SOL    HW216029   4.246   5.050   2.113  3.0952  0.6930 -1.8968
 5044SOL     OW16030   1.804   6.357   1.190  0.2580 -0.3416  0.1814
 5044SOL    HW116031   1.849   6.304   1.262  0.9179  2.2193  1.8031
 5044SOL    HW216032   1.709   6.373   1.215  0.3949  0.2477  0.3546
 5045SOL     OW16033   5.201   3.060   1.184 -0.5367  0.1582  0.0604
 5045SOL    HW116034   5.143   2.982   1.159  0.8890 -0.6936 -0.7156
 5045SOL    HW216035   5.189   3.132   1.116 -1.1640  0.2579  0.2665
 5046SOL     OW16036   3.983   2.935   1.163 -0.2837 -0.5963 -0.4127
 5046SOL    HW116037   4.069   2.890   1.135 -0.4752 -0.9182 -0.4891
 5046SOL    HW216038   4.005   3.014   1.220  0.0264 -2.0380  1.5801
 5047SOL     OW16039   2.863   4.763   4.758 -0.8214 -0.4174 -0.0247
 5047SOL    HW116040   2.877   4.690   4.825  1.2071  0.6352  0.7860
 5047SOL    HW216041   2.779   4.745   4.706 -0.9758 -2.7038  0.9006
 5048SOL     OW16042   0.971   0.183   5.560 -0.1135  0.6241 -0.1348
 5048SOL    HW116043   1.037   0.257   5.544  0.8138 -0.8601 -4.2347
 5048SOL    HW216044   0.995   0.135   5.645  2.2459  1.9949  0.0586
 5049SOL     OW16045   3.649   6.630   6.941  0.1157  0.1113 -0.1106
 5049SOL    HW116046   3.604   6.719   6.949  0.1359 -0.0179  2.1037
 5049SOL    HW216047   3.583   6.557   6.956  0.7161 -0.1064  1.8102
 5050SOL     OW16048   0.835   0.192   0.340  0.0362 -0.3904  0.1998
 5050SOL    HW116049   0.866   0.144   0.258  0.3370 -1.0832  0.7145
 5050SOL    HW216050   0.742   0.227   0.324  0.2272 -0.2100 -0.5579
 5051SOL     OW16051   4.436   4.602   1.457 -0.1376 -0.1714 -0.3529
 5051SOL    HW116052   4.450   4.617   1.555  1.3562  0.2926 -0.6202
 5051SOL    HW216053   4.495   4.663   1.405  0.0711 -1.3420 -1.5464
 5052SOL     OW16054   1.971   4.377   4.649 -0.2188 -0.0172 -0.5390
 5052SOL    HW116055   1.896   4.324   4.688  0.8433 -1.2815 -0.0864
 5052SOL    HW216056   2.032   4.315   4.599  0.3548  1.0230 -1.1692
 5053SOL     OW16057   6.796   1.619   1.220  0.1883  0.5287  0.1499
 5053SOL    HW116058   6.708   1.615   1.267 -1.0927  0.8883 -2.0832
 5053SOL    HW216059   6.797   1.696   1.157  1.2743 -0.7084 -1.4429
 5054SOL     OW16060   5.390   5.943   2.739  0.5678  0.1135  0.0139
 5054SOL    HW116061   5.487   5.925   2.730  0.7818  0.8511  0.7463
 5054SOL    HW216062   5.371   5.984   2.828 -0.0942  2.0049 -0.9355
 5055SOL     OW16063   5.152   5.420   5.240 -0.3827  0.4331  0.0954
 5055SOL    HW116064   5.185   5.328   5.258 -1.1882 -0.0220 -0.7030
 5055SOL    HW216065   5.230   5.480   5.220  0.0525 -0.3869 -0.7519
 5056SOL     OW16066   6.819   4.811   4.408 -0.0783  1.1636  0.2737
 5056SOL    HW116067   6.801   4.886   4.345  0.6582  1.1267  0.0030
 5056SOL    HW216068   6.772   4.728   4.376 -1.3881  1.6384  0.9029
 5057SOL     OW16069   1.837   5.917   4.579  0.5785 -0.3492 -0.2607
 5057SOL    HW116070   1.849   5.821   4.556  1.7917 -0.0315 -1.0511
 5057SOL    HW216071   1.744   5.932   4.613  0.1118 -1.6433 -0.9079
 5058SOL     OW16072   2.726   0.966   6.165  0.6913 -0.5638  0.2727
 5058SOL    HW116073   2.639   0.923   6.190 -0.5114  0.3815 -1.9355
 5058SOL    HW216074   2.802   0.918   6.209 -0.9760 -0.6031  3.3651
 5059SOL     OW16075   5.078   5.085   3.002 -0.1800  0.2606  0.1737
 5059SOL    HW116076   5.138   5.151   3.046  2.0041  0.4130 -2.7728
 5059SOL    HW216077   5.048   5.017   3.070  1.8172  1.2105  2.1382
 5060SOL     OW16078   0.186   3.079   6.532  0.4236 -0.2725  0.0744
 5060SOL    HW116079   0.129   3.000   6.508 -0.0792 -0.0794  0.6094
 5060SOL    HW216080   0.128   3.159   6.544  0.5421 -0.4986  2.6071
 5061SOL     OW16081   0.077   2.528   0.187 -0.4543  0.0931 -0.5115
 5061SOL    HW116082   0.097   2.624   0.207  1.9946 -0.2635 -0.9333
 5061SOL    HW216083   0.135   2.469   0.242 -0.5758 -1.1088 -1.6128
 5062SOL     OW16084   0.600   1.161   6.377 -0.1041  0.5025  0.2814
 5062SOL    HW116085   0.620   1.106   6.295 -1.2900  1.5783 -0.7646
 5062SOL    HW216086   0.535   1.233   6.354 -0.7806  0.5919  2.2837
 5063SOL     OW16087   2.330   0.118   4.204  0.1191  0.0010  0.0775
 5063SOL    HW116088   2.254   0.115   4.269  0.0557 -1.6954 -0.0172
 5063SOL    HW216089   2.416   0.132   4.254 -0.2224  1.9543  0.1795
 5064SOL     OW16090   4.668   5.531   4.209  0.0880  0.1709  0.1236
 5064SOL    HW116091   4.581   5.571   4.240  0.3620  0.7678  0.1345
 5064SOL    HW216092   4.684   5.557   4.114 -0.5412 -1.3075 -0.4208
 5065SOL     OW16093   0.976   0.820   5.169  0.6472  0.6198  0.0268
 5065SOL    HW116094   0.989   0.863   5.258 -0.9455  0.4963  0.3457
 5065SOL    HW216095   0.887   0.774   5.166  0.0576  1.7350 -2.0582
 5066SOL     OW16096   5.821   4.508   0.312 -0.0234  0.1097 -0.0766
 5066SOL    HW116097   5.763   4.514   0.230 -0.8547 -1.5570  0.3481
 5066SOL    HW216098   5.764   4.507   0.394  0.7454  0.6295  0.4852
 5067SOL     OW16099   5.104   6.771   6.508 -0.5056 -0.6320 -0.0054
 5067SOL    HW116100   5.053   6.685   6.497 -1.3362 -0.1744  0.1441
 5067SOL    HW216101   5.132   6.805   6.418  3.3434 -3.0512  0.0701
 5068SOL     OW16102   3.138   4.746   1.596 -0.2427 -0.1013 -0.9168
 5068SOL    HW116103   3.188   4.781   1.675 -2.0611 -0.0448  0.2652
 5068SOL    HW216104   3.089   4.820   1.551 -0.9592 -0.4713 -0.7655
 5069SOL     OW16105   1.280   6.226   4.704 -0.4183  0.1652 -0.6750
 5069SOL    HW116106   1.326   6.315   4.700  2.1942 -0.9372  1.1804
 5069SOL    HW216107   1.212   6.227   4.778 -0.7527  0.7458 -0.9850
 5070SOL     OW16108   5.524   1.837   4.198  0.7088  0.0230 -0.1799
 5070SOL    HW116109   5.620   1.864   4.203  0.3495  1.2066  0.9770
 5070SOL    HW216110   5.505   1.767   4.267  0.6656  0.0831 -0.1294
 5071SOL     OW16111   4.459   1.675   3.452  0.0270 -0.2702  0.1637
 5071SOL    HW116112   4.441   1.766   3.414 -1.8367 -1.2054 -1.3329
 5071SOL    HW216113   4.439   1.676   3.550 -0.1744  0.8854  0.1314
 5072SOL     OW16114   1.189   4.417   1.351  0.1810 -0.1639  0.6046
 5072SOL    HW116115   1.202   4.479   1.428  0.2309  1.4602 -0.6616
 5072SOL    HW216116   1.118   4.453   1.290 -0.9210 -2.1717  0.6135
 5073SOL     OW16117   4.446   5.079   4.123  0.3660 -0.4453  0.8615
 5073SOL    HW116118   4.407   5.074   4.032  1.1302  0.6015  0.4545
 5073SOL    HW216119   4.387   5.032   4.188 -1.9437  1.6519  0.4087
 5074SOL     OW16120   3.638   3.191   5.130 -0.4515 -0.2195 -0.0839
 5074SOL    HW116121   3.720   3.138   5.111  0.2082  1.2978 -1.7272
 5074SOL    HW216122   3.591   3.212   5.045 -1.0891  1.1736  0.5700
 5075SOL     OW16123   4.522   6.604   4.768  0.2184  0.4517 -0.4155
 5075SOL    HW116124   4.532   6.700   4.796  0.6184  0.0457  0.9113
 5075SOL    HW216125   4.525   6.546   4.849  2.0165 -0.8639 -1.3698
 5076SOL     OW16126   4.442   6.220   0.044 -0.5122  0.8219 -0.6228
 5076SOL    HW116127   4.535   6.215   0.007  0.1150  1.3177  0.8241
 5076SOL    HW216128   4.433   6.156   0.120  0.0953  3.8068  2.1833
 5077SOL     OW16129   0.768   0.959   3.679  0.2452  0.3332  0.1519
 5077SOL    HW116130   0.805   0.924   3.766  1.7061 -1.4464 -1.1105
 5077SOL    HW216131   0.669   0.952   3.681  0.1894  1.0519  1.9575
 5078SOL     OW16132   6.397   1.450   4.597  0.1396  0.1372  0.3396
 5078SOL    HW116133   6.313   1.500   4.618 -0.7542 -0.4734 -1.5506
 5078SOL    HW216134   6.465   1.467   4.669 -0.4796  3.1961  0.3209
 5079SOL     OW16135   5.156   6.137   4.520  0.1485  0.3031 -0.5062
 5079SOL    HW116136   5.081   6.202   4.510 -2.2716 -2.1096  0.5890
 5079SOL    HW216137   5.135   6.054   4.468  0.0765 -1.9228  2.7532
 5080SOL     OW16138   4.178   1.386   6.008 -0.3885 -0.6480 -0.0765
 5080SOL    HW116139   4.184   1.484   6.030 -1.2122 -0.0091 -2.3346
 5080SOL    HW216140   4.083   1.363   5.988 -0.0352 -1.6114 -0.7015
 5081SOL     OW16141   3.992   3.925   1.619 -0.0967  0.6577 -0.4648
 5081SOL    HW116142   3.989   3.827   1.601 -2.5384  0.0016  2.6258
 5081SOL    HW216143   4.073   3.946   1.674 -0.8270 -0.1798  1.0181
 5082SOL     OW16144   6.786   0.379   3.897  0.1576 -0.2555  0.2072
 5082SOL    HW116145   6.757   0.475   3.890  1.3923  0.0642 -1.1316
 5082SOL    HW216146   6.720   0.328   3.951 -1.4431  0.9904 -0.4886
 5083SOL     OW16147   0.726   3.962   1.897 -0.5196  0.4356 -0.3397
 5083SOL    HW116148   0.644   3.910   1.871 -0.6839  0.1025  0.7878
 5083SOL    HW216149   0.773   3.994   1.814 -0.8193 -0.8755 -1.0509
 5084SOL     OW16150   1.512   5.964   3.468  0.0839 -0.3352  0.2565
 5084SOL    HW116151   1.589   6.012   3.508  1.0093 -2.0707  0.6509
 5084SOL    HW216152   1.458   5.921   3.540  0.0712 -1.0386 -0.1672
 5085SOL     OW16153   0.153   3.031   1.026 -0.0583  0.6573  0.2711
 5085SOL    HW116154   0.066   3.062   0.987  0.5925  0.4975 -1.3733
 5085SOL    HW216155   0.229   3.070   0.974  1.0096  3.0221  3.3006
 5086SOL     OW16156   6.171   5.902   4.135  0.0437 -0.1919 -0.0111
 5086SOL    HW116157   6.090   5.852   4.167  0.1975 -0.2735  0.2518
 5086SOL    HW216158   6.187   5.881   4.039 -1.2445  1.1377 -0.5465
 5087SOL     OW16159   4.423   5.436   5.210 -0.1996 -0.0442 -0.4582
 5087SOL    HW116160   4.507   5.481   5.181 -0.9007  1.5291 -0.1593
 5087SOL    HW216161   4.355   5.505   5.234 -0.8094 -1.2619  1.5575
 5088SOL     OW16162   6.962   2.163   6.496 -0.0822 -0.0122  0.2926
 5088SOL    HW116163   6.942   2.134   6.590  0.6546  2.1928  1.2045
 5088SOL    HW216164   7.011   2.250   6.498 -0.9415  0.6141 -2.1897
 5089SOL     OW16165   5.493   1.997   2.991 -0.0746 -0.3012  0.2966
 5089SOL    HW116166   5.451   1.909   3.015  0.2545 -0.9939 -1.5135
 5089SOL    HW216167   5.421   2.065   2.978 -0.5837 -1.1058 -1.3178
 5090SOL     OW16168   1.395   4.620   6.548 -0.3183  0.1638  0.5788
 5090SOL    HW116169   1.392   4.718   6.569  1.1657  0.0196  1.6529
 5090SOL    HW216170   1.489   4.588   6.557 -0.3795 -0.9425 -1.8739
 5091SOL     OW16171   6.149   5.169   2.878  0.1207  0.2193  0.0944
 5091SOL    HW116172   6.235   5.139   2.921  0.4695 -0.0061 -0.7389
 5091SOL    HW216173   6.072   5.126   2.925  0.6109 -2.5051 -1.3535
 5092SOL     OW16174   1.848   3.184   5.869  0.1687  0.4466  0.1592
 5092SOL    HW116175   1.861   3.232   5.955  0.2764  2.1643 -0.7615
 5092SOL    HW216176   1.907   3.223   5.799  1.0755 -1.7896 -0.4282
 5093SOL     OW16177   6.977   2.339   1.571 -0.4068  0.5224 -0.3432
 5093SOL    HW116178   6.901   2.292   1.526  0.7127 -0.1413 -1.6229
 5093SOL    HW216179   6.943   2.388   1.651 -1.9151 -1.0802  0.0771
 5094SOL     OW16180   1.598   6.616   5.820 -0.0830  0.8724  0.1994
 5094SOL    HW116181   1.635   6.613   5.912 -2.8161  0.7940  1.4122
 5094SOL    HW216182   1.564   6.708   5.800  0.5862  0.9191 -0.8070
 5095SOL     OW16183   1.403   6.319   5.472 -0.0808  0.0678  0.9864
 5095SOL    HW116184   1.396   6.230   5.427  0.0564 -0.6224  2.2814
 5095SOL    HW216185   1.483   6.320   5.532 -1.2699  0.2620  2.6493
 5096SOL     OW16186   1.940   5.972   3.954  0.4422  0.6898  0.8761
 5096SOL    HW116187   1.911   5.890   4.003 -1.6146  1.1313  0.4824
 5096SOL    HW216188   1.958   5.949   3.858 -1.8744  0.9447  0.3204
 5097SOL     OW16189   0.437   1.431   4.754  0.4218  0.6548  0.3184
 5097SOL    HW116190   0.496   1.408   4.831  0.4084 -0.8451 -0.0903
 5097SOL    HW216191   0.427   1.351   4.695 -0.3991  1.4809 -0.6941
 5098SOL     OW16192   1.088   4.495   3.199 -0.1322 -0.1376 -0.4207
 5098SOL    HW116193   0.993   4.492   3.166 -0.6886  2.6637  0.6320
 5098SOL    HW216194   1.141   4.557   3.141  1.1809 -1.9145 -1.1744
 5099SOL     OW16195   0.331   0.288   5.150 -0.4740  0.1111  0.4140
 5099SOL    HW116196   0.400   0.233   5.199 -0.0274 -0.3262 -0.6600
 5099SOL    HW216197   0.247   0.292   5.203  0.3682  0.6238  1.7416
 5100SOL     OW16198   5.305   5.411   4.309  0.1834  0.1137  0.1143
 5100SOL    HW116199   5.227   5.425   4.370  1.4463  0.8779  1.6350
 5100SOL    HW216200   5.313   5.313   4.287 -0.0693 -0.2537  1.5413
 5101SOL     OW16201   6.721   4.984   0.933  0.3472 -0.1978 -0.2610
 5101SOL    HW116202   6.736   4.979   0.834  1.7972  0.9692 -0.1408
 5101SOL    HW216203   6.737   5.077   0.965 -2.6334  0.0798  0.7490
 5102SOL     OW16204   5.947   5.188   4.089 -0.0535  0.2228 -0.2651
 5102SOL    HW116205   6.042   5.163   4.107  0.1759  0.0059 -1.6389
 5102SOL    HW216206   5.935   5.287   4.103  1.0893  0.7790 -2.6921
 5103SOL     OW16207   0.629   1.529   2.279  0.0406 -0.0734  0.5571
 5103SOL    HW116208   0.696   1.588   2.323  0.3288 -0.2344  0.3382
 5103SOL    HW216209   0.542   1.579   2.269  0.9463  1.2096 -1.7823
 5104SOL     OW16210   5.893   2.572   0.925  0.1471  0.2463  0.0558
 5104SOL    HW116211   5.930   2.573   0.832  0.5512 -0.1514  0.2112
 5104SOL    HW216212   5.793   2.570   0.922  0.1032  1.7776 -0.3749
 5105SOL     OW16213   1.407   2.027   6.947  0.3981  0.7241  0.2655
 5105SOL    HW116214   1.311   2.001   6.941 -0.4232  3.8236 -1.8989
 5105SOL    HW216215   1.416   2.114   6.996  2.3088 -0.1450  1.6092
 5106SOL     OW16216   2.064   1.443   2.500  0.1397  0.4779 -0.3141
 5106SOL    HW116217   2.107   1.396   2.423 -3.4627  0.4406 -2.5353
 5106SOL    HW216218   1.984   1.390   2.530 -0.0939  1.8768  1.7028
 5107SOL     OW16219   1.052   6.188   0.310 -0.0502  0.1119  0.0379
 5107SOL    HW116220   0.995   6.148   0.382 -0.4542 -0.0408 -0.3599
 5107SOL    HW216221   1.005   6.179   0.222  1.0108 -0.8584 -0.4466
 5108SOL     OW16222   4.289   3.633   5.287  0.1421  0.0712  0.2837
 5108SOL    HW116223   4.213   3.650   5.223 -0.0998 -2.6438 -0.2669
 5108SOL    HW216224   4.262   3.662   5.379 -1.2790 -0.1337 -0.0405
 5109SOL     OW16225   2.408   3.342   1.022  0.5176  0.5115 -0.7574
 5109SOL    HW116226   2.337   3.342   1.092 -0.6558  2.8104 -1.8275
 5109SOL    HW216227   2.392   3.418   0.959  3.0324  0.1005 -2.0003
 5110SOL     OW16228   1.163   6.123   5.591  0.1970 -0.4858  0.1160
 5110SOL    HW116229   1.200   6.031   5.603  0.8686 -0.1716  0.4759
 5110SOL    HW216230   1.236   6.187   5.568  0.1652  0.4091  2.1999
 5111SOL     OW16231   6.532   0.133   5.999  0.2261 -0.1233 -0.0021
 5111SOL    HW116232   6.491   0.044   6.017  1.2379 -0.3754  1.1382
 5111SOL    HW216233   6.604   0.124   5.930 -0.8764  0.1480 -1.2376
 5112SOL     OW16234   3.085   5.902   2.904 -0.9093  0.3153  0.1221
 5112SOL    HW116235   3.140   5.819   2.915 -0.7950  0.4173  0.3328
 5112SOL    HW216236   2.993   5.877   2.873 -0.3019  0.2345 -1.7667
 5113SOL     OW16237   1.121   2.997   0.848  0.2575 -0.2084  0.2290
 5113SOL    HW116238   1.151   3.079   0.897  0.2724 -0.2047  0.2138
 5113SOL    HW216239   1.143   2.916   0.903 -2.5002 -0.0749  1.6968
 5114SOL     OW16240   5.863   0.179   6.182  0.0114  0.3262 -0.2617
 5114SOL    HW116241   5.878   0.086   6.216  0.9441  0.0916 -1.2545
 5114SOL    HW216242   5.883   0.245   6.254 -1.2988 -0.2309  0.6727
 5115SOL     OW16243   2.690   3.084   5.313 -0.4260 -0.3949  0.2200
 5115SOL    HW116244   2.777   3.083   5.265 -0.4793  0.1962  0.0946
 5115SOL    HW216245   2.619   3.042   5.256 -0.9436  2.1614 -1.1757
 5116SOL     OW16246   7.002   5.151   1.176  0.0910 -0.1627 -0.0589
 5116SOL    HW116247   7.038   5.065   1.142  0.9780  0.1893 -0.0352
 5116SOL    HW216248   6.955   5.136   1.263  1.4841 -0.4160  0.6752
 5117SOL     OW16249   1.715   4.859   2.551 -0.2544 -0.1043  0.0415
 5117SOL    HW116250   1.681   4.870   2.644  0.0327  2.3155 -0.0856
 5117SOL    HW216251   1.642   4.878   2.486  0.4599  2.0255 -0.2082
 5118SOL     OW16252   2.711   6.566   1.036 -0.1889 -0.0621 -0.4435
 5118SOL    HW116253   2.693   6.663   1.018 -0.7331 -0.1314 -0.3088
 5118SOL    HW216254   2.727   6.553   1.134 -1.3698 -0.2865 -0.2701
 5119SOL     OW16255   5.650   0.482   4.228  0.2824  0.1251  0.4489
 5119SOL    HW116256   5.730   0.524   4.272  0.5048 -0.0286  0.1959
 5119SOL    HW216257   5.675   0.451   4.136 -0.9368  3.3647 -1.1816
 5120SOL     OW16258   2.724   1.954   1.257 -0.0297  0.3243 -0.2923
 5120SOL    HW116259   2.698   1.939   1.353 -1.8234 -2.2372 -1.0736
 5120SOL    HW216260   2.823   1.950   1.249  0.0682 -2.9201  1.0596
 5121SOL     OW16261   0.356   3.448   6.910 -0.2305  0.0191 -0.1764
 5121SOL    HW116262   0.369   3.446   6.811  1.9953  1.4175  0.0189
 5121SOL    HW216263   0.259   3.458   6.931 -0.7398 -0.3328 -2.2060
 5122SOL     OW16264   2.681   5.394   0.892  0.4774 -0.4385  0.3279
 5122SOL    HW116265   2.607   5.336   0.928 -3.3904  3.2792 -0.8803
 5122SOL    HW216266   2.703   5.366   0.799  0.5746 -1.5223  0.6607
 5123SOL     OW16267   0.359   5.467   6.077  0.5624 -0.2422 -0.3226
 5123SOL    HW116268   0.272   5.451   6.124 -0.0376  1.2214 -0.8986
 5123SOL    HW216269   0.380   5.564   6.078  1.3127 -0.3649 -1.7449
 5124SOL     OW16270   2.457   0.753   1.082  0.2662  0.2533  0.4038
 5124SOL    HW116271   2.551   0.787   1.081  0.0660  0.8973  1.4171
 5124SOL    HW216272   2.408   0.792   1.161  0.0238 -2.4007  1.6852
 5125SOL     OW16273   1.812   2.993   6.282  0.1686 -0.0820  0.4979
 5125SOL    HW116274   1.733   2.961   6.335  0.2720  1.2988  1.5525
 5125SOL    HW216275   1.823   2.936   6.201 -0.5715 -1.6881  1.4707
 5126SOL     OW16276   2.690   1.187   2.582 -0.8704  0.0959 -0.1960
 5126SOL    HW116277   2.767   1.207   2.643 -1.5927 -1.5970  1.3852
 5126SOL    HW216278   2.678   1.088   2.574 -2.3626  0.3071 -1.0981
 5127SOL     OW16279   3.735   3.606   0.506 -0.2488  0.0979 -0.1527
 5127SOL    HW116280   3.746   3.539   0.433  0.7034 -0.0560  0.1212
 5127SOL    HW216281   3.823   3.625   0.549 -0.5922  1.0884  0.1689
 5128SOL     OW16282   5.794   2.575   5.127  0.2457 -0.0007  0.2382
 5128SOL    HW116283   5.870   2.524   5.088 -1.9825 -1.2696 -2.8926
 5128SOL    HW216284   5.713   2.515   5.131 -1.0340  1.7370  1.8390
 5129SOL     OW16285   2.975   1.500   3.917  0.0114  0.0796 -0.2501
 5129SOL    HW116286   3.034   1.579   3.908  0.0343  0.1866  0.7441
 5129SOL    HW216287   2.998   1.433   3.846  0.7305  0.4894 -0.4136
 5130SOL     OW16288   0.989   6.723   5.088 -0.0352  0.6229 -0.1829
 5130SOL    HW116289   0.922   6.758   5.153 -0.0220  0.0299  0.1475
 5130SOL    HW216290   1.005   6.792   5.017 -0.3246  1.1218  0.2316
 5131SOL     OW16291   4.775   3.984   1.665  0.0539 -0.6229  0.0917
 5131SOL    HW116292   4.861   4.007   1.620  0.8293 -1.9341  0.8259
 5131SOL    HW216293   4.781   4.007   1.762 -1.4520  1.8048 -0.3226
 5132SOL     OW16294   3.609   1.892   5.838 -0.0345 -0.0941 -0.2737
 5132SOL    HW116295   3.616   1.991   5.851  0.9188 -0.3711  1.6436
 5132SOL    HW216296   3.698   1.856   5.810 -0.1165 -0.5412  0.0399
 5133SOL     OW16297   2.106   2.646   0.213 -0.7794  0.4623  0.2405
 5133SOL    HW116298   2.019   2.690   0.189 -0.7275 -0.5959 -2.1589
 5133SOL    HW216299   2.181   2.703   0.179 -0.6796 -0.5722 -1.3876
 5134SOL     OW16300   5.504   0.067   2.471 -0.5621 -0.2990 -0.1825
 5134SOL    HW116301   5.449   0.002   2.418  0.7146 -2.3559  0.8744
 5134SOL    HW216302   5.483   0.057   2.568  0.2496  0.2985  0.0657
 5135SOL     OW16303   0.067   2.580   3.222 -0.2218 -0.1595 -0.5157
 5135SOL    HW116304   0.050   2.555   3.127 -0.9168 -0.2303 -0.3726
 5135SOL    HW216305   0.036   2.507   3.282  0.2757 -0.1427 -0.2319
 5136SOL     OW16306   6.461   1.114   5.846  0.0761 -0.4747  0.3727
 5136SOL    HW116307   6.464   1.140   5.942 -1.1652 -1.8409  0.8278
 5136SOL    HW216308   6.458   1.014   5.839  0.8360 -0.4189 -1.1237
 5137SOL     OW16309   3.582   1.260   2.682 -0.3099 -0.0958 -0.4900
 5137SOL    HW116310   3.651   1.310   2.629 -0.2042 -0.1673 -0.4220
 5137SOL    HW216311   3.565   1.172   2.638 -0.6678  0.0981 -0.7384
 5138SOL     OW16312   2.531   3.929   1.158 -0.4509  0.3418 -0.8340
 5138SOL    HW116313   2.554   3.850   1.214 -2.7434  0.7928  0.8640
 5138SOL    HW216314   2.610   3.953   1.101  1.8568 -0.4361  1.7923
 5139SOL     OW16315   4.143   1.851   4.692 -0.3644 -0.3010  0.1785
 5139SOL    HW116316   4.059   1.905   4.701  0.8776  2.2146 -1.9913
 5139SOL    HW216317   4.147   1.813   4.599  0.2238 -1.6835  0.7487
 5140SOL     OW16318   2.700   3.277   5.495  0.3930  0.0929 -0.3245
 5140SOL    HW116319   2.690   3.198   5.435  1.8507  0.4533 -1.0753
 5140SOL    HW216320   2.691   3.361   5.442 -0.0942  0.4435  0.2884
 5141SOL     OW16321   6.080   4.325   2.200 -0.6704 -0.6360 -0.2201
 5141SOL    HW116322   5.996   4.377   2.180  0.4446  1.0250 -0.8229
 5141SOL    HW216323   6.101   4.265   2.123 -1.1477 -0.8530 -0.1852
 5142SOL     OW16324   0.298   6.717   2.122  0.3518 -0.1776  0.7718
 5142SOL    HW116325   0.321   6.623   2.148 -0.0760 -0.3181  0.6512
 5142SOL    HW216326   0.243   6.759   2.194 -0.9003 -0.5934  0.0852
 5143SOL     OW16327   0.373   4.167   2.601  0.2170  0.2288 -0.1307
 5143SOL    HW116328   0.423   4.249   2.574  0.6687 -0.3382 -1.0663
 5143SOL    HW216329   0.284   4.165   2.556 -0.5900  1.1321  1.3701
 5144SOL     OW16330   1.549   0.552   4.582 -0.2037  0.0229  0.1746
 5144SOL    HW116331   1.575   0.529   4.488 -3.7534  1.2824 -1.2783
 5144SOL    HW216332   1.552   0.469   4.638 -0.8116 -1.4098 -1.7825
 5145SOL     OW16333   2.159   4.573   6.894 -0.6725 -0.0748 -0.4138
 5145SOL    HW116334   2.241   4.561   6.951 -1.7754  0.4752  1.3913
 5145SOL    HW216335   2.142   4.489   6.843  0.6443 -0.4317 -0.3158
 5146SOL     OW16336   6.451   0.379   6.059 -0.1756 -0.0940 -0.0283
 5146SOL    HW116337   6.371   0.342   6.106  1.3438 -1.6666  1.4844
 5146SOL    HW216338   6.503   0.304   6.017  0.6523  0.8558 -0.7637
 5147SOL     OW16339   3.866   1.126   3.321 -0.2607 -0.3718 -0.9187
 5147SOL    HW116340   3.890   1.148   3.416 -0.0158 -1.4797 -0.7143
 5147SOL    HW216341   3.856   1.211   3.269 -1.8805  0.3297  0.4492
 5148SOL     OW16342   0.577   1.317   1.449 -0.2028  0.1851 -0.1873
 5148SOL    HW116343   0.478   1.330   1.447 -0.0200  2.0787  1.1062
 5148SOL    HW216344   0.620   1.380   1.385  0.1166 -2.2473 -2.5602
 5149SOL     OW16345   0.570   5.971   2.787  0.3594 -0.3136  0.0450
 5149SOL    HW116346   0.569   6.027   2.870  1.5395  0.9871 -0.7644
 5149SOL    HW216347   0.602   5.879   2.808  0.0378 -0.1860  1.1218
 5150SOL     OW16348   6.463   6.201   4.763  0.1445  0.5835 -0.7319
 5150SOL    HW116349   6.523   6.174   4.839  1.3951 -0.1882 -1.9359
 5150SOL    HW216350   6.469   6.300   4.750 -0.6570  0.8327  0.6139
 5151SOL     OW16351   4.620   4.489   2.035  0.3362  0.3394 -0.2537
 5151SOL    HW116352   4.583   4.412   1.983  1.3452 -0.0265 -0.4535
 5151SOL    HW216353   4.666   4.455   2.117  0.3464  0.7800 -0.0721
 5152SOL     OW16354   0.604   0.424   1.365  0.2673  0.2896  0.7550
 5152SOL    HW116355   0.634   0.433   1.460  0.1474  0.6153  0.7639
 5152SOL    HW216356   0.577   0.329   1.347  2.0184 -0.1853  0.5329
 5153SOL     OW16357   2.978   1.853   0.042  0.1673 -0.1549 -0.1610
 5153SOL    HW116358   2.908   1.883  -0.022 -1.2977 -0.3206  1.2819
 5153SOL    HW216359   3.012   1.931   0.094 -0.6570 -0.3690  0.7354
 5154SOL     OW16360   1.530   3.196   5.943  0.0668 -0.6922 -0.0163
 5154SOL    HW116361   1.528   3.096   5.949 -0.7455 -0.7497 -0.9709
 5154SOL    HW216362   1.625   3.227   5.943  0.3688 -1.5582 -0.8927
 5155SOL     OW16363   1.362   1.842   6.678  0.2062 -0.2971 -0.4344
 5155SOL    HW116364   1.402   1.849   6.770  1.4889  0.5061 -1.0295
 5155SOL    HW216365   1.426   1.877   6.611 -1.2197  0.3136 -1.5274
 5156SOL     OW16366   6.523   3.981   6.452 -0.2134  0.1409 -0.0957
 5156SOL    HW116367   6.478   4.009   6.537 -1.2055 -0.3368 -0.4417
 5156SOL    HW216368   6.607   4.034   6.439 -0.7214  1.1297  0.5238
 5157SOL     OW16369   2.024   6.913   2.054 -0.4955 -0.2972 -0.1227
 5157SOL    HW116370   2.056   6.820   2.038  0.3067 -0.1623  0.5716
 5157SOL    HW216371   1.994   6.954   1.968  0.5837 -0.6836 -0.7047
 5158SOL     OW16372   3.057   2.046   0.204 -0.3205 -0.2305  0.0794
 5158SOL    HW116373   3.119   2.116   0.169  1.3392 -2.1050 -0.9215
 5158SOL    HW216374   3.057   2.048   0.304  1.1735 -0.0097  0.0950
 5159SOL     OW16375   6.794   2.343   6.760 -0.2363 -0.4060 -0.7468
 5159SOL    HW116376   6.892   2.346   6.780 -0.8973  0.9265  3.1990
 5159SOL    HW216377   6.779   2.364   6.663  3.3095  0.5584 -1.2256
 5160SOL     OW16378   0.403   1.067   2.740  0.2073 -0.1061 -0.1679
 5160SOL    HW116379   0.346   1.007   2.797 -0.4333  1.5809  1.0579
 5160SOL    HW216380   0.424   1.151   2.791 -0.5854  1.5897 -2.4795
 5161SOL     OW16381   1.680   2.612   6.501  0.6689 -0.4462 -0.4748
 5161SOL    HW116382   1.776   2.628   6.478  0.9958 -2.3537 -0.6355
 5161SOL    HW216383   1.665   2.514   6.511 -1.4301 -0.2323 -1.1112
 5162SOL     OW16384   0.659   1.530   1.033 -0.3490 -0.8549 -0.7678
 5162SOL    HW116385   0.578   1.471   1.038  0.3388 -1.8233 -0.8046
 5162SOL    HW216386   0.701   1.522   0.943 -1.3212  1.2088 -1.4914
 5163SOL     OW16387   3.390   2.247   0.544 -0.0742 -0.3902 -0.0342
 5163SOL    HW116388   3.395   2.147   0.547 -3.0890 -0.6121  2.4453
 5163SOL    HW216389   3.295   2.275   0.533  0.8423  2.3106 -2.2186
 5164SOL     OW16390   0.915   0.808   6.595  0.0928  0.5044 -0.3191
 5164SOL    HW116391   0.891   0.905   6.588  0.7231  0.5908 -1.3528
 5164SOL    HW216392   1.014   0.798   6.593  0.0281 -0.1758 -0.3216
 5165SOL     OW16393   2.644   6.145   5.439  0.3040 -0.5623  0.1879
 5165SOL    HW116394   2.644   6.175   5.343  1.9779  0.4104  0.4618
 5165SOL    HW216395   2.735   6.109   5.462 -0.4342 -1.9268  1.0943
 5166SOL     OW16396   5.921   0.010   5.796 -0.9103  0.1586  0.5637
 5166SOL    HW116397   5.866  -0.047   5.734 -0.8580 -0.0118  0.6716
 5166SOL    HW216398   5.945  -0.044   5.877 -0.2493  0.1039  0.3361
 5167SOL     OW16399   5.003   3.117   5.380  0.4845  0.3797 -0.6795
 5167SOL    HW116400   4.914   3.155   5.406  0.5738  0.2559 -0.1826
 5167SOL    HW216401   5.050   3.181   5.320 -0.4444 -0.0699 -1.9350
 5168SOL     OW16402   5.531   0.965   3.290  0.0231  0.3493  0.8950
 5168SOL    HW116403   5.494   1.006   3.374 -0.1729  1.5907  0.2293
 5168SOL    HW216404   5.627   0.988   3.281  0.6350 -1.6017  1.8439
 5169SOL     OW16405   5.059   5.812   4.752  0.2566  0.2217  0.2407
 5169SOL    HW116406   5.144   5.760   4.752 -0.1956 -0.5276  1.1362
 5169SOL    HW216407   5.069   5.892   4.812  0.3037  0.1107  0.3786
 5170SOL     OW16408   3.756   4.489   5.348  0.6311  0.5218  0.3861
 5170SOL    HW116409   3.726   4.397   5.323  0.3258  1.1652 -1.8524
 5170SOL    HW216410   3.855   4.491   5.357  0.8198  0.3015 -1.3184
 5171SOL     OW16411   0.115   6.764   0.771  0.0110 -0.5340 -0.1056
 5171SOL    HW116412   0.197   6.732   0.818 -0.7846 -2.0431  0.3156
 5171SOL    HW216413   0.109   6.720   0.681  0.4744  0.8158 -0.8419
 5172SOL     OW16414   5.922   5.902   6.036 -0.6115  0.6055  0.0630
 5172SOL    HW116415   5.922   5.862   6.128 -1.6883  1.1542  0.3220
 5172SOL    HW216416   5.996   5.861   5.982  0.4865  0.7861  1.3738
 5173SOL     OW16417   4.923   5.919   4.129 -0.1252  0.7308 -0.5669
 5173SOL    HW116418   4.984   5.988   4.168 -2.6655  0.9328  3.6744
 5173SOL    HW216419   4.911   5.844   4.194 -1.7093 -1.0333 -2.7166
 5174SOL     OW16420   0.242   5.503   5.149 -0.1447 -0.8542 -0.1781
 5174SOL    HW116421   0.146   5.529   5.153  0.0402  0.3036 -2.1273
 5174SOL    HW216422   0.258   5.446   5.068  1.1297  0.5563 -0.9570
 5175SOL     OW16423   3.695   2.827   6.671  0.4441  0.2781  0.0518
 5175SOL    HW116424   3.729   2.813   6.765  0.7234  0.0140 -0.0859
 5175SOL    HW216425   3.603   2.867   6.675  0.8057  1.1097  0.4288
 5176SOL     OW16426   5.074   0.634   4.707 -0.1155 -0.0576 -0.0210
 5176SOL    HW116427   5.115   0.725   4.697  0.2469 -0.1372  0.6813
 5176SOL    HW216428   5.101   0.594   4.795 -3.7421  0.9422  1.7775
 5177SOL     OW16429   5.255   3.872   6.107 -0.1805 -0.7073 -0.1468
 5177SOL    HW116430   5.190   3.948   6.103  0.7772  0.2332  0.9999
 5177SOL    HW216431   5.238   3.818   6.190  0.9886  0.0792  0.6543
 5178SOL     OW16432   0.589   5.231   1.227  0.1295 -0.4227 -0.3821
 5178SOL    HW116433   0.684   5.259   1.219  0.2975 -0.3715  1.3991
 5178SOL    HW216434   0.533   5.309   1.254 -0.2209 -0.7352 -0.1917
 5179SOL     OW16435   4.352   4.942   4.354  0.2705 -0.2850  0.3882
 5179SOL    HW116436   4.294   4.865   4.378  0.6688 -0.5876  0.3958
 5179SOL    HW216437   4.326   5.022   4.408 -0.9387 -0.0649 -0.4831
 5180SOL     OW16438   2.845   6.526   4.292 -0.5719 -0.5387  0.1196
 5180SOL    HW116439   2.859   6.471   4.374 -0.8310  0.4424  0.8462
 5180SOL    HW216440   2.813   6.617   4.319 -1.5550 -0.4946 -1.1137
 5181SOL     OW16441   5.753   2.098   3.522  0.1068  0.1942  0.1745
 5181SOL    HW116442   5.706   2.021   3.566  0.2069  0.6629  1.1396
 5181SOL    HW216443   5.811   2.065   3.449 -0.5424 -0.5559 -0.0162
 5182SOL     OW16444   2.305   6.566   0.597  0.1095 -0.1227 -0.0950
 5182SOL    HW116445   2.278   6.578   0.692  3.0219  0.8441  0.7226
 5182SOL    HW216446   2.341   6.652   0.561 -1.0008 -0.4430 -2.1564
 5183SOL     OW16447   0.076   2.783   0.924 -0.1429 -0.0650 -0.2530
 5183SOL    HW116448   0.134   2.861   0.947 -0.5630  0.0843  0.3235
 5183SOL    HW216449   0.116   2.733   0.848  0.4632  0.3442 -0.2085
 5184SOL     OW16450   1.905   2.571   3.104 -0.0709  0.7545 -0.2043
 5184SOL    HW116451   1.895   2.538   3.011  1.4377  0.4161 -0.2844
 5184SOL    HW216452   1.832   2.534   3.161 -0.9480  0.8818 -1.2195
 5185SOL     OW16453   6.036   2.922   0.807  0.2870 -0.3821 -0.5387
 5185SOL    HW116454   5.969   2.887   0.873 -0.1708  1.6493  0.1495
 5185SOL    HW216455   6.002   3.007   0.767  1.7418 -0.1874 -1.4164
 5186SOL     OW16456   0.080   3.998   6.154  0.6897 -0.1378  0.3087
 5186SOL    HW116457   0.144   3.928   6.184  0.5711 -0.8426 -1.0201
 5186SOL    HW216458  -0.013   3.964   6.160  0.5824  0.1414  0.2729
 5187SOL     OW16459   1.738   3.576   6.022 -0.4072 -0.2374 -0.4206
 5187SOL    HW116460   1.827   3.541   6.053 -0.0213  0.3738 -0.8166
 5187SOL    HW216461   1.721   3.544   5.929 -1.2064 -1.4199  0.0991
 5188SOL     OW16462   1.708   0.393   0.942  0.3568  0.2159  0.3724
 5188SOL    HW116463   1.639   0.396   0.869 -1.1562  1.4215  1.7942
 5188SOL    HW216464   1.663   0.374   1.029  1.7557  1.6312  1.4380
 5189SOL     OW16465   4.622   0.242   5.693 -0.0446 -0.0508  0.4993
 5189SOL    HW116466   4.607   0.179   5.617  0.0060  0.3787  0.1307
 5189SOL    HW216467   4.534   0.273   5.728 -0.1430  2.5566 -1.7346
 5190SOL     OW16468   1.956   5.064   1.908 -0.1234 -0.3915 -0.1180
 5190SOL    HW116469   1.872   5.019   1.938  0.7432 -1.2757  1.0807
 5190SOL    HW216470   2.034   5.006   1.931  0.9573  1.2690  0.5413
 5191SOL     OW16471   2.934   4.011   1.296 -0.2437 -0.1450 -0.2174
 5191SOL    HW116472   2.923   4.093   1.240  1.9590 -0.6194 -1.4612
 5191SOL    HW216473   3.015   4.021   1.354 -0.2158 -1.2620 -0.0412
 5192SOL     OW16474   6.904   3.192   2.156  0.1816 -0.0981 -0.3713
 5192SOL    HW116475   6.855   3.279   2.166  1.8295  0.9650 -1.1916
 5192SOL    HW216476   6.916   3.151   2.246 -0.0332  0.8511  0.1027
 5193SOL     OW16477   3.755   0.680   5.647 -0.2920 -0.2022  0.4281
 5193SOL    HW116478   3.683   0.733   5.692 -0.5787  0.1015 -0.3702
 5193SOL    HW216479   3.840   0.733   5.646 -0.3907 -0.0453  0.2636
 5194SOL     OW16480   4.652   1.559   5.515 -0.0319  0.1056 -0.2414
 5194SOL    HW116481   4.602   1.614   5.582 -0.6254 -0.1089 -0.4988
 5194SOL    HW216482   4.596   1.481   5.488  0.8967 -0.7790  0.3122
 5195SOL     OW16483   2.533   0.802   6.495  0.8387 -0.3000 -0.1915
 5195SOL    HW116484   2.518   0.826   6.399  0.1065 -2.2406 -0.6037
 5195SOL    HW216485   2.607   0.735   6.502  1.6293  0.6233  0.7392
 5196SOL     OW16486   6.990   5.073   4.033  0.6161 -0.0651  0.0131
 5196SOL    HW116487   6.914   5.089   3.970  1.4587 -2.5549 -1.7794
 5196SOL    HW216488   7.061   5.019   3.988  4.1551  3.1326  1.1413
 5197SOL     OW16489   0.983   3.844   5.379  0.2956  0.2046 -0.0873
 5197SOL    HW116490   1.029   3.909   5.440  1.0354 -0.9264  0.5831
 5197SOL    HW216491   0.957   3.762   5.430 -2.2722  0.6660 -0.4946
 5198SOL     OW16492   0.828   3.841   2.701 -0.2684  0.0547 -0.1535
 5198SOL    HW116493   0.792   3.748   2.706 -1.9859  0.6159 -1.1865
 5198SOL    HW216494   0.786   3.897   2.773  1.0046 -0.0314  0.6732
 5199SOL     OW16495   0.525   6.016   1.615  0.6495 -0.3842  0.4377
 5199SOL    HW116496   0.521   5.993   1.713 -0.3489  0.9434  0.7258
 5199SOL    HW216497   0.530   6.115   1.605  1.3465 -0.5399 -0.8606
 5200SOL     OW16498   0.591   3.840   5.443  0.0727 -0.2804 -0.0321
 5200SOL    HW116499   0.508   3.892   5.423 -0.9687 -2.0220 -0.4676
 5200SOL    HW216500   0.669   3.903   5.450 -1.4097  1.5112  1.3837
 5201SOL     OW16501   0.612   4.891   3.838  0.4376  0.3213  0.1432
 5201SOL    HW116502   0.532   4.832   3.836  0.4864  0.0800  2.6299
 5201SOL    HW216503   0.605   4.955   3.914  1.1285  2.5443 -1.5264
 5202SOL     OW16504   6.433   6.960   2.505  0.2231  0.3222  0.2025
 5202SOL    HW116505   6.352   6.941   2.561  0.2188  0.0344  0.0999
 5202SOL    HW216506   6.412   7.034   2.440 -0.4850 -0.8431 -0.9434
 5203SOL     OW16507   5.755   4.640   0.051 -0.0497  0.1493 -0.4264
 5203SOL    HW116508   5.803   4.727   0.055  0.0700  0.0481  0.9539
 5203SOL    HW216509   5.665   4.649   0.093 -0.2982 -0.2371 -0.8640
 5204SOL     OW16510   6.343   0.470   6.705  0.4920  0.4860  0.4923
 5204SOL    HW116511   6.359   0.377   6.672 -1.1815  0.3652 -0.1010
 5204SOL    HW216512   6.378   0.479   6.798  1.5254 -0.4382  0.2199
 5205SOL     OW16513   3.478   5.531   6.662  0.6924  0.6620  0.0513
 5205SOL    HW116514   3.490   5.458   6.594 -1.0554  0.7810 -0.4413
 5205SOL    HW216515   3.445   5.492   6.748 -1.8243  0.9301 -0.6929
 5206SOL     OW16516   6.092   2.516   2.635  0.1083 -0.2863 -1.0719
 5206SOL    HW116517   6.094   2.472   2.545 -0.4095  1.3756 -1.9390
 5206SOL    HW216518   6.177   2.567   2.649  0.1247 -0.4204 -0.6688
 5207SOL     OW16519   1.106   0.116   3.198  1.1255 -0.9282  0.3255
 5207SOL    HW116520   1.179   0.109   3.129  1.1099 -2.9505  0.4522
 5207SOL    HW216521   1.139   0.080   3.285  0.8414  0.7526  1.1581
 5208SOL     OW16522   5.274   2.894   0.822 -0.1784  0.3881 -0.5559
 5208SOL    HW116523   5.206   2.968   0.822  0.4867  1.0132 -0.5183
 5208SOL    HW216524   5.227   2.806   0.819 -0.9849  0.8149 -0.9194
 5209SOL     OW16525   4.830   5.039   3.728 -0.6939  0.2652  0.0925
 5209SOL    HW116526   4.915   5.092   3.730 -0.1637 -0.5026 -1.0383
 5209SOL    HW216527   4.775   5.067   3.649 -0.4277 -0.8189 -0.4881
 5210SOL     OW16528   5.034   3.036   4.512  0.1989  0.8442  0.0070
 5210SOL    HW116529   5.003   2.949   4.473 -1.0078  0.5082  1.6058
 5210SOL    HW216530   5.011   3.039   4.609  2.3672  1.9931  0.5459
 5211SOL     OW16531   2.053   4.432   1.666 -0.0237  0.0558  0.0942
 5211SOL    HW116532   1.969   4.426   1.612  0.1475 -0.3632 -0.1323
 5211SOL    HW216533   2.064   4.348   1.719  1.1831 -0.6913 -1.2678
 5212SOL     OW16534   1.211   0.923   6.514 -0.4994  0.0809 -0.6498
 5212SOL    HW116535   1.278   0.978   6.465  0.4839 -1.5588 -1.2225
 5212SOL    HW216536   1.179   0.848   6.456 -1.9548  0.1230  0.0294
 5213SOL     OW16537   6.960   2.659   6.792 -0.5133 -0.1156  0.0388
 5213SOL    HW116538   7.033   2.725   6.811 -1.0411  0.7058 -0.6841
 5213SOL    HW216539   6.994   2.566   6.806  0.3687  0.2888  0.6741
 5214SOL     OW16540   5.533   1.325   6.475 -0.8231 -0.0206  0.3703
 5214SOL    HW116541   5.616   1.365   6.512 -1.7559  2.3854 -0.0043
 5214SOL    HW216542   5.492   1.264   6.543  1.5499 -1.8356  0.2992
 5215SOL     OW16543   6.099   6.164   4.649  0.1548 -0.2895 -0.1258
 5215SOL    HW116544   6.044   6.083   4.631  0.9979 -1.0467  0.6083
 5215SOL    HW216545   6.159   6.147   4.728  1.1241  0.6552 -0.6334
 5216SOL     OW16546   2.868   6.185   0.492  0.2136  0.3187  0.5013
 5216SOL    HW116547   2.820   6.221   0.573  1.1722  0.7425  0.8893
 5216SOL    HW216548   2.886   6.260   0.428 -2.1448 -0.2744 -0.9962
 5217SOL     OW16549   2.598   7.011   3.233  0.4580 -0.2220  0.6943
 5217SOL    HW116550   2.556   7.081   3.174 -2.2971 -1.0708  1.5276
 5217SOL    HW216551   2.691   7.039   3.255  1.3494  0.5863 -3.2590
 5218SOL     OW16552   6.415   0.282   3.403  0.1282 -0.3213 -0.5852
 5218SOL    HW116553   6.428   0.183   3.395 -3.2949 -1.0664  1.3744
 5218SOL    HW216554   6.339   0.310   3.345 -0.3663  0.7197  0.5302
 5219SOL     OW16555   2.943   5.232   2.851 -0.0339  0.4358  0.7936
 5219SOL    HW116556   3.029   5.181   2.858 -0.9772 -1.6534 -1.6236
 5219SOL    HW216557   2.873   5.187   2.906 -0.1492  0.9170  1.0518
 5220SOL     OW16558   3.703   5.810   2.444  0.2642  0.5154  0.1432
 5220SOL    HW116559   3.627   5.745   2.455  0.5589  0.3986  1.7247
 5220SOL    HW216560   3.744   5.798   2.354 -0.8031 -0.2724 -0.2659
 5221SOL     OW16561   4.254   1.763   1.187  0.3599  0.1867  0.1247
 5221SOL    HW116562   4.324   1.693   1.203  0.2276  0.3969  1.7729
 5221SOL    HW216563   4.165   1.729   1.217  0.0048  0.4902 -0.5501
 5222SOL     OW16564   0.128   6.615   2.715 -0.4016 -0.1152 -0.1577
 5222SOL    HW116565   0.127   6.635   2.813 -0.7368  2.6712 -0.6639
 5222SOL    HW216566   0.116   6.699   2.663  1.0729 -1.3359 -2.6630
 5223SOL     OW16567   3.530   6.316   5.970 -0.3098 -0.4291  0.1547
 5223SOL    HW116568   3.582   6.309   5.885 -0.7238 -0.0225 -0.1375
 5223SOL    HW216569   3.455   6.381   5.958 -1.1139 -1.2880  0.4539
 5224SOL     OW16570   4.513   1.075   4.410  0.6731  0.1417 -0.0576
 5224SOL    HW116571   4.539   1.110   4.499 -1.8322  0.3510  0.6706
 5224SOL    HW216572   4.492   0.977   4.418  0.8191  0.0702 -0.5129
 5225SOL     OW16573   6.202   1.898   6.014 -0.1257 -0.1982  0.1261
 5225SOL    HW116574   6.178   1.841   6.093 -1.3392  1.1283  0.7651
 5225SOL    HW216575   6.263   1.847   5.954  0.2518 -1.5159  1.5492
 5226SOL     OW16576   2.055   2.057   3.743  0.2429  0.8281  0.2159
 5226SOL    HW116577   2.075   1.959   3.742 -1.0232  0.5702 -0.2338
 5226SOL    HW216578   2.033   2.085   3.837 -1.0974  0.3177  0.0709
 5227SOL     OW16579   6.771   3.553   3.599  0.2636 -0.2202 -0.1129
 5227SOL    HW116580   6.786   3.498   3.516  0.0246  0.4315 -0.6012
 5227SOL    HW216581   6.803   3.502   3.679 -0.6516 -1.3924 -0.4538
 5228SOL     OW16582   4.152   1.932   1.899 -0.1049  0.2234 -0.6580
 5228SOL    HW116583   4.231   1.870   1.897 -0.5834 -0.5357  1.4991
 5228SOL    HW216584   4.069   1.878   1.914 -0.8095  1.2031 -0.9885
 5229SOL     OW16585   1.988   3.853   4.593 -0.3769  0.1449 -0.0625
 5229SOL    HW116586   2.041   3.876   4.511 -0.5852  1.0328  0.0447
 5229SOL    HW216587   1.932   3.931   4.619  0.0754  0.0627  1.2336
 5230SOL     OW16588   0.966   2.418   6.504 -0.5400  0.2243 -0.1235
 5230SOL    HW116589   0.886   2.473   6.483 -1.3185 -0.4997  0.8437
 5230SOL    HW216590   1.033   2.427   6.430 -1.5324  0.7947 -0.9849
 5231SOL     OW16591   3.045   3.066   2.743  0.0726  0.7405  0.7665
 5231SOL    HW116592   3.094   3.140   2.788 -0.4095  1.5858 -0.0611
 5231SOL    HW216593   3.107   3.015   2.684  1.1139 -1.3920  3.4661
 5232SOL     OW16594   5.644   3.516   3.528 -0.0795  0.1960 -0.1400
 5232SOL    HW116595   5.718   3.487   3.469 -0.0894  0.2801 -0.1935
 5232SOL    HW216596   5.577   3.569   3.475 -0.4048 -0.2589 -0.1928
 5233SOL     OW16597   6.213   0.345   2.376  0.0657 -0.2496  0.1177
 5233SOL    HW116598   6.211   0.385   2.285 -0.1320 -0.5655 -0.0179
 5233SOL    HW216599   6.120   0.336   2.411  0.0194 -1.5258 -0.2723
 5234SOL     OW16600   3.657   2.952   2.941 -0.7914  0.3406  0.3034
 5234SOL    HW116601   3.757   2.958   2.944 -0.5960 -1.4028 -0.7241
 5234SOL    HW216602   3.623   3.002   2.862 -0.7520  1.0845  0.7551
 5235SOL     OW16603   6.283   2.485   0.967 -0.1526  0.0911  0.0364
 5235SOL    HW116604   6.317   2.474   0.874  0.5191  1.4899  0.0970
 5235SOL    HW216605   6.308   2.405   1.022  0.0265 -0.4402 -0.8111
 5236SOL     OW16606   0.576   3.533   0.048 -0.0066 -0.1195  0.1161
 5236SOL    HW116607   0.499   3.504  -0.008 -0.4337  2.9697 -1.0664
 5236SOL    HW216608   0.556   3.514   0.144 -1.5333 -0.7967 -0.3096
 5237SOL     OW16609   1.628   2.533   1.174  0.3077 -1.0050  0.0638
 5237SOL    HW116610   1.669   2.623   1.186 -1.0110 -0.4483  0.5810
 5237SOL    HW216611   1.692   2.473   1.125  1.0567  0.3080 -0.6083
 5238SOL     OW16612   2.093   2.792   2.903 -0.0737 -0.3458  0.4553
 5238SOL    HW116613   2.182   2.753   2.880 -0.8263 -1.2902 -0.9890
 5238SOL    HW216614   2.035   2.721   2.942 -0.2025  0.2752  1.4302
 5239SOL     OW16615   0.964   3.254   4.674 -0.5207  0.2099 -0.0495
 5239SOL    HW116616   1.053   3.214   4.655 -0.0050  1.6268 -0.7372
 5239SOL    HW216617   0.944   3.247   4.772  0.4461  0.0927  0.1438
 5240SOL     OW16618   4.118   2.093   2.142 -0.1764  0.1818 -0.1967
 5240SOL    HW116619   4.160   2.029   2.078  0.3977  0.8163 -0.4622
 5240SOL    HW216620   4.183   2.164   2.165 -0.0406 -0.5456  1.8407
 5241SOL     OW16621   5.466   0.702   0.126  0.0121  0.3857  0.0704
 5241SOL    HW116622   5.448   0.780   0.184  0.2532  0.6774 -0.2383
 5241SOL    HW216623   5.394   0.634   0.137  0.2560  0.2660  0.9945
 5242SOL     OW16624   3.559   5.624   0.590  0.4118 -0.0776  0.0504
 5242SOL    HW116625   3.589   5.673   0.672 -1.7258  0.1049  0.7995
 5242SOL    HW216626   3.459   5.617   0.590  0.4591 -1.7250 -1.6180
 5243SOL     OW16627   2.572   2.452   6.791  0.4934 -0.0958  0.2273
 5243SOL    HW116628   2.545   2.439   6.886 -0.1570 -0.3799  0.0075
 5243SOL    HW216629   2.515   2.522   6.749  0.7194 -0.0331  0.0213
 5244SOL     OW16630   5.028   5.033   0.101 -0.1488 -0.0987 -0.0820
 5244SOL    HW116631   4.987   4.980   0.027  0.0036 -0.8965  0.3924
 5244SOL    HW216632   4.976   5.017   0.186  0.2393  0.0619  0.1897
 5245SOL     OW16633   4.014   4.761   5.969  0.5387 -0.2520  0.7082
 5245SOL    HW116634   4.042   4.831   5.904  1.6046  0.5500  1.9887
 5245SOL    HW216635   3.924   4.783   6.005  0.4670 -0.0483  0.4085
 5246SOL     OW16636   2.249   2.995   3.270  0.2910 -0.1415  0.3786
 5246SOL    HW116637   2.218   2.983   3.364  0.9980 -0.2019  0.6042
 5246SOL    HW216638   2.278   2.906   3.233  2.1028  0.2268  0.8440
 5247SOL     OW16639   0.912   4.289   3.961 -0.0856  0.1434 -0.0588
 5247SOL    HW116640   0.884   4.347   3.885 -0.9406  0.2866  0.3479
 5247SOL    HW216641   0.950   4.204   3.927  0.3392  0.5651 -0.6515
 5248SOL     OW16642   4.167   2.570   1.640 -0.6508 -0.1586 -0.0662
 5248SOL    HW116643   4.116   2.589   1.556  0.5659  2.1738 -0.3772
 5248SOL    HW216644   4.242   2.508   1.620 -2.1759 -2.1245  0.0142
 5249SOL     OW16645   6.899   5.865   0.287 -0.1541  0.2442  0.1638
 5249SOL    HW116646   6.896   5.964   0.303 -0.3351  0.3369 -0.4001
 5249SOL    HW216647   6.958   5.847   0.208  0.9217 -0.2077  1.0344
 5250SOL     OW16648   0.784   2.127   4.840  0.0421  0.0518  0.4280
 5250SOL    HW116649   0.754   2.077   4.921 -2.1806 -1.2788 -1.1067
 5250SOL    HW216650   0.760   2.224   4.850  0.6165  0.0716  1.7075
 5251SOL     OW16651   2.787   3.138   0.717 -0.3941 -0.2260  0.2634
 5251SOL    HW116652   2.692   3.106   0.721 -0.2750 -0.5988  0.1637
 5251SOL    HW216653   2.835   3.110   0.800  0.1881 -1.8783 -0.5702
 5252SOL     OW16654   5.757   0.399   0.840 -0.0884 -0.2315  0.0729
 5252SOL    HW116655   5.718   0.391   0.932 -0.7019 -0.3128 -0.1846
 5252SOL    HW216656   5.855   0.384   0.844 -0.0306  0.2870  0.7918
 5253SOL     OW16657   4.873   3.906   3.631  0.1389 -0.0310 -0.8422
 5253SOL    HW116658   4.849   3.975   3.700  0.9825 -0.3088 -0.2471
 5253SOL    HW216659   4.872   3.816   3.673  1.1905 -0.1491 -1.0475
 5254SOL     OW16660   4.441   0.698   5.924 -0.0127 -0.2223  0.1828
 5254SOL    HW116661   4.366   0.706   5.990 -0.2044  0.0643 -0.0622
 5254SOL    HW216662   4.517   0.649   5.965 -0.1285 -0.0420  0.6193
 5255SOL     OW16663   3.066   5.992   0.488  0.1958 -0.1660 -0.3660
 5255SOL    HW116664   3.023   5.903   0.506  0.1681  0.1542  1.3678
 5255SOL    HW216665   2.996   6.060   0.469  0.1049 -0.1973 -0.1500
 5256SOL     OW16666   3.751   6.812   2.220  0.1685  0.4174 -0.3850
 5256SOL    HW116667   3.701   6.830   2.305 -1.5630 -1.6198 -0.8871
 5256SOL    HW216668   3.812   6.734   2.234 -0.9130 -0.6062 -1.2716
 5257SOL     OW16669   2.474   1.520   3.478  0.0199 -0.2798  0.3213
 5257SOL    HW116670   2.389   1.559   3.512  0.0879 -1.4279  1.8777
 5257SOL    HW216671   2.459   1.426   3.449  0.0546  0.5020 -2.6100
 5258SOL     OW16672   6.078   1.300   3.137 -0.7114 -0.2819  0.1422
 5258SOL    HW116673   6.011   1.315   3.210 -0.8848  2.6092 -0.4851
 5258SOL    HW216674   6.032   1.260   3.058 -1.3413  0.0676  0.3204
 5259SOL     OW16675   5.395   6.435   1.589  0.1540  0.3710  0.1165
 5259SOL    HW116676   5.372   6.381   1.670  0.5040  0.7883  0.4987
 5259SOL    HW216677   5.448   6.379   1.526  0.3717  0.2145  0.4346
 5260SOL     OW16678   3.209   2.361   1.671 -0.4508 -0.3143  0.5144
 5260SOL    HW116679   3.166   2.290   1.615 -0.2115  0.4739 -0.7045
 5260SOL    HW216680   3.140   2.427   1.699 -0.5145 -0.5424  0.9038
 5261SOL     OW16681   2.286   2.851   5.302  0.1430  0.0182  0.2784
 5261SOL    HW116682   2.292   2.759   5.264 -2.9176 -0.1168 -0.1541
 5261SOL    HW216683   2.343   2.913   5.247  0.0317 -1.1229 -1.2098
 5262SOL     OW16684   1.830   0.999   4.119  0.2946 -0.4714  0.2067
 5262SOL    HW116685   1.769   0.928   4.154  2.1411 -1.8065  0.8802
 5262SOL    HW216686   1.861   0.974   4.027 -0.4109  0.3696 -0.2719
 5263SOL     OW16687   2.623   4.557   5.210  0.3312  0.4308  0.4292
 5263SOL    HW116688   2.637   4.488   5.281  1.1049  0.9896  0.8361
 5263SOL    HW216689   2.710   4.579   5.168 -0.1104  0.1567 -0.6702
 5264SOL     OW16690   1.875   0.858   0.014  0.6225  0.1034 -0.2707
 5264SOL    HW116691   1.855   0.947  -0.028 -0.7933  0.5421  1.2367
 5264SOL    HW216692   1.931   0.872   0.096  0.3721 -0.3854 -0.0141
 5265SOL     OW16693   5.602   4.436   3.974  0.1319 -0.4738 -0.5694
 5265SOL    HW116694   5.583   4.520   3.923  0.9861 -0.6923 -1.2684
 5265SOL    HW216695   5.598   4.358   3.912  1.4081 -0.7164 -0.3696
 5266SOL     OW16696   1.006   1.098   0.683  0.0469 -0.1621  0.0162
 5266SOL    HW116697   1.036   1.072   0.775 -0.1719  2.1270  0.7985
 5266SOL    HW216698   0.910   1.072   0.671  0.7263 -2.7005 -0.5442
 5267SOL     OW16699   3.004   3.164   3.044 -0.1593 -0.0351  0.2903
 5267SOL    HW116700   2.960   3.121   2.965 -0.1008 -0.8431  0.6897
 5267SOL    HW216701   2.960   3.251   3.063 -1.2776 -0.6085  0.3905
 5268SOL     OW16702   5.440   4.477   6.131  0.7128 -0.1957  0.2598
 5268SOL    HW116703   5.409   4.463   6.225  0.6059 -1.1439  0.0959
 5268SOL    HW216704   5.361   4.495   6.072  0.3459 -2.9029 -0.2101
 5269SOL     OW16705   0.289   6.955   6.367 -0.4653  0.5159 -0.1474
 5269SOL    HW116706   0.251   6.871   6.329 -0.4342  1.4228 -2.3452
 5269SOL    HW216707   0.385   6.940   6.390 -0.6970 -0.2867  0.3527
 5270SOL     OW16708   6.334   1.887   3.209 -0.4679 -0.1058 -0.5382
 5270SOL    HW116709   6.371   1.798   3.236 -0.5763 -0.1425 -0.5109
 5270SOL    HW216710   6.407   1.955   3.212 -0.7599  0.1678  1.1464
 5271SOL     OW16711   4.438   2.426   4.813  0.4665 -0.4553  0.1910
 5271SOL    HW116712   4.379   2.496   4.852 -0.9972 -1.8121  0.5336
 5271SOL    HW216713   4.455   2.355   4.883  2.0990 -0.3548 -0.0633
 5272SOL     OW16714   1.393   0.702   3.411  0.1664  0.4353  0.1664
 5272SOL    HW116715   1.485   0.741   3.411  0.7595 -0.9301 -0.0785
 5272SOL    HW216716   1.328   0.773   3.382  0.8885  1.8995  1.9162
 5273SOL     OW16717   1.638   0.812   3.498  0.0325 -0.8117 -0.1065
 5273SOL    HW116718   1.643   0.853   3.589  0.1539 -0.0937 -0.4262
 5273SOL    HW216719   1.700   0.861   3.436  0.6703 -1.8995 -0.3535
 5274SOL     OW16720   1.792   3.685   3.681 -0.0213  1.0644  0.7813
 5274SOL    HW116721   1.737   3.751   3.631  2.0834  2.8821  0.7101
 5274SOL    HW216722   1.819   3.611   3.618  1.0496  2.3523 -0.3415
 5275SOL     OW16723   1.269   5.819   0.482  0.4369 -0.4417  0.0824
 5275SOL    HW116724   1.197   5.821   0.551  1.1714 -1.8253  0.9327
 5275SOL    HW216725   1.268   5.732   0.434  0.9409 -0.1052 -0.5632
 5276SOL     OW16726   6.406   0.860   5.488 -0.0678 -0.2479  0.6058
 5276SOL    HW116727   6.419   0.956   5.464 -0.6257 -0.5134 -0.8681
 5276SOL    HW216728   6.342   0.818   5.424 -0.5167 -1.3991  1.7572
 5277SOL     OW16729   1.934   0.276   1.427  0.0302 -0.0077  0.8089
 5277SOL    HW116730   1.879   0.357   1.444  1.7956  1.2646  0.7776
 5277SOL    HW216731   2.012   0.274   1.490  0.2879 -1.4351  0.4890
 5278SOL     OW16732   5.896   6.705   6.225 -0.2386 -0.1980 -0.0256
 5278SOL    HW116733   5.830   6.631   6.209 -0.6820 -0.1240  1.3594
 5278SOL    HW216734   5.987   6.665   6.241 -0.8330 -0.6239  2.6880
 5279SOL     OW16735   1.665   6.373   0.515  0.3199  0.1236  0.2755
 5279SOL    HW116736   1.592   6.374   0.583 -0.8566 -0.6778 -0.9357
 5279SOL    HW216737   1.673   6.462   0.472 -0.4407  0.0196 -0.0902
 5280SOL     OW16738   4.580   0.197   5.226  0.3604 -0.5232  0.2207
 5280SOL    HW116739   4.644   0.127   5.193 -0.1283  0.1590 -2.3930
 5280SOL    HW216740   4.601   0.284   5.183  0.1866  0.7297  2.4949
 5281SOL     OW16741   1.853   4.691   4.774 -0.3321  0.2664  0.6168
 5281SOL    HW116742   1.852   4.728   4.867 -0.3691 -0.1300  0.7753
 5281SOL    HW216743   1.929   4.732   4.723  0.3811 -0.3392  1.1649
 5282SOL     OW16744   5.940   0.417   1.308 -0.0067  0.1802  0.5543
 5282SOL    HW116745   5.984   0.506   1.319 -0.2074  0.3944 -0.2814
 5282SOL    HW216746   5.998   0.358   1.251 -0.1119 -0.0468  0.6820
 5283SOL     OW16747   1.404   1.354   5.215  0.2013  0.1379 -0.3312
 5283SOL    HW116748   1.354   1.321   5.295  0.0479  2.9128  0.8594
 5283SOL    HW216749   1.500   1.368   5.240  0.1522  1.0237 -0.5818
 5284SOL     OW16750   5.414   4.528   1.397 -0.6869  0.4451 -0.7049
 5284SOL    HW116751   5.475   4.558   1.470  0.7137  0.0546 -1.6727
 5284SOL    HW216752   5.392   4.432   1.409  1.8589 -0.4247 -2.2662
 5285SOL     OW16753   3.260   2.085   3.713 -0.3521 -0.4790  0.0991
 5285SOL    HW116754   3.258   1.985   3.711  1.7963 -0.5643 -1.4539
 5285SOL    HW216755   3.326   2.115   3.783 -1.8739 -0.0616  1.4178
 5286SOL     OW16756   1.294   0.863   1.999  0.2199 -0.0020  0.3015
 5286SOL    HW116757   1.368   0.797   1.988 -0.9888 -1.4453  0.6086
 5286SOL    HW216758   1.278   0.881   2.096  1.7766  2.2510  0.2301
 5287SOL     OW16759   6.642   6.612   2.271 -0.3742  0.5116  0.2832
 5287SOL    HW116760   6.659   6.706   2.241 -1.9664  1.0684  0.9966
 5287SOL    HW216761   6.614   6.557   2.192  1.1487  0.4631 -0.2460
 5288SOL     OW16762   3.413   2.257   0.849 -0.0530 -0.6399 -0.4201
 5288SOL    HW116763   3.328   2.242   0.899 -1.3892 -0.9236 -2.6360
 5288SOL    HW216764   3.392   2.275   0.753  2.3958 -0.4066 -0.9677
 5289SOL     OW16765   1.033   6.874   0.277  0.2806  0.1050  0.1620
 5289SOL    HW116766   1.015   6.914   0.367  1.1933  1.5452 -0.2575
 5289SOL    HW216767   1.023   6.944   0.207 -0.0383 -0.9078 -0.8377
 5290SOL     OW16768   1.375   1.781   5.188 -0.0679 -0.2755 -0.3445
 5290SOL    HW116769   1.415   1.836   5.261 -1.0573 -0.8658  0.6638
 5290SOL    HW216770   1.449   1.733   5.140  0.6309  0.4157  0.0052
 5291SOL     OW16771   2.041   1.004   6.590 -0.5916 -0.2679  0.3535
 5291SOL    HW116772   2.077   0.938   6.525 -0.9957 -0.4345  0.2999
 5291SOL    HW216773   1.941   0.999   6.592 -0.7236  1.2674 -0.6517
 5292SOL     OW16774   0.298   2.168   5.686 -0.0104 -0.1937  0.4439
 5292SOL    HW116775   0.290   2.268   5.682 -4.4642 -0.3776  0.0068
 5292SOL    HW216776   0.312   2.132   5.594  1.2039 -0.0344  0.5525
 5293SOL     OW16777   3.394   0.126   3.252  0.2122  0.2192 -0.6660
 5293SOL    HW116778   3.353   0.166   3.170  2.0222  0.8146 -1.3503
 5293SOL    HW216779   3.416   0.199   3.317 -0.3540 -0.1485 -0.0528
 5294SOL     OW16780   3.947   5.287   4.431 -0.0063 -0.1546  0.5898
 5294SOL    HW116781   4.013   5.358   4.455 -0.7384  0.5217  0.6060
 5294SOL    HW216782   3.988   5.226   4.362  0.3866  0.6539  0.0988
 5295SOL     OW16783   2.696   7.005   0.592  0.3195  0.1059  0.6671
 5295SOL    HW116784   2.620   7.068   0.604  0.1208  0.4499 -1.8861
 5295SOL    HW216785   2.782   7.056   0.586  0.2218  0.1259 -0.8365
 5296SOL     OW16786   6.536   5.802   1.726 -0.4359  0.3136  0.6533
 5296SOL    HW116787   6.627   5.772   1.754  0.5948  1.6282 -1.0156
 5296SOL    HW216788   6.529   5.797   1.626 -3.0567 -1.9358  0.8404
 5297SOL     OW16789   4.084   5.353   5.293 -0.5830  0.1367 -0.2504
 5297SOL    HW116790   4.118   5.316   5.206 -2.0895  0.2350 -0.9222
 5297SOL    HW216791   3.984   5.358   5.290 -0.7161 -0.4432  1.7481
 5298SOL     OW16792   0.294   0.638   6.474 -0.2696  0.0929  0.0675
 5298SOL    HW116793   0.212   0.622   6.419  0.3523 -1.1240 -0.5302
 5298SOL    HW216794   0.360   0.692   6.421 -0.4927  0.6839  0.3836
 5299SOL     OW16795   2.905   0.002   7.003 -0.2235  0.2035  0.1193
 5299SOL    HW116796   2.843   0.005   6.924 -0.5643  2.3069  0.4234
 5299SOL    HW216797   2.999  -0.014   6.970 -0.5228 -0.1568 -0.5948
 5300SOL     OW16798   4.361   4.418   0.077  0.1275 -0.0869  0.3826
 5300SOL    HW116799   4.414   4.334   0.083 -0.5017 -0.4351  1.3115
 5300SOL    HW216800   4.329   4.444   0.169 -0.0402  0.9336  0.0513
 5301SOL     OW16801   0.807   1.755   6.451 -0.2863  0.1346 -0.5528
 5301SOL    HW116802   0.715   1.744   6.489 -0.2625 -0.6151 -0.6798
 5301SOL    HW216803   0.804   1.733   6.353 -0.1874  1.2229 -0.8082
 5302SOL     OW16804   4.139   5.744   3.594  0.3580  0.3142  0.3109
 5302SOL    HW116805   4.092   5.733   3.682  0.4498 -2.7781  0.0706
 5302SOL    HW216806   4.072   5.758   3.522  0.0304 -0.6489  0.4228
 5303SOL     OW16807   1.217   5.727   3.589  0.1900 -0.3481  0.1854
 5303SOL    HW116808   1.146   5.669   3.549  0.0019  0.8898 -1.3633
 5303SOL    HW216809   1.204   5.732   3.688 -0.0178 -2.5865  0.3296
 5304SOL     OW16810   0.754   0.142   4.203 -0.2295  0.5348  0.1358
 5304SOL    HW116811   0.839   0.118   4.155 -1.6177 -1.4072 -1.5306
 5304SOL    HW216812   0.728   0.235   4.179  0.5888  0.5847 -0.6339
 5305SOL     OW16813   0.477   5.212   5.008  0.5505 -0.4235 -0.2855
 5305SOL    HW116814   0.393   5.235   4.960  0.7969  1.2564  0.0496
 5305SOL    HW216815   0.536   5.157   4.948 -0.9129 -1.9841 -0.3791
 5306SOL     OW16816   6.759   2.728   6.989  0.3380 -0.1364 -0.1248
 5306SOL    HW116817   6.688   2.660   7.003 -0.3526  0.4579 -0.6918
 5306SOL    HW216818   6.810   2.706   6.905  2.1776 -1.6964  1.2822
 5307SOL     OW16819   1.480   6.466   0.716  0.2844 -0.0058 -0.1197
 5307SOL    HW116820   1.421   6.492   0.792  2.1939  1.9612  0.7996
 5307SOL    HW216821   1.477   6.536   0.645  1.1544 -0.0757 -0.2471
 5308SOL     OW16822   2.327   6.246   3.910 -0.0898 -0.3464  0.3161
 5308SOL    HW116823   2.418   6.261   3.949  0.6091 -0.8986 -1.0475
 5308SOL    HW216824   2.323   6.156   3.867 -1.4475 -0.5255  0.7695
 5309SOL     OW16825   4.874   5.992   3.260 -0.1051  0.1847 -0.2029
 5309SOL    HW116826   4.910   5.942   3.181 -2.4451 -0.5306 -0.9062
 5309SOL    HW216827   4.819   6.069   3.229 -2.1657 -0.8783  0.6031
 5310SOL     OW16828   6.089   0.459   4.371 -0.7529  0.6388  0.4794
 5310SOL    HW116829   6.068   0.369   4.409  1.1137  0.2808  0.7875
 5310SOL    HW216830   6.089   0.454   4.271 -0.6328  0.2774  0.4947
 5311SOL     OW16831   6.692   2.103   1.923 -0.2070 -0.1315  0.1127
 5311SOL    HW116832   6.622   2.156   1.875  0.5527 -0.6271 -1.6119
 5311SOL    HW216833   6.661   2.008   1.933  0.4391 -0.5135 -1.2452
 5312SOL     OW16834   5.854   5.941   1.036 -0.2026  0.0340  0.0422
 5312SOL    HW116835   5.842   5.995   1.120  1.5016  1.9488 -0.8684
 5312SOL    HW216836   5.813   5.989   0.959  1.7247  0.3048 -0.8711
 5313SOL     OW16837   1.492   0.434   4.957 -0.2664  0.1407 -0.5997
 5313SOL    HW116838   1.542   0.388   4.884 -2.3455 -0.8418 -1.5046
 5313SOL    HW216839   1.497   0.379   5.040 -0.3699 -0.2947 -0.8763
 5314SOL     OW16840   5.989   2.720   6.778  0.1538 -0.4210  0.0754
 5314SOL    HW116841   6.074   2.692   6.822  1.5517  4.6854  1.3706
 5314SOL    HW216842   5.921   2.744   6.847 -0.6165  0.0044 -0.7984
 5315SOL     OW16843   4.383   0.555   1.126  0.4935 -0.2352 -0.7199
 5315SOL    HW116844   4.379   0.515   1.217  1.4066 -0.7049 -0.8707
 5315SOL    HW216845   4.314   0.512   1.067 -1.0880  1.0800  0.1036
 5316SOL     OW16846   1.585   2.122   6.372  0.4900  0.9623 -0.4460
 5316SOL    HW116847   1.492   2.155   6.390  1.2443  2.9000  0.1583
 5316SOL    HW216848   1.600   2.119   6.273 -0.2792  0.4015 -0.5595
 5317SOL     OW16849   4.657   3.765   1.504  0.5533  0.2546  0.0257
 5317SOL    HW116850   4.586   3.825   1.467  0.1683 -0.9929 -1.3538
 5317SOL    HW216851   4.708   3.814   1.574  1.1646  2.6792 -1.9622
 5318SOL     OW16852   1.073   5.291   5.314 -0.1911 -0.4074 -0.0908
 5318SOL    HW116853   1.103   5.361   5.249 -0.3563 -0.0165  0.2516
 5318SOL    HW216854   1.013   5.332   5.382 -0.5445 -0.9489 -0.0709
 5319SOL     OW16855   2.923   5.686   3.960 -0.1666  0.2329 -0.2521
 5319SOL    HW116856   3.010   5.726   3.932  0.5949 -0.2265  1.3265
 5319SOL    HW216857   2.929   5.586   3.959  0.0133  0.1812  1.7260
 5320SOL     OW16858   6.038   6.095   6.313  0.4560  0.0420  0.2053
 5320SOL    HW116859   5.958   6.141   6.274  0.2155 -2.1065 -2.0806
 5320SOL    HW216860   6.118   6.115   6.257  0.4617 -1.7010 -0.4766
 5321SOL     OW16861   2.196   3.575   6.231  0.2257 -0.5293 -0.2163
 5321SOL    HW116862   2.201   3.536   6.323 -0.4371 -0.7485 -0.2703
 5321SOL    HW216863   2.274   3.544   6.177 -0.6436 -2.3864 -0.4800
 5322SOL     OW16864   4.137   6.994   2.683  0.2306 -0.1252 -0.6270
 5322SOL    HW116865   4.061   6.929   2.680  0.4766 -0.3634 -2.4553
 5322SOL    HW216866   4.102   7.088   2.678  0.0579 -0.2450 -1.8429
 5323SOL     OW16867   4.866   5.996   6.474 -0.6675  0.3671  0.4701
 5323SOL    HW116868   4.957   6.034   6.491 -1.4764  1.7026  2.0129
 5323SOL    HW216869   4.875   5.913   6.418  1.6842 -0.7377  2.3015
 5324SOL     OW16870   0.848   0.990   3.405  0.2381 -0.1439  0.1827
 5324SOL    HW116871   0.871   0.899   3.371 -0.8908 -0.2534 -0.3102
 5324SOL    HW216872   0.804   0.981   3.495 -0.2126 -0.1118 -0.0345
 5325SOL     OW16873   2.501   2.556   2.588  0.5454  0.5617  0.6272
 5325SOL    HW116874   2.414   2.579   2.545 -0.1106  0.2327  1.7533
 5325SOL    HW216875   2.563   2.519   2.519 -0.1128  1.0145 -0.2300
 5326SOL     OW16876   0.767   1.738   2.453 -0.3277 -0.2310  0.3301
 5326SOL    HW116877   0.723   1.687   2.526  0.0606  0.5433  1.1259
 5326SOL    HW216878   0.860   1.704   2.439 -0.0637  0.2622  0.8707
 5327SOL     OW16879   0.911   1.272   5.704  0.2501 -0.0814  0.3458
 5327SOL    HW116880   0.972   1.320   5.766  0.7143 -0.4634  0.1870
 5327SOL    HW216881   0.823   1.257   5.749  0.4410  0.0227  0.7559
 5328SOL     OW16882   4.872   4.734   6.146 -0.1912 -0.5221  0.4022
 5328SOL    HW116883   4.901   4.822   6.183 -1.4042 -0.5458  1.4909
 5328SOL    HW216884   4.909   4.661   6.203  0.1283 -0.6890 -0.0139
 5329SOL     OW16885   3.351   5.929   6.047 -0.4225  0.3465 -0.1746
 5329SOL    HW116886   3.450   5.945   6.050 -0.2851  0.0330 -1.7075
 5329SOL    HW216887   3.303   6.015   6.032 -0.2440  0.3287 -0.9303
 5330SOL     OW16888   1.512   5.857   0.801  0.5332  0.6306 -0.0084
 5330SOL    HW116889   1.510   5.928   0.872 -0.9299 -0.3552  0.9953
 5330SOL    HW216890   1.445   5.786   0.823  2.6285 -1.6118 -0.4332
 5331SOL     OW16891   4.898   2.097   0.436  0.0519 -0.0894  0.2900
 5331SOL    HW116892   4.866   2.106   0.342  0.6955 -0.7078  0.0024
 5331SOL    HW216893   4.862   2.013   0.476 -0.9631  0.6294  0.9086
 5332SOL     OW16894   1.469   3.468   2.013 -0.0811  0.1353 -0.1453
 5332SOL    HW116895   1.395   3.431   1.957 -0.5352 -0.5181  0.8615
 5332SOL    HW216896   1.532   3.395   2.038 -1.0293 -0.0482  1.9274
 5333SOL     OW16897   6.771   5.812   5.741 -0.0519  0.0381  0.7732
 5333SOL    HW116898   6.863   5.829   5.705 -0.0815 -1.0205  0.1401
 5333SOL    HW216899   6.753   5.713   5.740 -0.5169  0.0687  2.6181
 5334SOL     OW16900   2.793   0.363   5.724  0.5080 -0.2369 -0.0619
 5334SOL    HW116901   2.798   0.446   5.670  1.8091  0.8073  1.5386
 5334SOL    HW216902   2.853   0.372   5.804 -0.6773 -2.0118  1.1100
 5335SOL     OW16903   5.806   6.447   1.111 -0.1244  0.4675  0.0722
 5335SOL    HW116904   5.880   6.388   1.079 -0.2629  1.0552 -1.4492
 5335SOL    HW216905   5.842   6.516   1.173  0.6958  0.9901 -0.9599
 5336SOL     OW16906   0.854   4.224   2.941  0.1618 -0.1971  0.0066
 5336SOL    HW116907   0.816   4.158   3.006  0.3223  1.0457  1.4219
 5336SOL    HW216908   0.815   4.208   2.851 -1.3306 -0.9408  0.7495
 5337SOL     OW16909   5.152   6.101   2.391 -0.3264 -0.5747 -0.4229
 5337SOL    HW116910   5.194   6.055   2.313 -0.9749  0.9647 -1.7500
 5337SOL    HW216911   5.186   6.060   2.476  1.9702 -1.0001 -1.4462
 5338SOL     OW16912   5.735   3.873   6.526  0.8844 -0.2901 -0.6003
 5338SOL    HW116913   5.672   3.934   6.479 -1.4225 -1.3289  0.9593
 5338SOL    HW216914   5.757   3.796   6.467  0.3843 -0.1098 -1.0347
 5339SOL     OW16915   0.319   2.182   2.099  0.3915 -0.4099  0.1580
 5339SOL    HW116916   0.267   2.188   2.014 -0.7322 -1.7239  0.6998
 5339SOL    HW216917   0.300   2.094   2.143 -1.1132  1.2313  3.0617
 5340SOL     OW16918   4.850   2.521   2.597 -0.0815 -0.0410 -0.3273
 5340SOL    HW116919   4.818   2.429   2.575 -0.8992 -0.3235  1.8319
 5340SOL    HW216920   4.865   2.529   2.695  3.1671  1.1836 -0.7998
 5341SOL     OW16921   3.789   1.118   2.036  0.1774  0.5514 -0.0363
 5341SOL    HW116922   3.740   1.035   2.064 -0.2809  0.4172 -1.2007
 5341SOL    HW216923   3.819   1.168   2.118 -2.3193  0.8984  0.7498
 5342SOL     OW16924   6.868   6.702   5.867 -0.1231  0.4849  0.3805
 5342SOL    HW116925   6.904   6.667   5.954  0.0246  1.9823  0.9433
 5342SOL    HW216926   6.793   6.765   5.884 -0.2228  0.6539 -0.5939
 5343SOL     OW16927   4.217   5.201   1.411 -0.4126  0.4721  0.2010
 5343SOL    HW116928   4.271   5.117   1.401 -0.6300  0.2819  0.6201
 5343SOL    HW216929   4.121   5.177   1.427 -0.5827  0.8067 -0.2810
 5344SOL     OW16930   1.383   3.865   3.396 -0.1387 -0.2513 -0.2529
 5344SOL    HW116931   1.325   3.946   3.399 -1.4072 -1.1473  0.3387
 5344SOL    HW216932   1.406   3.843   3.301 -0.3712  0.3919 -0.4594
 5345SOL     OW16933   4.850   6.410   2.414 -0.3720  0.8772 -0.3283
 5345SOL    HW116934   4.830   6.506   2.432 -0.9586  0.5954  0.5942
 5345SOL    HW216935   4.919   6.403   2.342 -1.6462  1.9648 -1.7525
 5346SOL     OW16936   4.551   2.544   3.579 -0.3223  0.0598 -0.5485
 5346SOL    HW116937   4.627   2.479   3.589 -0.5596 -0.0892  0.4430
 5346SOL    HW216938   4.565   2.621   3.641 -0.4534  0.5624 -1.1352
 5347SOL     OW16939   5.696   0.835   1.830  0.0851  0.3572  0.8787
 5347SOL    HW116940   5.622   0.876   1.777  0.3609 -0.1692  0.0687
 5347SOL    HW216941   5.718   0.894   1.909 -1.0863  0.5858  1.0485
 5348SOL     OW16942   5.853   2.315   6.780  0.2794  0.4427 -0.5063
 5348SOL    HW116943   5.802   2.389   6.737 -0.2588 -0.1424 -0.8941
 5348SOL    HW216944   5.818   2.227   6.748  2.3968 -0.0070 -1.8130
 5349SOL     OW16945   5.240   0.568   1.158 -0.0211 -0.3788  0.1421
 5349SOL    HW116946   5.269   0.529   1.070 -0.8745 -4.1565  1.3417
 5349SOL    HW216947   5.312   0.556   1.226 -0.9086 -1.4769  0.9318
 5350SOL     OW16948   2.146   0.892   0.684  0.7748 -0.6576 -0.1295
 5350SOL    HW116949   2.054   0.882   0.646  0.4879  1.6090 -0.2104
 5350SOL    HW216950   2.207   0.925   0.612  1.0706  0.1629  0.4926
 5351SOL     OW16951   3.857   0.901   1.315 -0.1786 -0.2367 -0.1363
 5351SOL    HW116952   3.806   0.817   1.294  1.1617 -0.8765 -0.9656
 5351SOL    HW216953   3.793   0.974   1.336 -1.4231 -1.1574 -0.5939
 5352SOL     OW16954   3.256   2.140   3.415  0.3137 -0.6623  0.0857
 5352SOL    HW116955   3.286   2.059   3.466  1.6075  0.5872  1.3880
 5352SOL    HW216956   3.322   2.214   3.426 -0.3918  0.3349 -1.7958
 5353SOL     OW16957   4.673   0.580   5.354  0.3471  0.2981  0.9236
 5353SOL    HW116958   4.766   0.605   5.380  0.6003 -0.2821  0.5898
 5353SOL    HW216959   4.673   0.546   5.260 -0.1735  0.1441  0.9764
 5354SOL     OW16960   0.914   1.453   1.938 -0.0423  0.5213  0.0646
 5354SOL    HW116961   0.839   1.446   1.872  0.3914  1.4641 -0.5579
 5354SOL    HW216962   0.886   1.512   2.014 -0.7627 -1.0623  1.0734
 5355SOL     OW16963   4.044   0.200   3.204 -0.2743  0.1160 -0.4682
 5355SOL    HW116964   4.086   0.166   3.288  0.2091  0.3695 -0.6024
 5355SOL    HW216965   3.949   0.171   3.200 -0.1705 -0.2909 -0.0567
 5356SOL     OW16966   1.109   3.292   0.968  0.0476  1.0231 -0.0694
 5356SOL    HW116967   1.153   3.333   0.888  2.1797  0.1124  0.5610
 5356SOL    HW216968   1.053   3.360   1.014  0.2486  2.0666 -1.3123
 5357SOL     OW16969   5.387   4.426   6.398  0.9156 -0.1858  0.3879
 5357SOL    HW116970   5.403   4.336   6.438 -0.1939  0.4518  2.3683
 5357SOL    HW216971   5.447   4.493   6.441  0.7071  0.2818 -0.0393
 5358SOL     OW16972   0.442   4.148   1.488  0.3251  0.0824  0.3628
 5358SOL    HW116973   0.392   4.081   1.543  1.1693 -1.6096 -0.8309
 5358SOL    HW216974   0.423   4.240   1.522 -0.9643 -0.7324  1.9983
 5359SOL     OW16975   3.845   0.235   3.986  0.3129  0.1814 -0.1077
 5359SOL    HW116976   3.897   0.200   4.064  1.3575  0.2147 -0.7643
 5359SOL    HW216977   3.875   0.188   3.902 -0.6798  0.2515 -0.5138
 5360SOL     OW16978   6.938   3.591   5.992 -0.2189 -0.0275 -0.3495
 5360SOL    HW116979   6.914   3.592   6.089  1.0677 -0.3474 -0.0170
 5360SOL    HW216980   7.010   3.524   5.976  1.7642  2.1135 -0.9782
 5361SOL     OW16981   0.736   1.149   0.034 -0.4869 -0.0579 -1.3072
 5361SOL    HW116982   0.817   1.149  -0.025  0.2973 -0.6725 -0.2696
 5361SOL    HW216983   0.728   1.060   0.079 -2.0127 -0.1665 -1.7234
 5362SOL     OW16984   6.262   5.515   5.118 -0.0599 -0.1034  0.3729
 5362SOL    HW116985   6.248   5.558   5.207 -0.2907 -0.1089  0.3403
 5362SOL    HW216986   6.281   5.586   5.050  1.9096 -0.2097  0.7476
 5363SOL     OW16987   1.405   5.864   4.471  0.1420  0.3910  0.2307
 5363SOL    HW116988   1.313   5.900   4.459 -0.0475 -0.7601 -2.5454
 5363SOL    HW216989   1.464   5.897   4.397  2.1808  1.5459  2.2363
 5364SOL     OW16990   0.476   5.573   6.802 -1.1571 -0.0437 -0.6424
 5364SOL    HW116991   0.456   5.651   6.862 -2.1743  0.9077 -2.1607
 5364SOL    HW216992   0.530   5.604   6.724 -0.1841 -1.1953 -0.4583
 5365SOL     OW16993   4.979   3.445   5.863  0.0207  0.0974 -0.2844
 5365SOL    HW116994   4.997   3.370   5.926  0.8125  0.3916 -0.1435
 5365SOL    HW216995   4.889   3.484   5.882 -0.0455 -0.2769  0.1867
 5366SOL     OW16996   3.595   4.105   4.251  0.5400  0.0786 -0.4611
 5366SOL    HW116997   3.599   4.126   4.153  2.2174  3.0134  0.1217
 5366SOL    HW216998   3.687   4.089   4.286 -0.0230 -0.7693  0.7048
 5367SOL     OW16999   6.982   3.751   1.010  0.2826  0.0905 -0.2752
 5367SOL    HW117000   7.011   3.664   0.971  2.0634  0.2192  0.6941
 5367SOL    HW217001   6.957   3.738   1.106  0.1160  0.5638 -0.2496
 5368SOL     OW17002   6.984   5.635   4.570  0.0636  0.2600 -0.2238
 5368SOL    HW117003   7.080   5.618   4.546  0.0200 -0.5503  0.1193
 5368SOL    HW217004   6.972   5.732   4.592  0.7083  0.4547 -0.6862
 5369SOL     OW17005   0.722   3.500   2.490 -0.4187 -0.2967 -0.5335
 5369SOL    HW117006   0.783   3.562   2.441 -2.1004  0.8496 -1.2459
 5369SOL    HW217007   0.675   3.440   2.425 -0.8199 -0.4748 -0.0871
 5370SOL     OW17008   3.693   0.820   1.708  0.1576  0.0791 -0.2417
 5370SOL    HW117009   3.790   0.834   1.687  0.2879 -0.2910  0.0987
 5370SOL    HW217010   3.674   0.849   1.801 -0.3221  1.2736 -0.6959
 5371SOL     OW17011   2.885   6.153   5.900 -0.3666  0.0064  0.3777
 5371SOL    HW117012   2.939   6.136   5.817 -0.4703  1.7480 -0.1025
 5371SOL    HW217013   2.787   6.150   5.877 -0.4736 -1.7944  0.9562
 5372SOL     OW17014   3.282   6.887   3.883  0.7551 -0.2064 -0.0392
 5372SOL    HW117015   3.249   6.980   3.892  0.7525 -0.4067  3.1325
 5372SOL    HW217016   3.206   6.826   3.860  0.1357  0.1718  0.9735
 5373SOL     OW17017   2.968   4.658   5.380  0.1315 -0.1683 -0.6050
 5373SOL    HW117018   3.066   4.669   5.398  0.1171 -0.9045 -0.0340
 5373SOL    HW217019   2.954   4.585   5.313  0.0154  0.5965 -1.4398
 5374SOL     OW17020   4.184   2.817   1.723  0.3168  0.2997 -0.2215
 5374SOL    HW117021   4.104   2.845   1.777 -0.0226  0.5952 -0.8687
 5374SOL    HW217022   4.181   2.718   1.708  0.5537  0.1702  0.5146
 5375SOL     OW17023   1.226   3.196   4.358  0.0997  0.4270  0.2240
 5375SOL    HW117024   1.231   3.115   4.300 -1.0520  0.7647 -0.3950
 5375SOL    HW217025   1.199   3.170   4.450  1.8640 -0.1104  0.6217
 5376SOL     OW17026   3.015   3.370   6.065 -0.2618 -0.4445  0.2541
 5376SOL    HW117027   3.086   3.347   5.999  0.7905 -2.1327  1.8602
 5376SOL    HW217028   3.049   3.441   6.127 -1.3522  1.3533 -1.0809
 5377SOL     OW17029   0.284   3.737   1.971  0.3326 -0.3947  0.1177
 5377SOL    HW117030   0.298   3.777   2.062 -0.3849  1.7310 -0.6555
 5377SOL    HW217031   0.367   3.689   1.944  1.6433  1.3617  0.7641
 5378SOL     OW17032   6.217   1.270   0.469  0.3942 -0.6348 -0.1709
 5378SOL    HW117033   6.232   1.291   0.565  0.6742  0.5849 -0.4627
 5378SOL    HW217034   6.304   1.274   0.420 -0.1905  3.1495 -1.2462
 5379SOL     OW17035   1.335   0.052   2.196 -0.0160 -0.3816  0.8182
 5379SOL    HW117036   1.366   0.073   2.289 -0.3727  0.7547  0.7014
 5379SOL    HW217037   1.253  -0.006   2.201 -0.3230  0.0799  1.2341
 5380SOL     OW17038   1.684   0.796   4.295  0.1169  0.7232 -0.0699
 5380SOL    HW117039   1.654   0.702   4.310  0.3084  0.7845  0.7933
 5380SOL    HW217040   1.710   0.837   4.383  0.9126  1.2855 -0.5483
 5381SOL     OW17041   6.237   5.771   2.061 -0.4788 -0.3032 -0.1617
 5381SOL    HW117042   6.290   5.698   2.104 -1.2305 -0.6617  0.1725
 5381SOL    HW217043   6.148   5.735   2.033 -0.4127  0.1930 -1.0585
 5382SOL     OW17044   2.722   6.593   0.643  0.2745  0.1468  0.3307
 5382SOL    HW117045   2.654   6.534   0.600 -0.7877 -0.4997  2.7227
 5382SOL    HW217046   2.679   6.645   0.717  2.2468  0.1356  1.5688
 5383SOL     OW17047   3.924   2.070   6.102 -0.4924  0.7591  0.0805
 5383SOL    HW117048   3.974   2.147   6.142  1.6557  0.8799 -2.5425
 5383SOL    HW217049   3.856   2.104   6.038 -0.1540  0.5045 -0.4194
 5384SOL     OW17050   5.198   5.677   4.147  0.3024 -0.0460  0.4626
 5384SOL    HW117051   5.280   5.630   4.181  1.7554  1.4571 -0.7839
 5384SOL    HW217052   5.187   5.659   4.049  0.4610  1.5093  0.1255
 5385SOL     OW17053   2.489   3.294   1.456  0.0578  0.2397  0.0995
 5385SOL    HW117054   2.393   3.296   1.427 -0.1713  1.0995  0.8551
 5385SOL    HW217055   2.494   3.320   1.553  0.9548 -0.8618  0.3671
 5386SOL     OW17056   0.551   0.007   6.639  0.0609  0.6156 -0.0763
 5386SOL    HW117057   0.591   0.098   6.631  1.7778  0.2094  2.7430
 5386SOL    HW217058   0.509  -0.004   6.728 -1.6217 -0.8478 -0.9897
 5387SOL     OW17059   4.396   4.365   5.375  0.2890 -0.3370 -0.5617
 5387SOL    HW117060   4.477   4.424   5.374  1.0859 -1.3852 -1.2801
 5387SOL    HW217061   4.331   4.395   5.305  0.4617 -0.0121 -0.5825
 5388SOL     OW17062   4.741   4.570   3.396 -0.0780  0.2951 -0.4709
 5388SOL    HW117063   4.725   4.645   3.332 -0.8224  1.0626  0.5863
 5388SOL    HW217064   4.742   4.484   3.347 -1.1364  0.8187 -1.4532
 5389SOL     OW17065   5.816   2.674   1.742 -0.1589 -0.2383  0.0784
 5389SOL    HW117066   5.718   2.653   1.733  0.2288 -2.3103  0.0995
 5389SOL    HW217067   5.829   2.743   1.812 -1.5646 -0.4677  0.5986
 5390SOL     OW17068   5.283   4.410   5.321  0.1165 -0.5493 -0.0069
 5390SOL    HW117069   5.268   4.452   5.410  1.6772  1.8323 -0.7803
 5390SOL    HW217070   5.194   4.393   5.277 -0.6246  0.1140  1.1767
 5391SOL     OW17071   4.104   3.791   0.144  0.2938  0.1012 -0.6626
 5391SOL    HW117072   4.063   3.882   0.153  0.3552  0.2560 -1.7766
 5391SOL    HW217073   4.187   3.798   0.088  0.0107 -0.7082 -1.1967
 5392SOL     OW17074   5.439   2.042   2.024  0.1049  0.1737  1.1117
 5392SOL    HW117075   5.386   1.977   2.080 -0.6884  0.9259  1.2641
 5392SOL    HW217076   5.377   2.091   1.963  0.7010  0.7136  0.9290
 5393SOL     OW17077   6.635   6.719   0.889  0.2122 -0.0054  0.2774
 5393SOL    HW117078   6.592   6.652   0.828  0.1943  0.0895  0.1867
 5393SOL    HW217079   6.732   6.696   0.899  0.0075 -0.5966  0.9910
 5394SOL     OW17080   1.892   3.208   5.233  0.3698  0.3842  0.2220
 5394SOL    HW117081   1.810   3.222   5.288 -0.0524 -2.6150  0.5022
 5394SOL    HW217082   1.871   3.148   5.156  1.7792  1.5820 -1.1707
 5395SOL     OW17083   4.637   6.703   0.969 -0.3171  0.4946  0.1434
 5395SOL    HW117084   4.608   6.791   1.006  0.1588  0.5808  0.3263
 5395SOL    HW217085   4.603   6.629   1.028 -0.9877  0.5353 -0.1896
 5396SOL     OW17086   3.610   2.258   1.247 -0.0775  0.0930 -0.0734
 5396SOL    HW117087   3.630   2.191   1.319  1.3143  0.8983  0.3356
 5396SOL    HW217088   3.678   2.249   1.174 -0.5224  0.3622 -0.5262
 5397SOL     OW17089   1.631   3.843   3.990 -0.4418  0.0691  0.2347
 5397SOL    HW117090   1.670   3.844   4.081 -2.1148  0.9968  0.9907
 5397SOL    HW217091   1.602   3.750   3.967 -0.7530 -0.0305  0.9998
 5398SOL     OW17092   4.026   3.475   2.695  0.0418  0.0048  0.1851
 5398SOL    HW117093   4.095   3.452   2.627 -0.9358  0.5475 -1.0095
 5398SOL    HW217094   3.982   3.562   2.671 -2.4389 -1.2724 -0.2055
 5399SOL     OW17095   0.919   6.067   2.374 -0.2563 -0.6621 -0.4298
 5399SOL    HW117096   0.938   6.018   2.459 -2.0629  1.0632  1.0630
 5399SOL    HW217097   0.856   6.013   2.317 -1.5182 -0.5285  0.7871
 5400SOL     OW17098   2.914   4.344   5.876 -0.8211 -0.9238  0.0229
 5400SOL    HW117099   2.875   4.363   5.966  0.4191  0.3704  0.3198
 5400SOL    HW217100   2.844   4.353   5.806 -1.0935  1.4222  0.5367
 5401SOL     OW17101   4.651   1.938   1.279 -0.2245 -0.1185 -0.5274
 5401SOL    HW117102   4.625   1.926   1.183  0.6443 -0.4301 -0.7324
 5401SOL    HW217103   4.719   1.868   1.304 -0.4441 -0.0413  0.3140
 5402SOL     OW17104   1.241   0.029   0.814 -0.1936 -0.2800 -0.6015
 5402SOL    HW117105   1.230  -0.070   0.800  0.0642 -0.7649  2.1439
 5402SOL    HW217106   1.169   0.062   0.874  0.5041  0.9431 -0.4151
 5403SOL     OW17107   0.817   0.799   6.016 -0.2434  0.2915 -0.1913
 5403SOL    HW117108   0.888   0.842   5.960 -0.3953 -2.4182 -2.7193
 5403SOL    HW217109   0.851   0.713   6.052 -0.9315  0.9445  2.1790
 5404SOL     OW17110   0.287   3.975   1.624  0.4861 -0.6732 -0.3439
 5404SOL    HW117111   0.359   3.922   1.668  0.2013 -1.4901 -0.8283
 5404SOL    HW217112   0.219   3.912   1.585  0.2188  0.0500 -1.0663
 5405SOL     OW17113   5.695   4.561   4.508  0.1971 -0.1507 -0.1653
 5405SOL    HW117114   5.609   4.511   4.498  0.8609 -0.9367 -2.8385
 5405SOL    HW217115   5.741   4.567   4.419  1.8848  2.1617  0.7382
 5406SOL     OW17116   0.022   0.476   3.323 -0.0941  0.5615 -0.5527
 5406SOL    HW117117   0.070   0.548   3.273  0.4717 -0.0387 -0.8834
 5406SOL    HW217118  -0.020   0.413   3.257 -2.8313  2.0054 -0.3269
 5407SOL     OW17119   4.302   1.729   6.439  0.2681  0.7158 -0.5196
 5407SOL    HW117120   4.382   1.682   6.478  0.1744 -0.0027 -1.1632
 5407SOL    HW217121   4.228   1.729   6.505  0.7218  1.1906  0.0028
 5408SOL     OW17122   5.061   3.258   1.023 -0.3356 -0.0625 -0.3280
 5408SOL    HW117123   4.968   3.232   1.052 -0.1882  0.0202  0.2364
 5408SOL    HW217124   5.057   3.340   0.966 -0.5107  0.6507  0.6909
 5409SOL     OW17125   3.798   1.447   3.549  0.0092 -0.1101  0.0415
 5409SOL    HW117126   3.860   1.448   3.627  1.4438 -1.9649 -0.9950
 5409SOL    HW217127   3.737   1.368   3.556 -0.2095  0.0114 -0.4504
 5410SOL     OW17128   1.649   1.689   2.662  0.4831  0.1709 -0.2688
 5410SOL    HW117129   1.579   1.669   2.592  1.4913 -1.1528 -0.9475
 5410SOL    HW217130   1.630   1.779   2.703 -3.7991 -1.5460  2.2372
 5411SOL     OW17131   2.829   0.255   5.459 -0.1247  0.5540  0.1496
 5411SOL    HW117132   2.744   0.257   5.408  0.1093 -0.6925 -0.3259
 5411SOL    HW217133   2.810   0.267   5.557 -0.8731  0.0421  0.0729
 5412SOL     OW17134   1.039   1.924   1.447  0.3810  0.4260 -0.1269
 5412SOL    HW117135   0.983   1.984   1.503  0.3329 -0.1974  0.4998
 5412SOL    HW217136   1.096   1.866   1.505  0.4739 -0.0948 -0.7219
 5413SOL     OW17137   1.324   5.905   3.061 -0.0873  0.0671 -0.2498
 5413SOL    HW117138   1.388   5.981   3.066  0.5027 -0.3627 -1.0317
 5413SOL    HW217139   1.291   5.894   2.967 -2.1949  0.9732  0.3210
 5414SOL     OW17140   4.412   0.785   6.801  0.5573 -0.0264 -0.2757
 5414SOL    HW117141   4.451   0.696   6.825  0.4069  0.3395  1.4540
 5414SOL    HW217142   4.429   0.850   6.875 -0.7439  0.9397 -0.7806
 5415SOL     OW17143   5.815   4.287   3.044 -0.1519  0.4029  0.2483
 5415SOL    HW117144   5.791   4.363   2.984 -1.0499  0.9630  1.2826
 5415SOL    HW217145   5.789   4.200   3.001 -1.7941  0.8597  0.2835
 5416SOL     OW17146   4.324   5.309   4.103  0.3902  0.5229 -0.0899
 5416SOL    HW117147   4.375   5.223   4.108 -0.6558 -0.1512 -0.5406
 5416SOL    HW217148   4.241   5.294   4.049  1.1914  2.3180 -1.9383
 5417SOL     OW17149   3.391   1.543   5.192 -0.0746 -0.3012  0.3763
 5417SOL    HW117150   3.405   1.632   5.234  0.6768  0.3414 -1.1531
 5417SOL    HW217151   3.293   1.528   5.178 -0.1836  0.4544  0.2828
 5418SOL     OW17152   2.417   0.947   4.020  0.0091 -0.0094  0.4625
 5418SOL    HW117153   2.384   0.852   4.015  0.3919 -0.0922 -1.1268
 5418SOL    HW217154   2.363   0.998   4.087 -1.1314 -0.9977  0.3310
 5419SOL     OW17155   4.239   4.062   6.950 -0.0372 -0.4834  0.5858
 5419SOL    HW117156   4.243   4.140   6.888 -0.7327  0.5627  1.8399
 5419SOL    HW217157   4.295   4.080   7.031 -0.5955 -1.0750  1.1153
 5420SOL     OW17158   0.476   3.430   1.622 -0.1994  0.1863 -0.6627
 5420SOL    HW117159   0.474   3.334   1.650  0.9241  0.4346  0.3555
 5420SOL    HW217160   0.554   3.445   1.561 -0.4538  0.4244 -0.9322
 5421SOL     OW17161   2.792   3.106   1.829 -0.6625  0.1013 -0.7617
 5421SOL    HW117162   2.892   3.112   1.837 -0.5345 -0.3780 -1.9022
 5421SOL    HW217163   2.752   3.195   1.851 -0.0656  0.0480  0.6482
 5422SOL     OW17164   0.205   3.058   0.130  0.1790 -0.3794  0.3896
 5422SOL    HW117165   0.176   2.977   0.181 -1.5748 -0.4930 -0.7161
 5422SOL    HW217166   0.136   3.082   0.062  1.6634  0.7671 -0.8011
 5423SOL     OW17167   4.366   3.245   5.382 -0.2736 -0.4123 -0.3427
 5423SOL    HW117168   4.412   3.334   5.378 -1.0902 -0.0399 -1.5924
 5423SOL    HW217169   4.422   3.177   5.334 -0.5373 -0.1737 -0.9935
 5424SOL     OW17170   4.960   2.768   3.796 -0.3041 -0.2286 -0.1663
 5424SOL    HW117171   4.906   2.852   3.802  1.1546  0.8182 -1.0952
 5424SOL    HW217172   4.964   2.738   3.701  1.5185  0.2594 -0.2743
 5425SOL     OW17173   5.672   2.804   5.390  0.3387 -0.4351 -0.3901
 5425SOL    HW117174   5.633   2.895   5.376  2.1237  0.6223  1.0361
 5425SOL    HW217175   5.604   2.734   5.367 -1.7449  1.2629  0.2789
 5426SOL     OW17176   6.401   1.143   5.439  0.1274 -0.5290  0.7895
 5426SOL    HW117177   6.458   1.172   5.516  0.3842  1.6063 -0.1318
 5426SOL    HW217178   6.305   1.153   5.462  0.1331 -2.0829  1.5952
 5427SOL     OW17179   2.705   6.290   1.475  0.2252  0.0645 -0.2655
 5427SOL    HW117180   2.802   6.301   1.494  0.2910  1.0865 -1.0779
 5427SOL    HW217181   2.654   6.366   1.516 -0.3051 -0.7762  0.6524
 5428SOL     OW17182   2.486   0.521   2.624 -0.5020  0.0369  0.3169
 5428SOL    HW117183   2.426   0.459   2.574 -0.2269  0.2826 -0.3409
 5428SOL    HW217184   2.432   0.587   2.675 -0.7974 -0.8185  1.1298
 5429SOL     OW17185   0.873   4.161   4.359  0.0747  0.2320  0.2163
 5429SOL    HW117186   0.919   4.073   4.356 -0.7167 -0.1764 -0.2442
 5429SOL    HW217187   0.874   4.196   4.453  0.4244 -0.2468  0.3950
 5430SOL     OW17188   1.569   2.026   4.776  0.2763  0.6629 -0.0866
 5430SOL    HW117189   1.525   2.027   4.686  0.3519  1.6748 -0.1241
 5430SOL    HW217190   1.649   2.085   4.774  0.5260  0.3541  0.5344
 5431SOL     OW17191   2.287   5.189   5.415 -0.4245  1.0179  0.1467
 5431SOL    HW117192   2.291   5.287   5.433  0.2696  0.9221  0.5394
 5431SOL    HW217193   2.308   5.138   5.499 -1.3636  0.5232  0.1000
 5432SOL     OW17194   0.549   6.501   0.627  0.1509  0.8738  0.0004
 5432SOL    HW117195   0.539   6.570   0.698  0.0395  1.2348 -0.3629
 5432SOL    HW217196   0.470   6.506   0.565 -0.1014  0.1021  0.2466
 5433SOL     OW17197   0.222   1.460   2.555  0.5192 -0.1375 -0.4878
 5433SOL    HW117198   0.218   1.361   2.569  1.0754 -0.3064 -1.3788
 5433SOL    HW217199   0.252   1.479   2.461  2.4362  0.8624  0.2684
 5434SOL     OW17200   1.695   4.854   5.620  0.9229  0.5664  0.0776
 5434SOL    HW117201   1.597   4.846   5.601  0.6906  0.6303  1.1624
 5434SOL    HW217202   1.740   4.900   5.544 -0.1925  2.1461  0.3277
 5435SOL     OW17203   4.137   1.561   2.859  0.8653  0.7614 -0.0129
 5435SOL    HW117204   4.171   1.578   2.951 -2.3242  0.2666  1.4028
 5435SOL    HW217205   4.040   1.585   2.855  0.8024  0.4010 -3.1750
 5436SOL     OW17206   4.891   2.638   2.859  0.1854  0.5926  0.0749
 5436SOL    HW117207   4.909   2.552   2.908 -1.3364 -1.5949 -2.8554
 5436SOL    HW217208   4.825   2.692   2.911  0.7050 -0.2736  1.7220
 5437SOL     OW17209   3.612   4.533   5.838  0.2148 -0.3010  0.2984
 5437SOL    HW117210   3.538   4.502   5.898 -3.2292  0.4700 -3.1367
 5437SOL    HW217211   3.650   4.455   5.789  0.3929 -0.4737  0.7027
 5438SOL     OW17212   5.395   0.690   1.597  0.0553 -0.1922  1.0219
 5438SOL    HW117213   5.391   0.790   1.604  1.1005 -0.0119 -0.5430
 5438SOL    HW217214   5.310   0.651   1.633  0.4115  1.1055  3.5474
 5439SOL     OW17215   1.339   0.568   1.683 -0.2431 -0.2566  0.2452
 5439SOL    HW117216   1.256   0.513   1.683 -1.4960  1.3048 -3.3310
 5439SOL    HW217217   1.414   0.516   1.641 -0.6577 -0.2487 -0.5357
 5440SOL     OW17218   1.737   0.085   1.423  0.1730 -0.0240 -0.5916
 5440SOL    HW117219   1.669   0.121   1.486  0.2596 -1.9454  0.6845
 5440SOL    HW217220   1.805   0.155   1.402  0.6295  0.4338  2.1511
 5441SOL     OW17221   3.462   0.769   4.601  0.1594 -0.0217 -0.1854
 5441SOL    HW117222   3.496   0.684   4.640  1.9629  1.2077  1.0724
 5441SOL    HW217223   3.369   0.787   4.634 -1.0057 -2.3557 -1.9318
 5442SOL     OW17224   3.066   1.404   3.128  0.0839 -0.2738  0.0762
 5442SOL    HW117225   3.003   1.468   3.171  0.4211 -0.3353  0.6816
 5442SOL    HW217226   3.140   1.454   3.083 -0.3456 -0.2045 -0.5703
 5443SOL     OW17227   1.329   4.284   2.624 -0.0951 -0.1895 -0.2589
 5443SOL    HW117228   1.291   4.376   2.615 -1.3730 -0.5507  1.0681
 5443SOL    HW217229   1.371   4.274   2.715  1.2050 -0.5231 -0.8743
 5444SOL     OW17230   0.365   0.558   4.134 -0.1787 -0.5885 -0.2526
 5444SOL    HW117231   0.343   0.649   4.099  0.3894 -1.1055 -2.0908
 5444SOL    HW217232   0.333   0.550   4.228 -1.2212  1.1262 -0.4112
 5445SOL     OW17233   6.289   4.523   2.665 -0.2387 -0.2735  0.2869
 5445SOL    HW117234   6.256   4.573   2.585 -0.9253  0.7992  1.2065
 5445SOL    HW217235   6.342   4.444   2.635 -0.2936  0.2223 -1.2198
 5446SOL     OW17236   5.053   6.872   5.624 -0.4021  0.4731  0.0992
 5446SOL    HW117237   4.999   6.794   5.658 -1.5131  1.4083  0.5481
 5446SOL    HW217238   4.993   6.934   5.573 -0.3346  2.7188  2.5218
 5447SOL     OW17239   2.745   2.897   1.145 -0.6894  0.9438 -0.0040
 5447SOL    HW117240   2.797   2.919   1.227 -2.0979  1.5245  0.7648
 5447SOL    HW217241   2.779   2.812   1.105  0.0354  0.6746  1.1609
 5448SOL     OW17242   5.840   2.906   6.106  0.3446 -0.3603 -0.6600
 5448SOL    HW117243   5.762   2.928   6.048  0.9140  1.8121 -0.6719
 5448SOL    HW217244   5.917   2.879   6.049  0.3165 -0.1476 -0.8008
 5449SOL     OW17245   6.436   4.088   5.293  0.4124 -0.1223 -0.0622
 5449SOL    HW117246   6.399   4.148   5.222  1.0645  1.2204  0.7140
 5449SOL    HW217247   6.385   4.002   5.293 -1.5383  0.9926 -0.1892
 5450SOL     OW17248   1.320   6.199   0.617 -0.2234 -0.3956 -0.4299
 5450SOL    HW117249   1.277   6.128   0.673 -1.9278  0.8326 -0.0793
 5450SOL    HW217250   1.405   6.229   0.661 -0.5365 -0.8140  0.4986
 5451SOL     OW17251   0.569   6.947   2.979 -0.0168  0.6818  0.7119
 5451SOL    HW117252   0.547   6.905   3.068  1.7143  0.2089  0.9602
 5451SOL    HW217253   0.578   7.046   2.990 -0.8873  0.7559  0.8199
 5452SOL     OW17254   2.896   3.994   0.440 -0.3645 -0.0616  0.5482
 5452SOL    HW117255   2.845   4.030   0.362 -0.1539 -0.5684  0.1679
 5452SOL    HW217256   2.838   3.931   0.491 -0.6841  0.6925  1.1277
 5453SOL     OW17257   1.395   3.358   3.384 -0.2108  0.5779  0.4702
 5453SOL    HW117258   1.307   3.401   3.362  0.3078  0.8922 -1.0899
 5453SOL    HW217259   1.465   3.429   3.394  0.7036  0.2067 -2.3517
 5454SOL     OW17260   1.977   4.820   6.855  0.2548 -0.3334  0.2655
 5454SOL    HW117261   2.061   4.767   6.848 -1.4190 -3.2580  0.7934
 5454SOL    HW217262   1.898   4.763   6.832 -2.0155  0.8007  4.1802
 5455SOL     OW17263   4.813   3.176   1.179 -0.2407  0.0509  0.4791
 5455SOL    HW117264   4.832   3.178   1.277 -0.2667 -0.3847  0.4960
 5455SOL    HW217265   4.715   3.162   1.165 -0.0683 -1.2001  0.3981
 5456SOL     OW17266   3.245   6.768   0.805  0.3876 -0.4156  0.4433
 5456SOL    HW117267   3.312   6.830   0.765  1.3530 -0.7663  1.4685
 5456SOL    HW217268   3.153   6.797   0.779  0.9442 -1.5150 -3.3172
 5457SOL     OW17269   0.298   3.568   1.173  0.2380  0.1490  0.0760
 5457SOL    HW117270   0.311   3.469   1.179 -0.1393  0.1113  0.2952
 5457SOL    HW217271   0.368   3.614   1.229  0.2394 -0.0048  0.2018
 5458SOL     OW17272   2.621   4.635   5.678 -0.2644  0.8094 -0.1290
 5458SOL    HW117273   2.632   4.644   5.777 -0.3538  2.2119 -0.2231
 5458SOL    HW217274   2.582   4.720   5.641  1.9578  1.2363 -1.6794
 5459SOL     OW17275   1.697   3.674   5.452 -0.2100  0.1232 -0.7398
 5459SOL    HW117276   1.747   3.608   5.508 -2.5861 -1.4415 -0.2936
 5459SOL    HW217277   1.684   3.759   5.503  2.5398  0.8739 -1.1653
 5460SOL     OW17278   2.647   6.126   4.785 -0.1705  0.4830 -0.0096
 5460SOL    HW117279   2.676   6.064   4.713  0.5767  1.0146 -0.1816
 5460SOL    HW217280   2.602   6.206   4.744 -1.9765 -0.3421  0.2522
 5461SOL     OW17281   3.443   7.020   5.616 -0.6249 -0.0503  0.2668
 5461SOL    HW117282   3.436   6.940   5.676 -2.0829 -1.4939 -1.6823
 5461SOL    HW217283   3.516   7.004   5.549 -1.5745 -0.2412 -0.7515
 5462SOL     OW17284   0.822   0.495   2.820  0.1223 -0.4633  0.7650
 5462SOL    HW117285   0.813   0.542   2.908  0.5572  1.1482 -0.0001
 5462SOL    HW217286   0.917   0.502   2.789  0.1334 -1.6550  0.4923
 5463SOL     OW17287   0.574   2.862   0.634 -0.3929  0.1798  0.5652
 5463SOL    HW117288   0.548   2.823   0.722  2.0436 -1.7220  0.5540
 5463SOL    HW217289   0.673   2.856   0.623 -0.6239  0.2248 -2.3492
 5464SOL     OW17290   2.932   5.274   4.942  0.1056  0.5126 -0.7263
 5464SOL    HW117291   2.988   5.279   5.025 -0.8626  0.0455 -0.0343
 5464SOL    HW217292   2.843   5.235   4.963 -0.5460  1.3499 -1.7943
 5465SOL     OW17293   2.750   6.495   6.126 -0.1524  0.1257 -0.1331
 5465SOL    HW117294   2.711   6.572   6.176  0.0296  0.3856 -0.3852
 5465SOL    HW217295   2.805   6.530   6.050 -1.4468 -0.2852 -1.2851
 5466SOL     OW17296   2.869   0.647   6.175 -0.4676  0.0112 -0.0450
 5466SOL    HW117297   2.868   0.733   6.226  0.1685  0.5072 -0.8399
 5466SOL    HW217298   2.929   0.656   6.096  0.0775 -1.3710  0.1869
 5467SOL     OW17299   3.991   0.332   0.773  0.1753 -0.0148  0.5622
 5467SOL    HW117300   4.073   0.290   0.734 -0.1618 -1.1099  0.9859
 5467SOL    HW217301   3.983   0.426   0.741  1.5514  0.0845  0.4530
 5468SOL     OW17302   4.187   0.776   6.616 -0.1489 -0.1306  0.3578
 5468SOL    HW117303   4.260   0.823   6.666  0.6064 -0.5697 -0.3072
 5468SOL    HW217304   4.133   0.721   6.680  0.1507  0.1320  0.8439
 5469SOL     OW17305   4.380   4.592   2.042  0.2240 -0.6044 -0.6591
 5469SOL    HW117306   4.333   4.533   1.976  1.5379  0.5351 -2.7074
 5469SOL    HW217307   4.477   4.566   2.048  0.2418 -0.3621  0.4869
 5470SOL     OW17308   1.057   5.611   4.317 -0.4492  0.5087 -0.0249
 5470SOL    HW117309   1.096   5.553   4.246 -1.0740  0.8148 -0.6252
 5470SOL    HW217310   1.093   5.704   4.309 -2.0246  1.0581 -1.2286
 5471SOL     OW17311   5.778   4.493   2.563  0.1757  0.7495 -0.1611
 5471SOL    HW117312   5.803   4.397   2.554 -1.1322  0.0727  2.4738
 5471SOL    HW217313   5.838   4.549   2.505  0.6232 -1.6432 -2.1661
 5472SOL     OW17314   4.505   6.047   5.484 -0.0682  0.1931  0.3723
 5472SOL    HW117315   4.593   6.091   5.501  0.2399 -0.2895  0.0468
 5472SOL    HW217316   4.461   6.026   5.572  0.3105  0.1030  0.5425
 5473SOL     OW17317   0.228   4.499   2.619  0.5731  0.2848  0.1133
 5473SOL    HW117318   0.321   4.530   2.596  0.3048  0.2587 -1.0647
 5473SOL    HW217319   0.216   4.503   2.718  0.7331  3.4423  0.1054
 5474SOL     OW17320   1.206   5.774   4.048 -0.2774  0.0744  0.0571
 5474SOL    HW117321   1.177   5.683   4.017 -1.1163  0.0410  0.8898
 5474SOL    HW217322   1.306   5.778   4.051 -0.2301 -0.7928 -0.0627
 5475SOL     OW17323   1.097   2.259   2.645 -0.0297  0.6891 -0.0475
 5475SOL    HW117324   1.164   2.274   2.717  1.6706 -1.7468 -1.0113
 5475SOL    HW217325   1.015   2.218   2.685  1.1783 -1.3306  0.4697
 5476SOL     OW17326   3.376   3.060   0.805  0.5051 -0.0961 -0.1743
 5476SOL    HW117327   3.310   2.985   0.801 -1.4628  1.0720  3.9244
 5476SOL    HW217328   3.329   3.146   0.787  1.7747  0.4852 -0.7928
 5477SOL     OW17329   0.706   2.476   3.333 -0.0269  0.3167  0.3780
 5477SOL    HW117330   0.785   2.521   3.374  0.3805 -0.7327  0.7602
 5477SOL    HW217331   0.622   2.514   3.373  0.3012  0.8979  0.5224
 5478SOL     OW17332   6.967   3.686   3.235  0.0848 -0.0120 -0.4342
 5478SOL    HW117333   6.918   3.622   3.176  0.5802  1.1268 -2.1331
 5478SOL    HW217334   6.902   3.743   3.284 -0.3607 -1.6169  0.9597
 5479SOL     OW17335   4.179   6.646   6.141  0.0717  0.3583  0.1983
 5479SOL    HW117336   4.195   6.606   6.231 -0.5290 -0.9193 -0.2363
 5479SOL    HW217337   4.095   6.607   6.102  1.0286 -0.1214 -1.4616
 5480SOL     OW17338   6.007   1.255   6.125  0.3948  0.1573  0.1984
 5480SOL    HW117339   6.055   1.170   6.102 -0.5138 -0.0430 -1.0943
 5480SOL    HW217340   5.977   1.251   6.221 -1.7768 -2.1389 -0.4375
 5481SOL     OW17341   3.906   6.759   1.301  0.0541 -0.0623 -0.5310
 5481SOL    HW117342   3.957   6.785   1.383 -2.1529 -0.1070  0.9296
 5481SOL    HW217343   3.960   6.694   1.248  0.8340 -1.4808  1.8375
 5482SOL     OW17344   1.813   0.108   2.152 -0.4246 -0.1860 -0.0233
 5482SOL    HW117345   1.817   0.040   2.225 -1.8714 -0.0548  0.2024
 5482SOL    HW217346   1.737   0.087   2.091 -0.0709  0.4815 -0.7100
 5483SOL     OW17347   0.505   1.103   4.650 -0.6081  0.3907  0.2085
 5483SOL    HW117348   0.506   1.076   4.746  0.0581 -0.6519 -0.0753
 5483SOL    HW217349   0.572   1.049   4.599  0.6722  2.4780 -0.4440
 5484SOL     OW17350   5.193   0.021   5.121  0.3088 -0.1371  0.1151
 5484SOL    HW117351   5.128   0.078   5.171  0.6196 -0.9142  1.4491
 5484SOL    HW217352   5.169   0.020   5.024 -2.6233 -1.6303  0.7402
 5485SOL     OW17353   4.004   6.931   6.073  0.1159 -0.6206 -0.0972
 5485SOL    HW117354   4.032   6.937   6.168  0.8568  0.4461 -0.3622
 5485SOL    HW217355   4.082   6.902   6.017 -0.5846 -2.2897 -0.2684
 5486SOL     OW17356   2.061   5.106   2.947 -0.3060 -0.2257 -0.2232
 5486SOL    HW117357   2.099   5.085   3.037 -2.6648  2.0276  1.4330
 5486SOL    HW217358   2.032   5.021   2.903 -0.3705 -1.2986  1.7520
 5487SOL     OW17359   1.671   1.386   5.367  0.0314  0.2179  0.0928
 5487SOL    HW117360   1.622   1.461   5.413  0.3717  0.6310 -0.2052
 5487SOL    HW217361   1.769   1.406   5.367  0.4748 -1.5759  2.5089
 5488SOL     OW17362   4.748   2.003   4.647  0.3462 -0.5520  0.1286
 5488SOL    HW117363   4.721   1.940   4.720  0.4877  0.3724  1.0106
 5488SOL    HW217364   4.787   2.086   4.688 -0.8883  0.6071 -0.9582
 5489SOL     OW17365   1.155   1.600   3.967  0.0512 -0.3327  0.3494
 5489SOL    HW117366   1.199   1.597   3.877  2.5123  0.4666  1.4454
 5489SOL    HW217367   1.068   1.648   3.960  0.2300 -0.2190 -1.5837
 5490SOL     OW17368   2.538   4.604   1.953  0.2841  0.3485  0.0375
 5490SOL    HW117369   2.556   4.654   1.868 -0.3348  1.4307  0.5165
 5490SOL    HW217370   2.615   4.617   2.016  1.6281 -2.0059 -1.0067
 5491SOL     OW17371   6.766   4.234   0.915 -0.0202 -0.2071  0.4045
 5491SOL    HW117372   6.789   4.143   0.879  2.2651 -0.8463  3.1118
 5491SOL    HW217373   6.848   4.291   0.916 -0.9335  1.1437  0.7722
 5492SOL     OW17374   0.563   0.933   5.860  0.5545 -0.3461 -0.6916
 5492SOL    HW117375   0.508   0.866   5.911  0.9933 -0.2550 -0.0950
 5492SOL    HW217376   0.511   0.964   5.780  0.4433 -1.6020 -1.1336
 5493SOL     OW17377   3.832   3.713   5.409  0.2866 -0.0614 -0.5004
 5493SOL    HW117378   3.759   3.761   5.361 -0.7604 -0.4328  0.6673
 5493SOL    HW217379   3.817   3.614   5.404  1.2126 -0.1935 -1.0006
 5494SOL     OW17380   5.265   1.896   3.775 -0.6086  0.2140  0.3458
 5494SOL    HW117381   5.225   1.971   3.723  0.4074 -0.3174 -1.2466
 5494SOL    HW217382   5.300   1.932   3.862 -2.7681  1.0175  0.9422
 5495SOL     OW17383   0.093   3.657   6.967  0.5832  0.1295  0.0641
 5495SOL    HW117384   0.067   3.561   6.967  2.4731 -0.4099  0.2860
 5495SOL    HW217385   0.046   3.704   6.892 -0.4641 -0.9049  0.0441
 5496SOL     OW17386   1.964   6.009   6.878 -0.2904  0.0105 -0.2329
 5496SOL    HW117387   2.058   5.975   6.874 -0.5157 -1.4219  3.2464
 5496SOL    HW217388   1.964   6.108   6.863  1.3692 -0.3117 -2.9341
 5497SOL     OW17389   1.186   0.684   6.399  0.1268 -0.6436 -0.7636
 5497SOL    HW117390   1.125   0.618   6.444 -0.2918  0.5573  0.5231
 5497SOL    HW217391   1.143   0.718   6.316 -2.2994  2.0652  1.3629
 5498SOL     OW17392   6.311   4.865   2.433  0.4825 -0.3713  0.7249
 5498SOL    HW117393   6.386   4.884   2.496  1.0242 -2.9249  0.9438
 5498SOL    HW217394   6.344   4.871   2.339 -0.0254  2.2059  0.6425
 5499SOL     OW17395   2.948   5.534   3.098  0.0171 -0.3931 -0.1787
 5499SOL    HW117396   3.016   5.462   3.098 -1.5183 -1.9099 -0.2736
 5499SOL    HW217397   2.929   5.563   3.004 -0.5188 -1.0263 -0.2712
 5500SOL     OW17398   0.604   6.501   1.931  0.0062  0.4004 -0.5378
 5500SOL    HW117399   0.691   6.499   1.882  1.2276 -0.5849  1.5219
 5500SOL    HW217400   0.615   6.550   2.018 -1.7325  0.9822 -0.5989
 5501SOL     OW17401   5.851   4.233   0.468  0.2009  0.5822 -0.4387
 5501SOL    HW117402   5.909   4.270   0.395  0.2641 -0.0571 -0.7218
 5501SOL    HW217403   5.830   4.137   0.448 -1.2682  0.9015 -0.5271
 5502SOL     OW17404   5.270   3.278   0.553  0.4789  0.2853  0.0473
 5502SOL    HW117405   5.178   3.307   0.580 -0.0406 -0.8365 -0.4493
 5502SOL    HW217406   5.264   3.218   0.473  1.4834 -1.1192  0.9782
 5503SOL     OW17407   5.336   3.236   1.336 -0.2671 -0.2327  0.9583
 5503SOL    HW117408   5.315   3.161   1.274 -1.4384 -0.8234  2.0200
 5503SOL    HW217409   5.423   3.219   1.382  1.3699  0.9224 -1.5284
 5504SOL     OW17410   4.507   1.456   0.450  0.2026 -0.1323  0.3908
 5504SOL    HW117411   4.591   1.437   0.501  0.0731  1.8823  1.4300
 5504SOL    HW217412   4.466   1.369   0.421  2.4494 -1.1970  0.1010
 5505SOL     OW17413   2.689   6.709   2.708  0.4114 -0.1329 -0.9938
 5505SOL    HW117414   2.593   6.719   2.686 -0.3352 -1.2211  1.3903
 5505SOL    HW217415   2.734   6.798   2.704 -0.6600  0.3790 -2.1661
 5506SOL     OW17416   0.010   3.220   0.445 -0.0443  0.2063  0.3970
 5506SOL    HW117417   0.082   3.280   0.411 -1.2452  1.8360  0.6048
 5506SOL    HW217418  -0.079   3.254   0.415 -0.8562 -0.6914  1.6577
 5507SOL     OW17419   4.689   4.914   6.939 -0.3637  0.0493  0.2497
 5507SOL    HW117420   4.651   5.007   6.940 -0.6854 -0.0824  0.5745
 5507SOL    HW217421   4.651   4.864   6.862  0.2692  0.3702 -0.2818
 5508SOL     OW17422   5.848   2.041   3.889 -0.3876 -0.0914  0.0761
 5508SOL    HW117423   5.943   2.037   3.920 -0.6151 -0.4953  0.7533
 5508SOL    HW217424   5.836   2.118   3.828 -0.1677  1.4952  1.9399
 5509SOL     OW17425   6.762   4.144   6.715 -0.0659 -0.3092 -0.5519
 5509SOL    HW117426   6.794   4.140   6.620 -0.1279  0.8449 -0.6315
 5509SOL    HW217427   6.665   4.166   6.716  0.4072  1.9439 -0.1952
 5510SOL     OW17428   5.722   0.512   0.382  0.2098 -0.1861  0.2877
 5510SOL    HW117429   5.653   0.447   0.351  1.9895 -2.5622  1.0008
 5510SOL    HW217430   5.812   0.468   0.381  1.2279  1.6106  2.7361
 5511SOL     OW17431   6.983   2.386   6.275 -0.1038 -0.1260 -0.4256
 5511SOL    HW117432   6.936   2.473   6.261 -0.3031 -0.4888 -2.1874
 5511SOL    HW217433   6.930   2.328   6.337  0.9316  1.6542  2.3400
 5512SOL     OW17434   4.787   6.161   1.212  0.2782 -0.1117 -0.2184
 5512SOL    HW117435   4.731   6.080   1.197  1.6713 -1.1539 -0.0959
 5512SOL    HW217436   4.759   6.206   1.297 -1.1151  0.0824 -0.7594
 5513SOL     OW17437   5.736   5.204   0.097 -0.1145 -0.2238 -0.1623
 5513SOL    HW117438   5.799   5.246   0.162  2.9322 -4.2535 -0.1612
 5513SOL    HW217439   5.774   5.209   0.005 -0.2475 -1.7924 -0.3315
 5514SOL     OW17440   3.187   2.224   0.994  0.5065  0.2891  0.0581
 5514SOL    HW117441   3.171   2.323   0.997  0.7094  0.3024  0.9142
 5514SOL    HW217442   3.139   2.181   1.070  0.7816 -0.2210 -0.0555
 5515SOL     OW17443   4.253   6.695   4.651 -0.1832  0.3820 -0.1710
 5515SOL    HW117444   4.303   6.770   4.607 -0.4592 -0.3260 -1.7839
 5515SOL    HW217445   4.298   6.671   4.737  1.0853  1.0565 -0.6182
 5516SOL     OW17446   6.719   3.403   0.186 -0.4305 -0.1343  0.4092
 5516SOL    HW117447   6.626   3.414   0.151  0.3844  2.2200 -1.2601
 5516SOL    HW217448   6.761   3.322   0.146 -1.8305 -1.4747  1.5052
 5517SOL     OW17449   2.650   1.376   4.796  0.1384 -0.0009  0.3675
 5517SOL    HW117450   2.602   1.343   4.714 -0.1774  1.6712 -0.1576
 5517SOL    HW217451   2.650   1.304   4.865  1.3843 -1.8901 -1.4708
 5518SOL     OW17452   3.134   3.677   3.691  0.0908 -0.0095  0.5206
 5518SOL    HW117453   3.194   3.627   3.753  1.7213 -0.0311 -0.9979
 5518SOL    HW217454   3.158   3.774   3.693 -0.7724  0.2045  0.9170
 5519SOL     OW17455   3.490   2.927   5.632  0.0893  0.1266 -0.0964
 5519SOL    HW117456   3.443   2.914   5.545 -0.0256  0.3194 -0.0625
 5519SOL    HW217457   3.460   3.012   5.674 -0.0935 -0.1242  0.2854
 5520SOL     OW17458   5.287   5.279   3.090 -0.3096  0.0397 -0.0921
 5520SOL    HW117459   5.337   5.264   3.175 -2.5777 -3.5243  0.8290
 5520SOL    HW217460   5.203   5.329   3.109  0.1505  1.0489 -0.6457
 5521SOL     OW17461   5.600   0.023   1.813 -0.5430  0.5890 -0.3265
 5521SOL    HW117462   5.659   0.102   1.799  2.6219 -1.5203 -0.0683
 5521SOL    HW217463   5.605  -0.037   1.733 -1.1958 -0.3339  0.3064
 5522SOL     OW17464   6.002   0.437   6.663 -0.0312  0.5553 -0.6766
 5522SOL    HW117465   6.092   0.465   6.698 -0.4288  1.7231 -0.5438
 5522SOL    HW217466   6.000   0.448   6.564  1.2279 -3.1241 -1.2835
 5523SOL     OW17467   4.577   3.076   0.456 -0.2039 -0.2233 -0.0442
 5523SOL    HW117468   4.509   3.020   0.409  2.8677 -2.7397 -1.8592
 5523SOL    HW217469   4.617   3.141   0.391  1.7284 -1.4341 -0.1508
 5524SOL     OW17470   2.289   6.877   3.650 -0.4585  0.0041  0.3804
 5524SOL    HW117471   2.238   6.960   3.629 -2.2238 -1.1854 -0.2544
 5524SOL    HW217472   2.323   6.882   3.744 -0.3068  1.5336  0.2658
 5525SOL     OW17473   0.528   6.009   0.694  0.2582 -0.0400  0.2067
 5525SOL    HW117474   0.546   5.980   0.600 -0.7157 -1.1497  0.3396
 5525SOL    HW217475   0.567   6.100   0.709 -1.9056  1.3834 -2.0997
 5526SOL     OW17476   6.187   3.944   2.540 -0.6541 -0.6062 -0.0800
 5526SOL    HW117477   6.138   4.031   2.543 -1.0158 -0.8112 -0.0507
 5526SOL    HW217478   6.138   3.880   2.481  0.1958 -0.4311 -1.0108
 5527SOL     OW17479   5.421   6.892   3.055 -0.3400 -0.1094 -0.3334
 5527SOL    HW117480   5.332   6.857   3.027 -1.0109 -0.0780  1.6031
 5527SOL    HW217481   5.410   6.985   3.091  0.7153  0.4315 -1.3362
 5528SOL     OW17482   2.867   1.610   6.631  0.3772  0.1080  0.1839
 5528SOL    HW117483   2.932   1.649   6.697 -0.3023 -2.0942  2.3266
 5528SOL    HW217484   2.910   1.533   6.583  0.1931  0.3527 -0.3770
 5529SOL     OW17485   2.125   6.638   2.063  0.3468 -0.0383  0.1692
 5529SOL    HW117486   2.223   6.651   2.047  0.5728  0.5762  1.8391
 5529SOL    HW217487   2.091   6.564   2.005  0.8996  2.2804 -3.4561
 5530SOL     OW17488   1.963   1.426   2.824 -0.6629  0.2478 -0.1936
 5530SOL    HW117489   2.004   1.517   2.825  0.2909 -0.1685  0.5456
 5530SOL    HW217490   1.953   1.393   2.918 -3.7502  0.7488 -0.2156
 5531SOL     OW17491   1.692   3.606   4.788 -0.1479 -0.2470  0.3179
 5531SOL    HW117492   1.687   3.509   4.812  0.0452 -0.6147 -1.0118
 5531SOL    HW217493   1.767   3.620   4.723 -0.8067  0.6240 -0.2697
 5532SOL     OW17494   6.869   1.046   0.104 -0.0492  0.0783  0.4235
 5532SOL    HW117495   6.775   1.059   0.073  0.1979  0.9532 -0.0014
 5532SOL    HW217496   6.883   1.099   0.188  0.2516  0.5002  0.1095
 5533SOL     OW17497   4.094   2.199   4.140 -0.3054 -0.3504 -0.3808
 5533SOL    HW117498   4.162   2.143   4.091 -0.3963 -1.5006  0.7471
 5533SOL    HW217499   4.140   2.279   4.179  0.3770 -1.0022  0.1901
 5534SOL     OW17500   2.062   5.598   5.661  0.7072 -0.2142  0.0624
 5534SOL    HW117501   2.096   5.609   5.567 -1.2688  0.9859 -0.5956
 5534SOL    HW217502   2.080   5.682   5.712 -0.6552  0.2201 -0.1309
 5535SOL     OW17503   1.031   2.073   2.157  0.1093 -0.2325  0.4007
 5535SOL    HW117504   0.944   2.044   2.197 -1.0191 -1.0389 -2.3745
 5535SOL    HW217505   1.028   2.171   2.138 -0.5683 -0.3967 -0.4239
 5536SOL     OW17506   4.143   6.565   5.803  0.2913  0.3492 -0.2559
 5536SOL    HW117507   4.184   6.483   5.843 -0.2589  0.6107  0.8695
 5536SOL    HW217508   4.214   6.633   5.788  0.5452  0.1558  0.0533
 5537SOL     OW17509   0.380   2.896   3.195  0.2029 -0.1691 -0.1817
 5537SOL    HW117510   0.322   2.973   3.221  0.4393  0.2096 -0.7533
 5537SOL    HW217511   0.453   2.928   3.135  2.1877 -0.2737  2.0234
 5538SOL     OW17512   5.060   4.635   5.292  0.4322 -0.1938 -0.5460
 5538SOL    HW117513   5.156   4.631   5.264  0.8184  0.4303  0.6381
 5538SOL    HW217514   5.029   4.730   5.288 -0.3531 -0.4888 -1.6071
 5539SOL     OW17515   3.020   3.602   0.247  0.0923  0.6174 -0.0324
 5539SOL    HW117516   3.017   3.621   0.345  1.4225  0.5822  0.0366
 5539SOL    HW217517   2.963   3.668   0.198  0.5888  1.5744  0.6455
 5540SOL     OW17518   4.747   4.657   1.332 -0.5509 -0.1292  0.6341
 5540SOL    HW117519   4.830   4.711   1.348 -0.7280  0.2761  0.2208
 5540SOL    HW217520   4.762   4.563   1.362 -0.4078  0.2578  1.8491
 5541SOL     OW17521   3.326   0.263   1.340  0.3429 -0.1798  0.0335
 5541SOL    HW117522   3.252   0.304   1.287 -0.8810 -1.8338  0.3662
 5541SOL    HW217523   3.414   0.296   1.305 -0.3914 -0.9840 -2.9287
 5542SOL     OW17524   5.650   4.295   6.924 -0.6476  0.0794 -0.2044
 5542SOL    HW117525   5.631   4.339   7.012 -2.4050  1.6062 -1.2788
 5542SOL    HW217526   5.575   4.233   6.901  0.1555 -0.8710 -0.3179
 5543SOL     OW17527   0.529   1.367   4.392 -0.2534  0.5719 -0.0501
 5543SOL    HW117528   0.552   1.408   4.480 -0.1550 -1.2884  0.8358
 5543SOL    HW217529   0.602   1.385   4.326  0.8888 -0.1349  0.9912
 5544SOL     OW17530   5.653   6.522   6.378  0.8769  0.0748 -0.0222
 5544SOL    HW117531   5.657   6.498   6.281  4.4306 -0.8890  0.2245
 5544SOL    HW217532   5.725   6.472   6.428 -0.2186  1.2449  2.9710
 5545SOL     OW17533   2.372   1.818   1.309 -0.2123 -0.0327 -0.5342
 5545SOL    HW117534   2.387   1.911   1.276 -0.6744  0.2885  0.1439
 5545SOL    HW217535   2.459   1.769   1.312  0.0902  0.4951 -0.5467
 5546SOL     OW17536   3.532   6.395   2.526  0.2219 -0.0329  0.3817
 5546SOL    HW117537   3.586   6.314   2.551 -0.5013  0.6130  5.0575
 5546SOL    HW217538   3.446   6.366   2.485  0.7951 -1.5356  0.1631
 5547SOL     OW17539   4.044   5.148   3.998  0.4676  0.4802 -0.9556
 5547SOL    HW117540   4.042   5.185   4.091  0.2231 -0.4600 -0.5799
 5547SOL    HW217541   4.042   5.223   3.932  0.7791  1.1606 -0.2027
 5548SOL     OW17542   6.176   1.956   5.085  0.1121  0.3094 -0.1113
 5548SOL    HW117543   6.147   1.873   5.037  2.6359 -1.1807  0.7880
 5548SOL    HW217544   6.228   2.015   5.022  2.9154 -1.3733  0.4606
 5549SOL     OW17545   5.104   4.718   4.901 -0.2165  0.1490 -0.6077
 5549SOL    HW117546   5.145   4.665   4.976 -1.4138  0.8946  0.6039
 5549SOL    HW217547   5.011   4.685   4.884 -0.2665  0.5776 -1.1889
 5550SOL     OW17548   4.072   5.997   2.275  0.1366 -1.0696  0.5518
 5550SOL    HW117549   3.986   6.024   2.319 -1.1529 -1.1872 -1.7042
 5550SOL    HW217550   4.067   5.902   2.246  1.3554 -1.3047  1.0526
 5551SOL     OW17551   0.458   1.720   2.177 -0.5036 -0.0928  0.4339
 5551SOL    HW117552   0.443   1.809   2.220  1.0917 -0.2206  1.3732
 5551SOL    HW217553   0.501   1.733   2.088  0.1863  0.0921  0.7822
 5552SOL     OW17554   0.792   2.206   2.365  0.4051  0.6886  0.2668
 5552SOL    HW117555   0.856   2.280   2.385 -0.1856  1.3944 -0.4083
 5552SOL    HW217556   0.750   2.221   2.276 -0.0818 -0.2109  0.3299
 5553SOL     OW17557   4.586   6.267   5.963 -0.1334  0.5330  0.3782
 5553SOL    HW117558   4.594   6.184   5.908  1.0948  1.3145 -0.7095
 5553SOL    HW217559   4.626   6.251   6.053  0.1248 -0.0446  0.1678
 5554SOL     OW17560   2.602   0.186   6.266  0.9843 -0.1805  0.3051
 5554SOL    HW117561   2.667   0.167   6.339  1.8444 -1.5148 -0.7613
 5554SOL    HW217562   2.651   0.198   6.180 -0.0803  0.4339 -0.2445
 5555SOL     OW17563   3.042   6.815   2.100 -0.2694  0.7362  0.9551
 5555SOL    HW117564   3.138   6.789   2.109 -0.2417  0.5063  0.1045
 5555SOL    HW217565   2.987   6.759   2.162  0.0394  0.1526  0.7184
 5556SOL     OW17566   5.356   0.776   4.454 -0.0848  0.2896 -0.1117
 5556SOL    HW117567   5.448   0.784   4.415  0.4983  2.0623  1.4266
 5556SOL    HW217568   5.363   0.779   4.554 -1.6763 -1.8219  0.1280
 5557SOL     OW17569   3.450   6.617   3.057 -0.3069  0.2436 -0.1584
 5557SOL    HW117570   3.428   6.519   3.068 -1.0196  0.3243 -0.7627
 5557SOL    HW217571   3.546   6.626   3.030 -0.2624 -0.3051 -0.2153
 5558SOL     OW17572   4.640   2.818   0.124 -0.0843  0.4833 -0.2732
 5558SOL    HW117573   4.635   2.759   0.204 -1.4884  1.6475  0.5404
 5558SOL    HW217574   4.650   2.761   0.042  1.7383 -0.7108  0.7105
 5559SOL     OW17575   5.213   2.351   0.857 -0.1786  0.4315 -0.2701
 5559SOL    HW117576   5.284   2.282   0.842 -0.4153 -0.0025  0.5650
 5559SOL    HW217577   5.206   2.372   0.954 -2.3453 -0.7889 -0.0983
 5560SOL     OW17578   6.262   2.610   5.394  0.2642 -0.3021  0.3845
 5560SOL    HW117579   6.213   2.563   5.321  2.1421 -0.4954 -0.8151
 5560SOL    HW217580   6.252   2.559   5.480 -0.6470 -0.9259 -0.0791
 5561SOL     OW17581   2.585   5.840   1.884 -0.0359  0.1485 -0.2961
 5561SOL    HW117582   2.497   5.793   1.875  0.5899 -1.8961  2.7205
 5561SOL    HW217583   2.658   5.781   1.850  0.4026  0.8879 -0.6614
 5562SOL     OW17584   5.614   2.373   6.293  0.1999  0.3642  0.1581
 5562SOL    HW117585   5.547   2.446   6.276 -3.0491 -2.3402  0.3261
 5562SOL    HW217586   5.705   2.405   6.268 -1.4212  3.5201 -2.4466
 5563SOL     OW17587   5.262   4.821   6.279 -0.4051  0.2633 -0.7175
 5563SOL    HW117588   5.169   4.840   6.311 -0.7527 -1.4445 -0.5940
 5563SOL    HW217589   5.323   4.811   6.357  0.3414  3.2291 -0.8267
 5564SOL     OW17590   5.969   0.162   3.467  0.5310  0.5608  0.8664
 5564SOL    HW117591   6.023   0.079   3.484  0.0057 -0.4675 -1.9446
 5564SOL    HW217592   6.029   0.233   3.430  0.2722 -0.2229 -1.2214
 5565SOL     OW17593   1.698   1.735   4.541 -0.5334  0.1953  0.2706
 5565SOL    HW117594   1.733   1.824   4.567 -0.4197  0.2887 -0.1890
 5565SOL    HW217595   1.604   1.725   4.575 -0.2775  0.1748  0.9942
 5566SOL     OW17596   1.590   4.881   0.110 -0.3679 -0.2191 -0.1082
 5566SOL    HW117597   1.644   4.852   0.030 -1.1284  1.3789 -1.2719
 5566SOL    HW217598   1.612   4.823   0.188  0.5615 -1.7264 -1.4171
 5567SOL     OW17599   0.654   6.145   2.591 -0.2314 -0.5655  0.0333
 5567SOL    HW117600   0.632   6.065   2.647 -0.0825 -0.6319 -0.0025
 5567SOL    HW217601   0.629   6.228   2.641  0.4520 -0.6008  0.4577
 5568SOL     OW17602   5.626   2.917   5.952 -0.1639 -0.5798 -0.4303
 5568SOL    HW117603   5.658   2.955   5.865  0.0574 -0.6827 -0.3964
 5568SOL    HW217604   5.531   2.944   5.968  0.1011  0.2724 -0.2354
 5569SOL     OW17605   4.155   0.867   3.621 -0.2113  0.2093 -0.0194
 5569SOL    HW117606   4.079   0.870   3.556 -0.0104  0.0233 -0.2639
 5569SOL    HW217607   4.164   0.956   3.665 -0.7244  0.1662  0.1891
 5570SOL     OW17608   1.898   2.821   0.247 -0.2856  0.4753  0.0358
 5570SOL    HW117609   1.974   2.885   0.238 -0.1728  0.2976 -0.3231
 5570SOL    HW217610   1.818   2.856   0.198 -0.6279  0.9413  0.9013
 5571SOL     OW17611   0.498   4.035   6.230 -0.2364 -0.7872  0.4582
 5571SOL    HW117612   0.403   4.038   6.260 -0.1991 -0.5121  0.5446
 5571SOL    HW217613   0.550   4.107   6.275  0.0543 -1.0484  0.5465
 5572SOL     OW17614   0.594   3.399   4.591 -0.4391 -0.4470  0.7198
 5572SOL    HW117615   0.629   3.316   4.548  2.2634  0.9858 -0.0605
 5572SOL    HW217616   0.502   3.419   4.556 -0.1265 -1.7490 -0.9469
 5573SOL     OW17617   0.283   5.949   6.062  0.2042 -0.0266 -0.4086
 5573SOL    HW117618   0.269   5.873   5.999  2.3190 -1.3136  0.5819
 5573SOL    HW217619   0.283   5.915   6.156 -0.6419  1.5064  0.1763
 5574SOL     OW17620   1.203   4.414   5.157  0.5003  0.0697  0.3682
 5574SOL    HW117621   1.255   4.383   5.077  0.0740 -0.3347  0.2415
 5574SOL    HW217622   1.122   4.357   5.167  1.1062 -0.6003  1.7353
 5575SOL     OW17623   1.884   3.205   1.738  0.3285 -0.0414  0.5674
 5575SOL    HW117624   1.817   3.275   1.762  0.2686  0.4842 -1.0027
 5575SOL    HW217625   1.848   3.150   1.662  2.3885  1.4948 -1.6683
 5576SOL     OW17626   6.159   0.724   6.839 -0.5960 -0.3533  0.4870
 5576SOL    HW117627   6.197   0.699   6.928  1.1467  1.5155  0.3328
 5576SOL    HW217628   6.226   0.705   6.768 -0.3380  1.9216  0.0634
 5577SOL     OW17629   1.595   4.285   5.759 -0.5112  0.0584  0.3591
 5577SOL    HW117630   1.668   4.292   5.690  0.7714  1.0791  1.7494
 5577SOL    HW217631   1.615   4.208   5.820  0.4233  1.3548  1.7891
 5578SOL     OW17632   3.868   1.399   0.833 -0.7783  0.6003  0.0226
 5578SOL    HW117633   3.943   1.453   0.871  0.6822  0.1461 -2.0679
 5578SOL    HW217634   3.787   1.411   0.891  0.9331  0.8415  2.5619
 5579SOL     OW17635   4.348   4.731   2.632  0.0302 -0.5475  0.1332
 5579SOL    HW117636   4.353   4.677   2.548 -1.1588 -1.3851  0.5743
 5579SOL    HW217637   4.386   4.679   2.708 -0.8568 -0.6722  0.5050
 5580SOL     OW17638   0.273   1.378   1.397 -0.5950 -0.2401 -0.5817
 5580SOL    HW117639   0.204   1.382   1.469  0.4153 -1.2356  0.4864
 5580SOL    HW217640   0.235   1.416   1.312 -2.4770 -0.8513 -0.0628
 5581SOL     OW17641   4.085   2.738   0.448 -0.6072  0.0011 -0.4964
 5581SOL    HW117642   4.127   2.654   0.481 -0.4856  0.2529 -0.0002
 5581SOL    HW217643   4.012   2.766   0.510  0.6540  1.3230  0.4609
 5582SOL     OW17644   3.283   4.046   5.656  0.2120 -0.2053 -0.2563
 5582SOL    HW117645   3.283   4.134   5.608 -0.8866  0.2841  0.5901
 5582SOL    HW217646   3.230   3.980   5.604 -1.3619  0.4509  0.4431
 5583SOL     OW17647   5.697   0.606   0.640  0.0033 -0.0345 -0.5089
 5583SOL    HW117648   5.715   0.525   0.697 -3.3661 -1.0759 -0.7162
 5583SOL    HW217649   5.710   0.582   0.544  1.8880  0.6078 -0.4560
 5584SOL     OW17650   4.713   4.020   5.686  0.2295 -0.0819 -0.8449
 5584SOL    HW117651   4.653   4.002   5.607 -1.2661 -1.1362  0.4707
 5584SOL    HW217652   4.729   3.935   5.736  0.6420  0.6685  0.3466
 5585SOL     OW17653   0.142   1.050   4.257 -0.1661 -0.0053 -0.7274
 5585SOL    HW117654   0.146   1.125   4.191  0.1837 -1.0053 -1.8884
 5585SOL    HW217655   0.188   1.078   4.341 -0.0201  1.0682 -1.1437
 5586SOL     OW17656   2.859   0.883   1.562  0.6063  0.1292 -0.0255
 5586SOL    HW117657   2.926   0.941   1.609  0.0245 -0.0511  1.0634
 5586SOL    HW217658   2.794   0.847   1.629  0.0016 -0.4846 -0.9268
 5587SOL     OW17659   4.956   2.113   3.061 -0.5179  0.7294  0.3273
 5587SOL    HW117660   4.900   2.038   3.027 -1.7816  0.3533  3.0574
 5587SOL    HW217661   5.037   2.077   3.107 -0.5735  1.0821  0.7099
 5588SOL     OW17662   4.889   4.025   1.180  0.0900 -0.1630 -0.2856
 5588SOL    HW117663   4.806   4.076   1.202  0.7843  0.7962  0.1785
 5588SOL    HW217664   4.897   3.946   1.240  0.3702  0.6880  0.8256
 5589SOL     OW17665   0.697   0.962   4.546  0.3656  0.2297  0.1522
 5589SOL    HW117666   0.659   0.870   4.535 -0.6016  0.6704 -0.2784
 5589SOL    HW217667   0.750   0.966   4.631  1.5671 -1.0988 -0.4799
 5590SOL     OW17668   4.658   6.047   2.746 -0.0898 -0.4949 -0.1032
 5590SOL    HW117669   4.629   6.026   2.652 -0.6412  1.8382 -0.5163
 5590SOL    HW217670   4.749   6.089   2.744 -0.6901  0.8707  0.2340
 5591SOL     OW17671   4.708   1.258   5.237  0.4200  0.6940  0.2748
 5591SOL    HW117672   4.677   1.164   5.232 -0.1520  0.8999 -0.2628
 5591SOL    HW217673   4.674   1.301   5.320 -1.3555  1.1107 -0.6183
 5592SOL     OW17674   1.736   4.762   3.820  0.5940 -0.5257  0.4996
 5592SOL    HW117675   1.776   4.851   3.797  1.1159 -1.2601 -1.7628
 5592SOL    HW217676   1.794   4.689   3.783 -0.8475 -1.7435  0.5430
 5593SOL     OW17677   2.293   3.168   5.261  0.4125  0.3566  0.4760
 5593SOL    HW117678   2.357   3.100   5.226 -0.8553  0.4374 -2.2196
 5593SOL    HW217679   2.215   3.122   5.304 -0.2255  0.0747 -0.9396
 5594SOL     OW17680   5.055   0.767   6.487  0.0047  0.1298  0.0152
 5594SOL    HW117681   5.055   0.779   6.387 -0.5969 -2.3135 -0.3426
 5594SOL    HW217682   5.101   0.682   6.510 -0.0886  0.5368  1.8386
 5595SOL     OW17683   4.546   3.796   6.858  0.4395 -0.4977 -0.0573
 5595SOL    HW117684   4.451   3.810   6.887 -0.1663 -0.2731 -1.9932
 5595SOL    HW217685   4.550   3.721   6.792  1.3271  0.5747 -1.2786
 5596SOL     OW17686   5.998   3.617   5.378  0.1952 -0.1568  0.1383
 5596SOL    HW117687   6.013   3.706   5.336  0.0878 -0.3865 -0.3918
 5596SOL    HW217688   6.046   3.613   5.466  1.3268 -0.0569 -0.4543
 5597SOL     OW17689   0.710   1.146   5.854  0.2628  0.0157 -0.5185
 5597SOL    HW117690   0.668   1.055   5.865  0.9077 -0.3194 -0.8221
 5597SOL    HW217691   0.639   1.216   5.863  0.0080 -0.4215  1.4209
 5598SOL     OW17692   6.936   3.477   4.049  0.2597  0.2418 -0.2864
 5598SOL    HW117693   7.015   3.533   4.074  0.1035 -0.1048  1.0528
 5598SOL    HW217694   6.960   3.380   4.059  0.1869  0.0811 -1.5391
 5599SOL     OW17695   4.793   4.673   2.836 -0.1468  0.1917  0.2926
 5599SOL    HW117696   4.736   4.752   2.813  0.8874  0.4208 -1.6973
 5599SOL    HW217697   4.755   4.591   2.795 -0.3921 -0.1113  1.0984
 5600SOL     OW17698   2.356   2.806   1.601  0.0690 -0.4792 -0.0780
 5600SOL    HW117699   2.305   2.874   1.549  0.5597  1.5161  1.9103
 5600SOL    HW217700   2.301   2.723   1.611 -0.1800 -0.8773 -3.3735
 5601SOL     OW17701   4.434   2.638   0.307  0.7270 -0.6410  0.3470
 5601SOL    HW117702   4.528   2.659   0.335  0.9408 -0.1845 -0.6333
 5601SOL    HW217703   4.436   2.579   0.226  0.1387 -1.8587  1.1904
 5602SOL     OW17704   4.329   2.291   3.031 -0.2435 -0.6195  0.3539
 5602SOL    HW117705   4.409   2.231   3.042 -0.0125 -0.3117  0.3830
 5602SOL    HW217706   4.273   2.258   2.955 -0.1208 -0.8750  0.3710
 5603SOL     OW17707   4.449   1.384   6.749 -0.2032 -0.2873  0.5176
 5603SOL    HW117708   4.367   1.329   6.732 -0.2250  0.1961 -1.2158
 5603SOL    HW217709   4.521   1.326   6.787  0.4430 -2.1537 -3.0827
 5604SOL     OW17710   2.146   3.950   4.010 -0.0092 -0.1567  0.6541
 5604SOL    HW117711   2.115   3.998   4.092  1.3924  0.8481  0.6283
 5604SOL    HW217712   2.182   3.861   4.036 -2.7296 -1.3376  0.6931
 5605SOL     OW17713   2.052   1.439   4.569  0.0354  0.4227 -0.2225
 5605SOL    HW117714   1.982   1.389   4.517  0.3651 -1.8601  1.3636
 5605SOL    HW217715   2.013   1.468   4.656  0.0789  2.3644 -0.8204
 5606SOL     OW17716   4.400   4.635   1.048  0.5245 -0.3151 -0.7397
 5606SOL    HW117717   4.326   4.687   1.004 -0.1399 -0.3282  0.3248
 5606SOL    HW217718   4.448   4.695   1.112  1.5239 -0.2771 -1.5095
 5607SOL     OW17719   2.108   2.478   1.392 -0.5895  0.3487  0.4022
 5607SOL    HW117720   2.085   2.545   1.463  0.9783 -1.0105  2.3184
 5607SOL    HW217721   2.199   2.441   1.410 -0.3326 -0.4033 -2.1188
 5608SOL     OW17722   0.064   4.697   3.436 -0.2798  0.3092  0.2286
 5608SOL    HW117723  -0.034   4.716   3.436 -0.7102 -1.6255  0.1592
 5608SOL    HW217724   0.089   4.654   3.523 -0.0055 -1.3048 -0.5969
 5609SOL     OW17725   0.164   1.455   6.465  0.2242 -0.0272  0.1940
 5609SOL    HW117726   0.074   1.430   6.428  0.2812 -1.1698  0.7911
 5609SOL    HW217727   0.152   1.527   6.534 -0.4701 -1.2842  1.4648
 5610SOL     OW17728   0.208   0.189   6.449 -0.3807 -0.0647  0.0441
 5610SOL    HW117729   0.119   0.144   6.452 -0.4069 -0.3705 -2.8582
 5610SOL    HW217730   0.274   0.131   6.402  0.1612  1.9006 -1.7833
 5611SOL     OW17731   6.711   3.109   1.440  0.0015 -0.0297 -0.1468
 5611SOL    HW117732   6.679   3.026   1.487 -0.6925 -0.5737 -1.5310
 5611SOL    HW217733   6.772   3.083   1.365  0.0787  0.7460 -0.3553
 5612SOL     OW17734   5.272   3.035   6.625 -0.0823 -0.0678  0.1643
 5612SOL    HW117735   5.245   3.012   6.532 -0.5443  0.9077  0.0497
 5612SOL    HW217736   5.202   3.092   6.667  0.2808 -0.2216  1.0005
 5613SOL     OW17737   5.830   4.638   4.279 -0.5837 -0.0156 -0.1402
 5613SOL    HW117738   5.834   4.738   4.284  0.1864  0.0135 -1.0606
 5613SOL    HW217739   5.750   4.612   4.225 -0.5436  0.1169 -0.2659
 5614SOL     OW17740   5.302   2.939   3.400 -0.0384  0.2328  0.0399
 5614SOL    HW117741   5.263   2.941   3.492 -2.0097 -1.5397 -0.6642
 5614SOL    HW217742   5.249   2.999   3.340  1.5903  1.8375  0.0987
 5615SOL     OW17743   7.009   6.474   3.726 -0.3127 -0.0229 -0.4745
 5615SOL    HW117744   6.997   6.536   3.804  1.1540 -0.1011 -0.1574
 5615SOL    HW217745   7.095   6.424   3.735 -0.7748 -1.0605 -1.4619
 5616SOL     OW17746   0.210   3.383   2.112 -0.5047 -0.3350 -0.0638
 5616SOL    HW117747   0.305   3.408   2.097 -1.0934  2.4882  0.4515
 5616SOL    HW217748   0.202   3.283   2.113  2.0414 -0.6754 -2.4104
 5617SOL     OW17749   1.696   0.073   0.753  0.5083 -0.1789  0.3506
 5617SOL    HW117750   1.686   0.027   0.841 -1.0930  1.1817  0.9379
 5617SOL    HW217751   1.607   0.109   0.724  1.7296  3.0384  0.2294
 5618SOL     OW17752   5.750   1.999   2.264 -0.6112  0.1468  0.4859
 5618SOL    HW117753   5.725   1.952   2.348 -0.6755 -1.1113 -0.2114
 5618SOL    HW217754   5.824   1.949   2.218  1.4130  2.3338  1.1646
 5619SOL     OW17755   2.952   3.839   4.457  0.1830 -0.5950  0.1922
 5619SOL    HW117756   3.023   3.827   4.387  0.6838  0.5150  0.4907
 5619SOL    HW217757   2.881   3.770   4.443  1.1341 -1.5246 -0.3284
 5620SOL     OW17758   4.860   4.122   5.249 -0.3368  0.1355  0.0037
 5620SOL    HW117759   4.764   4.131   5.223 -0.1236 -0.3182 -0.9765
 5620SOL    HW217760   4.898   4.039   5.209  0.7999  0.9462 -0.6800
 5621SOL     OW17761   6.513   5.552   5.328  0.2510 -0.2122 -0.2141
 5621SOL    HW117762   6.527   5.552   5.229  0.3126 -2.5720 -0.2529
 5621SOL    HW217763   6.500   5.458   5.360 -1.8282  0.6577  1.7532
 5622SOL     OW17764   6.583   5.058   4.490  0.6628  0.3778  0.0234
 5622SOL    HW117765   6.661   5.055   4.553 -0.3050  0.7864  1.2875
 5622SOL    HW217766   6.532   5.142   4.506 -0.6222 -0.3701 -0.0588
 5623SOL     OW17767   4.626   4.390   3.621 -0.2454  0.6610  0.5784
 5623SOL    HW117768   4.689   4.340   3.562  0.4373  1.4325  0.6316
 5623SOL    HW217769   4.554   4.432   3.566  0.2717  1.2044  0.2927
 5624SOL     OW17770   6.279   4.207   3.716 -0.2672 -0.2485 -0.5057
 5624SOL    HW117771   6.318   4.254   3.795 -0.6692  0.9097 -0.9783
 5624SOL    HW217772   6.313   4.113   3.714  0.0205 -0.1997  0.8437
 5625SOL     OW17773   4.318   6.717   6.769 -0.0696 -0.2209  0.0484
 5625SOL    HW117774   4.338   6.784   6.840  1.0344  0.3204 -0.7513
 5625SOL    HW217775   4.223   6.688   6.778 -0.6262  1.5290  0.3651
 5626SOL     OW17776   1.919   4.548   7.002  0.5426 -0.6434  0.7505
 5626SOL    HW117777   2.007   4.576   6.965  0.9083 -0.9799  1.3587
 5626SOL    HW217778   1.846   4.584   6.944  1.0825 -0.5894  0.0949
 5627SOL     OW17779   2.227   5.021   0.333  0.6043 -0.3103  0.2143
 5627SOL    HW117780   2.324   5.018   0.308  1.1385 -0.8246  2.2095
 5627SOL    HW217781   2.178   5.077   0.266  2.4175  0.6669 -0.3799
 5628SOL     OW17782   2.619   2.864   6.041 -0.0506  0.4113  0.3926
 5628SOL    HW117783   2.524   2.857   6.073 -0.0680  0.9282  0.4665
 5628SOL    HW217784   2.673   2.789   6.080 -0.4611  0.0350  0.2346
 5629SOL     OW17785   0.020   3.925   4.427 -0.2140 -0.1545  0.5778
 5629SOL    HW117786   0.093   3.993   4.437 -0.4716  0.2033  0.0867
 5629SOL    HW217787  -0.029   3.941   4.341 -1.2300 -0.0338  1.1597
 5630SOL     OW17788   1.471   3.819   6.750 -0.8825 -0.2964 -0.0426
 5630SOL    HW117789   1.503   3.896   6.696 -1.0934  0.2779  0.6360
 5630SOL    HW217790   1.381   3.790   6.716 -0.2552 -1.0738 -1.1080
 5631SOL     OW17791   0.986   1.533   4.381  0.4071 -0.0697 -0.6012
 5631SOL    HW117792   1.058   1.577   4.328  0.4224  1.1756  0.3763
 5631SOL    HW217793   0.908   1.596   4.390  1.0644  0.4872  2.1836
 5632SOL     OW17794   1.166   5.558   5.421 -0.0744 -0.4476  0.0690
 5632SOL    HW117795   1.072   5.589   5.436  0.4594  0.8461  0.9726
 5632SOL    HW217796   1.187   5.559   5.324 -0.9249 -0.5618 -0.1241
 5633SOL     OW17797   2.087   4.761   4.646 -0.2286 -0.3866 -0.0522
 5633SOL    HW117798   2.160   4.800   4.590 -1.2295  0.4644 -0.8035
 5633SOL    HW217799   2.113   4.768   4.743  0.0224  1.3673 -0.2124
 5634SOL     OW17800   1.488   6.136   1.980 -0.2584 -0.0488  0.1811
 5634SOL    HW117801   1.539   6.157   2.065 -0.8506  2.5268  0.0017
 5634SOL    HW217802   1.428   6.058   1.995 -0.7622  0.6819  2.3669
 5635SOL     OW17803   5.425   0.522   1.349  0.1074 -0.1466 -0.2645
 5635SOL    HW117804   5.488   0.450   1.379  0.2672 -0.1136 -0.5203
 5635SOL    HW217805   5.387   0.568   1.429 -0.1260 -0.6263 -0.0950
 5636SOL     OW17806   4.950   6.326   4.492 -0.3778 -0.2175 -0.2340
 5636SOL    HW117807   4.971   6.415   4.534  0.0280 -0.1288 -0.6139
 5636SOL    HW217808   4.853   6.306   4.504 -0.5964  0.5500 -0.6448
 5637SOL     OW17809   6.616   1.804   4.290  0.0540  0.3538  0.3204
 5637SOL    HW117810   6.695   1.807   4.228 -0.1061 -0.7488  0.0494
 5637SOL    HW217811   6.561   1.723   4.270 -0.8125  0.7794  0.9276
 5638SOL     OW17812   1.129   4.871   5.773  0.7084 -0.1270  0.0652
 5638SOL    HW117813   1.179   4.953   5.746  0.4270  0.3871  1.0763
 5638SOL    HW217814   1.164   4.837   5.860  0.2396 -0.5807  0.0855
 5639SOL     OW17815   4.444   4.840   6.142 -0.3033 -0.5108 -0.1408
 5639SOL    HW117816   4.350   4.826   6.171 -0.5720  1.1047 -0.1287
 5639SOL    HW217817   4.505   4.779   6.193 -1.1181 -0.0776  1.4029
 5640SOL     OW17818   4.280   6.825   4.132  0.3492  0.3521  0.4656
 5640SOL    HW117819   4.203   6.877   4.169  1.1569  1.6625  0.3669
 5640SOL    HW217820   4.365   6.866   4.163  1.0608  0.9079 -1.9916
 5641SOL     OW17821   4.932   3.432   3.613 -0.3893 -0.1126  0.0026
 5641SOL    HW117822   4.924   3.470   3.521 -2.3314  3.2700  1.3675
 5641SOL    HW217823   5.027   3.433   3.642  0.1267 -0.3906 -1.5962
 5642SOL     OW17824   1.999   1.739   5.574  0.7111  0.3697  0.2207
 5642SOL    HW117825   1.998   1.647   5.534  2.3946  1.0282 -1.5168
 5642SOL    HW217826   2.093   1.766   5.593  0.1459  1.2568  1.9744
 5643SOL     OW17827   3.871   1.812   2.299  0.2594 -0.1681  0.9376
 5643SOL    HW117828   3.867   1.896   2.245  0.1246 -0.1715  0.9421
 5643SOL    HW217829   3.798   1.812   2.367 -3.6807 -2.7882 -2.7299
 5644SOL     OW17830   3.052   0.282   3.820 -0.9824  0.0575 -0.2956
 5644SOL    HW117831   2.957   0.251   3.821 -0.7430 -0.6897  0.0660
 5644SOL    HW217832   3.061   0.364   3.876 -1.4553  0.2697 -0.5249
 5645SOL     OW17833   6.841   5.659   4.001  0.4926 -0.1742  0.6657
 5645SOL    HW117834   6.929   5.640   3.958  0.9780 -0.3517  1.6993
 5645SOL    HW217835   6.799   5.572   4.029  0.1222 -0.0704  0.4314
 5646SOL     OW17836   6.966   1.716   1.505  0.0261  0.4754  0.2120
 5646SOL    HW117837   7.022   1.798   1.504 -0.2353  0.6503 -0.0936
 5646SOL    HW217838   6.885   1.729   1.448 -0.1554  0.1038  0.3772
 5647SOL     OW17839   5.097   2.831   5.528 -0.3786  0.0637 -0.3407
 5647SOL    HW117840   5.023   2.896   5.547 -0.3927  0.8881 -2.8093
 5647SOL    HW217841   5.066   2.765   5.459  0.1351 -1.7010  1.0520
 5648SOL     OW17842   0.762   1.323   3.901 -0.1768  0.1682 -0.6949
 5648SOL    HW117843   0.696   1.317   3.975 -1.1482  1.8601 -1.3687
 5648SOL    HW217844   0.755   1.412   3.856  1.2203 -0.3414 -2.0527
 5649SOL     OW17845   6.655   0.789   6.719 -0.3688  0.5252  0.8953
 5649SOL    HW117846   6.711   0.826   6.644 -0.6658  1.1546  0.9737
 5649SOL    HW217847   6.577   0.740   6.681 -0.8956  1.4232  0.7755
 5650SOL     OW17848   5.852   6.361   0.524  0.0615  0.2344  0.3153
 5650SOL    HW117849   5.853   6.440   0.464 -0.2373 -1.0198 -1.4134
 5650SOL    HW217850   5.825   6.389   0.616  0.8167  2.2538 -0.0313
 5651SOL     OW17851   4.871   1.153   3.819 -0.5149 -0.8284 -0.3566
 5651SOL    HW117852   4.875   1.132   3.917 -0.8406  1.7043  0.2719
 5651SOL    HW217853   4.794   1.105   3.777  0.2245 -2.7466  0.3628
 5652SOL     OW17854   4.203   6.275   6.181  0.0958 -0.3171 -0.1867
 5652SOL    HW117855   4.139   6.204   6.153  0.4766 -0.9639  0.5271
 5652SOL    HW217856   4.294   6.236   6.190  0.2237  0.1403  0.6850
 5653SOL     OW17857   1.301   0.536   6.955  0.5403  0.2620 -0.9519
 5653SOL    HW117858   1.286   0.633   6.973  1.6649  0.5756 -1.6863
 5653SOL    HW217859   1.353   0.496   7.030  2.3633  0.8327 -1.8740
 5654SOL     OW17860   4.408   5.453   6.083 -1.0535  0.4030 -0.3278
 5654SOL    HW117861   4.492   5.477   6.132 -1.0478  0.4089 -0.3405
 5654SOL    HW217862   4.375   5.364   6.114 -0.2350 -0.2869 -1.3577
 5655SOL     OW17863   4.900   4.384   1.824 -0.1490  0.2687  0.0155
 5655SOL    HW117864   4.991   4.404   1.860  0.2524  0.1782 -0.9243
 5655SOL    HW217865   4.860   4.308   1.875  1.1040 -0.9861 -0.8057
 5656SOL     OW17866   2.160   5.250   0.156 -0.3629  0.2634  0.1513
 5656SOL    HW117867   2.071   5.293   0.141 -0.4286  0.0761 -0.0141
 5656SOL    HW217868   2.227   5.318   0.184 -0.5315  0.4242  0.1596
 5657SOL     OW17869   5.140   5.180   2.755 -0.5060  0.6179  0.4218
 5657SOL    HW117870   5.111   5.103   2.699 -0.1484  1.5943 -1.1947
 5657SOL    HW217871   5.131   5.157   2.852 -0.9228 -1.2265 -0.0182
 5658SOL     OW17872   2.980   6.723   5.766 -0.1192 -0.6244 -0.2073
 5658SOL    HW117873   2.926   6.736   5.682 -1.3328 -2.8951  0.1394
 5658SOL    HW217874   2.928   6.667   5.830  1.4996 -0.3834  1.3947
 5659SOL     OW17875   2.816   2.842   1.441 -0.0063  0.1192  0.1836
 5659SOL    HW117876   2.903   2.794   1.447  1.3011  2.1691 -1.2540
 5659SOL    HW217877   2.772   2.843   1.531  0.1210 -3.1816  0.4036
 5660SOL     OW17878   1.928   4.419   0.447 -0.3972  0.3610 -0.0357
 5660SOL    HW117879   1.955   4.325   0.465  0.3532  0.5787  0.0205
 5660SOL    HW217880   1.887   4.426   0.356  1.6277  0.3514 -1.0119
 5661SOL     OW17881   6.123   0.123   5.107  0.5189 -0.9337 -0.0737
 5661SOL    HW117882   6.050   0.104   5.040 -1.1815  0.0950  1.3852
 5661SOL    HW217883   6.093   0.093   5.197  1.7131 -0.0058  0.6540
 5662SOL     OW17884   3.097   4.488   6.803 -0.2635 -0.3990  0.1528
 5662SOL    HW117885   3.174   4.508   6.864 -0.1506 -0.4302  0.0203
 5662SOL    HW217886   3.022   4.450   6.857 -0.4495  0.2913  0.3923
 5663SOL     OW17887   2.955   2.429   6.976 -0.0541 -0.2717  0.1321
 5663SOL    HW117888   2.996   2.519   6.956  1.4954 -0.7797  0.8351
 5663SOL    HW217889   3.002   2.359   6.923 -1.5190 -0.6654 -0.7085
 5664SOL     OW17890   5.255   5.941   3.490 -0.1288 -0.3042 -0.0526
 5664SOL    HW117891   5.282   6.008   3.422 -3.3053 -0.3789 -1.5880
 5664SOL    HW217892   5.277   5.849   3.458 -0.3505 -0.2609 -0.3308
 5665SOL     OW17893   6.619   1.112   0.774  0.5678  0.0683  0.0505
 5665SOL    HW117894   6.655   1.045   0.709 -0.1930  1.3895 -1.8262
 5665SOL    HW217895   6.685   1.187   0.784 -0.8709  1.8030 -2.3237
 5666SOL     OW17896   5.358   6.193   6.574 -0.1010  0.3216 -0.2661
 5666SOL    HW117897   5.308   6.136   6.509  0.3989 -1.6264  0.9599
 5666SOL    HW217898   5.344   6.290   6.553 -1.7942 -0.2280 -1.8330
 5667SOL     OW17899   6.719   5.965   3.043 -0.0461  0.1856 -0.0167
 5667SOL    HW117900   6.715   5.886   3.104  2.5231 -0.5794 -0.6994
 5667SOL    HW217901   6.709   6.049   3.097 -3.8083 -0.4746  0.6019
 5668SOL     OW17902   4.006   3.404   6.857  0.1214  0.3257  0.6502
 5668SOL    HW117903   4.106   3.410   6.857  0.3532 -1.9133 -1.6980
 5668SOL    HW217904   3.974   3.379   6.766 -2.7320  2.1462  1.0248
 5669SOL     OW17905   2.639   1.847   6.177 -0.6761 -0.4346 -0.1911
 5669SOL    HW117906   2.676   1.755   6.191 -1.1721 -0.5558  0.4011
 5669SOL    HW217907   2.653   1.901   6.260 -1.1850 -0.2619 -0.2126
 5670SOL     OW17908   1.777   2.770   0.853  0.3027  0.0935 -0.3297
 5670SOL    HW117909   1.833   2.832   0.909  2.2552 -0.2716 -1.7608
 5670SOL    HW217910   1.833   2.692   0.824 -0.9137 -0.2069 -1.9761
 5671SOL     OW17911   0.258   1.666   6.153 -0.7484 -0.1624 -0.1097
 5671SOL    HW117912   0.165   1.662   6.190 -0.9288  1.0152 -0.3953
 5671SOL    HW217913   0.308   1.741   6.197  0.2653 -1.1327  0.4505
 5672SOL     OW17914   4.577   6.037   6.865  0.3768  0.3734  0.1176
 5672SOL    HW117915   4.649   6.003   6.926  1.0245 -1.4457 -1.5548
 5672SOL    HW217916   4.618   6.067   6.779 -0.7408  0.6361 -0.3421
 5673SOL     OW17917   1.676   4.107   1.128  0.5648 -0.2648 -0.0986
 5673SOL    HW117918   1.696   4.041   1.056 -0.9199 -0.9545  0.0997
 5673SOL    HW217919   1.762   4.149   1.159  1.8001 -3.3075  0.9626
 5674SOL     OW17920   5.623   3.695   6.856 -0.2124 -0.4238 -0.6411
 5674SOL    HW117921   5.629   3.603   6.895  0.6889 -0.4406 -0.7869
 5674SOL    HW217922   5.701   3.750   6.888 -1.1533  0.5384  0.0574
 5675SOL     OW17923   4.183   6.210   6.469 -0.0957  0.2899  0.6077
 5675SOL    HW117924   4.265   6.160   6.495 -0.1562 -0.1458 -0.0185
 5675SOL    HW217925   4.196   6.251   6.378 -0.8504 -0.4492  0.1486
 5676SOL     OW17926   1.870   5.233   4.012 -0.5420 -0.8009 -0.5524
 5676SOL    HW117927   1.785   5.285   4.024 -0.1493 -0.3607  0.4142
 5676SOL    HW217928   1.881   5.169   4.088  1.8060  1.7612  1.4799
 5677SOL     OW17929   4.225   0.215   1.351 -0.0417  0.4679  0.5814
 5677SOL    HW117930   4.173   0.300   1.340  1.1625  1.5732  2.6509
 5677SOL    HW217931   4.194   0.167   1.433  0.2802 -0.3338  0.2449
 5678SOL     OW17932   0.561   4.717   3.432 -0.3014  0.3956 -0.3291
 5678SOL    HW117933   0.471   4.748   3.403  0.0905 -0.1031 -2.2359
 5678SOL    HW217934   0.612   4.794   3.470 -1.7775  0.5087  1.5911
 5679SOL     OW17935   4.287   5.324   6.921  0.7419 -0.5268  0.8308
 5679SOL    HW117936   4.339   5.244   6.894  0.3849 -0.4988  0.0481
 5679SOL    HW217937   4.349   5.392   6.961  1.4072 -0.2605 -0.6048
 5680SOL     OW17938   0.716   6.779   0.557 -0.3399 -0.1660 -0.3183
 5680SOL    HW117939   0.625   6.792   0.517 -0.2140 -0.5933 -0.7619
 5680SOL    HW217940   0.767   6.714   0.501 -0.2155 -0.9117  0.6316
 5681SOL     OW17941   1.876   2.888   0.509  0.2162 -0.1089  0.0181
 5681SOL    HW117942   1.931   2.845   0.581  1.2652  1.8988  0.4964
 5681SOL    HW217943   1.865   2.824   0.433  3.7649 -0.4734 -0.3626
 5682SOL     OW17944   2.529   4.903   2.800 -0.2058  0.5611  0.0193
 5682SOL    HW117945   2.469   4.902   2.720  1.1151 -0.4052 -1.0077
 5682SOL    HW217946   2.565   4.995   2.814 -0.2757  0.6918 -0.6430
 5683SOL     OW17947   3.267   2.997   4.750  0.5683 -0.4378 -0.5017
 5683SOL    HW117948   3.317   2.919   4.788  2.5841  1.4436  0.9925
 5683SOL    HW217949   3.212   3.040   4.821 -1.2208 -0.9414 -1.5204
 5684SOL     OW17950   4.314   3.338   1.398 -0.1249 -0.2896 -0.7687
 5684SOL    HW117951   4.316   3.310   1.302 -1.6841 -2.9151 -0.1240
 5684SOL    HW217952   4.278   3.263   1.454 -0.3584  1.5857  1.7442
 5685SOL     OW17953   2.162   6.941   2.652 -1.2849  0.2481 -0.8772
 5685SOL    HW117954   2.244   6.913   2.601 -0.5096  2.0762 -0.7248
 5685SOL    HW217955   2.137   7.034   2.626 -1.9638  0.5552  0.7384
 5686SOL     OW17956   2.567   4.381   6.044 -0.3749 -0.2811  0.3305
 5686SOL    HW117957   2.623   4.442   6.101  0.6669 -0.9496  0.0522
 5686SOL    HW217958   2.477   4.422   6.029  0.7553  1.8729 -1.0030
 5687SOL     OW17959   3.679   6.475   6.340  0.2653  0.1011  0.0263
 5687SOL    HW117960   3.774   6.466   6.311  0.0503 -0.3348 -0.5696
 5687SOL    HW217961   3.652   6.395   6.394 -0.0539 -0.2696 -0.6669
 5688SOL     OW17962   4.367   0.397   1.889 -0.0569  0.3781  0.2307
 5688SOL    HW117963   4.409   0.425   1.975  1.8645 -0.0472 -0.5180
 5688SOL    HW217964   4.325   0.307   1.899  0.1104  0.3582  0.7425
 5689SOL     OW17965   3.319   2.842   5.863 -0.1875 -0.4385  0.3240
 5689SOL    HW117966   3.231   2.831   5.909  0.7960 -2.2782  1.9354
 5689SOL    HW217967   3.331   2.938   5.836 -1.5227  0.4273  2.5161
 5690SOL     OW17968   4.623   1.938   2.472  0.8092  0.3754 -0.6014
 5690SOL    HW117969   4.622   2.034   2.444  2.1856  0.8364  0.7895
 5690SOL    HW217970   4.619   1.880   2.391 -0.1756  1.5820 -1.4631
 5691SOL     OW17971   1.928   0.616   5.217 -0.1616 -0.1556  0.1564
 5691SOL    HW117972   1.981   0.594   5.299  1.3984 -0.1194 -0.8133
 5691SOL    HW217973   1.874   0.699   5.234  1.0097  0.4996  0.7902
 5692SOL     OW17974   5.751   3.230   1.730  0.0973  0.6457  0.6398
 5692SOL    HW117975   5.696   3.310   1.708 -1.0951 -0.4927 -0.7571
 5692SOL    HW217976   5.697   3.147   1.715  1.5555 -0.4569  1.2135
 5693SOL     OW17977   6.428   6.256   2.510 -0.0963  0.1598 -0.1737
 5693SOL    HW117978   6.419   6.263   2.610 -1.3237 -0.1889 -0.2390
 5693SOL    HW217979   6.521   6.279   2.483 -0.0690  1.5052  0.9401
 5694SOL     OW17980   2.614   2.377   5.215 -0.1492  0.0921  0.6601
 5694SOL    HW117981   2.617   2.353   5.312 -0.7748  1.2293  0.9785
 5694SOL    HW217982   2.637   2.473   5.204 -1.5638  0.3559 -0.1638
 5695SOL     OW17983   1.621   3.244   2.082  0.1675 -0.1834  0.4967
 5695SOL    HW117984   1.720   3.244   2.065 -0.0110  0.6604 -0.6491
 5695SOL    HW217985   1.601   3.187   2.162  1.6920  0.4732  1.4001
 5696SOL     OW17986   4.414   2.992   6.666  0.6179 -0.5301 -0.0699
 5696SOL    HW117987   4.382   2.898   6.656  1.9904 -0.9322 -1.0667
 5696SOL    HW217988   4.511   2.992   6.693  0.4921  0.6046  0.4622
 5697SOL     OW17989   5.002   5.821   6.886 -0.1686  0.0226  0.2176
 5697SOL    HW117990   5.048   5.748   6.937 -0.2782 -1.0731 -1.1699
 5697SOL    HW217991   5.070   5.882   6.846 -0.0404  0.1579  0.6394
 5698SOL     OW17992   2.623   5.847   4.640 -0.0953  0.1982  0.6003
 5698SOL    HW117993   2.539   5.796   4.658  0.4088 -1.1842 -0.8074
 5698SOL    HW217994   2.699   5.784   4.626  1.0016  1.4011  0.8902
 5699SOL     OW17995   1.208   2.062   3.503  0.6979 -0.0578 -0.0354
 5699SOL    HW117996   1.180   1.983   3.557 -0.4046  0.7579  0.6179
 5699SOL    HW217997   1.233   2.032   3.411 -1.5069 -0.9637 -0.4007
 5700SOL     OW17998   1.336   4.630   2.103  0.7766 -0.6089 -0.5099
 5700SOL    HW117999   1.262   4.614   2.170  0.3184 -0.0537 -0.8754
 5700SOL    HW218000   1.378   4.542   2.080 -1.7375 -1.4316 -2.5340
 5701SOL     OW18001   4.192   6.409   0.424  0.5488  0.2091 -0.2669
 5701SOL    HW118002   4.236   6.498   0.437 -1.7632  1.4407 -0.3740
 5701SOL    HW218003   4.197   6.382   0.328  0.7780  0.4975 -0.3349
 5702SOL     OW18004   5.180   3.036   6.224 -0.0733  0.2398  0.5133
 5702SOL    HW118005   5.226   3.116   6.261 -0.0281 -0.3226  1.7405
 5702SOL    HW218006   5.082   3.053   6.218 -0.3751 -0.3047  2.8503
 5703SOL     OW18007   4.364   5.893   4.049  0.4248 -0.1673  0.6205
 5703SOL    HW118008   4.312   5.852   4.124 -2.3547 -1.7960 -2.0188
 5703SOL    HW218009   4.450   5.843   4.037 -1.2301 -3.0272 -0.1753
 5704SOL     OW18010   4.813   4.473   3.986 -0.4269 -0.1234  0.0736
 5704SOL    HW118011   4.807   4.409   4.063 -0.2779  0.0338  0.2162
 5704SOL    HW218012   4.902   4.462   3.940 -0.8543 -0.8282 -0.6153
 5705SOL     OW18013   0.788   2.018   5.088  0.2865  0.3847  0.2071
 5705SOL    HW118014   0.761   2.085   5.157 -0.4380  0.7095 -0.3844
 5705SOL    HW218015   0.888   2.013   5.084  0.3402  0.9579  0.7047
 5706SOL     OW18016   1.545   1.331   4.964  0.3189  0.0705  0.3128
 5706SOL    HW118017   1.482   1.306   5.037  0.1785 -0.4500  0.0265
 5706SOL    HW218018   1.554   1.253   4.901  0.2021  0.6129 -0.3843
 5707SOL     OW18019   4.166   5.646   2.460  0.0997  0.0476 -0.7451
 5707SOL    HW118020   4.174   5.674   2.365 -0.1558 -0.9295 -1.0681
 5707SOL    HW218021   4.096   5.701   2.506  2.5157  2.8393 -0.1798
 5708SOL     OW18022   1.525   6.200   0.824 -0.6197 -0.6814 -0.2041
 5708SOL    HW118023   1.498   6.189   0.919 -0.4564 -0.4489 -0.1297
 5708SOL    HW218024   1.549   6.296   0.806  0.2921 -0.9068 -0.2271
 5709SOL     OW18025   5.611   2.729   1.109  0.0073  0.1970 -0.0519
 5709SOL    HW118026   5.518   2.717   1.074 -0.6768  2.2116  0.8937
 5709SOL    HW218027   5.654   2.807   1.064  1.6266 -1.2486 -1.1248
 5710SOL     OW18028   4.710   5.447   5.833 -0.4495 -0.5251  0.3323
 5710SOL    HW118029   4.733   5.543   5.850  0.4241 -0.4621 -1.0484
 5710SOL    HW218030   4.694   5.400   5.920  0.6377  0.4913  1.1045
 5711SOL     OW18031   2.459   0.478   0.701 -0.3253  0.2170  0.1061
 5711SOL    HW118032   2.424   0.560   0.748  1.6376  1.4279 -0.4427
 5711SOL    HW218033   2.447   0.489   0.603  0.8966  0.3294 -0.0366
 5712SOL     OW18034   6.790   5.450   4.187 -0.0514  0.0996  0.0790
 5712SOL    HW118035   6.877   5.426   4.231  0.7130 -0.2096 -1.5404
 5712SOL    HW218036   6.718   5.388   4.218  1.0452 -1.8198 -1.0456
 5713SOL     OW18037   1.724   4.981   3.216  0.5360 -0.1270  0.4338
 5713SOL    HW118038   1.770   5.069   3.220  0.3219  0.0052  0.0187
 5713SOL    HW218039   1.625   4.995   3.205  0.7677 -0.3831 -3.0295
 5714SOL     OW18040   1.863   1.104   0.908  0.0068 -0.4517 -0.9244
 5714SOL    HW118041   1.813   1.017   0.902 -0.4216 -0.2936  0.1550
 5714SOL    HW218042   1.800   1.177   0.934  0.8659 -0.3478  1.0198
 5715SOL     OW18043   0.794   4.573   3.335 -0.5407  0.2136 -0.5640
 5715SOL    HW118044   0.800   4.514   3.254 -0.9776  1.5393 -1.6093
 5715SOL    HW218045   0.698   4.592   3.355 -0.4071  0.6256 -0.2954
 5716SOL     OW18046   1.876   3.672   5.257  0.9907 -0.2919  0.1906
 5716SOL    HW118047   1.862   3.630   5.168  1.4799 -0.4240  0.1708
 5716SOL    HW218048   1.799   3.649   5.317  1.4710 -1.6329  0.3306
 5717SOL     OW18049   0.762   5.642   6.910  0.0431  0.1829 -0.4538
 5717SOL    HW118050   0.739   5.648   6.813  0.4407 -1.4094 -0.6635
 5717SOL    HW218051   0.810   5.557   6.928 -1.2823 -0.2434  1.3861
 5718SOL     OW18052   0.880   5.378   6.938  0.5721 -0.3422 -0.2059
 5718SOL    HW118053   0.868   5.326   6.853  0.8343 -0.8297  0.0501
 5718SOL    HW218054   0.952   5.336   6.992 -0.2543 -0.6255  0.7059
 5719SOL     OW18055   1.250   6.291   1.897 -0.2984 -0.0558  0.3079
 5719SOL    HW118056   1.313   6.349   1.844  0.1486 -1.3162 -0.5984
 5719SOL    HW218057   1.272   6.299   1.994  1.9609 -1.1746 -0.0294
 5720SOL     OW18058   2.273   6.435   3.446  0.4628 -0.4973  0.5169
 5720SOL    HW118059   2.259   6.465   3.352  0.8240  1.5018  1.0450
 5720SOL    HW218060   2.348   6.369   3.449  1.0577  0.0999 -0.4978
 5721SOL     OW18061   6.278   5.981   1.319 -0.0292  0.0394 -0.3510
 5721SOL    HW118062   6.257   6.053   1.253  3.4324  0.3564 -1.3157
 5721SOL    HW218063   6.256   6.012   1.411 -0.4147  1.5495 -0.9277
 5722SOL     OW18064   5.262   1.779   3.320  0.1436 -0.0510  0.3947
 5722SOL    HW118065   5.291   1.754   3.412 -0.1901 -0.7803  0.3084
 5722SOL    HW218066   5.166   1.755   3.307  0.4048 -0.6974 -0.4056
 5723SOL     OW18067   0.712   5.349   1.669 -0.2750  0.0115 -0.4288
 5723SOL    HW118068   0.665   5.387   1.589  0.1944  0.8285 -0.3211
 5723SOL    HW218069   0.771   5.418   1.709 -0.9805 -0.1902  1.0150
 5724SOL     OW18070   4.156   2.306   5.336  0.5374 -0.1025  0.3545
 5724SOL    HW118071   4.161   2.346   5.427  3.4661  1.0957 -0.2342
 5724SOL    HW218072   4.127   2.376   5.270 -1.5559 -0.9593  0.2708
 5725SOL     OW18073   4.860   6.688   5.947 -0.5590 -0.3708 -0.0499
 5725SOL    HW118074   4.844   6.610   6.008 -2.0735 -0.2041 -0.2097
 5725SOL    HW218075   4.924   6.751   5.991 -3.2519  0.8643  2.4831
 5726SOL     OW18076   3.667   6.206   5.769 -0.1063  0.3389 -0.1454
 5726SOL    HW118077   3.723   6.138   5.816  0.4234  0.4160 -0.6564
 5726SOL    HW218078   3.639   6.170   5.680 -0.3058  0.5658 -0.1764
 5727SOL     OW18079   4.933   1.977   2.447 -0.7201 -0.3123  0.4957
 5727SOL    HW118080   4.896   1.957   2.539  1.3679 -2.4905  0.9689
 5727SOL    HW218081   5.000   1.907   2.423  1.1378  1.9605 -1.4106
 5728SOL     OW18082   2.268   0.505   4.835  0.4696  0.4184 -0.2151
 5728SOL    HW118083   2.247   0.587   4.783  1.4356  0.8874  0.1139
 5728SOL    HW218084   2.206   0.497   4.912 -0.2379  0.3247 -0.7892
 5729SOL     OW18085   2.551   1.427   4.015 -0.4577 -0.4278  0.6205
 5729SOL    HW118086   2.622   1.491   4.043 -0.1754 -0.8492  0.8728
 5729SOL    HW218087   2.554   1.414   3.916 -0.1762 -0.4540  0.6322
 5730SOL     OW18088   3.500   4.021   6.008 -0.1833  0.3166  0.0066
 5730SOL    HW118089   3.536   3.953   5.944  0.6603 -0.6871  1.4691
 5730SOL    HW218090   3.421   4.067   5.968 -1.4089 -2.2149 -0.6867
 5731SOL     OW18091   3.751   1.943   6.506 -0.4419 -0.1043 -0.0699
 5731SOL    HW118092   3.824   1.916   6.568 -0.1190 -0.0821 -0.4385
 5731SOL    HW218093   3.776   2.030   6.461 -0.6241 -0.1743 -0.3083
 5732SOL     OW18094   6.900   3.184   4.109  0.3060  0.2820 -0.0784
 5732SOL    HW118095   6.907   3.123   4.031 -0.8978  0.7298 -0.5588
 5732SOL    HW218096   6.947   3.143   4.188 -0.2555 -1.1304 -0.4577
 5733SOL     OW18097   3.351   6.086   0.415  0.5687 -0.5988  0.3295
 5733SOL    HW118098   3.394   6.002   0.384 -0.2068 -1.1496  0.7206
 5733SOL    HW218099   3.251   6.077   0.411  0.4743  0.3514  0.2369
 5734SOL     OW18100   2.186   6.583   1.731  0.2059 -0.4079  0.4396
 5734SOL    HW118101   2.113   6.514   1.728 -1.5299  1.3197  1.4657
 5734SOL    HW218102   2.169   6.652   1.660  0.0352  0.7595  1.5905
 5735SOL     OW18103   4.399   1.559   1.268  0.0725 -0.4333  0.2310
 5735SOL    HW118104   4.355   1.482   1.221  0.3255  0.9740 -2.5045
 5735SOL    HW218105   4.496   1.539   1.282  0.8340  0.3983 -3.1265
 5736SOL     OW18106   4.136   2.371   6.841 -0.2584  0.0359  0.1635
 5736SOL    HW118107   4.095   2.307   6.777 -0.2343 -0.2388  0.4220
 5736SOL    HW218108   4.064   2.422   6.888 -0.2628  2.0202 -1.8518
 5737SOL     OW18109   2.667   5.988   1.417  0.0217 -0.0908 -0.6271
 5737SOL    HW118110   2.663   6.080   1.457  0.0902  0.0288 -0.8940
 5737SOL    HW218111   2.648   5.994   1.319  0.2484 -0.3346 -0.6849
 5738SOL     OW18112   3.710   6.366   0.150  0.3628 -0.3015 -0.1548
 5738SOL    HW118113   3.786   6.391   0.211 -0.5081 -0.0843  0.8666
 5738SOL    HW218114   3.633   6.428   0.166 -0.0239 -0.4795 -1.2294
 5739SOL     OW18115   1.470   1.346   6.577 -0.0530  0.1413 -0.3810
 5739SOL    HW118116   1.433   1.265   6.531  0.0346  0.6665 -1.4109
 5739SOL    HW218117   1.549   1.380   6.526  0.9542 -0.1063  0.9910
 5740SOL     OW18118   6.108   3.352   2.729  0.1469  0.3855  0.4908
 5740SOL    HW118119   6.193   3.397   2.702  0.5925  0.3014  1.7122
 5740SOL    HW218120   6.044   3.421   2.763  0.2547  0.2931  0.8906
 5741SOL     OW18121   1.127   3.010   3.416 -0.0604  0.4802 -0.6362
 5741SOL    HW118122   1.223   3.017   3.442  0.4638 -0.4621 -2.1627
 5741SOL    HW218123   1.079   2.954   3.483  0.6227  0.3668 -0.2333
 5742SOL     OW18124   0.468   4.709   3.095 -0.5176 -0.0386 -0.2332
 5742SOL    HW118125   0.415   4.710   3.180  0.0063 -0.4424  0.1030
 5742SOL    HW218126   0.496   4.803   3.073  0.1322 -0.0261  0.5533
 5743SOL     OW18127   3.434   0.723   6.383 -0.0250  0.0793  0.2157
 5743SOL    HW118128   3.367   0.730   6.310  0.6887  0.8074 -0.3790
 5743SOL    HW218129   3.403   0.775   6.463 -1.7349 -2.2640  1.2052
 5744SOL     OW18130   0.822   5.137   5.623 -0.0745  0.1736 -0.4953
 5744SOL    HW118131   0.873   5.190   5.691 -1.5719 -1.3487  1.9740
 5744SOL    HW218132   0.731   5.178   5.611 -0.2420 -0.2483 -0.6740
 5745SOL     OW18133   2.174   3.033   1.559  0.7752 -0.0155  0.2832
 5745SOL    HW118134   2.147   3.075   1.472  1.4324 -1.1745 -0.5140
 5745SOL    HW218135   2.195   3.104   1.625 -0.0807  0.8909 -0.3931
 5746SOL     OW18136   3.631   6.487   3.543  0.2271  0.2676 -0.0112
 5746SOL    HW118137   3.609   6.464   3.448  0.8010 -0.5029  0.0314
 5746SOL    HW218138   3.726   6.518   3.549  0.0453  0.7948  0.2444
 5747SOL     OW18139   0.940   6.708   4.374  0.1149  0.5609 -0.5027
 5747SOL    HW118140   0.996   6.645   4.320 -1.4796 -2.5131  1.1607
 5747SOL    HW218141   0.865   6.743   4.318  0.8155  0.7257 -1.3589
 5748SOL     OW18142   0.101   0.989   0.062  0.4146 -0.2863 -0.2548
 5748SOL    HW118143   0.001   0.985   0.069  0.4704  0.2461  1.1510
 5748SOL    HW218144   0.127   1.071   0.011  0.1379 -0.8132 -1.2823
 5749SOL     OW18145   1.552   6.713   5.025  0.1399  0.2561  0.0090
 5749SOL    HW118146   1.582   6.625   5.060  1.0145 -0.7663 -3.0075
 5749SOL    HW218147   1.587   6.786   5.083 -0.9244 -1.2997  2.8087
 5750SOL     OW18148   6.759   2.604   3.120  0.3471  1.0911 -0.4752
 5750SOL    HW118149   6.792   2.609   3.214 -1.4112 -0.7463  0.3079
 5750SOL    HW218150   6.659   2.613   3.119  0.0480 -1.3916 -1.8350
 5751SOL     OW18151   3.517   3.877   5.682 -0.2595  0.8515 -0.2907
 5751SOL    HW118152   3.428   3.914   5.707  0.1256  2.2105 -0.7997
 5751SOL    HW218153   3.565   3.943   5.624  1.5939  0.7108  1.0057
 5752SOL     OW18154   6.480   2.438   0.097 -0.0610 -0.1548 -0.2805
 5752SOL    HW118155   6.517   2.461   0.007  0.7693 -0.8018 -0.1208
 5752SOL    HW218156   6.522   2.497   0.166  0.6975 -0.8772 -0.1016
 5753SOL     OW18157   3.898   3.670   4.384 -0.0424  0.0226  0.3906
 5753SOL    HW118158   3.961   3.641   4.311 -0.8225 -0.1941 -0.2103
 5753SOL    HW218159   3.820   3.607   4.387 -1.8392  2.0377 -0.9915
 5754SOL     OW18160   6.882   1.258   1.441 -0.1510  0.2716 -0.9666
 5754SOL    HW118161   6.883   1.333   1.375  1.2997 -0.2056 -1.5272
 5754SOL    HW218162   6.825   1.183   1.406  1.8146 -0.6131 -2.4839
 5755SOL     OW18163   1.004   3.488   5.051 -0.0949  0.5893  0.3245
 5755SOL    HW118164   0.904   3.496   5.048 -0.0782  1.4897  1.3735
 5755SOL    HW218165   1.044   3.579   5.058  0.7593  0.1894  0.7421
 5756SOL     OW18166   5.324   0.726   0.868 -0.4815 -0.5645  0.4296
 5756SOL    HW118167   5.259   0.755   0.938  0.3427  0.2165  0.8908
 5756SOL    HW218168   5.364   0.638   0.894 -1.5476 -1.1937 -0.0011
 5757SOL     OW18169   2.100   2.909   4.466  0.0578  0.2222 -0.3812
 5757SOL    HW118170   2.116   2.958   4.552 -1.5880 -0.0762  0.1217
 5757SOL    HW218171   2.156   2.950   4.393  1.3806  0.5624  0.7774
 5758SOL     OW18172   6.630   6.184   4.979  0.0311  0.5272  0.7937
 5758SOL    HW118173   6.727   6.160   4.977 -0.2438 -0.8644  1.9701
 5758SOL    HW218174   6.605   6.215   5.071 -0.0732  3.7261 -0.1925
 5759SOL     OW18175   2.984   6.823   4.082  0.0200  0.3405  0.3952
 5759SOL    HW118176   3.011   6.897   4.021  0.7686 -1.3612 -1.4373
 5759SOL    HW218177   2.884   6.811   4.077  0.0750  0.2097 -0.5112
 5760SOL     OW18178   0.997   2.615   6.204  0.2613 -0.3586  0.4536
 5760SOL    HW118179   1.045   2.700   6.181 -0.1209 -0.6539 -1.6052
 5760SOL    HW218180   1.064   2.543   6.222  0.5767  0.0137  0.8109
 5761SOL     OW18181   0.830   6.842   5.535 -0.2535 -0.1777  0.5789
 5761SOL    HW118182   0.774   6.917   5.569  1.7970  1.1131  1.2848
 5761SOL    HW218183   0.918   6.840   5.583  0.0117 -2.6866  0.1609
 5762SOL     OW18184   1.356   0.566   1.257 -0.4051  0.0415  0.3067
 5762SOL    HW118185   1.307   0.652   1.270 -0.1027  0.2094  0.3423
 5762SOL    HW218186   1.294   0.490   1.271 -1.0806  0.2607 -1.2959
 5763SOL     OW18187   6.761   0.994   0.574  0.3779  0.0948 -0.4740
 5763SOL    HW118188   6.761   0.899   0.542  0.5645 -0.2285  0.4547
 5763SOL    HW218189   6.826   1.003   0.650  0.0891  0.8856 -0.3181
 5764SOL     OW18190   3.867   0.262   5.138  0.2163 -0.1762  0.0234
 5764SOL    HW118191   3.792   0.231   5.197  0.4615  0.0963  0.4765
 5764SOL    HW218192   3.926   0.184   5.117 -1.4068 -0.9270 -2.1816
 5765SOL     OW18193   5.060   0.767   2.441  0.1666  0.1358  0.1052
 5765SOL    HW118194   5.014   0.777   2.353 -0.9613 -1.2436  0.4980
 5765SOL    HW218195   5.109   0.680   2.444  2.8653  1.5261 -0.2701
 5766SOL     OW18196   6.100   1.157   4.329 -0.0687  0.3206  0.1715
 5766SOL    HW118197   6.069   1.178   4.236 -0.7224  1.3049  0.5959
 5766SOL    HW218198   6.031   1.185   4.395  0.1535 -0.8656  0.9417
 5767SOL     OW18199   6.702   0.428   1.827 -0.2898 -0.1068  0.2042
 5767SOL    HW118200   6.687   0.387   1.737  0.5116  0.9457 -0.4260
 5767SOL    HW218201   6.614   0.452   1.868 -0.6114  2.7314 -1.9042
 5768SOL     OW18202   5.928   0.366   5.196 -0.1493  0.1524 -0.1650
 5768SOL    HW118203   6.025   0.344   5.210  0.4732  2.2769 -0.8602
 5768SOL    HW218204   5.877   0.344   5.279  0.7352 -1.7918 -0.0704
 5769SOL     OW18205   0.586   2.337   6.010  0.6950  0.1968  0.3714
 5769SOL    HW118206   0.602   2.256   5.953  0.7162  0.1304  0.4714
 5769SOL    HW218207   0.493   2.370   5.996  0.8392  0.4415 -0.0336
 5770SOL     OW18208   3.319   3.158   1.469  0.0973 -0.2949 -0.4206
 5770SOL    HW118209   3.323   3.113   1.558  1.5138 -0.2055 -0.4137
 5770SOL    HW218210   3.342   3.092   1.397  1.1034  0.1385 -0.5079
 5771SOL     OW18211   3.719   4.912   4.291 -0.1233  0.5024  0.1046
 5771SOL    HW118212   3.802   4.857   4.296 -0.1523  0.4896  0.4725
 5771SOL    HW218213   3.736   4.994   4.237 -0.2120 -0.1021 -0.8775
 5772SOL     OW18214   2.339   2.660   3.307 -0.3960  0.4049  0.0850
 5772SOL    HW118215   2.391   2.619   3.382  0.1640 -0.9307 -0.9863
 5772SOL    HW218216   2.243   2.633   3.315 -0.0142 -1.3627 -0.6901
 5773SOL     OW18217   5.570   6.853   3.974  0.9202 -0.4471 -0.1494
 5773SOL    HW118218   5.619   6.799   4.042 -1.0284  0.5196  2.1531
 5773SOL    HW218219   5.623   6.857   3.890  4.5279  0.0926  1.9511
 5774SOL     OW18220   6.130   0.245   3.161  0.3922  0.6049  0.0939
 5774SOL    HW118221   6.055   0.308   3.141 -0.7155 -0.7810 -0.2836
 5774SOL    HW218222   6.210   0.269   3.105 -0.8267  0.2059 -1.9303
 5775SOL     OW18223   6.233   4.810   1.802  0.1590  0.2146  0.8848
 5775SOL    HW118224   6.137   4.837   1.791  0.8796  1.8795 -2.7814
 5775SOL    HW218225   6.252   4.729   1.746  1.2096  0.9194  0.1772
 5776SOL     OW18226   4.098   1.288   5.010 -0.0137  0.1885 -0.1426
 5776SOL    HW118227   4.115   1.228   5.088  0.4644  1.5880  0.8665
 5776SOL    HW218228   4.074   1.233   4.930 -2.3177 -1.2319  1.4119
 5777SOL     OW18229   2.303   1.108   2.939  0.2105 -0.1023 -0.3677
 5777SOL    HW118230   2.213   1.122   2.898 -0.4287 -2.8691 -0.0590
 5777SOL    HW218231   2.370   1.164   2.890 -1.1629 -0.2947 -2.6191
 5778SOL     OW18232   0.830   2.381   0.567  0.4651  0.2423  0.5242
 5778SOL    HW118233   0.893   2.308   0.595 -0.0881 -0.4244  0.0812
 5778SOL    HW218234   0.880   2.449   0.514  0.6984 -0.6053 -0.3712
 5779SOL     OW18235   5.260   0.508   0.139 -0.1864  0.5837  0.2600
 5779SOL    HW118236   5.276   0.443   0.213 -0.0784 -0.4595 -0.6488
 5779SOL    HW218237   5.238   0.458   0.055  0.2405  1.7099 -0.5485
 5780SOL     OW18238   5.291   3.810   3.407 -0.0225 -0.3017  0.3450
 5780SOL    HW118239   5.195   3.838   3.410  0.0718  0.1866 -0.6555
 5780SOL    HW218240   5.349   3.892   3.407  0.3968 -0.5900  0.7332
 5781SOL     OW18241   0.682   6.754   4.893 -0.0407 -0.0470  0.3510
 5781SOL    HW118242   0.640   6.756   4.983  1.8245  3.2906  1.3282
 5781SOL    HW218243   0.737   6.671   4.883 -1.4412 -1.1917  1.6190
 5782SOL     OW18244   4.457   0.774   2.120  0.1181 -0.7355 -0.2957
 5782SOL    HW118245   4.466   0.804   2.025  0.6903  0.5653  0.1342
 5782SOL    HW218246   4.371   0.807   2.158 -0.3110 -1.6286 -0.4848
 5783SOL     OW18247   2.171   1.110   0.214  0.9541 -0.0169  0.3461
 5783SOL    HW118248   2.075   1.134   0.226  1.3051  0.6464  2.3899
 5783SOL    HW218249   2.228   1.175   0.264  2.3393 -1.5361  0.8584
 5784SOL     OW18250   1.996   0.954   6.170 -0.2295  0.3644 -0.6226
 5784SOL    HW118251   1.911   0.919   6.133  0.5689  0.1170 -2.3316
 5784SOL    HW218252   1.985   0.975   6.267 -1.7974 -1.0092 -0.4769
 5785SOL     OW18253   2.622   1.763   3.574  0.4741 -0.4600  0.5913
 5785SOL    HW118254   2.609   1.669   3.543  1.4190 -1.5808  3.3666
 5785SOL    HW218255   2.542   1.792   3.627 -0.6241  1.0433 -1.6869
 5786SOL     OW18256   4.710   5.004   2.365 -0.2050 -0.1182  0.0794
 5786SOL    HW118257   4.707   5.102   2.348 -0.5788  0.2279  1.9115
 5786SOL    HW218258   4.641   4.979   2.433  0.2842 -1.5475  0.0959
 5787SOL     OW18259   2.803   2.189   5.839  0.0118 -0.0472 -0.1420
 5787SOL    HW118260   2.704   2.188   5.824  0.0352  0.1788 -0.3355
 5787SOL    HW218261   2.849   2.215   5.753  0.2392 -0.1928 -0.0649
 5788SOL     OW18262   4.045   1.371   4.529  0.4752 -0.2373  0.2142
 5788SOL    HW118263   4.049   1.434   4.451 -0.5263  1.1711  1.2379
 5788SOL    HW218264   4.075   1.419   4.612 -1.0797 -0.8394  1.1689
 5789SOL     OW18265   4.474   4.129   6.056  0.3108  0.4675  0.0723
 5789SOL    HW118266   4.469   4.145   5.957  0.0889  0.4057  0.0732
 5789SOL    HW218267   4.437   4.208   6.104  1.0254  0.7796  0.1238
 5790SOL     OW18268   1.936   2.794   4.088  0.3537 -0.1543  0.4477
 5790SOL    HW118269   2.021   2.786   4.037 -0.4801 -1.7677 -0.8158
 5790SOL    HW218270   1.938   2.875   4.146  0.9197  2.5948 -3.0826
 5791SOL     OW18271   7.009   2.567   2.689 -0.0047  0.2833  0.8777
 5791SOL    HW118272   6.920   2.537   2.655 -0.2994  0.5290  1.4208
 5791SOL    HW218273   7.059   2.613   2.616  0.0273 -0.5967  0.3305
 5792SOL     OW18274   1.779   2.084   3.709 -0.1968 -0.7140 -0.5658
 5792SOL    HW118275   1.871   2.106   3.740 -0.4918  0.4228 -0.4423
 5792SOL    HW218276   1.747   2.000   3.752  0.2103 -0.2984  0.5589
 5793SOL     OW18277   6.918   1.335   5.925  0.1201  0.9641  0.3064
 5793SOL    HW118278   6.964   1.255   5.962  0.0268  0.7737  0.0130
 5793SOL    HW218279   6.859   1.375   5.995 -0.5471  0.2292  0.1803
 5794SOL     OW18280   4.856   2.551   5.798 -0.1828 -0.1002 -0.9297
 5794SOL    HW118281   4.891   2.639   5.830  1.8495 -0.1800 -2.6753
 5794SOL    HW218282   4.848   2.488   5.875 -0.5626  1.2447  0.1670
 5795SOL     OW18283   6.729   4.050   6.974 -0.0161  0.1201  0.3127
 5795SOL    HW118284   6.740   4.083   6.880 -3.6747 -0.2491 -0.3936
 5795SOL    HW218285   6.674   4.115   7.026  1.5551  0.0786  2.1369
 5796SOL     OW18286   2.227   1.515   0.141 -0.5649 -0.0801 -0.0779
 5796SOL    HW118287   2.163   1.464   0.083  0.1950  0.0124 -1.0184
 5796SOL    HW218288   2.275   1.452   0.202  2.5815 -1.0738 -3.2856
 5797SOL     OW18289   3.340   4.207   0.618 -0.4100 -0.0351  0.6115
 5797SOL    HW118290   3.280   4.128   0.634 -1.2782  0.6483  0.7980
 5797SOL    HW218291   3.312   4.282   0.677  1.7479 -0.2481  2.0075
 5798SOL     OW18292   7.007   5.596   5.121 -0.1319  0.3774  0.6366
 5798SOL    HW118293   6.965   5.643   5.042  1.4578  2.3151  0.8501
 5798SOL    HW218294   6.968   5.633   5.205 -1.7218 -1.5888  0.8378
 5799SOL     OW18295   6.004   0.226   4.519 -0.4844 -0.4696 -0.5602
 5799SOL    HW118296   5.982   0.259   4.611  1.1214  0.5151 -0.4842
 5799SOL    HW218297   6.073   0.154   4.525  0.5249  0.4141 -0.9991
 5800SOL     OW18298   0.106   5.373   5.630  0.2207 -0.3623  0.5414
 5800SOL    HW118299   0.199   5.378   5.667  0.5541  1.4916 -0.4476
 5800SOL    HW218300   0.107   5.400   5.534 -1.3486 -0.3008  0.5207
 5801SOL     OW18301   0.692   0.120   4.482 -0.0521 -0.0348  0.2366
 5801SOL    HW118302   0.600   0.079   4.482 -0.3928  0.7005  1.0630
 5801SOL    HW218303   0.728   0.119   4.389 -0.9634 -0.2131 -0.1300
 5802SOL     OW18304   0.820   0.727   3.313 -0.4806  0.2483 -0.2832
 5802SOL    HW118305   0.851   0.702   3.222 -0.2677  0.2617 -0.2159
 5802SOL    HW218306   0.730   0.769   3.308 -0.3751  0.4442 -0.5095
 5803SOL     OW18307   1.975   5.349   1.020 -0.6110 -0.7664  0.1651
 5803SOL    HW118308   2.026   5.315   0.942  0.0159  0.5579 -0.0389
 5803SOL    HW218309   1.937   5.272   1.072  0.4799 -1.7238 -0.4167
 5804SOL     OW18310   1.844   5.010   6.975 -0.0057 -0.2961  0.0175
 5804SOL    HW118311   1.880   5.099   6.947 -0.6807 -0.1910 -0.5486
 5804SOL    HW218312   1.901   4.938   6.936  1.0551 -0.1283  1.1790
 5805SOL     OW18313   4.252   2.802   1.096 -0.3090  0.1127 -0.0985
 5805SOL    HW118314   4.221   2.799   1.001 -0.1613 -3.1292 -0.1652
 5805SOL    HW218315   4.238   2.713   1.138  0.3648  1.2356  2.7257
 5806SOL     OW18316   5.851   5.315   6.343  0.6938 -0.5170  0.4996
 5806SOL    HW118317   5.833   5.305   6.245  3.2486 -0.4922 -0.0398
 5806SOL    HW218318   5.815   5.404   6.374  0.3219 -0.2924 -0.5265
 5807SOL     OW18319   4.309   5.020   7.005 -0.3826  0.0713 -0.4884
 5807SOL    HW118320   4.308   4.921   7.021 -0.0192 -0.0158 -0.9886
 5807SOL    HW218321   4.402   5.050   6.985 -0.1304  0.8359  1.5282
 5808SOL     OW18322   5.732   0.052   2.823  0.7155  0.2821  0.5759
 5808SOL    HW118323   5.792   0.124   2.857  0.6082  0.9311 -0.5551
 5808SOL    HW218324   5.638   0.085   2.821  0.7249  0.2997 -0.3831
 5809SOL     OW18325   1.964   4.491   2.355 -0.3320 -1.0751 -0.4569
 5809SOL    HW118326   1.960   4.574   2.412 -1.4438 -1.9865  0.8778
 5809SOL    HW218327   2.024   4.507   2.277 -0.1903  0.8462 -0.0135
 5810SOL     OW18328   3.850   1.765   3.385 -0.7908 -0.3154 -0.2641
 5810SOL    HW118329   3.935   1.736   3.340 -0.6367 -1.3961  0.6941
 5810SOL    HW218330   3.772   1.742   3.327 -0.4908 -0.1897 -0.7214
 5811SOL     OW18331   3.586   6.836   1.679 -0.2187 -0.3495  0.6587
 5811SOL    HW118332   3.546   6.868   1.593  1.1553  0.7827  0.4058
 5811SOL    HW218333   3.547   6.890   1.755  1.0610  1.0546  0.3706
 5812SOL     OW18334   5.367   6.626   4.458  0.2461  0.9028  0.0478
 5812SOL    HW118335   5.300   6.696   4.437 -0.3542 -0.1617 -1.7337
 5812SOL    HW218336   5.323   6.552   4.509 -0.5922 -0.8085 -2.9104
 5813SOL     OW18337   1.133   2.303   5.243 -0.2130 -0.7566 -0.0788
 5813SOL    HW118338   1.154   2.241   5.319 -0.7906  0.1526  0.8481
 5813SOL    HW218339   1.079   2.380   5.277  2.3349  1.4461 -0.7578
 5814SOL     OW18340   2.185   4.776   1.372 -0.2249  0.0399  0.2818
 5814SOL    HW118341   2.265   4.782   1.430 -0.7907  1.5446  0.9737
 5814SOL    HW218342   2.102   4.772   1.428 -0.8187  2.1244 -0.3458
 5815SOL     OW18343   4.801   4.041   6.017  0.1835 -0.5792  0.5832
 5815SOL    HW118344   4.862   4.003   6.086  1.7370  3.2154  1.5677
 5815SOL    HW218345   4.856   4.078   5.942 -1.1631 -0.1353 -0.2059
 5816SOL     OW18346   6.043   0.637   0.605 -0.9671  0.5409 -0.0065
 5816SOL    HW118347   6.018   0.543   0.581 -0.6845 -0.3583  2.8419
 5816SOL    HW218348   6.010   0.699   0.534  0.0077 -1.7670 -2.6774
 5817SOL     OW18349   5.672   3.663   0.523 -0.1370  0.7263  0.6134
 5817SOL    HW118350   5.626   3.592   0.578  0.1947  1.8272  2.3883
 5817SOL    HW218351   5.605   3.708   0.464 -0.6764  0.0574  0.7050
 5818SOL     OW18352   4.993   6.781   5.110  0.3093 -0.2966 -0.1572
 5818SOL    HW118353   5.072   6.741   5.064  0.4316 -0.3457  0.0943
 5818SOL    HW218354   4.960   6.719   5.180  2.8138  1.5272  2.8861
 5819SOL     OW18355   6.282   1.751   1.192  0.4099 -0.1192 -0.2747
 5819SOL    HW118356   6.354   1.689   1.223  0.1463 -0.1892  0.1910
 5819SOL    HW218357   6.263   1.819   1.262 -1.8583 -1.7114  0.7736
 5820SOL     OW18358   5.528   4.699   5.587 -0.1433  0.3279 -0.0208
 5820SOL    HW118359   5.472   4.648   5.651  1.2302  0.0982  1.0410
 5820SOL    HW218360   5.470   4.758   5.530 -1.5531 -0.9073  0.1003
 5821SOL     OW18361   3.247   5.145   2.980  0.4901 -0.0741 -0.0397
 5821SOL    HW118362   3.220   5.049   2.989  2.1304 -0.6008 -0.3123
 5821SOL    HW218363   3.251   5.187   3.071 -1.7444  0.2325 -0.0194
 5822SOL     OW18364   4.951   0.696   1.475 -0.1867  0.0790 -0.1179
 5822SOL    HW118365   4.932   0.598   1.468 -2.0902  0.1900  2.1697
 5822SOL    HW218366   4.894   0.746   1.410  0.4378 -0.2577 -0.9508
 5823SOL     OW18367   2.269   1.702   3.529 -0.3430 -0.1273  0.5710
 5823SOL    HW118368   2.174   1.693   3.558  0.3411 -1.7687  2.5578
 5823SOL    HW218369   2.300   1.795   3.545 -1.6545  0.5029 -0.3556
 5824SOL     OW18370   4.380   1.928   3.464  0.0375 -0.3499  0.6591
 5824SOL    HW118371   4.323   1.973   3.533  1.4152  1.4769  0.6700
 5824SOL    HW218372   4.352   1.958   3.373  1.3152  1.0413  0.6917
 5825SOL     OW18373   2.308   0.651   0.136  0.0370 -0.2702 -0.2836
 5825SOL    HW118374   2.268   0.717   0.200 -1.2640 -0.0121 -1.3348
 5825SOL    HW218375   2.299   0.559   0.175  1.3262  0.0640  0.9136
 5826SOL     OW18376   6.963   6.328   3.205 -0.0116 -1.0219  0.0880
 5826SOL    HW118377   6.868   6.296   3.200  0.2355 -1.6957 -0.4311
 5826SOL    HW218378   6.965   6.427   3.193 -0.7649 -0.8223  1.4307
 5827SOL     OW18379   3.780   6.326   5.134  0.2553 -0.0886  0.0591
 5827SOL    HW118380   3.703   6.362   5.187  2.4108  2.1697  1.9257
 5827SOL    HW218381   3.814   6.243   5.177 -0.5724 -0.5825 -0.2373
 5828SOL     OW18382   6.034   1.593   1.183  0.3233  0.0806 -0.3009
 5828SOL    HW118383   6.130   1.610   1.161  0.0640 -0.8497 -2.4422
 5828SOL    HW218384   5.984   1.679   1.188  1.0291  0.5017 -0.4817
 5829SOL     OW18385   1.807   1.491   2.314  0.1073  0.3640 -0.4323
 5829SOL    HW118386   1.741   1.500   2.239  1.1038 -0.5394 -1.4551
 5829SOL    HW218387   1.900   1.497   2.278  0.6132 -0.2586  0.7131
 5830SOL     OW18388   1.296   0.355   5.849 -0.4055  0.6348  0.0760
 5830SOL    HW118389   1.207   0.331   5.888 -0.1791  0.7633  0.6822
 5830SOL    HW218390   1.368   0.308   5.900 -0.1399  0.3425 -0.5681
 5831SOL     OW18391   4.714   5.147   4.297 -0.2901 -0.1500 -0.3272
 5831SOL    HW118392   4.780   5.170   4.226 -0.7697 -0.8675 -1.0143
 5831SOL    HW218393   4.623   5.176   4.269 -0.3774  0.2011  0.3088
 5832SOL     OW18394   3.434   3.250   3.045 -0.0397 -0.7967  0.0949
 5832SOL    HW118395   3.394   3.296   3.124  0.0813 -1.0555  0.3098
 5832SOL    HW218396   3.505   3.308   3.004  0.1788 -0.8311  0.4209
 5833SOL     OW18397   3.175   4.102   4.434  0.0334  0.4662 -0.5463
 5833SOL    HW118398   3.101   4.036   4.426  0.0524  0.4657 -0.7303
 5833SOL    HW218399   3.206   4.128   4.342  1.3493 -0.7566 -0.4862
 5834SOL     OW18400   3.949   2.353   5.760  0.0948  0.0915  0.1795
 5834SOL    HW118401   4.041   2.341   5.800  0.5944  0.6411 -0.7709
 5834SOL    HW218402   3.952   2.428   5.694 -0.5922 -1.1208 -1.2657
 5835SOL     OW18403   6.019   2.901   4.237  0.3069 -0.2987 -0.3039
 5835SOL    HW118404   6.115   2.884   4.262  0.4680  0.1878 -0.5795
 5835SOL    HW218405   5.965   2.820   4.257  0.5093 -0.0953  1.2427
 5836SOL     OW18406   3.981   6.630   5.241  0.4638  0.1430 -0.3628
 5836SOL    HW118407   3.985   6.618   5.142 -1.6492  1.2094 -0.6340
 5836SOL    HW218408   3.891   6.665   5.267  1.0862  0.2332  1.9137
 5837SOL     OW18409   4.437   5.343   5.809  0.6546  0.1645 -0.2123
 5837SOL    HW118410   4.407   5.394   5.890 -0.7639  1.1255 -1.2918
 5837SOL    HW218411   4.537   5.335   5.811  0.7552  1.2235  1.0209
 5838SOL     OW18412   6.655   3.055   5.945 -0.2617  0.5919  0.3601
 5838SOL    HW118413   6.681   3.062   5.849 -0.9350 -0.8763  0.0338
 5838SOL    HW218414   6.646   3.146   5.985 -1.5304  1.2846 -1.4078
 5839SOL     OW18415   0.044   3.014   1.781  0.2036 -0.0248 -0.7437
 5839SOL    HW118416  -0.024   3.062   1.726  0.5071 -0.7182 -1.7583
 5839SOL    HW218417  -0.002   2.948   1.841 -0.1599  1.0329  0.1768
 5840SOL     OW18418   3.709   5.430   0.462 -0.1076  0.7079  0.0619
 5840SOL    HW118419   3.643   5.501   0.486 -1.3919  0.3644 -2.2190
 5840SOL    HW218420   3.745   5.446   0.370  0.5814 -0.8808  0.0107
 5841SOL     OW18421   5.903   1.236   1.930 -0.7866 -0.3616 -0.0871
 5841SOL    HW118422   5.810   1.237   1.893  0.0648  1.9459 -2.4875
 5841SOL    HW218423   5.927   1.328   1.961  1.0874 -0.6206 -0.6502
 5842SOL     OW18424   3.760   1.169   1.767  0.3385  0.2903  0.4879
 5842SOL    HW118425   3.845   1.123   1.744 -0.8535 -2.5706  1.3437
 5842SOL    HW218426   3.752   1.175   1.867 -0.2285  1.0371  0.4067
 5843SOL     OW18427   0.279   0.840   2.845  0.3918  0.1977  0.1348
 5843SOL    HW118428   0.235   0.871   2.929  0.6472  0.1149  0.3009
 5843SOL    HW218429   0.321   0.750   2.861  0.4667  0.1957 -0.0702
 5844SOL     OW18430   3.691   4.033   6.437  0.5474  0.1084 -0.1968
 5844SOL    HW118431   3.688   3.970   6.515 -1.8318  1.4906  0.9682
 5844SOL    HW218432   3.652   3.989   6.357  1.7756 -0.8905 -0.2736
 5845SOL     OW18433   1.972   1.908   4.473  0.5924  0.2096 -0.2934
 5845SOL    HW118434   2.013   1.819   4.453 -1.9796 -1.4808  1.4017
 5845SOL    HW218435   2.029   1.956   4.540  2.5150  0.3664 -1.9188
 5846SOL     OW18436   1.775   3.600   0.243 -0.0228 -0.0006 -0.5727
 5846SOL    HW118437   1.700   3.632   0.184 -0.1992  1.2776  0.3074
 5846SOL    HW218438   1.861   3.643   0.214 -0.0415  0.3302 -0.1392
 5847SOL     OW18439   2.345   2.615   5.071  0.1126 -0.9164  0.0496
 5847SOL    HW118440   2.383   2.650   4.985  1.0956 -2.2269 -0.1015
 5847SOL    HW218441   2.421   2.593   5.133 -0.5914  0.0782  1.2955
 5848SOL     OW18442   1.286   2.723   2.909 -0.0575 -0.4649  0.0006
 5848SOL    HW118443   1.333   2.638   2.933  1.5194  0.5527  0.6609
 5848SOL    HW218444   1.330   2.763   2.829  0.8890  1.0064  1.2189
 5849SOL     OW18445   1.573   6.542   6.537  0.2810  0.4904  0.2319
 5849SOL    HW118446   1.544   6.509   6.627 -1.6272  3.2465  0.7689
 5849SOL    HW218447   1.601   6.638   6.544 -0.5250  0.9822 -2.1809
 5850SOL     OW18448   1.661   4.040   2.714  0.2943  0.3609  0.2668
 5850SOL    HW118449   1.647   3.969   2.644 -1.0223 -0.9391  1.7749
 5850SOL    HW218450   1.752   4.030   2.754  1.0392  1.0736 -1.1559
 5851SOL     OW18451   0.055   4.016   2.302 -0.1032  0.2034  0.7444
 5851SOL    HW118452   0.032   4.077   2.378  0.9180  2.4500 -0.6533
 5851SOL    HW218453   0.005   4.044   2.220 -0.9016 -1.9408  0.4293
 5852SOL     OW18454   4.229   5.564   2.797 -0.0166  0.4458  0.4227
 5852SOL    HW118455   4.191   5.656   2.793  0.8275  0.8881  1.8412
 5852SOL    HW218456   4.155   5.497   2.805 -0.8317  0.7080 -3.1664
 5853SOL     OW18457   5.191   3.758   6.345  0.4904 -0.0064 -0.1147
 5853SOL    HW118458   5.193   3.836   6.408  1.4765  0.6649 -0.9365
 5853SOL    HW218459   5.260   3.691   6.372  0.9848  0.3308 -0.5384
 5854SOL     OW18460   2.483   1.847   0.538 -0.2160  0.0399  0.5490
 5854SOL    HW118461   2.453   1.931   0.494  0.2488 -0.3139 -0.4735
 5854SOL    HW218462   2.485   1.773   0.471 -1.3410 -0.9807  1.5850
 5855SOL     OW18463   2.239   6.863   4.137  0.4566 -0.4429  0.7209
 5855SOL    HW118464   2.271   6.936   4.198  1.7528 -1.1298  0.9080
 5855SOL    HW218465   2.291   6.779   4.156 -0.0856 -1.0468 -0.3874
 5856SOL     OW18466   1.627   6.270   4.902 -0.7307 -0.0360 -0.0495
 5856SOL    HW118467   1.667   6.354   4.864  2.7562 -1.5215 -0.1032
 5856SOL    HW218468   1.536   6.290   4.937 -1.3515  3.0207 -2.8079
 5857SOL     OW18469   0.471   2.511   5.106  0.5044  0.2291 -0.4854
 5857SOL    HW118470   0.444   2.540   5.198  2.7032  0.7976  0.0223
 5857SOL    HW218471   0.415   2.433   5.078  0.3369 -0.4609  1.6568
 5858SOL     OW18472   1.581   6.973   5.203 -0.3013 -0.7193 -0.5145
 5858SOL    HW118473   1.504   7.034   5.224  0.1175 -0.3111 -0.1416
 5858SOL    HW218474   1.594   6.909   5.278  1.5121  1.0626  0.8133
 5859SOL     OW18475   4.816   6.589   1.418 -0.0821 -0.8287 -0.4070
 5859SOL    HW118476   4.830   6.553   1.510 -0.5802 -1.7995 -0.7037
 5859SOL    HW218477   4.873   6.671   1.405 -0.4377 -0.3419  0.9564
 5860SOL     OW18478   0.313   3.308   1.189  0.0654  0.3398  0.2142
 5860SOL    HW118479   0.325   3.265   1.279 -1.2913 -0.6756 -0.0515
 5860SOL    HW218480   0.239   3.262   1.140  0.9535  0.7039 -1.5475
 5861SOL     OW18481   4.983   1.717   4.983  0.4974 -0.7740  0.4996
 5861SOL    HW118482   4.910   1.738   4.917  0.7996 -0.8103  0.1487
 5861SOL    HW218483   4.961   1.758   5.071 -0.4983 -1.7386  0.7051
 5862SOL     OW18484   0.352   2.803   2.791 -0.4123  0.1327  0.3947
 5862SOL    HW118485   0.405   2.728   2.830  0.3622  0.8636  0.7730
 5862SOL    HW218486   0.404   2.846   2.717  0.0646  1.6040  1.5357
 5863SOL     OW18487   1.753   3.802   6.698  0.2205 -0.4862  0.1824
 5863SOL    HW118488   1.809   3.753   6.764 -0.0874 -2.8646 -1.1645
 5863SOL    HW218489   1.657   3.796   6.726  0.2205 -0.3348  0.2116
 5864SOL     OW18490   6.729   4.980   1.483  0.1867 -0.1987  0.2469
 5864SOL    HW118491   6.693   4.891   1.510  0.0109 -0.4678 -0.8312
 5864SOL    HW218492   6.777   4.972   1.396  1.0060  0.5830  0.6047
 5865SOL     OW18493   5.066   1.774   3.539  0.4104  0.1423  0.2475
 5865SOL    HW118494   5.027   1.745   3.452  1.7559 -1.5398  0.1762
 5865SOL    HW218495   5.118   1.858   3.526  0.7262 -0.1803 -0.6023
 5866SOL     OW18496   4.358   0.040   6.568 -0.4541 -0.4197 -0.2857
 5866SOL    HW118497   4.342   0.112   6.500  0.1696 -0.2195 -0.2238
 5866SOL    HW218498   4.444   0.057   6.615  0.1323 -1.6771 -0.8678
 5867SOL     OW18499   0.279   2.560   0.914  0.5065 -0.0333 -0.6714
 5867SOL    HW118500   0.311   2.652   0.891 -0.2305 -0.2591 -2.7774
 5867SOL    HW218501   0.357   2.503   0.940  1.3193  0.4943 -1.8644
 5868SOL     OW18502   1.554   5.421   6.714 -0.3462  0.0626  0.2563
 5868SOL    HW118503   1.568   5.341   6.772  1.1942 -1.2612 -1.8068
 5868SOL    HW218504   1.638   5.474   6.709  0.2273 -0.9307 -2.2106
 5869SOL     OW18505   1.187   6.063   3.989 -0.3597 -0.5786  0.1521
 5869SOL    HW118506   1.137   6.044   3.905  1.6378 -2.1671 -0.7634
 5869SOL    HW218507   1.181   5.984   4.051  1.7355 -1.2569 -0.4120
 5870SOL     OW18508   6.092   5.787   2.953 -0.5142  0.6675 -0.2251
 5870SOL    HW118509   6.157   5.852   2.992  0.5464  0.7323 -1.9893
 5870SOL    HW218510   6.124   5.694   2.970 -1.5907  0.5694  1.5495
 5871SOL     OW18511   4.001   4.944   2.614 -0.3441 -0.0290 -0.0623
 5871SOL    HW118512   3.956   4.898   2.691  2.2755 -1.3190  0.8056
 5871SOL    HW218513   3.975   5.041   2.613 -0.6620 -0.0400  2.2820
 5872SOL     OW18514   3.690   6.205   3.101  0.0592  0.3053  0.5106
 5872SOL    HW118515   3.720   6.149   3.024 -1.1185  0.5101 -0.1222
 5872SOL    HW218516   3.734   6.172   3.185  0.0911 -0.9775  0.0173
 5873SOL     OW18517   2.306   3.796   1.698 -0.5251 -0.1672  0.0896
 5873SOL    HW118518   2.273   3.870   1.640 -0.2779 -0.5344 -0.5210
 5873SOL    HW218519   2.234   3.729   1.711  0.0273 -1.0971 -1.4513
 5874SOL     OW18520   0.505   3.669   4.089 -0.0119 -0.5434  0.1796
 5874SOL    HW118521   0.599   3.635   4.099  0.1837 -0.3281 -0.8145
 5874SOL    HW218522   0.502   3.739   4.017 -0.4388  1.4554  2.0429
 5875SOL     OW18523   4.153   2.823   0.857 -0.4891 -0.3043 -0.1116
 5875SOL    HW118524   4.097   2.740   0.858  0.6435 -1.0885 -0.5115
 5875SOL    HW218525   4.095   2.902   0.832 -1.6300 -0.9034  0.5328
 5876SOL     OW18526   5.033   5.075   5.116 -0.3459  0.3719  0.8264
 5876SOL    HW118527   5.008   5.167   5.146  0.1167 -0.1032  2.8412
 5876SOL    HW218528   4.986   5.007   5.172 -1.2942 -0.6759 -1.1381
 5877SOL     OW18529   5.735   5.548   2.123  0.5771  0.5470  0.0712
 5877SOL    HW118530   5.701   5.454   2.122  0.6029  0.5192 -2.0453
 5877SOL    HW218531   5.829   5.549   2.156  1.0148 -0.3548 -1.1096
 5878SOL     OW18532   5.009   5.201   1.733  0.1296 -0.0859  0.3654
 5878SOL    HW118533   5.097   5.244   1.715 -0.3136  0.0868 -1.6511
 5878SOL    HW218534   4.948   5.266   1.777  0.4104  0.4065  0.0342
 5879SOL     OW18535   2.471   4.802   5.376 -0.0938  0.1580  0.3181
 5879SOL    HW118536   2.516   4.723   5.334  0.6467  0.4505  0.5370
 5879SOL    HW218537   2.372   4.790   5.373 -0.0462 -0.0629 -1.0435
 5880SOL     OW18538   6.732   3.705   6.675  0.4287  0.1073  0.5702
 5880SOL    HW118539   6.713   3.777   6.742  1.8121  0.9595  0.0844
 5880SOL    HW218540   6.800   3.737   6.609  0.2877 -1.2810 -0.3031
 5881SOL     OW18541   1.945   6.206   4.931 -0.2994  0.0249 -0.1827
 5881SOL    HW118542   1.856   6.238   4.898  0.0534 -0.8093 -2.0731
 5881SOL    HW218543   1.950   6.107   4.921  0.2504 -0.1281  1.4519
 5882SOL     OW18544   1.363   5.961   3.717  0.2871 -0.3234 -0.1261
 5882SOL    HW118545   1.268   5.937   3.696 -0.0370  0.1616  0.7601
 5882SOL    HW218546   1.410   5.881   3.755  0.9115 -1.2585 -2.6279
 5883SOL     OW18547   0.021   0.226   1.193  0.0688 -0.3940  0.1948
 5883SOL    HW118548  -0.035   0.160   1.143  1.3516 -1.3139 -0.0656
 5883SOL    HW218549   0.093   0.261   1.134 -1.0516  1.9033  0.0640
 5884SOL     OW18550   1.799   0.643   2.081 -0.0877  0.4075  0.1657
 5884SOL    HW118551   1.719   0.696   2.111  0.2486 -0.3922  2.6796
 5884SOL    HW218552   1.882   0.685   2.117  0.3099 -0.8526  0.7719
 5885SOL     OW18553   6.143   5.435   2.850  0.1149  0.2449 -0.1238
 5885SOL    HW118554   6.069   5.447   2.784 -0.8896 -0.0740  0.9220
 5885SOL    HW218555   6.163   5.337   2.859  1.0526  0.3543 -0.7896
 5886SOL     OW18556   1.565   4.548   5.099 -0.2493  0.3686  0.6202
 5886SOL    HW118557   1.564   4.467   5.158  0.2003  0.1477  0.3324
 5886SOL    HW218558   1.602   4.625   5.150  0.9444 -0.0252  0.3873
 5887SOL     OW18559   2.886   4.109   0.721 -0.5251  0.1735 -0.0973
 5887SOL    HW118560   2.915   4.070   0.634 -0.3513  1.4946 -0.6698
 5887SOL    HW218561   2.874   4.208   0.710  0.5679  0.5370  1.6519
 5888SOL     OW18562   3.490   5.355   4.006 -0.5396  0.2127  0.0965
 5888SOL    HW118563   3.442   5.408   4.075 -1.9818 -0.1231 -0.6170
 5888SOL    HW218564   3.455   5.261   4.006  0.5004 -0.1955 -0.0933
 5889SOL     OW18565   4.861   3.544   3.114 -0.4741  0.0921 -0.0693
 5889SOL    HW118566   4.887   3.503   3.201 -3.2644  1.4941  1.5852
 5889SOL    HW218567   4.815   3.476   3.057  1.4334 -0.8529 -0.5553
 5890SOL     OW18568   2.876   5.656   1.358 -0.2414 -0.4905 -0.4029
 5890SOL    HW118569   2.864   5.558   1.376  1.2677 -0.5648  0.4190
 5890SOL    HW218570   2.948   5.669   1.289  0.4644  0.0386  0.4030
 5891SOL     OW18571   2.620   3.803   5.700 -0.7574  0.4114  0.0115
 5891SOL    HW118572   2.631   3.709   5.734  1.1721  0.0037 -1.5497
 5891SOL    HW218573   2.524   3.819   5.678 -1.3477 -0.7128  1.6150
 5892SOL     OW18574   6.614   2.948   0.080 -0.2796 -0.5201  0.4439
 5892SOL    HW118575   6.658   2.979   0.165 -0.8352 -1.7634  1.2204
 5892SOL    HW218576   6.662   2.869   0.044 -0.0249  0.0293 -0.4392
 5893SOL     OW18577   6.432   0.809   2.353 -0.1348 -0.0029  0.0114
 5893SOL    HW118578   6.506   0.872   2.373 -0.4133 -0.0804  1.4010
 5893SOL    HW218579   6.465   0.715   2.360 -0.3916 -0.0421  0.8583
 5894SOL     OW18580   4.555   0.392   6.032 -0.4200  0.2578  0.4472
 5894SOL    HW118581   4.473   0.353   6.074  1.3771 -1.2227  2.8669
 5894SOL    HW218582   4.583   0.472   6.084  0.6788 -0.3605  0.8409
 5895SOL     OW18583   5.331   3.603   3.590  0.2520 -0.1922  0.6166
 5895SOL    HW118584   5.398   3.544   3.544 -0.3651 -0.8847  0.5864
 5895SOL    HW218585   5.302   3.676   3.528 -1.0942 -1.5197 -0.3863
 5896SOL     OW18586   6.012   1.082   0.478 -0.2322  0.1736  0.1128
 5896SOL    HW118587   6.092   1.139   0.496  0.1729 -0.6481  1.0677
 5896SOL    HW218588   5.965   1.063   0.565 -0.5897 -0.5831 -0.2381
 5897SOL     OW18589   3.705   4.244   1.669 -0.0076 -0.0330  0.3032
 5897SOL    HW118590   3.706   4.266   1.571 -0.5297  0.3672  0.3833
 5897SOL    HW218591   3.611   4.229   1.699  0.2812 -2.2025  0.3091
 5898SOL     OW18592   3.902   0.206   1.308  0.3753 -0.4286 -0.5458
 5898SOL    HW118593   3.912   0.106   1.311  1.2971 -0.3319  1.6015
 5898SOL    HW218594   3.806   0.230   1.317  0.2677 -1.1233  0.3345
 5899SOL     OW18595   0.935   1.632   0.146 -0.5069 -0.0715  0.2168
 5899SOL    HW118596   0.900   1.544   0.178 -0.2808 -0.1399  0.2768
 5899SOL    HW218597   0.990   1.618   0.064 -1.5952  0.1739 -0.5789
 5900SOL     OW18598   5.028   5.549   1.075 -0.0149  0.5111  0.7044
 5900SOL    HW118599   4.952   5.541   1.011 -0.0373  0.3595  0.7479
 5900SOL    HW218600   5.112   5.572   1.025 -0.2194  1.3534  0.7399
 5901SOL     OW18601   1.109   0.791   6.169 -0.1154  0.0010  0.1788
 5901SOL    HW118602   1.119   0.756   6.076 -2.3440 -0.7602  0.1577
 5901SOL    HW218603   1.080   0.887   6.166 -2.3972 -0.6430 -0.0371
 5902SOL     OW18604   2.586   3.516   5.723  0.4202  0.4023  0.4589
 5902SOL    HW118605   2.640   3.479   5.799  0.8608  1.3031  0.5953
 5902SOL    HW218606   2.528   3.443   5.685  2.1215 -0.7486 -0.0697
 5903SOL     OW18607   4.640   2.034   0.616 -0.3710  0.3137 -0.1217
 5903SOL    HW118608   4.714   2.024   0.683  0.7564 -0.0014 -1.3584
 5903SOL    HW218609   4.591   2.119   0.632 -1.0669 -0.4298  1.9673
 5904SOL     OW18610   1.203   0.714   0.875 -0.1653  0.2224  0.3272
 5904SOL    HW118611   1.121   0.697   0.930 -0.3791 -1.1941 -0.3835
 5904SOL    HW218612   1.264   0.776   0.924 -1.6256  1.2522  0.8938
 5905SOL     OW18613   0.699   3.190   4.136 -0.0723  0.1765 -0.0353
 5905SOL    HW118614   0.738   3.228   4.219  0.9833 -1.1699  0.1072
 5905SOL    HW218615   0.658   3.101   4.155 -1.0829  0.4824 -0.6797
 5906SOL     OW18616   4.269   1.431   5.726  0.0043  0.6184 -0.4105
 5906SOL    HW118617   4.336   1.380   5.673  0.3552  1.7636 -1.1131
 5906SOL    HW218618   4.273   1.402   5.822  0.7078 -0.1204 -0.6538
 5907SOL     OW18619   0.539   2.986   5.259 -0.1489  0.0217  0.2758
 5907SOL    HW118620   0.634   3.015   5.250 -0.2898  0.3660 -0.1216
 5907SOL    HW218621   0.520   2.913   5.194 -0.1245 -0.1251  0.4344
 5908SOL     OW18622   3.937   2.305   1.526  0.0270 -0.2009 -0.8071
 5908SOL    HW118623   3.862   2.359   1.562 -0.7019 -0.4746 -1.8732
 5908SOL    HW218624   4.006   2.292   1.597 -1.3869 -0.8007  0.4989
 5909SOL     OW18625   6.950   5.589   1.962 -0.0204 -0.1361  0.0840
 5909SOL    HW118626   6.898   5.525   2.018  1.8304 -0.7406  1.2334
 5909SOL    HW218627   7.044   5.555   1.951  0.7586  1.9076 -0.0914
 5910SOL     OW18628   1.178   2.918   3.708  0.0448  0.1281 -0.0677
 5910SOL    HW118629   1.182   2.988   3.780  0.4735  0.4874 -0.4338
 5910SOL    HW218630   1.082   2.893   3.692  0.0026 -0.5959  1.2222
 5911SOL     OW18631   0.361   0.184   4.094  0.0278 -0.2947  0.2026
 5911SOL    HW118632   0.453   0.221   4.108  0.7946 -1.0494 -2.3184
 5911SOL    HW218633   0.344   0.111   4.160  0.9772  0.2722  1.0999
 5912SOL     OW18634   2.440   3.402   6.266 -0.7668 -0.0954 -0.3297
 5912SOL    HW118635   2.440   3.386   6.365  0.5801 -0.0319 -0.2937
 5912SOL    HW218636   2.479   3.322   6.220 -0.5034  0.2542 -0.7213
 5913SOL     OW18637   2.238   4.674   5.480  0.0620  0.1851  0.7437
 5913SOL    HW118638   2.299   4.595   5.489  0.8620  0.7297  0.2484
 5913SOL    HW218639   2.150   4.644   5.445  0.5041 -0.4387  0.1395
 5914SOL     OW18640   0.514   5.904   1.873 -0.2367  0.4277 -0.2959
 5914SOL    HW118641   0.430   5.918   1.926  0.2515  0.5293  0.4633
 5914SOL    HW218642   0.537   5.807   1.872  0.6819  0.5974  1.1593
 5915SOL     OW18643   5.179   3.331   4.089 -0.3469  0.0052 -0.1122
 5915SOL    HW118644   5.266   3.336   4.040 -0.0237 -1.5206  0.2739
 5915SOL    HW218645   5.187   3.268   4.166 -1.6398  0.2767  0.2700
 5916SOL     OW18646   1.645   7.018   6.775 -0.5341 -0.4880  0.0144
 5916SOL    HW118647   1.694   7.007   6.862  1.3478  1.0660 -0.7974
 5916SOL    HW218648   1.553   6.978   6.784 -0.8639  0.6623  3.1148
 5917SOL     OW18649   3.430   2.505   1.723 -0.1474 -0.5448 -0.5576
 5917SOL    HW118650   3.357   2.455   1.677  0.2691 -0.8016 -0.9454
 5917SOL    HW218651   3.474   2.446   1.791 -0.9121 -0.0963  0.3575
 5918SOL     OW18652   3.062   1.701   3.162  0.3877  0.0784 -0.2993
 5918SOL    HW118653   2.994   1.730   3.229  0.2134  0.2821 -0.5632
 5918SOL    HW218654   3.147   1.676   3.209 -0.4261 -1.9320  0.2085
 5919SOL     OW18655   0.672   1.798   4.954  0.9698  0.3959  0.0975
 5919SOL    HW118656   0.629   1.815   4.865 -2.3631  0.4614  1.5701
 5919SOL    HW218657   0.711   1.883   4.989 -1.7473  1.5523  0.5851
 5920SOL     OW18658   3.280   3.851   2.153  0.7891 -0.0839 -0.1991
 5920SOL    HW118659   3.205   3.909   2.119  2.2523  1.4063 -1.0154
 5920SOL    HW218660   3.268   3.835   2.251  0.8818  2.5378  0.3054
 5921SOL     OW18661   3.580   0.152   5.829  0.3262  0.0285  0.1466
 5921SOL    HW118662   3.662   0.124   5.879 -1.2209 -2.4505  1.4948
 5921SOL    HW218663   3.549   0.077   5.771 -1.4370  0.5932  0.3103
 5922SOL     OW18664   6.778   5.130   1.900  0.5451 -0.1024  0.0470
 5922SOL    HW118665   6.761   5.168   1.810  1.6472 -0.0358 -0.1434
 5922SOL    HW218666   6.694   5.088   1.935  0.2553 -0.6577 -1.2573
 5923SOL     OW18667   0.681   5.578   5.682  0.1569  0.1401  0.3012
 5923SOL    HW118668   0.630   5.585   5.596  0.6186  0.0713  0.0169
 5923SOL    HW218669   0.657   5.491   5.727  0.2976 -0.0614 -0.0087
 5924SOL     OW18670   4.200   2.701   5.384  0.2387 -0.2779  0.0396
 5924SOL    HW118671   4.173   2.622   5.329  2.2095 -0.8674 -0.1427
 5924SOL    HW218672   4.299   2.706   5.391  0.1123  0.6809  2.2712
 5925SOL     OW18673   6.514   0.547   2.353 -0.4787  0.1751  0.6039
 5925SOL    HW118674   6.562   0.465   2.321 -1.2951  0.0272 -0.2774
 5925SOL    HW218675   6.439   0.519   2.414 -0.2021  0.3281  1.0165
 5926SOL     OW18676   1.803   6.453   1.876 -0.1553  0.4481  0.0598
 5926SOL    HW118677   1.766   6.369   1.836 -0.8515  1.1305 -0.7672
 5926SOL    HW218678   1.836   6.434   1.969 -0.2260 -0.7490 -0.1443
 5927SOL     OW18679   2.090   4.830   0.497 -0.3792 -0.2313  0.2688
 5927SOL    HW118680   2.044   4.814   0.410  1.3761 -1.2614 -0.5380
 5927SOL    HW218681   2.164   4.896   0.484  0.0423 -0.5651  0.9141
 5928SOL     OW18682   5.023   5.948   2.759 -0.3558 -0.2013 -0.0992
 5928SOL    HW118683   5.112   5.937   2.715 -0.0955 -1.8796  0.7393
 5928SOL    HW218684   4.992   6.042   2.750  1.2999  0.3095 -0.7876
 5929SOL     OW18685   6.452   0.670   6.550  0.2828 -0.2630  0.1820
 5929SOL    HW118686   6.458   0.661   6.451  0.9318  0.7357  0.1183
 5929SOL    HW218687   6.414   0.586   6.589 -0.4677 -0.4719 -0.9519
 5930SOL     OW18688   0.592   1.465   3.439 -0.4156 -0.3514 -0.5989
 5930SOL    HW118689   0.639   1.378   3.423  0.3748  0.1907 -1.3344
 5930SOL    HW218690   0.515   1.474   3.376 -0.7808 -0.7136 -0.2087
 5931SOL     OW18691   0.063   5.058   6.000 -0.4759  0.1806  0.1381
 5931SOL    HW118692   0.133   5.027   5.936 -1.4264  0.7067 -1.1899
 5931SOL    HW218693   0.012   5.134   5.960 -0.7983  0.8333  1.7183
 5932SOL     OW18694   2.827   1.050   1.835  0.2890 -0.4897  0.3257
 5932SOL    HW118695   2.914   1.021   1.875  0.0098  0.4829  1.7120
 5932SOL    HW218696   2.752   1.024   1.896 -0.1980  0.5845  0.2089
 5933SOL     OW18697   5.772   1.348   3.220  0.0655 -0.4377 -0.4837
 5933SOL    HW118698   5.815   1.383   3.137 -0.2648 -0.4538 -0.6598
 5933SOL    HW218699   5.675   1.333   3.204  0.2651 -1.7599 -0.5097
 5934SOL     OW18700   3.427   2.973   2.267  0.6183  0.3113  0.3642
 5934SOL    HW118701   3.438   3.072   2.268 -0.4082  0.4456  0.8436
 5934SOL    HW218702   3.504   2.930   2.313  0.0992  1.0361  1.9993
 5935SOL     OW18703   3.227   3.819   2.439  0.1575 -0.2347 -0.5613
 5935SOL    HW118704   3.140   3.786   2.475 -0.0609  1.9592  1.1412
 5935SOL    HW218705   3.301   3.759   2.469 -0.5178 -0.9196 -0.2395
 5936SOL     OW18706   5.779   0.067   5.196  0.5351 -0.3601 -0.3553
 5936SOL    HW118707   5.755   0.131   5.269  0.4629  0.1017 -0.7832
 5936SOL    HW218708   5.860   0.015   5.224  0.1487 -0.6228  0.3100
 5937SOL     OW18709   6.404   4.203   1.796  0.3117  0.3781 -0.1713
 5937SOL    HW118710   6.496   4.179   1.827 -0.5076  0.0856  2.2156
 5937SOL    HW218711   6.369   4.131   1.736 -0.2031 -2.1193  2.8921
 5938SOL     OW18712   3.456   0.170   0.177  0.4708 -0.4252  0.0218
 5938SOL    HW118713   3.484   0.149   0.084  0.0483 -0.1987 -0.1553
 5938SOL    HW218714   3.358   0.154   0.188  0.2504  0.8542  0.0456
 5939SOL     OW18715   6.790   6.326   2.128 -0.5705  0.1116  0.1184
 5939SOL    HW118716   6.849   6.273   2.067  0.8754 -0.5304  1.9718
 5939SOL    HW218717   6.695   6.319   2.097 -0.1761 -2.0110 -0.7962
 5940SOL     OW18718   4.321   3.852   0.583 -0.4534 -0.1438 -0.5249
 5940SOL    HW118719   4.268   3.936   0.569  0.0747  0.1450 -0.8390
 5940SOL    HW218720   4.267   3.773   0.555 -0.0901  0.2849 -2.5480
 5941SOL     OW18721   5.972   3.224   2.537  0.0710  0.7890 -0.9846
 5941SOL    HW118722   5.885   3.182   2.562  1.1276 -0.0572  1.6233
 5941SOL    HW218723   6.012   3.268   2.617  4.5399 -3.4737 -0.4541
 5942SOL     OW18724   5.507   3.272   3.575  0.0657  0.0353 -0.5672
 5942SOL    HW118725   5.420   3.262   3.527  0.1391 -0.8044 -0.5540
 5942SOL    HW218726   5.565   3.336   3.525  0.3028 -1.1323 -1.8831
 5943SOL     OW18727   0.864   4.954   0.885  0.1207 -0.3621  0.1458
 5943SOL    HW118728   0.899   4.880   0.943  0.1145 -0.2451  0.2994
 5943SOL    HW218729   0.841   5.033   0.941  1.1334  0.1454 -0.1351
 5944SOL     OW18730   4.326   1.235   2.529  0.2961 -0.3371  0.2009
 5944SOL    HW118731   4.330   1.265   2.433 -0.3621  1.3569  0.6598
 5944SOL    HW218732   4.417   1.211   2.561  0.6513 -0.0896 -0.6070
 5945SOL     OW18733   0.536   5.987   6.730  0.3697  0.3870 -0.0789
 5945SOL    HW118734   0.616   5.949   6.684  0.4456 -1.0893  1.1624
 5945SOL    HW218735   0.565   6.030   6.816 -0.0221  1.1328 -0.3096
 5946SOL     OW18736   3.164   2.683   5.443  0.1950 -0.0670 -0.4638
 5946SOL    HW118737   3.193   2.658   5.535 -0.0932 -1.7753 -0.8142
 5946SOL    HW218738   3.232   2.654   5.376 -0.3081 -0.2240 -0.9198
 5947SOL     OW18739   0.561   4.673   2.283  0.6244 -0.8236  0.7598
 5947SOL    HW118740   0.597   4.630   2.200 -1.7150 -1.6570  0.1099
 5947SOL    HW218741   0.620   4.750   2.309  1.2340 -0.3176 -1.8632
 5948SOL     OW18742   3.278   5.139   2.194  0.5652 -0.1740  0.0268
 5948SOL    HW118743   3.323   5.209   2.139 -1.4951 -0.7314 -2.5530
 5948SOL    HW218744   3.315   5.049   2.173 -0.5377 -0.4424 -0.8637
 5949SOL     OW18745   6.588   6.742   2.582  0.4709  0.0787  0.5983
 5949SOL    HW118746   6.648   6.748   2.502 -0.6488 -2.4490 -0.5493
 5949SOL    HW218747   6.527   6.820   2.583 -2.0555 -1.5245 -3.3582
 5950SOL     OW18748   1.290   1.646   3.449  0.2087  0.9348  0.3816
 5950SOL    HW118749   1.338   1.703   3.382  1.1710 -0.2943 -0.0127
 5950SOL    HW218750   1.326   1.665   3.540 -1.4533  2.9845  0.6989
 5951SOL     OW18751   6.993   0.285   4.643  0.5637  0.1186 -0.1472
 5951SOL    HW118752   6.917   0.312   4.584  0.3429 -0.6837 -0.2411
 5951SOL    HW218753   7.062   0.238   4.588  1.4021  1.3290 -0.1682
 5952SOL     OW18754   6.947   6.685   6.397  0.4517  0.1779 -0.3405
 5952SOL    HW118755   6.998   6.738   6.465 -0.8957  1.0334  0.0416
 5952SOL    HW218756   6.955   6.588   6.419  1.4409  0.3208  0.0243
 5953SOL     OW18757   2.044   4.423   3.932 -0.4625 -0.0452 -0.1324
 5953SOL    HW118758   1.980   4.351   3.957 -1.9429  1.2835  0.0946
 5953SOL    HW218759   2.106   4.442   4.009  0.5240 -1.6142 -0.4966
 5954SOL     OW18760   6.779   5.609   5.439 -0.3532  0.0201  0.3805
 5954SOL    HW118761   6.696   5.588   5.387 -0.3258  0.0499  0.3240
 5954SOL    HW218762   6.800   5.532   5.499 -1.3758  0.7125  1.6596
 5955SOL     OW18763   1.919   5.455   3.701 -0.2027 -0.0817  0.2731
 5955SOL    HW118764   2.018   5.471   3.697  0.0527 -0.5427  2.8399
 5955SOL    HW218765   1.893   5.387   3.633  1.3198 -0.2330 -0.1920
 5956SOL     OW18766   0.553   2.831   2.048  0.2628  0.1992  0.6568
 5956SOL    HW118767   0.564   2.781   1.962 -1.0254  0.2323  0.4427
 5956SOL    HW218768   0.619   2.906   2.051  0.5601 -0.0153 -0.1607
 5957SOL     OW18769   4.212   0.179   6.323  0.4947  0.0662  0.1557
 5957SOL    HW118770   4.261   0.239   6.260  1.7860  0.9309  1.9071
 5957SOL    HW218771   4.189   0.229   6.406  1.6278 -1.8208  1.6929
 5958SOL     OW18772   6.137   6.698   2.001 -0.1645  0.3830  0.6385
 5958SOL    HW118773   6.198   6.716   2.079  2.6392 -0.7904 -1.1408
 5958SOL    HW218774   6.101   6.785   1.966  1.2498  1.2300  1.1916
 5959SOL     OW18775   3.125   0.782   6.995  0.7835  0.2784 -0.3513
 5959SOL    HW118776   3.081   0.809   7.081  0.0080  3.7044 -1.6177
 5959SOL    HW218777   3.105   0.686   6.975 -1.0974  0.0805  2.0627
 5960SOL     OW18778   3.186   6.090   5.107 -0.0788 -0.5089  0.5387
 5960SOL    HW118779   3.237   6.174   5.125  1.2891 -1.8027  3.3468
 5960SOL    HW218780   3.088   6.108   5.118  0.2513  0.5231  2.1283
 5961SOL     OW18781   4.728   0.779   5.082 -0.0106 -0.4019  0.1689
 5961SOL    HW118782   4.745   0.839   5.160  1.9533 -2.5662  1.5421
 5961SOL    HW218783   4.635   0.793   5.048 -0.2921  1.8986  1.6966
 5962SOL     OW18784   5.303   4.283   1.023  0.3971 -0.0751  0.5525
 5962SOL    HW118785   5.258   4.207   1.068  1.0250 -1.2358 -0.7177
 5962SOL    HW218786   5.290   4.366   1.077 -0.0813 -1.1130  2.0905
 5963SOL     OW18787   4.504   4.066   1.629 -0.5601  0.4068  0.1386
 5963SOL    HW118788   4.603   4.069   1.643 -0.6209 -0.1822  0.7560
 5963SOL    HW218789   4.458   4.108   1.708 -0.8550 -1.1269  0.8079
 5964SOL     OW18790   1.124   1.831   3.700 -0.5223  0.4268  0.8803
 5964SOL    HW118791   1.173   1.846   3.787  0.9258  1.3964 -0.0561
 5964SOL    HW218792   1.131   1.734   3.676  0.6393  0.4598  0.9829
 5965SOL     OW18793   2.150   0.874   5.230 -0.2331  0.2148  0.3554
 5965SOL    HW118794   2.186   0.968   5.230  0.3493 -0.0074  0.6174
 5965SOL    HW218795   2.110   0.854   5.319 -0.3317  0.2019  0.3083
 5966SOL     OW18796   1.106   5.158   0.828 -0.1589  0.2946  0.2441
 5966SOL    HW118797   1.086   5.099   0.750 -2.2032  0.7310  0.3808
 5966SOL    HW218798   1.024   5.169   0.884  0.8122  1.3522  1.5431
 5967SOL     OW18799   5.266   5.280   1.748  0.0077  0.6382  0.5715
 5967SOL    HW118800   5.308   5.284   1.657  0.0058 -0.1076  0.5315
 5967SOL    HW218801   5.297   5.358   1.802 -0.8960  1.7345 -0.4401
 5968SOL     OW18802   6.009   2.484   3.649  0.8415  0.2496 -0.3971
 5968SOL    HW118803   6.005   2.529   3.559  0.4720  0.7142 -0.1503
 5968SOL    HW218804   5.948   2.405   3.648  0.5530  0.4718 -0.4350
 5969SOL     OW18805   0.851   3.338   3.530  0.8105  0.1765  0.2648
 5969SOL    HW118806   0.911   3.331   3.610 -1.7000 -2.0120  2.1387
 5969SOL    HW218807   0.762   3.374   3.558 -0.1134 -0.5763 -1.5600
 5970SOL     OW18808   1.668   2.267   2.604 -0.1119  0.0665 -0.6429
 5970SOL    HW118809   1.645   2.331   2.678  1.4146 -3.2368  3.0770
 5970SOL    HW218810   1.766   2.270   2.587 -0.3781  0.3904 -2.2358
 5971SOL     OW18811   3.525   5.631   4.527 -0.0973 -0.1165  0.0597
 5971SOL    HW118812   3.582   5.677   4.595  0.3596 -0.4047 -0.1243
 5971SOL    HW218813   3.525   5.533   4.543 -0.7238 -0.0998  0.1888
 5972SOL     OW18814   3.086   6.487   0.084  0.5559  0.2444 -0.1258
 5972SOL    HW118815   3.009   6.472   0.022  0.4418 -1.1268  0.3250
 5972SOL    HW218816   3.119   6.399   0.118  0.4180  0.9542  1.9886
 5973SOL     OW18817   2.954   5.914   4.151 -0.0391 -0.2025  0.1714
 5973SOL    HW118818   2.897   5.853   4.096  1.1097 -0.5409 -0.6829
 5973SOL    HW218819   2.900   5.994   4.179 -1.1040 -0.8313 -0.0500
 5974SOL     OW18820   6.556   5.769   6.163 -0.4460  0.5585  0.1773
 5974SOL    HW118821   6.651   5.740   6.168 -0.1854  1.0752 -1.4630
 5974SOL    HW218822   6.514   5.758   6.253  1.5737  1.8282  1.3488
 5975SOL     OW18823   3.050   0.534   0.673  0.0559 -0.6005  0.2297
 5975SOL    HW118824   3.013   0.608   0.616  0.4158 -1.1004 -0.6764
 5975SOL    HW218825   2.990   0.520   0.751 -1.0350 -0.5998 -0.5784
 5976SOL     OW18826   2.217   3.162   6.456  0.5646  0.2479 -0.6431
 5976SOL    HW118827   2.149   3.090   6.444  1.2037 -0.5917  0.5688
 5976SOL    HW218828   2.171   3.251   6.451 -0.7982 -0.3066  0.9143
 5977SOL     OW18829   6.838   4.354   2.103  0.7025 -0.2907  0.1098
 5977SOL    HW118830   6.856   4.414   2.025  0.7900  0.1276  0.4517
 5977SOL    HW218831   6.872   4.396   2.186 -0.1748 -0.3320  0.5059
 5978SOL     OW18832   5.829   4.316   1.082 -0.1116  0.2243 -0.1298
 5978SOL    HW118833   5.798   4.387   1.019 -1.4392  1.1775  1.5378
 5978SOL    HW218834   5.817   4.347   1.176 -0.2933 -2.0415  0.6453
 5979SOL     OW18835   2.774   0.424   3.372 -0.0849 -0.4517 -0.2145
 5979SOL    HW118836   2.750   0.400   3.278  0.1458 -0.0640 -0.3747
 5979SOL    HW218837   2.712   0.377   3.435  0.2958 -1.3854 -0.5163
 5980SOL     OW18838   5.728   4.421   3.658 -0.3785 -0.1919 -0.0728
 5980SOL    HW118839   5.653   4.388   3.601  0.0720  1.0242 -1.4073
 5980SOL    HW218840   5.705   4.511   3.695  0.3018  0.0747 -0.2849
 5981SOL     OW18841   2.544   1.435   1.004  0.1024  0.0915 -0.2089
 5981SOL    HW118842   2.503   1.351   1.040 -3.0866  0.4823 -2.4991
 5981SOL    HW218843   2.554   1.501   1.079  1.5769 -1.8319  1.4073
 5982SOL     OW18844   4.342   5.063   0.695 -0.3690  0.2975  0.0013
 5982SOL    HW118845   4.332   5.122   0.615  3.7988  1.1959 -0.0979
 5982SOL    HW218846   4.374   4.973   0.666 -0.1304  0.1959  0.5552
 5983SOL     OW18847   5.616   1.561   5.282 -0.1681 -0.2046  0.1969
 5983SOL    HW118848   5.687   1.495   5.258 -0.1703  0.4349 -1.7744
 5983SOL    HW218849   5.659   1.642   5.323  0.1032 -0.3836  0.2702
 5984SOL     OW18850   1.638   6.767   5.420 -0.0348  0.0759 -0.1929
 5984SOL    HW118851   1.571   6.702   5.456 -0.5614  0.1377 -1.0236
 5984SOL    HW218852   1.706   6.788   5.490 -0.0626 -1.0948  0.2007
 5985SOL     OW18853   6.143   3.340   2.360 -0.2139 -0.1916 -0.2678
 5985SOL    HW118854   6.078   3.303   2.426 -0.1758 -0.8300 -0.5855
 5985SOL    HW218855   6.108   3.426   2.323 -0.7363 -0.3852 -0.2201
 5986SOL     OW18856   3.861   3.657   2.553  0.2368  0.2663  0.4754
 5986SOL    HW118857   3.906   3.691   2.471  2.4735 -1.8955  0.6933
 5986SOL    HW218858   3.774   3.614   2.529  0.0432  1.1645 -0.4929
 5987SOL     OW18859   3.466   6.670   5.474 -0.0062 -0.2732  0.4879
 5987SOL    HW118860   3.531   6.684   5.550  0.9824  0.5092 -0.4633
 5987SOL    HW218861   3.376   6.647   5.511  0.7671 -1.2469  1.8577
 5988SOL     OW18862   2.307   0.667   6.585  0.5904 -0.2979 -0.0897
 5988SOL    HW118863   2.290   0.670   6.683  0.9518 -0.2539 -0.0263
 5988SOL    HW218864   2.383   0.729   6.562 -0.0584  0.3618 -0.5127
 5989SOL     OW18865   4.684   0.558   6.507  0.4691  0.0289 -0.4323
 5989SOL    HW118866   4.626   0.639   6.522  0.0918 -0.1524 -0.8755
 5989SOL    HW218867   4.635   0.477   6.539  0.5279 -0.1116 -0.7002
 5990SOL     OW18868   2.639   4.640   4.410 -0.3056 -0.1135  0.3934
 5990SOL    HW118869   2.589   4.633   4.496 -0.3113 -0.5830  0.3537
 5990SOL    HW218870   2.725   4.690   4.425  0.4131 -1.4876  0.9923
 5991SOL     OW18871   5.060   5.254   3.665  0.3355  0.5332 -0.6008
 5991SOL    HW118872   5.058   5.279   3.762 -0.3343 -3.1394  0.4576
 5991SOL    HW218873   4.993   5.310   3.615 -1.0721  0.8609  1.5241
 5992SOL     OW18874   3.842   0.317   6.208  0.4720 -0.1831 -0.0109
 5992SOL    HW118875   3.813   0.285   6.298  3.0146 -1.6189  0.4043
 5992SOL    HW218876   3.772   0.377   6.169 -0.5648  0.7608  3.0332
 5993SOL     OW18877   1.727   0.113   6.533 -0.7052 -0.2121  0.1557
 5993SOL    HW118878   1.723   0.072   6.624 -2.4127 -0.1561  0.1448
 5993SOL    HW218879   1.757   0.208   6.541 -0.7679 -0.2301  0.6660
 5994SOL     OW18880   0.309   2.584   6.714  0.0221  0.2354 -0.8965
 5994SOL    HW118881   0.299   2.683   6.705 -1.0762  0.1322 -0.9734
 5994SOL    HW218882   0.309   2.559   6.811  2.2287  0.4620 -0.7851
 5995SOL     OW18883   6.548   4.145   1.188 -0.5516  0.0015  0.1224
 5995SOL    HW118884   6.525   4.194   1.272  1.4883 -0.0362  0.7592
 5995SOL    HW218885   6.565   4.211   1.114  1.7876  0.3317  0.8729
 5996SOL     OW18886   1.181   6.401   6.742 -0.0254  0.2637  0.2945
 5996SOL    HW118887   1.196   6.499   6.727  0.7838  0.0602 -0.2828
 5996SOL    HW218888   1.248   6.367   6.807  0.0547 -0.0186  0.0663
 5997SOL     OW18889   0.420   0.091   1.581 -0.2639  0.5277  0.0262
 5997SOL    HW118890   0.415  -0.003   1.616 -0.8762  0.1476 -1.0170
 5997SOL    HW218891   0.471   0.092   1.495 -1.0744  0.9762 -0.4710
 5998SOL     OW18892   4.396   4.968   2.329  0.7223  0.0879  0.2832
 5998SOL    HW118893   4.304   4.952   2.363  0.4708  0.1400 -0.3611
 5998SOL    HW218894   4.428   5.058   2.360  0.5163  0.1163  0.4121
 5999SOL     OW18895   0.600   1.609   2.652  0.1542 -0.6994 -0.3720
 5999SOL    HW118896   0.628   1.612   2.748  0.9623 -2.1248 -0.5419
 5999SOL    HW218897   0.525   1.673   2.637 -0.1724 -0.6716  1.2724
 6000SOL     OW18898   6.344   2.962   1.630  0.6371  0.6162  1.0362
 6000SOL    HW118899   6.316   2.956   1.534  1.7323 -0.2290  0.7453
 6000SOL    HW218900   6.330   3.055   1.663  2.6754  1.6394 -0.7336
 6001SOL     OW18901   3.660   2.633   0.186  0.2773 -0.2515 -0.6609
 6001SOL    HW118902   3.606   2.706   0.143 -1.3656 -1.0357 -0.0134
 6001SOL    HW218903   3.754   2.638   0.153 -0.2781  0.8631 -2.2416
 6002SOL     OW18904   1.187   6.694   4.732 -0.3068  0.5618 -0.2368
 6002SOL    HW118905   1.284   6.673   4.745 -0.1971  2.2811  2.4609
 6002SOL    HW218906   1.132   6.633   4.788 -0.8056 -0.0709 -1.3745
 6003SOL     OW18907   5.160   4.242   3.321  0.1855  0.0487  0.5420
 6003SOL    HW118908   5.133   4.271   3.413  0.2710 -0.0145  0.5873
 6003SOL    HW218909   5.240   4.182   3.327 -0.7885 -1.2943  0.5660
 6004SOL     OW18910   2.454   5.633   6.865 -0.1709  0.3600 -0.9101
 6004SOL    HW118911   2.390   5.560   6.889 -0.2910  0.0665 -2.0847
 6004SOL    HW218912   2.470   5.634   6.766  2.3702 -0.1826 -0.5841
 6005SOL     OW18913   1.473   0.208   2.740 -0.2209 -0.3129  0.0519
 6005SOL    HW118914   1.481   0.127   2.681 -2.4050  0.0955 -0.8879
 6005SOL    HW218915   1.385   0.252   2.724  0.0742  1.1071  2.0523
 6006SOL     OW18916   1.660   6.845   1.351 -0.1820  0.1725 -0.4934
 6006SOL    HW118917   1.712   6.929   1.366 -0.7179  0.8202 -2.0319
 6006SOL    HW218918   1.576   6.867   1.301 -0.6952 -1.1967 -0.2707
 6007SOL     OW18919   5.844   3.489   4.041 -0.4015 -0.6626  0.2063
 6007SOL    HW118920   5.799   3.437   3.968 -0.3724 -1.5703  0.8142
 6007SOL    HW218921   5.879   3.575   4.004 -1.9915 -0.2652 -0.4447
 6008SOL     OW18922   4.722   5.337   2.157  0.1433  0.1117 -0.1936
 6008SOL    HW118923   4.780   5.336   2.075 -0.5447 -0.3237 -0.6815
 6008SOL    HW218924   4.649   5.270   2.146  0.1739 -0.1001  0.8753
 6009SOL     OW18925   3.424   1.277   6.627 -0.8405  0.0101  0.3855
 6009SOL    HW118926   3.499   1.312   6.684 -0.5507  1.5498 -0.8670
 6009SOL    HW218927   3.374   1.206   6.677  1.3534 -0.9707  1.3043
 6010SOL     OW18928   0.901   4.915   2.423 -0.5338 -0.5704  0.1759
 6010SOL    HW118929   0.974   4.974   2.390  0.3100 -0.8228  1.4935
 6010SOL    HW218930   0.876   4.942   2.517 -2.0100 -0.6094 -0.1714
 6011SOL     OW18931   6.895   2.607   1.243 -0.2777 -0.6025  0.2746
 6011SOL    HW118932   6.866   2.682   1.183 -1.6215 -0.3899  1.1401
 6011SOL    HW218933   6.849   2.523   1.215 -1.0067 -0.4762  1.0455
 6012SOL     OW18934   5.654   3.436   6.514 -0.3935 -0.0295 -0.4723
 6012SOL    HW118935   5.663   3.402   6.420  0.0417  1.9115 -1.1958
 6012SOL    HW218936   5.739   3.417   6.564  0.4388  1.2516 -1.3288
 6013SOL     OW18937   5.237   1.389   0.731 -0.1167 -0.1710 -0.4773
 6013SOL    HW118938   5.282   1.371   0.819  0.9323 -2.0311 -1.3404
 6013SOL    HW218939   5.237   1.488   0.714  0.1101  0.1845  1.3629
 6014SOL     OW18940   4.085   0.968   0.804  0.1374  0.4609 -0.1936
 6014SOL    HW118941   4.127   1.058   0.788 -0.6813  0.6263 -1.6165
 6014SOL    HW218942   3.989   0.971   0.776 -0.1797 -0.5774  0.7366
 6015SOL     OW18943   6.251   0.218   4.883 -0.1787 -0.4203  0.0753
 6015SOL    HW118944   6.228   0.178   4.972 -1.5746 -3.7436 -1.6060
 6015SOL    HW218945   6.172   0.268   4.847  0.2075  0.4697  0.4353
 6016SOL     OW18946   0.704   0.680   6.728  0.3581 -0.6990  0.0581
 6016SOL    HW118947   0.781   0.739   6.705 -0.4210 -0.2715 -1.6473
 6016SOL    HW218948   0.708   0.597   6.672 -1.0613 -0.1008 -0.9891
 6017SOL     OW18949   6.606   3.404   2.890  0.3045 -0.5741  0.1621
 6017SOL    HW118950   6.653   3.329   2.934  0.2175 -0.8470 -0.2026
 6017SOL    HW218951   6.667   3.450   2.826 -0.2096 -1.5802 -1.0855
 6018SOL     OW18952   3.625   4.893   2.461  0.0203  0.4483  0.2495
 6018SOL    HW118953   3.681   4.885   2.378 -0.3910 -0.1261  0.0281
 6018SOL    HW218954   3.673   4.850   2.537  1.2715  2.5967  0.7649
 6019SOL     OW18955   6.187   1.557   4.712 -0.5373 -0.1679 -0.4857
 6019SOL    HW118956   6.092   1.554   4.681 -0.9733  0.3506  0.7512
 6019SOL    HW218957   6.214   1.652   4.728 -0.3088 -0.3951  0.5946
 6020SOL     OW18958   2.425   5.466   2.906  0.1316 -0.5652  0.7960
 6020SOL    HW118959   2.341   5.510   2.874 -0.2438 -0.6239  1.6659
 6020SOL    HW218960   2.417   5.447   3.004  1.9184  1.1836  1.3397
 6021SOL     OW18961   2.997   1.276   4.543 -0.0402 -0.2184 -0.4771
 6021SOL    HW118962   3.044   1.342   4.485  0.4345  0.5319  0.7284
 6021SOL    HW218963   2.937   1.219   4.487  0.6427  0.2628 -1.7371
 6022SOL     OW18964   3.147   3.169   5.580  0.0259  0.2753  0.1829
 6022SOL    HW118965   3.173   3.198   5.487 -2.2492  2.3742  0.1173
 6022SOL    HW218966   3.088   3.088   5.574 -1.0813  1.0981 -0.3265
 6023SOL     OW18967   0.343   6.710   2.968  0.3377  0.0697  0.1182
 6023SOL    HW118968   0.298   6.781   2.915 -1.8939 -1.7689 -0.6276
 6023SOL    HW218969   0.438   6.700   2.938 -0.3648  0.2504 -2.3630
 6024SOL     OW18970   5.561   5.673   0.853 -0.4853 -0.0493 -0.3346
 6024SOL    HW118971   5.523   5.587   0.819  0.5414  0.0355 -1.7996
 6024SOL    HW218972   5.606   5.658   0.940 -0.6186 -0.9231 -0.4150
 6025SOL     OW18973   5.973   2.734   1.520 -0.6188 -0.4555  0.4529
 6025SOL    HW118974   5.909   2.726   1.596  0.2634  1.6139  1.4783
 6025SOL    HW218975   5.931   2.785   1.445 -0.0232  1.4774  1.3839
 6026SOL     OW18976   6.876   5.448   6.173 -0.0029  0.2980 -0.0154
 6026SOL    HW118977   6.844   5.534   6.211  0.5292  0.1267  0.8683
 6026SOL    HW218978   6.831   5.430   6.086 -1.3177  0.6752  0.5750
 6027SOL     OW18979   2.741   4.534   6.200  0.4370 -0.0605  0.4737
 6027SOL    HW118980   2.717   4.600   6.130 -0.6803 -0.4775  0.4415
 6027SOL    HW218981   2.736   4.577   6.290 -0.2353 -0.0772  0.4494
 6028SOL     OW18982   1.681   4.547   6.570  0.3802  0.0272 -0.6012
 6028SOL    HW118983   1.718   4.592   6.490  0.8191  0.6260 -0.0721
 6028SOL    HW218984   1.718   4.454   6.576  0.2257 -0.0734 -1.1691
 6029SOL     OW18985   1.871   5.556   2.235 -0.2677  0.1837  0.1292
 6029SOL    HW118986   1.845   5.461   2.214 -0.4179 -0.0316  1.2515
 6029SOL    HW218987   1.858   5.612   2.153 -0.4563 -0.7000 -0.4690
 6030SOL     OW18988   2.463   5.592   2.031  0.3808  0.8808 -0.6474
 6030SOL    HW118989   2.463   5.650   2.112  0.5104  1.6250 -1.1700
 6030SOL    HW218990   2.421   5.641   1.955  0.5249  0.3043 -1.1050
 6031SOL     OW18991   5.156   0.714   3.776 -0.3598 -0.3333  0.0416
 6031SOL    HW118992   5.108   0.640   3.729 -1.7443  0.2022  0.5825
 6031SOL    HW218993   5.159   0.794   3.716  1.7219 -0.9649 -0.8136
 6032SOL     OW18994   1.810   4.548   2.716  0.0410 -0.2699 -0.0407
 6032SOL    HW118995   1.903   4.514   2.705  0.3547  0.0323  1.5463
 6032SOL    HW218996   1.745   4.475   2.692  0.6622 -0.5657 -0.8851
 6033SOL     OW18997   0.663   5.294   5.866 -0.2023  0.2614 -0.2489
 6033SOL    HW118998   0.695   5.351   5.941  0.4513  1.0008 -1.0576
 6033SOL    HW218999   0.638   5.203   5.900  1.0153  0.2623  0.7067
 6034SOL     OW19000   4.738   5.345   3.863  0.1121  0.2941  0.4387
 6034SOL    HW119001   4.643   5.323   3.842  0.4976 -0.0635 -1.0272
 6034SOL    HW219002   4.766   5.296   3.945 -0.9697  0.4204  0.8942
 6035SOL     OW19003   4.617   0.559   2.382  0.2090 -0.5677 -0.2048
 6035SOL    HW119004   4.691   0.493   2.399  0.3492 -1.0011 -2.2634
 6035SOL    HW219005   4.529   0.515   2.401  0.3560 -0.9349 -0.3539
 6036SOL     OW19006   4.092   1.020   6.071  0.1678 -0.0459 -0.1679
 6036SOL    HW119007   4.134   0.938   6.033  1.3382  0.6401 -0.3961
 6036SOL    HW219008   4.153   1.062   6.138  0.6855  1.9103 -1.7357
 6037SOL     OW19009   0.081   5.047   4.788  0.2351  0.9970 -0.1474
 6037SOL    HW119010   0.026   5.007   4.714 -0.1772  1.3237 -0.0173
 6037SOL    HW219011   0.155   5.101   4.748  0.7619  0.1686 -0.3275
 6038SOL     OW19012   0.349   3.487   6.640 -0.7973  0.1223 -0.0466
 6038SOL    HW119013   0.361   3.409   6.579 -1.3729 -0.1849  0.2255
 6038SOL    HW219014   0.414   3.559   6.616 -0.5199 -0.2925 -0.5405
 6039SOL     OW19015   3.573   3.609   3.802  0.4436 -0.2340 -0.0739
 6039SOL    HW119016   3.585   3.542   3.729 -1.1935 -1.2510  0.5354
 6039SOL    HW219017   3.636   3.686   3.788  1.2304 -1.1293 -1.6768
 6040SOL     OW19018   0.525   0.917   1.315 -0.0470  0.4140 -0.6392
 6040SOL    HW119019   0.512   1.011   1.283  2.5972  1.3028  0.5708
 6040SOL    HW219020   0.461   0.897   1.389 -0.7208  1.2068 -0.9950
 6041SOL     OW19021   0.926   2.930   5.785  1.0974 -0.1457 -0.0220
 6041SOL    HW119022   0.931   3.030   5.788  0.7041 -0.0858 -0.9826
 6041SOL    HW219023   0.983   2.892   5.858  2.6196  0.7436 -0.7045
 6042SOL     OW19024   4.683   6.299   4.371 -0.2839 -0.5918  0.0639
 6042SOL    HW119025   4.734   6.332   4.292  1.9145 -0.0168  1.6113
 6042SOL    HW219026   4.659   6.376   4.430 -0.8281 -1.1140  0.5414
 6043SOL     OW19027   0.332   2.307   4.048 -0.2014 -0.2557 -0.7383
 6043SOL    HW119028   0.251   2.259   4.083 -0.4223 -1.3191 -2.5679
 6043SOL    HW219029   0.387   2.244   3.993  1.7518  0.5354  0.2253
 6044SOL     OW19030   0.329   6.700   0.901 -0.6868 -0.1320 -0.0211
 6044SOL    HW119031   0.327   6.678   0.998  0.8934 -1.9495 -0.3315
 6044SOL    HW219032   0.424   6.708   0.870 -1.1497  0.1075 -1.4627
 6045SOL     OW19033   0.195   5.481   6.531 -0.2065 -0.2596  0.0782
 6045SOL    HW119034   0.184   5.477   6.431 -0.5636 -0.4054  0.1256
 6045SOL    HW219035   0.124   5.427   6.575 -0.7857  0.7874  0.4548
 6046SOL     OW19036   0.792   2.702   1.154  0.3835 -0.0497  0.1087
 6046SOL    HW119037   0.843   2.788   1.149  0.1816  0.0123 -2.8537
 6046SOL    HW219038   0.853   2.629   1.185  1.3037  0.6834  0.0812
 6047SOL     OW19039   1.608   4.421   5.386  0.0539 -0.0422 -0.3591
 6047SOL    HW119040   1.667   4.501   5.381 -1.3594  1.0921  0.4928
 6047SOL    HW219041   1.664   4.339   5.391  1.5490  0.9724  0.1135
 6048SOL     OW19042   5.520   6.561   3.696 -0.1311  0.0521 -0.2729
 6048SOL    HW119043   5.480   6.471   3.678  1.5079 -0.4926 -1.3552
 6048SOL    HW219044   5.492   6.625   3.624 -1.9495  0.6960  0.9121
 6049SOL     OW19045   1.716   5.556   7.015  0.0207  0.5370 -0.4167
 6049SOL    HW119046   1.674   5.618   6.948 -1.4555  0.2457  0.1899
 6049SOL    HW219047   1.798   5.598   7.053 -0.5461  1.8013 -0.5488
 6050SOL     OW19048   6.673   4.509   5.516  0.0750 -0.3718 -0.3012
 6050SOL    HW119049   6.601   4.573   5.540  1.7878  1.7892 -0.5691
 6050SOL    HW219050   6.635   4.418   5.504 -2.5941  0.7271 -0.6934
 6051SOL     OW19051   2.058   1.471   4.282  0.0453  0.2221  0.4576
 6051SOL    HW119052   2.063   1.480   4.382  0.6109  3.1355  0.2693
 6051SOL    HW219053   1.967   1.496   4.250  0.2611  0.6441  0.1616
 6052SOL     OW19054   0.382   1.641   1.493 -0.0440  0.4133 -0.5363
 6052SOL    HW119055   0.447   1.571   1.462  0.9731  0.4570  1.3553
 6052SOL    HW219056   0.407   1.671   1.585 -1.5863  1.9170 -0.5634
 6053SOL     OW19057   0.504   5.267   6.181  0.5142  0.7355  0.1420
 6053SOL    HW119058   0.594   5.274   6.224 -0.6192 -0.1837  2.9115
 6053SOL    HW219059   0.474   5.358   6.151  1.7542  1.2680  0.4514
 6054SOL     OW19060   0.385   2.880   6.231 -0.1551 -0.1740 -0.2418
 6054SOL    HW119061   0.453   2.879   6.305  1.7277 -0.0343 -1.8808
 6054SOL    HW219062   0.342   2.790   6.225 -2.2766  0.5018  2.6188
 6055SOL     OW19063   5.416   0.066   2.743 -0.5499 -0.0224  0.1945
 6055SOL    HW119064   5.360   0.123   2.803 -1.3854  0.5523 -1.0961
 6055SOL    HW219065   5.360  -0.010   2.708  0.0374 -0.5747  0.4253
 6056SOL     OW19066   5.718   4.297   6.640 -0.2995 -0.1942 -0.6067
 6056SOL    HW119067   5.787   4.226   6.646  0.8926  0.8753 -1.1367
 6056SOL    HW219068   5.682   4.317   6.731  0.5707 -0.3158 -0.2321
 6057SOL     OW19069   4.500   6.910   0.810  0.0022  0.4260  0.2600
 6057SOL    HW119070   4.517   6.812   0.801  1.9116  0.8533 -1.4080
 6057SOL    HW219071   4.420   6.925   0.868 -0.4728 -2.1112  0.3468
 6058SOL     OW19072   4.357   1.693   5.554  0.6621 -0.0528  0.0349
 6058SOL    HW119073   4.377   1.635   5.475 -0.6959  0.7081 -0.8992
 6058SOL    HW219074   4.258   1.703   5.565  0.8361  1.8131  0.3528
 6059SOL     OW19075   6.935   4.874   0.351 -0.2433 -0.0677  0.1033
 6059SOL    HW119076   6.887   4.959   0.329  2.2639  0.6329 -3.5381
 6059SOL    HW219077   7.023   4.872   0.304  1.8073 -2.8362  3.5560
 6060SOL     OW19078   4.603   5.754   0.631 -0.0295 -0.0878  0.0996
 6060SOL    HW119079   4.551   5.669   0.635  0.3916 -0.4702 -1.5896
 6060SOL    HW219080   4.542   5.832   0.645 -1.5697 -0.4036 -3.5893
 6061SOL     OW19081   1.087   2.776   0.315  0.1266 -0.4768 -0.3046
 6061SOL    HW119082   1.006   2.835   0.326 -0.2518 -1.0935  0.3036
 6061SOL    HW219083   1.169   2.830   0.333 -0.1524  0.1228 -0.7747
 6062SOL     OW19084   0.338   5.794   4.777  0.3316  0.2550 -0.7187
 6062SOL    HW119085   0.406   5.721   4.775 -0.7480 -0.8434  0.4987
 6062SOL    HW219086   0.339   5.838   4.867 -1.6608 -0.9174 -0.0607
 6063SOL     OW19087   0.363   6.217   6.953 -0.1760 -0.7183 -0.0822
 6063SOL    HW119088   0.420   6.290   6.918  0.5493 -0.8655  0.7516
 6063SOL    HW219089   0.419   6.136   6.971 -0.4518 -0.5609  1.6405
 6064SOL     OW19090   0.716   4.889   1.277  0.2433  0.6365 -0.5684
 6064SOL    HW119091   0.772   4.823   1.327  0.7960  0.6289 -1.1835
 6064SOL    HW219092   0.625   4.850   1.262  0.4197  0.2020 -0.5259
 6065SOL     OW19093   4.805   6.658   2.541  0.0734 -0.6294 -0.2067
 6065SOL    HW119094   4.749   6.712   2.604  0.6094 -0.9307  0.5437
 6065SOL    HW219095   4.896   6.699   2.535 -0.0731 -0.4122 -1.0536
 6066SOL     OW19096   5.061   1.019   5.970  0.3891 -0.5728  0.2152
 6066SOL    HW119097   5.101   0.941   6.017  0.7620  0.3868  1.5487
 6066SOL    HW219098   4.962   1.007   5.963  0.6352 -2.1287 -1.5168
 6067SOL     OW19099   5.181   2.507   1.098  0.1612 -0.3410  1.1968
 6067SOL    HW119100   5.254   2.463   1.150  1.1197  2.2073  2.1689
 6067SOL    HW219101   5.101   2.519   1.157 -0.0569 -0.6451  0.9691
 6068SOL     OW19102   4.382   0.588   5.479  0.1065  0.0824 -0.3928
 6068SOL    HW119103   4.422   0.527   5.411  1.6730  2.2573 -1.5067
 6068SOL    HW219104   4.424   0.678   5.473 -1.5206  1.0805  1.7764
 6069SOL     OW19105   6.897   4.243   3.373 -0.7238 -0.4539 -0.0058
 6069SOL    HW119106   6.897   4.243   3.473 -0.4407  2.2016  0.0412
 6069SOL    HW219107   6.991   4.242   3.339 -0.5789  3.3366 -0.0766
 6070SOL     OW19108   6.507   3.709   6.333 -0.1110  0.3162 -0.3070
 6070SOL    HW119109   6.484   3.633   6.393 -1.7049  0.5632 -0.5649
 6070SOL    HW219110   6.505   3.794   6.385 -0.0829  0.3745 -0.4009
 6071SOL     OW19111   6.266   0.860   0.813  0.4709 -0.0685  0.6778
 6071SOL    HW119112   6.167   0.859   0.820  0.4873  1.4128  1.5336
 6071SOL    HW219113   6.295   0.805   0.734 -1.1405  1.1414 -0.8160
 6072SOL     OW19114   4.161   1.070   1.326  0.0825  0.1370 -0.4124
 6072SOL    HW119115   4.103   1.063   1.407 -1.1230 -0.6912 -1.3113
 6072SOL    HW219116   4.257   1.069   1.354 -0.2990 -0.7433  0.9664
 6073SOL     OW19117   4.519   6.436   2.411 -0.3690 -0.4565  0.0190
 6073SOL    HW119118   4.436   6.424   2.356 -0.6664 -2.6435  0.8358
 6073SOL    HW219119   4.573   6.511   2.373 -1.6547 -0.4075 -1.8654
 6074SOL     OW19120   1.177   2.309   5.749 -0.6390  0.6615  0.6671
 6074SOL    HW119121   1.099   2.304   5.687 -1.2251  2.0052  1.2550
 6074SOL    HW219122   1.178   2.228   5.808 -0.4936 -0.2655 -0.5709
 6075SOL     OW19123   4.543   2.339   5.850  0.2244  0.6046  0.1592
 6075SOL    HW119124   4.570   2.419   5.904  0.4435 -0.7746  2.2219
 6075SOL    HW219125   4.570   2.256   5.898 -0.8098 -0.7429 -1.4688
 6076SOL     OW19126   3.381   6.747   6.102 -0.3894 -0.1204 -0.3884
 6076SOL    HW119127   3.291   6.789   6.106 -0.2544  0.2368 -0.9172
 6076SOL    HW219128   3.452   6.818   6.111 -0.1613 -0.4186  0.2000
 6077SOL     OW19129   3.999   4.853   4.335 -0.0624 -0.3603 -0.3432
 6077SOL    HW119130   4.016   4.810   4.424  1.7545  0.1856 -0.3925
 6077SOL    HW219131   4.056   4.810   4.266 -0.0566  0.4657 -0.8678
 6078SOL     OW19132   3.065   5.084   5.690 -0.0450  0.2231 -0.3001
 6078SOL    HW119133   3.112   5.016   5.746 -0.5644  1.0947  1.2441
 6078SOL    HW219134   2.968   5.087   5.716 -0.3624  0.4625 -1.4434
 6079SOL     OW19135   3.610   3.641   0.092 -0.6396  0.1483 -0.0698
 6079SOL    HW119136   3.666   3.722   0.071  1.3413 -0.4309  2.5196
 6079SOL    HW219137   3.515   3.660   0.068  0.0959  2.4262 -1.5418
 6080SOL     OW19138   6.189   3.060   1.935 -0.8024 -0.5525 -0.6375
 6080SOL    HW119139   6.131   3.052   2.016 -0.1010 -0.9060 -0.1525
 6080SOL    HW219140   6.206   2.970   1.897  1.5297 -0.7971  0.7790
 6081SOL     OW19141   0.389   4.337   0.443 -0.1036  0.0257 -0.1115
 6081SOL    HW119142   0.342   4.422   0.417 -1.2809 -0.3640  0.6679
 6081SOL    HW219143   0.352   4.304   0.530  1.1001 -0.7174  0.1444
 6082SOL     OW19144   3.212   1.750   0.209  0.0406 -0.0754 -0.1614
 6082SOL    HW119145   3.213   1.675   0.143 -2.0294 -1.3281  1.0880
 6082SOL    HW219146   3.119   1.787   0.214  0.0453 -0.2643  2.2480
 6083SOL     OW19147   6.823   0.792   5.725  0.5483  0.3374  0.1548
 6083SOL    HW119148   6.798   0.874   5.673  1.2661  0.5886  0.2017
 6083SOL    HW219149   6.856   0.818   5.815  2.2317  0.1133 -0.3700
 6084SOL     OW19150   0.453   0.020   0.175 -0.9214  0.6721 -0.4563
 6084SOL    HW119151   0.475   0.051   0.268  1.7530 -0.1482 -0.7340
 6084SOL    HW219152   0.376  -0.044   0.179 -0.3438  0.0095  1.3253
 6085SOL     OW19153   6.115   0.140   1.392  0.6378 -0.3152 -0.0906
 6085SOL    HW119154   6.155   0.205   1.327 -0.3920  1.7445  1.2509
 6085SOL    HW219155   6.159   0.051   1.380  1.7252  0.4387 -2.3637
 6086SOL     OW19156   1.803   3.523   1.561  0.0691 -0.5541 -0.1151
 6086SOL    HW119157   1.756   3.500   1.646 -0.2759 -1.1605 -0.4634
 6086SOL    HW219158   1.848   3.612   1.571 -0.2869 -0.4420  0.5654
 6087SOL     OW19159   4.506   0.551   6.809 -0.0806  0.9382  0.1244
 6087SOL    HW119160   4.437   0.479   6.799  0.9748 -0.7880  3.8617
 6087SOL    HW219161   4.594   0.510   6.831  0.5735  3.3328  2.3588
 6088SOL     OW19162   0.963   0.042   2.959  0.5505 -0.1435  0.1281
 6088SOL    HW119163   0.998   0.050   3.052  0.0015  0.1424  0.3144
 6088SOL    HW219164   0.910   0.124   2.936  0.2132 -0.4568 -0.2385
 6089SOL     OW19165   7.022   3.642   2.571  0.0847 -0.1990  0.0556
 6089SOL    HW119166   6.973   3.683   2.494 -0.5424  0.6760  0.8950
 6089SOL    HW219167   7.025   3.707   2.647 -0.1856 -1.3974  1.1305
 6090SOL     OW19168   5.472   0.774   3.800  0.0709 -0.2823 -0.1151
 6090SOL    HW119169   5.542   0.764   3.730  1.9370  0.4198  1.5684
 6090SOL    HW219170   5.431   0.685   3.820  1.3841 -0.9368 -0.2401
 6091SOL     OW19171   0.910   2.532   0.799  0.0061 -0.3380 -0.9991
 6091SOL    HW119172   0.863   2.488   0.722 -0.1745 -0.2919 -0.9150
 6091SOL    HW219173   0.866   2.507   0.885 -1.7715  1.9989 -1.1017
 6092SOL     OW19174   1.175   3.647   2.160  0.1767  0.3900 -0.0411
 6092SOL    HW119175   1.223   3.633   2.247  1.3521 -0.6721 -0.8308
 6092SOL    HW219176   1.242   3.659   2.087 -0.7772  0.1581 -0.9694
 6093SOL     OW19177   1.095   5.245   2.577  0.0347 -0.0334  0.1191
 6093SOL    HW119178   1.134   5.335   2.560  0.0728 -0.3134 -1.3774
 6093SOL    HW219179   1.085   5.231   2.676  0.0598  1.5806  0.3717
 6094SOL     OW19180   0.160   2.289   1.219 -0.0420 -0.5789 -0.1164
 6094SOL    HW119181   0.190   2.197   1.192  1.7717 -0.2865  0.7826
 6094SOL    HW219182   0.147   2.345   1.137 -1.2360 -1.6256 -0.6808
 6095SOL     OW19183   1.324   2.281   5.029 -0.3004 -0.3451  0.0018
 6095SOL    HW119184   1.297   2.299   5.124 -0.7224 -0.0416 -0.1693
 6095SOL    HW219185   1.245   2.245   4.979  0.0762 -1.0404 -0.0975
 6096SOL     OW19186   5.140   1.118   1.886  0.1675  0.1772  0.3883
 6096SOL    HW119187   5.108   1.164   1.969  0.5337 -0.0236  0.6441
 6096SOL    HW219188   5.220   1.062   1.908 -0.0322 -0.2663 -0.0020
 6097SOL     OW19189   5.430   0.124   3.172 -0.0203  0.3940  0.1803
 6097SOL    HW119190   5.466   0.215   3.152 -0.0108  0.4498  0.4475
 6097SOL    HW219191   5.421   0.113   3.271  0.2955 -0.0157  0.1632
 6098SOL     OW19192   1.446   0.802   6.146 -0.0266  0.4767  0.1903
 6098SOL    HW119193   1.440   0.762   6.238  0.7459 -0.9865 -0.3721
 6098SOL    HW219194   1.519   0.871   6.145  2.2019 -1.7459 -0.0596
 6099SOL     OW19195   5.713   4.135   3.820  0.6111 -0.4062  0.1573
 6099SOL    HW119196   5.728   4.095   3.911  1.9873 -2.4034 -0.8567
 6099SOL    HW219197   5.686   4.062   3.757 -0.4515  0.9720 -1.0338
 6100SOL     OW19198   6.984   4.505   6.186  0.0511  0.3480 -0.0550
 6100SOL    HW119199   7.012   4.428   6.242 -2.0339 -1.9103 -1.8843
 6100SOL    HW219200   7.054   4.524   6.117 -0.0456 -0.9330 -0.5294
 6101SOL     OW19201   5.125   0.071   2.776  0.1196 -0.0658  0.6130
 6101SOL    HW119202   5.169  -0.010   2.738 -1.5361 -0.5753 -0.3212
 6101SOL    HW219203   5.182   0.110   2.848  1.5801 -1.2596  0.1348
 6102SOL     OW19204   4.319   5.145   3.630 -0.5025  0.3320 -0.1240
 6102SOL    HW119205   4.325   5.122   3.727  0.1735 -0.0119 -0.2397
 6102SOL    HW219206   4.234   5.108   3.592 -1.8808  2.3703  0.8197
 6103SOL     OW19207   3.686   3.377   5.561 -0.2343  0.0159 -0.3519
 6103SOL    HW119208   3.644   3.322   5.488  0.1986  1.6618 -1.9311
 6103SOL    HW219209   3.781   3.350   5.571 -0.6339 -1.1348  0.5896
 6104SOL     OW19210   0.577   1.338   6.960  0.1557 -0.2601  1.0303
 6104SOL    HW119211   0.535   1.390   7.035  1.0699 -0.8258  1.9688
 6104SOL    HW219212   0.646   1.276   6.998  1.9962  0.7946 -0.4835
 6105SOL     OW19213   3.222   4.920   5.263  0.2662  0.1934 -1.0959
 6105SOL    HW119214   3.250   4.994   5.325  1.7059 -0.3198 -1.0977
 6105SOL    HW219215   3.138   4.946   5.216 -0.7358  0.7086  0.8758
 6106SOL     OW19216   6.371   4.267   4.750  0.6234 -0.2330  0.1884
 6106SOL    HW119217   6.295   4.258   4.686  0.6343  1.1080 -0.0545
 6106SOL    HW219218   6.443   4.322   4.708 -0.0171  2.0429  1.8391
 6107SOL     OW19219   2.518   4.659   0.200  0.2254  0.3514 -0.5716
 6107SOL    HW119220   2.528   4.732   0.267 -1.0663  0.4090 -0.4259
 6107SOL    HW219221   2.593   4.594   0.210  0.2252  0.5242  0.7184
 6108SOL     OW19222   5.578   3.581   4.723  0.2626 -0.2874  0.6243
 6108SOL    HW119223   5.577   3.538   4.633 -0.8388  1.1785 -0.1034
 6108SOL    HW219224   5.627   3.523   4.787 -0.0811 -1.9965 -0.6002
 6109SOL     OW19225   1.090   4.857   3.602 -0.2032 -0.1446  0.0000
 6109SOL    HW119226   1.097   4.774   3.658  0.7331 -0.2360 -0.2239
 6109SOL    HW219227   1.046   4.835   3.515  0.5891 -0.5649 -0.3134
 6110SOL     OW19228   2.264   0.227   2.980  0.3612  0.0561  0.2386
 6110SOL    HW119229   2.300   0.316   2.952  1.7516 -1.1281 -2.1143
 6110SOL    HW219230   2.188   0.202   2.920 -1.0422  0.2582  1.8603
 6111SOL     OW19231   0.977   3.032   4.027 -0.1336 -0.4985 -0.9209
 6111SOL    HW119232   0.892   3.001   3.983 -0.7132  0.6446 -0.6593
 6111SOL    HW219233   0.969   3.020   4.126  0.1331 -0.6881 -0.9245
 6112SOL     OW19234   2.039   6.971   1.327  0.1911 -0.0670 -0.4604
 6112SOL    HW119235   2.123   7.021   1.348  0.8903 -0.4844 -2.1056
 6112SOL    HW219236   1.961   7.022   1.362  1.0070  1.2165 -0.4359
 6113SOL     OW19237   6.141   4.542   6.567  0.0690 -0.0371 -0.1831
 6113SOL    HW119238   6.086   4.626   6.560 -0.9285 -0.7903 -2.1999
 6113SOL    HW219239   6.188   4.540   6.655 -1.3413  1.7508  0.6699
 6114SOL     OW19240   3.855   4.298   0.587 -0.1149 -0.4695  0.2783
 6114SOL    HW119241   3.929   4.276   0.650 -0.6499  2.3870  2.0684
 6114SOL    HW219242   3.781   4.232   0.598  0.4989 -0.9852  1.4188
 6115SOL     OW19243   6.700   3.336   2.559  0.5722  0.1785 -0.4917
 6115SOL    HW119244   6.734   3.243   2.546  1.0620  0.1245  0.9904
 6115SOL    HW219245   6.708   3.387   2.473  1.0252 -0.9141 -1.1142
 6116SOL     OW19246   4.226   2.496   0.471  0.4013  0.1086 -0.3559
 6116SOL    HW119247   4.287   2.548   0.412  2.0270 -0.5969  0.6303
 6116SOL    HW219248   4.233   2.399   0.448  2.1513 -0.3725  1.7937
 6117SOL     OW19249   6.688   6.538   4.357 -0.0444 -0.4027 -0.6083
 6117SOL    HW119250   6.733   6.456   4.321 -0.5690 -0.9716  0.0141
 6117SOL    HW219251   6.602   6.553   4.308 -0.1660 -0.4771 -0.4171
 6118SOL     OW19252   6.727   0.193   4.398 -0.0284 -0.2336  0.3378
 6118SOL    HW119253   6.642   0.232   4.434  0.1247 -1.2541  1.9388
 6118SOL    HW219254   6.715   0.095   4.383  0.2039  0.0099 -1.6315
 6119SOL     OW19255   0.553   6.653   6.063  0.1518 -0.5362 -0.0420
 6119SOL    HW119256   0.504   6.719   6.007  4.0906  0.8412 -2.3137
 6119SOL    HW219257   0.499   6.570   6.072 -1.9580  0.2638 -3.4333
 6120SOL     OW19258   2.246   2.068   2.594  0.2794 -0.4346 -0.7074
 6120SOL    HW119259   2.187   2.040   2.669  1.3662 -0.9065 -0.0127
 6120SOL    HW219260   2.341   2.068   2.624  0.7814 -1.0270 -2.1951
 6121SOL     OW19261   6.291   1.649   3.697 -0.6295 -0.0147 -0.0759
 6121SOL    HW119262   6.286   1.749   3.690  0.4562  0.0616  0.1307
 6121SOL    HW219263   6.370   1.623   3.753 -1.0369 -0.9880  0.0686
 6122SOL     OW19264   2.687   4.984   4.770 -0.2741  0.6598 -0.0911
 6122SOL    HW119265   2.765   4.921   4.761 -1.6439 -1.1086 -0.0926
 6122SOL    HW219266   2.702   5.044   4.848  0.1760 -1.0901  1.2467
 6123SOL     OW19267   5.739   2.303   2.556 -0.0460  0.6369 -0.1591
 6123SOL    HW119268   5.725   2.268   2.464  0.3956 -2.1082  0.7176
 6123SOL    HW219269   5.653   2.341   2.591 -0.2779  1.4705 -1.5683
 6124SOL     OW19270   3.152   5.223   6.563 -0.0160  0.6601 -0.3308
 6124SOL    HW119271   3.080   5.187   6.504  0.5415 -0.4760 -0.3512
 6124SOL    HW219272   3.123   5.219   6.658 -0.5431  1.5998 -0.4382
 6125SOL     OW19273   1.696   4.313   1.932 -0.0440  0.3959 -0.6278
 6125SOL    HW119274   1.672   4.216   1.940 -1.3791  0.7301 -0.5279
 6125SOL    HW219275   1.788   4.320   1.893  1.0830 -0.9597  1.5418
 6126SOL     OW19276   4.844   6.073   3.741  0.3755  0.1031  0.2476
 6126SOL    HW119277   4.807   6.107   3.827  1.8808  0.8124  0.6506
 6126SOL    HW219278   4.910   6.000   3.760 -1.5090 -1.9259 -0.5145
 6127SOL     OW19279   1.737   4.606   1.979  0.0962  0.1321  0.1059
 6127SOL    HW119280   1.711   4.510   1.988  0.7426  0.0343  1.1282
 6127SOL    HW219281   1.835   4.615   1.996  0.2712  0.8316 -1.1369
 6128SOL     OW19282   0.262   4.191   0.651 -0.4099  0.0015 -0.1173
 6128SOL    HW119283   0.173   4.147   0.665  0.1706 -2.9086 -3.8869
 6128SOL    HW219284   0.333   4.121   0.644  1.5144  1.9536 -1.3851
 6129SOL     OW19285   5.642   1.998   2.706 -0.1683  0.3392  0.0951
 6129SOL    HW119286   5.736   1.986   2.739  0.1655 -0.5005 -1.1078
 6129SOL    HW219287   5.583   2.022   2.783  1.2334  2.1839  0.6822
 6130SOL     OW19288   6.902   4.883   2.403 -0.1764  0.1411 -0.6248
 6130SOL    HW119289   6.964   4.807   2.383  1.5226  1.3414 -0.0886
 6130SOL    HW219290   6.931   4.964   2.353 -0.1105  1.2745  1.1867
 6131SOL     OW19291   5.076   3.397   4.502 -0.6396  0.5057 -0.0715
 6131SOL    HW119292   5.079   3.432   4.595  1.1301  0.0214  0.0857
 6131SOL    HW219293   5.165   3.410   4.458 -0.8247 -1.0829 -1.0146
 6132SOL     OW19294   5.166   2.832   5.788  0.3650  0.3720 -0.3823
 6132SOL    HW119295   5.188   2.742   5.827 -1.6536  0.3468  0.8516
 6132SOL    HW219296   5.135   2.820   5.693  3.6917  0.2548 -1.5941
 6133SOL     OW19297   2.140   4.877   2.499  0.3518  0.0695  0.5448
 6133SOL    HW119298   2.118   4.948   2.432  1.5041  1.2442  1.3659
 6133SOL    HW219299   2.070   4.805   2.496 -0.0988  0.5395 -1.2604
 6134SOL     OW19300   3.821   4.868   0.353  0.0255 -0.0914 -0.4079
 6134SOL    HW119301   3.727   4.845   0.377 -0.7921  1.3068 -2.0639
 6134SOL    HW219302   3.871   4.896   0.435 -1.0606 -0.6181  0.4484
 6135SOL     OW19303   4.037   6.404   2.122 -0.0969 -0.5669  0.9275
 6135SOL    HW119304   4.039   6.304   2.111 -0.2392 -0.4056 -0.6999
 6135SOL    HW219305   4.015   6.447   2.035  1.9232  0.9987  1.1177
 6136SOL     OW19306   1.041   2.593   1.903 -0.3044  0.5631 -0.4673
 6136SOL    HW119307   0.950   2.552   1.908 -0.5442  0.8161 -2.0951
 6136SOL    HW219308   1.037   2.687   1.938 -0.3365  0.1124  0.7835
 6137SOL     OW19309   2.223   1.109   6.143  0.5723 -0.2139  0.1412
 6137SOL    HW119310   2.163   1.029   6.143  0.1932  0.0401  1.4490
 6137SOL    HW219311   2.236   1.141   6.049 -1.6404 -0.0638 -0.1662
 6138SOL     OW19312   5.026   6.999   1.386  0.0553  0.0566  0.3629
 6138SOL    HW119313   5.021   6.902   1.362 -0.6635  0.1499  0.0937
 6138SOL    HW219314   5.051   7.052   1.305 -0.6054  0.1926  0.2354
 6139SOL     OW19315   2.209   5.580   4.499 -0.0042  0.8677 -0.3035
 6139SOL    HW119316   2.210   5.548   4.404  0.2358  0.2352 -0.0926
 6139SOL    HW219317   2.215   5.680   4.500 -3.0708  1.1599 -1.0591
 6140SOL     OW19318   1.626   4.416   1.052 -0.7721 -0.3813 -0.1886
 6140SOL    HW119319   1.656   4.352   0.981 -0.5198  0.1254 -0.5378
 6140SOL    HW219320   1.698   4.482   1.071 -1.0658 -0.1462  0.1183
 6141SOL     OW19321   1.001   5.127   6.426 -0.1686  0.1269  0.0019
 6141SOL    HW119322   1.032   5.141   6.520 -1.6559  1.4238  0.3488
 6141SOL    HW219323   1.061   5.062   6.380  0.6722 -0.4321  1.8019
 6142SOL     OW19324   5.555   3.073   6.653 -0.8093 -0.0524 -0.0352
 6142SOL    HW119325   5.455   3.082   6.655 -0.7999  0.2352 -0.5885
 6142SOL    HW219326   5.579   2.987   6.608 -0.8329 -1.2395  2.0840
 6143SOL     OW19327   5.730   5.004   0.452 -0.7963 -0.0231  0.2672
 6143SOL    HW119328   5.685   5.030   0.366  0.0793  0.5292 -0.0371
 6143SOL    HW219329   5.822   4.970   0.432 -0.3513  0.6939  1.0285
 6144SOL     OW19330   0.236   5.335   4.891 -0.1481 -0.2166  0.1507
 6144SOL    HW119331   0.141   5.305   4.895 -0.0157 -0.5976  0.6575
 6144SOL    HW219332   0.258   5.366   4.799 -0.4471 -1.1722 -0.2542
 6145SOL     OW19333   0.053   5.135   1.884 -0.0056 -0.8183  0.6654
 6145SOL    HW119334   0.087   5.108   1.974 -1.1342  0.2165  1.4396
 6145SOL    HW219335  -0.036   5.093   1.868 -0.1264 -0.4479  0.3368
 6146SOL     OW19336   6.389   0.339   4.224 -0.1703 -0.1723 -0.2718
 6146SOL    HW119337   6.412   0.324   4.320  0.5280  0.6430 -0.3100
 6146SOL    HW219338   6.442   0.277   4.166 -1.1892 -1.2453 -0.0989
 6147SOL     OW19339   6.466   4.539   3.104 -0.6254  0.2258  0.2912
 6147SOL    HW119340   6.490   4.456   3.154 -3.2519 -0.1065  1.1628
 6147SOL    HW219341   6.374   4.530   3.067 -0.1044  1.8869 -1.6146
 6148SOL     OW19342   5.595   5.395   3.153  0.0847 -0.2059 -0.1315
 6148SOL    HW119343   5.689   5.378   3.184 -0.0680  0.6193  0.8159
 6148SOL    HW219344   5.531   5.364   3.223 -0.3250  0.0833 -0.3773
 6149SOL     OW19345   6.125   2.247   4.478  0.4865 -0.2742 -0.0436
 6149SOL    HW119346   6.201   2.310   4.494 -1.8412  2.6340  0.5764
 6149SOL    HW219347   6.089   2.260   4.386  0.5219 -1.4021 -0.2289
 6150SOL     OW19348   2.347   5.198   6.553  0.8452  0.4245 -0.0744
 6150SOL    HW119349   2.259   5.151   6.550  1.0687 -0.0132  0.2330
 6150SOL    HW219350   2.332   5.295   6.574  0.3982  0.4667 -0.5726
 6151SOL     OW19351   6.371   5.579   3.848 -0.0676 -0.6645 -0.0306
 6151SOL    HW119352   6.372   5.597   3.946  0.6657  1.2862 -0.3518
 6151SOL    HW219353   6.441   5.634   3.803 -1.8882  0.2300 -1.9279
 6152SOL     OW19354   5.782   3.193   4.476 -0.3833  0.0098 -0.0106
 6152SOL    HW119355   5.731   3.123   4.526 -0.5306 -0.1770 -0.4143
 6152SOL    HW219356   5.721   3.237   4.409  0.1336 -0.6723 -0.9668
 6153SOL     OW19357   4.083   6.017   6.920 -0.5103  0.3679  0.5253
 6153SOL    HW119358   4.001   5.979   6.963  0.6262 -0.2960  2.1886
 6153SOL    HW219359   4.156   5.949   6.920 -0.0172  0.8329 -1.2395
 6154SOL     OW19360   5.261   1.875   1.238 -0.0285 -0.1164 -0.0912
 6154SOL    HW119361   5.188   1.809   1.256 -1.4016  0.7221 -2.2343
 6154SOL    HW219362   5.318   1.841   1.164 -0.5367  0.8929 -0.9746
 6155SOL     OW19363   2.031   5.147   4.410  0.5087 -0.0041 -0.2904
 6155SOL    HW119364   2.094   5.074   4.386  0.0474 -0.0464 -1.4156
 6155SOL    HW219365   2.057   5.186   4.499  1.2535 -0.9618 -0.0764
 6156SOL     OW19366   5.597   0.182   3.491  0.5222 -0.3632 -0.2166
 6156SOL    HW119367   5.571   0.277   3.510  2.6772  0.4381 -0.9561
 6156SOL    HW219368   5.665   0.152   3.558 -1.9614 -2.3622  1.6159
 6157SOL     OW19369   1.179   0.641   5.956 -0.4279 -0.2184 -0.3156
 6157SOL    HW119370   1.250   0.646   5.885  0.4280 -1.3372  0.4178
 6157SOL    HW219371   1.108   0.576   5.928 -1.1468  0.8329 -1.0091
 6158SOL     OW19372   5.328   5.933   1.095 -0.3787  0.3546  0.1403
 6158SOL    HW119373   5.236   5.971   1.097 -0.6672 -0.3405  0.7276
 6158SOL    HW219374   5.383   5.975   1.167 -0.5090  0.1367  0.3717
 6159SOL     OW19375   3.702   3.487   5.916  0.3667 -0.2115 -0.3955
 6159SOL    HW119376   3.793   3.488   5.958  0.5336  0.0622 -0.7491
 6159SOL    HW219377   3.702   3.548   5.837 -0.6479  1.2600  0.6844
 6160SOL     OW19378   5.606   4.601   1.207 -0.0656  0.0439 -0.0067
 6160SOL    HW119379   5.534   4.603   1.277  0.5234  0.6395  0.6028
 6160SOL    HW219380   5.678   4.537   1.236  1.1262  1.7138  0.9395
 6161SOL     OW19381   6.261   1.886   5.354  0.3023  0.0806  0.1433
 6161SOL    HW119382   6.267   1.938   5.269 -1.0341  0.7826  0.4583
 6161SOL    HW219383   6.301   1.939   5.429  2.5040 -0.9910 -0.1932
 6162SOL     OW19384   5.484   0.089   4.228 -0.2877  0.2823  0.4257
 6162SOL    HW119385   5.410   0.147   4.197 -1.2956 -0.7996  0.7415
 6162SOL    HW219386   5.549   0.075   4.154 -1.1185  0.1262 -0.2834
 6163SOL     OW19387   1.413   3.638   2.361 -0.0088 -0.3750 -0.0121
 6163SOL    HW119388   1.443   3.574   2.431  1.4444 -0.3391 -0.5767
 6163SOL    HW219389   1.484   3.649   2.292 -1.2777 -0.1938 -1.3659
 6164SOL     OW19390   5.397   5.342   0.043 -0.6171 -0.2980 -0.3850
 6164SOL    HW119391   5.361   5.378  -0.043 -0.2664  1.2151  0.0740
 6164SOL    HW219392   5.322   5.318   0.103 -0.9477  2.6133  0.4744
 6165SOL     OW19393   3.087   1.309   1.472  0.0606  0.8900  0.2881
 6165SOL    HW119394   3.127   1.224   1.438 -2.4081 -0.3090  0.1405
 6165SOL    HW219395   3.039   1.291   1.558  0.1289  2.3226  0.6527
 6166SOL     OW19396   3.375   0.562   7.005 -0.4680 -0.1398  0.9914
 6166SOL    HW119397   3.304   0.504   7.044 -0.4500 -0.6335  0.3179
 6166SOL    HW219398   3.426   0.608   7.078 -1.3842  0.1112  1.4760
 6167SOL     OW19399   5.744   3.258   3.369 -0.2803  0.2015  0.5316
 6167SOL    HW119400   5.826   3.202   3.384  0.2824  1.0147  0.5563
 6167SOL    HW219401   5.664   3.199   3.367 -0.0965 -0.3426  3.6881
 6168SOL     OW19402   5.948   2.084   3.026 -0.2868  0.1080 -0.1464
 6168SOL    HW119403   6.018   2.154   3.039 -0.9030  0.3331  2.3228
 6168SOL    HW219404   5.923   2.080   2.929  2.7588  0.3281 -1.0489
 6169SOL     OW19405   2.755   3.298   0.487 -0.0147  0.1814  0.0050
 6169SOL    HW119406   2.671   3.353   0.495  1.3898  2.4796 -0.3220
 6169SOL    HW219407   2.765   3.243   0.570 -0.5875  1.7768  1.1953
 6170SOL     OW19408   5.139   3.510   2.737  0.8395 -0.1547 -0.0142
 6170SOL    HW119409   5.151   3.483   2.833  1.9624  0.1424 -0.0539
 6170SOL    HW219410   5.185   3.597   2.721 -1.4991  1.1083 -0.2388
 6171SOL     OW19411   5.219   0.206   5.515  0.2575  0.3809 -0.2219
 6171SOL    HW119412   5.247   0.246   5.427 -0.1106  1.3327  0.0797
 6171SOL    HW219413   5.248   0.111   5.519  0.1672  0.2848 -1.4313
 6172SOL     OW19414   6.089   3.601   3.452 -0.1462  0.3148 -0.2626
 6172SOL    HW119415   6.062   3.636   3.542  0.2830 -0.1428  0.0525
 6172SOL    HW219416   6.184   3.569   3.456 -0.6239 -1.2316 -0.4156
 6173SOL     OW19417   5.158   5.306   2.318  0.0529  0.7186 -0.3227
 6173SOL    HW119418   5.135   5.220   2.365  1.3601  1.4467  1.8073
 6173SOL    HW219419   5.147   5.294   2.219  0.9937 -2.1587 -0.1758
 6174SOL     OW19420   1.419   3.329   5.006  0.0474 -0.8056  0.2170
 6174SOL    HW119421   1.427   3.325   4.907  4.5486  1.2969  0.2401
 6174SOL    HW219422   1.419   3.424   5.036  0.8411 -1.3739  2.2506
 6175SOL     OW19423   5.405   3.581   6.375  0.2575 -0.4744  0.1719
 6175SOL    HW119424   5.447   3.531   6.450 -2.9514  0.0088  2.4877
 6175SOL    HW219425   5.369   3.516   6.308  0.8998 -1.0193  0.3482
 6176SOL     OW19426   2.655   5.893   4.975  0.2278  0.3053  0.2120
 6176SOL    HW119427   2.724   5.820   4.975  1.1486  1.1548 -0.0933
 6176SOL    HW219428   2.683   5.966   4.913 -1.0671  0.5805 -0.0766
 6177SOL     OW19429   0.598   4.887   1.984  0.3177 -0.5494  0.4841
 6177SOL    HW119430   0.596   4.886   1.884  1.2061  2.0262  0.3689
 6177SOL    HW219431   0.509   4.918   2.018 -0.3270 -2.3870  0.5918
 6178SOL     OW19432   3.759   5.004   1.590 -0.1555 -0.2105  0.6306
 6178SOL    HW119433   3.708   5.012   1.676  1.2902 -0.6753  1.5660
 6178SOL    HW219434   3.841   5.061   1.595 -0.6170  0.6355 -0.8997
 6179SOL     OW19435   5.095   4.733   4.045  0.3874  0.1795 -0.3061
 6179SOL    HW119436   5.009   4.723   4.096  0.8357  0.3575  0.5056
 6179SOL    HW219437   5.172   4.717   4.107  0.9652  1.1048 -0.7738
 6180SOL     OW19438   1.600   4.599   6.097  0.0036 -0.7178 -0.3473
 6180SOL    HW119439   1.606   4.570   6.002 -4.0334 -1.9093 -0.3954
 6180SOL    HW219440   1.538   4.677   6.105 -2.5374 -2.7625  1.5385
 6181SOL     OW19441   6.904   6.101   0.618 -0.1256  0.0968  0.3292
 6181SOL    HW119442   6.989   6.082   0.666 -0.1623 -3.5801 -0.7655
 6181SOL    HW219443   6.830   6.046   0.657 -0.9526 -0.1885 -1.5158
 6182SOL     OW19444   1.998   1.212   5.139 -0.4457 -0.3102 -0.7307
 6182SOL    HW119445   2.086   1.220   5.092 -0.9229  1.5088 -1.4299
 6182SOL    HW219446   1.929   1.265   5.089 -1.1535  1.1523  1.6120
 6183SOL     OW19447   0.530   0.618   1.169  0.2829 -0.4251 -0.4259
 6183SOL    HW119448   0.497   0.698   1.220  0.3916  0.0877 -1.1299
 6183SOL    HW219449   0.536   0.539   1.230 -3.6671 -0.9871 -0.5471
 6184SOL     OW19450   2.242   1.009   5.685 -0.0088  0.2372  0.2652
 6184SOL    HW119451   2.207   0.973   5.599 -1.6288  0.4553  0.7929
 6184SOL    HW219452   2.338   0.982   5.697 -0.0586 -0.6251 -1.1246
 6185SOL     OW19453   4.050   3.785   4.606  0.2393 -0.0090  0.1373
 6185SOL    HW119454   4.076   3.691   4.629 -0.0583 -0.1224  0.0144
 6185SOL    HW219455   4.014   3.787   4.513  0.6869  0.3098 -0.0336
 6186SOL     OW19456   0.512   1.038   2.228 -0.0045 -0.2638 -0.1792
 6186SOL    HW119457   0.562   1.044   2.314  0.1832  1.3012 -0.3812
 6186SOL    HW219458   0.414   1.050   2.245  0.2078  2.2713 -0.3737
 6187SOL     OW19459   2.107   3.665   5.059  0.0641 -0.1465 -0.5229
 6187SOL    HW119460   2.080   3.729   4.987 -0.9202 -0.1892 -0.2074
 6187SOL    HW219461   2.033   3.600   5.075  0.2045 -0.0358  0.6491
 6188SOL     OW19462   0.263   1.963   5.418  0.1881 -0.6134 -0.2603
 6188SOL    HW119463   0.226   1.930   5.332 -1.9789  2.5576 -0.6949
 6188SOL    HW219464   0.271   1.886   5.482  0.2621 -2.7469 -2.6588
 6189SOL     OW19465   0.174   5.274   0.158 -0.1580  0.3572 -0.7496
 6189SOL    HW119466   0.212   5.365   0.177 -1.5072  0.5917  1.1557
 6189SOL    HW219467   0.248   5.210   0.139  0.7885  1.9361 -2.6802
 6190SOL     OW19468   1.510   5.759   3.817 -0.5490 -0.1684 -0.6155
 6190SOL    HW119469   1.535   5.750   3.914  1.1600  0.8854 -0.9041
 6190SOL    HW219470   1.486   5.670   3.780 -0.0071 -0.7886  0.4800
 6191SOL     OW19471   3.148   5.254   5.129 -0.2317 -0.6845  0.1880
 6191SOL    HW119472   3.234   5.248   5.077 -0.6580 -0.6739 -0.5383
 6191SOL    HW219473   3.094   5.171   5.113 -1.9729  0.7773 -2.3431
 6192SOL     OW19474   2.612   0.641   2.138  0.4340 -0.0076 -0.5230
 6192SOL    HW119475   2.541   0.639   2.208 -1.3780 -0.8820 -2.2570
 6192SOL    HW219476   2.698   0.608   2.176 -0.1808  0.6318  1.5367
 6193SOL     OW19477   6.557   6.424   6.702 -0.1886 -0.9002 -0.1651
 6193SOL    HW119478   6.567   6.515   6.742 -0.5631 -0.4329 -1.0960
 6193SOL    HW219479   6.587   6.355   6.767  0.0477 -0.1118  0.5743
 6194SOL     OW19480   4.172   5.888   0.644  0.3392  0.4707  0.3188
 6194SOL    HW119481   4.264   5.927   0.637  0.7467 -0.4471  0.3743
 6194SOL    HW219482   4.109   5.956   0.681  1.2442  0.7510  1.4004
 6195SOL     OW19483   4.733   4.976   4.515  0.2685 -1.0829  0.5852
 6195SOL    HW119484   4.744   5.051   4.449  0.7540 -1.6085  0.0594
 6195SOL    HW219485   4.656   4.997   4.576 -0.6731 -0.9075 -0.6056
 6196SOL     OW19486   6.066   1.790   2.418  0.0731  0.1621 -0.5341
 6196SOL    HW119487   5.979   1.795   2.466 -0.0845 -0.8421 -0.6783
 6196SOL    HW219488   6.086   1.878   2.375 -0.3498  0.7188  0.3800
 6197SOL     OW19489   6.260   5.878   2.320  0.6577  0.1158  0.2703
 6197SOL    HW119490   6.244   5.843   2.228 -0.2410  0.9048  0.1237
 6197SOL    HW219491   6.335   5.826   2.362  1.5939  0.2477 -1.1698
 6198SOL     OW19492   6.093   2.599   6.119  0.1482 -0.6001  0.1310
 6198SOL    HW119493   6.028   2.599   6.043 -0.1678 -0.7905  0.3967
 6198SOL    HW219494   6.128   2.506   6.132  1.1519 -0.3389 -0.5764
 6199SOL     OW19495   2.045   0.876   5.474  0.0711 -0.4572 -0.1823
 6199SOL    HW119496   2.074   0.782   5.461  1.7199 -0.2077  1.2636
 6199SOL    HW219497   2.041   0.897   5.572  1.2695  1.3926 -0.4734
 6200SOL     OW19498   0.140   5.810   0.894  0.3579  0.8407  0.5151
 6200SOL    HW119499   0.165   5.814   0.991 -0.4285 -0.8578  0.8321
 6200SOL    HW219500   0.054   5.759   0.884  0.6316  0.6425 -1.1120
 6201SOL     OW19501   0.737   5.265   3.790 -0.4848  0.1134  0.5286
 6201SOL    HW119502   0.772   5.180   3.829  0.9416  0.2504 -0.3840
 6201SOL    HW219503   0.648   5.285   3.830  0.0841 -0.6946  2.3316
 6202SOL     OW19504   3.790   2.127   2.768  0.2845 -0.3919  0.2281
 6202SOL    HW119505   3.886   2.105   2.781  0.6103 -0.0121 -1.3895
 6202SOL    HW219506   3.767   2.122   2.671 -0.7203  1.8978  0.2823
 6203SOL     OW19507   0.248   6.929   3.400  0.3805 -0.2518  0.1292
 6203SOL    HW119508   0.299   6.857   3.448 -1.8564 -1.2755  1.0842
 6203SOL    HW219509   0.258   7.015   3.450  2.3531 -0.0327 -0.5381
 6204SOL     OW19510   0.513   5.408   3.843  0.3286 -0.0663 -0.2654
 6204SOL    HW119511   0.437   5.370   3.790 -0.3813  3.6096 -2.2210
 6204SOL    HW219512   0.477   5.461   3.920  1.0774 -0.3549  0.2981
 6205SOL     OW19513   6.738   3.821   3.519 -0.1034  0.0790  0.2764
 6205SOL    HW119514   6.773   3.882   3.590  1.3408 -1.2840  0.7734
 6205SOL    HW219515   6.761   3.726   3.541 -3.0719 -0.8177 -0.0192
 6206SOL     OW19516   4.923   3.766   2.125  0.1072  0.8478  0.4368
 6206SOL    HW119517   4.969   3.731   2.043  0.4102  0.4046  0.7888
 6206SOL    HW219518   4.921   3.694   2.195  0.7139  1.5292  1.1686
 6207SOL     OW19519   5.711   6.425   3.223  0.3941  0.3755 -0.0101
 6207SOL    HW119520   5.726   6.459   3.316  1.3588  0.2151 -0.0931
 6207SOL    HW219521   5.659   6.340   3.227 -2.0953  1.8343  0.1915
 6208SOL     OW19522   4.137   3.139   0.043  0.2992 -0.4024 -0.0552
 6208SOL    HW119523   4.054   3.166  -0.006  0.6953  0.6733 -0.1562
 6208SOL    HW219524   4.133   3.171   0.137  1.0443  0.6154 -0.3451
 6209SOL     OW19525   0.638   6.674   2.935 -0.6428  0.3877 -0.2388
 6209SOL    HW119526   0.638   6.774   2.944 -1.3036  0.3880 -0.1930
 6209SOL    HW219527   0.694   6.648   2.856 -0.8698  0.8264 -0.5519
 6210SOL     OW19528   5.672   0.418   3.940 -0.2797  0.2507 -0.0006
 6210SOL    HW119529   5.738   0.488   3.911 -1.0331  0.2047 -2.0008
 6210SOL    HW219530   5.671   0.343   3.874 -2.6572  0.4812 -0.3294
 6211SOL     OW19531   5.668   2.737   6.280  0.3844 -0.0303 -0.4393
 6211SOL    HW119532   5.704   2.813   6.226  1.6924 -1.9994 -2.5101
 6211SOL    HW219533   5.616   2.675   6.222 -2.2238  0.1079  1.5542
 6212SOL     OW19534   5.147   4.127   5.447  0.9016 -0.0946  0.0752
 6212SOL    HW119535   5.134   4.185   5.366  0.8835 -0.9314 -0.5370
 6212SOL    HW219536   5.115   4.175   5.528  0.8985  0.7560 -0.4223
 6213SOL     OW19537   6.054   5.690   0.120 -0.4580  0.3403 -0.4132
 6213SOL    HW119538   6.005   5.690   0.207  0.9250  0.1954  0.3921
 6213SOL    HW219539   6.089   5.598   0.100 -0.1288  0.5302 -0.7409
 6214SOL     OW19540   0.612   5.784   5.136 -0.1565  0.3965  0.0346
 6214SOL    HW119541   0.630   5.846   5.060 -1.4258 -0.2448 -0.8346
 6214SOL    HW219542   0.517   5.793   5.164 -1.0376 -2.6136 -1.5706
 6215SOL     OW19543   5.893   6.099   4.057  0.1168 -0.3447 -0.4729
 6215SOL    HW119544   5.848   6.102   3.967  0.2176  0.8926 -0.4903
 6215SOL    HW219545   5.991   6.117   4.046 -0.2487  2.3121  0.1163
 6216SOL     OW19546   4.998   2.025   6.464 -0.2277  0.1390 -0.0475
 6216SOL    HW119547   5.030   2.095   6.400  0.9829  0.6421  1.0598
 6216SOL    HW219548   5.034   1.936   6.436 -0.6922  0.1524 -0.7210
 6217SOL     OW19549   0.236   2.523   1.854  0.5176  0.5281  0.0979
 6217SOL    HW119550   0.286   2.523   1.767  0.2126 -0.5372 -0.0884
 6217SOL    HW219551   0.184   2.608   1.862  0.9160  0.8448 -0.5438
 6218SOL     OW19552   4.481   6.979   1.360 -1.0975 -0.1068  0.3367
 6218SOL    HW119553   4.554   6.964   1.426 -0.7342 -1.7168 -0.3708
 6218SOL    HW219554   4.393   6.976   1.407 -0.7585  1.0415  1.0732
 6219SOL     OW19555   2.367   6.664   0.874  0.0601  0.1091  0.7327
 6219SOL    HW119556   2.459   6.695   0.849  0.3219  0.3496  1.9708
 6219SOL    HW219557   2.366   6.635   0.969 -0.6029 -2.1171  0.0987
 6220SOL     OW19558   2.249   1.341   3.588 -0.1054  0.2825 -0.6060
 6220SOL    HW119559   2.270   1.359   3.684 -0.9433  2.4217 -0.7675
 6220SOL    HW219560   2.247   1.242   3.572  0.9004 -0.1022  1.3611
 6221SOL     OW19561   2.311   4.836   3.858  0.5872 -0.2487 -0.4707
 6221SOL    HW119562   2.247   4.886   3.800  0.1562 -0.1818  0.0520
 6221SOL    HW219563   2.263   4.803   3.940  1.1523 -0.4575 -0.2185
 6222SOL     OW19564   2.093   0.370   3.316  0.3758  0.1319 -0.0680
 6222SOL    HW119565   2.089   0.463   3.351  1.5303  1.2162 -2.5094
 6222SOL    HW219566   2.159   0.316   3.369  0.0590  0.8468  1.0609
 6223SOL     OW19567   0.122   3.489   3.704  0.5355  0.1014  0.9351
 6223SOL    HW119568   0.174   3.561   3.749  1.2845  0.4382 -0.4167
 6223SOL    HW219569   0.098   3.418   3.771  0.5147  1.1742  2.1012
 6224SOL     OW19570   6.843   6.305   6.229  0.3150  0.0568 -0.1695
 6224SOL    HW119571   6.832   6.385   6.170  1.9622  0.0999 -0.4625
 6224SOL    HW219572   6.763   6.247   6.222 -0.1624  0.8211 -1.2903
 6225SOL     OW19573   5.876   5.827   6.735  0.4657 -0.4290 -0.2349
 6225SOL    HW119574   5.958   5.800   6.785  1.1077  0.0410 -1.0051
 6225SOL    HW219575   5.896   5.829   6.637 -0.1177  0.8824 -0.3446
 6226SOL     OW19576   2.078   2.180   4.687 -0.5480  0.8273  0.1520
 6226SOL    HW119577   2.108   2.187   4.592  0.9057  0.3952  0.5457
 6226SOL    HW219578   2.109   2.260   4.738 -2.2721  1.6007  0.0593
 6227SOL     OW19579   2.598   3.811   6.714  0.1104  0.4428  0.1087
 6227SOL    HW119580   2.521   3.746   6.713 -0.6803  1.3375  0.7970
 6227SOL    HW219581   2.615   3.840   6.808  3.5562 -2.3024  0.5130
 6228SOL     OW19582   0.772   3.043   6.091  0.4852 -0.4544 -0.2063
 6228SOL    HW119583   0.730   3.052   6.182  0.0615 -0.3367 -0.4152
 6228SOL    HW219584   0.724   2.973   6.039  1.7371 -1.7067  0.2351
 6229SOL     OW19585   1.831   3.535   4.294 -0.0565 -0.1743 -0.2936
 6229SOL    HW119586   1.792   3.517   4.204  0.5007  0.9989 -0.7921
 6229SOL    HW219587   1.926   3.504   4.295 -0.2940 -0.9110  0.1632
 6230SOL     OW19588   1.746   6.725   0.650  0.0330 -0.0927  0.1522
 6230SOL    HW119589   1.805   6.647   0.630 -0.9771 -0.5111 -1.3763
 6230SOL    HW219590   1.744   6.787   0.572 -0.6116  0.5119  0.6325
 6231SOL     OW19591   1.023   4.210   5.157  0.1184  0.5481 -0.5769
 6231SOL    HW119592   1.099   4.148   5.137  0.3355  0.3926  0.6029
 6231SOL    HW219593   0.945   4.188   5.099  0.5673 -0.1125 -0.9391
 6232SOL     OW19594   5.229   6.554   0.096 -0.2044 -0.3464  0.2270
 6232SOL    HW119595   5.130   6.564   0.084  0.0239  1.6513 -0.5209
 6232SOL    HW219596   5.248   6.521   0.188 -1.5671 -0.9005  0.3394
 6233SOL     OW19597   6.518   5.718   0.048 -0.1268 -0.3621 -0.4337
 6233SOL    HW119598   6.428   5.739   0.087 -0.4946 -0.0705 -1.4203
 6233SOL    HW219599   6.540   5.784  -0.023  0.9610 -0.3279 -0.0861
 6234SOL     OW19600   5.460   6.646   3.210  0.0627 -0.3882 -0.5155
 6234SOL    HW119601   5.481   6.732   3.163  1.7870  0.7204  2.1232
 6234SOL    HW219602   5.499   6.570   3.158 -1.3969  0.3242 -2.8369
 6235SOL     OW19603   2.047   0.906   1.689 -0.0396 -0.9477 -0.0228
 6235SOL    HW119604   2.127   0.966   1.696 -0.8974  0.1961  0.2381
 6235SOL    HW219605   2.029   0.887   1.592  0.4522 -1.0711 -0.0917
 6236SOL     OW19606   6.591   0.913   2.700  0.0593  0.3902 -0.3942
 6236SOL    HW119607   6.666   0.980   2.693 -0.8289  1.7895  2.3493
 6236SOL    HW219608   6.618   0.839   2.762 -0.2970  0.0925 -0.5897
 6237SOL     OW19609   5.707   0.967   2.942 -0.1658 -0.1147 -0.2030
 6237SOL    HW119610   5.788   0.920   2.976 -0.6134  0.2237  1.4109
 6237SOL    HW219611   5.671   0.918   2.863  0.2824 -1.5755  0.4652
 6238SOL     OW19612   1.570   6.588   4.470  0.3373  0.9765 -0.0978
 6238SOL    HW119613   1.588   6.639   4.386 -1.5890 -0.6870 -1.6330
 6238SOL    HW219614   1.631   6.509   4.475  0.8992  1.4303  0.4514
 6239SOL     OW19615   3.556   0.897   3.497 -0.7489 -0.0668  0.2037
 6239SOL    HW119616   3.522   0.820   3.444  1.9882 -0.0249 -1.8709
 6239SOL    HW219617   3.550   0.981   3.443  1.3300  0.1359  0.1807
 6240SOL     OW19618   3.338   4.014   3.336 -0.2280  0.9639  0.0631
 6240SOL    HW119619   3.296   4.060   3.258  0.2313  2.2617  0.5689
 6240SOL    HW219620   3.432   4.045   3.347 -0.0202  0.1647  0.6326
 6241SOL     OW19621   2.498   0.151   4.409  0.0145 -0.0565 -0.4065
 6241SOL    HW119622   2.436   0.185   4.480  0.1087  0.8664 -0.7623
 6241SOL    HW219623   2.578   0.108   4.452  0.1303  0.6107  0.0539
 6242SOL     OW19624   3.027   0.187   2.713  0.0102  0.0368 -0.0253
 6242SOL    HW119625   3.074   0.264   2.756 -1.3071  0.8814 -0.0220
 6242SOL    HW219626   3.032   0.197   2.614 -2.0846  1.4386 -0.0597
 6243SOL     OW19627   3.994   6.925   2.117 -0.3615  0.1202 -0.1569
 6243SOL    HW119628   3.970   7.022   2.114  1.6870  0.7519  1.8296
 6243SOL    HW219629   3.915   6.872   2.147 -1.1714  1.3086 -0.1370
 6244SOL     OW19630   6.157   2.886   6.606 -0.7478  1.0597 -0.5225
 6244SOL    HW119631   6.090   2.835   6.660 -0.8377  2.8556  1.2005
 6244SOL    HW219632   6.240   2.831   6.596 -0.4403  0.8547  2.1717
 6245SOL     OW19633   0.961   4.368   2.528 -0.4517  0.0668 -0.2099
 6245SOL    HW119634   1.011   4.418   2.598  0.2478 -1.9429  0.7889
 6245SOL    HW219635   0.893   4.428   2.487 -0.3868  1.5072  1.6641
 6246SOL     OW19636   5.194   5.976   5.801 -0.1230 -0.3558 -0.1552
 6246SOL    HW119637   5.203   5.887   5.758  2.5800  0.4053 -1.3634
 6246SOL    HW219638   5.212   6.048   5.734 -2.1591  1.1589  0.8006
 6247SOL     OW19639   0.351   4.788   2.797  0.2884  0.2420 -0.3058
 6247SOL    HW119640   0.387   4.877   2.828 -2.2513  0.8512  1.1401
 6247SOL    HW219641   0.354   4.784   2.698  1.1319  1.6229 -0.3682
 6248SOL     OW19642   3.778   3.436   4.698  0.3645  0.2406 -0.1965
 6248SOL    HW119643   3.715   3.437   4.621 -0.2860 -0.6852  0.3119
 6248SOL    HW219644   3.864   3.481   4.671 -0.4017  1.2865 -0.9676
 6249SOL     OW19645   4.775   2.995   2.892 -0.3969 -0.9066 -0.0370
 6249SOL    HW119646   4.861   2.946   2.908  0.1608  0.2769  0.6999
 6249SOL    HW219647   4.700   2.943   2.931  0.3267 -0.6588  1.7592
 6250SOL     OW19648   5.129   6.122   4.149  0.0329  0.0632 -0.2826
 6250SOL    HW119649   5.226   6.134   4.127  0.3485 -1.8048 -0.0524
 6250SOL    HW219650   5.093   6.207   4.188  2.3718 -0.0778  2.5213
 6251SOL     OW19651   2.352   2.340   3.768 -0.6490  0.2463  0.5095
 6251SOL    HW119652   2.258   2.337   3.733 -1.7427  1.2497  3.0926
 6251SOL    HW219653   2.393   2.249   3.763 -2.1118 -0.4201  0.2346
 6252SOL     OW19654   0.699   5.630   0.165  0.6404 -0.3823 -0.1787
 6252SOL    HW119655   0.702   5.638   0.066  0.0719  0.6997 -0.1195
 6252SOL    HW219656   0.792   5.621   0.201  1.0572  1.6561 -0.6332
 6253SOL     OW19657   3.608   5.608   3.364 -0.3468  0.2820  0.8025
 6253SOL    HW119658   3.517   5.644   3.384 -0.9978 -0.5863 -0.3841
 6253SOL    HW219659   3.600   5.512   3.336  0.8269  0.4157 -0.0957
 6254SOL     OW19660   0.098   0.658   1.718 -0.4012 -0.1089  0.1503
 6254SOL    HW119661   0.114   0.756   1.728 -0.7205 -0.0892  0.4803
 6254SOL    HW219662   0.171   0.608   1.765  0.4533 -0.0423 -1.0827
 6255SOL     OW19663   2.405   6.617   1.147  0.0129 -0.3265 -0.4608
 6255SOL    HW119664   2.352   6.618   1.232  0.2953 -1.3103 -0.2665
 6255SOL    HW219665   2.452   6.530   1.137  0.4500 -0.0087 -1.3503
 6256SOL     OW19666   1.197   4.563   1.608  0.3182  0.6082  0.3161
 6256SOL    HW119667   1.099   4.568   1.625  0.3832  0.8018  0.6572
 6256SOL    HW219668   1.246   4.612   1.681  0.6596  0.6374  0.0721
 6257SOL     OW19669   5.199   4.281   0.035  0.2387  0.2495 -0.0486
 6257SOL    HW119670   5.164   4.228  -0.042 -0.3748  0.7025 -0.0811
 6257SOL    HW219671   5.196   4.225   0.118 -0.0213  0.0957 -0.1613
 6258SOL     OW19672   3.598   5.876   4.160 -0.0557 -0.3377 -0.3067
 6258SOL    HW119673   3.632   5.792   4.201  0.2685  0.7326  1.7617
 6258SOL    HW219674   3.498   5.877   4.162 -0.0640 -0.7090 -0.4627
 6259SOL     OW19675   3.632   0.509   3.762  0.1770  0.0456  0.0465
 6259SOL    HW119676   3.640   0.419   3.721  0.8662  0.4963 -0.8446
 6259SOL    HW219677   3.637   0.501   3.862  2.5173 -0.7008 -0.0796
 6260SOL     OW19678   4.704   1.839   0.142  0.4346 -0.0218  0.2874
 6260SOL    HW119679   4.777   1.783   0.182  0.3865 -1.5326 -1.5642
 6260SOL    HW219680   4.744   1.911   0.085  0.4801  0.1772  0.5695
 6261SOL     OW19681   5.910   5.211   1.985  0.1738  0.0017  0.0671
 6261SOL    HW119682   5.952   5.249   1.902  0.1604  0.9395  0.4778
 6261SOL    HW219683   5.974   5.220   2.061  0.0379 -0.5031  0.2401
 6262SOL     OW19684   5.365   0.492   4.201  0.1496  0.3962 -0.8671
 6262SOL    HW119685   5.348   0.396   4.181 -1.2670  0.8730 -2.1322
 6262SOL    HW219686   5.462   0.506   4.219  0.3104 -1.3346 -0.1828
 6263SOL     OW19687   0.795   0.520   6.520  0.9639 -0.2865 -0.2849
 6263SOL    HW119688   0.763   0.597   6.465 -0.5719 -0.5737  0.1592
 6263SOL    HW219689   0.773   0.434   6.474  0.1703 -0.5129  0.4882
 6264SOL     OW19690   1.191   5.863   2.539  0.3963 -0.1684 -0.5522
 6264SOL    HW119691   1.093   5.881   2.538  0.6222  1.1489 -0.8329
 6264SOL    HW219692   1.220   5.832   2.448  0.4185  0.5240 -0.7861
 6265SOL     OW19693   4.353   5.223   6.259 -0.1635 -0.4944  0.2782
 6265SOL    HW119694   4.275   5.167   6.233  0.3026 -0.4923 -1.1892
 6265SOL    HW219695   4.325   5.289   6.329 -1.5155 -0.3379 -0.3850
 6266SOL     OW19696   3.058   6.161   2.803 -0.2586 -0.0440 -0.1135
 6266SOL    HW119697   3.111   6.090   2.849  1.2192 -0.0159 -1.6639
 6266SOL    HW219698   3.106   6.249   2.810 -0.4075  0.1145 -0.9924
 6267SOL     OW19699   0.076   0.008   0.727  0.2607  0.0467  0.2214
 6267SOL    HW119700   0.065   0.079   0.797  0.4425  0.6093 -0.3127
 6267SOL    HW219701   0.076  -0.082   0.771 -0.0425  0.3679  0.9003
 6268SOL     OW19702   4.096   2.310   1.812 -0.8404 -0.0814 -0.7564
 6268SOL    HW119703   4.157   2.370   1.760 -1.0685  0.3171 -0.5766
 6268SOL    HW219704   4.148   2.266   1.885 -0.9348  0.9653 -0.0225
 6269SOL     OW19705   6.554   6.897   0.567 -0.3710 -0.3414 -0.0804
 6269SOL    HW119706   6.461   6.934   0.567 -0.1865  0.1757 -1.2394
 6269SOL    HW219707   6.550   6.797   0.563 -0.8743 -0.3738  1.0429
 6270SOL     OW19708   2.928   4.622   1.289  0.0621 -0.3817  0.3994
 6270SOL    HW119709   2.842   4.590   1.328 -0.0929 -1.3593 -0.6851
 6270SOL    HW219710   2.916   4.640   1.191  0.6615  1.1570  0.5736
 6271SOL     OW19711   1.619   3.931   4.496  0.5308 -0.1591  0.4425
 6271SOL    HW119712   1.541   3.872   4.517 -0.3134  1.1639  1.1739
 6271SOL    HW219713   1.685   3.927   4.571  0.1038  0.3817  0.8624
 6272SOL     OW19714   6.266   1.610   6.955 -0.1289  0.0670 -0.1861
 6272SOL    HW119715   6.253   1.530   6.896 -2.6105 -0.4893  0.9900
 6272SOL    HW219716   6.291   1.580   7.047 -0.4016  0.6755  0.0891
 6273SOL     OW19717   6.563   5.766   2.774  0.2984 -0.4938 -0.2965
 6273SOL    HW119718   6.512   5.841   2.817  1.7667 -0.3577  1.3006
 6273SOL    HW219719   6.607   5.800   2.691  1.8675  0.7976  0.9921
 6274SOL     OW19720   3.181   0.355   4.855  0.1697 -0.3209  0.0832
 6274SOL    HW119721   3.161   0.414   4.777  0.8247  0.4501  0.4850
 6274SOL    HW219722   3.242   0.282   4.827  0.4790  0.0084 -0.1070
 6275SOL     OW19723   3.189   4.621   1.353  0.0049  0.4328 -0.4050
 6275SOL    HW119724   3.175   4.680   1.433  0.6525  1.4750 -1.0435
 6275SOL    HW219725   3.100   4.601   1.312 -0.3588 -0.2798  0.6675
 6276SOL     OW19726   2.551   4.199   1.633 -0.4265  0.2562 -0.4663
 6276SOL    HW119727   2.613   4.276   1.619 -1.0137  0.7698 -0.3161
 6276SOL    HW219728   2.603   4.115   1.644  0.2587  0.7527  0.1295
 6277SOL     OW19729   5.405   2.468   1.605  0.2520 -0.2980  0.4703
 6277SOL    HW119730   5.336   2.509   1.547  0.4391  1.0884  1.1812
 6277SOL    HW219731   5.390   2.369   1.610 -1.4579 -0.0780  0.3397
 6278SOL     OW19732   3.106   2.486   0.983 -0.2651 -0.2235  0.1342
 6278SOL    HW119733   3.128   2.540   1.064  0.1804 -0.0829 -0.0799
 6278SOL    HW219734   3.126   2.538   0.900 -0.2351 -0.5551 -0.0723
 6279SOL     OW19735   1.896   6.830   2.274 -0.4990 -0.6433  1.1028
 6279SOL    HW119736   1.861   6.739   2.251 -1.5683  0.1239 -0.5818
 6279SOL    HW219737   1.928   6.875   2.191 -1.6890  1.1782  1.5571
 6280SOL     OW19738   4.834   1.347   0.221  0.0342 -0.2362 -0.3469
 6280SOL    HW119739   4.888   1.299   0.291 -0.3955 -1.0984 -0.5871
 6280SOL    HW219740   4.741   1.310   0.220 -0.3749  0.7616 -0.4046
 6281SOL     OW19741   6.956   3.776   5.781  0.5708 -0.6849 -0.0772
 6281SOL    HW119742   6.933   3.733   5.868  0.8175 -0.8747 -0.1056
 6281SOL    HW219743   7.055   3.774   5.768  0.6216  0.2427  0.1036
 6282SOL     OW19744   6.197   6.112   4.898 -0.0050  0.0045  0.3791
 6282SOL    HW119745   6.292   6.120   4.869  0.8561  0.7961  3.0973
 6282SOL    HW219746   6.194   6.082   4.993 -2.4973  0.2209  0.4308
 6283SOL     OW19747   2.195   4.955   4.262  0.5259 -0.1058  0.5151
 6283SOL    HW119748   2.173   4.905   4.178  1.0625  0.1246  0.2294
 6283SOL    HW219749   2.196   4.892   4.339 -0.6756 -0.1930  0.4700
 6284SOL     OW19750   2.167   4.176   4.570  0.5968  0.2302 -0.0751
 6284SOL    HW119751   2.190   4.144   4.662  0.6634 -1.3287 -0.5940
 6284SOL    HW219752   2.178   4.100   4.506 -0.8005  0.9096 -1.1636
 6285SOL     OW19753   1.693   2.568   4.324 -0.0834 -0.2650 -0.1684
 6285SOL    HW119754   1.698   2.620   4.239 -0.6643 -0.6709 -0.4599
 6285SOL    HW219755   1.648   2.623   4.394  1.1583  0.3895  0.1343
 6286SOL     OW19756   0.778   3.726   1.272 -0.3580  0.2410 -0.4149
 6286SOL    HW119757   0.714   3.654   1.244 -0.4767  0.3540 -0.4397
 6286SOL    HW219758   0.838   3.749   1.195  0.0629 -0.2333 -0.2290
 6287SOL     OW19759   6.426   4.226   2.911  0.0490 -0.3153 -0.0273
 6287SOL    HW119760   6.368   4.159   2.958  0.4110 -0.1979  0.5981
 6287SOL    HW219761   6.397   4.318   2.936 -0.3085 -0.2305 -0.7168
 6288SOL     OW19762   1.092   3.668   1.678 -0.7556  0.7924 -0.3620
 6288SOL    HW119763   1.045   3.745   1.722 -0.8353  0.0721  0.8310
 6288SOL    HW219764   1.181   3.654   1.721 -1.8135 -1.4354  1.2421
 6289SOL     OW19765   3.870   5.762   6.407 -0.3220  0.6589  0.7403
 6289SOL    HW119766   3.942   5.699   6.433 -0.4066 -0.0152 -0.5393
 6289SOL    HW219767   3.897   5.855   6.429  1.2049  0.4781 -0.1909
 6290SOL     OW19768   0.200   6.924   3.818  0.6268 -0.1355 -0.1970
 6290SOL    HW119769   0.223   7.019   3.840  0.7386 -0.1459 -0.2694
 6290SOL    HW219770   0.283   6.876   3.789  1.2715 -1.1003  2.8694
 6291SOL     OW19771   2.409   4.076   1.387  0.0576 -0.3976  0.2757
 6291SOL    HW119772   2.465   4.146   1.431  0.6675 -0.6421 -0.0888
 6291SOL    HW219773   2.462   4.033   1.313 -0.2127 -1.4092  0.6545
 6292SOL     OW19774   1.416   2.971   3.574 -0.7695 -0.2681 -0.1252
 6292SOL    HW119775   1.367   2.938   3.654 -0.3246 -0.9094 -0.1083
 6292SOL    HW219776   1.452   3.062   3.593  0.5871 -0.9813  0.9768
 6293SOL     OW19777   2.469   2.498   0.562 -0.4271  0.7184 -0.5840
 6293SOL    HW119778   2.513   2.411   0.544 -3.1475 -0.8237 -0.3309
 6293SOL    HW219779   2.438   2.538   0.475 -1.6046  0.0000 -0.5246
 6294SOL     OW19780   2.416   2.230   2.780 -0.3109 -0.2564 -0.4008
 6294SOL    HW119781   2.333   2.275   2.749 -1.3164 -0.8216  1.3537
 6294SOL    HW219782   2.496   2.274   2.737 -1.4628  0.5558 -1.7874
 6295SOL     OW19783   4.324   3.472   6.015  0.6640 -0.1375 -0.3357
 6295SOL    HW119784   4.287   3.419   6.091 -2.0151  0.5707 -1.0313
 6295SOL    HW219785   4.343   3.565   6.045 -1.2013  0.3889 -0.6299
 6296SOL     OW19786   0.894   0.925   1.309  0.4199 -0.9801 -0.0803
 6296SOL    HW119787   0.895   0.908   1.407  0.4197  0.7002  0.2338
 6296SOL    HW219788   0.859   1.017   1.291  0.5499 -1.2088 -1.6504
 6297SOL     OW19789   0.901   2.434   4.656  0.4632  0.3467  0.2926
 6297SOL    HW119790   0.994   2.404   4.636  0.5503  0.4254  0.5781
 6297SOL    HW219791   0.839   2.398   4.587  0.9108  1.4915 -0.7270
 6298SOL     OW19792   6.961   1.830   6.041  0.0990  0.5022 -0.2841
 6298SOL    HW119793   7.006   1.888   6.109  0.7351 -0.8339  0.4757
 6298SOL    HW219794   7.016   1.830   5.957  0.8920 -0.1373  0.2154
 6299SOL     OW19795   3.772   2.118   3.094  0.1154 -0.4748  0.0838
 6299SOL    HW119796   3.721   2.173   3.027  1.9888  1.7605  0.3805
 6299SOL    HW219797   3.803   2.034   3.051 -0.7304 -0.1805 -1.1565
 6300SOL     OW19798   2.083   1.838   1.283 -0.2284 -0.2913  0.2672
 6300SOL    HW119799   2.048   1.808   1.373 -0.2652  1.1187  0.7486
 6300SOL    HW219800   2.171   1.883   1.295 -0.4035  0.2311 -0.3578
 6301SOL     OW19801   4.538   4.689   1.712  0.5961 -0.2775  0.1850
 6301SOL    HW119802   4.595   4.732   1.782  1.4610  0.9184 -1.1830
 6301SOL    HW219803   4.444   4.723   1.719  0.5749 -0.5074  1.0296
 6302SOL     OW19804   3.046   4.704   6.588 -0.1487  0.9810  0.1034
 6302SOL    HW119805   3.092   4.633   6.640 -0.5525  1.1136  0.6525
 6302SOL    HW219806   3.106   4.737   6.515 -0.2618 -0.5056 -0.6911
 6303SOL     OW19807   5.837   3.235   5.099  0.1980  0.2245 -0.5083
 6303SOL    HW119808   5.897   3.286   5.161  1.5816 -0.7584 -0.9940
 6303SOL    HW219809   5.836   3.138   5.127  0.5727 -0.1665 -1.8019
 6304SOL     OW19810   1.286   3.323   0.357 -0.6252  0.4481 -0.2423
 6304SOL    HW119811   1.362   3.301   0.418 -0.2918  1.8111 -0.1340
 6304SOL    HW219812   1.259   3.241   0.306  1.1014 -0.0141 -0.4784
 6305SOL     OW19813   1.858   4.767   4.087  0.1934 -0.9487  0.4336
 6305SOL    HW119814   1.783   4.789   4.025  0.3095 -1.1683  0.2157
 6305SOL    HW219815   1.849   4.821   4.171  0.3253 -0.2645  0.0128
 6306SOL     OW19816   0.670   2.996   4.513 -0.1899 -0.3319 -0.1964
 6306SOL    HW119817   0.628   2.909   4.486 -2.8844  1.2284 -1.4984
 6306SOL    HW219818   0.676   2.999   4.613  1.7553 -2.6970 -0.1387
 6307SOL     OW19819   3.520   3.558   1.931 -0.0310  0.0109  0.0235
 6307SOL    HW119820   3.496   3.465   1.959  1.7337 -0.9259 -1.4571
 6307SOL    HW219821   3.598   3.590   1.985  1.5844 -0.7330 -1.7946
 6308SOL     OW19822   1.441   6.939   1.201  0.5753  0.0131 -0.0176
 6308SOL    HW119823   1.458   7.038   1.203  0.0968  0.0923  0.9472
 6308SOL    HW219824   1.343   6.923   1.189  0.6406 -0.3384 -0.0749
 6309SOL     OW19825   0.740   4.240   5.083 -0.2105  0.4823  0.2273
 6309SOL    HW119826   0.705   4.227   4.991  1.6157  0.5357 -0.5188
 6309SOL    HW219827   0.664   4.237   5.149 -1.3271 -1.7912 -1.0338
 6310SOL     OW19828   0.007   6.835   3.508 -0.4103  0.7345  0.2663
 6310SOL    HW119829   0.089   6.888   3.485  1.1956  0.3487  4.1999
 6310SOL    HW219830   0.031   6.739   3.519 -1.8027  0.3160 -0.1522
 6311SOL     OW19831   6.665   1.907   6.547 -0.4794  0.4187 -0.2232
 6311SOL    HW119832   6.697   2.001   6.539 -0.6398  0.4254 -0.8266
 6311SOL    HW219833   6.600   1.887   6.474  0.7843 -0.6465 -1.1267
 6312SOL     OW19834   3.792   3.500   0.231  0.2136  0.8088 -0.5862
 6312SOL    HW119835   3.725   3.569   0.204 -0.4670  0.6957  0.7305
 6312SOL    HW219836   3.796   3.428   0.162  0.1337  1.6002 -1.4353
 6313SOL     OW19837   4.490   0.519   3.915 -0.3946 -0.0840 -0.3750
 6313SOL    HW119838   4.407   0.532   3.970 -1.2746  0.1801 -1.7196
 6313SOL    HW219839   4.477   0.561   3.825  1.7779  1.3231 -0.1053
 6314SOL     OW19840   0.775   5.267   2.609  0.8174  0.1076  0.0648
 6314SOL    HW119841   0.828   5.302   2.531  1.3481  0.3524  0.5266
 6314SOL    HW219842   0.806   5.175   2.632 -1.4183 -1.2494 -1.9368
 6315SOL     OW19843   1.929   1.681   4.075 -0.3839  0.4972  0.2401
 6315SOL    HW119844   1.978   1.599   4.043 -1.1437 -0.0415  0.4379
 6315SOL    HW219845   1.994   1.756   4.086  1.0328 -1.0357  3.5825
 6316SOL     OW19846   6.445   1.444   6.724 -0.2562 -0.4493 -0.6398
 6316SOL    HW119847   6.502   1.409   6.649 -0.8868  1.5426 -2.1258
 6316SOL    HW219848   6.501   1.452   6.807  1.3115  0.2514 -1.7248
 6317SOL     OW19849   5.735   5.061   1.267 -0.5564 -0.2349  0.5358
 6317SOL    HW119850   5.834   5.066   1.280 -0.2070 -2.4160 -0.8071
 6317SOL    HW219851   5.698   5.153   1.252  1.6803  0.3899 -1.7114
 6318SOL     OW19852   0.141   4.856   0.208  0.6845 -0.1430  0.1140
 6318SOL    HW119853   0.125   4.794   0.131 -2.1462  0.3104  0.2101
 6318SOL    HW219854   0.187   4.939   0.176 -1.7359  0.6927 -1.5330
 6319SOL     OW19855   5.154   1.993   3.188  0.2770 -0.7458  0.0142
 6319SOL    HW119856   5.185   1.930   3.259 -0.0393 -0.7215  0.1788
 6319SOL    HW219857   5.202   2.081   3.197 -1.5026  0.1383  1.7842
 6320SOL     OW19858   0.181   1.994   0.132 -0.4356  0.1149 -0.5539
 6320SOL    HW119859   0.095   1.949   0.109  0.4025 -1.4005 -0.9041
 6320SOL    HW219860   0.181   2.020   0.229 -2.5232  3.1317 -1.2336
 6321SOL     OW19861   1.608   4.371   6.801  0.4314 -0.1004 -0.9120
 6321SOL    HW119862   1.535   4.362   6.733  0.1760 -0.4532 -0.5930
 6321SOL    HW219863   1.667   4.290   6.797  0.7297  0.1211 -1.0750
 6322SOL     OW19864   3.496   1.980   3.520 -0.6815 -0.0010 -0.1379
 6322SOL    HW119865   3.579   2.004   3.570 -0.4259  1.9576 -1.3923
 6322SOL    HW219866   3.518   1.964   3.424 -1.6682 -0.0124 -0.3745
 6323SOL     OW19867   3.167   6.997   6.903 -0.0013 -0.1300 -0.5347
 6323SOL    HW119868   3.163   6.975   6.806  0.5426 -1.3306 -0.2993
 6323SOL    HW219869   3.171   6.913   6.957 -0.5000  0.5146  0.5438
 6324SOL     OW19870   5.528   4.258   1.388  0.2840  0.0427  0.4326
 6324SOL    HW119871   5.620   4.281   1.420  0.3051  0.9616 -0.2503
 6324SOL    HW219872   5.534   4.180   1.325  0.5602 -0.0894  0.6186
 6325SOL     OW19873   1.336   3.457   4.591 -0.5451 -0.1839 -0.4993
 6325SOL    HW119874   1.282   3.482   4.671 -2.2023 -2.2222 -0.8857
 6325SOL    HW219875   1.282   3.475   4.508 -0.3029 -1.4146 -0.9415
 6326SOL     OW19876   6.402   6.367   3.493 -0.2427  0.1525  0.2512
 6326SOL    HW119877   6.445   6.335   3.409 -0.8035 -2.1335  0.7818
 6326SOL    HW219878   6.399   6.467   3.492  2.4954  0.3009 -1.0379
 6327SOL     OW19879   5.545   6.563   2.938 -0.3524  0.2332 -0.0093
 6327SOL    HW119880   5.555   6.468   2.910  0.3282  0.1164  0.5883
 6327SOL    HW219881   5.635   6.607   2.937 -0.4933  0.5538  0.7939
 6328SOL     OW19882   3.101   4.256   5.185 -0.5849 -0.1584 -0.1376
 6328SOL    HW119883   3.029   4.321   5.163 -1.7832 -0.9138  1.3635
 6328SOL    HW219884   3.084   4.170   5.137 -0.8153 -0.4183  0.4122
 6329SOL     OW19885   0.413   3.031   4.765 -0.4074 -0.1692 -0.4447
 6329SOL    HW119886   0.388   3.077   4.850  0.4620  1.2045 -0.8987
 6329SOL    HW219887   0.331   2.998   4.720 -1.1131  1.1918 -0.2161
 6330SOL     OW19888   3.137   1.728   4.201  0.0794 -0.3940 -0.3439
 6330SOL    HW119889   3.227   1.716   4.242 -0.0935 -1.8285 -0.3320
 6330SOL    HW219890   3.073   1.762   4.270  0.5928  0.6027 -0.3462
 6331SOL     OW19891   5.868   2.008   3.289 -0.2643 -0.3009  0.4574
 6331SOL    HW119892   5.926   2.046   3.217  0.5835  0.9822  1.7736
 6331SOL    HW219893   5.885   1.909   3.296  2.1621  0.0931  1.1238
 6332SOL     OW19894   2.697   0.357   6.896 -0.1267 -0.8118  0.4977
 6332SOL    HW119895   2.736   0.389   6.809  0.5297 -1.1220  0.6723
 6332SOL    HW219896   2.597   0.354   6.888 -0.1966  0.8451  0.3285
 6333SOL     OW19897   7.010   3.745   0.364 -0.3129 -0.1010  0.1621
 6333SOL    HW119898   6.929   3.715   0.314  0.0203 -0.1627 -0.3520
 6333SOL    HW219899   6.994   3.837   0.401 -1.0230 -0.5469  1.0208
 6334SOL     OW19900   3.349   1.603   3.243  0.6795  0.2202 -0.2245
 6334SOL    HW119901   3.441   1.633   3.265  1.1450 -1.2694 -0.0323
 6334SOL    HW219902   3.336   1.508   3.273 -0.3297 -0.1964 -1.8279
 6335SOL     OW19903   6.029   1.508   4.446  0.0530  1.1515  0.3966
 6335SOL    HW119904   5.990   1.575   4.508 -3.1352  0.9630 -1.2086
 6335SOL    HW219905   6.015   1.416   4.482  0.4922  1.1409  0.5509
 6336SOL     OW19906   0.725   3.433   1.186  0.7783 -0.0977  0.2980
 6336SOL    HW119907   0.643   3.396   1.143  1.7174 -1.6102 -0.2687
 6336SOL    HW219908   0.707   3.451   1.282  0.5525 -3.2371  0.9489
 6337SOL     OW19909   6.958   2.100   6.879 -0.5028  0.0692 -0.7259
 6337SOL    HW119910   6.915   2.187   6.857  0.5075  0.4245 -1.3615
 6337SOL    HW219911   7.056   2.113   6.890 -0.2137 -1.1235 -1.6549
 6338SOL     OW19912   1.827   1.341   3.110 -0.2294  1.1567  0.0366
 6338SOL    HW119913   1.841   1.431   3.153 -1.5054  0.7173  1.4668
 6338SOL    HW219914   1.732   1.333   3.080 -0.1032  0.3018 -0.1483
 6339SOL     OW19915   0.817   3.504   4.676 -0.0054  0.9749  0.2976
 6339SOL    HW119916   0.873   3.425   4.654 -1.8322 -0.6053  1.0426
 6339SOL    HW219917   0.726   3.494   4.635 -0.5865  2.2045  1.2092
 6340SOL     OW19918   2.364   5.398   0.263 -0.0334 -0.1899  0.0837
 6340SOL    HW119919   2.416   5.313   0.255  1.5757  0.6684  1.0016
 6340SOL    HW219920   2.337   5.412   0.359 -0.0461  0.4564 -0.0087
 6341SOL     OW19921   2.080   4.463   2.728  0.6928  0.0508  0.0638
 6341SOL    HW119922   2.139   4.542   2.744  1.1850  0.1129 -1.8308
 6341SOL    HW219923   2.134   4.388   2.690 -0.1409 -0.5174 -0.0271
 6342SOL     OW19924   3.085   6.901   6.671 -0.1733  0.0345 -0.5407
 6342SOL    HW119925   2.985   6.898   6.663 -0.1985  1.7957 -1.2629
 6342SOL    HW219926   3.119   6.810   6.695 -2.2112  0.0152  2.9733
 6343SOL     OW19927   2.598   2.726   7.014  0.0052  0.1031 -0.5985
 6343SOL    HW119928   2.615   2.693   7.106 -1.0932 -2.2851 -1.1686
 6343SOL    HW219929   2.613   2.825   7.010 -0.9753  0.4534  2.3764
 6344SOL     OW19930   1.530   1.770   3.611  0.0257  0.1153 -0.0624
 6344SOL    HW119931   1.574   1.684   3.637 -1.5232 -0.2858  1.4070
 6344SOL    HW219932   1.579   1.811   3.533  1.8041 -1.2194  0.2963
 6345SOL     OW19933   0.579   0.783   3.223  0.0372 -1.0439 -0.6881
 6345SOL    HW119934   0.586   0.847   3.147  3.1096 -0.0757  0.2566
 6345SOL    HW219935   0.536   0.829   3.301 -0.5778 -1.1483 -0.9604
 6346SOL     OW19936   0.684   3.603   2.734 -0.3465  0.4473 -0.4425
 6346SOL    HW119937   0.664   3.595   2.636  0.8711 -2.1891 -0.5550
 6346SOL    HW219938   0.655   3.519   2.781  0.8362  0.8661  1.1206
 6347SOL     OW19939   1.216   1.740   2.975 -0.1463  0.3958 -0.5031
 6347SOL    HW119940   1.209   1.667   3.043 -0.7741 -0.2685 -1.2532
 6347SOL    HW219941   1.291   1.802   2.999 -0.0524 -0.1005  0.5192
 6348SOL     OW19942   1.103   4.153   6.544 -0.2368  0.4754  0.4802
 6348SOL    HW119943   1.169   4.218   6.506  0.7851 -0.1576  1.0959
 6348SOL    HW219944   1.114   4.064   6.498 -0.9476  0.4742  0.3095
 6349SOL     OW19945   0.805   2.280   0.293 -0.3973  0.1558  0.6378
 6349SOL    HW119946   0.794   2.362   0.238  0.6270  0.0817  0.2968
 6349SOL    HW219947   0.770   2.297   0.386 -0.3495  0.9162  0.5234
 6350SOL     OW19948   6.325   1.642   1.789 -0.1160  0.3665 -0.6513
 6350SOL    HW119949   6.419   1.674   1.803 -0.0705  0.2403 -0.6653
 6350SOL    HW219950   6.318   1.546   1.817 -0.9351  1.1657  2.2396
 6351SOL     OW19951   6.496   2.697   3.124 -0.4065 -0.2183 -0.3116
 6351SOL    HW119952   6.478   2.725   3.030  0.7708  1.3652 -0.1090
 6351SOL    HW219953   6.513   2.778   3.180  0.4100 -1.2175  0.9403
 6352SOL     OW19954   4.475   1.056   4.120  0.2407 -0.1819 -0.4931
 6352SOL    HW119955   4.526   1.105   4.049 -0.0025  0.6772 -0.0896
 6352SOL    HW219956   4.493   1.097   4.209  0.4670 -1.1905 -0.0576
 6353SOL     OW19957   5.040   6.204   4.775 -0.5521 -0.2291 -0.5898
 6353SOL    HW119958   4.955   6.249   4.746  0.3536  0.7031 -1.8782
 6353SOL    HW219959   5.089   6.169   4.695  0.0672 -1.1747  0.1800
 6354SOL     OW19960   5.929   4.447   2.823  0.2231  0.8019  0.2507
 6354SOL    HW119961   5.912   4.451   2.724  0.5682 -0.5193  0.1071
 6354SOL    HW219962   5.934   4.539   2.860  0.3143  1.3259 -1.0056
 6355SOL     OW19963   4.349   5.748   0.149  0.4119 -0.2468  0.2816
 6355SOL    HW119964   4.252   5.766   0.162  0.3409 -0.3493 -0.0822
 6355SOL    HW219965   4.365   5.649   0.154  0.5769 -0.1919  0.8528
 6356SOL     OW19966   6.584   1.569   1.398 -0.0394 -0.3087  0.7502
 6356SOL    HW119967   6.578   1.479   1.442  0.5538 -0.3072  0.8433
 6356SOL    HW219968   6.496   1.617   1.408  0.2847 -0.0230  2.5629
 6357SOL     OW19969   5.510   1.534   5.889  0.5619 -0.4736  0.1221
 6357SOL    HW119970   5.471   1.491   5.807  0.0675  1.1136 -0.4988
 6357SOL    HW219971   5.560   1.616   5.863 -0.5981  0.7226  1.5029
 6358SOL     OW19972   0.943   1.175   3.749 -0.4334  0.3186  0.0204
 6358SOL    HW119973   0.893   1.105   3.699 -0.3010 -0.5349  1.0550
 6358SOL    HW219974   0.879   1.229   3.804 -0.3846  0.1387  0.2559
 6359SOL     OW19975   5.035   4.467   1.342 -0.2734  0.4873  0.2073
 6359SOL    HW119976   5.069   4.377   1.367  0.2333  0.6698  0.1952
 6359SOL    HW219977   5.020   4.522   1.424 -1.6376  0.0295  0.2815
 6360SOL     OW19978   3.279   2.773   1.469 -0.0520  0.8251 -0.6821
 6360SOL    HW119979   3.341   2.835   1.422  0.8901  0.6793  0.3426
 6360SOL    HW219980   3.276   2.796   1.566  1.1732 -1.3999 -0.0696
 6361SOL     OW19981   5.459   1.089   3.511 -0.2621 -0.1452  0.5191
 6361SOL    HW119982   5.557   1.101   3.529 -0.3619  1.5864  0.1021
 6361SOL    HW219983   5.407   1.158   3.562 -1.0004  0.9191 -1.5384
 6362SOL     OW19984   2.124   4.030   0.173  0.0369 -0.1643  0.2971
 6362SOL    HW119985   2.129   4.128   0.153 -2.1231  0.3267  1.7536
 6362SOL    HW219986   2.202   4.003   0.228  1.7491  0.2139 -1.7946
 6363SOL     OW19987   6.487   1.700   2.988 -0.0665  0.4483  0.0327
 6363SOL    HW119988   6.571   1.651   2.965 -0.2766  0.3981 -0.6391
 6363SOL    HW219989   6.485   1.719   3.087  1.9324  2.6415 -0.2741
 6364SOL     OW19990   2.002   0.897   4.335 -0.3374 -0.3953 -0.1733
 6364SOL    HW119991   1.953   0.876   4.420 -0.6549 -1.6960 -0.6510
 6364SOL    HW219992   1.936   0.906   4.260 -0.0946  1.1497 -0.2302
 6365SOL     OW19993   5.395   5.861   1.415  0.9818  0.5348 -0.4595
 6365SOL    HW119994   5.441   5.791   1.469  1.7343  1.8051  0.6035
 6365SOL    HW219995   5.299   5.836   1.403  1.3604 -0.9375 -0.5892
 6366SOL     OW19996   6.398   2.158   4.595  0.1336 -0.4624  0.2358
 6366SOL    HW119997   6.324   2.153   4.528  0.4918  0.5420 -0.2473
 6366SOL    HW219998   6.473   2.098   4.567  0.2752 -0.0595 -0.2698
 6367SOL     OW19999   1.016   4.576   6.401 -0.4222 -0.4064 -0.1888
 6367SOL    HW120000   1.032   4.527   6.487 -1.8081  1.9554  1.5529
 6367SOL    HW220001   1.098   4.572   6.344  0.7991 -1.4528  1.5574
 6368SOL     OW20002   6.436   2.783   4.771 -0.0315 -0.2871  0.0252
 6368SOL    HW120003   6.358   2.844   4.752  1.1923  0.4557 -3.5255
 6368SOL    HW220004   6.415   2.691   4.738  0.7952  0.1240 -1.7965
 6369SOL     OW20005   3.929   5.788   1.859  0.0266 -0.3516  0.1523
 6369SOL    HW120006   3.936   5.869   1.801 -0.0211 -0.7095 -0.3636
 6369SOL    HW220007   4.019   5.747   1.871  0.1218  0.0273  0.7881
 6370SOL     OW20008   5.669   2.621   4.043 -0.5311  0.1982 -0.0674
 6370SOL    HW120009   5.747   2.650   3.987  0.0087 -1.8465 -0.4825
 6370SOL    HW220010   5.604   2.697   4.053  1.1992  1.7659 -0.2171
 6371SOL     OW20011   6.077   3.429   5.987 -0.4497 -0.2166 -0.5744
 6371SOL    HW120012   5.990   3.391   5.957 -0.3557 -0.3124 -0.7271
 6371SOL    HW220013   6.134   3.357   6.025 -0.0552 -0.3371 -1.3627
 6372SOL     OW20014   6.364   3.595   1.991 -0.5217  0.1576 -0.3275
 6372SOL    HW120015   6.356   3.544   1.905  1.9443 -1.9357  0.5463
 6372SOL    HW220016   6.319   3.544   2.064 -0.8910  0.9337 -0.0074
 6373SOL     OW20017   3.905   1.909   1.690 -0.3532 -0.2550  0.4167
 6373SOL    HW120018   3.885   2.002   1.722 -2.1409  0.0679 -1.3807
 6373SOL    HW220019   3.989   1.910   1.635  0.6108 -0.0857  1.8521
 6374SOL     OW20020   1.556   3.007   6.634 -0.6213 -0.5620 -0.1193
 6374SOL    HW120021   1.563   3.104   6.609  0.8976 -0.2534  1.3434
 6374SOL    HW220022   1.560   2.998   6.734  1.5478 -2.2548 -0.2811
 6375SOL     OW20023   4.419   1.482   2.353  0.2696 -0.5269 -0.2914
 6375SOL    HW120024   4.407   1.405   2.290  0.5335  0.4280 -1.5631
 6375SOL    HW220025   4.414   1.568   2.301  2.8759  0.2541  0.5623
 6376SOL     OW20026   3.148   6.482   6.468 -0.3701 -0.0363 -0.4238
 6376SOL    HW120027   3.137   6.399   6.413  1.0555  0.1981 -1.0840
 6376SOL    HW220028   3.243   6.511   6.467 -0.7692  1.3760  0.1598
 6377SOL     OW20029   0.363   1.697   0.958 -0.2639  0.5356 -0.1020
 6377SOL    HW120030   0.442   1.715   0.899 -1.2870  1.5414 -1.2181
 6377SOL    HW220031   0.284   1.675   0.901 -1.7804  3.3728  0.7412
 6378SOL     OW20032   6.428   4.190   2.171  0.2463  0.3561  0.4368
 6378SOL    HW120033   6.343   4.147   2.142 -0.4295  0.7968  1.7006
 6378SOL    HW220034   6.414   4.238   2.257  0.9679  3.1011 -0.8577
 6379SOL     OW20035   3.520   2.315   0.274 -0.2138 -0.1995  0.4805
 6379SOL    HW120036   3.480   2.403   0.303 -1.1691 -0.3096 -0.4327
 6379SOL    HW220037   3.453   2.265   0.219  0.3720 -1.4546  0.8834
 6380SOL     OW20038   0.210   3.589   4.978  0.2849  0.0384  0.4782
 6380SOL    HW120039   0.218   3.641   5.063 -2.0630 -1.7255  1.8962
 6380SOL    HW220040   0.134   3.525   4.985  0.4641 -0.6921 -2.7315
 6381SOL     OW20041   3.980   4.031   0.195 -0.0110  0.0067 -0.8538
 6381SOL    HW120042   3.932   4.103   0.146  0.8165  0.4177 -1.0669
 6381SOL    HW220043   3.975   4.048   0.294 -0.9773 -0.3859 -0.8218
 6382SOL     OW20044   2.784   1.693   1.980 -0.4002 -0.0751  0.6169
 6382SOL    HW120045   2.822   1.755   2.049  1.5449 -1.7396  1.1273
 6382SOL    HW220046   2.816   1.721   1.889  0.1647 -0.0949  0.8044
 6383SOL     OW20047   2.659   0.452   2.887 -0.2463 -0.4264  0.0809
 6383SOL    HW120048   2.716   0.383   2.845 -0.4150 -1.1365  0.9858
 6383SOL    HW220049   2.573   0.460   2.837  0.1752 -0.1594 -0.6080
 6384SOL     OW20050   6.517   4.614   2.479 -0.3401 -0.5929 -0.0366
 6384SOL    HW120051   6.450   4.554   2.437  0.7752 -2.3191  0.5328
 6384SOL    HW220052   6.515   4.604   2.579 -0.1280  0.3353  0.0795
 6385SOL     OW20053   0.954   4.680   1.391  0.0379  0.1171 -0.1858
 6385SOL    HW120054   1.050   4.706   1.384  0.0604 -0.1725 -1.0788
 6385SOL    HW220055   0.936   4.644   1.483  0.3944  1.6460  0.5254
 6386SOL     OW20056   1.629   5.284   1.337 -0.3101  0.3964 -0.0032
 6386SOL    HW120057   1.606   5.240   1.250  1.6466  1.4731 -1.1527
 6386SOL    HW220058   1.577   5.369   1.347 -2.0795 -0.7462  0.9255
 6387SOL     OW20059   6.372   2.738   6.134  0.1695  0.2220  0.2277
 6387SOL    HW120060   6.311   2.787   6.197  1.0379  0.9660  0.5171
 6387SOL    HW220061   6.395   2.649   6.173 -1.9005 -0.7158 -0.5735
 6388SOL     OW20062   0.237   5.323   3.350 -0.4583  0.0228 -0.2269
 6388SOL    HW120063   0.222   5.315   3.252 -0.0622 -0.7844 -0.2272
 6388SOL    HW220064   0.290   5.245   3.382 -2.5666 -0.9573  1.0490
 6389SOL     OW20065   6.438   6.923   0.934 -0.2303 -0.1154 -0.0643
 6389SOL    HW120066   6.527   6.887   0.906 -0.2423  0.0974 -0.3807
 6389SOL    HW220067   6.376   6.926   0.855  0.0431  1.4252 -0.2595
 6390SOL     OW20068   5.913   6.425   2.536 -0.0130  0.7589 -0.0706
 6390SOL    HW120069   6.003   6.407   2.578 -0.9429 -0.1637  1.6480
 6390SOL    HW220070   5.884   6.343   2.487 -0.8679  0.2023  1.2918
 6391SOL     OW20071   0.492   2.024   3.958 -0.1767  0.0299  0.7645
 6391SOL    HW120072   0.491   1.950   3.891 -0.5889 -1.3389  2.2231
 6391SOL    HW220073   0.526   2.107   3.915 -0.1535 -0.8698 -1.0519
 6392SOL     OW20074   4.341   6.194   3.470  0.0418 -0.0362  0.1605
 6392SOL    HW120075   4.329   6.106   3.423  1.7764 -0.1589 -0.1245
 6392SOL    HW220076   4.252   6.227   3.502 -1.0682 -0.4668 -2.2324
 6393SOL     OW20077   4.044   3.589   0.315 -0.3037  0.0292 -0.0637
 6393SOL    HW120078   3.946   3.573   0.320 -0.1964 -0.9834 -0.8164
 6393SOL    HW220079   4.063   3.662   0.248 -0.4650 -0.9851 -1.2591
 6394SOL     OW20080   0.997   5.982   1.287  0.2980 -0.2085  0.2786
 6394SOL    HW120081   0.935   5.978   1.365 -0.5161  2.2190 -0.1774
 6394SOL    HW220082   1.085   6.020   1.315  0.3891 -0.3848  0.2345
 6395SOL     OW20083   0.580   4.501   2.952  0.4803 -0.0763 -0.0599
 6395SOL    HW120084   0.516   4.434   2.914 -0.1508  1.5446 -2.0115
 6395SOL    HW220085   0.529   4.571   3.002  0.6643  1.1786 -1.5526
 6396SOL     OW20086   1.747   3.791   4.228 -0.3406 -0.1523 -0.0840
 6396SOL    HW120087   1.787   3.700   4.239  0.4342  0.0918 -0.8269
 6396SOL    HW220088   1.749   3.839   4.316 -0.4543 -0.7232  0.2362
 6397SOL     OW20089   0.498   3.865   3.890 -0.0105 -0.3529  0.1729
 6397SOL    HW120090   0.489   3.834   3.795  3.7930 -1.8185  0.1293
 6397SOL    HW220091   0.541   3.955   3.891  0.7619 -0.7210  0.4984
 6398SOL     OW20092   1.840   6.656   1.072  0.0748 -0.3185 -0.6170
 6398SOL    HW120093   1.745   6.663   1.043 -0.4979  0.2148  1.2414
 6398SOL    HW220094   1.845   6.605   1.158  1.2322  1.3887  0.3806
 6399SOL     OW20095   3.672   0.305   6.480 -0.2288  0.5147  0.1675
 6399SOL    HW120096   3.683   0.209   6.456 -0.1626  0.5116  0.2110
 6399SOL    HW220097   3.595   0.315   6.543 -0.9076  0.6167 -0.6578
 6400SOL     OW20098   6.208   0.763   4.056 -0.3952 -0.1753 -0.2473
 6400SOL    HW120099   6.130   0.806   4.101 -1.4678 -1.3035 -0.9588
 6400SOL    HW220100   6.245   0.692   4.115  0.3245  0.5921  0.2351
 6401SOL     OW20101   4.455   4.549   6.886  0.4145 -0.5233 -0.1916
 6401SOL    HW120102   4.418   4.509   6.970 -1.3985 -0.1928 -0.7794
 6401SOL    HW220103   4.461   4.477   6.816 -1.2921 -0.1595 -0.7569
 6402SOL     OW20104   3.746   3.128   6.781  0.3967  0.1386  0.4049
 6402SOL    HW120105   3.789   3.071   6.851  0.5356 -0.6676 -0.3170
 6402SOL    HW220106   3.652   3.097   6.765  0.1437  0.7372  0.6853
 6403SOL     OW20107   3.164   6.435   5.375 -0.3137 -0.0074  0.6677
 6403SOL    HW120108   3.252   6.438   5.423  1.8506  0.0523 -2.9507
 6403SOL    HW220109   3.122   6.345   5.386  1.2821 -0.7740  0.7630
 6404SOL     OW20110   5.818   6.313   6.481  0.8282 -0.5447  0.5378
 6404SOL    HW120111   5.765   6.253   6.542  0.7406 -0.9769  0.0442
 6404SOL    HW220112   5.896   6.349   6.530 -0.3515  0.7619  1.5445
 6405SOL     OW20113   3.725   1.048   4.670 -0.1049  0.3715 -0.1286
 6405SOL    HW120114   3.787   1.055   4.592 -0.7714  1.8566 -0.5604
 6405SOL    HW220115   3.670   1.131   4.676 -1.9579 -0.8291  0.3267
 6406SOL     OW20116   1.472   4.819   2.308  0.0275 -0.1446 -0.4580
 6406SOL    HW120117   1.399   4.786   2.248 -0.5198 -1.2809  0.7709
 6406SOL    HW220118   1.560   4.809   2.262 -0.3731 -1.0450 -1.0633
 6407SOL     OW20119   1.058   1.694   1.608  0.0073 -0.4285 -0.1379
 6407SOL    HW120120   1.104   1.625   1.664  1.6493  0.2522 -0.5967
 6407SOL    HW220121   0.992   1.649   1.548  0.4708 -1.5042  0.1267
 6408SOL     OW20122   6.059   0.769   3.416  0.5823  0.0992 -0.4646
 6408SOL    HW120123   6.126   0.810   3.354 -0.2882  0.1859 -1.3531
 6408SOL    HW220124   6.028   0.838   3.482  1.3259  0.0674 -0.0618
 6409SOL     OW20125   6.631   3.739   4.060  0.2152  0.2788 -0.8940
 6409SOL    HW120126   6.589   3.657   4.100 -2.3437  1.5523 -0.7620
 6409SOL    HW220127   6.648   3.806   4.133 -0.6529  1.0495 -1.3873
 6410SOL     OW20128   3.934   0.852   0.464 -0.2596  0.3054 -0.6742
 6410SOL    HW120129   3.868   0.832   0.391 -0.4907 -0.5926 -0.2322
 6410SOL    HW220130   3.940   0.773   0.525 -0.8390  1.4342  0.8855
 6411SOL     OW20131   2.992   1.788   4.438 -0.6305  0.1689  1.0333
 6411SOL    HW120132   2.987   1.886   4.456 -0.7146  0.2632  0.5081
 6411SOL    HW220133   3.020   1.740   4.521  0.6570  0.7519  0.9557
 6412SOL     OW20134   3.745   0.792   0.256  0.5111  0.0678 -0.4940
 6412SOL    HW120135   3.648   0.807   0.277 -0.0322 -1.4234 -1.7063
 6412SOL    HW220136   3.759   0.800   0.157  1.7910  0.9869 -0.2613
 6413SOL     OW20137   3.321   0.631   5.201 -0.5989 -0.2505 -0.2398
 6413SOL    HW120138   3.378   0.573   5.142  2.3854  1.2091  0.9532
 6413SOL    HW220139   3.274   0.575   5.269  0.3809 -1.4722 -0.5446
 6414SOL     OW20140   4.562   0.625   0.885 -0.7515 -0.4362 -0.0289
 6414SOL    HW120141   4.518   0.600   0.971  0.2975  0.1020  0.6861
 6414SOL    HW220142   4.628   0.554   0.860 -0.1091  0.0409  0.3020
 6415SOL     OW20143   5.350   2.943   3.838 -0.0347  0.2233  0.1832
 6415SOL    HW120144   5.315   3.024   3.792 -0.0410  0.1547  0.0663
 6415SOL    HW220145   5.333   2.862   3.781 -0.7485  0.0281  0.6577
 6416SOL     OW20146   2.495   4.908   7.014 -0.0007  0.4375 -0.3235
 6416SOL    HW120147   2.571   4.866   7.064 -0.5059 -0.4922 -0.3190
 6416SOL    HW220148   2.529   4.950   6.930  0.7752  1.5223  0.5091
 6417SOL     OW20149   4.940   2.731   4.386  0.1237  0.2561 -0.0516
 6417SOL    HW120150   4.981   2.725   4.477 -1.7029  1.6500  0.9502
 6417SOL    HW220151   4.898   2.644   4.362  0.0171  0.0727  0.7791
 6418SOL     OW20152   4.437   6.394   0.582  0.1348  0.2221  0.9002
 6418SOL    HW120153   4.354   6.347   0.552  0.8431 -0.0130 -0.8455
 6418SOL    HW220154   4.412   6.481   0.625 -1.0062  1.1581 -1.4737
 6419SOL     OW20155   0.259   6.195   6.195 -0.0649 -0.5395 -0.1662
 6419SOL    HW120156   0.351   6.212   6.230 -0.0029 -1.1636 -0.0175
 6419SOL    HW220157   0.262   6.117   6.133 -0.4190 -0.2886 -0.5002
 6420SOL     OW20158   2.322   4.528   3.729  0.3391 -0.0501 -0.1338
 6420SOL    HW120159   2.380   4.554   3.806 -0.3209  1.5657 -0.1500
 6420SOL    HW220160   2.249   4.595   3.717  0.7918  0.1074 -2.5768
 6421SOL     OW20161   4.627   5.189   3.559 -0.1273  0.4717  0.4208
 6421SOL    HW120162   4.550   5.212   3.501 -0.2362  0.9904  0.7553
 6421SOL    HW220163   4.599   5.193   3.655  0.4362  1.1942  0.5692
 6422SOL     OW20164   2.830   2.022   6.916 -0.3443 -0.0749 -0.4516
 6422SOL    HW120165   2.895   2.083   6.871 -0.6165  1.0800  0.6735
 6422SOL    HW220166   2.750   2.011   6.857 -0.7557  1.5263 -0.2503
 6423SOL     OW20167   1.570   1.669   5.023 -0.3511  0.3113 -0.2215
 6423SOL    HW120168   1.572   1.596   4.955 -0.5678  0.8899 -0.8658
 6423SOL    HW220169   1.644   1.733   5.003 -0.1819  0.2815  0.3200
 6424SOL     OW20170   6.452   5.092   6.682  0.4423 -0.2669  0.6834
 6424SOL    HW120171   6.549   5.115   6.666  0.0560  0.9358 -0.1003
 6424SOL    HW220172   6.426   5.016   6.623  1.0677 -1.0158  1.3571
 6425SOL     OW20173   5.571   2.764   5.086 -0.0533 -0.0448 -0.2119
 6425SOL    HW120174   5.649   2.701   5.091 -0.0737  0.0179  1.0774
 6425SOL    HW220175   5.592   2.837   5.020  2.2359  1.6226  2.1635
 6426SOL     OW20176   3.524   0.065   4.526 -0.1664 -0.6412 -0.5381
 6426SOL    HW120177   3.617   0.073   4.562  0.1766 -2.3881 -0.9824
 6426SOL    HW220178   3.487  -0.025   4.547 -1.7801  0.0255 -0.3708
 6427SOL     OW20179   3.090   3.589   2.155 -0.6166 -0.6903 -0.3765
 6427SOL    HW120180   3.150   3.661   2.120  0.0066 -1.9291 -2.0190
 6427SOL    HW220181   3.012   3.579   2.093 -0.6238 -1.4977 -0.2479
 6428SOL     OW20182   0.078   5.211   6.603  0.1316  0.1545 -0.4294
 6428SOL    HW120183   0.042   5.118   6.604 -0.6497  0.4325  1.1834
 6428SOL    HW220184   0.173   5.210   6.634  0.7858 -0.2963 -2.3189
 6429SOL     OW20185   5.194   1.413   5.996  0.0518 -0.0854 -0.0184
 6429SOL    HW120186   5.218   1.506   6.024  0.1138  0.0623 -0.5658
 6429SOL    HW220187   5.255   1.348   6.042 -1.7920 -0.0982  2.6759
 6430SOL     OW20188   6.052   1.655   5.592 -0.0782 -0.2790 -0.2288
 6430SOL    HW120189   6.117   1.650   5.667  0.1116  1.8710 -0.1784
 6430SOL    HW220190   6.100   1.645   5.505 -0.3797 -3.4231 -0.1502
 6431SOL     OW20191   4.216   0.289   3.683  0.3538 -0.0572 -0.1963
 6431SOL    HW120192   4.135   0.347   3.686  0.4484  0.0587  1.4108
 6431SOL    HW220193   4.271   0.305   3.765  2.0862 -0.0362 -1.3026
 6432SOL     OW20194   5.279   2.462   0.537  0.3439 -0.2344  0.4097
 6432SOL    HW120195   5.255   2.489   0.631 -0.3359 -0.9909  0.4652
 6432SOL    HW220196   5.199   2.471   0.478  0.5722 -0.4646  0.0599
 6433SOL     OW20197   4.637   6.187   6.211 -0.3577  0.2335  0.4913
 6433SOL    HW120198   4.555   6.131   6.207  0.4577 -0.9428 -1.3046
 6433SOL    HW220199   4.661   6.205   6.307 -2.2547 -0.0035  1.0490
 6434SOL     OW20200   6.861   6.137   0.349  0.4576  0.1920 -0.4902
 6434SOL    HW120201   6.772   6.124   0.305  0.6204 -0.4662 -0.6420
 6434SOL    HW220202   6.849   6.133   0.449  0.6323 -2.4329 -0.5064
 6435SOL     OW20203   4.146   0.637   0.712  0.3131  0.3298 -0.2483
 6435SOL    HW120204   4.199   0.707   0.759  1.0402 -0.5700  0.2982
 6435SOL    HW220205   4.050   0.665   0.709  0.6573  1.5598 -0.4613
 6436SOL     OW20206   2.324   2.728   4.320  0.4461 -0.3545  0.1889
 6436SOL    HW120207   2.275   2.814   4.332 -1.0399 -1.1160 -0.2545
 6436SOL    HW220208   2.366   2.726   4.229  0.6450 -0.0299  0.2716
 6437SOL     OW20209   1.953   0.844   0.485  0.1674  0.6968 -0.0271
 6437SOL    HW120210   1.942   0.943   0.498 -1.2895  0.4553  0.8113
 6437SOL    HW220211   1.863   0.801   0.478  0.7849 -0.3735 -2.1341
 6438SOL     OW20212   1.457   5.097   3.199 -0.0142  0.0765 -0.2199
 6438SOL    HW120213   1.434   5.088   3.295 -2.0158 -0.9534 -0.7413
 6438SOL    HW220214   1.428   5.187   3.166 -0.3096  0.0280 -0.0981
 6439SOL     OW20215   4.914   5.850   2.489  0.7484  0.5636 -0.6973
 6439SOL    HW120216   4.893   5.946   2.476  1.5748  0.7335 -0.8070
 6439SOL    HW220217   5.007   5.840   2.525 -0.4663 -0.0030  2.7011
 6440SOL     OW20218   1.416   2.056   5.479 -0.3934  0.0279 -0.3354
 6440SOL    HW120219   1.318   2.052   5.462 -0.5527 -1.0554  0.6936
 6440SOL    HW220220   1.466   2.043   5.393 -1.1638 -2.7570 -0.4698
 6441SOL     OW20221   3.814   0.640   2.187 -0.2190  0.0294 -0.5348
 6441SOL    HW120222   3.773   0.582   2.117 -0.7707 -0.9244  0.5453
 6441SOL    HW220223   3.914   0.630   2.185 -0.3461 -1.6340  0.1839
 6442SOL     OW20224   2.207   1.285   4.138 -0.0342  0.2494  0.0005
 6442SOL    HW120225   2.176   1.355   4.202  0.3086  0.1158  0.3179
 6442SOL    HW220226   2.205   1.196   4.183 -0.4045  0.0639 -0.3781
 6443SOL     OW20227   2.580   1.835   5.397  0.2878  0.5640  0.4067
 6443SOL    HW120228   2.638   1.901   5.445  0.0924  0.2623  1.0694
 6443SOL    HW220229   2.547   1.876   5.311  2.4436  0.2995 -0.6136
 6444SOL     OW20230   5.381   4.233   6.601 -0.2672 -0.0254  0.4622
 6444SOL    HW120231   5.318   4.155   6.592  0.3325 -0.6488  1.5306
 6444SOL    HW220232   5.473   4.200   6.620  0.1204  0.9316  0.3115
 6445SOL     OW20233   3.259   3.479   4.088  0.0683  0.1609  0.2245
 6445SOL    HW120234   3.242   3.535   4.169  1.2923 -0.2253  0.7622
 6445SOL    HW220235   3.234   3.384   4.107  0.8579 -0.0287  0.3360
 6446SOL     OW20236   1.327   6.517   0.940  0.4683 -0.1208 -0.0472
 6446SOL    HW120237   1.267   6.589   0.975  0.5208 -0.0646 -0.0724
 6446SOL    HW220238   1.380   6.479   1.014  2.0022  1.3177 -0.3408
 6447SOL     OW20239   6.880   2.465   2.013  0.2632  0.0228  0.2412
 6447SOL    HW120240   6.919   2.375   2.034 -1.8938 -1.0176  0.0639
 6447SOL    HW220241   6.798   2.480   2.069 -1.3806  0.3658 -2.1298
 6448SOL     OW20242   3.338   3.956   1.464  0.0040  0.2964 -0.1053
 6448SOL    HW120243   3.375   3.863   1.462 -1.3098 -0.2552 -2.0026
 6448SOL    HW220244   3.402   4.017   1.418  1.3241  0.5819  1.9807
 6449SOL     OW20245   5.932   6.975   6.337 -0.1452  0.0008 -0.2605
 6449SOL    HW120246   6.002   6.966   6.407 -0.4419 -1.7234 -0.1392
 6449SOL    HW220247   5.905   6.884   6.305 -1.3740  0.6806 -1.2542
 6450SOL     OW20248   4.298   5.434   1.007  0.4423  0.0760 -0.5300
 6450SOL    HW120249   4.241   5.362   1.048  0.8686  0.5393  0.9524
 6450SOL    HW220250   4.256   5.466   0.923 -1.7050  0.6826  0.7034
 6451SOL     OW20251   6.035   5.357   1.088  0.6401 -0.0775  0.8940
 6451SOL    HW120252   6.007   5.379   0.995 -0.4221 -0.7983  1.0235
 6451SOL    HW220253   6.127   5.319   1.088  0.6169 -0.1410  0.1361
 6452SOL     OW20254   3.629   1.081   5.247 -0.3599 -0.6305 -0.3997
 6452SOL    HW120255   3.615   1.135   5.164  0.9095 -2.4338 -1.8591
 6452SOL    HW220256   3.577   0.996   5.241  1.5557 -1.8548 -0.4682
 6453SOL     OW20257   2.744   0.083   4.064 -0.0187  0.3407 -0.0151
 6453SOL    HW120258   2.720   0.179   4.048  1.4855  0.6153 -0.8519
 6453SOL    HW220259   2.687   0.025   4.006 -0.8320  0.7231  0.3802
 6454SOL     OW20260   4.706   2.777   3.048 -0.0540  0.9077  0.0378
 6454SOL    HW120261   4.709   2.838   3.127  1.2594 -1.5628  2.0504
 6454SOL    HW220262   4.653   2.695   3.070  1.8088 -0.6651 -0.9258
 6455SOL     OW20263   5.884   2.372   3.313 -0.0328  0.2129 -0.3490
 6455SOL    HW120264   5.851   2.394   3.221  0.0376  0.3435 -0.3423
 6455SOL    HW220265   5.825   2.302   3.353 -1.3060  1.5959  0.2883
 6456SOL     OW20266   4.666   2.848   1.497 -0.2701  0.0354  0.1081
 6456SOL    HW120267   4.574   2.864   1.532  0.2317  1.1557  0.9535
 6456SOL    HW220268   4.730   2.843   1.573  0.2294 -2.0059 -0.3736
 6457SOL     OW20269   0.940   5.865   4.689 -0.1151  0.1602  0.0785
 6457SOL    HW120270   0.852   5.882   4.643  1.1591  2.7480 -1.6714
 6457SOL    HW220271   0.997   5.808   4.630  0.2081  0.3929  0.1675
 6458SOL     OW20272   1.064   1.685   5.771 -0.4372  0.2749  0.0921
 6458SOL    HW120273   1.025   1.670   5.680  1.5109 -3.3254 -0.3365
 6458SOL    HW220274   1.029   1.615   5.833  0.7574  0.6562  1.2252
 6459SOL     OW20275   0.931   3.887   3.588 -0.0550  0.1495  0.2861
 6459SOL    HW120276   1.027   3.859   3.586  0.1446  0.6493  1.6074
 6459SOL    HW220277   0.920   3.973   3.539  0.2039  0.1546  0.2363
 6460SOL     OW20278   1.826   4.199   5.335 -0.6264 -0.2927 -0.9074
 6460SOL    HW120279   1.860   4.242   5.252 -0.3077 -0.7400 -1.0113
 6460SOL    HW220280   1.861   4.106   5.341  0.1265  0.0360  0.1906
 6461SOL     OW20281   1.267   0.577   2.396 -0.4553  0.6516 -0.5384
 6461SOL    HW120282   1.360   0.557   2.366 -0.6316  0.7109 -1.1461
 6461SOL    HW220283   1.203   0.511   2.354 -0.4406 -1.0177  1.8437
 6462SOL     OW20284   2.679   4.723   6.014 -0.0328  0.3233 -0.1781
 6462SOL    HW120285   2.584   4.740   5.988  0.5988  0.7157 -2.3885
 6462SOL    HW220286   2.735   4.802   5.991  1.6229 -1.6027 -3.4803
 6463SOL     OW20287   3.487   2.808   2.056  0.3307 -0.2105  0.6632
 6463SOL    HW120288   3.514   2.726   2.107 -0.1134 -0.6103  0.2711
 6463SOL    HW220289   3.451   2.876   2.120  2.5763  0.4962  1.2492
 6464SOL     OW20290   1.992   3.728   3.851 -0.0412 -0.0489 -0.0649
 6464SOL    HW120291   1.994   3.827   3.865  0.2624  0.0421 -0.6836
 6464SOL    HW220292   1.909   3.703   3.801 -0.5687 -0.2282  0.8830
 6465SOL     OW20293   3.152   0.677   4.885  0.1387  0.0987 -0.6232
 6465SOL    HW120294   3.216   0.720   4.948 -1.1391  1.3415 -0.1223
 6465SOL    HW220295   3.147   0.730   4.800 -1.1132  0.7446 -0.1769
 6466SOL     OW20296   6.445   4.770   6.605  0.2934 -0.3331  0.0550
 6466SOL    HW120297   6.457   4.827   6.525  1.5400  0.2262  0.6239
 6466SOL    HW220298   6.360   4.796   6.653 -1.4777 -1.8897 -2.0158
 6467SOL     OW20299   4.514   2.171   6.638  0.4470  0.0689 -0.0112
 6467SOL    HW120300   4.516   2.185   6.539  0.6417  0.3214  0.0270
 6467SOL    HW220301   4.607   2.154   6.672  0.3854  0.0137  0.1331
 6468SOL     OW20302   0.687   2.304   5.530  0.2225 -0.0329 -0.1154
 6468SOL    HW120303   0.605   2.248   5.521  2.1262 -3.2161  0.7244
 6468SOL    HW220304   0.675   2.367   5.607 -2.1710  1.1694 -1.3646
 6469SOL     OW20305   2.785   0.411   0.709 -0.4318 -0.9682  0.4726
 6469SOL    HW120306   2.829   0.458   0.633  1.1540 -0.8535  1.4321
 6469SOL    HW220307   2.690   0.389   0.684 -0.2263 -0.1207 -1.1690
 6470SOL     OW20308   3.697   1.169   0.437  0.7263 -0.2566  0.4194
 6470SOL    HW120309   3.740   1.213   0.515 -0.6242 -0.6560  1.4311
 6470SOL    HW220310   3.731   1.210   0.353  3.3923 -0.8627  1.0928
 6471SOL     OW20311   6.194   6.415   5.186 -0.5139 -0.1674 -0.2544
 6471SOL    HW120312   6.241   6.466   5.259 -1.6647  1.3968 -0.5545
 6471SOL    HW220313   6.236   6.436   5.098  0.0438 -1.0259 -0.1933
 6472SOL     OW20314   6.462   6.742   2.926 -0.4325 -0.0518 -0.1099
 6472SOL    HW120315   6.413   6.828   2.937 -0.2693  0.1189 -0.6710
 6472SOL    HW220316   6.555   6.760   2.893  0.2874 -0.3157  1.6368
 6473SOL     OW20317   4.371   0.418   2.422  0.3316  0.0165 -0.7143
 6473SOL    HW120318   4.307   0.453   2.490  1.3736  0.8173 -0.1257
 6473SOL    HW220319   4.353   0.320   2.408 -0.3063 -0.0237  0.2414
 6474SOL     OW20320   4.923   6.622   3.473 -0.6410  0.1030  0.1698
 6474SOL    HW120321   4.977   6.603   3.556 -1.6808 -1.4066  0.5331
 6474SOL    HW220322   4.866   6.702   3.489  0.8407  1.2211  0.0699
 6475SOL     OW20323   5.658   6.673   4.168 -0.2591 -0.0005 -0.5502
 6475SOL    HW120324   5.734   6.612   4.148  0.3179  0.7201 -0.5917
 6475SOL    HW220325   5.572   6.622   4.167  0.2427 -0.8500 -0.3337
 6476SOL     OW20326   6.652   4.729   3.129  0.0265  0.4981 -0.2209
 6476SOL    HW120327   6.731   4.668   3.128 -0.5721 -0.3095 -1.8570
 6476SOL    HW220328   6.576   4.686   3.080 -1.9615  0.5884  2.5344
 6477SOL     OW20329   0.061   6.726   1.556  0.4646  0.3633  0.2101
 6477SOL    HW120330   0.125   6.797   1.530  0.0879  1.1760  1.4060
 6477SOL    HW220331   0.017   6.688   1.474  1.2673  0.9299 -0.4938
 6478SOL     OW20332   2.244   5.834   6.610 -0.1407 -0.3640 -0.5388
 6478SOL    HW120333   2.219   5.804   6.702 -1.0594  0.9859 -0.3129
 6478SOL    HW220334   2.321   5.780   6.577  0.7540 -0.3271  1.3493
 6479SOL     OW20335   4.183   5.506   4.407  0.2093  0.9833 -0.0383
 6479SOL    HW120336   4.128   5.549   4.479 -0.5055  0.2714 -0.1475
 6479SOL    HW220337   4.268   5.471   4.446 -0.4941 -0.0424  0.6105
 6480SOL     OW20338   0.915   6.450   6.810 -0.0470  0.0728  0.1120
 6480SOL    HW120339   1.013   6.432   6.815 -0.2749 -0.9097  1.5910
 6480SOL    HW220340   0.901   6.546   6.786  1.2706  0.2576 -0.0306
 6481SOL     OW20341   5.077   3.441   0.821  0.0713  0.1860  0.0893
 6481SOL    HW120342   5.026   3.424   0.737  0.5335 -2.3457  0.2567
 6481SOL    HW220343   5.107   3.537   0.823 -2.7752  1.2084 -1.0140
 6482SOL     OW20344   5.314   3.760   3.828 -0.0015  0.2448 -0.3871
 6482SOL    HW120345   5.317   3.857   3.805  1.8117 -0.0647 -1.7166
 6482SOL    HW220346   5.301   3.706   3.745  0.0714 -0.6997  0.1963
 6483SOL     OW20347   1.652   5.785   5.936  0.2951  0.2246 -0.0623
 6483SOL    HW120348   1.612   5.698   5.908  1.0882  0.3847 -1.8542
 6483SOL    HW220349   1.589   5.833   5.996  0.0673 -1.7956  1.4039
 6484SOL     OW20350   2.812   0.794   3.945 -0.3567  0.4642 -0.7641
 6484SOL    HW120351   2.807   0.873   3.883 -1.5774  1.0150 -0.0254
 6484SOL    HW220352   2.834   0.827   4.037 -1.0054 -0.0372 -0.4262
 6485SOL     OW20353   3.149   4.983   4.227  0.4891 -0.1267  0.2703
 6485SOL    HW120354   3.243   4.953   4.213  0.9148  1.3605 -0.2943
 6485SOL    HW220355   3.106   5.001   4.138 -0.4331 -1.0694  0.5097
 6486SOL     OW20356   6.889   3.708   2.324  0.3691 -0.1802  0.6570
 6486SOL    HW120357   6.807   3.663   2.289  1.4039 -2.0673  0.4947
 6486SOL    HW220358   6.968   3.678   2.272  1.0081  3.0728 -0.4407
 6487SOL     OW20359   6.967   6.193   5.175 -0.0792  0.6656  0.8397
 6487SOL    HW120360   6.906   6.114   5.184 -0.3051  0.6413 -0.6852
 6487SOL    HW220361   6.985   6.232   5.266 -0.7425 -0.5383  1.5104
 6488SOL     OW20362   5.187   4.028   3.126  0.0804 -0.6500  0.1376
 6488SOL    HW120363   5.131   3.946   3.130 -1.0408 -0.0437 -1.9569
 6488SOL    HW220364   5.144   4.100   3.180 -0.9968 -0.3194 -1.1085
 6489SOL     OW20365   5.396   2.228   4.136  0.0523  0.0872  0.0926
 6489SOL    HW120366   5.485   2.203   4.099 -0.0617 -0.0202 -0.1089
 6489SOL    HW220367   5.402   2.317   4.182  1.2155 -1.5185  3.4032
 6490SOL     OW20368   2.837   3.827   0.678  0.4203  0.1467  0.2249
 6490SOL    HW120369   2.766   3.860   0.740  1.3383  0.9896  0.8635
 6490SOL    HW220370   2.908   3.781   0.730 -0.5715 -2.4792 -0.6074
 6491SOL     OW20371   1.189   6.488   5.808 -0.1384 -0.1832  0.4192
 6491SOL    HW120372   1.130   6.431   5.752  3.0956 -3.7508  0.1867
 6491SOL    HW220373   1.227   6.562   5.753 -2.8930  1.1609  0.1680
 6492SOL     OW20374   3.528   3.684   3.440 -0.6555 -0.1192 -0.2567
 6492SOL    HW120375   3.430   3.662   3.437 -0.9732  1.2737 -1.7844
 6492SOL    HW220376   3.560   3.703   3.347  0.6857  1.0195  0.4054
 6493SOL     OW20377   1.954   6.680   4.066  0.3159  0.1256  0.4799
 6493SOL    HW120378   1.973   6.605   4.129  0.6677 -0.0955  0.1178
 6493SOL    HW220379   2.033   6.741   4.062 -0.3386  1.0768  1.5318
 6494SOL     OW20380   0.427   6.858   1.678  0.1478 -0.4350 -0.3106
 6494SOL    HW120381   0.485   6.837   1.757 -1.5382 -0.4061  1.0163
 6494SOL    HW220382   0.427   6.781   1.615  0.4547 -1.0530  0.4191
 6495SOL     OW20383   6.963   5.329   4.395 -0.2318 -0.0392  0.2779
 6495SOL    HW120384   6.969   5.230   4.388 -2.0743 -0.1039 -1.3823
 6495SOL    HW220385   6.899   5.354   4.468  0.6753 -0.0415  1.0832
 6496SOL     OW20386   3.000   3.042   0.116  0.5238  0.5262  0.6374
 6496SOL    HW120387   2.982   2.976   0.189 -0.8947  0.2753  0.0890
 6496SOL    HW220388   3.049   3.120   0.154 -1.7533  1.2549  2.3209
 6497SOL     OW20389   6.055   6.053   0.335 -0.1882  0.0316  0.4097
 6497SOL    HW120390   5.991   6.066   0.259 -0.2467 -0.4580  0.3702
 6497SOL    HW220391   6.083   6.142   0.371 -1.3733  0.2535  0.8381
 6498SOL     OW20392   3.134   4.904   4.763  0.5652  0.3679 -0.1494
 6498SOL    HW120393   3.113   4.807   4.776  0.5345  0.5591  1.4063
 6498SOL    HW220394   3.144   4.923   4.665  2.5314 -1.6288 -0.4410
 6499SOL     OW20395   5.339   1.411   4.030 -0.0495  0.1087  0.5964
 6499SOL    HW120396   5.407   1.446   3.965 -1.1695  0.4955 -0.4142
 6499SOL    HW220397   5.353   1.313   4.044  1.7290  0.4718  1.7141
 6500SOL     OW20398   0.763   2.948   3.415 -0.1995  0.0092 -0.0350
 6500SOL    HW120399   0.821   2.943   3.334 -0.3287  0.7977 -0.1905
 6500SOL    HW220400   0.800   3.018   3.478 -1.5688  1.3392 -0.6403
 6501SOL     OW20401   6.317   6.672   3.655  0.1680  0.1070  0.4785
 6501SOL    HW120402   6.227   6.677   3.699 -0.0187 -1.1449  0.2695
 6501SOL    HW220403   6.304   6.674   3.555  0.3343 -0.5374  0.4421
 6502SOL     OW20404   1.526   2.917   4.197 -0.0719  0.0788 -0.2292
 6502SOL    HW120405   1.570   2.830   4.177 -0.8008  0.2922 -3.2701
 6502SOL    HW220406   1.595   2.990   4.200  0.3224 -0.3121  0.4437
 6503SOL     OW20407   0.094   2.400   5.136  0.0702 -0.2510 -0.2809
 6503SOL    HW120408   0.100   2.393   5.235  0.3159  2.0090 -0.0771
 6503SOL    HW220409   0.103   2.496   5.109 -1.5329 -0.6305 -2.3939
 6504SOL     OW20410   3.214   6.197   5.879 -0.1774 -0.1331 -0.1854
 6504SOL    HW120411   3.294   6.175   5.823 -1.4464 -1.7676 -1.4232
 6504SOL    HW220412   3.131   6.187   5.825 -1.2582  1.7615  1.0126
 6505SOL     OW20413   0.749   0.748   6.388 -0.0260  0.0330  0.2781
 6505SOL    HW120414   0.738   0.820   6.319  0.0778  0.0950  0.3239
 6505SOL    HW220415   0.794   0.787   6.468 -0.8156  0.1419  0.6793
 6506SOL     OW20416   1.908   3.058   2.478 -0.1649  0.0169  0.7136
 6506SOL    HW120417   1.902   2.979   2.539 -2.2059 -1.2366 -0.9783
 6506SOL    HW220418   1.817   3.082   2.445  0.7749  1.0507 -1.2923
 6507SOL     OW20419   0.467   5.720   1.607  0.0137  0.1491  0.1504
 6507SOL    HW120420   0.461   5.820   1.605 -0.8109  0.1642  1.9168
 6507SOL    HW220421   0.485   5.690   1.700  1.7504 -1.3089 -0.5982
 6508SOL     OW20422   6.018   3.371   5.257 -0.7725 -0.2489  0.1886
 6508SOL    HW120423   5.989   3.448   5.313 -1.6835  0.1254 -0.7861
 6508SOL    HW220424   6.080   3.403   5.186  2.1450 -1.0233  2.2003
 6509SOL     OW20425   1.780   0.377   5.190 -0.3452 -0.2112 -0.4431
 6509SOL    HW120426   1.686   0.408   5.201 -0.5908 -1.1329  0.2106
 6509SOL    HW220427   1.842   0.456   5.195 -0.8482  0.1072  2.3391
 6510SOL     OW20428   5.911   5.485   5.154  0.6156 -0.0740  0.1107
 6510SOL    HW120429   5.847   5.561   5.163  0.5599 -0.2957  2.2979
 6510SOL    HW220430   6.001   5.513   5.188  0.8591 -0.6731 -0.0192
 6511SOL     OW20431   5.508   3.446   0.331 -0.1455  0.1860 -0.0603
 6511SOL    HW120432   5.548   3.443   0.423  2.3616 -0.0554 -1.0859
 6511SOL    HW220433   5.536   3.530   0.285 -0.0312 -0.4216 -1.1449
 6512SOL     OW20434   6.346   3.343   0.711  0.2184 -0.2826  0.7608
 6512SOL    HW120435   6.380   3.409   0.644 -1.0134 -0.4561 -0.0877
 6512SOL    HW220436   6.289   3.390   0.778 -0.1391 -0.3645  0.5246
 6513SOL     OW20437   3.287   4.331   1.644 -0.4143  0.0617 -0.1138
 6513SOL    HW120438   3.199   4.376   1.660 -0.3130  0.2457 -0.0657
 6513SOL    HW220439   3.307   4.269   1.719 -1.4477 -1.5158 -1.0978
 6514SOL     OW20440   4.068   0.469   6.215  0.1674 -0.1280  0.2037
 6514SOL    HW120441   4.093   0.514   6.301  4.4552 -1.8336  0.0949
 6514SOL    HW220442   3.989   0.409   6.230 -0.2084  0.8272  2.4910
 6515SOL     OW20443   5.752   4.179   2.021 -0.4142  0.1238 -0.1358
 6515SOL    HW120444   5.831   4.156   1.964  0.3251  1.6708  0.2097
 6515SOL    HW220445   5.676   4.206   1.962  0.3449  1.7033 -0.4477
 6516SOL     OW20446   7.010   1.991   2.563  0.1152 -0.1333  0.3100
 6516SOL    HW120447   6.922   2.010   2.519  0.1998 -0.1993  0.1132
 6516SOL    HW220448   7.003   2.011   2.661 -0.5705 -1.5540  0.5802
 6517SOL     OW20449   0.872   3.606   0.894 -0.3007  0.3421  0.0924
 6517SOL    HW120450   0.915   3.542   0.957 -4.6781 -0.8192  2.3179
 6517SOL    HW220451   0.898   3.699   0.919  0.5699 -0.2445  1.5163
 6518SOL     OW20452   0.354   0.891   3.445 -0.1006  0.1855 -0.2269
 6518SOL    HW120453   0.266   0.856   3.413  0.4057 -1.3794  0.0166
 6518SOL    HW220454   0.387   0.833   3.520  0.2475  1.8752  0.9740
 6519SOL     OW20455   0.334   2.958   2.156  0.6804  0.2242  0.0530
 6519SOL    HW120456   0.263   2.896   2.188  1.8445 -0.3609  1.6538
 6519SOL    HW220457   0.406   2.906   2.111  0.6233  0.6830 -0.5766
 6520SOL     OW20458   5.452   0.602   5.965  0.4361 -0.4575  0.1266
 6520SOL    HW120459   5.433   0.504   5.960 -0.0190 -0.4400  1.3418
 6520SOL    HW220460   5.414   0.647   5.884  0.9908 -1.3227 -0.6411
 6521SOL     OW20461   6.831   3.395   3.378 -0.4919 -0.6262  0.2478
 6521SOL    HW120462   6.928   3.374   3.381 -0.1147  0.8741 -0.5244
 6521SOL    HW220463   6.791   3.359   3.294 -0.7143 -1.6153  0.7645
 6522SOL     OW20464   0.942   4.142   3.495  0.0265 -0.4214 -0.3551
 6522SOL    HW120465   0.956   4.152   3.396  0.6207 -0.8008 -0.3079
 6522SOL    HW220466   1.006   4.201   3.544 -1.0309  0.6562 -0.2012
 6523SOL     OW20467   4.411   6.158   6.614  0.6724  0.0100 -0.1444
 6523SOL    HW120468   4.510   6.151   6.618  0.6725 -0.2557 -0.6212
 6523SOL    HW220469   4.374   6.163   6.707  0.8292 -3.9150  0.2973
 6524SOL     OW20470   2.482   2.605   1.336 -0.1810 -0.0678  0.0775
 6524SOL    HW120471   2.407   2.555   1.380 -0.3524 -0.2529 -0.4191
 6524SOL    HW220472   2.551   2.629   1.405 -0.4499 -0.3436  0.4479
 6525SOL     OW20473   1.608   4.726   2.776  0.0227  0.2601 -0.5016
 6525SOL    HW120474   1.687   4.671   2.747  0.3039 -0.1721  0.9785
 6525SOL    HW220475   1.638   4.796   2.840 -1.1357 -1.9249  2.6499
 6526SOL     OW20476   4.661   1.179   0.763 -0.6058  0.5868 -0.0622
 6526SOL    HW120477   4.746   1.129   0.777 -0.9270  0.0900  0.1326
 6526SOL    HW220478   4.584   1.116   0.765 -1.0350  1.1073  0.3893
 6527SOL     OW20479   5.019   0.824   2.160  0.0380 -0.1138 -0.2799
 6527SOL    HW120480   5.067   0.801   2.075  1.2232 -1.9973  0.8438
 6527SOL    HW220481   4.938   0.766   2.168  0.5536 -0.7424  0.4154
 6528SOL     OW20482   5.666   0.337   6.836  0.0139 -0.4592 -0.0767
 6528SOL    HW120483   5.637   0.427   6.867  1.2321  0.4252 -1.3858
 6528SOL    HW220484   5.665   0.334   6.736  1.5285 -1.3485 -0.0992
 6529SOL     OW20485   2.886   6.411   0.807 -0.4467  0.4354  0.1362
 6529SOL    HW120486   2.941   6.445   0.731  0.9767  0.7207  1.2553
 6529SOL    HW220487   2.798   6.460   0.809  0.1436  1.5521 -0.3620
 6530SOL     OW20488   0.466   4.084   4.968  0.7111  0.5071 -0.1383
 6530SOL    HW120489   0.521   4.122   4.893 -0.1212  1.5001 -0.2765
 6530SOL    HW220490   0.386   4.037   4.930  1.0666 -0.2853  0.0834
 6531SOL     OW20491   3.958   3.065   3.702 -0.6602  0.1347 -0.0029
 6531SOL    HW120492   3.920   3.072   3.610  0.5364 -1.9171 -0.7293
 6531SOL    HW220493   4.032   3.131   3.713 -1.5048  1.1137 -0.1248
 6532SOL     OW20494   5.558   5.331   6.481  0.4141 -0.4315 -0.0607
 6532SOL    HW120495   5.460   5.310   6.485  0.7704 -2.3829 -0.5373
 6532SOL    HW220496   5.601   5.277   6.408  1.4150  2.4277 -1.7345
 6533SOL     OW20497   5.948   5.457   2.632  0.4923  0.1964  0.5130
 6533SOL    HW120498   5.994   5.369   2.644  0.8575  0.6944  3.8840
 6533SOL    HW220499   5.851   5.442   2.612  0.5856 -0.9565  0.8647
 6534SOL     OW20500   6.225   2.740   3.351  0.6314 -0.0700  0.3492
 6534SOL    HW120501   6.247   2.824   3.301  0.8635 -0.0647  0.4570
 6534SOL    HW220502   6.175   2.678   3.292  2.2106 -0.6977 -0.3796
 6535SOL     OW20503   4.321   3.730   6.119 -0.1224 -0.1356  0.1716
 6535SOL    HW120504   4.224   3.715   6.140 -0.2664  0.1130 -0.3051
 6535SOL    HW220505   4.375   3.722   6.203 -0.3695 -1.7543  0.2181
 6536SOL     OW20506   5.261   5.613   6.048 -0.3852 -0.0092 -0.0505
 6536SOL    HW120507   5.210   5.533   6.016 -2.0667  1.8547 -2.4294
 6536SOL    HW220508   5.352   5.612   6.009 -1.9064  1.4504 -4.1232
 6537SOL     OW20509   6.840   2.147   3.423  0.6084 -0.3951 -0.1179
 6537SOL    HW120510   6.784   2.186   3.496  1.7540  2.9721 -0.8704
 6537SOL    HW220511   6.903   2.080   3.462 -1.2296 -1.4018  1.3222
 6538SOL     OW20512   6.664   3.856   2.790 -0.4539 -0.2777  0.5731
 6538SOL    HW120513   6.572   3.893   2.775 -1.2556 -1.8573  1.3674
 6538SOL    HW220514   6.711   3.846   2.703 -1.3399 -0.2086  0.0805
 6539SOL     OW20515   6.644   1.104   4.025  0.3805 -0.2959 -0.8065
 6539SOL    HW120516   6.739   1.073   4.035  0.4461 -0.1756 -1.0540
 6539SOL    HW220517   6.584   1.042   4.075  0.7723  0.8335  1.1825
 6540SOL     OW20518   0.183   4.060   4.740 -0.6328 -0.0708 -0.5453
 6540SOL    HW120519   0.147   4.009   4.819  1.6421  0.1725  0.7358
 6540SOL    HW220520   0.265   4.014   4.706 -0.4165  0.9675 -1.4563
 6541SOL     OW20521   5.033   2.527   0.079  0.6863 -0.5811 -0.4193
 6541SOL    HW120522   5.060   2.611   0.032  0.1062 -1.0199 -1.5878
 6541SOL    HW220523   5.098   2.454   0.056  1.0719 -0.5046  0.4246
 6542SOL     OW20524   1.580   4.433   3.207  0.3681  0.3997 -0.7399
 6542SOL    HW120525   1.547   4.378   3.284  2.0887  0.3018 -0.0282
 6542SOL    HW220526   1.558   4.387   3.121  0.3860 -0.6045 -0.2189
 6543SOL     OW20527   5.000   2.018   5.863 -0.2306 -0.4280  0.4006
 6543SOL    HW120528   5.082   2.006   5.807  1.1655  1.8071  1.7987
 6543SOL    HW220529   5.009   1.965   5.947 -0.0208  0.1126  0.7248
 6544SOL     OW20530   6.819   0.099   1.587  0.5341 -0.4014  0.7896
 6544SOL    HW120531   6.866   0.024   1.541  0.2816  0.2794 -0.6350
 6544SOL    HW220532   6.882   0.145   1.649  1.4711 -0.1399 -0.3238
 6545SOL     OW20533   0.250   5.613   1.877 -0.2241 -0.6526  0.4460
 6545SOL    HW120534   0.222   5.658   1.793  0.8338 -0.0189  0.4211
 6545SOL    HW220535   0.300   5.529   1.854 -0.0034 -0.5206  0.4450
 6546SOL     OW20536   3.585   5.726   3.880  0.0203  0.4571 -0.5360
 6546SOL    HW120537   3.682   5.707   3.865 -0.2100 -0.4286 -0.9938
 6546SOL    HW220538   3.570   5.751   3.975  0.5036 -0.8150 -0.0938
 6547SOL     OW20539   6.048   4.808   4.738  0.2971 -0.2951  0.2871
 6547SOL    HW120540   6.092   4.808   4.648  0.4516 -1.8095  0.3402
 6547SOL    HW220541   5.953   4.837   4.728  0.6725  0.8734 -0.1467
 6548SOL     OW20542   3.186   0.131   0.162  0.2195  0.5125 -0.2050
 6548SOL    HW120543   3.134   0.117   0.078 -0.2607 -5.2042  0.6532
 6548SOL    HW220544   3.134   0.097   0.240  2.4981  1.2006  1.7472
 6549SOL     OW20545   1.560   0.282   2.987  0.1152  0.0868  0.0099
 6549SOL    HW120546   1.479   0.336   3.007  0.4415 -0.1240  2.1191
 6549SOL    HW220547   1.553   0.245   2.894 -1.9574  0.4538 -0.0327
 6550SOL     OW20548   3.824   6.968   1.152  0.2171 -0.3458 -0.0520
 6550SOL    HW120549   3.784   6.935   1.067  1.9125 -1.5464 -0.4296
 6550SOL    HW220550   3.859   6.890   1.205  1.8049  0.6133  0.3685
 6551SOL     OW20551   2.815   4.271   1.251  0.2344  0.4313 -0.2851
 6551SOL    HW120552   2.723   4.310   1.254  0.9197  2.0979 -0.2488
 6551SOL    HW220553   2.856   4.276   1.342  0.3156 -0.4542 -0.2647
 6552SOL     OW20554   2.835   3.544   6.957  0.5045  0.4424  0.0074
 6552SOL    HW120555   2.762   3.532   6.889  1.5659 -0.3564 -1.0231
 6552SOL    HW220556   2.890   3.462   6.962  1.8055  1.2987  0.2166
 6553SOL     OW20557   0.553   1.795   4.369 -0.3399 -0.2030  0.0543
 6553SOL    HW120558   0.473   1.777   4.426 -1.0984  0.8115 -0.6485
 6553SOL    HW220559   0.525   1.844   4.287  0.9564 -0.2137 -0.4213
 6554SOL     OW20560   3.002   0.085   4.221 -0.5761 -0.0281  0.0779
 6554SOL    HW120561   2.979   0.030   4.301 -1.0064 -1.1272 -0.7795
 6554SOL    HW220562   2.923   0.088   4.158  0.0484  0.0739 -0.7207
 6555SOL     OW20563   1.015   2.837   1.329  0.1838 -0.1584 -0.4147
 6555SOL    HW120564   0.928   2.878   1.356 -0.0204 -0.8930  0.0589
 6555SOL    HW220565   1.011   2.737   1.341  2.0906 -0.0150  2.5628
 6556SOL     OW20566   4.711   1.312   2.931 -0.0585 -0.2303  0.4542
 6556SOL    HW120567   4.692   1.265   3.017 -0.5888  0.3866  0.6918
 6556SOL    HW220568   4.735   1.408   2.950 -0.9637  0.1292 -0.1085
 6557SOL     OW20569   2.458   5.312   2.266  0.1691 -0.1138  0.2928
 6557SOL    HW120570   2.557   5.301   2.254  0.0992  0.2989 -0.7492
 6557SOL    HW220571   2.441   5.393   2.323  0.4074  0.8352 -0.9339
 6558SOL     OW20572   6.402   0.420   1.669  0.2680 -0.3757  0.3630
 6558SOL    HW120573   6.426   0.512   1.701 -1.0770  0.7549 -1.6616
 6558SOL    HW220574   6.484   0.374   1.637  1.2084 -0.5156  2.7298
 6559SOL     OW20575   5.091   2.327   5.972 -0.6015 -0.5190  0.0169
 6559SOL    HW120576   5.082   2.320   5.873 -0.9764 -0.3083  0.0366
 6559SOL    HW220577   5.002   2.342   6.014 -0.2227  1.5962  0.1933
 6560SOL     OW20578   0.193   3.785   5.750  1.0739 -0.7568 -0.2019
 6560SOL    HW120579   0.217   3.844   5.827  0.3104 -0.6390 -0.0465
 6560SOL    HW220580   0.271   3.779   5.687  0.8560  1.2198 -0.7410
 6561SOL     OW20581   0.388   5.334   5.822 -0.4926 -0.1591 -0.3517
 6561SOL    HW120582   0.487   5.343   5.831 -0.3787 -1.8552  0.4774
 6561SOL    HW220583   0.343   5.368   5.905 -0.5410 -0.3739 -0.2905
 6562SOL     OW20584   6.415   3.933   1.059  0.1440 -0.0064 -0.0681
 6562SOL    HW120585   6.485   3.980   1.113  0.3418 -0.5848  0.1964
 6562SOL    HW220586   6.383   3.853   1.109 -1.5276  0.8640  0.2990
 6563SOL     OW20587   5.172   4.185   6.147 -0.1091 -0.1307  0.2159
 6563SOL    HW120588   5.244   4.140   6.198  2.1151 -0.2023 -2.7332
 6563SOL    HW220589   5.206   4.270   6.108 -1.6998  0.0119 -0.9898
 6564SOL     OW20590   6.038   6.019   2.809 -0.1705  0.3171 -0.1184
 6564SOL    HW120591   6.129   6.053   2.834  1.1755 -0.9800 -2.7521
 6564SOL    HW220592   6.029   5.924   2.838 -1.1111  0.7338  1.0024
 6565SOL     OW20593   5.316   3.364   6.601  0.3695 -0.8191  0.4063
 6565SOL    HW120594   5.323   3.457   6.639  1.1842 -1.0177  0.7637
 6565SOL    HW220595   5.221   3.346   6.576  0.1257 -0.0397  0.7201
 6566SOL     OW20596   4.336   6.312   3.182 -0.3419 -0.4570 -0.3022
 6566SOL    HW120597   4.338   6.324   3.281 -0.9396 -0.6714 -0.2564
 6566SOL    HW220598   4.388   6.231   3.156 -0.4982 -0.6133 -0.1270
 6567SOL     OW20599   3.320   6.683   1.300 -0.4000  0.0998 -0.1887
 6567SOL    HW120600   3.274   6.694   1.212  1.1295 -2.1620 -1.3686
 6567SOL    HW220601   3.418   6.698   1.289 -0.2535  0.4139  1.3035
 6568SOL     OW20602   4.503   2.444   1.886 -0.5891 -0.1364 -0.5756
 6568SOL    HW120603   4.416   2.483   1.856 -0.9019 -0.6219 -0.3133
 6568SOL    HW220604   4.543   2.391   1.811 -1.0701 -0.8405 -0.3389
 6569SOL     OW20605   1.427   2.980   2.971  0.1147  0.0091  0.0586
 6569SOL    HW120606   1.375   3.043   2.913  1.0409  1.0732  0.3484
 6569SOL    HW220607   1.366   2.935   3.036 -0.8349 -0.6992 -1.2775
 6570SOL     OW20608   3.302   1.200   1.169  0.5059 -0.6069 -0.3320
 6570SOL    HW120609   3.353   1.186   1.254 -1.6309  0.1260  1.1479
 6570SOL    HW220610   3.361   1.179   1.091  3.0305  0.1777  1.2526
 6571SOL     OW20611   2.044   0.528   4.555 -0.1269  0.3048 -0.1865
 6571SOL    HW120612   1.953   0.555   4.587  0.3588  0.4603  1.1473
 6571SOL    HW220613   2.070   0.441   4.598  1.3191  1.4552  1.4171
 6572SOL     OW20614   0.731   5.868   5.528  0.0809  0.4548 -0.6224
 6572SOL    HW120615   0.651   5.809   5.533 -0.5151  1.2194 -0.9154
 6572SOL    HW220616   0.708   5.952   5.480  0.2311  2.0343  1.8892
 6573SOL     OW20617   0.733   2.687   2.816 -0.0517 -0.6774  0.1887
 6573SOL    HW120618   0.799   2.733   2.757 -1.6868  0.0554 -1.1541
 6573SOL    HW220619   0.711   2.597   2.778 -0.2091 -0.7031  0.3395
 6574SOL     OW20620   1.152   5.108   3.795  0.6155 -0.1081 -0.2864
 6574SOL    HW120621   1.059   5.108   3.760  0.2954  1.8659  0.4599
 6574SOL    HW220622   1.192   5.199   3.785  1.9547 -0.5415  0.7413
 6575SOL     OW20623   6.277   2.154   4.880 -0.1380 -0.2462 -0.1825
 6575SOL    HW120624   6.182   2.168   4.853  0.0981  0.0422 -0.8940
 6575SOL    HW220625   6.327   2.240   4.872  0.1147 -0.3211  0.5000
 6576SOL     OW20626   4.528   0.885   6.183 -0.3041  0.1086  0.2634
 6576SOL    HW120627   4.543   0.953   6.254  2.2409 -0.2626  0.1624
 6576SOL    HW220628   4.550   0.924   6.094 -0.0208 -0.4847  0.0703
 6577SOL     OW20629   2.490   6.444   6.742  0.6071  0.0659  0.0204
 6577SOL    HW120630   2.440   6.379   6.800 -0.4611 -0.7386 -1.7260
 6577SOL    HW220631   2.454   6.440   6.649  2.4521  1.1279 -0.7874
 6578SOL     OW20632   0.923   6.324   2.294  0.1129 -0.1026 -0.1917
 6578SOL    HW120633   0.976   6.366   2.367  1.1698 -3.7453  1.4073
 6578SOL    HW220634   0.911   6.226   2.314 -3.1232 -0.4516 -2.9288
 6579SOL     OW20635   3.123   1.091   3.540  0.5143 -0.1164 -0.0341
 6579SOL    HW120636   3.188   1.054   3.607  0.2972 -0.0473  0.2141
 6579SOL    HW220637   3.102   1.020   3.472  2.4060  0.4622 -1.3065
 6580SOL     OW20638   3.817   1.621   0.323  0.0110 -0.1545  0.0333
 6580SOL    HW120639   3.864   1.671   0.251 -0.6230  0.2247 -0.1251
 6580SOL    HW220640   3.883   1.594   0.393  0.5553 -0.1390 -0.4661
 6581SOL     OW20641   0.942   2.439   2.498 -0.1094  0.1647 -0.0249
 6581SOL    HW120642   1.016   2.379   2.527 -0.7033 -0.2066  0.7465
 6581SOL    HW220643   0.973   2.534   2.501  1.1612 -0.0969 -2.1935
 6582SOL     OW20644   1.710   4.562   3.526  0.2127  0.0799 -0.8721
 6582SOL    HW120645   1.798   4.553   3.574 -0.6780  0.8515  1.0049
 6582SOL    HW220646   1.647   4.493   3.559  0.2037 -0.7436 -2.5247
 6583SOL     OW20647   5.099   5.552   0.269 -0.1707 -0.1266  0.0344
 6583SOL    HW120648   5.002   5.549   0.243 -0.3501  0.0687  0.6525
 6583SOL    HW220649   5.108   5.605   0.354  0.1346 -2.4950  1.5595
 6584SOL     OW20650   4.492   3.486   5.316  0.0876  0.0770 -0.7573
 6584SOL    HW120651   4.414   3.545   5.295  0.9198  1.3393 -0.4559
 6584SOL    HW220652   4.572   3.516   5.263  1.3428  1.2246  1.6265
 6585SOL     OW20653   3.616   6.747   1.358  0.2440  0.3443 -0.5438
 6585SOL    HW120654   3.706   6.782   1.331  1.6188 -0.2935  2.6458
 6585SOL    HW220655   3.627   6.658   1.401 -2.0535 -0.0973 -0.7592
 6586SOL     OW20656   5.913   2.032   6.222 -0.2207 -0.0455  0.3156
 6586SOL    HW120657   5.831   2.004   6.270 -0.0934  0.1283  0.6384
 6586SOL    HW220658   5.915   1.991   6.131 -0.6028 -0.1460  0.3540
 6587SOL     OW20659   2.829   5.930   5.390  0.1778  0.0611  0.3079
 6587SOL    HW120660   2.888   5.872   5.334 -0.8384 -0.7383  0.0341
 6587SOL    HW220661   2.860   5.928   5.485  1.6826  1.1161 -0.1212
 6588SOL     OW20662   2.682   3.078   6.411  0.5859 -0.0966  0.2203
 6588SOL    HW120663   2.721   3.147   6.350  0.4894  0.1897  0.4796
 6588SOL    HW220664   2.583   3.077   6.402  0.6341 -0.6909 -0.2962
 6589SOL     OW20665   5.335   1.293   1.004  0.5771  0.0329  0.5685
 6589SOL    HW120666   5.376   1.205   0.979  1.4807  0.4524  0.5391
 6589SOL    HW220667   5.301   1.289   1.097  1.2911 -0.1206  0.8298
 6590SOL     OW20668   1.342   4.084   3.844 -0.6063 -0.5239 -0.7093
 6590SOL    HW120669   1.309   4.011   3.784  0.3109  0.6634 -2.7767
 6590SOL    HW220670   1.301   4.171   3.815  0.3773  0.1854 -0.0186
 6591SOL     OW20671   0.015   2.049   3.595  0.1324 -0.9971  0.5085
 6591SOL    HW120672   0.102   2.096   3.608  0.1491 -1.1129  0.8099
 6591SOL    HW220673   0.020   1.957   3.633 -0.5257 -0.5730  1.6929
 6592SOL     OW20674   5.777   0.253   5.426 -0.4015 -0.1885 -0.0661
 6592SOL    HW120675   5.699   0.309   5.453 -0.5991  0.6875 -2.2693
 6592SOL    HW220676   5.850   0.264   5.493 -0.6513  2.2664 -0.1011
 6593SOL     OW20677   6.884   6.893   2.557 -0.7227  0.4488  0.4250
 6593SOL    HW120678   6.958   6.892   2.624 -0.0593 -1.2859 -0.2773
 6593SOL    HW220679   6.913   6.846   2.474 -1.2653  3.1020 -1.4283
 6594SOL     OW20680   4.119   0.010   0.226  0.0900  0.7803  0.0446
 6594SOL    HW120681   4.109  -0.089   0.233 -1.9464  0.8416 -1.1897
 6594SOL    HW220682   4.188   0.032   0.156  0.8172  0.2563  0.5846
 6595SOL     OW20683   0.787   5.304   4.732  0.3954 -0.3806  0.3242
 6595SOL    HW120684   0.719   5.240   4.768  0.7556 -1.3900 -0.7614
 6595SOL    HW220685   0.767   5.324   4.636  1.7163 -0.8153 -0.0546
 6596SOL     OW20686   3.630   1.226   4.365 -0.4749 -0.2943  0.7921
 6596SOL    HW120687   3.723   1.260   4.382 -0.2410 -1.1417  1.2484
 6596SOL    HW220688   3.564   1.300   4.381  0.2077  0.7422 -0.9657
 6597SOL     OW20689   1.090   5.842   2.237 -0.1768  0.2288  0.3461
 6597SOL    HW120690   1.014   5.904   2.258 -1.2564 -0.8749 -0.1761
 6597SOL    HW220691   1.104   5.839   2.138  1.9242  1.9676  0.5149
 6598SOL     OW20692   1.044   4.750   0.079  0.4138  0.2197  0.4129
 6598SOL    HW120693   1.009   4.676   0.137  1.5532 -0.6976 -0.0376
 6598SOL    HW220694   1.078   4.712  -0.006 -0.9894  1.5195 -0.7872
 6599SOL     OW20695   5.670   5.029   3.024 -0.0827  0.9268 -0.1099
 6599SOL    HW120696   5.616   4.961   3.074  0.6290 -0.2710 -0.9260
 6599SOL    HW220697   5.610   5.079   2.961 -0.8817  2.0825  1.5143
 6600SOL     OW20698   6.746   6.962   4.277 -0.6515 -0.6845  0.2314
 6600SOL    HW120699   6.743   6.947   4.178  1.5813 -0.9663  0.1664
 6600SOL    HW220700   6.803   6.893   4.320 -1.2509 -0.3105  1.6905
 6601SOL     OW20701   0.901   2.135   2.758  0.2117  0.3358 -0.5251
 6601SOL    HW120702   0.945   2.073   2.823  0.2443  2.3460  1.4661
 6601SOL    HW220703   0.836   2.083   2.702  0.8358 -1.6221  0.4584
 6602SOL     OW20704   4.818   6.306   0.371 -0.3061  0.0347 -0.1218
 6602SOL    HW120705   4.888   6.341   0.433  0.2016 -0.0380 -0.6498
 6602SOL    HW220706   4.729   6.343   0.397 -0.1315 -0.1535  0.7741
 6603SOL     OW20707   5.559   6.071   1.359 -0.2084 -0.1209  0.3005
 6603SOL    HW120708   5.488   6.010   1.394  0.5653 -0.7112  0.8593
 6603SOL    HW220709   5.523   6.165   1.356 -1.1980 -0.4899  0.0223
 6604SOL     OW20710   3.312   5.460   2.235  0.1873 -1.0824 -0.1013
 6604SOL    HW120711   3.264   5.480   2.320 -0.3809 -1.0295 -0.4332
 6604SOL    HW220712   3.411   5.457   2.253  0.0700 -1.1055  0.5619
 6605SOL     OW20713   0.964   0.027   6.903  0.4152  0.6075 -0.1002
 6605SOL    HW120714   1.051   0.013   6.855 -0.0900 -0.2893 -0.8075
 6605SOL    HW220715   0.897  -0.040   6.870  0.8542 -2.2362  4.0329
 6606SOL     OW20716   1.258   5.362   3.774 -0.3696  0.1779 -0.0096
 6606SOL    HW120717   1.340   5.418   3.775 -0.7091  0.6936 -0.2063
 6606SOL    HW220718   1.225   5.354   3.680  0.3078 -1.3117 -0.1427
 6607SOL     OW20719   6.483   1.471   3.535  0.4923  0.5162 -0.6745
 6607SOL    HW120720   6.558   1.405   3.543  0.6618  0.7698 -0.1448
 6607SOL    HW220721   6.398   1.428   3.568  0.4436  0.3057 -1.0626
 6608SOL     OW20722   1.706   0.553   6.396  0.0218  0.3908  0.3062
 6608SOL    HW120723   1.764   0.592   6.468 -2.0414  0.0271  2.2654
 6608SOL    HW220724   1.616   0.597   6.398  0.0172  0.6295 -2.3621
 6609SOL     OW20725   2.071   1.315   1.268  0.2799 -0.3008  0.0742
 6609SOL    HW120726   2.130   1.367   1.206 -1.3328  1.8332  0.2291
 6609SOL    HW220727   1.986   1.292   1.222  0.1312 -1.0389  0.6905
 6610SOL     OW20728   3.012   6.225   6.475  0.6373 -0.2832 -0.1665
 6610SOL    HW120729   2.944   6.190   6.410  0.7803  0.1321 -0.5492
 6610SOL    HW220730   3.057   6.149   6.521 -0.0562 -0.5660  0.0589
 6611SOL     OW20731   2.491   6.373   4.731 -0.3457 -0.4102  0.8650
 6611SOL    HW120732   2.438   6.385   4.647  1.0805  0.0574 -0.0028
 6611SOL    HW220733   2.489   6.458   4.783 -0.0354 -0.2210  0.5744
 6612SOL     OW20734   5.033   2.012   1.030 -0.3625 -0.0569  0.0852
 6612SOL    HW120735   5.115   1.978   0.985 -0.3841  1.1125 -0.8931
 6612SOL    HW220736   4.975   1.935   1.055  1.8843 -1.0701  2.6194
 6613SOL     OW20737   5.315   1.240   1.263  0.4757  0.2639  0.5394
 6613SOL    HW120738   5.268   1.165   1.309  0.7418 -0.1306  0.1784
 6613SOL    HW220739   5.386   1.277   1.324 -1.2080  1.8294  1.6693
 6614SOL     OW20740   2.842   0.429   1.404 -0.4405  0.1073  0.2995
 6614SOL    HW120741   2.781   0.504   1.428  0.2130  0.5820  0.4868
 6614SOL    HW220742   2.910   0.460   1.337 -1.5468 -0.8978 -1.3979
 6615SOL     OW20743   3.226   5.760   6.704 -0.0687  0.1311 -0.2231
 6615SOL    HW120744   3.241   5.674   6.655  1.3233 -0.0336  0.4438
 6615SOL    HW220745   3.194   5.741   6.796 -0.5959  0.3728 -0.3501
 6616SOL     OW20746   2.857   2.175   1.157  0.1920 -0.6097 -0.7057
 6616SOL    HW120747   2.939   2.169   1.214  0.1231 -3.9131 -0.7920
 6616SOL    HW220748   2.794   2.102   1.182 -3.6987  2.7942  0.6286
 6617SOL     OW20749   5.435   4.067   3.247 -0.1559 -0.3188  0.1750
 6617SOL    HW120750   5.366   4.015   3.197 -0.9416 -0.0159  0.9103
 6617SOL    HW220751   5.468   4.142   3.190 -0.5314 -0.3902 -0.1406
 6618SOL     OW20752   6.863   1.760   6.719 -0.0156  0.3513  0.0816
 6618SOL    HW120753   6.802   1.725   6.647  0.1401 -0.6041  0.3970
 6618SOL    HW220754   6.811   1.816   6.783 -0.1909  1.0725 -0.6773
 6619SOL     OW20755   5.053   4.942   2.140 -0.2036  0.2274  0.2527
 6619SOL    HW120756   5.002   5.011   2.088 -0.4285  1.1319  1.6105
 6619SOL    HW220757   5.044   4.961   2.238  1.0365 -0.8308  0.5992
 6620SOL     OW20758   1.138   3.712   4.636 -0.1672 -0.0372  0.0300
 6620SOL    HW120759   1.161   3.805   4.664 -0.4848 -0.1048  0.5267
 6620SOL    HW220760   1.110   3.659   4.716 -0.0913 -0.5297 -0.2665
 6621SOL     OW20761   3.183   2.956   4.206 -0.3082 -0.7748 -0.3876
 6621SOL    HW120762   3.220   2.864   4.191  3.1996  0.3077  0.5925
 6621SOL    HW220763   3.198   2.982   4.302  0.3659  1.4377 -1.0430
 6622SOL     OW20764   6.593   2.307   2.381 -0.2331  0.1470 -0.2722
 6622SOL    HW120765   6.570   2.266   2.469  0.2077 -1.5452 -0.9022
 6622SOL    HW220766   6.682   2.351   2.387 -0.3429  0.3092  0.2083
 6623SOL     OW20767   3.438   3.234   4.721 -0.4106  0.0751 -0.5301
 6623SOL    HW120768   3.429   3.249   4.623  0.2612  0.4211 -0.5457
 6623SOL    HW220769   3.351   3.202   4.758 -0.7185  0.1114 -1.2061
 6624SOL     OW20770   2.192   1.575   3.906  0.0993 -0.4188 -0.6534
 6624SOL    HW120771   2.163   1.482   3.886 -1.5415 -0.2067  0.5137
 6624SOL    HW220772   2.273   1.573   3.964  0.1410 -1.1311 -0.7306
 6625SOL     OW20773   0.006   5.616   5.736  0.2474 -0.0466 -0.2132
 6625SOL    HW120774   0.025   5.531   5.687  0.9382 -0.6451  1.0371
 6625SOL    HW220775  -0.091   5.618   5.762  0.1208 -0.2204 -0.6548
 6626SOL     OW20776   2.122   0.813   5.944 -0.2138 -0.5642  0.2770
 6626SOL    HW120777   2.185   0.752   5.993  0.6783  1.4886  1.8185
 6626SOL    HW220778   2.072   0.869   6.009 -2.6377 -1.0998 -1.0105
 6627SOL     OW20779   2.626   6.232   3.922  0.3252 -0.0827 -0.3002
 6627SOL    HW120780   2.719   6.252   3.890  0.7645  0.7245  1.3388
 6627SOL    HW220781   2.612   6.276   4.011 -2.5835  2.1423 -1.6941
 6628SOL     OW20782   1.061   0.005   3.792 -0.0174  0.1588 -0.0711
 6628SOL    HW120783   1.097  -0.074   3.742 -0.1141 -0.4004  0.7295
 6628SOL    HW220784   1.137   0.056   3.832 -0.0640 -1.1472  1.8071
 6629SOL     OW20785   6.129   5.291   5.013  0.1544  0.6375 -0.3449
 6629SOL    HW120786   6.194   5.271   4.939 -0.5136  0.1617 -0.8084
 6629SOL    HW220787   6.160   5.373   5.062  0.1267  1.5240 -1.7349
 6630SOL     OW20788   2.050   6.238   2.507  0.4455 -0.0418  0.4840
 6630SOL    HW120789   2.018   6.316   2.452  1.8404 -0.7060 -1.3837
 6630SOL    HW220790   1.999   6.156   2.482  0.2922 -0.1225  1.0475
 6631SOL     OW20791   1.207   1.536   5.095  0.1530  0.3200 -0.3586
 6631SOL    HW120792   1.281   1.476   5.126 -0.9116 -0.4203  0.8337
 6631SOL    HW220793   1.226   1.630   5.124  1.6719  0.5667 -1.9655
 6632SOL     OW20794   2.898   6.440   0.352 -0.4186  0.1378 -0.3938
 6632SOL    HW120795   2.938   6.524   0.316  1.9580 -0.6223  0.3081
 6632SOL    HW220796   2.807   6.459   0.387 -0.5143  2.0918 -1.5390
 6633SOL     OW20797   3.998   6.424   5.412 -0.2988  0.5031 -1.2311
 6633SOL    HW120798   3.972   6.458   5.502 -2.5356 -1.3171 -1.0936
 6633SOL    HW220799   3.981   6.495   5.344  2.4353  2.2920 -0.2021
 6634SOL     OW20800   1.706   1.828   4.145  0.0547 -0.2214  0.9467
 6634SOL    HW120801   1.794   1.783   4.133  0.4831  0.4307  1.5590
 6634SOL    HW220802   1.711   1.893   4.221 -1.0402 -0.3939  1.1936
 6635SOL     OW20803   5.664   5.550   6.605 -0.4240 -0.5221  0.1164
 6635SOL    HW120804   5.607   5.583   6.681  0.7984 -0.3009  0.9613
 6635SOL    HW220805   5.613   5.481   6.554 -1.0213 -1.2333  1.5887
 6636SOL     OW20806   4.044   0.427   1.276  0.2643  0.3167 -0.3451
 6636SOL    HW120807   3.991   0.343   1.288 -0.2336  0.5095 -1.1902
 6636SOL    HW220808   4.002   0.484   1.206  2.2339 -0.0853 -1.9357
 6637SOL     OW20809   1.226   3.115   5.651  0.9026  0.1407  0.3445
 6637SOL    HW120810   1.224   3.174   5.570 -0.1282 -0.8962 -0.4121
 6637SOL    HW220811   1.320   3.111   5.687  1.0361  2.0241  0.2824
 6638SOL     OW20812   3.156   3.102   3.278  0.0015  0.0975 -0.5419
 6638SOL    HW120813   3.079   3.062   3.229 -0.7649  1.7859 -0.7829
 6638SOL    HW220814   3.171   3.195   3.246  1.5816  0.1167  0.1552
 6639SOL     OW20815   6.272   1.639   2.099 -0.0303 -0.3187 -0.6656
 6639SOL    HW120816   6.262   1.636   2.000 -1.2626  1.6146 -0.6580
 6639SOL    HW220817   6.193   1.593   2.141  0.3228 -0.8444 -0.5737
 6640SOL     OW20818   2.360   2.264   5.058 -0.1434 -0.3102 -0.2702
 6640SOL    HW120819   2.446   2.314   5.073  0.2752 -0.3493 -2.2601
 6640SOL    HW220820   2.313   2.302   4.979 -0.9491 -1.6270 -0.4526
 6641SOL     OW20821   5.663   3.025   6.983  0.8046  0.0876 -0.0530
 6641SOL    HW120822   5.689   2.947   6.927  0.7434  0.0113  0.0236
 6641SOL    HW220823   5.730   3.098   6.974  1.3050 -0.2896  0.5236
 6642SOL     OW20824   2.662   3.605   0.172 -0.1059 -0.0980  0.1172
 6642SOL    HW120825   2.714   3.681   0.132  1.3883 -1.5256 -0.7770
 6642SOL    HW220826   2.713   3.520   0.160 -2.2074 -1.4331  0.1429
 6643SOL     OW20827   0.052   6.930   5.235  0.1248  0.4430 -0.2950
 6643SOL    HW120828   0.140   6.890   5.261 -0.5720 -0.2226  1.1678
 6643SOL    HW220829   0.064   6.990   5.156  1.9791  0.8401  0.2590
 6644SOL     OW20830   2.413   5.895   3.577  0.1460  0.2107 -0.1360
 6644SOL    HW120831   2.485   5.839   3.538 -0.3651  0.4183 -1.4423
 6644SOL    HW220832   2.445   5.990   3.585  0.4896  0.0309  0.6084
 6645SOL     OW20833   5.022   3.195   5.972  0.1862 -0.0867  0.0700
 6645SOL    HW120834   4.957   3.145   5.915 -0.6267 -0.5478  1.3579
 6645SOL    HW220835   5.115   3.169   5.946 -0.1716 -0.6095 -0.7487
 6646SOL     OW20836   4.693   6.025   5.842 -0.3429 -0.1928  0.4513
 6646SOL    HW120837   4.699   6.062   5.749 -1.2820  0.4193  0.6252
 6646SOL    HW220838   4.776   5.972   5.862 -0.5350 -1.1185 -1.0667
 6647SOL     OW20839   5.118   4.708   0.113 -0.2033 -0.3326 -0.1606
 6647SOL    HW120840   5.081   4.663   0.032 -1.7285 -0.7979  0.7466
 6647SOL    HW220841   5.047   4.713   0.184  0.5657  1.5744  0.5562
 6648SOL     OW20842   2.245   5.839   4.496  0.1022 -0.0966  0.0327
 6648SOL    HW120843   2.301   5.891   4.560 -0.0473  0.1427 -0.0263
 6648SOL    HW220844   2.205   5.902   4.429  0.1918 -0.3326 -0.2451
 6649SOL     OW20845   5.247   2.097   0.205 -0.4291  0.2285  0.2484
 6649SOL    HW120846   5.337   2.140   0.212 -0.0172 -0.4995 -0.3249
 6649SOL    HW220847   5.198   2.106   0.292 -0.0376  1.1270  0.3883
 6650SOL     OW20848   2.935   6.271   4.855 -0.2978  0.7424 -0.6146
 6650SOL    HW120849   2.870   6.310   4.920  1.0904  0.6639  0.8832
 6650SOL    HW220850   2.996   6.344   4.822  0.2563  0.4270 -0.2970
 6651SOL     OW20851   6.131   0.770   2.891 -0.0725  0.0297 -0.4771
 6651SOL    HW120852   6.069   0.713   2.837 -1.4587 -1.6426  2.5897
 6651SOL    HW220853   6.079   0.836   2.944  0.8950 -0.2040  0.8240
 6652SOL     OW20854   1.022   4.297   0.330 -1.1011 -0.5516  0.2326
 6652SOL    HW120855   1.039   4.310   0.428 -0.2674 -0.6769  0.1186
 6652SOL    HW220856   1.095   4.239   0.292 -1.8390 -1.1359 -0.3088
 6653SOL     OW20857   5.413   4.068   0.158  0.1703  0.3830 -0.4937
 6653SOL    HW120858   5.394   4.115   0.244  0.3021 -0.5389  0.0645
 6653SOL    HW220859   5.440   4.134   0.088 -0.0218  1.1559  0.1480
 6654SOL     OW20860   6.212   3.637   2.830  0.1093 -0.3588  0.3824
 6654SOL    HW120861   6.202   3.638   2.929 -1.1932  0.9197  0.2602
 6654SOL    HW220862   6.269   3.714   2.801 -0.2721 -0.1940  0.0634
 6655SOL     OW20863   1.180   4.438   6.181  0.6442  0.0924  0.0999
 6655SOL    HW120864   1.216   4.367   6.242  2.2722 -0.0882 -1.0000
 6655SOL    HW220865   1.130   4.395   6.105  1.6340  0.0723 -0.5687
 6656SOL     OW20866   5.638   2.083   1.408 -0.5788  0.3734 -0.3868
 6656SOL    HW120867   5.674   2.125   1.491  1.2493 -0.1214 -0.8709
 6656SOL    HW220868   5.632   2.151   1.335  0.6894  0.2032 -0.6708
 6657SOL     OW20869   5.270   4.321   4.640  0.3577 -0.2181 -0.1918
 6657SOL    HW120870   5.273   4.417   4.670  0.4868 -0.2768 -0.0106
 6657SOL    HW220871   5.210   4.269   4.701 -0.0487 -0.1677 -0.5432
 6658SOL     OW20872   6.572   5.568   5.052 -0.0333  0.1488 -1.0922
 6658SOL    HW120873   6.656   5.535   5.007 -0.3016  0.7753 -2.0853
 6658SOL    HW220874   6.496   5.563   4.987 -0.8376 -0.6717 -0.1104
 6659SOL     OW20875   0.715   5.946   2.222 -0.0797  0.8621  0.3290
 6659SOL    HW120876   0.645   5.913   2.285  0.1223  0.0877  0.1613
 6659SOL    HW220877   0.671   5.991   2.144 -0.3855  0.6249  0.3618
 6660SOL     OW20878   1.528   7.016   4.661 -0.0612  0.3113 -0.6007
 6660SOL    HW120879   1.437   6.982   4.635  0.5890 -0.6816 -1.6660
 6660SOL    HW220880   1.543   7.000   4.758 -0.5609 -0.6212 -0.6700
 6661SOL     OW20881   3.512   5.341   4.537  0.3088 -0.4528  0.7557
 6661SOL    HW120882   3.462   5.268   4.490  0.2899  0.9172 -1.4897
 6661SOL    HW220883   3.594   5.303   4.579 -0.6596 -2.0739  1.2619
 6662SOL     OW20884   4.265   5.289   2.981  0.3295 -0.0347  0.2385
 6662SOL    HW120885   4.271   5.211   3.043 -4.8530 -1.2694 -0.4062
 6662SOL    HW220886   4.275   5.257   2.887  0.0331  0.4047  0.0555
 6663SOL     OW20887   1.354   4.353   4.954 -0.0751  0.3295 -0.3233
 6663SOL    HW120888   1.425   4.283   4.951 -0.1207  0.2198  0.6607
 6663SOL    HW220889   1.396   4.444   4.948  0.2725  0.3046  1.2647
 6664SOL     OW20890   3.852   5.736   0.374  0.2495 -0.7596  0.0752
 6664SOL    HW120891   3.825   5.659   0.317 -1.5090 -0.1640  0.0486
 6664SOL    HW220892   3.878   5.704   0.465  0.0037 -1.4162 -0.0835
 6665SOL     OW20893   3.011   6.281   6.837 -0.3891 -0.3787  0.1223
 6665SOL    HW120894   3.102   6.315   6.812 -0.4868  0.0546  0.3564
 6665SOL    HW220895   2.941   6.340   6.799 -0.5466  0.0814  1.0973
 6666SOL     OW20896   2.004   1.967   1.883  0.1080  0.0362 -0.3438
 6666SOL    HW120897   1.925   1.971   1.822 -0.5259 -0.9712  0.3723
 6666SOL    HW220898   2.009   1.877   1.926 -0.9462  1.3719  2.9409
 6667SOL     OW20899   2.287   5.955   5.846  0.0057 -0.1790 -0.2560
 6667SOL    HW120900   2.370   5.901   5.862  0.3115  0.3022 -0.2142
 6667SOL    HW220901   2.239   5.968   5.933  0.1769  0.0162 -0.1908
 6668SOL     OW20902   5.033   2.766   4.626  0.1992 -0.0969 -0.2782
 6668SOL    HW120903   5.122   2.776   4.671  0.0224  1.5089 -0.2225
 6668SOL    HW220904   4.968   2.727   4.690  0.5162  0.0410  0.1355
 6669SOL     OW20905   6.851   2.907   2.073  0.6810 -0.4134 -0.4089
 6669SOL    HW120906   6.932   2.849   2.062  1.3811  0.6167 -0.8902
 6669SOL    HW220907   6.878   2.994   2.115  0.1332  0.6019 -2.0589
 6670SOL     OW20908   3.013   4.622   0.750 -0.5078  0.2134 -0.4252
 6670SOL    HW120909   3.002   4.701   0.689  2.4121  2.3003  1.4745
 6670SOL    HW220910   3.097   4.633   0.804  1.2338 -5.1976 -1.4104
 6671SOL     OW20911   6.216   6.177   6.136 -0.0173 -0.1095  0.1710
 6671SOL    HW120912   6.295   6.237   6.146  0.2738 -0.5491  0.5488
 6671SOL    HW220913   6.202   6.155   6.039 -1.2157  2.0068 -0.2029
 6672SOL     OW20914   1.776   1.915   0.358 -0.4808  0.1760  0.5946
 6672SOL    HW120915   1.779   1.815   0.365 -0.4524  0.2830  2.6207
 6672SOL    HW220916   1.837   1.944   0.284 -0.7168 -1.2988 -0.2374
 6673SOL     OW20917   5.128   2.707   3.396 -0.5325 -0.6891  0.3782
 6673SOL    HW120918   5.211   2.738   3.444  0.0729 -0.4693 -0.7678
 6673SOL    HW220919   5.120   2.757   3.310 -2.4618  0.0720  0.9532
 6674SOL     OW20920   6.213   1.466   0.190  0.1010  0.4297  0.1053
 6674SOL    HW120921   6.250   1.398   0.254 -1.6756 -0.6547  0.0413
 6674SOL    HW220922   6.253   1.556   0.210  0.1834 -0.0266  2.2483
 6675SOL     OW20923   6.112   2.169   0.717 -0.7166 -0.0291 -0.2297
 6675SOL    HW120924   6.204   2.205   0.705 -0.6197 -0.0578  0.3818
 6675SOL    HW220925   6.083   2.122   0.634  0.3927 -1.2878  0.0634
 6676SOL     OW20926   5.593   3.162   4.769 -0.1660 -0.8147  0.0800
 6676SOL    HW120927   5.497   3.149   4.747 -0.0593  1.1296 -1.8858
 6676SOL    HW220928   5.603   3.239   4.832  0.2265  4.0198 -5.0792
 6677SOL     OW20929   0.191   3.195   5.560 -0.5396 -0.0677 -0.1478
 6677SOL    HW120930   0.138   3.259   5.615 -0.9438 -0.8174  0.3538
 6677SOL    HW220931   0.130   3.143   5.500 -0.0960  0.7912 -1.3803
 6678SOL     OW20932   3.438   4.363   6.423  0.5600 -0.0457 -0.0465
 6678SOL    HW120933   3.450   4.281   6.367  1.1726  0.5094 -0.7629
 6678SOL    HW220934   3.404   4.338   6.513  2.1113 -1.2495  0.2545
 6679SOL     OW20935   2.567   5.144   3.895  0.3165 -0.4260 -0.3304
 6679SOL    HW120936   2.602   5.057   3.929  0.7956 -1.2191 -2.6385
 6679SOL    HW220937   2.558   5.209   3.970 -0.2301 -2.5057  1.4789
 6680SOL     OW20938   0.034   4.206   0.212 -0.0420  0.4185  0.1553
 6680SOL    HW120939   0.111   4.153   0.247  1.2635  0.9903 -1.6710
 6680SOL    HW220940   0.052   4.231   0.117 -2.2706  1.0325 -0.1601
 6681SOL     OW20941   2.249   4.656   2.737  0.4774  0.0259  0.9769
 6681SOL    HW120942   2.324   4.618   2.791  0.7129  1.2478  1.5559
 6681SOL    HW220943   2.286   4.705   2.658  0.3197  0.7720  1.3531
 6682SOL     OW20944   1.889   5.250   0.443 -0.1462  0.2586  0.0250
 6682SOL    HW120945   1.854   5.218   0.355 -0.5253  2.4101 -0.6710
 6682SOL    HW220946   1.833   5.327   0.475  1.0494  0.6478  1.2838
 6683SOL     OW20947   1.189   0.137   0.453 -0.2808  0.1152  0.5836
 6683SOL    HW120948   1.133   0.067   0.496 -2.2316  0.5996 -0.9961
 6683SOL    HW220949   1.131   0.210   0.418  1.4660  1.2672 -0.0996
 6684SOL     OW20950   1.703   6.110   5.114 -0.4966  0.4754 -0.9435
 6684SOL    HW120951   1.657   6.021   5.119 -0.4809  0.5024 -0.1274
 6684SOL    HW220952   1.688   6.151   5.024 -1.5179  0.1967 -0.9076
 6685SOL     OW20953   3.193   2.785   0.841 -0.0355 -0.1071 -0.0205
 6685SOL    HW120954   3.095   2.767   0.843  0.0382 -0.7468 -1.4483
 6685SOL    HW220955   3.235   2.737   0.764  0.7476  3.3861 -2.0152
 6686SOL     OW20956   2.870   5.843   5.660  0.2861 -0.0072  0.2142
 6686SOL    HW120957   2.956   5.803   5.690 -0.0663 -0.6969  0.3169
 6686SOL    HW220958   2.796   5.810   5.718 -0.0258  0.7166  0.2360
 6687SOL     OW20959   0.028   1.774   2.401 -0.3759 -0.6453 -0.0094
 6687SOL    HW120960  -0.003   1.685   2.436  0.0805 -0.4723  0.8656
 6687SOL    HW220961   0.023   1.842   2.474 -2.5092  0.5229 -1.1326
 6688SOL     OW20962   6.307   6.244   0.110  0.1154  0.0567 -0.0969
 6688SOL    HW120963   6.293   6.209   0.202 -1.9196 -0.1487 -0.4555
 6688SOL    HW220964   6.378   6.189   0.065  0.8323 -0.1075  1.1711
 6689SOL     OW20965   5.901   5.032   6.071 -0.4489 -0.4796 -0.0534
 6689SOL    HW120966   5.977   4.970   6.089  0.1811 -0.0193 -1.0689
 6689SOL    HW220967   5.866   5.017   5.978  1.2974  2.2592 -1.2804
 6690SOL     OW20968   0.724   1.495   6.816  0.3207 -0.4228  0.6722
 6690SOL    HW120969   0.675   1.432   6.877  1.7895 -0.3854  1.9511
 6690SOL    HW220970   0.740   1.581   6.863  0.8786 -0.1427 -0.0144
 6691SOL     OW20971   0.257   1.988   2.265 -0.6849  0.4890  0.2747
 6691SOL    HW120972   0.175   2.044   2.274 -2.3490 -1.8942  0.9064
 6691SOL    HW220973   0.315   2.001   2.345 -2.3981 -0.6886  1.7689
 6692SOL     OW20974   3.786   6.455   2.456 -0.1041  0.0763  0.0019
 6692SOL    HW120975   3.698   6.429   2.496  0.3134 -1.4821 -0.0283
 6692SOL    HW220976   3.779   6.455   2.356  0.0831 -0.6894 -0.0185
 6693SOL     OW20977   3.881   1.896   5.735  0.5500 -0.3403 -0.0728
 6693SOL    HW120978   3.964   1.914   5.788  0.2143  0.4895  0.1789
 6693SOL    HW220979   3.882   1.949   5.651  0.4269 -0.5880 -0.2330
 6694SOL     OW20980   5.984   5.130   1.300 -0.6011 -0.0246 -0.2206
 6694SOL    HW120981   5.994   5.193   1.223 -1.1143 -0.1877 -0.4262
 6694SOL    HW220982   6.054   5.059   1.295 -0.0476  0.5019 -0.0110
 6695SOL     OW20983   4.612   2.514   6.331 -0.4066  0.0858  0.3101
 6695SOL    HW120984   4.605   2.600   6.383 -1.1867 -0.7084  1.5789
 6695SOL    HW220985   4.532   2.457   6.351  2.1860 -2.8974  3.1433
 6696SOL     OW20986   4.164   3.526   4.670  0.3066  0.5862 -0.8304
 6696SOL    HW120987   4.119   3.470   4.739  0.4233 -2.3267 -2.9267
 6696SOL    HW220988   4.262   3.530   4.689  0.0937  1.3253  0.1331
 6697SOL     OW20989   4.467   1.351   2.814  0.6795 -0.2649 -0.3828
 6697SOL    HW120990   4.471   1.420   2.741  0.9934 -0.3175 -0.4157
 6697SOL    HW220991   4.560   1.322   2.837  0.6510  0.3784  0.6291
 6698SOL     OW20992   2.010   3.370   1.461 -0.5565  0.4547 -0.1499
 6698SOL    HW120993   1.949   3.438   1.502 -0.2892  0.0042  1.0246
 6698SOL    HW220994   2.044   3.309   1.532  0.6369  0.2038 -0.9182
 6699SOL     OW20995   3.016   1.963   5.058 -0.4974 -0.3848 -0.9943
 6699SOL    HW120996   2.954   2.030   5.099 -0.0358 -0.4171 -0.2406
 6699SOL    HW220997   3.009   1.969   4.958 -0.0561  1.1978 -0.9731
 6700SOL     OW20998   5.533   0.815   0.406  0.5377 -0.0563 -0.0427
 6700SOL    HW120999   5.577   0.725   0.413 -0.0259 -0.2705  1.1142
 6700SOL    HW221000   5.469   0.826   0.482  0.6665  1.3706 -0.1125
 6701SOL     OW21001   6.298   6.124   1.054 -0.5690  0.0665  0.8548
 6701SOL    HW121002   6.258   6.063   0.985  0.7194  0.7987 -0.6006
 6701SOL    HW221003   6.391   6.095   1.073  0.2730  1.8562 -0.2947
 6702SOL     OW21004   5.439   5.343   2.342  0.3190 -0.6552 -0.3215
 6702SOL    HW121005   5.339   5.336   2.342  0.3342 -0.8899 -0.0199
 6702SOL    HW221006   5.478   5.252   2.327  0.4768 -0.3591 -1.8493
 6703SOL     OW21007   0.620   2.232   1.732 -0.3715  0.0357  0.3677
 6703SOL    HW121008   0.538   2.185   1.700 -0.5573 -0.3736  1.4082
 6703SOL    HW221009   0.637   2.313   1.675 -1.0812 -0.2782 -0.3007
 6704SOL     OW21010   3.108   5.510   6.586  0.7867 -0.2692 -0.1391
 6704SOL    HW121011   3.099   5.417   6.551  1.6468 -0.1316 -0.7803
 6704SOL    HW221012   3.021   5.558   6.579  0.8773 -0.3111 -1.9551
 6705SOL     OW21013   2.045   3.469   2.983 -0.2351  0.2928 -0.4052
 6705SOL    HW121014   1.954   3.440   2.954 -0.3829  1.4045 -1.1180
 6705SOL    HW221015   2.089   3.396   3.035 -1.2328 -0.5376 -0.7080
 6706SOL     OW21016   2.344   5.472   3.173 -0.2789 -0.1299 -0.9313
 6706SOL    HW121017   2.364   5.533   3.249 -0.1660 -1.5353  0.2168
 6706SOL    HW221018   2.245   5.464   3.161 -0.3013 -0.0598 -0.7915
 6707SOL     OW21019   5.875   6.297   3.040  0.1730  0.3616  0.1627
 6707SOL    HW121020   5.846   6.204   3.021  0.8816  0.2299 -0.3286
 6707SOL    HW221021   5.805   6.344   3.093 -0.5076 -0.2243 -0.1997
 6708SOL     OW21022   1.424   4.385   0.310 -0.3265 -0.0148 -0.0919
 6708SOL    HW121023   1.486   4.345   0.377 -0.8735 -0.9341 -0.1190
 6708SOL    HW221024   1.361   4.448   0.357 -1.8350 -1.9321  0.6049
 6709SOL     OW21025   1.832   3.703   1.277  0.6075  0.5075 -0.2129
 6709SOL    HW121026   1.748   3.744   1.243  0.5229  0.7421  0.2651
 6709SOL    HW221027   1.837   3.607   1.248  0.5207  0.6922 -0.8337
 6710SOL     OW21028   3.799   2.169   1.079 -0.2326  0.1583 -0.4344
 6710SOL    HW121029   3.728   2.128   1.022  0.0306 -0.6712 -0.1794
 6710SOL    HW221030   3.875   2.105   1.089  1.2201  1.5702 -1.8844
 6711SOL     OW21031   3.764   5.863   5.577 -0.2297  0.1100  0.5673
 6711SOL    HW121032   3.727   5.948   5.539 -0.8264  1.4075  3.7170
 6711SOL    HW221033   3.850   5.883   5.624 -0.0731 -1.1753  0.8555
 6712SOL     OW21034   5.948   3.166   0.726  0.3055 -0.6889  0.0856
 6712SOL    HW121035   5.960   3.257   0.686 -0.4492 -1.5625 -2.2755
 6712SOL    HW221036   5.858   3.161   0.771  0.5501 -0.1316  0.6436
 6713SOL     OW21037   1.483   4.514   2.880 -0.3366  0.4449 -0.1557
 6713SOL    HW121038   1.512   4.605   2.851  0.7227 -0.3705 -1.7919
 6713SOL    HW221039   1.502   4.448   2.807 -1.5200 -1.0192  0.8025
 6714SOL     OW21040   6.620   3.357   1.305  0.0021  0.2242 -0.0216
 6714SOL    HW121041   6.671   3.439   1.332 -1.6171  1.1548  0.3731
 6714SOL    HW221042   6.646   3.281   1.364 -0.1852  1.0705  1.1848
 6715SOL     OW21043   2.255   0.216   5.620  0.8511 -0.2822  0.4211
 6715SOL    HW121044   2.167   0.170   5.630  1.2648 -1.4287 -0.8799
 6715SOL    HW221045   2.318   0.157   5.569  2.7632  0.0099  2.2860
 6716SOL     OW21046   2.271   4.789   0.906  0.2342 -0.1832  0.1342
 6716SOL    HW121047   2.173   4.769   0.911  0.2195 -0.1339  0.0399
 6716SOL    HW221048   2.323   4.705   0.920  0.1636 -0.5419 -1.5272
 6717SOL     OW21049   5.063   2.419   3.711  0.0116 -0.8090  0.7794
 6717SOL    HW121050   5.049   2.324   3.741  2.0350 -1.2745  0.4072
 6717SOL    HW221051   4.975   2.465   3.705 -0.8133 -1.5809  4.3940
 6718SOL     OW21052   4.552   4.178   1.020  0.4364 -0.6302  0.0206
 6718SOL    HW121053   4.596   4.094   0.990  1.6896 -0.4284  1.1890
 6718SOL    HW221054   4.572   4.252   0.956  0.2220 -0.9669 -0.4392
 6719SOL     OW21055   2.491   4.928   0.756  0.2100  0.3507 -0.0820
 6719SOL    HW121056   2.411   4.884   0.796  1.9236 -2.5268  0.4126
 6719SOL    HW221057   2.517   4.881   0.672  1.3688  1.2902 -0.2811
 6720SOL     OW21058   1.582   0.389   5.519  0.5559 -0.2671  0.1570
 6720SOL    HW121059   1.544   0.479   5.498  0.1222 -0.4487  0.1571
 6720SOL    HW221060   1.640   0.395   5.600 -0.1118 -0.1376  0.6324
 6721SOL     OW21061   5.179   6.775   1.670 -0.2992  0.2033  0.4948
 6721SOL    HW121062   5.173   6.722   1.585 -2.9193  1.8310 -0.4441
 6721SOL    HW221063   5.221   6.864   1.651 -1.1642  0.6886  0.8236
 6722SOL     OW21064   0.914   3.630   6.772 -0.4277 -0.3000  0.5235
 6722SOL    HW121065   0.978   3.568   6.725 -1.4260 -1.4133  0.5765
 6722SOL    HW221066   0.901   3.598   6.866 -3.0512 -1.7213 -0.2204
 6723SOL     OW21067   1.106   2.173   3.078  0.0963  0.9894 -0.1775
 6723SOL    HW121068   1.031   2.233   3.104 -0.4193  1.1136 -1.8452
 6723SOL    HW221069   1.192   2.209   3.115 -0.2646  2.5032 -0.7551
 6724SOL     OW21070   3.115   3.025   6.263  0.2897  0.3766 -0.1438
 6724SOL    HW121071   3.050   3.040   6.188 -1.4741  1.4553  1.5124
 6724SOL    HW221072   3.187   3.094   6.260  0.1503  0.4969 -0.7565
 6725SOL     OW21073   5.123   3.358   3.015  0.1858  0.2400  0.4378
 6725SOL    HW121074   5.040   3.302   3.019 -0.1905  0.6792 -0.7381
 6725SOL    HW221075   5.121   3.427   3.087 -0.2256 -0.0827  0.7381
 6726SOL     OW21076   0.519   2.418   0.943  0.5488 -0.0889  0.1061
 6726SOL    HW121077   0.539   2.398   0.847 -1.0916 -2.5510  0.1826
 6726SOL    HW221078   0.603   2.443   0.990  1.7542 -0.9127 -1.5074
 6727SOL     OW21079   1.862   4.503   4.217 -0.0144  0.2549  0.7535
 6727SOL    HW121080   1.881   4.568   4.291  0.5226  0.0607  0.7897
 6727SOL    HW221081   1.915   4.529   4.136 -1.3591  1.0657  0.0891
 6728SOL     OW21082   3.432   2.096   5.045 -0.1404  0.1588 -0.4323
 6728SOL    HW121083   3.404   2.126   5.136 -0.7238 -2.6459  0.3819
 6728SOL    HW221084   3.355   2.103   4.981  0.1645  1.7609 -0.6647
 6729SOL     OW21085   5.355   1.492   2.207 -0.2563 -0.4363 -0.0532
 6729SOL    HW121086   5.265   1.534   2.220 -0.3712  0.4235 -2.8681
 6729SOL    HW221087   5.426   1.557   2.235 -0.4876  0.6548 -1.8512
 6730SOL     OW21088   2.188   0.275   0.791  0.1090 -0.1808 -0.5537
 6730SOL    HW121089   2.090   0.280   0.809  0.7171  0.4983  3.4150
 6730SOL    HW221090   2.230   0.362   0.814  1.8922 -1.0722 -0.2871
 6731SOL     OW21091   4.150   0.230   5.889  0.0564 -0.5791  0.5852
 6731SOL    HW121092   4.091   0.167   5.839 -0.5223  1.5510 -1.6131
 6731SOL    HW221093   4.221   0.265   5.828 -1.0082  2.5649  0.9326
 6732SOL     OW21094   0.188   5.713   6.190 -0.1300 -0.1634 -0.2092
 6732SOL    HW121095   0.235   5.761   6.264  0.2017  2.7628 -2.1763
 6732SOL    HW221096   0.168   5.619   6.219 -0.0618  0.8295  3.5583
 6733SOL     OW21097   5.615   5.739   5.702  0.0809  0.2106  0.3110
 6733SOL    HW121098   5.648   5.668   5.764  0.5999  1.6846  1.7863
 6733SOL    HW221099   5.645   5.829   5.734 -2.1260  1.3059 -0.4543
 6734SOL     OW21100   3.218   1.150   4.031  0.3258  0.2220 -0.0122
 6734SOL    HW121101   3.169   1.067   4.056  1.6311 -0.2658  1.0880
 6734SOL    HW221102   3.188   1.182   3.941 -1.2842 -0.5677  0.2199
 6735SOL     OW21103   5.318   1.754   3.059 -0.0114 -0.5755 -0.1633
 6735SOL    HW121104   5.357   1.664   3.040  0.2784 -0.8351  1.5489
 6735SOL    HW221105   5.304   1.765   3.157  0.5323  1.4951 -0.2703
 6736SOL     OW21106   4.942   3.876   3.153 -0.0727 -0.2615 -0.1345
 6736SOL    HW121107   4.941   3.833   3.063 -1.1183 -1.1801  0.2866
 6736SOL    HW221108   4.866   3.941   3.160  2.4444  3.0695 -1.3522
 6737SOL     OW21109   6.946   4.407   1.301  0.4718  0.0746 -0.2154
 6737SOL    HW121110   6.970   4.413   1.204  0.7565 -0.7267 -0.1958
 6737SOL    HW221111   7.013   4.459   1.355 -0.0779  1.1063 -0.4944
 6738SOL     OW21112   1.488   6.372   3.625 -0.0235  0.1263  0.3314
 6738SOL    HW121113   1.505   6.285   3.672  0.4214  0.3930  0.6720
 6738SOL    HW221114   1.482   6.356   3.526  2.7996  0.0545  0.0967
 6739SOL     OW21115   0.984   6.824   6.174 -0.2590  0.3370 -0.1128
 6739SOL    HW121116   0.887   6.830   6.198  0.1391  0.4415  1.6529
 6739SOL    HW221117   1.010   6.728   6.162 -0.4770  0.2744 -0.0842
 6740SOL     OW21118   0.757   6.617   1.702 -0.4271  0.4076 -0.0941
 6740SOL    HW121119   0.754   6.626   1.603 -0.5753  0.1160 -0.1159
 6740SOL    HW221120   0.837   6.563   1.729  0.2055  1.3700  0.0109
 6741SOL     OW21121   3.073   0.965   1.874 -0.3521  0.4611 -0.2375
 6741SOL    HW121122   3.100   1.046   1.927  0.9475  0.1368 -0.3592
 6741SOL    HW221123   3.148   0.938   1.815 -1.2271 -0.1135 -1.1138
 6742SOL     OW21124   0.159   5.725   1.581 -0.1601  0.5459 -0.0840
 6742SOL    HW121125   0.258   5.712   1.587 -0.4204 -1.7047  0.1224
 6742SOL    HW221126   0.118   5.652   1.527 -1.7324  1.4079 -0.1281
 6743SOL     OW21127   4.289   4.198   5.598  0.0808 -0.3511  0.2361
 6743SOL    HW121128   4.336   4.261   5.536  2.4325  0.7662  2.9759
 6743SOL    HW221129   4.193   4.225   5.606  0.4845  1.4252 -0.4365
 6744SOL     OW21130   6.538   0.224   6.805  0.1984 -0.0337 -0.2111
 6744SOL    HW121131   6.602   0.276   6.747 -0.0494 -1.2116 -1.5991
 6744SOL    HW221132   6.579   0.209   6.895  0.2756  2.5450  0.2678
 6745SOL     OW21133   5.040   2.578   4.005  0.2562 -0.1856 -0.1460
 6745SOL    HW121134   4.964   2.512   4.009  1.2296 -1.2938  2.2948
 6745SOL    HW221135   5.035   2.629   3.919 -2.4325 -1.1592 -0.6826
 6746SOL     OW21136   1.451   3.192   3.185  0.0602 -0.1671 -0.0573
 6746SOL    HW121137   1.444   3.243   3.271  2.1906  0.0588  0.0399
 6746SOL    HW221138   1.465   3.095   3.204 -0.6404 -0.3036 -0.1935
 6747SOL     OW21139   0.133   7.010   5.892  0.3607 -0.8062  0.1167
 6747SOL    HW121140   0.038   7.033   5.909  0.9929  0.9000  1.5683
 6747SOL    HW221141   0.177   7.083   5.839  1.5148 -0.2393  1.7769
 6748SOL     OW21142   0.422   3.320   4.199 -0.4054  0.4803  0.5837
 6748SOL    HW121143   0.518   3.300   4.217 -0.2829  0.6919  0.1796
 6748SOL    HW221144   0.385   3.378   4.272  0.4397  2.4243 -0.4579
 6749SOL     OW21145   3.183   4.902   2.429  0.2373  0.0178 -0.1920
 6749SOL    HW121146   3.143   4.968   2.493  0.2892  1.7971 -1.9156
 6749SOL    HW221147   3.118   4.884   2.355  1.1778  0.0906 -1.0592
 6750SOL     OW21148   3.870   6.156   6.766 -0.3381  0.4504  0.1177
 6750SOL    HW121149   3.944   6.129   6.827  0.3808  0.0774 -0.9079
 6750SOL    HW221150   3.815   6.227   6.811  0.4446  0.5157  1.0070
 6751SOL     OW21151   3.503   1.195   5.510  0.1404 -0.3757 -0.0519
 6751SOL    HW121152   3.550   1.216   5.596 -0.4913 -1.1267  0.4996
 6751SOL    HW221153   3.565   1.213   5.433  2.2878 -3.5549  0.7165
 6752SOL     OW21154   2.995   5.060   2.593  0.1405  0.0710 -0.2415
 6752SOL    HW121155   2.945   5.115   2.660  0.3915 -0.5565  0.4718
 6752SOL    HW221156   2.986   4.963   2.615  2.1951 -0.0510  0.3156
 6753SOL     OW21157   5.591   5.075   5.429 -0.4034 -0.1933  0.0014
 6753SOL    HW121158   5.598   5.175   5.437  2.5370 -0.3466  0.4145
 6753SOL    HW221159   5.544   5.038   5.509  0.5017  0.7050  0.9664
 6754SOL     OW21160   6.197   1.125   4.734  1.3006  0.2971  0.1993
 6754SOL    HW121161   6.265   1.188   4.770  2.0742  0.8078 -2.0209
 6754SOL    HW221162   6.105   1.160   4.752  1.6795  0.9919  0.8084
 6755SOL     OW21163   4.917   0.921   5.617 -0.5407  0.4125  0.2302
 6755SOL    HW121164   4.861   1.004   5.612 -0.5467  0.5875  2.4571
 6755SOL    HW221165   4.862   0.845   5.649 -0.4216 -0.3947 -1.3697
 6756SOL     OW21166   3.578   3.743   4.586 -0.2113  0.0013 -0.3537
 6756SOL    HW121167   3.504   3.724   4.650  0.0274  0.9668  0.2259
 6756SOL    HW221168   3.664   3.752   4.635  0.1951 -0.4944 -0.9539
 6757SOL     OW21169   3.425   1.223   2.024 -0.1102 -0.0190 -0.4103
 6757SOL    HW121170   3.331   1.189   2.028  0.0281 -0.3440  0.1024
 6757SOL    HW221171   3.474   1.196   2.107  0.4714  0.0442 -0.7280
 6758SOL     OW21172   4.803   1.605   4.066 -0.1973  0.4067  0.1156
 6758SOL    HW121173   4.863   1.686   4.067  0.6702 -0.2161 -0.0434
 6758SOL    HW221174   4.823   1.550   3.985 -0.5239 -0.1571  0.4125
 6759SOL     OW21175   1.469   0.662   1.962  0.6255  0.1272  0.5505
 6759SOL    HW121176   1.543   0.600   1.987 -0.1114 -1.3666 -0.8187
 6759SOL    HW221177   1.410   0.619   1.894 -0.2041  2.1602 -0.1043
 6760SOL     OW21178   4.819   2.349   5.260 -0.0450  0.0816  0.4695
 6760SOL    HW121179   4.854   2.428   5.210 -1.3102  0.4738  0.1652
 6760SOL    HW221180   4.834   2.266   5.205 -1.2983  0.4878 -0.5271
 6761SOL     OW21181   1.914   6.882   5.501 -0.1889  0.1842  0.3569
 6761SOL    HW121182   1.865   6.949   5.558 -0.8095  1.7131 -1.8606
 6761SOL    HW221183   2.012   6.901   5.504 -0.3156  0.8916  0.1216
 6762SOL     OW21184   0.157   3.598   2.917 -0.1234  0.7180 -0.1899
 6762SOL    HW121185   0.203   3.654   2.986 -1.1670  0.4024  0.7956
 6762SOL    HW221186   0.073   3.644   2.889 -1.2831 -0.5612  1.0406
 6763SOL     OW21187   4.987   0.219   3.802 -0.1790 -0.2762 -0.5179
 6763SOL    HW121188   5.016   0.127   3.830 -0.8240 -0.1078  0.7847
 6763SOL    HW221189   4.993   0.281   3.880 -0.8649  0.5215 -1.0816
 6764SOL     OW21190   0.953   5.526   2.070 -0.6057 -0.5858 -0.0975
 6764SOL    HW121191   1.026   5.558   2.130 -0.8787 -0.0003 -0.0674
 6764SOL    HW221192   0.991   5.469   1.997  0.0126  0.5392 -0.6801
 6765SOL     OW21193   6.951   5.774   2.208 -0.2187  0.5552  0.0691
 6765SOL    HW121194   6.999   5.861   2.196 -0.2085  0.3708 -1.4274
 6765SOL    HW221195   6.955   5.722   2.122 -1.0793 -0.4886  0.6429
 6766SOL     OW21196   3.642   0.331   2.200  0.0208 -0.3716  0.1064
 6766SOL    HW121197   3.631   0.233   2.217 -0.8016 -0.3974 -0.5016
 6766SOL    HW221198   3.620   0.351   2.105 -0.6475  0.5236  0.4319
 6767SOL     OW21199   1.915   6.933   1.780 -0.6958 -0.0279  0.3381
 6767SOL    HW121200   1.858   6.915   1.700 -1.9279  0.4339  1.0699
 6767SOL    HW221201   2.000   6.978   1.752 -1.1826  0.2806 -0.6920
 6768SOL     OW21202   3.586   6.074   6.101 -0.4227 -0.1685  0.0512
 6768SOL    HW121203   3.676   6.062   6.057  1.3620  0.9670  3.0637
 6768SOL    HW221204   3.542   6.155   6.064  0.4299  0.0527 -0.5128
 6769SOL     OW21205   6.382   3.741   0.467  0.2376 -0.1757  0.7889
 6769SOL    HW121206   6.408   3.649   0.437 -1.1698 -0.5734  0.7124
 6769SOL    HW221207   6.437   3.766   0.547  0.4919 -1.1705  0.9482
 6770SOL     OW21208   1.138   1.939   6.992  0.4107  0.0997 -0.2224
 6770SOL    HW121209   1.223   1.914   7.039  0.0636 -0.2536  0.2283
 6770SOL    HW221210   1.092   1.855   6.962  0.9337  0.3241 -1.7630
 6771SOL     OW21211   4.723   6.903   4.311 -0.1047  0.6984 -0.9814
 6771SOL    HW121212   4.818   6.913   4.281  0.1312  0.5018 -0.3326
 6771SOL    HW221213   4.719   6.913   4.411 -0.8499  1.3124 -1.0623
 6772SOL     OW21214   4.590   1.891   6.514  0.1348  0.2754  0.2619
 6772SOL    HW121215   4.538   1.808   6.536 -0.8906  0.9243  0.3795
 6772SOL    HW221216   4.684   1.881   6.546  0.6034 -1.6304 -1.5203
 6773SOL     OW21217   0.565   1.811   1.954  0.1876  0.3550  0.2491
 6773SOL    HW121218   0.523   1.803   1.863 -0.7400  0.9310  0.6165
 6773SOL    HW221219   0.653   1.762   1.954 -0.6230 -1.1742 -0.4460
 6774SOL     OW21220   1.782   2.303   5.558 -0.8982 -0.3487 -0.2390
 6774SOL    HW121221   1.771   2.208   5.588  0.0140  0.1117  1.7248
 6774SOL    HW221222   1.855   2.307   5.490 -0.4444 -0.9760  0.1945
 6775SOL     OW21223   2.245   4.026   0.716 -0.2994 -0.0394  0.0647
 6775SOL    HW121224   2.188   4.018   0.797  0.7768 -0.7853  0.7795
 6775SOL    HW221225   2.341   4.018   0.742  0.0444 -0.9457 -1.3646
 6776SOL     OW21226   0.910   1.479   0.804  0.0473 -0.0225 -0.2563
 6776SOL    HW121227   0.979   1.433   0.859  0.4283  0.8181 -0.0150
 6776SOL    HW221228   0.898   1.573   0.837 -1.0442 -0.0825 -0.4446
 6777SOL     OW21229   5.414   6.050   6.005  0.3698 -0.3593  0.2358
 6777SOL    HW121230   5.435   6.128   5.946  1.3297 -1.1818 -0.5371
 6777SOL    HW221231   5.347   5.991   5.960  1.6793 -1.3929 -0.4064
 6778SOL     OW21232   1.054   6.749   3.217 -0.3455 -0.0544  0.1754
 6778SOL    HW121233   1.004   6.827   3.256 -1.7979 -0.7417 -0.2404
 6778SOL    HW221234   1.029   6.666   3.266 -0.2117 -0.5364 -0.5681
 6779SOL     OW21235   6.640   2.246   5.496  0.1489 -0.4211  0.3890
 6779SOL    HW121236   6.661   2.212   5.588 -0.2503  0.7055  0.9181
 6779SOL    HW221237   6.580   2.326   5.503  1.9123  1.0843 -0.7278
 6780SOL     OW21238   0.668   0.468   1.661 -0.0106  0.1821  0.0794
 6780SOL    HW121239   0.586   0.522   1.677  0.4789  0.5670  1.4448
 6780SOL    HW221240   0.739   0.494   1.727  1.3265  0.0784 -1.2736
 6781SOL     OW21241   4.072   4.832   3.426  0.3345  0.7702 -0.1046
 6781SOL    HW121242   4.106   4.923   3.453  1.0825  0.3603  0.3634
 6781SOL    HW221243   4.121   4.762   3.477 -1.0569  0.1315  0.4023
 6782SOL     OW21244   0.837   1.022   2.719 -0.1425  0.4878 -0.0264
 6782SOL    HW121245   0.833   1.116   2.686 -0.1788  0.3305 -0.4781
 6782SOL    HW221246   0.745   0.988   2.736 -0.0857  0.9197  1.2746
 6783SOL     OW21247   1.784   4.444   0.186  0.5267  0.2610 -0.0253
 6783SOL    HW121248   1.854   4.478   0.124  1.8016  1.1068  1.8181
 6783SOL    HW221249   1.726   4.378   0.137  0.2779  2.2391 -2.6357
 6784SOL     OW21250   4.026   4.061   6.568  0.0121  0.2540 -0.1370
 6784SOL    HW121251   3.952   3.995   6.581  0.4121 -0.0851  0.5227
 6784SOL    HW221252   3.988   4.152   6.554 -0.5460 -0.1097 -1.0312
 6785SOL     OW21253   4.912   0.159   0.519 -0.4005  0.1479  0.0409
 6785SOL    HW121254   4.870   0.215   0.590 -1.7205  0.9705 -1.3231
 6785SOL    HW221255   5.011   0.158   0.531 -0.2988  2.8862  0.0594
 6786SOL     OW21256   6.724   2.662   5.442  0.3871 -0.2168  0.2117
 6786SOL    HW121257   6.816   2.671   5.480  0.4588  0.9294 -0.1990
 6786SOL    HW221258   6.671   2.744   5.462 -1.7864 -2.1822  3.5481
 6787SOL     OW21259   1.142   4.168   2.187 -0.4170 -0.4081  0.1038
 6787SOL    HW121260   1.098   4.081   2.209  0.2770 -0.8106 -0.1002
 6787SOL    HW221261   1.090   4.214   2.114 -2.3925  0.6600  2.0311
 6788SOL     OW21262   2.496   4.304   0.214  0.4739  0.0520  0.0680
 6788SOL    HW121263   2.439   4.228   0.182  2.4323 -0.9639 -1.2151
 6788SOL    HW221264   2.458   4.390   0.182  1.8751 -0.8294 -4.7454
 6789SOL     OW21265   2.538   4.873   1.731 -0.4800 -0.0536  0.3507
 6789SOL    HW121266   2.496   4.929   1.802 -0.6584  0.5023 -0.1745
 6789SOL    HW221267   2.637   4.877   1.740 -0.3717  2.1875 -0.9704
 6790SOL     OW21268   1.457   2.300   1.125  0.5809  0.2178 -0.3115
 6790SOL    HW121269   1.544   2.288   1.077 -1.0028  1.5865 -3.9071
 6790SOL    HW221270   1.445   2.396   1.150  0.2399 -0.0285  0.5224
 6791SOL     OW21271   1.902   4.273   5.974  0.5774 -0.5311 -0.0132
 6791SOL    HW121272   1.987   4.227   6.000  1.2002  0.1130 -0.8325
 6791SOL    HW221273   1.920   4.371   5.962 -0.6751 -0.0824  1.5008
 6792SOL     OW21274   0.944   5.637   0.291  0.2311 -0.3398  0.0402
 6792SOL    HW121275   0.997   5.706   0.241  1.5597 -1.3656 -0.0272
 6792SOL    HW221276   0.998   5.601   0.367  0.1316 -2.2739 -0.7441
 6793SOL     OW21277   4.910   2.731   1.401 -0.3073 -0.0031 -0.4341
 6793SOL    HW121278   4.835   2.796   1.387 -0.0223  0.3994 -0.1075
 6793SOL    HW221279   4.938   2.732   1.497  1.3355  1.2094 -0.8861
 6794SOL     OW21280   4.774   2.122   6.125  0.4269  0.4474 -0.5102
 6794SOL    HW121281   4.847   2.054   6.122  2.4483  2.3258  1.6794
 6794SOL    HW221282   4.717   2.105   6.206  0.2465  0.6854 -0.5874
 6795SOL     OW21283   3.987   6.011   6.505 -0.1135 -0.1965 -0.1360
 6795SOL    HW121284   3.994   5.999   6.604 -1.8445  0.4871  0.1183
 6795SOL    HW221285   4.035   6.095   6.478 -0.8358  0.3900  0.3579
 6796SOL     OW21286   2.385   1.937   3.616  0.4181  0.2471 -0.5100
 6796SOL    HW121287   2.334   2.004   3.560 -1.4390 -1.3831 -0.8821
 6796SOL    HW221288   2.443   1.986   3.680 -3.5015  2.4847  1.7707
 6797SOL     OW21289   6.961   3.357   1.025 -0.3077 -0.4572 -0.3106
 6797SOL    HW121290   7.036   3.388   0.965 -0.3389 -0.4639 -0.3536
 6797SOL    HW221291   6.973   3.397   1.116  0.2203 -1.1447 -0.0730
 6798SOL     OW21292   5.791   0.183   0.675  0.0266  0.0133 -0.1826
 6798SOL    HW121293   5.769   0.267   0.725  1.2741  1.4809 -1.9595
 6798SOL    HW221294   5.708   0.145   0.635 -0.4179  1.0534 -0.2823
 6799SOL     OW21295   4.433   6.843   2.277  0.2405  0.0818 -0.0983
 6799SOL    HW121296   4.522   6.887   2.290  0.1608  0.2619 -0.1718
 6799SOL    HW221297   4.383   6.843   2.363  0.9601 -1.4442  0.3635
 6800SOL     OW21298   2.156   3.983   0.460 -0.7204  0.7897  0.3213
 6800SOL    HW121299   2.187   3.987   0.555 -0.4865  0.7650  0.2468
 6800SOL    HW221300   2.229   3.943   0.403 -1.3587 -0.4480  0.3399
 6801SOL     OW21301   6.425   2.739   2.855 -0.0741 -0.2170  0.1447
 6801SOL    HW121302   6.500   2.767   2.795 -0.4398  1.3905  0.3685
 6801SOL    HW221303   6.370   2.668   2.810 -0.3295  0.9229 -1.4440
 6802SOL     OW21304   3.007   5.048   3.244  0.0273  0.9856  0.7727
 6802SOL    HW121305   3.065   4.993   3.303  1.8033  1.0310 -0.8261
 6802SOL    HW221306   2.944   4.988   3.194  1.1176  0.4754 -0.0493
 6803SOL     OW21307   3.489   1.141   6.171  0.2799 -0.1211  0.2174
 6803SOL    HW121308   3.545   1.151   6.253  2.0399  0.3386 -1.0008
 6803SOL    HW221309   3.519   1.206   6.101 -2.0657  0.4395 -0.3610
 6804SOL     OW21310   0.965   3.923   2.214 -0.0664  0.3032 -0.0494
 6804SOL    HW121311   0.962   3.893   2.119 -0.2860 -0.7482  0.2776
 6804SOL    HW221312   0.996   3.848   2.272 -2.4273  0.0720  1.0220
 6805SOL     OW21313   5.522   2.493   4.871  0.3570 -0.0222 -0.1850
 6805SOL    HW121314   5.443   2.527   4.922  0.2694  1.1951 -1.0968
 6805SOL    HW221315   5.546   2.402   4.904  0.5680  0.8533  2.3518
 6806SOL     OW21316   5.790   6.537   5.637  0.0163  0.2036  0.4748
 6806SOL    HW121317   5.864   6.491   5.687  1.9685  0.9958 -1.5010
 6806SOL    HW221318   5.771   6.487   5.553  0.9597  1.9818 -0.8575
 6807SOL     OW21319   6.042   5.450   0.828  0.3580 -0.1417  0.0768
 6807SOL    HW121320   5.951   5.485   0.806  0.1096 -1.3121 -0.8225
 6807SOL    HW221321   6.111   5.510   0.787  0.0401  1.0737  1.2337
 6808SOL     OW21322   1.748   6.134   3.843 -0.0119  0.0242 -0.2683
 6808SOL    HW121323   1.746   6.213   3.903  1.9729 -0.4661  0.5373
 6808SOL    HW221324   1.789   6.056   3.892 -2.9262 -1.9018 -0.6286
 6809SOL     OW21325   2.069   2.770   0.714  0.3732  0.0287 -0.0165
 6809SOL    HW121326   2.128   2.789   0.792 -0.6730  0.9917  0.5690
 6809SOL    HW221327   2.018   2.685   0.729  0.5639 -0.0601  0.1153
 6810SOL     OW21328   6.963   0.764   3.825 -0.0833  0.6345 -0.1443
 6810SOL    HW121329   6.980   0.721   3.736  0.3233  1.3332 -0.4101
 6810SOL    HW221330   7.050   0.779   3.872 -0.1483  1.8203 -0.3706
 6811SOL     OW21331   3.502   0.579   1.329 -0.5381 -0.0688  0.3930
 6811SOL    HW121332   3.421   0.597   1.273 -0.3961  0.7076  0.4244
 6811SOL    HW221333   3.584   0.602   1.277 -0.3686 -0.2088  0.5964
 6812SOL     OW21334   3.801   4.093   3.881  0.3432  0.2700 -0.8824
 6812SOL    HW121335   3.723   4.137   3.925  0.2955 -0.0753 -0.6244
 6812SOL    HW221336   3.850   4.035   3.947 -0.3426 -1.0851 -1.5223
 6813SOL     OW21337   5.902   4.696   2.405  0.4729  0.6648  0.5201
 6813SOL    HW121338   5.951   4.653   2.329  3.8241  0.7346  2.4513
 6813SOL    HW221339   5.853   4.776   2.371  1.3013  0.3323 -1.6717
 6814SOL     OW21340   2.366   2.008   0.051 -0.3217  0.2679 -0.1816
 6814SOL    HW121341   2.465   1.998   0.038 -0.2116  1.5223 -0.3561
 6814SOL    HW221342   2.341   2.104   0.046 -1.1523  0.2805  2.7384
 6815SOL     OW21343   1.997   4.789   0.240  0.3994  0.1491  0.0321
 6815SOL    HW121344   2.065   4.816   0.172 -1.2187  0.6660 -1.4609
 6815SOL    HW221345   1.929   4.728   0.197  0.0254 -0.5263  1.5228
 6816SOL     OW21346   6.996   6.423   2.513 -0.0998 -0.1648  0.1450
 6816SOL    HW121347   6.950   6.339   2.484  0.5862  0.0229 -1.5960
 6816SOL    HW221348   6.959   6.452   2.601 -1.4333 -1.4404  0.0515
 6817SOL     OW21349   0.949   0.326   6.941  0.0895 -0.0520 -0.6712
 6817SOL    HW121350   0.872   0.266   6.918  0.2044 -0.5320  0.1737
 6817SOL    HW221351   0.978   0.309   7.035 -0.6820  2.2003  0.0260
 6818SOL     OW21352   3.415   6.363   5.513  0.0055 -0.1438  0.0191
 6818SOL    HW121353   3.467   6.442   5.545  1.8975 -0.5755 -1.7981
 6818SOL    HW221354   3.426   6.288   5.577  2.3565 -0.4710 -0.6654
 6819SOL     OW21355   3.138   1.416   3.525 -0.6531  0.2237 -0.2799
 6819SOL    HW121356   3.065   1.353   3.499 -1.1650  0.9771 -0.7154
 6819SOL    HW221357   3.098   1.499   3.563 -0.0157  0.6036 -0.4331
 6820SOL     OW21358   1.595   4.543   4.160  0.3214  0.7922 -0.2042
 6820SOL    HW121359   1.582   4.511   4.067  1.0495  3.0091 -1.1365
 6820SOL    HW221360   1.679   4.505   4.197 -0.2849 -0.5881 -0.1874
 6821SOL     OW21361   3.063   0.504   3.972 -0.0195 -0.0739  0.8604
 6821SOL    HW121362   3.125   0.551   4.035 -1.7637  1.9193  1.1718
 6821SOL    HW221363   3.046   0.561   3.892  0.8978 -1.9135 -0.7323
 6822SOL     OW21364   4.534   1.430   5.095 -0.3738 -0.5628  0.2212
 6822SOL    HW121365   4.506   1.351   5.040  0.1560  0.7478 -2.0536
 6822SOL    HW221366   4.620   1.411   5.141  0.9981 -0.5639 -2.2094
 6823SOL     OW21367   2.916   3.635   1.933  0.0214 -0.7915  0.5321
 6823SOL    HW121368   2.938   3.692   1.854 -0.1709 -0.6347  0.5898
 6823SOL    HW221369   2.868   3.552   1.903 -0.2289 -0.6375  0.5005
 6824SOL     OW21370   1.771   5.524   4.985  0.2429  0.4640 -0.5703
 6824SOL    HW121371   1.830   5.549   5.061 -1.6395  0.8332  0.8568
 6824SOL    HW221372   1.737   5.607   4.940  1.8626  0.2482 -2.2983
 6825SOL     OW21373   5.501   6.713   5.050  0.4934  0.8779  0.4162
 6825SOL    HW121374   5.484   6.804   5.013 -2.6645  0.0927 -0.4052
 6825SOL    HW221375   5.450   6.701   5.135 -0.4725 -0.5915 -0.3254
 6826SOL     OW21376   6.538   1.997   3.618 -0.2404 -0.0521 -0.2707
 6826SOL    HW121377   6.466   2.028   3.556  1.1511  0.0459 -1.9089
 6826SOL    HW221378   6.555   1.900   3.602  1.2799  0.3427 -1.3301
 6827SOL     OW21379   3.915   1.521   5.354  0.0001  0.3459 -0.2081
 6827SOL    HW121380   3.950   1.472   5.434  2.3115 -0.9016 -1.8705
 6827SOL    HW221381   3.842   1.468   5.312 -0.1711  0.2584  0.1916
 6828SOL     OW21382   2.994   1.470   0.344 -0.1453 -0.0115 -0.1607
 6828SOL    HW121383   2.944   1.518   0.271 -0.9287 -1.6548 -0.7622
 6828SOL    HW221384   3.020   1.535   0.415  1.3489  1.8118 -2.2501
 6829SOL     OW21385   0.774   4.174   5.598  0.4586 -0.1343  0.8946
 6829SOL    HW121386   0.776   4.133   5.507  0.7111 -0.4094  1.0227
 6829SOL    HW221387   0.683   4.163   5.638  0.5700 -0.7126  0.9930
 6830SOL     OW21388   6.036   6.036   3.305  0.1729  0.1403 -0.0549
 6830SOL    HW121389   6.000   5.970   3.239  0.7750  1.5585 -1.8683
 6830SOL    HW221390   6.136   6.027   3.310  0.3134  1.1882 -0.6790
 6831SOL     OW21391   0.195   1.331   5.251 -0.0678 -0.0555  0.6329
 6831SOL    HW121392   0.111   1.284   5.279  0.2709 -0.9929  0.1287
 6831SOL    HW221393   0.176   1.386   5.170  0.0858 -1.3458 -0.3129
 6832SOL     OW21394   2.266   5.047   1.312 -0.4740 -0.4215  0.2756
 6832SOL    HW121395   2.361   5.020   1.327 -0.6194 -0.5688  0.9886
 6832SOL    HW221396   2.205   4.977   1.350 -0.8649 -0.0635  0.3191
 6833SOL     OW21397   3.958   4.881   0.585  0.3329 -0.3672 -0.1157
 6833SOL    HW121398   3.942   4.848   0.678  2.5710  0.5071  0.6725
 6833SOL    HW221399   4.057   4.894   0.571 -0.1142  2.2246 -1.6300
 6834SOL     OW21400   3.837   6.151   2.034 -0.8045 -0.3864 -0.2221
 6834SOL    HW121401   3.795   6.161   1.943 -0.1694 -1.0024 -0.5887
 6834SOL    HW221402   3.914   6.088   2.028 -0.5244 -0.1366  0.6770
 6835SOL     OW21403   2.727   0.414   4.623 -0.4467  0.0776 -0.4861
 6835SOL    HW121404   2.796   0.409   4.696 -0.2710 -2.1100 -0.7354
 6835SOL    HW221405   2.645   0.364   4.652 -0.5177 -0.4767 -1.6151
 6836SOL     OW21406   2.874   4.404   0.666 -0.1744 -0.2089 -0.6977
 6836SOL    HW121407   2.779   4.435   0.677 -0.1965 -0.3973 -0.3255
 6836SOL    HW221408   2.936   4.477   0.692 -0.2268 -0.6683  0.8282
 6837SOL     OW21409   2.181   3.238   3.112  0.2216  0.9746 -0.0799
 6837SOL    HW121410   2.189   3.212   3.015 -3.8038 -0.2600 -0.2742
 6837SOL    HW221411   2.203   3.159   3.169 -1.7994  0.2372 -0.2512
 6838SOL     OW21412   2.071   0.413   6.852 -0.2091 -0.5913  0.0214
 6838SOL    HW121413   2.063   0.427   6.951  1.7243 -0.3706  0.1708
 6838SOL    HW221414   2.021   0.485   6.804 -0.9354 -0.5449  0.8087
 6839SOL     OW21415   3.117   2.160   2.140  0.4849  0.4758 -0.1623
 6839SOL    HW121416   3.023   2.190   2.124  0.4154  1.4782  1.8041
 6839SOL    HW221417   3.177   2.199   2.070 -0.0652  2.8312  0.5871
 6840SOL     OW21418   2.144   0.514   5.079  0.4735  0.5376  0.1773
 6840SOL    HW121419   2.058   0.565   5.081 -0.0246 -0.3164  1.0399
 6840SOL    HW221420   2.210   0.560   5.138 -0.2888 -0.3298  1.7466
 6841SOL     OW21421   4.855   2.542   4.815  0.5331  0.0467 -0.2708
 6841SOL    HW121422   4.950   2.526   4.843  0.3469  0.4090  0.6133
 6841SOL    HW221423   4.823   2.628   4.855 -0.0086  0.1898 -0.9901
 6842SOL     OW21424   4.308   5.928   2.680  0.0980 -0.0406 -0.2569
 6842SOL    HW121425   4.359   5.936   2.766 -0.0654  0.1320 -0.1763
 6842SOL    HW221426   4.243   5.853   2.686 -0.9255  0.8686  0.2871
 6843SOL     OW21427   3.005   6.886   1.115  0.1228 -0.0924 -0.4933
 6843SOL    HW121428   3.087   6.829   1.106  1.4325  1.8843 -1.7864
 6843SOL    HW221429   3.030   6.982   1.109 -2.2342  0.6008 -0.2106
 6844SOL     OW21430   5.592   0.488   5.446  0.2361  0.3594 -0.1136
 6844SOL    HW121431   5.679   0.518   5.406 -0.5859  2.3349 -0.5320
 6844SOL    HW221432   5.574   0.541   5.529  0.1833 -1.1847  0.8919
 6845SOL     OW21433   5.736   4.107   2.292 -0.1862 -0.0388  0.2615
 6845SOL    HW121434   5.740   4.133   2.195 -1.3899  0.0206  0.2240
 6845SOL    HW221435   5.784   4.176   2.346 -0.3784  0.4570 -0.1900
 6846SOL     OW21436   1.055   0.232   0.912  0.9989  0.3173  0.0128
 6846SOL    HW121437   1.097   0.303   0.856 -0.9450  0.1566 -1.7823
 6846SOL    HW221438   1.110   0.217   0.994  2.8409  2.0389 -0.8253
 6847SOL     OW21439   0.384   1.775   2.610  0.2132 -0.3463  0.4465
 6847SOL    HW121440   0.352   1.869   2.600  0.2192 -0.1958  1.7186
 6847SOL    HW221441   0.316   1.712   2.570  0.4580  0.2044 -0.8900
 6848SOL     OW21442   0.365   3.664   2.653 -0.8514  0.9237 -0.0216
 6848SOL    HW121443   0.312   3.612   2.720 -1.2732 -0.2627 -1.2482
 6848SOL    HW221444   0.458   3.678   2.687 -0.5674 -1.0968  0.1334
 6849SOL     OW21445   2.384   3.399   5.332  0.6082 -0.0623 -0.6767
 6849SOL    HW121446   2.313   3.470   5.333  0.2099 -0.4395  0.5291
 6849SOL    HW221447   2.350   3.319   5.283  0.1470 -0.2734 -0.0290
 6850SOL     OW21448   4.385   6.824   5.632 -0.0901  0.2826  0.7163
 6850SOL    HW121449   4.465   6.881   5.650 -0.2848 -0.1421  3.2459
 6850SOL    HW221450   4.413   6.729   5.619 -0.0514  0.4186 -0.2906
 6851SOL     OW21451   0.246   3.891   2.732  0.2585 -0.1250  0.1594
 6851SOL    HW121452   0.161   3.904   2.680  1.2301  0.8918 -1.2735
 6851SOL    HW221453   0.297   3.814   2.693  1.0906  0.7738 -0.6081
 6852SOL     OW21454   5.353   2.875   0.556  0.3180  0.2871  0.0552
 6852SOL    HW121455   5.406   2.790   0.549 -1.5901 -1.2169  2.3759
 6852SOL    HW221456   5.334   2.895   0.652 -0.0944  2.8772 -0.4946
 6853SOL     OW21457   5.056   4.860   4.498 -0.0991  0.6810 -0.3393
 6853SOL    HW121458   4.965   4.818   4.494  1.1853 -2.4538  0.3662
 6853SOL    HW221459   5.080   4.879   4.593  0.9690 -1.0533 -0.2195
 6854SOL     OW21460   5.823   0.533   5.645 -0.0010 -0.2999  0.7411
 6854SOL    HW121461   5.893   0.464   5.663 -0.1701 -0.0345  2.6067
 6854SOL    HW221462   5.737   0.504   5.685 -0.5351  0.1785 -0.0430
 6855SOL     OW21463   3.537   6.902   4.077 -0.7205  0.3296  0.3664
 6855SOL    HW121464   3.504   6.830   4.015  1.8593 -0.4953 -0.1778
 6855SOL    HW221465   3.478   6.983   4.069 -2.5669 -1.0217 -0.4334
 6856SOL     OW21466   5.489   0.974   1.338  0.7533 -0.3826 -0.5700
 6856SOL    HW121467   5.567   1.011   1.287 -0.2836  0.6896 -1.4639
 6856SOL    HW221468   5.405   1.014   1.302 -0.0046  1.4808  2.8271
 6857SOL     OW21469   1.714   5.566   6.342  0.1404 -0.6669  0.3465
 6857SOL    HW121470   1.798   5.587   6.392 -0.0486  1.1506 -0.0238
 6857SOL    HW221471   1.718   5.472   6.308  1.7955 -0.7841  0.7813
 6858SOL     OW21472   1.051   2.501   1.627  0.5764  0.5985  0.5933
 6858SOL    HW121473   1.060   2.566   1.702 -0.4651 -0.5258  1.7514
 6858SOL    HW221474   1.135   2.499   1.574  1.1087  1.8827  1.3453
 6859SOL     OW21475   3.143   2.357   0.548 -0.5410 -0.6909 -0.4518
 6859SOL    HW121476   3.077   2.345   0.623 -0.7745 -1.3158 -0.7503
 6859SOL    HW221477   3.129   2.446   0.506  0.5014  0.2729  1.1207
 6860SOL     OW21478   6.882   0.334   6.230 -0.0955  0.0609 -0.4533
 6860SOL    HW121479   6.896   0.271   6.306 -0.8113  0.4100 -0.0256
 6860SOL    HW221480   6.941   0.414   6.241 -1.5234  1.0043  0.7586
 6861SOL     OW21481   0.014   6.309   4.498  0.4201 -0.1016  0.1338
 6861SOL    HW121482  -0.016   6.293   4.592  1.0914  1.4401  0.6525
 6861SOL    HW221483   0.069   6.232   4.466  2.7110  0.5748  2.1105
 6862SOL     OW21484   2.148   5.745   3.039  0.1003  0.3367 -0.3153
 6862SOL    HW121485   2.202   5.770   2.959 -0.1034  0.4001 -0.4326
 6862SOL    HW221486   2.190   5.785   3.121 -0.6852  1.7741 -0.5882
 6863SOL     OW21487   4.862   0.161   5.773  0.0704 -0.4910 -0.1290
 6863SOL    HW121488   4.774   0.201   5.750  0.2651  0.8145  1.2017
 6863SOL    HW221489   4.852   0.104   5.855  0.5635  0.1718  0.4014
 6864SOL     OW21490   4.198   2.988   6.338 -0.3884  0.2213  0.2785
 6864SOL    HW121491   4.170   2.895   6.315 -0.3248  0.5597 -1.2636
 6864SOL    HW221492   4.141   3.022   6.413 -2.4100 -0.0487 -1.0510
 6865SOL     OW21493   1.655   6.917   3.724  0.3047  0.5896  0.6311
 6865SOL    HW121494   1.624   6.985   3.657 -0.5216  1.0357  1.4600
 6865SOL    HW221495   1.596   6.919   3.804  1.5113  0.3143  1.5495
 6866SOL     OW21496   1.834   5.423   6.699  0.6501  0.2791  0.3197
 6866SOL    HW121497   1.897   5.499   6.689  1.6610 -0.3414  1.6975
 6866SOL    HW221498   1.860   5.350   6.635 -0.5458  1.1734 -1.2712
 6867SOL     OW21499   0.168   1.928   5.175 -0.3177 -0.1415 -0.0830
 6867SOL    HW121500   0.084   1.895   5.133  0.0345 -0.9097 -0.1872
 6867SOL    HW221501   0.246   1.906   5.116 -0.1679  1.8739 -0.7294
 6868SOL     OW21502   1.622   4.566   4.812  0.1258 -0.3575  0.2872
 6868SOL    HW121503   1.614   4.578   4.911 -0.4926  0.3133  0.1664
 6868SOL    HW221504   1.676   4.640   4.774 -3.1676  1.9457 -0.3799
 6869SOL     OW21505   0.815   0.191   6.441  0.2874  0.6142  1.0054
 6869SOL    HW121506   0.810   0.128   6.364  1.4310  1.8550 -0.1157
 6869SOL    HW221507   0.818   0.139   6.526 -0.0534 -0.8018  0.1782
 6870SOL     OW21508   5.862   4.559   5.860  0.1215  0.2537 -0.6353
 6870SOL    HW121509   5.798   4.596   5.928  1.8131  0.1664  1.0936
 6870SOL    HW221510   5.901   4.473   5.894 -1.3841 -1.5735 -3.2038
 6871SOL     OW21511   0.273   3.252   3.087  0.7435  1.2347  0.5011
 6871SOL    HW121512   0.232   3.217   3.171  0.4122  1.9097  0.6270
 6871SOL    HW221513   0.247   3.194   3.010  0.5107  0.9921  0.7617
 6872SOL     OW21514   2.424   4.987   2.010  0.0490  0.3646 -0.5938
 6872SOL    HW121515   2.480   4.978   2.092  0.2212  0.6184 -0.6806
 6872SOL    HW221516   2.419   5.084   1.984 -0.2808  0.3248 -0.6903
 6873SOL     OW21517   1.530   3.995   1.735  0.0515  0.7097 -0.6278
 6873SOL    HW121518   1.628   4.010   1.728  0.7862 -1.8907  2.1537
 6873SOL    HW221519   1.492   4.053   1.807 -0.3011  0.9826 -1.0223
 6874SOL     OW21520   4.942   4.535   2.431  0.0856  0.3503  0.1107
 6874SOL    HW121521   4.982   4.612   2.482  1.2182  0.2122 -0.5283
 6874SOL    HW221522   4.870   4.569   2.370  0.1001  0.8028  0.3410
 6875SOL     OW21523   2.241   6.296   6.634 -0.1959 -0.7673 -0.3371
 6875SOL    HW121524   2.226   6.224   6.566  2.9362 -0.2728 -1.7306
 6875SOL    HW221525   2.205   6.383   6.599  1.6883 -0.4444 -1.6494
 6876SOL     OW21526   5.346   5.231   4.577 -0.0485  0.4034  0.3934
 6876SOL    HW121527   5.339   5.324   4.613 -1.1105 -0.3479  2.2692
 6876SOL    HW221528   5.255   5.193   4.565  0.2802  0.2187 -2.2674
 6877SOL     OW21529   2.378   3.253   6.842 -0.1055 -0.4937 -0.0176
 6877SOL    HW121530   2.435   3.260   6.924  0.7434  0.3591 -0.6591
 6877SOL    HW221531   2.434   3.221   6.765 -0.7807 -0.8137 -0.3858
 6878SOL     OW21532   1.560   5.886   5.129  0.2649 -0.0298 -0.1365
 6878SOL    HW121533   1.463   5.863   5.141  0.9047 -1.9006  2.4125
 6878SOL    HW221534   1.616   5.814   5.169  2.7073  1.6184 -0.3885
 6879SOL     OW21535   0.937   1.824   0.605 -0.3316  0.0736 -0.2993
 6879SOL    HW121536   0.963   1.915   0.571 -0.3767 -0.0545 -0.6820
 6879SOL    HW221537   0.898   1.771   0.529  1.7739 -1.0848 -0.6329
 6880SOL     OW21538   2.407   5.263   0.965  0.3530 -0.5494  0.1476
 6880SOL    HW121539   2.443   5.252   0.872 -0.3052 -0.4307 -0.1299
 6880SOL    HW221540   2.342   5.189   0.984 -0.2768 -0.0083  0.1380
 6881SOL     OW21541   6.377   6.366   0.511  0.1982 -0.2448 -0.1290
 6881SOL    HW121542   6.411   6.290   0.567  0.0145 -0.8484 -0.8085
 6881SOL    HW221543   6.277   6.361   0.504  0.1821  0.0755 -0.1543
 6882SOL     OW21544   0.644   6.317   0.399  0.1577  0.6726 -0.1311
 6882SOL    HW121545   0.565   6.313   0.461  0.8053  1.9319  0.8134
 6882SOL    HW221546   0.698   6.398   0.420  1.6163 -0.0753 -0.8953
 6883SOL     OW21547   5.062   6.586   1.842  0.1509 -0.3214  0.6545
 6883SOL    HW121548   5.089   6.650   1.769  1.3679 -1.6355 -0.1053
 6883SOL    HW221549   5.129   6.590   1.916 -0.6128  0.3807  1.3206
 6884SOL     OW21550   1.469   4.570   0.910 -0.8877  0.5763  0.6847
 6884SOL    HW121551   1.529   4.518   0.972 -0.0985  0.6196 -0.0131
 6884SOL    HW221552   1.511   4.572   0.819 -0.8879  2.4713  0.6983
 6885SOL     OW21553   1.152   3.638   3.609 -0.2155  0.0260  0.0263
 6885SOL    HW121554   1.119   3.634   3.515 -1.6933  2.3438  0.3662
 6885SOL    HW221555   1.104   3.570   3.664 -0.2116 -0.5314 -0.6504
 6886SOL     OW21556   5.405   2.621   0.203 -0.8170  0.3157 -0.0864
 6886SOL    HW121557   5.371   2.614   0.109  1.4275  0.9827 -1.0041
 6886SOL    HW221558   5.440   2.713   0.220 -0.4109 -0.0356  1.1426
 6887SOL     OW21559   5.155   0.303   6.960 -0.0368 -0.2373  0.9047
 6887SOL    HW121560   5.162   0.305   6.860 -2.0030 -2.1187  0.6403
 6887SOL    HW221561   5.221   0.238   6.997  0.5820  0.3400  0.8336
 6888SOL     OW21562   0.744   2.915   0.022  0.4498 -0.0085  0.0144
 6888SOL    HW121563   0.722   2.977   0.098 -0.6925 -0.2664 -0.0901
 6888SOL    HW221564   0.823   2.859   0.047  1.1981  1.1230  0.3056
 6889SOL     OW21565   5.702   3.359   4.262  0.5335  0.6137  0.3681
 6889SOL    HW121566   5.756   3.410   4.195 -0.7930  1.2223 -0.2628
 6889SOL    HW221567   5.638   3.298   4.214 -1.3599  2.0201  1.0130
 6890SOL     OW21568   5.569   5.477   4.385 -0.3936  0.3430  0.1226
 6890SOL    HW121569   5.470   5.464   4.383 -0.4995  1.1109 -0.9893
 6890SOL    HW221570   5.615   5.388   4.384 -1.0450 -0.0579  2.0319
 6891SOL     OW21571   1.455   0.198   1.247  0.3859 -0.6854 -0.3033
 6891SOL    HW121572   1.459   0.175   1.344 -0.3548  1.6122  0.3184
 6891SOL    HW221573   1.510   0.280   1.230 -0.8327 -0.0832 -1.5001
 6892SOL     OW21574   0.517   0.929   4.906 -0.2703 -0.4279  1.0134
 6892SOL    HW121575   0.574   1.006   4.932  0.1170 -1.0371  2.0231
 6892SOL    HW221576   0.425   0.941   4.943 -0.0491 -0.7166  1.6756
 6893SOL     OW21577   5.924   3.547   0.175 -0.0957  0.1685  0.0085
 6893SOL    HW121578   5.946   3.614   0.104  1.5817 -1.2117 -0.8426
 6893SOL    HW221579   5.897   3.461   0.132  0.2055 -0.4556  1.0425
 6894SOL     OW21580   5.031   0.329   5.635 -0.3363  0.7080  0.2449
 6894SOL    HW121581   4.982   0.251   5.674  0.5764  1.1773  2.5409
 6894SOL    HW221582   5.108   0.296   5.581 -0.2115 -0.0139  0.8383
 6895SOL     OW21583   2.509   5.907   1.056 -0.8622  0.6985  0.2915
 6895SOL    HW121584   2.599   5.914   1.013 -0.5724 -0.7497  0.5881
 6895SOL    HW221585   2.490   5.811   1.076 -2.0225  1.0975  1.2083
 6896SOL     OW21586   4.669   2.855   6.618 -0.6866 -0.1492 -0.1615
 6896SOL    HW121587   4.635   2.823   6.529 -0.7714  0.9026 -0.5112
 6896SOL    HW221588   4.705   2.777   6.669  0.8336 -0.5499 -1.7556
 6897SOL     OW21589   5.071   1.654   5.659  0.3520  0.2563 -0.0066
 6897SOL    HW121590   5.167   1.673   5.683  0.6777  0.4278 -1.3666
 6897SOL    HW221591   5.044   1.712   5.582 -1.1649  0.9032  0.9674
 6898SOL     OW21592   3.124   5.135   7.011 -0.0106 -0.8088  0.6284
 6898SOL    HW121593   3.066   5.217   7.015  0.8640 -0.2055  1.3479
 6898SOL    HW221594   3.066   5.054   7.010 -0.9229 -0.3068  3.3196
 6899SOL     OW21595   4.452   5.159   2.727 -0.2316 -0.0675 -0.1066
 6899SOL    HW121596   4.477   5.149   2.823 -0.6026  2.2155  0.2856
 6899SOL    HW221597   4.387   5.086   2.702  2.0714 -2.4824  0.4811
 6900SOL     OW21598   1.910   4.527   5.862 -0.0203 -0.2170 -0.3859
 6900SOL    HW121599   1.825   4.575   5.839 -0.4614 -0.9920 -0.4221
 6900SOL    HW221600   1.987   4.570   5.816 -0.4097  0.4425 -0.4227
 6901SOL     OW21601   6.201   2.896   5.334  0.7016 -0.1045 -0.0520
 6901SOL    HW121602   6.104   2.906   5.356  0.9759  0.3484  1.0037
 6901SOL    HW221603   6.222   2.798   5.324 -0.2274 -0.1454 -2.1443
 6902SOL     OW21604   0.981   3.267   5.204  0.1542 -0.0873  0.0743
 6902SOL    HW121605   1.073   3.229   5.192 -0.4455 -1.4079 -0.6736
 6902SOL    HW221606   0.971   3.349   5.148  0.5145 -0.6258 -0.7986
 6903SOL     OW21607   6.036   6.129   5.938  0.0887 -0.4308 -0.2073
 6903SOL    HW121608   6.110   6.095   5.881  2.0353 -0.5137  2.2073
 6903SOL    HW221609   5.995   6.053   5.988 -0.4282 -0.1523 -0.2032
 6904SOL     OW21610   6.073   0.257   6.004 -0.0928 -0.7267  0.7141
 6904SOL    HW121611   5.976   0.242   6.023 -0.0952 -0.4888  0.8922
 6904SOL    HW221612   6.089   0.354   5.984 -0.5090 -1.2800 -3.0061
 6905SOL     OW21613   5.868   5.141   5.495  0.3256 -0.7339 -0.9576
 6905SOL    HW121614   5.781   5.094   5.477 -0.4434  0.2077  0.1398
 6905SOL    HW221615   5.904   5.111   5.584 -0.0397  0.5137 -0.3642
 6906SOL     OW21616   2.426   1.029   3.187  0.2193 -0.6880  0.2100
 6906SOL    HW121617   2.389   1.051   3.096 -0.4277 -1.6985  0.2132
 6906SOL    HW221618   2.448   1.114   3.235 -2.0524 -0.0128  0.1837
 6907SOL     OW21619   5.855   5.886   0.079  0.6377  0.4060 -0.5703
 6907SOL    HW121620   5.847   5.914   0.175 -0.2450 -0.5706 -0.3374
 6907SOL    HW221621   5.932   5.823   0.069 -0.5659 -1.2355 -0.0311
 6908SOL     OW21622   4.352   6.035   0.209  0.3333 -0.0787 -0.2042
 6908SOL    HW121623   4.383   5.941   0.191  1.0350  0.4644 -2.1035
 6908SOL    HW221624   4.252   6.035   0.218  0.2792 -0.9663 -0.5880
 6909SOL     OW21625   6.305   5.627   2.688  0.1202 -0.6729 -0.1843
 6909SOL    HW121626   6.271   5.552   2.745  1.5408 -0.1326  1.4791
 6909SOL    HW221627   6.405   5.630   2.693  0.2679 -0.4219 -2.5629
 6910SOL     OW21628   2.263   4.347   1.386  0.2363  0.1713 -0.2990
 6910SOL    HW121629   2.166   4.362   1.405  0.5298  0.0403  1.5364
 6910SOL    HW221630   2.283   4.249   1.392  0.7507  0.3265  0.9759
 6911SOL     OW21631   2.384   1.759   6.112  0.0843 -0.3497 -0.2954
 6911SOL    HW121632   2.333   1.822   6.054  0.4317 -1.6147 -2.0336
 6911SOL    HW221633   2.472   1.800   6.137  0.3150 -0.1278 -1.4165
 6912SOL     OW21634   3.548   4.314   0.252 -0.1050  0.0177 -0.2769
 6912SOL    HW121635   3.560   4.240   0.319  4.9859  1.1990  0.5855
 6912SOL    HW221636   3.537   4.401   0.300  0.0550  0.4823 -1.0692
 6913SOL     OW21637   4.149   5.055   6.376  0.3113 -0.1265 -0.0367
 6913SOL    HW121638   4.120   5.054   6.472 -0.7477 -2.1479 -0.3274
 6913SOL    HW221639   4.136   4.964   6.336  2.4066  0.1918 -1.6264
 6914SOL     OW21640   1.750   2.753   2.588 -0.3067 -0.0337 -0.5845
 6914SOL    HW121641   1.729   2.790   2.497 -1.2644  0.1652 -0.2907
 6914SOL    HW221642   1.711   2.661   2.595 -0.5477  0.0913 -0.2542
 6915SOL     OW21643   5.197   4.497   5.027 -0.3586  0.0212  0.3980
 6915SOL    HW121644   5.137   4.436   5.078  1.4380 -0.9146  1.5037
 6915SOL    HW221645   5.220   4.456   4.939 -0.5642 -0.0611  0.3832
 6916SOL     OW21646   5.481   6.671   0.027 -0.2176 -0.4972  0.2023
 6916SOL    HW121647   5.561   6.611   0.017 -0.0168  0.0225 -1.5209
 6916SOL    HW221648   5.399   6.615   0.036 -0.1255 -1.0943 -2.1511
 6917SOL     OW21649   4.267   4.980   2.707  0.2264  0.4072 -0.6693
 6917SOL    HW121650   4.171   4.995   2.685  0.1752  0.6829 -0.2579
 6917SOL    HW221651   4.295   4.889   2.675 -0.5771 -0.2938  0.5564
 6918SOL     OW21652   3.416   2.154   0.019  0.7853  0.1935 -0.1125
 6918SOL    HW121653   3.356   2.220   0.064  1.2679 -0.9671  2.3682
 6918SOL    HW221654   3.383   2.137  -0.074 -1.2190  1.4634  0.3143
 6919SOL     OW21655   4.375   5.561   4.215  0.4735 -0.4783 -0.0597
 6919SOL    HW121656   4.370   5.466   4.184  0.6183 -0.4488 -0.1717
 6919SOL    HW221657   4.296   5.581   4.272  1.2771 -1.1736  1.3693
 6920SOL     OW21658   0.607   2.640   5.487 -0.3959 -0.2604  1.3267
 6920SOL    HW121659   0.519   2.596   5.501 -1.0573  0.5433 -0.0974
 6920SOL    HW221660   0.616   2.717   5.551 -0.1382 -1.1497  2.3778
 6921SOL     OW21661   3.899   6.302   6.523 -0.3106 -0.1352 -0.3304
 6921SOL    HW121662   3.993   6.280   6.497  0.0402  1.6801 -0.7118
 6921SOL    HW221663   3.869   6.240   6.596  1.4860 -0.1595  0.4355
 6922SOL     OW21664   2.073   4.889   5.538  0.6394 -0.1851 -0.2936
 6922SOL    HW121665   2.115   4.968   5.581 -1.2586  1.3064 -1.0411
 6922SOL    HW221666   2.142   4.817   5.525  2.5113  1.4869 -0.0151
 6923SOL     OW21667   4.730   6.385   2.685 -0.2509  0.2382  0.8332
 6923SOL    HW121668   4.795   6.451   2.650 -0.3264  0.6342  1.4276
 6923SOL    HW221669   4.656   6.373   2.619  0.0344  0.3439  0.4885
 6924SOL     OW21670   3.079   6.378   2.277  0.5600  0.6305  0.1722
 6924SOL    HW121671   3.070   6.329   2.191 -0.3404  0.5330  0.3112
 6924SOL    HW221672   2.993   6.373   2.328  0.3534  2.5348  0.0916
 6925SOL     OW21673   6.398   1.786   5.876 -0.3120  0.2455 -0.1777
 6925SOL    HW121674   6.433   1.829   5.792  1.0974 -3.7312 -1.8417
 6925SOL    HW221675   6.473   1.775   5.941 -0.1232 -1.5265 -0.6622
 6926SOL     OW21676   3.141   2.602   0.123 -0.4165  0.3376 -0.6867
 6926SOL    HW121677   3.140   2.644   0.032  0.8824  1.4752 -0.2217
 6926SOL    HW221678   3.174   2.508   0.116  0.6403  0.7355 -1.2997
 6927SOL     OW21679   4.570   0.229   3.701  0.1661  0.2224  0.2073
 6927SOL    HW121680   4.489   0.276   3.737  0.0434 -1.1976  1.9529
 6927SOL    HW221681   4.598   0.157   3.765  2.2778  0.0672 -0.7972
 6928SOL     OW21682   3.821   6.214   0.548 -0.1539 -0.3883 -0.3611
 6928SOL    HW121683   3.775   6.136   0.505  0.4398 -1.1986  0.4242
 6928SOL    HW221684   3.855   6.276   0.478 -0.3939 -0.9852 -1.0124
 6929SOL     OW21685   3.948   6.422   4.264 -1.2320  0.2240  0.1491
 6929SOL    HW121686   3.873   6.462   4.212 -3.2281 -1.3485  1.6872
 6929SOL    HW221687   3.961   6.327   4.235 -0.0718  0.3417  0.2113
 6930SOL     OW21688   6.924   6.318   1.604 -0.1107  0.5174 -0.1387
 6930SOL    HW121689   6.878   6.347   1.688 -0.2096  2.4135 -0.8044
 6930SOL    HW221690   7.016   6.357   1.601 -0.4078  1.1725 -1.2914
 6931SOL     OW21691   3.687   4.250   0.926  0.0453  0.6707 -0.1014
 6931SOL    HW121692   3.641   4.288   1.006  0.3953 -1.0255  0.9574
 6931SOL    HW221693   3.763   4.192   0.956  0.0250 -0.2111 -1.6439
 6932SOL     OW21694   3.374   6.593   6.336  0.2514 -0.5924  0.3157
 6932SOL    HW121695   3.378   6.649   6.253 -1.7427  2.1583  1.9340
 6932SOL    HW221696   3.466   6.562   6.359  1.1432  0.2806 -1.7806
 6933SOL     OW21697   5.386   6.208   0.037 -0.3741  0.3394  0.5955
 6933SOL    HW121698   5.414   6.224  -0.058  1.6459  1.5504  1.3228
 6933SOL    HW221699   5.393   6.111   0.058 -1.0236  0.0333 -0.5309
 6934SOL     OW21700   4.306   5.877   6.922 -0.0444 -0.1885  0.3756
 6934SOL    HW121701   4.334   5.815   6.995  0.6580 -1.6870 -1.0912
 6934SOL    HW221702   4.379   5.943   6.904  0.3387 -0.6659  0.1527
 6935SOL     OW21703   4.063   5.056   2.929 -0.2456  0.2413  0.2195
 6935SOL    HW121704   4.081   5.108   2.846  1.1337 -2.7559 -1.5365
 6935SOL    HW221705   3.989   4.991   2.913 -0.9026  0.5557  1.8121
 6936SOL     OW21706   1.064   6.857   5.670  0.4822  0.0364  0.2905
 6936SOL    HW121707   1.097   6.849   5.764 -1.9498  0.8493  1.3079
 6936SOL    HW221708   1.116   6.927   5.621 -0.6726  2.4410  2.3130
 6937SOL     OW21709   1.118   4.369   0.918  0.3293 -0.2481 -0.0301
 6937SOL    HW121710   1.205   4.364   0.967  0.2320  1.1968  0.3275
 6937SOL    HW221711   1.055   4.301   0.956  1.2910 -1.3356 -0.3223
 6938SOL     OW21712   2.488   0.018   4.966  0.6888 -0.3726  0.4256
 6938SOL    HW121713   2.447   0.031   5.057 -0.5188  0.3540 -0.2009
 6938SOL    HW221714   2.504   0.107   4.924  0.5591 -0.7268 -0.3800
 6939SOL     OW21715   6.807   2.459   1.743 -0.1678  0.8886 -0.4157
 6939SOL    HW121716   6.793   2.539   1.685  2.9947  0.6530 -1.6783
 6939SOL    HW221717   6.829   2.489   1.836 -0.7076  1.4091 -0.4473
 6940SOL     OW21718   6.683   6.846   1.510 -0.3314  0.5292  0.0357
 6940SOL    HW121719   6.628   6.776   1.556 -1.8633  1.2263 -0.6705
 6940SOL    HW221720   6.647   6.937   1.532 -1.2575  0.8800 -2.6430
 6941SOL     OW21721   3.407   3.420   2.693  0.0315  0.1781  0.1745
 6941SOL    HW121722   3.414   3.516   2.666  0.3520  0.0345 -0.2640
 6941SOL    HW221723   3.424   3.361   2.614 -0.5802 -0.2408  0.3471
 6942SOL     OW21724   1.315   5.114   2.214 -0.1147  0.2931  0.0371
 6942SOL    HW121725   1.321   5.047   2.140 -0.9455  0.5497 -0.2719
 6942SOL    HW221726   1.221   5.119   2.247 -0.1254  1.5057 -0.1348
 6943SOL     OW21727   3.592   6.250   6.509  0.1489 -0.2899  0.1814
 6943SOL    HW121728   3.599   6.201   6.596  2.4881  0.1009  0.2681
 6943SOL    HW221729   3.500   6.236   6.470 -0.5224 -1.5005  2.0717
 6944SOL     OW21730   1.000   4.603   4.988 -0.0553 -0.0208  0.2334
 6944SOL    HW121731   0.968   4.560   5.072  1.1398  0.2007  0.8308
 6944SOL    HW221732   1.100   4.601   4.985 -0.0411  0.8432 -0.7155
 6945SOL     OW21733   3.963   2.045   0.702 -0.3500  0.2839  0.0466
 6945SOL    HW121734   3.912   1.988   0.638 -0.8701  1.2107 -0.3717
 6945SOL    HW221735   4.050   2.000   0.725 -1.1495 -1.1237  0.4608
 6946SOL     OW21736   5.073   3.604   5.076 -0.1720  0.2935 -0.1383
 6946SOL    HW121737   4.990   3.648   5.042 -0.2035 -0.1885 -0.6933
 6946SOL    HW221738   5.060   3.505   5.078  0.5247  0.1876 -0.6028
 6947SOL     OW21739   6.172   3.137   4.832  0.1912 -0.0814 -0.1121
 6947SOL    HW121740   6.131   3.203   4.770  1.0717  1.6505  1.0828
 6947SOL    HW221741   6.204   3.058   4.779  1.4302  1.5756 -1.9979
 6948SOL     OW21742   6.669   6.716   5.590  0.0008 -0.6221 -0.6145
 6948SOL    HW121743   6.634   6.804   5.558 -0.1001 -1.2358 -2.2950
 6948SOL    HW221744   6.607   6.643   5.560  0.6895 -1.3599 -0.2569
 6949SOL     OW21745   1.257   3.459   3.849  0.6029  0.2014 -0.0441
 6949SOL    HW121746   1.282   3.533   3.910  2.1362  0.5426 -1.0349
 6949SOL    HW221747   1.250   3.374   3.901 -0.6859  0.9131  1.0107
 6950SOL     OW21748   1.484   1.774   4.259  0.2826  0.1157  0.1213
 6950SOL    HW121749   1.567   1.788   4.204  0.8804  2.1310  1.4213
 6950SOL    HW221750   1.480   1.679   4.288  1.3832 -0.3574 -1.1424
 6951SOL     OW21751   1.346   2.013   0.554  0.0861  0.5331 -0.4168
 6951SOL    HW121752   1.261   2.055   0.523 -1.4235 -2.0825 -0.1520
 6951SOL    HW221753   1.416   2.022   0.483 -0.8353  1.5401 -1.2195
 6952SOL     OW21754   5.132   4.509   3.564 -0.4680 -0.2203  0.1501
 6952SOL    HW121755   5.045   4.461   3.553 -0.2648 -0.6974  0.5624
 6952SOL    HW221756   5.134   4.590   3.505 -0.3831 -1.3133 -1.3839
 6953SOL     OW21757   1.199   0.954   0.569 -0.3315 -0.2653  0.2823
 6953SOL    HW121758   1.107   0.979   0.597 -0.7202 -2.7888  1.5203
 6953SOL    HW221759   1.235   1.024   0.507 -3.5880  0.0965 -1.4036
 6954SOL     OW21760   6.508   5.898   6.835 -0.7405  0.1106  0.0535
 6954SOL    HW121761   6.553   5.853   6.757 -1.3300  0.0339 -0.2477
 6954SOL    HW221762   6.426   5.847   6.859 -1.6164  1.2148 -0.5135
 6955SOL     OW21763   2.916   5.710   3.297 -0.0571  0.7797 -0.0885
 6955SOL    HW121764   2.927   5.636   3.231  1.6558  1.1862 -0.3055
 6955SOL    HW221765   2.950   5.682   3.386 -2.2396  0.2800  0.6615
 6956SOL     OW21766   0.134   3.682   3.516  0.2461 -0.1772  0.6003
 6956SOL    HW121767   0.129   3.610   3.585 -1.1488 -1.1940 -0.5007
 6956SOL    HW221768   0.073   3.659   3.440  0.8602  1.4816 -0.4363
 6957SOL     OW21769   5.226   4.523   5.981 -0.3875 -0.0840 -0.0180
 6957SOL    HW121770   5.157   4.452   5.967 -0.7424  0.0048  1.1852
 6957SOL    HW221771   5.181   4.613   5.981  0.1875  0.2586 -2.5389
 6958SOL     OW21772   4.504   3.909   1.330 -0.8579 -0.3518 -0.7594
 6958SOL    HW121773   4.550   3.908   1.241 -0.7940  1.7657 -0.8165
 6958SOL    HW221774   4.422   3.852   1.327  0.7536 -2.7864 -1.1880
 6959SOL     OW21775   6.416   3.366   3.958 -0.2624  0.1026  0.1314
 6959SOL    HW121776   6.380   3.442   3.902  2.1358  0.3942 -1.1667
 6959SOL    HW221777   6.437   3.400   4.050 -0.4939  0.6461 -0.0087
 6960SOL     OW21778   4.834   5.244   2.642 -0.0546  0.0506  0.3252
 6960SOL    HW121779   4.850   5.317   2.575  2.3123 -0.4121  0.2878
 6960SOL    HW221780   4.892   5.258   2.722  0.0963 -1.5320  0.5259
 6961SOL     OW21781   5.359   2.379   5.161  0.2718  0.1608  0.0595
 6961SOL    HW121782   5.370   2.467   5.208 -0.7842  0.6027 -0.4747
 6961SOL    HW221783   5.319   2.313   5.224 -0.9740  0.6997 -0.1436
 6962SOL     OW21784   3.002   5.772   1.957 -0.2213 -0.5259 -0.4229
 6962SOL    HW121785   2.984   5.849   1.896 -1.4031  0.4294  1.0638
 6962SOL    HW221786   2.983   5.686   1.908  0.9418  0.0811 -2.0385
 6963SOL     OW21787   6.397   0.635   5.034  0.4038  0.4741 -0.1884
 6963SOL    HW121788   6.302   0.648   5.064 -0.2007  0.0624 -1.8099
 6963SOL    HW221789   6.402   0.557   4.972  1.8715  0.3125  0.1092
 6964SOL     OW21790   2.842   1.444   6.172 -0.0108 -0.2020 -0.9722
 6964SOL    HW121791   2.814   1.531   6.211  0.9234 -0.1104 -0.4776
 6964SOL    HW221792   2.761   1.394   6.140 -0.7073  0.1808  0.1301
 6965SOL     OW21793   0.337   0.413   1.038  0.4452  0.5007  0.5347
 6965SOL    HW121794   0.414   0.474   1.019 -0.4533  0.8283 -2.4602
 6965SOL    HW221795   0.252   0.466   1.043 -0.1810 -0.3067 -0.8495
 6966SOL     OW21796   1.046   6.474   1.342  0.1039 -0.2227  0.0315
 6966SOL    HW121797   1.012   6.440   1.429 -0.8097  0.9834  0.1687
 6966SOL    HW221798   1.007   6.419   1.267 -0.8539  0.1057  0.2790
 6967SOL     OW21799   3.421   6.167   0.651 -0.5428  0.4356 -0.2021
 6967SOL    HW121800   3.475   6.246   0.623 -0.2893 -0.0250 -1.0694
 6967SOL    HW221801   3.381   6.124   0.570  0.4002 -1.0837  0.0861
 6968SOL     OW21802   2.471   6.792   2.006  0.1882 -0.1780 -0.4112
 6968SOL    HW121803   2.543   6.777   2.073 -0.0410  0.2203 -0.0794
 6968SOL    HW221804   2.436   6.703   1.976  0.8987 -0.3827 -0.6743
 6969SOL     OW21805   6.930   2.183   1.822 -0.2558  0.3464  0.3202
 6969SOL    HW121806   6.914   2.215   1.729  2.1571 -1.2607 -0.7487
 6969SOL    HW221807   6.844   2.151   1.862 -1.1993  0.3213 -1.6392
 6970SOL     OW21808   1.810   0.069   5.888  0.4320 -0.4055  0.5314
 6970SOL    HW121809   1.828   0.155   5.936 -0.0021 -0.6426  1.1391
 6970SOL    HW221810   1.884   0.004   5.908  1.4352  0.2268 -0.9614
 6971SOL     OW21811   0.618   5.300   0.036  0.3669  0.7869 -0.0920
 6971SOL    HW121812   0.694   5.325  -0.024  0.8574  1.6895  0.8691
 6971SOL    HW221813   0.632   5.208   0.072 -0.4634 -0.1915 -2.1482
 6972SOL     OW21814   6.096   4.265   1.624  0.3938  0.4341 -0.8127
 6972SOL    HW121815   6.103   4.252   1.525 -0.0438 -0.6291 -0.7174
 6972SOL    HW221816   6.137   4.187   1.671  0.3568  0.8023 -0.1548
 6973SOL     OW21817   1.060   6.201   3.629  0.2689  0.6181  0.0828
 6973SOL    HW121818   1.076   6.241   3.538  2.4046  0.5884  0.3758
 6973SOL    HW221819   1.030   6.106   3.619 -0.1474  0.8092 -0.5885
 6974SOL     OW21820   3.375   2.923   3.982  0.2986  0.0449 -0.3848
 6974SOL    HW121821   3.388   2.945   3.886  0.1044 -1.5992 -0.8197
 6974SOL    HW221822   3.282   2.949   4.009  0.8867  2.0813 -0.1332
 6975SOL     OW21823   2.044   6.923   5.196  0.5762  0.5878  0.3577
 6975SOL    HW121824   2.012   6.979   5.273 -1.4534  1.7736 -1.2701
 6975SOL    HW221825   2.071   6.982   5.120  2.3184 -0.5751  0.0076
 6976SOL     OW21826   6.191   5.014   5.421 -0.3805 -0.3031 -0.8002
 6976SOL    HW121827   6.255   4.945   5.389 -2.8887 -2.1381 -2.2544
 6976SOL    HW221828   6.210   5.101   5.375  0.9666 -0.8100 -1.2479
 6977SOL     OW21829   4.401   6.961   5.375  0.2596  0.4768  0.2356
 6977SOL    HW121830   4.472   6.970   5.445 -0.1244  0.7899  0.5884
 6977SOL    HW221831   4.333   7.033   5.387 -0.0498  0.2605 -0.1859
 6978SOL     OW21832   0.499   3.975   0.432 -0.0021  0.2375 -0.2873
 6978SOL    HW121833   0.536   4.027   0.355  3.2162 -2.7177 -0.9789
 6978SOL    HW221834   0.476   3.883   0.402 -1.0618 -0.2511  1.8340
 6979SOL     OW21835   0.547   3.216   3.032  0.1472  0.0462  0.4439
 6979SOL    HW121836   0.563   3.122   3.001 -1.0516  0.8238 -2.8604
 6979SOL    HW221837   0.449   3.233   3.037  0.3526  1.3325  0.3261
 6980SOL     OW21838   4.148   5.784   4.835 -0.0094 -0.3169  0.1109
 6980SOL    HW121839   4.231   5.778   4.890 -1.4484 -0.1857  2.5069
 6980SOL    HW221840   4.133   5.879   4.807 -0.1710 -0.0080  1.1677
 6981SOL     OW21841   4.587   4.643   6.270  0.6995  0.3145  0.7689
 6981SOL    HW121842   4.634   4.579   6.330  1.0958 -0.4721 -0.3539
 6981SOL    HW221843   4.489   4.642   6.289  0.6242 -1.0733  0.3729
 6982SOL     OW21844   6.538   1.088   2.121  0.2093 -0.5539 -0.7839
 6982SOL    HW121845   6.456   1.058   2.171 -0.5154  1.4899 -0.6346
 6982SOL    HW221846   6.511   1.123   2.032  0.7454  1.0843 -0.3395
 6983SOL     OW21847   6.009   0.330   4.787 -0.5582  0.0943 -0.0216
 6983SOL    HW121848   5.969   0.419   4.765  0.1668  0.4099 -0.0959
 6983SOL    HW221849   5.950   0.282   4.851 -1.7312 -0.0236 -1.1506
 6984SOL     OW21850   1.916   4.110   2.580  0.1858  0.1913 -0.2409
 6984SOL    HW121851   1.894   4.020   2.543 -0.2732  0.5782 -0.9326
 6984SOL    HW221852   1.857   4.179   2.538  0.8907  0.8926 -0.1158
 6985SOL     OW21853   5.733   6.117   0.856  0.3064 -0.5287 -0.0601
 6985SOL    HW121854   5.634   6.125   0.843 -0.0883 -1.4550  1.9436
 6985SOL    HW221855   5.773   6.208   0.866  0.0486  0.0020 -2.8765
 6986SOL     OW21856   1.990   5.402   5.336  0.2879 -0.1072 -0.5314
 6986SOL    HW121857   2.010   5.459   5.257  0.6313 -0.9604 -1.0760
 6986SOL    HW221858   2.058   5.420   5.407 -0.5886  1.3717 -0.0191
 6987SOL     OW21859   0.345   1.566   5.076  0.2152  0.8098  0.8007
 6987SOL    HW121860   0.272   1.528   5.019 -1.3019  0.1147  3.0539
 6987SOL    HW221861   0.357   1.663   5.054  0.3090  0.3957 -1.2253
 6988SOL     OW21862   1.928   1.097   0.635  0.0686  0.4042 -0.3692
 6988SOL    HW121863   1.833   1.127   0.643  0.9220  2.8537  2.2318
 6988SOL    HW221864   1.961   1.068   0.725  1.7154 -0.7047 -1.2906
 6989SOL     OW21865   1.522   2.922   1.209  0.2140 -0.2551 -0.5408
 6989SOL    HW121866   1.437   2.889   1.250 -0.3690 -0.2678 -1.7297
 6989SOL    HW221867   1.503   3.003   1.153  1.4230  1.4277  1.3505
 6990SOL     OW21868   4.842   4.242   5.497  0.2400  0.2881  0.2754
 6990SOL    HW121869   4.821   4.181   5.573 -0.3105 -0.9096 -0.8011
 6990SOL    HW221870   4.859   4.188   5.414 -0.1277  1.5868 -0.6862
 6991SOL     OW21871   5.861   4.465   1.293 -0.6644 -0.0582  0.1415
 6991SOL    HW121872   5.841   4.375   1.331 -1.6698  0.1051  0.0325
 6991SOL    HW221873   5.952   4.464   1.252 -1.0864 -1.3644 -0.8421
 6992SOL     OW21874   0.420   3.806   4.388  0.3152 -0.0752 -0.3176
 6992SOL    HW121875   0.503   3.755   4.411 -0.3448 -0.0422  2.4181
 6992SOL    HW221876   0.361   3.748   4.331  1.8272 -0.3599 -1.7023
 6993SOL     OW21877   4.419   1.773   3.065  0.4680 -0.2012  0.3145
 6993SOL    HW121878   4.444   1.702   3.131  0.6806 -0.4803 -0.0607
 6993SOL    HW221879   4.331   1.812   3.090 -1.5116 -3.1393 -1.4583
 6994SOL     OW21880   1.287   2.703   3.214  0.4968  0.7234  0.3874
 6994SOL    HW121881   1.288   2.604   3.197 -0.3999  0.9119 -0.9365
 6994SOL    HW221882   1.276   2.752   3.127  0.2537  1.9607  1.0882
 6995SOL     OW21883   0.161   6.443   1.604  0.8761 -0.0539 -0.7951
 6995SOL    HW121884   0.147   6.542   1.601  1.2368  0.0487  0.2111
 6995SOL    HW221885   0.211   6.414   1.523  0.0576  0.4560 -1.5039
 6996SOL     OW21886   1.594   6.664   6.897  0.3296 -1.0064  0.3613
 6996SOL    HW121887   1.601   6.573   6.857  0.4742 -0.6851 -0.3584
 6996SOL    HW221888   1.500   6.682   6.924  0.3250 -1.4169  0.6169
 6997SOL     OW21889   6.186   5.951   6.497  0.1741 -0.3906  0.0652
 6997SOL    HW121890   6.117   6.007   6.451  0.3569 -0.2983 -0.0998
 6997SOL    HW221891   6.277   5.979   6.467  0.2634 -0.8449 -0.0904
 6998SOL     OW21892   0.335   2.143   4.773 -0.0064  0.4875  0.1683
 6998SOL    HW121893   0.300   2.136   4.679  0.8936  0.0750 -0.1512
 6998SOL    HW221894   0.262   2.174   4.834 -0.5534  0.9379 -0.6999
 6999SOL     OW21895   0.209   2.360   0.349 -0.0518  0.1561  0.5440
 6999SOL    HW121896   0.241   2.272   0.312 -1.5486 -0.1830 -0.0056
 6999SOL    HW221897   0.226   2.362   0.448  1.5231 -0.0386  0.3131
 7000SOL     OW21898   6.593   5.095   2.754 -0.2880 -1.0684  0.0915
 7000SOL    HW121899   6.547   5.007   2.741  0.5581 -1.7696  1.6284
 7000SOL    HW221900   6.616   5.107   2.850 -0.1511  0.7355 -0.1386
 7001SOL     OW21901   1.091   1.129   3.432  0.6572  0.1003 -0.5002
 7001SOL    HW121902   1.000   1.105   3.398  0.0244 -0.7295  1.5911
 7001SOL    HW221903   1.098   1.229   3.438  0.7039  0.2667 -2.6503
 7002SOL     OW21904   2.817   4.812   1.761  0.0571 -0.0502  0.5189
 7002SOL    HW121905   2.821   4.717   1.729 -0.7190 -0.3345  1.2335
 7002SOL    HW221906   2.874   4.822   1.842  2.5147  0.8120 -1.1872
 7003SOL     OW21907   6.864   4.377   0.273 -0.5991 -0.6265 -0.0505
 7003SOL    HW121908   6.889   4.466   0.236  1.3862 -0.2349  1.9654
 7003SOL    HW221909   6.940   4.313   0.258 -1.6826 -1.7655 -0.7890
 7004SOL     OW21910   1.492   0.541   0.156  0.0386 -0.2880  0.2839
 7004SOL    HW121911   1.549   0.464   0.186  2.0883  1.0818  0.1131
 7004SOL    HW221912   1.493   0.613   0.225 -1.2610 -0.0909  0.1272
 7005SOL     OW21913   0.981   4.939   6.807  0.0467  0.0671 -0.4836
 7005SOL    HW121914   1.009   4.865   6.869  0.6253 -0.4499 -1.3457
 7005SOL    HW221915   1.018   4.922   6.716 -0.0993  1.2554 -0.7779
 7006SOL     OW21916   1.162   6.490   5.290  0.1406 -0.0477  0.0766
 7006SOL    HW121917   1.221   6.567   5.268  0.1370  0.4579  1.7480
 7006SOL    HW221918   1.154   6.480   5.389 -0.4040 -1.7843 -0.1029
 7007SOL     OW21919   1.851   6.185   6.611  0.5640 -0.1767 -0.8826
 7007SOL    HW121920   1.910   6.239   6.551  1.9666 -1.0657 -0.3633
 7007SOL    HW221921   1.868   6.210   6.706 -0.9336  0.5349 -0.7805
 7008SOL     OW21922   5.404   3.373   3.928 -0.4051 -0.3908  0.1748
 7008SOL    HW121923   5.480   3.308   3.922 -1.5567 -1.8542  0.6891
 7008SOL    HW221924   5.434   3.455   3.976  0.7631 -1.0722  0.6524
 7009SOL     OW21925   5.205   5.673   1.312 -0.0533 -0.4619 -0.1327
 7009SOL    HW121926   5.177   5.628   1.227  0.8716 -1.8439  0.2596
 7009SOL    HW221927   5.305   5.674   1.318 -0.0883  0.5124  0.4811
 7010SOL     OW21928   4.845   1.898   1.805 -0.2927  0.3895 -0.0679
 7010SOL    HW121929   4.814   1.991   1.821  0.4400  0.7498 -0.6708
 7010SOL    HW221930   4.886   1.862   1.889  0.1723  0.9152 -0.0670
 7011SOL     OW21931   1.035   5.153   2.917 -0.1121 -0.0972  0.5730
 7011SOL    HW121932   1.031   5.242   2.963  2.0043 -0.5009  1.6643
 7011SOL    HW221933   1.049   5.081   2.985 -0.3029 -1.1069 -0.4261
 7012SOL     OW21934   6.557   4.391   1.014 -0.3233 -0.3461  0.4186
 7012SOL    HW121935   6.482   4.413   0.951  2.1847  1.2252 -2.3095
 7012SOL    HW221936   6.633   4.350   0.962  0.9832 -1.3304  2.9326
 7013SOL     OW21937   3.118   1.075   0.213 -0.1814 -0.8328  0.5762
 7013SOL    HW121938   3.199   1.132   0.227 -0.3341 -0.6393  0.6720
 7013SOL    HW221939   3.075   1.099   0.125  0.9056 -2.1988 -0.3767
 7014SOL     OW21940   5.505   3.937   0.646 -0.5729 -0.0947  0.3307
 7014SOL    HW121941   5.461   3.877   0.579 -0.9779  0.7914 -0.2185
 7014SOL    HW221942   5.563   3.883   0.706  1.6640 -0.7053 -2.1601
 7015SOL     OW21943   6.276   6.656   4.551 -0.1959  0.8452 -0.3089
 7015SOL    HW121944   6.373   6.679   4.554 -0.5522  2.5308 -0.7244
 7015SOL    HW221945   6.222   6.733   4.586 -1.3339 -0.7010  1.5662
 7016SOL     OW21946   3.888   6.385   1.026  0.1630  0.3133 -0.1009
 7016SOL    HW121947   3.836   6.309   1.065  1.0480 -0.6560 -0.7533
 7016SOL    HW221948   3.862   6.397   0.930 -1.4428  2.1812  0.5149
 7017SOL     OW21949   0.215   3.348   5.207  0.3983  0.1938  0.2453
 7017SOL    HW121950   0.293   3.362   5.146 -1.5445 -0.9712 -2.7160
 7017SOL    HW221951   0.132   3.384   5.164 -1.1267 -0.9130  2.1023
 7018SOL     OW21952   6.364   1.397   3.167 -0.4875  0.2773 -0.0903
 7018SOL    HW121953   6.414   1.380   3.082 -0.1560 -0.3029  0.2149
 7018SOL    HW221954   6.265   1.397   3.147 -0.4201 -0.0354 -0.4427
 7019SOL     OW21955   2.909   6.853   2.864 -0.1948 -0.6941  0.1303
 7019SOL    HW121956   2.968   6.918   2.817 -0.8241 -1.3090 -1.6202
 7019SOL    HW221957   2.901   6.770   2.808 -3.1741 -0.4019 -0.0602
 7020SOL     OW21958   5.971   6.919   2.457  0.1256  0.0944 -0.5956
 7020SOL    HW121959   5.939   6.837   2.411  0.9217  0.0017 -0.9992
 7020SOL    HW221960   5.899   6.988   2.456  0.0848  0.0563 -1.8863
 7021SOL     OW21961   2.079   0.768   4.981 -0.4714 -0.0686 -0.3245
 7021SOL    HW121962   2.167   0.786   4.937 -0.3016 -0.0484  0.0173
 7021SOL    HW221963   2.088   0.783   5.080 -0.7006 -0.6480 -0.2114
 7022SOL     OW21964   1.718   3.415   0.684  0.3869  0.6164 -0.4756
 7022SOL    HW121965   1.719   3.490   0.618  0.0854  0.5424 -0.5633
 7022SOL    HW221966   1.811   3.379   0.694  0.7616  1.7497  0.4118
 7023SOL     OW21967   5.602   1.265   2.281 -0.1640 -0.0661  0.3476
 7023SOL    HW121968   5.628   1.195   2.214  1.8150  1.2424 -0.3467
 7023SOL    HW221969   5.585   1.352   2.234  1.7587  1.0181  1.5026
 7024SOL     OW21970   2.253   5.191   3.527  0.7138 -0.4828  0.8972
 7024SOL    HW121971   2.304   5.265   3.571  1.4168 -1.5992  2.0456
 7024SOL    HW221972   2.296   5.168   3.440  0.8905  0.0033  0.8528
 7025SOL     OW21973   3.049   1.535   1.864 -0.4083  0.1406 -0.1397
 7025SOL    HW121974   2.965   1.587   1.877 -0.2396  0.4453 -0.2744
 7025SOL    HW221975   3.117   1.591   1.817  0.4683  0.4628  1.4541
 7026SOL     OW21976   3.726   2.950   1.412  0.0379  0.0359 -0.7658
 7026SOL    HW121977   3.816   2.964   1.373 -0.7745  1.3445 -2.2643
 7026SOL    HW221978   3.694   2.858   1.389  0.2234  0.2352 -1.8872
 7027SOL     OW21979   3.336   3.566   0.001  0.3521 -0.0932 -0.3784
 7027SOL    HW121980   3.321   3.647  -0.056  1.7277  0.3221 -0.1828
 7027SOL    HW221981   3.319   3.484  -0.054 -1.6983  0.2860 -0.3957
 7028SOL     OW21982   3.505   0.025   2.875  0.4193 -0.2833  0.1288
 7028SOL    HW121983   3.475  -0.007   2.965  1.7488 -1.2751  0.2545
 7028SOL    HW221984   3.561   0.107   2.886  1.7426 -1.1910  0.3684
 7029SOL     OW21985   3.652   3.439   3.484  0.3778  0.0819  0.3080
 7029SOL    HW121986   3.713   3.449   3.405  1.8981  1.2639  1.5520
 7029SOL    HW221987   3.584   3.512   3.482  0.5534  0.2458  0.1999
 7030SOL     OW21988   5.847   0.284   3.676  1.1481 -0.2959  0.0756
 7030SOL    HW121989   5.867   0.258   3.771 -1.6793 -1.2229  0.5134
 7030SOL    HW221990   5.882   0.214   3.614  3.7719  0.7199  0.2629
 7031SOL     OW21991   6.711   4.926   6.442  0.5437  0.3914 -0.0315
 7031SOL    HW121992   6.748   4.839   6.410  0.3581  0.6859 -1.0791
 7031SOL    HW221993   6.781   4.997   6.434  0.9145  0.2163  1.4571
 7032SOL     OW21994   3.019   6.094   4.421  0.7609 -0.6383 -0.7129
 7032SOL    HW121995   3.106   6.058   4.387  0.0525 -2.9585 -0.2670
 7032SOL    HW221996   3.015   6.085   4.521  0.4740  0.5956 -0.5928
 7033SOL     OW21997   2.583   1.265   4.334 -0.0373 -0.1068  0.3870
 7033SOL    HW121998   2.561   1.277   4.237  1.1861 -1.3653 -0.0749
 7033SOL    HW221999   2.679   1.240   4.344 -0.2874 -0.5732  1.8903
 7034SOL     OW22000   5.877   3.980   1.570  0.5978  0.5977  0.0858
 7034SOL    HW122001   5.917   3.950   1.657  1.8789 -0.5519 -0.8698
 7034SOL    HW222002   5.778   3.972   1.575  0.6543  0.4969  1.4184
 7035SOL     OW22003   2.182   1.871   0.925 -0.5176 -0.2774 -0.3570
 7035SOL    HW122004   2.172   1.869   0.826  0.2350 -2.0426 -0.4479
 7035SOL    HW222005   2.131   1.948   0.963  0.5579  1.4622 -2.2356
 7036SOL     OW22006   6.767   4.214   1.403 -0.2967  0.0008  0.2720
 7036SOL    HW122007   6.729   4.159   1.329 -0.3183  1.7515 -1.0743
 7036SOL    HW222008   6.828   4.284   1.366  0.1871  0.5505  1.9715
 7037SOL     OW22009   6.408   3.766   4.883 -0.4547  0.2914  0.2063
 7037SOL    HW122010   6.475   3.743   4.813 -2.0708  0.7881 -1.5830
 7037SOL    HW222011   6.448   3.832   4.947  1.1049 -0.2958 -0.1176
 7038SOL     OW22012   2.179   3.050   6.942  0.1802 -0.1809 -0.7476
 7038SOL    HW122013   2.085   3.080   6.926  0.1973  1.0273  1.0934
 7038SOL    HW222014   2.240   3.129   6.942  0.8933 -0.7087  0.0646
 7039SOL     OW22015   5.704   1.762   2.901 -0.2643 -0.1862  0.2710
 7039SOL    HW122016   5.634   1.796   2.839 -1.7686 -2.1237  0.8015
 7039SOL    HW222017   5.663   1.698   2.966  1.9457 -1.1670  0.8057
 7040SOL     OW22018   4.932   3.546   3.383  0.1445 -0.4375 -0.3177
 7040SOL    HW122019   4.876   3.623   3.353 -0.3307 -1.6361 -2.7864
 7040SOL    HW222020   5.025   3.557   3.349  0.0716 -0.9686 -0.6874
 7041SOL     OW22021   2.717   0.755   1.770  0.0540  0.0299 -0.5935
 7041SOL    HW122022   2.725   0.826   1.840 -1.2446 -0.0082 -0.3780
 7041SOL    HW222023   2.712   0.666   1.814  2.2249 -0.2905 -0.8841
 7042SOL     OW22024   4.870   4.539   5.453  0.9218 -0.1025 -0.7840
 7042SOL    HW122025   4.860   4.442   5.431 -0.5770  0.0291 -0.8396
 7042SOL    HW222026   4.945   4.578   5.400  0.2168 -0.7845 -2.3480
 7043SOL     OW22027   2.287   6.309   2.957 -0.5793  0.2494  0.4590
 7043SOL    HW122028   2.374   6.262   2.945 -1.5873 -2.1404  1.9133
 7043SOL    HW222029   2.289   6.395   2.906  1.6419 -0.9653 -1.7271
 7044SOL     OW22030   5.032   5.807   6.109 -0.2341 -0.3445 -0.0473
 7044SOL    HW122031   5.001   5.890   6.062 -0.4611 -0.3820  0.0319
 7044SOL    HW222032   5.128   5.791   6.089 -0.2047 -0.0944 -0.1125
 7045SOL     OW22033   3.606   6.578   1.988 -0.3812 -0.7385 -0.3319
 7045SOL    HW122034   3.645   6.512   2.052 -1.1065 -0.7846  0.0780
 7045SOL    HW222035   3.639   6.670   2.009 -0.6619 -0.7445  0.1507
 7046SOL     OW22036   2.431   1.951   3.185 -0.1446 -0.4586  0.5134
 7046SOL    HW122037   2.473   1.865   3.156  2.6875  0.4327  1.6821
 7046SOL    HW222038   2.483   1.990   3.261 -1.1424  2.4714 -0.1732
 7047SOL     OW22039   1.130   5.437   1.720 -0.7321 -0.1969  0.3373
 7047SOL    HW122040   1.151   5.400   1.810  1.0270 -0.4158 -0.1306
 7047SOL    HW222041   1.141   5.366   1.651  0.3961  0.5821 -0.3142
 7048SOL     OW22042   5.647   5.788   3.902  0.6901 -0.0948 -0.7552
 7048SOL    HW122043   5.587   5.714   3.934  0.2560 -0.2934 -2.0006
 7048SOL    HW222044   5.664   5.851   3.978 -2.1782  0.7206 -0.6729
 7049SOL     OW22045   0.190   0.495   3.711  0.2345  0.6147  0.3284
 7049SOL    HW122046   0.150   0.519   3.799 -1.2725 -1.1116  0.1755
 7049SOL    HW222047   0.117   0.468   3.648  1.4092  0.4292 -0.9970
 7050SOL     OW22048   4.387   6.042   1.375 -0.0676 -0.0214  0.3220
 7050SOL    HW122049   4.459   5.984   1.336  1.5944  1.0898  1.5768
 7050SOL    HW222050   4.351   6.000   1.458  2.4388  1.4213  2.2900
 7051SOL     OW22051   3.958   6.638   2.224  0.4720  0.0788  0.1898
 7051SOL    HW122052   3.979   6.544   2.198 -0.8592 -0.0570 -0.4769
 7051SOL    HW222053   4.008   6.701   2.165  1.5852 -0.1880  0.8181
 7052SOL     OW22054   5.019   3.712   1.844 -0.1548 -0.5006 -0.5140
 7052SOL    HW122055   4.933   3.704   1.795  0.0799 -1.3606 -0.7940
 7052SOL    HW222056   5.065   3.797   1.817 -0.1674 -0.8159 -1.5753
 7053SOL     OW22057   0.849   5.758   3.835 -0.6447  0.3352 -0.5418
 7053SOL    HW122058   0.813   5.691   3.770 -0.1786  0.3928 -0.8640
 7053SOL    HW222059   0.853   5.718   3.926  0.6771 -0.4586 -0.9267
 7054SOL     OW22060   5.883   1.873   0.619  0.0914  0.2902 -0.4258
 7054SOL    HW122061   5.800   1.818   0.613 -0.4953  1.1178 -0.0148
 7054SOL    HW222062   5.888   1.917   0.708  0.1981  1.4602 -1.0011
 7055SOL     OW22063   2.310   0.822   1.296 -0.3254 -0.2980  0.4059
 7055SOL    HW122064   2.310   0.922   1.301  0.1681 -0.2733 -0.0536
 7055SOL    HW222065   2.359   0.785   1.375 -2.2627 -0.2539  1.6942
 7056SOL     OW22066   0.547   5.473   2.049 -0.3089 -0.0856  0.1345
 7056SOL    HW122067   0.455   5.500   2.079 -0.0983 -0.2407  0.9342
 7056SOL    HW222068   0.542   5.385   2.001 -0.7424  0.4848 -0.9035
 7057SOL     OW22069   3.229   6.734   4.823  0.1973  0.3012  0.2490
 7057SOL    HW122070   3.233   6.754   4.921  0.6454  0.9610  0.1012
 7057SOL    HW222071   3.138   6.755   4.789  0.3415  1.0606  0.3194
 7058SOL     OW22072   0.557   2.064   4.572  0.4708 -0.0062 -0.5279
 7058SOL    HW122073   0.482   2.068   4.506 -0.3680 -0.0454  0.4016
 7058SOL    HW222074   0.559   2.148   4.626  0.7096 -0.2633 -0.1270
 7059SOL     OW22075   1.892   6.302   5.660 -0.3464  0.0071  0.3278
 7059SOL    HW122076   1.899   6.402   5.649  0.5130 -0.2269 -1.6173
 7059SOL    HW222077   1.979   6.267   5.695  1.2223 -0.5232 -3.6217
 7060SOL     OW22078   1.599   2.268   3.118 -0.1558 -0.2103  0.1537
 7060SOL    HW122079   1.655   2.311   3.188  0.3531  1.0883 -0.9973
 7060SOL    HW222080   1.650   2.195   3.074  0.8695  1.2447 -1.1817
 7061SOL     OW22081   1.811   6.228   3.023  0.5266  0.2755  0.1138
 7061SOL    HW122082   1.735   6.188   2.972  0.8268  0.9976 -0.9275
 7061SOL    HW222083   1.777   6.268   3.109  0.0039 -0.8675  0.4525
 7062SOL     OW22084   4.528   0.777   6.538  0.6330  0.1959  0.0456
 7062SOL    HW122085   4.473   0.773   6.454  1.7861  0.6359 -0.7745
 7062SOL    HW222086   4.470   0.765   6.618 -0.4392 -0.6819 -0.8417
 7063SOL     OW22087   1.160   0.272   2.191  0.1877  0.4338  0.6124
 7063SOL    HW122088   1.237   0.208   2.194  1.4466  1.9249  2.0484
 7063SOL    HW222089   1.098   0.246   2.117  1.7813 -1.1415 -0.2488
 7064SOL     OW22090   0.656   2.444   5.766  0.0237 -0.4141 -0.4307
 7064SOL    HW122091   0.663   2.406   5.859  0.2957 -1.4624 -0.8700
 7064SOL    HW222092   0.735   2.503   5.749 -0.4853  0.5365  0.3119
 7065SOL     OW22093   3.433   1.818   2.610  0.3783  0.8664  0.7923
 7065SOL    HW122094   3.458   1.911   2.587 -0.2972  1.3676  1.9775
 7065SOL    HW222095   3.414   1.811   2.708  0.1423 -0.4487  0.6834
 7066SOL     OW22096   4.177   0.192   1.947  0.7412  0.1814  0.9022
 7066SOL    HW122097   4.197   0.111   2.003 -0.3867 -0.3464  0.5655
 7066SOL    HW222098   4.134   0.262   2.005  0.5776  0.0623  0.9236
 7067SOL     OW22099   2.030   4.071   4.954  0.8002  1.0931  0.0460
 7067SOL    HW122100   2.129   4.069   4.972  0.7212 -1.5129  0.6388
 7067SOL    HW222101   1.983   4.012   5.020 -0.5795 -1.4603 -2.9526
 7068SOL     OW22102   5.938   5.031   3.023  0.1126  0.2162 -0.6059
 7068SOL    HW122103   5.978   5.038   3.114 -0.4646 -3.0427  0.0097
 7068SOL    HW222104   5.842   5.057   3.027  0.2326  0.6287 -0.4033
 7069SOL     OW22105   2.228   1.719   0.313 -0.1087 -0.4611 -0.3766
 7069SOL    HW122106   2.218   1.644   0.247 -0.7040 -2.0121  1.3541
 7069SOL    HW222107   2.168   1.701   0.392  1.8209  0.3713  1.3793
 7070SOL     OW22108   0.904   3.734   4.450 -0.1090 -0.9212 -0.3775
 7070SOL    HW122109   0.816   3.687   4.455  0.4271 -1.9287 -0.1762
 7070SOL    HW222110   0.954   3.720   4.536  0.1820 -0.2290 -0.4324
 7071SOL     OW22111   5.149   5.331   1.220  0.1203  0.1852  0.2897
 7071SOL    HW122112   5.088   5.357   1.145 -0.5450 -2.9066 -0.3807
 7071SOL    HW222113   5.097   5.281   1.290  1.4951 -0.6722  0.7375
 7072SOL     OW22114   1.334   3.508   6.491  0.1763  0.0182 -0.2669
 7072SOL    HW122115   1.378   3.591   6.458  1.7509 -0.1128  1.3718
 7072SOL    HW222116   1.367   3.429   6.438 -0.8072  0.3219 -1.3698
 7073SOL     OW22117   2.679   6.741   4.077 -0.2930 -0.2199 -0.0260
 7073SOL    HW122118   2.653   6.804   4.004  0.6094  0.4193  0.1943
 7073SOL    HW222119   2.712   6.655   4.037  1.2103  0.5180 -0.4099
 7074SOL     OW22120   5.039   4.046   1.545 -0.6882  0.0647  0.9600
 7074SOL    HW122121   5.069   4.126   1.492  3.8422 -2.3565 -0.7363
 7074SOL    HW222122   4.989   3.983   1.484  1.0258 -0.9456  0.5332
 7075SOL     OW22123   2.117   4.895   6.299 -0.2164  0.4127 -0.1582
 7075SOL    HW122124   2.046   4.858   6.359 -1.2110  0.9534 -0.9776
 7075SOL    HW222125   2.199   4.913   6.353 -0.7394 -0.0938  0.8402
 7076SOL     OW22126   6.366   2.948   1.345  0.0877 -1.0322 -0.0760
 7076SOL    HW122127   6.443   2.960   1.282 -0.5718 -2.4504 -1.2270
 7076SOL    HW222128   6.306   3.028   1.338 -0.2918 -1.4085 -1.7805
 7077SOL     OW22129   3.320   4.890   2.050  0.4120 -0.0036 -1.0524
 7077SOL    HW122130   3.338   4.879   1.952  2.1372  0.2669 -0.7975
 7077SOL    HW222131   3.396   4.851   2.102 -0.3483  0.1149  0.1857
 7078SOL     OW22132   5.734   2.211   7.019  0.3450 -0.1302 -0.4193
 7078SOL    HW122133   5.796   2.275   6.973 -0.6093  0.4291 -0.9542
 7078SOL    HW222134   5.647   2.255   7.036 -0.1966 -1.1615 -0.4186
 7079SOL     OW22135   4.435   4.586   5.984 -0.3739 -0.9552  0.4819
 7079SOL    HW122136   4.490   4.519   5.934 -1.0974 -0.0846 -1.6009
 7079SOL    HW222137   4.481   4.675   5.984  0.4169 -1.3059  2.9228
 7080SOL     OW22138   1.161   0.726   2.601  0.1329 -0.2885  0.5293
 7080SOL    HW122139   1.188   0.659   2.532 -0.6165  1.4572 -1.5865
 7080SOL    HW222140   1.241   0.780   2.629  0.3639 -0.7392  0.7519
 7081SOL     OW22141   4.235   5.752   6.672 -0.0240  0.5539 -0.2382
 7081SOL    HW122142   4.150   5.700   6.664  1.3041 -1.5995 -1.2319
 7081SOL    HW222143   4.228   5.816   6.749 -2.1403 -0.2970  0.3361
 7082SOL     OW22144   1.986   4.265   1.884  0.5747 -0.3410 -0.0107
 7082SOL    HW122145   1.989   4.166   1.879 -0.2291 -0.3287 -0.8545
 7082SOL    HW222146   2.019   4.295   1.974  2.9145 -1.2385 -0.4953
 7083SOL     OW22147   6.804   3.442   2.107  0.4212  0.5203 -0.2548
 7083SOL    HW122148   6.754   3.469   2.189  0.9217  1.2760 -0.1933
 7083SOL    HW222149   6.818   3.522   2.048 -0.3089 -0.0821 -1.2910
 7084SOL     OW22150   1.332   5.400   0.171  0.1002 -0.0122  0.2974
 7084SOL    HW122151   1.304   5.309   0.200  0.4662 -0.2794 -0.1623
 7084SOL    HW222152   1.310   5.467   0.242 -1.9870 -0.1539 -0.1765
 7085SOL     OW22153   6.008   3.887   0.357 -0.0075  0.2297 -0.3455
 7085SOL    HW122154   5.921   3.920   0.394  0.6031  2.6909 -0.9231
 7085SOL    HW222155   6.012   3.910   0.260  1.8071  1.3668 -0.0362
 7086SOL     OW22156   2.460   1.736   5.718 -0.1584 -0.0162 -0.1946
 7086SOL    HW122157   2.471   1.834   5.701 -0.1692  0.0586  0.2324
 7086SOL    HW222158   2.458   1.688   5.630  0.2214  0.3226 -0.3936
 7087SOL     OW22159   5.717   1.431   4.443 -0.0730  0.1028  0.3760
 7087SOL    HW122160   5.639   1.438   4.382 -0.1648  2.8856  0.6751
 7087SOL    HW222161   5.699   1.485   4.526  2.6002  1.9925 -0.1354
 7088SOL     OW22162   5.654   2.325   5.053  0.2308 -0.5763 -0.3394
 7088SOL    HW122163   5.578   2.313   5.117 -1.8063  1.8994 -2.0573
 7088SOL    HW222164   5.686   2.236   5.022 -1.6431 -1.7356  0.8334
 7089SOL     OW22165   4.009   6.243   3.176  0.0031 -0.1668  0.0693
 7089SOL    HW122166   4.032   6.310   3.106 -0.9095  1.4909  1.2692
 7089SOL    HW222167   3.971   6.290   3.256 -0.8135 -2.1472  0.9198
 7090SOL     OW22168   5.120   3.105   1.630  0.5146  0.0530  0.2579
 7090SOL    HW122169   5.046   3.078   1.691 -0.3770  1.9469  0.0706
 7090SOL    HW222170   5.202   3.125   1.683  0.9857 -2.1431  0.4597
 7091SOL     OW22171   6.220   0.296   6.220  0.7160  0.0436  0.1633
 7091SOL    HW122172   6.164   0.356   6.277  0.8582 -0.3233  0.6953
 7091SOL    HW222173   6.166   0.265   6.142  0.0542 -0.5888  0.8599
 7092SOL     OW22174   5.592   1.037   6.047  0.0751 -0.6294  0.1354
 7092SOL    HW122175   5.568   1.119   5.994 -0.1106 -1.5591 -1.2769
 7092SOL    HW222176   5.678   1.053   6.096  0.1384  0.3432 -0.2712
 7093SOL     OW22177   3.953   2.536   6.960  0.1803 -0.1704 -0.2347
 7093SOL    HW122178   3.943   2.544   7.059 -1.3766 -2.1173 -0.1710
 7093SOL    HW222179   3.980   2.625   6.922 -3.4613  1.9120  1.4635
 7094SOL     OW22180   5.109   2.305   4.459  0.0080 -0.1657  0.1599
 7094SOL    HW122181   5.062   2.274   4.541 -1.1013  1.1502  0.0627
 7094SOL    HW222182   5.155   2.228   4.415 -0.6004 -1.1580  1.2208
 7095SOL     OW22183   1.367   4.884   2.767 -0.2763  0.7391  0.2347
 7095SOL    HW122184   1.382   4.946   2.691  1.5311  1.1483  0.8743
 7095SOL    HW222185   1.440   4.816   2.770 -1.2510 -0.3357  0.6032
 7096SOL     OW22186   1.992   5.618   1.143  0.2233  0.0124  0.3942
 7096SOL    HW122187   1.995   5.559   1.063 -0.6515 -0.5334  0.7503
 7096SOL    HW222188   1.959   5.566   1.222 -0.0043  0.8237  0.8485
 7097SOL     OW22189   3.175   0.106   3.985 -1.0176 -0.2055 -0.1381
 7097SOL    HW122190   3.138   0.174   3.922 -2.8491  0.4960  1.6112
 7097SOL    HW222191   3.114   0.095   4.063  1.3857 -0.6666  1.8182
 7098SOL     OW22192   1.034   0.688   3.484 -0.4668 -0.8873  0.7202
 7098SOL    HW122193   1.081   0.615   3.434  0.9967 -0.4716  1.4314
 7098SOL    HW222194   0.950   0.713   3.436  0.3604 -1.2038 -0.9648
 7099SOL     OW22195   1.305   0.899   5.377 -0.1743  0.4731 -0.4053
 7099SOL    HW122196   1.207   0.901   5.396 -0.2518  0.3345 -0.7719
 7099SOL    HW222197   1.351   0.971   5.428 -0.5676  0.9997 -0.7824
 7100SOL     OW22198   6.698   4.411   0.504  0.3516  0.4162 -0.7297
 7100SOL    HW122199   6.642   4.329   0.494  1.1599 -0.5171  1.6060
 7100SOL    HW222200   6.771   4.410   0.436 -0.6131  0.0879 -1.8052
 7101SOL     OW22201   2.884   1.260   3.432  0.0186 -0.2274  0.2114
 7101SOL    HW122202   2.831   1.281   3.350  1.7940 -1.2292 -1.2806
 7101SOL    HW222203   2.893   1.161   3.442  1.9834 -0.0958  0.1128
 7102SOL     OW22204   5.572   2.640   3.518  0.0082 -0.0336 -0.0898
 7102SOL    HW122205   5.547   2.609   3.610  0.5610 -0.3786 -0.0490
 7102SOL    HW222206   5.645   2.582   3.482 -0.9161 -0.5618 -1.1735
 7103SOL     OW22207   0.733   4.140   3.188  0.1637 -0.3098 -0.5692
 7103SOL    HW122208   0.770   4.048   3.199 -0.9978 -0.6621  0.8075
 7103SOL    HW222209   0.633   4.137   3.195 -0.0836  0.7908 -2.6667
 7104SOL     OW22210   5.045   2.512   3.132  0.1764 -0.2603  1.0105
 7104SOL    HW122211   5.016   2.442   3.068 -0.3208  0.3856  0.5175
 7104SOL    HW222212   5.045   2.475   3.225 -1.2598 -0.5695  0.9048
 7105SOL     OW22213   3.233   5.033   1.118  0.5265 -0.4024 -0.3707
 7105SOL    HW122214   3.270   5.015   1.028  1.9479  0.0181  0.1058
 7105SOL    HW222215   3.301   5.081   1.174  0.4957 -2.5243  1.6265
 7106SOL     OW22216   1.350   2.227   3.182 -0.6708  0.3905 -0.2927
 7106SOL    HW122217   1.448   2.223   3.165 -0.7853 -0.2187 -0.8609
 7106SOL    HW222218   1.333   2.261   3.274  0.0978 -0.2594  0.0989
 7107SOL     OW22219   2.510   1.709   2.001  0.1892 -0.1056 -0.3146
 7107SOL    HW122220   2.433   1.756   2.043 -0.3036 -0.5832 -0.6782
 7107SOL    HW222221   2.580   1.691   2.070  0.5958  1.5457 -0.2374
 7108SOL     OW22222   1.687   6.445   2.209 -0.2754  0.5579 -0.7045
 7108SOL    HW122223   1.660   6.352   2.234  2.4168  0.0278  0.6210
 7108SOL    HW222224   1.636   6.474   2.128 -2.8585 -1.1417  0.1714
 7109SOL     OW22225   3.895   4.313   6.840 -0.0357  0.0301  0.2251
 7109SOL    HW122226   3.928   4.345   6.751 -0.8671 -0.3245 -0.2298
 7109SOL    HW222227   3.850   4.388   6.888  0.2245  0.1700  0.2492
 7110SOL     OW22228   3.068   1.229   5.615  0.2258 -0.8610  0.3859
 7110SOL    HW122229   3.090   1.246   5.711 -0.9127  1.0122  0.3547
 7110SOL    HW222230   3.129   1.282   5.557  1.4957 -2.6655 -0.0033
 7111SOL     OW22231   5.596   1.869   3.583  0.0716 -0.4693 -0.1373
 7111SOL    HW122232   5.609   1.802   3.510  1.4220 -0.7037  0.2967
 7111SOL    HW222233   5.585   1.820   3.670 -0.4091 -0.1606 -0.0223
 7112SOL     OW22234   5.513   3.589   5.103 -0.3138  0.0928 -0.5519
 7112SOL    HW122235   5.599   3.632   5.129  1.4464 -1.7656 -2.8646
 7112SOL    HW222236   5.461   3.650   5.043  0.3234  0.4752 -0.7166
 7113SOL     OW22237   2.990   6.819   4.711  0.3526 -0.7147  0.2108
 7113SOL    HW122238   3.017   6.915   4.700  0.4649 -0.6505  0.9544
 7113SOL    HW222239   2.891   6.812   4.716  0.2456 -0.8504 -1.6515
 7114SOL     OW22240   0.468   1.454   1.856  0.1454 -0.6554 -0.0439
 7114SOL    HW122241   0.372   1.425   1.854  0.0302 -0.7574  2.5459
 7114SOL    HW222242   0.527   1.373   1.858  0.1752 -0.6295  0.1985
 7115SOL     OW22243   5.266   2.284   4.904  0.6715 -0.4600 -0.0681
 7115SOL    HW122244   5.312   2.318   4.987  2.4891 -0.6308 -0.9481
 7115SOL    HW222245   5.333   2.236   4.847 -0.1918  0.8519 -2.2927
 7116SOL     OW22246   0.301   5.571   4.456 -0.7297  0.0732  0.7122
 7116SOL    HW122247   0.341   5.658   4.429  0.8793 -0.7621  0.2840
 7116SOL    HW222248   0.356   5.529   4.528 -0.9536 -1.0077  0.2770
 7117SOL     OW22249   3.973   6.779   2.520 -0.5841  0.5510 -0.0889
 7117SOL    HW122250   3.878   6.799   2.498 -0.9026 -0.6147  0.2022
 7117SOL    HW222251   4.009   6.710   2.457  0.4964  1.9118 -1.0515
 7118SOL     OW22252   5.623   4.563   6.512  0.0645  0.3191 -0.0560
 7118SOL    HW122253   5.693   4.514   6.459 -1.3255 -1.3174 -0.4711
 7118SOL    HW222254   5.648   4.561   6.609 -0.1131 -1.5897 -0.0082
 7119SOL     OW22255   2.780   5.509   4.301  0.0503 -0.1576 -0.8009
 7119SOL    HW122256   2.858   5.572   4.310  0.8782 -1.2957  0.4896
 7119SOL    HW222257   2.698   5.561   4.280  0.4078  1.5861  1.6689
 7120SOL     OW22258   4.864   3.441   2.652  0.0558  0.6772  0.1599
 7120SOL    HW122259   4.853   3.342   2.660 -2.8758  0.8236 -1.1234
 7120SOL    HW222260   4.961   3.462   2.636  0.4750 -2.1291 -1.6376
 7121SOL     OW22261   1.283   0.283   3.478  0.3768  0.6908  0.6013
 7121SOL    HW122262   1.250   0.216   3.545  1.4707  0.1029  0.5711
 7121SOL    HW222263   1.276   0.375   3.517 -1.0886  0.5759  0.6675
 7122SOL     OW22264   4.364   6.860   6.996  0.0907  0.0064 -0.5158
 7122SOL    HW122265   4.299   6.797   7.038  2.0971 -1.7452  0.1300
 7122SOL    HW222266   4.341   6.954   7.022 -0.8517 -0.7294  1.5178
 7123SOL     OW22267   6.362   4.775   6.038 -0.0088  0.3021  0.5061
 7123SOL    HW122268   6.436   4.771   6.105  1.2915 -0.0508 -0.9015
 7123SOL    HW222269   6.380   4.711   5.964 -0.6886  1.6744 -0.9056
 7124SOL     OW22270   3.488   2.874   0.560 -0.3976 -0.3113  0.3805
 7124SOL    HW122271   3.405   2.820   0.569  0.7694 -2.0046  1.6628
 7124SOL    HW222272   3.484   2.952   0.622 -1.1205 -0.2469  0.2545
 7125SOL     OW22273   2.050   5.940   3.683 -0.0081 -0.1263 -0.0458
 7125SOL    HW122274   2.112   5.996   3.627  0.6590 -0.7445  0.0534
 7125SOL    HW222275   1.962   5.930   3.636  1.0566 -1.9855 -1.8479
 7126SOL     OW22276   5.306   5.815   0.352 -0.2443 -0.1417 -0.3636
 7126SOL    HW122277   5.330   5.857   0.265  0.6017  0.1234 -0.0065
 7126SOL    HW222278   5.206   5.815   0.362 -0.2845  1.7013 -0.4111
 7127SOL     OW22279   2.283   5.469   6.576  0.0006  0.3594  0.2910
 7127SOL    HW122280   2.262   5.450   6.480 -1.7630  1.6367  0.3867
 7127SOL    HW222281   2.348   5.545   6.581 -0.0792  0.4379  0.1225
 7128SOL     OW22282   3.733   5.172   0.062  0.4525  0.0925 -0.3302
 7128SOL    HW122283   3.806   5.144   0.125  0.3518  0.2124 -0.1581
 7128SOL    HW222284   3.708   5.095   0.004  1.0741  0.1922 -0.7489
 7129SOL     OW22285   5.743   1.065   1.243  0.2590 -0.2935  0.3202
 7129SOL    HW122286   5.730   1.154   1.285  0.1599  0.2097 -0.7513
 7129SOL    HW222287   5.814   1.071   1.174  0.6233 -1.1765  0.5996
 7130SOL     OW22288   1.538   5.466   2.150 -0.1409 -0.1325 -0.2213
 7130SOL    HW122289   1.467   5.427   2.209 -0.5766  0.6241 -0.2342
 7130SOL    HW222290   1.626   5.423   2.170 -0.7361 -1.6515 -0.7624
 7131SOL     OW22291   2.572   2.385   0.903  0.0052 -0.1801 -0.6057
 7131SOL    HW122292   2.637   2.459   0.888  0.1892 -0.2159 -0.0140
 7131SOL    HW222293   2.487   2.422   0.940  0.6116 -0.3858  1.1331
 7132SOL     OW22294   4.670   5.864   1.228  0.1335  0.1772  0.1843
 7132SOL    HW122295   4.622   5.775   1.226  1.0923 -0.3455 -0.1270
 7132SOL    HW222296   4.686   5.894   1.134  0.9337  0.0563  0.2796
 7133SOL     OW22297   4.698   5.881   2.145 -0.1795 -0.3456 -0.4243
 7133SOL    HW122298   4.773   5.819   2.121 -1.1826 -1.3313 -1.1161
 7133SOL    HW222299   4.695   5.956   2.079 -0.9152 -1.3042 -1.5352
 7134SOL     OW22300   0.008   4.618   6.561  0.0292  0.0787  0.6268
 7134SOL    HW122301   0.098   4.578   6.546 -0.5441 -0.2845 -2.5016
 7134SOL    HW222302   0.000   4.703   6.509 -1.4729  0.0621  0.7807
 7135SOL     OW22303   4.161   4.753   0.922 -0.3119 -0.0062  0.1929
 7135SOL    HW122304   4.165   4.707   0.833  1.5638 -0.4457  0.4622
 7135SOL    HW222305   4.071   4.794   0.935 -1.0484 -1.0659 -1.3409
 7136SOL     OW22306   0.280   5.585   3.127  0.7353 -0.0983  0.0954
 7136SOL    HW122307   0.367   5.539   3.108 -0.3954 -2.4484  0.3213
 7136SOL    HW222308   0.271   5.600   3.226 -0.5203 -3.0123  0.5152
 7137SOL     OW22309   1.866   0.580   1.133  0.2418 -0.1841  0.5405
 7137SOL    HW122310   1.866   0.482   1.114  0.9198  0.1466 -1.3606
 7137SOL    HW222311   1.960   0.612   1.147 -0.0792 -0.0438  2.7563
 7138SOL     OW22312   5.771   3.221   6.770 -1.1780 -0.1150  0.6471
 7138SOL    HW122313   5.726   3.143   6.726  0.5354 -0.5717 -0.4048
 7138SOL    HW222314   5.716   3.304   6.756 -1.6800 -0.6403 -0.6023
 7139SOL     OW22315   6.437   6.096   6.578  0.5647 -0.3409  0.1450
 7139SOL    HW122316   6.521   6.061   6.536 -0.4940 -3.3699  0.3175
 7139SOL    HW222317   6.443   6.086   6.677  1.2254  2.5173  0.4639
 7140SOL     OW22318   0.354   4.451   6.804  0.4471 -0.1213 -0.0461
 7140SOL    HW122319   0.337   4.492   6.715 -1.3977 -1.1402 -0.2220
 7140SOL    HW222320   0.374   4.354   6.793  1.2845 -0.0396  0.6016
 7141SOL     OW22321   0.597   1.463   5.751 -0.2464 -0.1071  0.0464
 7141SOL    HW122322   0.648   1.462   5.665 -0.1559 -1.1912  0.0909
 7141SOL    HW222323   0.546   1.548   5.759 -1.7715 -0.7606 -1.9832
 7142SOL     OW22324   3.043   1.002   4.815  0.8438 -0.0338  0.2799
 7142SOL    HW122325   3.028   1.093   4.776 -1.3171  0.3280  1.7147
 7142SOL    HW222326   2.975   0.938   4.779  1.7727 -0.8627 -0.0369
 7143SOL     OW22327   1.626   2.735   4.546  0.4332 -0.1973  0.3643
 7143SOL    HW122328   1.626   2.709   4.643 -0.8903 -1.2378  0.1181
 7143SOL    HW222329   1.720   2.751   4.516  1.2840 -3.3108  0.9588
 7144SOL     OW22330   0.286   0.858   1.125  0.6612 -0.8248 -0.3278
 7144SOL    HW122331   0.357   0.849   1.055  1.0986 -3.3775  0.3210
 7144SOL    HW222332   0.296   0.945   1.172  3.3555 -1.0783 -0.2915
 7145SOL     OW22333   0.916   1.626   5.522 -0.4842  0.0989 -0.3645
 7145SOL    HW122334   0.993   1.572   5.487 -0.3315 -0.1276  0.3187
 7145SOL    HW222335   0.839   1.565   5.543  0.2080 -0.0900  1.8730
 7146SOL     OW22336   5.330   2.697   4.934  0.2253  0.1805  0.1651
 7146SOL    HW122337   5.397   2.722   5.004 -0.6509  0.5106  0.8979
 7146SOL    HW222338   5.279   2.778   4.906 -1.3844 -0.4208  1.2318
 7147SOL     OW22339   5.388   0.519   6.257 -0.0316 -0.2982 -0.1736
 7147SOL    HW122340   5.446   0.575   6.198 -2.4514  1.8250 -0.6745
 7147SOL    HW222341   5.437   0.434   6.280  2.4571  0.4924 -2.0911
 7148SOL     OW22342   6.972   0.674   1.329 -0.2023  0.0170  0.6553
 7148SOL    HW122343   6.923   0.586   1.322  0.8471 -0.4321 -2.2586
 7148SOL    HW222344   6.907   0.745   1.357 -1.9782 -1.0091 -0.6156
 7149SOL     OW22345   0.476   4.139   4.573  0.6288  0.4509  0.0882
 7149SOL    HW122346   0.508   4.045   4.570 -0.8747 -0.0717 -0.3177
 7149SOL    HW222347   0.520   4.187   4.649  2.4467 -0.1598 -0.5345
 7150SOL     OW22348   2.892   3.003   0.457 -0.4651 -0.7644 -0.2796
 7150SOL    HW122349   2.812   3.043   0.502 -0.2973 -0.8640  0.1171
 7150SOL    HW222350   2.953   3.075   0.426 -0.0577 -0.7010  0.6278
 7151SOL     OW22351   6.692   2.192   0.018 -0.4870  0.1339 -0.0680
 7151SOL    HW122352   6.616   2.202   0.082 -0.0571  0.8815  0.3441
 7151SOL    HW222353   6.764   2.258   0.041  0.4912 -0.8632 -0.1701
 7152SOL     OW22354   5.633   0.732   3.575 -0.3124  0.1111  0.0969
 7152SOL    HW122355   5.725   0.746   3.538  0.0374  0.0892  0.9588
 7152SOL    HW222356   5.585   0.664   3.519  0.4945 -0.5145  0.1467
 7153SOL     OW22357   6.182   6.530   0.269 -0.1555  0.2353 -0.4236
 7153SOL    HW122358   6.147   6.623   0.279 -0.3015  0.0645  0.7905
 7153SOL    HW222359   6.240   6.525   0.188  1.2532  1.8371  0.4010
 7154SOL     OW22360   3.135   6.518   1.908  0.0971  0.1942  0.2122
 7154SOL    HW122361   3.088   6.478   1.987  0.7982  1.5866  1.3833
 7154SOL    HW222362   3.069   6.569   1.853 -0.2846 -0.2674  0.2370
 7155SOL     OW22363   1.763   6.453   3.584 -0.2519 -0.7202  0.1463
 7155SOL    HW122364   1.772   6.486   3.678 -0.0742 -1.8146  0.5367
 7155SOL    HW222365   1.666   6.439   3.563 -0.2094 -2.6887  1.0122
 7156SOL     OW22366   6.291   2.290   4.162 -0.0703 -0.0940  0.1356
 7156SOL    HW122367   6.194   2.279   4.183  0.3945 -0.9186  2.0833
 7156SOL    HW222368   6.336   2.201   4.163  1.0183  0.4337  1.0395
 7157SOL     OW22369   0.360   3.081   4.425  0.2684 -0.5125 -0.2025
 7157SOL    HW122370   0.455   3.054   4.440 -0.1303 -1.0250  1.7088
 7157SOL    HW222371   0.313   3.009   4.374  0.4205 -1.2696  0.6743
 7158SOL     OW22372   5.405   6.306   3.673  0.7579 -1.2879 -0.2395
 7158SOL    HW122373   5.376   6.237   3.740  0.7817 -0.8486  0.2352
 7158SOL    HW222374   5.337   6.312   3.600 -0.1824 -0.5688  0.6430
 7159SOL     OW22375   1.168   6.271   3.348  0.2562 -0.4736  0.4455
 7159SOL    HW122376   1.259   6.252   3.312 -0.2068 -0.0918 -1.0024
 7159SOL    HW222377   1.115   6.187   3.350  1.5417 -1.3970  4.2714
 7160SOL     OW22378   6.693   4.973   3.001  0.0009  0.3111  0.0659
 7160SOL    HW122379   6.775   5.027   3.017  0.7873 -0.6288 -0.6675
 7160SOL    HW222380   6.686   4.900   3.069 -1.0230  1.2403  1.0127
 7161SOL     OW22381   2.869   3.348   2.128  0.4075 -0.4830  0.0273
 7161SOL    HW122382   2.936   3.275   2.142 -0.0476 -0.7699  0.7567
 7161SOL    HW222383   2.843   3.387   2.216  1.5591  1.4098 -0.4243
 7162SOL     OW22384   0.364   4.688   5.582  0.0695  0.1743 -0.4690
 7162SOL    HW122385   0.425   4.612   5.603 -0.2463  0.1523  0.4102
 7162SOL    HW222386   0.358   4.700   5.482  1.2267 -0.0371 -0.5778
 7163SOL     OW22387   6.283   6.526   4.963  0.5816 -0.2189  0.3003
 7163SOL    HW122388   6.296   6.625   4.966  1.4734 -0.0972 -3.0893
 7163SOL    HW222389   6.362   6.483   4.919 -0.1542 -2.3492  0.9419
 7164SOL     OW22390   1.017   4.991   0.195 -0.4995  0.1056  0.0144
 7164SOL    HW122391   1.048   4.907   0.153  1.2262  0.3577  0.7201
 7164SOL    HW222392   0.929   4.975   0.242 -0.6110 -1.0578 -0.5782
 7165SOL     OW22393   3.612   2.899   4.089 -0.4722 -0.3692 -0.1472
 7165SOL    HW122394   3.660   2.861   4.009 -0.4632 -0.3513 -0.1501
 7165SOL    HW222395   3.518   2.921   4.063 -0.6007 -0.7716 -0.0393
 7166SOL     OW22396   6.371   6.941   5.990 -0.5738 -0.2022  0.3717
 7166SOL    HW122397   6.276   6.934   6.019 -0.7668 -1.0835 -0.4244
 7166SOL    HW222398   6.376   6.941   5.890  0.2501  0.1179  0.3996
 7167SOL     OW22399   1.845   3.244   6.140  0.1324  0.8244  0.3999
 7167SOL    HW122400   1.823   3.173   6.206  0.0111  0.2023 -0.2997
 7167SOL    HW222401   1.919   3.301   6.175 -0.4986  1.0395  1.4380
 7168SOL     OW22402   4.162   0.083   5.379 -0.3953 -0.2602 -0.1008
 7168SOL    HW122403   4.110   0.014   5.429  1.4609 -1.4731  0.2902
 7168SOL    HW222404   4.157   0.065   5.281  0.0133 -0.9241 -0.0033
 7169SOL     OW22405   3.230   5.126   5.481  0.6364  0.2232 -0.1959
 7169SOL    HW122406   3.172   5.097   5.557  1.6060 -0.1510  0.4193
 7169SOL    HW222407   3.200   5.216   5.449 -1.0417 -0.4739 -0.7050
 7170SOL     OW22408   4.459   2.873   1.680 -0.5682  0.0974  0.0665
 7170SOL    HW122409   4.504   2.930   1.749 -0.2691  0.7146 -0.6225
 7170SOL    HW222410   4.365   2.857   1.707 -0.4563  0.3348  0.6229
 7171SOL     OW22411   6.765   5.970   2.293 -0.3243 -0.1303  0.6145
 7171SOL    HW122412   6.824   5.897   2.259 -0.9205 -0.6237  0.6296
 7171SOL    HW222413   6.689   5.984   2.230 -0.0885  0.6481  0.4856
 7172SOL     OW22414   0.873   1.409   1.640  0.3635 -0.2580 -0.2451
 7172SOL    HW122415   0.819   1.325   1.649  0.8861 -0.9621 -2.7311
 7172SOL    HW222416   0.943   1.396   1.569 -0.1339  2.5703 -1.3991
 7173SOL     OW22417   3.378   5.193   4.273 -0.0495  0.0760 -0.1835
 7173SOL    HW122418   3.293   5.226   4.234 -0.4026 -0.5605  0.0257
 7173SOL    HW222419   3.376   5.093   4.277  0.8010  0.0362 -0.3931
 7174SOL     OW22420   4.351   4.602   3.984  0.0376  0.0507 -0.0311
 7174SOL    HW122421   4.415   4.534   3.948  0.5916 -0.4838  1.8187
 7174SOL    HW222422   4.375   4.623   4.079 -1.1605  1.5783 -0.0285
 7175SOL     OW22423   5.131   3.242   2.694  0.5472  0.1678  0.3572
 7175SOL    HW122424   5.037   3.213   2.716  0.3775  0.8283  0.5188
 7175SOL    HW222425   5.141   3.339   2.714  1.2746  0.0969  0.3430
 7176SOL     OW22426   5.860   2.580   5.960 -0.3629  0.7640 -0.2689
 7176SOL    HW122427   5.914   2.658   5.928  0.6152  0.0955 -0.2882
 7176SOL    HW222428   5.764   2.607   5.967  0.0615  2.2025  0.4668
 7177SOL     OW22429   0.308   5.021   3.160 -0.2025 -0.6013  0.4836
 7177SOL    HW122430   0.393   5.011   3.108  0.4321 -1.0249  1.5718
 7177SOL    HW222431   0.251   5.091   3.117  1.2033  0.5234  0.3967
 7178SOL     OW22432   0.362   5.139   5.649 -0.4030  0.0951  0.2813
 7178SOL    HW122433   0.383   5.047   5.683 -0.3735  0.5111  1.4221
 7178SOL    HW222434   0.368   5.205   5.724  0.5628  1.1942 -0.7170
 7179SOL     OW22435   6.775   3.704   5.099  0.0329  0.0692 -0.2672
 7179SOL    HW122436   6.694   3.763   5.095 -0.4455 -0.5114  0.7121
 7179SOL    HW222437   6.747   3.610   5.118  0.9128 -0.2115 -0.3245
 7180SOL     OW22438   1.227   1.170   3.143 -0.5128 -0.4155 -0.5665
 7180SOL    HW122439   1.318   1.148   3.110 -0.5393 -3.1658  0.9122
 7180SOL    HW222440   1.234   1.215   3.232 -0.6014  0.4690 -0.9966
 7181SOL     OW22441   3.517   0.718   0.697 -0.1419 -0.2991 -0.0429
 7181SOL    HW122442   3.438   0.659   0.679 -0.8689  0.2919  1.0936
 7181SOL    HW222443   3.524   0.788   0.626  0.4608 -1.4554 -1.1524
 7182SOL     OW22444   3.937   6.717   4.020  0.0954 -0.6557 -0.1456
 7182SOL    HW122445   3.900   6.810   4.028  0.7286 -0.4151 -0.0057
 7182SOL    HW222446   3.997   6.711   3.941 -0.2063 -1.0376 -0.3477
 7183SOL     OW22447   2.657   5.679   1.171 -0.3534  0.3939  0.0779
 7183SOL    HW122448   2.740   5.663   1.223  0.2011  1.6600 -0.3712
 7183SOL    HW222449   2.577   5.652   1.224  0.4016 -3.1275 -0.3750
 7184SOL     OW22450   0.239   0.917   5.884 -0.4464  0.6790  0.0565
 7184SOL    HW122451   0.258   0.825   5.848 -1.5766  0.4798 -0.0884
 7184SOL    HW222452   0.221   0.911   5.982 -1.4423  0.5954 -0.1240
 7185SOL     OW22453   4.002   0.466   3.142 -0.7504 -0.4228 -0.1350
 7185SOL    HW122454   3.999   0.540   3.209  0.2490 -1.0615  0.6495
 7185SOL    HW222455   3.993   0.378   3.189  2.5616 -1.0485 -0.4442
 7186SOL     OW22456   0.992   3.767   0.543 -0.4227 -0.2998 -0.1136
 7186SOL    HW122457   0.919   3.822   0.583 -1.8818 -1.9271 -0.4291
 7186SOL    HW222458   1.056   3.827   0.494  0.2393  1.5228  2.7233
 7187SOL     OW22459   3.848   3.887   4.075  0.1029 -0.2723  0.9885
 7187SOL    HW122460   3.934   3.837   4.075 -0.9198 -2.1268  1.9869
 7187SOL    HW222461   3.823   3.911   4.169  0.0083  1.1683  0.6250
 7188SOL     OW22462   0.393   5.312   6.564 -0.2524 -0.2338  0.3511
 7188SOL    HW122463   0.321   5.379   6.547  2.0510  2.5168  0.7393
 7188SOL    HW222464   0.409   5.303   6.662 -0.6935 -1.5901  0.3192
 7189SOL     OW22465   0.627   1.903   6.641 -0.0682  0.1494 -0.4675
 7189SOL    HW122466   0.550   1.951   6.685 -0.4532 -0.7139 -0.1851
 7189SOL    HW222467   0.592   1.828   6.586  0.4296  1.0321 -2.0527
 7190SOL     OW22468   6.513   4.798   0.605 -1.0446 -0.5669  0.1057
 7190SOL    HW122469   6.583   4.862   0.636  2.0998 -3.1934 -1.0445
 7190SOL    HW222470   6.458   4.842   0.534  0.8443  0.9643 -0.5163
 7191SOL     OW22471   1.142   6.188   1.063 -0.1998 -0.7098 -0.0251
 7191SOL    HW122472   1.059   6.216   1.112  1.6437  0.2800  2.7752
 7191SOL    HW222473   1.157   6.249   0.985 -0.5073  1.1123  1.2827
 7192SOL     OW22474   0.662   3.549   6.220  0.3390 -0.8736 -0.0645
 7192SOL    HW122475   0.638   3.583   6.129 -0.4445 -0.8556  0.1377
 7192SOL    HW222476   0.734   3.480   6.212  0.3267 -0.8204 -0.6879
 7193SOL     OW22477   4.835   1.821   5.708 -0.2510 -0.8448  0.2235
 7193SOL    HW122478   4.883   1.906   5.731  0.2898 -0.6405 -1.5048
 7193SOL    HW222479   4.901   1.752   5.677 -0.9943 -0.4954 -2.4106
 7194SOL     OW22480   3.951   3.872   5.583 -0.4590  0.5385 -0.3390
 7194SOL    HW122481   4.049   3.874   5.598 -0.5792 -3.0806  2.5504
 7194SOL    HW222482   3.931   3.839   5.491  0.9517  2.0676 -1.2338
 7195SOL     OW22483   5.937   2.734   5.580  0.1412  0.2892 -0.3197
 7195SOL    HW122484   5.945   2.819   5.631 -0.9770 -0.2212  0.7907
 7195SOL    HW222485   5.851   2.735   5.528  0.0577 -0.1900 -0.1975
 7196SOL     OW22486   3.837   4.566   6.673  0.0823  0.0454  0.2980
 7196SOL    HW122487   3.767   4.570   6.745  1.4861 -2.2977  1.9223
 7196SOL    HW222488   3.901   4.642   6.684 -0.8279  0.8351  0.2678
 7197SOL     OW22489   3.821   4.554   6.395  0.8759 -0.1184 -0.2155
 7197SOL    HW122490   3.819   4.550   6.495  0.6916  0.0095 -0.2139
 7197SOL    HW222491   3.824   4.461   6.358 -0.5777 -0.2314 -0.1160
 7198SOL     OW22492   2.272   6.143   2.101 -0.4126  0.2361 -0.7244
 7198SOL    HW122493   2.224   6.111   2.020 -1.9297 -0.9464  0.5761
 7198SOL    HW222494   2.357   6.091   2.112 -1.6101 -1.7061 -0.0360
 7199SOL     OW22495   5.800   0.426   3.430  0.5700 -0.4830  0.0849
 7199SOL    HW122496   5.762   0.363   3.362 -0.7079  0.9134 -0.5597
 7199SOL    HW222497   5.805   0.380   3.519 -0.6111 -1.4131 -0.3021
 7200SOL     OW22498   6.773   5.112   0.325  0.0672 -0.3670  0.2130
 7200SOL    HW122499   6.701   5.089   0.389 -1.8013  2.3354 -0.7293
 7200SOL    HW222500   6.739   5.104   0.231  2.4019 -3.1562 -0.5525
 7201SOL     OW22501   6.352   6.373   4.525 -0.5765  0.3038 -0.0388
 7201SOL    HW122502   6.322   6.465   4.549  1.9641  0.4607  3.2290
 7201SOL    HW222503   6.296   6.306   4.574 -3.0372 -0.1267 -3.1147
 7202SOL     OW22504   4.872   5.205   5.788 -0.4185  0.0825  0.6128
 7202SOL    HW122505   4.816   5.242   5.862  1.2295  1.8065  1.0674
 7202SOL    HW222506   4.899   5.279   5.726  0.4993 -0.8664 -0.1609
 7203SOL     OW22507   0.083   2.637   0.636 -0.1316 -0.6120  0.0894
 7203SOL    HW122508   0.002   2.586   0.664 -0.0299 -2.5094 -2.5974
 7203SOL    HW222509   0.055   2.721   0.589 -0.6315 -1.4825 -1.2354
 7204SOL     OW22510   5.610   1.491   2.810 -0.1114 -0.7418 -0.2579
 7204SOL    HW122511   5.550   1.540   2.874  0.6758 -0.4822  0.2898
 7204SOL    HW222512   5.562   1.477   2.724 -0.8215 -0.1847  0.0379
 7205SOL     OW22513   5.187   1.501   3.587  0.0650 -0.2635  0.3082
 7205SOL    HW122514   5.272   1.546   3.560 -0.9729  0.9406 -1.1009
 7205SOL    HW222515   5.117   1.570   3.606 -0.7778 -1.2455  0.9306
 7206SOL     OW22516   3.361   1.553   6.329 -0.8820 -0.2238  0.2755
 7206SOL    HW122517   3.313   1.635   6.298 -1.1764 -0.5886 -0.2349
 7206SOL    HW222518   3.433   1.529   6.264 -1.3841 -0.8847 -0.0473
 7207SOL     OW22519   2.298   2.697   2.461 -0.0220 -0.1085  0.5619
 7207SOL    HW122520   2.232   2.678   2.388  0.0312 -0.3772  0.5825
 7207SOL    HW222521   2.326   2.793   2.456  1.3985 -0.5525 -0.9357
 7208SOL     OW22522   3.033   0.832   2.704  0.0852  0.7207  0.3502
 7208SOL    HW122523   2.999   0.844   2.797 -1.8375  1.1150 -0.3507
 7208SOL    HW222524   3.063   0.920   2.668  1.6436  0.4216  0.8676
 7209SOL     OW22525   2.763   1.725   3.870 -0.0599  0.4266 -0.7638
 7209SOL    HW122526   2.817   1.641   3.879 -2.2328 -0.8443  1.9995
 7209SOL    HW222527   2.708   1.721   3.787 -1.9919 -2.2090  0.4891
 7210SOL     OW22528   3.252   1.049   5.475 -0.4816 -0.0714 -0.1316
 7210SOL    HW122529   3.182   1.087   5.535  0.9117  0.5791  1.1263
 7210SOL    HW222530   3.338   1.099   5.486  0.2601 -0.9577 -1.5034
 7211SOL     OW22531   3.679   5.637   6.238 -0.0668 -0.0394  0.4842
 7211SOL    HW122532   3.755   5.683   6.284 -1.1933  0.4771  1.8877
 7211SOL    HW222533   3.595   5.649   6.291 -1.3040  0.0158 -1.3854
 7212SOL     OW22534   0.732   5.550   5.230  0.6531 -0.4152 -0.1326
 7212SOL    HW122535   0.692   5.638   5.204  2.4217  0.6608  0.6423
 7212SOL    HW222536   0.658   5.482   5.241 -0.9571  1.4234  1.0857
 7213SOL     OW22537   5.676   2.486   1.249  0.0052 -0.8566 -0.0297
 7213SOL    HW122538   5.761   2.492   1.302  0.7201 -1.9165 -0.9949
 7213SOL    HW222539   5.656   2.574   1.207  0.3726 -0.4800  0.5615
 7214SOL     OW22540   6.424   1.256   0.298  0.1817 -0.4511 -0.6025
 7214SOL    HW122541   6.456   1.214   0.212  1.0252  1.4563 -1.2784
 7214SOL    HW222542   6.490   1.326   0.327 -2.0615  1.7776 -0.5790
 7215SOL     OW22543   6.876   6.794   4.440  0.5019 -0.3142  0.1012
 7215SOL    HW122544   6.903   6.719   4.500  0.7187 -0.6271 -0.3798
 7215SOL    HW222545   6.841   6.870   4.495  0.6306 -0.6215  0.6144
 7216SOL     OW22546   5.286   0.902   2.509  0.7089  0.0988 -0.1770
 7216SOL    HW122547   5.319   0.831   2.571  0.8481 -1.7463 -2.2551
 7216SOL    HW222548   5.190   0.886   2.487 -0.3722  2.7021  2.0929
 7217SOL     OW22549   1.003   3.556   0.382 -0.0758 -0.4682 -0.3422
 7217SOL    HW122550   1.007   3.631   0.448 -1.8259  0.6561 -1.4202
 7217SOL    HW222551   1.083   3.558   0.323 -0.3658  0.9408 -0.7179
 7218SOL     OW22552   6.968   2.328   5.952  0.2294 -0.4669 -0.6711
 7218SOL    HW122553   6.965   2.236   5.914  0.3070 -0.2150 -1.2914
 7218SOL    HW222554   7.038   2.332   6.024  0.2519 -0.8785 -0.6674
 7219SOL     OW22555   4.904   0.590   0.544  0.7308  0.0296  0.6952
 7219SOL    HW122556   4.953   0.584   0.630  1.0324  1.0115  0.6028
 7219SOL    HW222557   4.827   0.526   0.545 -0.2609  1.1813  2.3457
 7220SOL     OW22558   5.878   3.116   4.136  0.5519 -0.1188  0.2093
 7220SOL    HW122559   5.903   3.033   4.186  1.2040  0.6665  1.2262
 7220SOL    HW222560   5.813   3.093   4.063  0.6139 -1.4913  0.5645
 7221SOL     OW22561   6.673   6.211   4.053  0.6938  0.0191 -0.1072
 7221SOL    HW122562   6.685   6.166   3.965  0.8731 -0.3532  0.1069
 7221SOL    HW222563   6.741   6.284   4.063 -0.6248  1.4704 -1.1612
 7222SOL     OW22564   5.457   3.614   4.040  0.0818  0.0596 -0.2075
 7222SOL    HW122565   5.469   3.636   4.137  3.0102 -0.7822 -0.2761
 7222SOL    HW222566   5.429   3.696   3.990  2.1874  1.5344  0.8488
 7223SOL     OW22567   4.610   6.331   2.919  0.7645  0.0539  0.1448
 7223SOL    HW122568   4.641   6.348   2.825 -1.2205  0.6246 -0.4585
 7223SOL    HW222569   4.516   6.297   2.917  0.5936  0.3529  1.9584
 7224SOL     OW22570   5.844   1.662   3.850 -0.4894  0.3719  0.2269
 7224SOL    HW122571   5.767   1.718   3.882 -1.9307 -0.8301 -0.9933
 7224SOL    HW222572   5.929   1.713   3.862 -1.8684  3.6887 -2.5683
 7225SOL     OW22573   6.867   5.647   6.531 -0.1146 -0.4496  0.0963
 7225SOL    HW122574   6.887   5.549   6.532 -2.1211 -0.8980 -0.3863
 7225SOL    HW222575   6.952   5.698   6.547  1.1767 -2.2157 -0.7662
 7226SOL     OW22576   0.131   1.986   1.809 -0.1976 -0.0079 -0.4033
 7226SOL    HW122577   0.043   2.034   1.804 -0.6223 -0.7241  0.0266
 7226SOL    HW222578   0.147   1.938   1.723 -0.5331 -0.3865 -0.2595
 7227SOL     OW22579   1.387   2.643   3.886 -0.1327  0.1593 -0.3434
 7227SOL    HW122580   1.378   2.575   3.813 -1.4178 -1.7465  1.4660
 7227SOL    HW222581   1.392   2.596   3.974 -0.6264  2.4241  0.9585
 7228SOL     OW22582   6.371   2.734   2.201  0.1746 -0.2324  0.2465
 7228SOL    HW122583   6.433   2.807   2.229  0.7719 -1.4994  2.5232
 7228SOL    HW222584   6.381   2.717   2.103  1.9632  0.9072  0.1829
 7229SOL     OW22585   4.481   5.324   3.834 -0.5056  0.4168 -0.0547
 7229SOL    HW122586   4.430   5.326   3.920 -0.5087  2.8680 -0.0508
 7229SOL    HW222587   4.422   5.289   3.762 -0.4771 -1.7460  0.9047
 7230SOL     OW22588   3.897   3.336   6.625 -0.5825 -0.4309 -0.4804
 7230SOL    HW122589   3.856   3.253   6.663 -2.5375 -0.0330 -1.6194
 7230SOL    HW222590   3.941   3.314   6.538  1.0428 -0.6950  0.3583
 7231SOL     OW22591   5.536   2.496   0.411  0.1938  0.0606  0.1139
 7231SOL    HW122592   5.515   2.531   0.320 -0.6884  4.0614  1.6337
 7231SOL    HW222593   5.451   2.479   0.461  0.6575 -1.1133  0.5324
 7232SOL     OW22594   4.613   4.442   4.458 -0.4056  0.0603 -0.3464
 7232SOL    HW122595   4.690   4.506   4.460  0.6221 -1.1603  1.2741
 7232SOL    HW222596   4.590   4.415   4.551 -3.1796  0.7706 -0.7372
 7233SOL     OW22597   1.660   0.772   0.586  0.1905  0.1337 -0.0139
 7233SOL    HW122598   1.565   0.743   0.575  0.2654  0.2763 -1.1462
 7233SOL    HW222599   1.697   0.734   0.671 -0.2249 -1.6770 -0.6072
 7234SOL     OW22600   5.232   5.619   2.110 -0.3975  0.1158  0.2311
 7234SOL    HW122601   5.279   5.699   2.146 -0.8113  0.7994 -0.7186
 7234SOL    HW222602   5.149   5.602   2.165 -0.1235  0.1128  0.6521
 7235SOL     OW22603   0.332   0.867   1.536  0.1070  0.0834 -0.2058
 7235SOL    HW122604   0.330   0.773   1.503  1.2970  0.5436 -1.6718
 7235SOL    HW222605   0.350   0.868   1.634 -1.1852 -1.2362  0.0727
 7236SOL     OW22606   0.024   4.639   2.399 -0.6647  0.3740  0.5527
 7236SOL    HW122607   0.036   4.580   2.319  2.6577  1.6843 -0.0840
 7236SOL    HW222608   0.059   4.591   2.480 -2.8155 -0.4391  1.0693
 7237SOL     OW22609   4.966   2.448   0.825 -0.3545 -0.0389  0.0610
 7237SOL    HW122610   4.915   2.371   0.789 -0.3215 -0.7568  1.4536
 7237SOL    HW222611   5.062   2.422   0.837 -0.4178  0.0587  0.8995
 7238SOL     OW22612   4.875   3.417   0.031  0.8067 -0.3225  0.3824
 7238SOL    HW122613   4.790   3.468   0.045  0.3597 -0.9704  0.0851
 7238SOL    HW222614   4.862   3.352  -0.044  2.1637  0.9087 -1.0070
 7239SOL     OW22615   5.413   2.157   0.866  0.0813  0.0336  0.0587
 7239SOL    HW122616   5.494   2.135   0.812  0.5999  0.4625  0.6538
 7239SOL    HW222617   5.417   2.109   0.954 -0.4934 -0.2338 -0.0559
 7240SOL     OW22618   6.982   4.003   0.435 -1.0702  0.2231 -0.0772
 7240SOL    HW122619   6.914   4.056   0.384  0.6264  1.6657 -0.9427
 7240SOL    HW222620   7.072   4.044   0.423 -0.2020 -0.9064  2.0523
 7241SOL     OW22621   2.370   0.232   1.619  0.0924  0.5508  0.1142
 7241SOL    HW122622   2.414   0.252   1.706  0.8915  1.3868 -0.4679
 7241SOL    HW222623   2.363   0.315   1.564  0.3338 -0.0993 -0.9538
 7242SOL     OW22624   6.066   4.218   3.150  0.5672 -0.0396 -0.2492
 7242SOL    HW122625   6.029   4.149   3.211 -0.5238  0.6658 -0.1020
 7242SOL    HW222626   5.992   4.262   3.099  1.2679  0.7805 -0.5993
 7243SOL     OW22627   5.850   6.294   6.219 -0.1669  0.2361  0.0305
 7243SOL    HW122628   5.895   6.372   6.176  0.9915  0.1155  0.9803
 7243SOL    HW222629   5.841   6.311   6.317 -0.9061 -0.3614  0.0753
 7244SOL     OW22630   1.026   6.325   1.581 -0.2957 -0.5062 -0.1539
 7244SOL    HW122631   1.006   6.367   1.669 -0.3904 -1.1639  0.1431
 7244SOL    HW222632   1.125   6.311   1.574 -0.3163 -0.7154 -0.0314
 7245SOL     OW22633   3.243   0.752   1.215  0.2120  0.1495  0.7008
 7245SOL    HW122634   3.225   0.820   1.286 -1.3287  1.1394 -0.5513
 7245SOL    HW222635   3.156   0.713   1.184  0.8927 -0.6686 -0.2550
 7246SOL     OW22636   4.465   0.642   4.945 -0.6654 -0.3143  0.0115
 7246SOL    HW122637   4.402   0.707   4.905 -1.4503 -0.6488  0.6778
 7246SOL    HW222638   4.414   0.568   4.989  0.1483 -0.0617  1.4499
 7247SOL     OW22639   4.006   3.908   3.772  0.0536 -0.0436 -0.1296
 7247SOL    HW122640   4.065   3.985   3.792  0.7885 -0.4040 -0.8687
 7247SOL    HW222641   3.912   3.930   3.798  0.3972  0.7755  0.4402
 7248SOL     OW22642   1.624   2.495   5.178 -0.6388  0.2416 -0.4132
 7248SOL    HW122643   1.575   2.564   5.125  0.6972  1.8112  0.3348
 7248SOL    HW222644   1.571   2.471   5.259 -0.7865  0.9253 -0.3045
 7249SOL     OW22645   4.236   6.363   4.105  0.3989 -0.2918 -0.0985
 7249SOL    HW122646   4.247   6.427   4.182  3.5914 -0.6108 -0.1782
 7249SOL    HW222647   4.232   6.415   4.020  1.0506 -0.0957 -0.0166
 7250SOL     OW22648   3.706   5.055   5.023  0.5791  0.1620 -0.1579
 7250SOL    HW122649   3.633   4.990   5.045  1.8322 -1.0579  0.5464
 7250SOL    HW222650   3.685   5.143   5.065  0.7756 -0.9066  2.3244
 7251SOL     OW22651   0.101   7.003   2.691  0.0089 -0.0237 -0.0617
 7251SOL    HW122652   0.101   7.062   2.610  0.2118  2.1869  1.4692
 7251SOL    HW222653   0.187   7.014   2.740 -0.1437 -1.2761  0.5094
 7252SOL     OW22654   3.493   3.901   3.875  0.2791  0.0956  0.0656
 7252SOL    HW122655   3.550   3.877   3.796 -0.5076 -0.7612 -0.2610
 7252SOL    HW222656   3.543   3.964   3.934  1.0068  0.4927 -0.9482
 7253SOL     OW22657   0.900   5.940   4.986 -0.7022 -0.8120  0.2241
 7253SOL    HW122658   0.802   5.934   5.000 -0.8870 -1.7004 -1.2922
 7253SOL    HW222659   0.921   5.928   4.889  0.8673 -0.1296  0.4469
 7254SOL     OW22660   6.240   4.084   3.437  0.1816 -0.0301  0.2000
 7254SOL    HW122661   6.291   4.167   3.414  0.5525 -0.3659 -0.2023
 7254SOL    HW222662   6.248   4.066   3.535  2.6352 -1.2420 -0.1505
 7255SOL     OW22663   5.166   4.063   1.114 -0.1632  0.2484 -0.0676
 7255SOL    HW122664   5.180   4.042   1.018 -0.2458  1.5923 -0.4018
 7255SOL    HW222665   5.088   4.011   1.149  1.5557 -2.3897  0.0666
 7256SOL     OW22666   4.509   1.559   3.202  0.3481  0.9662  0.4923
 7256SOL    HW122667   4.605   1.532   3.206 -0.3102 -1.8070 -0.1943
 7256SOL    HW222668   4.480   1.594   3.291  1.5800  0.2124  1.2110
 7257SOL     OW22669   0.398   6.518   6.292  0.1848 -0.3538  0.1912
 7257SOL    HW122670   0.354   6.589   6.238 -1.2649 -1.8295 -0.6731
 7257SOL    HW222671   0.415   6.552   6.384  0.6131  1.4659 -0.5081
 7258SOL     OW22672   1.623   6.990   3.002  0.3795 -0.6042  0.2674
 7258SOL    HW122673   1.643   6.953   3.093  0.2335  0.5854  0.7997
 7258SOL    HW222674   1.708   7.010   2.954  0.5104 -2.9903 -0.6460
 7259SOL     OW22675   0.059   3.660   2.155 -0.0537  0.2573 -0.0482
 7259SOL    HW122676   0.110   3.583   2.117 -2.2571 -0.9635 -0.7059
 7259SOL    HW222677   0.122   3.734   2.178  2.2664 -1.9711  1.2664
 7260SOL     OW22678   5.081   0.803   1.092 -0.1393 -0.3596 -0.3431
 7260SOL    HW122679   5.121   0.712   1.093  0.7832  0.0263 -0.6962
 7260SOL    HW222680   4.983   0.797   1.112  0.0516 -1.3445  0.3636
 7261SOL     OW22681   6.698   4.581   7.001  0.0657 -0.6513  0.3122
 7261SOL    HW122682   6.682   4.663   6.946  1.0137 -1.4294 -1.1970
 7261SOL    HW222683   6.790   4.585   7.041  0.1676 -1.0343  0.1194
 7262SOL     OW22684   2.769   5.842   6.493  0.8804  0.1633  0.3026
 7262SOL    HW122685   2.733   5.881   6.409 -0.4180  0.1038  0.8138
 7262SOL    HW222686   2.862   5.875   6.508  1.1438  0.1421 -1.1592
 7263SOL     OW22687   0.132   5.122   0.699  0.6617  0.3522 -0.3804
 7263SOL    HW122688   0.036   5.125   0.672  0.5122 -0.4238  0.0168
 7263SOL    HW222689   0.167   5.029   0.686  0.5563 -0.1143  2.0596
 7264SOL     OW22690   0.085   3.114   0.695  0.0333 -0.2952 -0.5803
 7264SOL    HW122691   0.057   3.159   0.610 -1.1250  0.0013 -0.0533
 7264SOL    HW222692   0.007   3.108   0.757  1.2494  1.0929  1.1796
 7265SOL     OW22693   3.025   0.657   5.731 -0.2239  0.4138  0.5253
 7265SOL    HW122694   3.107   0.603   5.716  0.0001  0.2044  2.3188
 7265SOL    HW222695   2.976   0.668   5.645  1.6735  0.5584 -0.5850
 7266SOL     OW22696   2.109   0.081   3.579 -0.7519 -0.2981 -0.1007
 7266SOL    HW122697   2.086   0.175   3.604 -0.5468 -0.3057  0.1200
 7266SOL    HW222698   2.135   0.078   3.482 -1.1398 -0.1973 -0.2104
 7267SOL     OW22699   6.180   2.206   3.786 -0.0231 -0.2033  0.4711
 7267SOL    HW122700   6.256   2.271   3.783  1.0289 -1.4283 -1.0461
 7267SOL    HW222701   6.095   2.252   3.759  0.3588  0.9394  1.1614
 7268SOL     OW22702   3.264   5.713   4.492  0.3274  0.5024 -0.2872
 7268SOL    HW122703   3.243   5.809   4.477 -1.4664  0.1823 -0.0717
 7268SOL    HW222704   3.359   5.695   4.467  0.3797  2.0871 -1.3684
 7269SOL     OW22705   1.256   4.607   3.005  0.2219 -0.0363  0.4719
 7269SOL    HW122706   1.336   4.576   2.954  0.8060  1.2323  0.5733
 7269SOL    HW222707   1.269   4.702   3.032 -0.4963 -0.3722  2.1313
 7270SOL     OW22708   6.907   1.497   5.168  0.0353 -0.1824 -0.2000
 7270SOL    HW122709   6.970   1.512   5.091 -0.9058  4.1768 -0.3433
 7270SOL    HW222710   6.813   1.502   5.135 -0.3755 -0.0045  0.9719
 7271SOL     OW22711   1.665   5.685   1.571  0.4231  0.0267 -0.0146
 7271SOL    HW122712   1.691   5.592   1.599  1.2252  0.7108  1.6227
 7271SOL    HW222713   1.646   5.686   1.473 -0.7897 -2.1208  0.1385
 7272SOL     OW22714   6.410   5.318   2.694  0.1272  0.3337  0.5857
 7272SOL    HW122715   6.480   5.253   2.721 -0.3086 -0.3429  0.1008
 7272SOL    HW222716   6.382   5.301   2.599  1.0422  2.1454 -0.0741
 7273SOL     OW22717   5.955   6.644   4.793  0.1271  0.4067  0.1648
 7273SOL    HW122718   5.993   6.566   4.743  0.2543  0.3947  0.2784
 7273SOL    HW222719   5.872   6.676   4.747  1.2453  1.5753 -1.1202
 7274SOL     OW22720   6.846   4.285   5.787  0.3921 -0.6968 -0.4239
 7274SOL    HW122721   6.810   4.210   5.732  0.2384 -0.7543 -0.2458
 7274SOL    HW222722   6.898   4.248   5.865 -2.0921 -0.7104  1.3393
 7275SOL     OW22723   6.393   0.243   2.721 -0.2251  0.6423 -0.4943
 7275SOL    HW122724   6.470   0.198   2.676 -0.7639 -0.1185 -0.6760
 7275SOL    HW222725   6.323   0.175   2.744 -0.2859  1.1243  0.8380
 7276SOL     OW22726   3.861   5.236   2.454 -0.8651  0.3471  0.3386
 7276SOL    HW122727   3.864   5.331   2.425 -0.7262  0.1182 -0.4149
 7276SOL    HW222728   3.901   5.178   2.383 -0.4862 -0.2238  0.9996
 7277SOL     OW22729   5.942   1.006   6.975 -0.1434 -0.8209  0.3284
 7277SOL    HW122730   6.042   1.005   6.983 -0.0454 -1.5267 -0.8019
 7277SOL    HW222731   5.903   1.052   7.055  1.1340  0.4270  0.2837
 7278SOL     OW22732   3.231   2.986   2.561 -0.2482  0.0079 -0.2354
 7278SOL    HW122733   3.284   2.928   2.622 -0.0007  0.2218 -0.2446
 7278SOL    HW222734   3.194   2.932   2.486  0.4556 -0.0298 -0.5548
 7279SOL     OW22735   1.496   0.679   0.384 -0.3177  0.5993  0.1584
 7279SOL    HW122736   1.429   0.647   0.452  1.9674  0.8243  2.6738
 7279SOL    HW222737   1.459   0.759   0.336 -2.1511  0.2202  0.8638
 7280SOL     OW22738   2.655   1.953   6.437  1.4525 -0.0811  0.5960
 7280SOL    HW122739   2.679   2.014   6.512 -1.7366 -0.7720  2.3212
 7280SOL    HW222740   2.640   1.861   6.473 -1.4069 -0.1672 -0.5863
 7281SOL     OW22741   6.302   1.753   0.692 -0.3852  0.8241 -0.6182
 7281SOL    HW122742   6.298   1.797   0.782  2.5030  2.1611 -1.0369
 7281SOL    HW222743   6.307   1.653   0.704 -0.0547  0.9793  0.7255
 7282SOL     OW22744   6.813   6.272   4.316  0.4334  0.0875  0.2117
 7282SOL    HW122745   6.850   6.297   4.227 -1.3475  2.4423  0.0342
 7282SOL    HW222746   6.887   6.269   4.383  1.5677 -0.0977 -1.0092
 7283SOL     OW22747   2.345   0.694   3.637  0.0824 -0.0275 -0.5574
 7283SOL    HW122748   2.443   0.704   3.649 -0.3318  2.0409  1.8091
 7283SOL    HW222749   2.313   0.758   3.567  0.3788 -0.7858 -1.4156
 7284SOL     OW22750   6.625   0.414   3.550 -0.3261 -0.4822  0.0787
 7284SOL    HW122751   6.655   0.324   3.582 -1.7353 -0.6197  1.1095
 7284SOL    HW222752   6.539   0.405   3.500  0.1229  0.1658 -0.8459
 7285SOL     OW22753   5.837   5.610   3.155 -0.2191 -0.0128  0.3111
 7285SOL    HW122754   5.906   5.656   3.211 -0.7614 -0.0742  1.0470
 7285SOL    HW222755   5.849   5.635   3.059 -0.0926  1.1204  0.6158
 7286SOL     OW22756   1.086   5.234   0.002 -0.3043  0.0661  0.4432
 7286SOL    HW122757   1.154   5.241   0.075  2.2367 -1.7382 -1.5479
 7286SOL    HW222758   1.033   5.151   0.014  0.7917 -0.7618 -0.2013
 7287SOL     OW22759   4.543   0.113   4.775  0.1332 -0.4177  0.0317
 7287SOL    HW122760   4.596   0.196   4.794  0.5132 -0.4479 -0.8626
 7287SOL    HW222761   4.459   0.114   4.830 -1.3794  2.0536 -2.0803
 7288SOL     OW22762   3.969   6.037   0.705 -0.0748 -0.4278 -0.5121
 7288SOL    HW122763   3.914   6.060   0.786 -0.0591 -1.1734 -0.2858
 7288SOL    HW222764   3.940   6.093   0.628  1.2305  1.7832  0.4801
 7289SOL     OW22765   4.519   0.958   3.390 -0.2991 -0.3657 -0.1781
 7289SOL    HW122766   4.451   0.886   3.398  0.1152 -0.7313  0.0994
 7289SOL    HW222767   4.603   0.921   3.350  0.5855 -0.5006  1.6866
 7290SOL     OW22768   1.982   6.524   5.209 -0.1715  0.0816 -0.0602
 7290SOL    HW122769   1.943   6.434   5.230 -0.9943  0.2444 -0.8356
 7290SOL    HW222770   1.909   6.590   5.195  0.4190  0.7685  0.0291
 7291SOL     OW22771   2.348   4.287   6.909 -0.2154 -0.0204  0.1061
 7291SOL    HW122772   2.390   4.378   6.903 -0.3307  0.0414  0.2140
 7291SOL    HW222773   2.337   4.249   6.817 -1.0666  0.4951 -0.0196
 7292SOL     OW22774   2.725   0.020   4.574  0.1512  0.1053  0.0384
 7292SOL    HW122775   2.804   0.026   4.512 -0.8641  1.8067 -1.1656
 7292SOL    HW222776   2.742   0.075   4.656  0.6100 -0.3668  0.2664
 7293SOL     OW22777   2.140   1.518   6.718  0.4985 -0.5462  0.2035
 7293SOL    HW122778   2.137   1.437   6.659 -1.4755  0.8353 -1.7607
 7293SOL    HW222779   2.232   1.556   6.718  0.6980 -0.9604 -1.5321
 7294SOL     OW22780   6.216   6.269   5.550 -0.1983  0.2535  0.0092
 7294SOL    HW122781   6.241   6.278   5.454 -0.9603 -1.0637 -0.3343
 7294SOL    HW222782   6.279   6.323   5.606  1.9743 -1.0980 -0.9880
 7295SOL     OW22783   3.115   6.940   2.661 -0.4038  0.2112  0.6770
 7295SOL    HW122784   3.168   6.914   2.742  3.2212  0.6949 -1.3689
 7295SOL    HW222785   3.095   7.038   2.664  0.2433  0.3450  0.7219
 7296SOL     OW22786   4.535   4.780   1.249 -0.3868 -0.0968 -0.1376
 7296SOL    HW122787   4.565   4.872   1.224  0.8898 -0.6243 -0.6270
 7296SOL    HW222788   4.614   4.726   1.279 -1.4524 -0.2625  2.7461
 7297SOL     OW22789   4.053   0.206   1.039 -0.5722 -0.1590 -0.7540
 7297SOL    HW122790   4.029   0.140   0.968 -0.6937 -2.3212  1.1789
 7297SOL    HW222791   3.982   0.206   1.110  1.6381 -1.4764  1.5997
 7298SOL     OW22792   4.735   2.238   4.859  0.9556 -0.3642  0.0561
 7298SOL    HW122793   4.778   2.212   4.945 -0.3006  1.1558  1.2065
 7298SOL    HW222794   4.742   2.338   4.848 -0.4754 -0.3341 -0.7004
 7299SOL     OW22795   6.237   3.654   1.080 -0.5889 -0.0978 -0.6910
 7299SOL    HW122796   6.284   3.586   1.024  0.2959  0.0611 -0.1669
 7299SOL    HW222797   6.225   3.619   1.173 -0.7812  0.1826 -0.6077
 7300SOL     OW22798   4.230   4.759   6.597 -0.6026  0.4129  0.4772
 7300SOL    HW122799   4.137   4.787   6.618 -0.8428  2.0315 -2.2051
 7300SOL    HW222800   4.295   4.816   6.647 -1.0321  0.3113  1.1651
 7301SOL     OW22801   6.884   2.740   4.868 -0.3859  0.1919 -0.1332
 7301SOL    HW122802   6.868   2.647   4.837 -0.6566 -0.3065  1.4191
 7301SOL    HW222803   6.815   2.765   4.936 -0.2099  1.4704 -0.3973
 7302SOL     OW22804   0.379   1.662   4.576 -0.0169 -0.3184 -0.1613
 7302SOL    HW122805   0.396   1.600   4.653  0.3964  0.4415  0.3640
 7302SOL    HW222806   0.354   1.608   4.495 -1.5910 -1.0701  0.7813
 7303SOL     OW22807   3.429   1.511   2.000  0.1814  0.5380  1.0051
 7303SOL    HW122808   3.468   1.420   1.987 -0.7716  0.6070 -5.0287
 7303SOL    HW222809   3.333   1.503   2.026 -0.1256 -0.3108 -0.2837
 7304SOL     OW22810   3.547   4.166   3.952 -0.4260  0.0221 -0.5882
 7304SOL    HW122811   3.547   4.170   3.852 -0.2389  1.0664 -0.5570
 7304SOL    HW222812   3.453   4.180   3.986 -0.6912 -1.4530 -0.6316
 7305SOL     OW22813   6.336   0.627   4.751  0.4949  0.0108 -0.6578
 7305SOL    HW122814   6.371   0.537   4.779  1.9443  0.3126 -1.3889
 7305SOL    HW222815   6.246   0.615   4.708  0.1652 -0.9427  0.2401
 7306SOL     OW22816   5.390   5.462   1.161  0.5541  0.0581  0.2898
 7306SOL    HW122817   5.370   5.519   1.081  2.7537 -1.0260 -1.1167
 7306SOL    HW222818   5.308   5.410   1.186 -0.1881  0.4551 -1.2304
 7307SOL     OW22819   2.894   5.000   3.793 -0.0182  0.2136 -0.1831
 7307SOL    HW122820   2.816   4.949   3.831  0.8734  0.7039  2.5817
 7307SOL    HW222821   2.861   5.067   3.726 -1.7651 -0.6749 -0.2668
 7308SOL     OW22822   5.362   6.889   2.338 -0.0175 -0.1337 -0.1713
 7308SOL    HW122823   5.438   6.823   2.341 -0.0616 -0.1947 -0.3987
 7308SOL    HW222824   5.278   6.844   2.368 -0.2961 -0.5229 -1.4877
 7309SOL     OW22825   4.559   3.724   0.529 -0.1098 -0.7056 -0.0475
 7309SOL    HW122826   4.483   3.771   0.574  1.9256  0.3283  2.6245
 7309SOL    HW222827   4.645   3.769   0.554  1.6298 -3.3976 -0.7331
 7310SOL     OW22828   6.471   5.212   2.381  0.0785 -0.3091 -0.1838
 7310SOL    HW122829   6.449   5.309   2.381  3.3046  0.5392  0.3743
 7310SOL    HW222830   6.534   5.192   2.307 -0.1971 -1.9031 -0.0253
 7311SOL     OW22831   3.710   2.073   3.703 -0.5783  0.7970 -0.4408
 7311SOL    HW122832   3.717   1.977   3.677  0.1705  1.0433 -1.2067
 7311SOL    HW222833   3.784   2.096   3.767 -1.5031  0.5718  0.7501
 7312SOL     OW22834   6.209   2.911   4.698  0.4374 -0.2501  0.0414
 7312SOL    HW122835   6.267   2.949   4.626 -0.2583 -0.4660 -0.6402
 7312SOL    HW222836   6.122   2.882   4.659 -0.6253  1.1850  1.2526
 7313SOL     OW22837   3.630   2.730   1.010  0.0657  0.5655 -0.5728
 7313SOL    HW122838   3.549   2.786   1.027 -0.6133 -1.0215  2.0741
 7313SOL    HW222839   3.602   2.643   0.968  0.5392  0.4416 -0.6338
 7314SOL     OW22840   5.498   2.048   5.792  0.1937 -0.4641  0.3860
 7314SOL    HW122841   5.444   1.998   5.859  1.0555 -1.3213  0.4626
 7314SOL    HW222842   5.547   2.122   5.838  1.4017 -1.5375  0.8709
 7315SOL     OW22843   6.261   0.259   5.805 -0.3376  0.5053  0.2035
 7315SOL    HW122844   6.342   0.201   5.806  0.0992  1.1101  0.5755
 7315SOL    HW222845   6.205   0.241   5.886 -1.4602 -1.1044 -0.8617
 7316SOL     OW22846   4.041   3.344   3.722  0.5901 -0.0011 -0.1733
 7316SOL    HW122847   3.942   3.337   3.736  0.5330 -0.5723 -0.8314
 7316SOL    HW222848   4.080   3.403   3.793  0.2789 -2.4492  2.1936
 7317SOL     OW22849   1.709   0.344   2.665 -0.5932  0.2918  0.1281
 7317SOL    HW122850   1.780   0.350   2.736 -0.7749 -0.7018  0.4047
 7317SOL    HW222851   1.639   0.279   2.693 -1.5521  1.1522 -0.2176
 7318SOL     OW22852   1.918   6.956   4.218 -0.4586  0.0037  0.2146
 7318SOL    HW122853   1.894   7.052   4.232 -2.1021 -0.1251 -1.3136
 7318SOL    HW222854   2.001   6.950   4.162  0.7401  0.4839  1.8687
 7319SOL     OW22855   1.285   3.617   1.069  0.1432  0.1422 -0.4337
 7319SOL    HW122856   1.220   3.627   0.994 -0.0998 -1.4277 -0.4617
 7319SOL    HW222857   1.263   3.681   1.142 -1.3050 -0.2129 -0.5368
 7320SOL     OW22858   0.598   1.195   1.882  0.5850  0.4233 -0.8902
 7320SOL    HW122859   0.629   1.240   1.965  2.0552  0.9099 -1.6525
 7320SOL    HW222860   0.538   1.119   1.905  1.9097 -0.1976  0.6904
 7321SOL     OW22861   4.006   0.512   3.864  0.1187  0.3245 -0.5162
 7321SOL    HW122862   3.942   0.435   3.863 -0.6408  0.9201  0.7320
 7321SOL    HW222863   3.957   0.596   3.886  1.4624  0.6471  1.4191
 7322SOL     OW22864   1.177   0.397   1.888  0.1561 -0.6989 -0.3154
 7322SOL    HW122865   1.146   0.473   1.831  2.8903  0.2980 -0.6385
 7322SOL    HW222866   1.100   0.360   1.940 -1.6057  1.0817 -1.5199
 7323SOL     OW22867   3.125   0.125   1.152  0.3634  0.0646  0.4083
 7323SOL    HW122868   3.169   0.119   1.242 -3.1295  1.4033  2.3742
 7323SOL    HW222869   3.145   0.214   1.112  1.0907 -0.1284  0.3334
 7324SOL     OW22870   3.784   4.862   3.438  0.1005 -0.0342  0.7470
 7324SOL    HW122871   3.769   4.859   3.537  1.1246  1.9993  1.0165
 7324SOL    HW222872   3.882   4.870   3.420  0.2940 -3.6746 -0.6029
 7325SOL     OW22873   3.406   6.861   0.184  0.1271  0.2923 -0.5261
 7325SOL    HW122874   3.350   6.819   0.113  1.0389 -0.3117 -0.9212
 7325SOL    HW222875   3.381   6.822   0.273 -1.6342  1.7034 -0.3598
 7326SOL     OW22876   1.981   1.417   3.560 -0.3046 -0.1524  0.0341
 7326SOL    HW122877   1.934   1.347   3.614 -0.0517  0.0465  0.5243
 7326SOL    HW222878   2.079   1.413   3.580 -0.3376  0.6087  0.3842
 7327SOL     OW22879   2.968   2.234   6.776  0.1577 -0.1063 -0.3157
 7327SOL    HW122880   2.901   2.280   6.717 -0.0342 -0.4743 -0.3884
 7327SOL    HW222881   3.058   2.241   6.734  0.3199  1.0988  0.1770
 7328SOL     OW22882   4.274   5.407   6.453 -0.1275 -0.2082  0.2138
 7328SOL    HW122883   4.208   5.443   6.387  0.1580 -1.4722 -0.7863
 7328SOL    HW222884   4.231   5.399   6.543 -0.4684  1.7010  0.2715
 7329SOL     OW22885   2.207   3.062   1.224 -0.1913  0.1849 -0.1583
 7329SOL    HW122886   2.180   3.077   1.129 -0.6231  0.0389 -0.0621
 7329SOL    HW222887   2.277   2.992   1.229 -1.5195 -1.1931 -0.2217
 7330SOL     OW22888   1.182   3.018   3.129 -0.0513  0.3948  0.4589
 7330SOL    HW122889   1.227   3.104   3.104  0.8076  0.1693  1.1748
 7330SOL    HW222890   1.173   3.013   3.229 -0.4786 -0.1619  0.3969
 7331SOL     OW22891   0.486   2.646   0.303 -0.4488 -0.2461  0.1407
 7331SOL    HW122892   0.466   2.564   0.357 -2.9458 -0.7616 -1.3921
 7331SOL    HW222893   0.459   2.728   0.355  2.9269 -0.1590  2.0726
 7332SOL     OW22894   3.796   6.649   1.681 -0.2236 -0.0592 -0.0254
 7332SOL    HW122895   3.794   6.571   1.618 -1.6797 -0.7043  0.7777
 7332SOL    HW222896   3.708   6.696   1.680  0.5448  1.4538 -0.2992
 7333SOL     OW22897   0.824   4.026   1.634 -0.6508  0.5044  0.3449
 7333SOL    HW122898   0.781   4.064   1.552 -0.2561  1.7958  0.7196
 7333SOL    HW222899   0.923   4.030   1.625 -0.6007 -0.3393  0.4489
 7334SOL     OW22900   2.537   6.710   3.354  0.2634  0.8244 -0.1519
 7334SOL    HW122901   2.473   6.774   3.310 -1.2257 -0.6411 -0.1831
 7334SOL    HW222902   2.492   6.665   3.431  1.5296  0.3198  0.3183
 7335SOL     OW22903   2.914   1.353   5.064  0.5675  0.6940 -0.1379
 7335SOL    HW122904   2.832   1.302   5.090 -0.0516  0.2690 -2.6672
 7335SOL    HW222905   2.909   1.377   4.967  3.0033  1.5263 -0.1245
 7336SOL     OW22906   0.746   6.014   5.263  0.5648 -0.1818  0.0528
 7336SOL    HW122907   0.716   6.075   5.190 -2.2202 -0.1443  1.1233
 7336SOL    HW222908   0.755   5.921   5.228  0.4020  0.0304 -0.5688
 7337SOL     OW22909   6.641   3.666   1.256 -0.3595 -0.4277 -0.4406
 7337SOL    HW122910   6.623   3.644   1.352 -1.6347 -0.1548 -0.6015
 7337SOL    HW222911   6.590   3.603   1.197 -0.5055  0.1371 -0.9291
 7338SOL     OW22912   1.318   3.968   0.193  0.1635  0.4051 -0.4663
 7338SOL    HW122913   1.269   3.927   0.117 -0.4728  2.3094 -1.1497
 7338SOL    HW222914   1.296   4.066   0.198 -0.0459  0.2847  2.3552
 7339SOL     OW22915   0.665   4.993   4.226  0.3320  0.0855  0.6975
 7339SOL    HW122916   0.626   4.905   4.255  1.2507 -0.4040  0.5024
 7339SOL    HW222917   0.598   5.043   4.172  1.0490 -2.2670 -2.6432
 7340SOL     OW22918   3.812   1.087   4.948 -0.0463 -0.1292  0.1217
 7340SOL    HW122919   3.793   1.044   4.860 -1.8848 -0.4738  0.6358
 7340SOL    HW222920   3.891   1.044   4.991 -0.8495 -1.9019 -0.1084
 7341SOL     OW22921   5.280   3.597   6.737  0.5492 -0.1714  0.0786
 7341SOL    HW122922   5.232   3.626   6.820  0.5130 -0.2954  0.1018
 7341SOL    HW222923   5.265   3.665   6.665  0.9136  0.1363  0.2922
 7342SOL     OW22924   2.557   6.258   2.986 -0.2973  0.3007  0.2685
 7342SOL    HW122925   2.651   6.227   3.000 -1.1598 -2.7906 -0.1521
 7342SOL    HW222926   2.516   6.282   3.074  0.9457  2.0457  0.4143
 7343SOL     OW22927   0.263   4.083   0.343 -0.2913  0.5325 -0.9650
 7343SOL    HW122928   0.328   4.013   0.371  1.4293  1.2634 -2.9064
 7343SOL    HW222929   0.301   4.174   0.361 -1.7967  1.0182 -0.0096
 7344SOL     OW22930   2.437   0.856   5.060 -0.1742  0.5891  0.5431
 7344SOL    HW122931   2.492   0.839   5.142  1.1025  1.9746  0.0226
 7344SOL    HW222932   2.352   0.902   5.086 -0.6372 -0.6230  1.2549
 7345SOL     OW22933   5.488   6.430   1.099  0.1340  0.5067  0.6715
 7345SOL    HW122934   5.582   6.461   1.111  0.2374 -0.2141  1.9038
 7345SOL    HW222935   5.425   6.499   1.134  0.2390  0.6551  0.5671
 7346SOL     OW22936   5.562   4.492   1.607 -0.1374  0.1042 -0.0994
 7346SOL    HW122937   5.504   4.546   1.667  0.9375 -2.3223  3.4839
 7346SOL    HW222938   5.657   4.523   1.616  0.4316 -1.8833  1.6990
 7347SOL     OW22939   4.037   6.857   6.559  0.3255 -0.3098 -0.0791
 7347SOL    HW122940   3.981   6.921   6.612  1.5660 -0.0310  0.9527
 7347SOL    HW222941   4.051   6.773   6.612  1.0276 -0.3011 -0.2460
 7348SOL     OW22942   0.296   5.763   0.357 -0.3990 -0.5426 -0.0243
 7348SOL    HW122943   0.234   5.704   0.409 -0.5329 -0.6145 -0.2673
 7348SOL    HW222944   0.286   5.857   0.388 -2.7810 -0.0448 -2.0562
 7349SOL     OW22945   5.306   0.263   5.259 -0.9658 -0.1257 -0.2413
 7349SOL    HW122946   5.384   0.293   5.204 -1.4144  1.4654 -0.0818
 7349SOL    HW222947   5.255   0.192   5.210  1.2614 -2.1407  0.2064
 7350SOL     OW22948   3.025   0.215   6.709  0.2242  0.1486  0.2158
 7350SOL    HW122949   2.953   0.147   6.699  1.0743 -0.3847 -4.5930
 7350SOL    HW222950   3.098   0.179   6.768 -1.3786 -1.1356  1.4883
 7351SOL     OW22951   3.394   3.623   5.251  0.1229  0.1918 -0.4437
 7351SOL    HW122952   3.350   3.554   5.308  0.0168 -0.4297 -1.2606
 7351SOL    HW222953   3.485   3.591   5.224 -0.2200  0.0292 -1.4476
 7352SOL     OW22954   6.880   1.373   3.161  0.5818 -0.1707  0.1888
 7352SOL    HW122955   6.979   1.361   3.155  0.5925 -0.5159  0.9061
 7352SOL    HW222956   6.852   1.363   3.257 -0.1082  0.2071  0.0274
 7353SOL     OW22957   1.434   1.543   3.976 -0.2646 -0.7611  0.3684
 7353SOL    HW122958   1.345   1.501   3.990 -0.5314 -1.0264 -1.8018
 7353SOL    HW222959   1.422   1.636   3.940  0.3105 -0.9232 -0.2657
 7354SOL     OW22960   5.422   2.045   3.464  0.4137 -0.2574  0.6738
 7354SOL    HW122961   5.483   1.988   3.520  2.0869  0.0982 -0.6816
 7354SOL    HW222962   5.466   2.062   3.376 -0.9511  1.4435  0.2842
 7355SOL     OW22963   4.625   1.665   0.830  0.8366 -0.2425  0.1627
 7355SOL    HW122964   4.699   1.662   0.763 -0.3903 -0.3545 -1.2119
 7355SOL    HW222965   4.619   1.577   0.876  1.2663 -0.3746 -0.0239
 7356SOL     OW22966   4.807   5.352   5.554 -0.2411  0.5177  0.0853
 7356SOL    HW122967   4.823   5.450   5.561 -2.0141  0.7398  1.3800
 7356SOL    HW222968   4.709   5.333   5.556  0.0546 -1.2743 -0.4249
 7357SOL     OW22969   5.741   1.414   3.700 -0.4676 -0.4794 -1.0323
 7357SOL    HW122970   5.774   1.479   3.768 -0.6826  0.1377 -1.5129
 7357SOL    HW222971   5.794   1.422   3.616 -0.6972 -0.7064 -1.2048
 7358SOL     OW22972   4.081   0.402   2.875  0.7360 -0.4979  0.2257
 7358SOL    HW122973   4.175   0.435   2.882  1.2945 -1.8588 -0.5459
 7358SOL    HW222974   4.038   0.407   2.965  1.4470  0.3833  0.5349
 7359SOL     OW22975   1.398   1.856   1.293 -0.5243 -0.1608 -0.2039
 7359SOL    HW122976   1.342   1.938   1.286 -0.4869 -0.0450  0.7149
 7359SOL    HW222977   1.494   1.880   1.277 -0.7338 -0.4251 -2.1742
 7360SOL     OW22978   2.135   4.392   5.145 -0.3171 -0.1145 -0.3627
 7360SOL    HW122979   2.149   4.458   5.072 -1.2407 -0.7829 -1.1833
 7360SOL    HW222980   2.042   4.354   5.138 -0.1150 -0.8357  0.6250
 7361SOL     OW22981   6.182   0.333   3.567 -0.1501  0.0261  0.0958
 7361SOL    HW122982   6.158   0.287   3.653  0.9564  1.5665  1.2887
 7361SOL    HW222983   6.276   0.309   3.543 -0.5784 -0.6888 -0.9157
 7362SOL     OW22984   3.898   5.490   0.244 -0.1527 -0.2327  0.0669
 7362SOL    HW122985   3.967   5.437   0.294 -0.7856  0.1099  1.3350
 7362SOL    HW222986   3.919   5.488   0.147  1.6126 -0.1926  0.4204
 7363SOL     OW22987   4.161   6.781   1.946 -0.2231 -0.5103 -0.3726
 7363SOL    HW122988   4.097   6.844   1.991  0.8081 -0.4222  1.0603
 7363SOL    HW222989   4.236   6.833   1.906 -0.0135 -0.7397 -0.2820
 7364SOL     OW22990   6.388   0.117   0.257  0.4429 -0.1977 -0.0564
 7364SOL    HW122991   6.443   0.199   0.244 -0.5747  0.2663 -1.7103
 7364SOL    HW222992   6.414   0.047   0.191  0.6371 -0.8777  0.7096
 7365SOL     OW22993   4.941   6.323   6.361  0.2308  0.2017 -0.7832
 7365SOL    HW122994   4.997   6.349   6.439 -1.1672 -0.2317  0.4165
 7365SOL    HW222995   4.965   6.230   6.333 -2.2687 -1.5165  2.1408
 7366SOL     OW22996   1.352   6.703   3.933 -0.2582 -0.7491  0.5002
 7366SOL    HW122997   1.343   6.604   3.921 -1.0654 -0.5950 -0.2222
 7366SOL    HW222998   1.299   6.751   3.863 -0.2156  0.1988  1.0931
 7367SOL     OW22999   3.998   1.726   1.263  0.0756 -0.5360  0.0477
 7367SOL    HW123000   3.967   1.730   1.169 -0.0277 -0.7278  0.0717
 7367SOL    HW223001   3.934   1.775   1.322  1.4495  1.8136 -0.2896
 7368SOL     OW23002   3.930   3.534   3.063  0.0505 -0.3364  0.0265
 7368SOL    HW123003   3.868   3.569   2.993  2.0385  0.0627 -1.6164
 7368SOL    HW223004   3.882   3.465   3.117 -1.7096 -0.3111 -1.3916
 7369SOL     OW23005   5.940   4.026   5.522 -0.2620 -0.4681  0.0151
 7369SOL    HW123006   5.892   4.113   5.535  1.0047  0.1874  0.5021
 7369SOL    HW223007   5.952   3.981   5.611  1.9995  0.5047  0.2900
 7370SOL     OW23008   1.615   4.805   4.321  0.0195 -0.7366  0.1729
 7370SOL    HW123009   1.588   4.726   4.266  0.0763 -0.4702 -0.2449
 7370SOL    HW223010   1.573   4.888   4.283  0.2999 -0.5086  0.3540
 7371SOL     OW23011   3.807   5.988   4.404 -0.5514 -0.0418  0.5473
 7371SOL    HW123012   3.707   5.990   4.414 -0.6328  0.2835 -0.2849
 7371SOL    HW223013   3.849   6.035   4.482 -1.0316 -0.4530  1.0655
 7372SOL     OW23014   4.884   0.877   6.684 -0.4781  0.3235  0.0874
 7372SOL    HW123015   4.940   0.827   6.619 -0.7934  0.5815 -0.3900
 7372SOL    HW223016   4.846   0.813   6.752 -0.0828  0.0679  0.0687
 7373SOL     OW23017   0.553   2.779   3.376  0.0392  0.3316 -0.0493
 7373SOL    HW123018   0.619   2.853   3.363 -0.8388  1.6800  2.5031
 7373SOL    HW223019   0.483   2.783   3.304  1.4974  0.1810 -1.5509
 7374SOL     OW23020   6.219   4.909   3.868  0.6000 -0.3348  0.3170
 7374SOL    HW123021   6.238   4.994   3.918  1.5326 -0.1745 -0.2997
 7374SOL    HW223022   6.131   4.872   3.898 -1.4779  2.5575 -1.6963
 7375SOL     OW23023   2.856   3.392   1.614  0.3995 -0.3959 -0.5599
 7375SOL    HW123024   2.925   3.321   1.597 -0.0440 -1.1194  0.4980
 7375SOL    HW223025   2.845   3.404   1.713  1.6172  2.3294 -0.6788
 7376SOL     OW23026   4.873   5.695   0.710 -0.6690 -0.1605  0.1718
 7376SOL    HW123027   4.854   5.618   0.772  1.4190 -0.5996  0.3586
 7376SOL    HW223028   4.788   5.727   0.669 -1.6061 -2.6432  0.0047
 7377SOL     OW23029   3.184   5.968   1.539  0.3004 -0.2220  0.1913
 7377SOL    HW123030   3.197   6.063   1.568  0.4642 -0.2007  0.0564
 7377SOL    HW223031   3.087   5.949   1.528  0.3154  0.9777 -3.0976
 7378SOL     OW23032   3.184   5.881   4.901 -0.0747 -0.0808 -0.9453
 7378SOL    HW123033   3.215   5.809   4.963  0.3589 -0.3240 -1.4442
 7378SOL    HW223034   3.183   5.968   4.950 -0.7934 -0.4493 -0.2812
 7379SOL     OW23035   5.843   2.516   2.446 -0.2415 -0.5393  0.0436
 7379SOL    HW123036   5.831   2.433   2.501  0.3921 -0.5016  0.2522
 7379SOL    HW223037   5.876   2.590   2.504 -0.8948 -0.1095 -0.1239
 7380SOL     OW23038   4.858   5.257   6.655 -0.4245  0.0622 -0.2548
 7380SOL    HW123039   4.760   5.247   6.640 -0.2783  0.4973 -1.6614
 7380SOL    HW223040   4.886   5.200   6.731 -2.1279  1.5313  1.5839
 7381SOL     OW23041   1.331   1.705   6.997  0.5705  0.0884  0.2562
 7381SOL    HW123042   1.383   1.621   6.991  0.0737 -0.1045 -2.1847
 7381SOL    HW223043   1.271   1.714   6.918 -0.0397  2.3232  0.8737
 7382SOL     OW23044   6.555   4.634   6.163 -0.3383  0.0150 -0.0576
 7382SOL    HW123045   6.641   4.659   6.208  0.3785  2.5387 -2.5596
 7382SOL    HW223046   6.574   4.579   6.082 -1.4750 -2.8121  1.4588
 7383SOL     OW23047   3.861   0.655   0.671 -0.0692 -0.2254 -1.0661
 7383SOL    HW123048   3.813   0.733   0.709 -0.1714 -0.1377 -1.3712
 7383SOL    HW223049   3.799   0.577   0.664  0.1380 -0.4588 -0.3836
 7384SOL     OW23050   0.537   1.546   6.236 -0.3692 -0.1081  0.2461
 7384SOL    HW123051   0.462   1.588   6.184  0.5060  1.6594  0.3550
 7384SOL    HW223052   0.506   1.458   6.273 -1.2059 -1.2512 -2.8120
 7385SOL     OW23053   0.247   3.472   1.509 -0.4148 -0.4300  0.1909
 7385SOL    HW123054   0.198   3.385   1.506 -0.3801 -0.4435 -0.0074
 7385SOL    HW223055   0.342   3.457   1.538 -0.0947 -0.6045 -0.9093
 7386SOL     OW23056   0.102   4.355   6.369 -0.0848  0.2883 -0.3674
 7386SOL    HW123057   0.170   4.406   6.422 -0.5725  1.1568 -0.5399
 7386SOL    HW223058   0.148   4.288   6.311  0.5277  0.0325  0.3988
 7387SOL     OW23059   6.671   0.278   2.268  1.0319  0.1246 -0.0273
 7387SOL    HW123060   6.710   0.220   2.340  0.1277 -0.7578 -0.2242
 7387SOL    HW223061   6.746   0.318   2.215  1.6940 -0.1885  0.6367
 7388SOL     OW23062   1.301   3.335   3.001  0.3472 -0.2570  0.3342
 7388SOL    HW123063   1.229   3.371   3.060  0.0577  1.4406 -0.9805
 7388SOL    HW223064   1.382   3.315   3.056 -1.2429 -2.8196  1.9643
 7389SOL     OW23065   0.598   1.719   0.615 -0.1934  0.2417 -0.0764
 7389SOL    HW123066   0.609   1.788   0.686 -3.3693  0.7984  0.0200
 7389SOL    HW223067   0.656   1.742   0.537  1.5093  0.9664  1.3255
 7390SOL     OW23068   4.882   3.210   3.070  0.2434  0.0550  0.9625
 7390SOL    HW123069   4.839   3.216   3.160 -0.3377 -0.3415  0.7253
 7390SOL    HW223070   4.828   3.148   3.012 -1.6193  3.1726 -0.9071
 7391SOL     OW23071   3.457   2.948   1.341 -0.2135  0.6901 -0.3775
 7391SOL    HW123072   3.537   2.998   1.376 -1.3539  2.3681 -0.0909
 7391SOL    HW223073   3.488   2.876   1.280  1.4649  3.0870 -2.5585
 7392SOL     OW23074   5.577   4.410   0.175 -0.0374  0.1598 -0.2084
 7392SOL    HW123075   5.561   4.368   0.264 -1.2408  2.2285  0.6261
 7392SOL    HW223076   5.491   4.442   0.136  0.3234 -1.4956 -2.6061
 7393SOL     OW23077   4.357   5.694   3.791  0.1654 -0.2908 -0.3699
 7393SOL    HW123078   4.354   5.790   3.820 -0.0462 -1.1118  2.7094
 7393SOL    HW223079   4.419   5.685   3.713  0.4163  2.2929 -0.5582
 7394SOL     OW23080   1.315   1.513   6.007 -0.3505  0.2086 -0.5345
 7394SOL    HW123081   1.408   1.508   5.970 -0.9987  1.2990 -2.5055
 7394SOL    HW223082   1.302   1.601   6.053  0.2163 -0.8400  1.7591
 7395SOL     OW23083   3.310   5.843   6.365 -0.0079  0.3093 -0.7591
 7395SOL    HW123084   3.380   5.875   6.429 -1.4677  2.0559  0.0790
 7395SOL    HW223085   3.348   5.839   6.273  1.9442 -1.5456  0.0376
 7396SOL     OW23086   0.993   4.278   1.990 -0.2389 -0.0749 -0.2188
 7396SOL    HW123087   0.921   4.210   2.000  0.3596 -0.5377  1.2690
 7396SOL    HW223088   0.953   4.369   1.983 -0.9624 -0.2075  1.7785
 7397SOL     OW23089   4.249   5.456   4.882  0.7069  0.4260 -0.2640
 7397SOL    HW123090   4.219   5.372   4.926  1.2242 -0.1566 -1.0003
 7397SOL    HW223091   4.175   5.493   4.826  0.1378  1.0238  0.8485
 7398SOL     OW23092   3.310   6.475   1.693  0.0388 -0.3558  0.1209
 7398SOL    HW123093   3.313   6.566   1.652  0.2773 -1.2958 -2.1121
 7398SOL    HW223094   3.238   6.472   1.762  0.1458  1.5567  0.3607
 7399SOL     OW23095   4.766   3.758   5.296  0.2028 -0.0400  0.2668
 7399SOL    HW123096   4.724   3.676   5.256 -2.1153 -0.0602  2.4750
 7399SOL    HW223097   4.803   3.816   5.223  0.5438 -2.2764 -1.4605
 7400SOL     OW23098   2.829   3.844   5.136  0.4122 -0.7371 -0.1074
 7400SOL    HW123099   2.872   3.890   5.058  3.8128 -1.2843  1.2409
 7400SOL    HW223100   2.811   3.749   5.113  0.9479 -0.7739 -0.3870
 7401SOL     OW23101   2.924   6.958   3.790 -0.4016 -0.6122 -0.2865
 7401SOL    HW123102   2.982   6.987   3.714 -0.5829 -1.1325 -0.6303
 7401SOL    HW223103   2.854   7.026   3.807 -0.1331 -0.3198 -0.3384
 7402SOL     OW23104   2.812   5.035   4.500 -0.1882  0.1042 -0.1276
 7402SOL    HW123105   2.859   5.069   4.581 -1.2282 -0.4648  0.7322
 7402SOL    HW223106   2.809   5.108   4.431  1.1738  0.4192  0.1146
 7403SOL     OW23107   1.052   4.902   4.701 -0.3706 -0.2055  0.2560
 7403SOL    HW123108   1.030   4.898   4.604 -2.0029  1.7881  0.4691
 7403SOL    HW223109   1.121   4.834   4.723 -0.7205 -1.4001 -2.0856
 7404SOL     OW23110   0.535   2.413   2.432 -0.6222  0.3357 -0.3215
 7404SOL    HW123111   0.572   2.479   2.366  0.5143  1.2209  1.1247
 7404SOL    HW223112   0.496   2.335   2.383  2.2748 -0.2125 -2.0346
 7405SOL     OW23113   4.432   5.482   0.218 -0.0925  0.1419 -0.1344
 7405SOL    HW123114   4.377   5.398   0.219 -1.1124  0.7784 -0.9047
 7405SOL    HW223115   4.462   5.503   0.311 -1.3005 -0.1374  0.3406
 7406SOL     OW23116   0.257   2.165   3.562 -0.2074 -0.3634  0.1332
 7406SOL    HW123117   0.232   2.152   3.466  0.1228 -0.2366  0.0260
 7406SOL    HW223118   0.357   2.168   3.569 -0.2196 -0.9084  0.5521
 7407SOL     OW23119   2.071   0.252   4.076 -0.6195  0.0188  0.2809
 7407SOL    HW123120   2.158   0.212   4.105 -1.3437 -2.3336 -0.5803
 7407SOL    HW223121   2.042   0.320   4.143  1.9279  0.9881  0.5092
 7408SOL     OW23122   5.373   0.590   4.852  0.2333 -0.3711 -0.3620
 7408SOL    HW123123   5.376   0.682   4.812 -1.0627 -0.3309 -0.4150
 7408SOL    HW223124   5.294   0.583   4.913  0.1621 -1.5340 -0.5607
 7409SOL     OW23125   6.561   6.059   6.189  0.4361 -0.0259  0.4605
 7409SOL    HW123126   6.556   5.960   6.199  1.9960 -0.0544  1.2027
 7409SOL    HW223127   6.608   6.083   6.104 -0.2441  0.0913  0.1108
 7410SOL     OW23128   6.418   3.092   0.933 -0.2041 -0.2011 -0.0089
 7410SOL    HW123129   6.489   3.092   1.003 -1.5584  0.9315  1.4354
 7410SOL    HW223130   6.361   3.173   0.943 -2.4692 -1.6686 -0.2821
 7411SOL     OW23131   4.615   1.657   5.814  0.3290 -0.6688 -0.0349
 7411SOL    HW123132   4.547   1.714   5.862  1.4034 -0.9436  1.9124
 7411SOL    HW223133   4.698   1.710   5.798  0.3006 -0.8537 -0.8246
 7412SOL     OW23134   4.529   6.603   5.592  0.2398 -0.1459  0.1494
 7412SOL    HW123135   4.522   6.504   5.610  2.3130 -1.0715 -3.3124
 7412SOL    HW223136   4.619   6.636   5.621 -0.1412  0.5922  0.5287
 7413SOL     OW23137   2.935   1.164   2.685  0.1694  0.1801 -0.0715
 7413SOL    HW123138   2.948   1.163   2.586  0.5503  0.7841 -0.0337
 7413SOL    HW223139   3.011   1.212   2.728 -0.1440  0.1793  0.4940
 7414SOL     OW23140   1.775   2.966   3.269  0.3005  0.6316 -0.4875
 7414SOL    HW123141   1.686   3.011   3.266 -0.8712 -1.5696 -0.9050
 7414SOL    HW223142   1.831   2.996   3.192 -1.5774 -0.7321 -2.4983
 7415SOL     OW23143   4.583   7.008   4.545 -0.3056  0.5042 -0.2362
 7415SOL    HW123144   4.638   7.070   4.489  1.5310 -1.1728 -0.4001
 7415SOL    HW223145   4.570   7.048   4.636 -0.1921  1.6169 -0.6842
 7416SOL     OW23146   0.945   1.722   0.890 -0.2257 -0.6024 -0.2544
 7416SOL    HW123147   0.962   1.735   0.793  0.0836  1.4026  0.0245
 7416SOL    HW223148   0.875   1.787   0.921  0.9106  0.0076  1.1847
 7417SOL     OW23149   5.872   1.930   1.399  0.5616 -0.2271 -0.3060
 7417SOL    HW123150   5.894   1.884   1.313  0.9268 -0.5400 -0.0511
 7417SOL    HW223151   5.792   1.988   1.387  1.0293  0.2876 -1.0507
 7418SOL     OW23152   3.143   3.028   6.885 -0.0567  0.6189 -0.1170
 7418SOL    HW123153   3.203   2.951   6.864 -0.7640  0.3816 -1.3301
 7418SOL    HW223154   3.102   3.015   6.975  0.9888  0.3418  0.3426
 7419SOL     OW23155   5.166   3.092   4.249 -0.6048  0.1926 -0.5976
 7419SOL    HW123156   5.115   3.103   4.334  1.6950  0.7152  0.8171
 7419SOL    HW223157   5.134   3.011   4.201 -0.9618 -1.0139  1.5422
 7420SOL     OW23158   1.276   0.148   1.718 -0.6084  0.0483 -0.0657
 7420SOL    HW123159   1.291   0.194   1.806  0.6298 -0.9654  0.2872
 7420SOL    HW223160   1.187   0.101   1.720 -0.7829  0.3888  0.4806
 7421SOL     OW23161   0.034   4.391   1.037 -0.5575 -0.2766  0.2606
 7421SOL    HW123162   0.081   4.318   1.087 -0.1922 -0.9637 -1.0463
 7421SOL    HW223163   0.071   4.397   0.945 -2.0469  0.1348 -0.3418
 7422SOL     OW23164   6.397   6.691   6.077  0.4219 -0.0487 -0.1944
 7422SOL    HW123165   6.467   6.680   6.148  0.9093 -0.7649 -0.7654
 7422SOL    HW223166   6.402   6.783   6.040 -0.5708  0.7146  1.4408
 7423SOL     OW23167   3.509   2.469   5.620  0.4180  0.2219 -0.0929
 7423SOL    HW123168   3.525   2.423   5.533 -0.7944 -0.7366  0.1719
 7423SOL    HW223169   3.419   2.511   5.619 -1.0352 -2.5684  1.8281
 7424SOL     OW23170   0.486   1.126   3.485  0.5454  0.7911 -0.1472
 7424SOL    HW123171   0.477   1.029   3.509 -1.1608  0.7818 -0.6847
 7424SOL    HW223172   0.481   1.182   3.568 -2.0698  0.5780 -0.0742
 7425SOL     OW23173   4.595   0.259   0.321  0.2355  0.5676 -0.0284
 7425SOL    HW123174   4.634   0.168   0.305 -1.3144 -0.0958 -0.2927
 7425SOL    HW223175   4.625   0.321   0.249 -1.0728 -0.5599 -1.6387
 7426SOL     OW23176   2.999   0.114   5.322  0.1338 -0.4362 -0.1358
 7426SOL    HW123177   2.962   0.184   5.383  1.5431  1.6443 -1.5172
 7426SOL    HW223178   2.988   0.143   5.227 -1.5090 -3.3304 -0.9447
 7427SOL     OW23179   3.755   5.246   2.705 -0.0985 -0.1880  0.1765
 7427SOL    HW123180   3.818   5.247   2.627  1.1735  0.9322  1.1658
 7427SOL    HW223181   3.801   5.283   2.785 -1.4045 -1.2561  1.4645
 7428SOL     OW23182   0.541   6.831   6.454 -0.0016  0.0416  0.1912
 7428SOL    HW123183   0.561   6.902   6.520  0.8424 -1.1992  1.3180
 7428SOL    HW223184   0.512   6.748   6.501  2.0163 -1.3459 -0.8634
 7429SOL     OW23185   0.238   1.040   2.314 -0.6124 -0.0512 -1.0311
 7429SOL    HW123186   0.161   0.978   2.328 -1.5887  1.0462 -1.3882
 7429SOL    HW223187   0.218   1.129   2.355  0.4581  0.2698 -1.1610
 7430SOL     OW23188   0.111   3.505   0.892 -0.4194 -0.2629 -0.1182
 7430SOL    HW123189   0.080   3.524   0.799 -1.1061 -1.0748 -0.0716
 7430SOL    HW223190   0.205   3.536   0.903  0.4648 -2.1153 -1.7625
 7431SOL     OW23191   1.216   2.696   4.249 -0.0170 -0.0056  0.1024
 7431SOL    HW123192   1.289   2.664   4.309 -0.6603  0.8450  1.3863
 7431SOL    HW223193   1.248   2.694   4.154  1.4271 -0.3054  0.5671
 7432SOL     OW23194   0.440   2.392   3.669  0.3138 -0.4589 -0.3796
 7432SOL    HW123195   0.457   2.399   3.570  0.0198  2.1016 -0.3269
 7432SOL    HW223196   0.397   2.477   3.701  0.1223 -1.3562  1.9130
 7433SOL     OW23197   3.246   1.683   1.260  0.2892  0.4359 -0.3701
 7433SOL    HW123198   3.212   1.592   1.237 -1.0985  0.7176  0.5002
 7433SOL    HW223199   3.170   1.746   1.270  1.1397  1.3555  0.5483
 7434SOL     OW23200   2.171   5.294   4.211 -0.0280  0.1606 -0.4080
 7434SOL    HW123201   2.124   5.277   4.298  0.4072  1.0107  0.0029
 7434SOL    HW223202   2.219   5.211   4.182  1.3334  0.3699  1.0952
 7435SOL     OW23203   5.412   4.679   3.111  0.1683 -0.2258 -0.5732
 7435SOL    HW123204   5.475   4.628   3.053 -2.3346 -1.8507 -2.0452
 7435SOL    HW223205   5.366   4.616   3.174 -0.3226  0.8312  0.1644
 7436SOL     OW23206   2.936   3.836   6.374  0.0984 -0.2519 -0.0644
 7436SOL    HW123207   2.869   3.805   6.307  1.8904 -1.6962 -1.2752
 7436SOL    HW223208   2.980   3.919   6.342  0.2226 -0.3588 -0.1696
 7437SOL     OW23209   4.183   0.477   0.934 -0.4069 -0.2065 -0.2367
 7437SOL    HW123210   4.187   0.512   0.841  0.1229  0.3393 -0.0155
 7437SOL    HW223211   4.124   0.397   0.937  0.0602 -0.6034 -1.1614
 7438SOL     OW23212   2.224   0.131   1.420 -0.4201  0.4869 -0.4029
 7438SOL    HW123213   2.209   0.212   1.362 -1.1312  0.6878  0.0485
 7438SOL    HW223214   2.294   0.152   1.488  1.3790 -0.1655 -1.9628
 7439SOL     OW23215   6.441   5.246   5.631  0.2989  0.1797  0.0227
 7439SOL    HW123216   6.383   5.326   5.619 -0.4032 -0.3119  0.0690
 7439SOL    HW223217   6.417   5.200   5.717  0.9607  0.1376  0.1903
 7440SOL     OW23218   5.817   0.998   3.867  0.2750  0.2648  0.3565
 7440SOL    HW123219   5.798   1.076   3.927 -1.3298  0.1100  0.0793
 7440SOL    HW223220   5.873   0.931   3.916 -1.1078  0.0831  1.7443
 7441SOL     OW23221   5.929   0.513   6.999  0.1365 -0.0103 -0.1387
 7441SOL    HW123222   5.936   0.594   6.940  1.5220 -0.8039 -1.1443
 7441SOL    HW223223   5.834   0.484   7.006 -0.2204  0.9597 -0.7978
 7442SOL     OW23224   0.027   1.276   0.758  0.3877 -0.5976  0.3470
 7442SOL    HW123225   0.011   1.339   0.682  1.1310 -1.2313 -0.3484
 7442SOL    HW223226  -0.045   1.287   0.826  0.6927  1.2945  0.4366
 7443SOL     OW23227   5.354   0.361   6.032 -0.3170 -0.0956  0.8322
 7443SOL    HW123228   5.268   0.334   5.990 -1.4590  2.6652  1.1713
 7443SOL    HW223229   5.339   0.390   6.126  0.8212  1.0165  0.7152
 7444SOL     OW23230   0.492   4.785   0.319  0.0625  0.1141 -0.3334
 7444SOL    HW123231   0.499   4.872   0.367 -2.5182  1.0065 -1.3938
 7444SOL    HW223232   0.523   4.711   0.378  1.0528  1.5883  1.0697
 7445SOL     OW23233   3.338   4.389   1.374 -0.4577  1.0418  0.7689
 7445SOL    HW123234   3.277   4.468   1.363 -2.7341 -0.7921 -0.7140
 7445SOL    HW223235   3.336   4.358   1.469 -0.8949  1.7259  0.9924
 7446SOL     OW23236   1.899   4.727   1.733 -0.8629  0.3134 -0.4426
 7446SOL    HW123237   1.998   4.716   1.726 -1.0285 -1.2966 -0.5907
 7446SOL    HW223238   1.866   4.683   1.816 -1.1478  3.4661  1.2874
 7447SOL     OW23239   0.129   6.859   1.144  0.1348  0.3241  0.0715
 7447SOL    HW123240   0.043   6.888   1.102 -0.2785 -0.8782  0.0275
 7447SOL    HW223241   0.206   6.897   1.093 -0.3695  0.8626 -0.2953
 7448SOL     OW23242   5.788   3.253   6.013 -0.1942 -0.2534  0.3803
 7448SOL    HW123243   5.828   3.267   5.923  1.6122 -0.0012  1.1905
 7448SOL    HW223244   5.762   3.157   6.023  0.1190 -0.4008 -0.1926
 7449SOL     OW23245   3.865   2.608   5.314  0.1913  0.7012 -0.4037
 7449SOL    HW123246   3.823   2.697   5.295 -0.2174  0.9180  1.3678
 7449SOL    HW223247   3.945   2.595   5.255  0.7915  2.6378 -0.0663
 7450SOL     OW23248   5.174   3.849   6.637 -0.0047  0.5204 -0.2363
 7450SOL    HW123249   5.264   3.871   6.676 -0.0725  0.2080  0.0987
 7450SOL    HW223250   5.118   3.804   6.707 -0.9932  2.1336  0.0684
 7451SOL     OW23251   3.414   5.339   1.500  0.1364  0.4500  0.9627
 7451SOL    HW123252   3.320   5.344   1.467 -0.2895  2.6909  2.3509
 7451SOL    HW223253   3.418   5.279   1.580 -0.1645  0.5380  1.0452
 7452SOL     OW23254   0.024   4.834   6.407  0.5407  0.0074 -0.0667
 7452SOL    HW123255  -0.003   4.925   6.376 -0.4509 -0.5536 -0.9266
 7452SOL    HW223256   0.104   4.803   6.356  1.2453  0.6278  0.6486
 7453SOL     OW23257   4.711   3.466   5.958 -0.1047 -0.1294 -0.3393
 7453SOL    HW123258   4.727   3.430   6.049 -1.3671  0.3331  0.0844
 7453SOL    HW223259   4.629   3.523   5.958  0.1764  0.3202 -1.6440
 7454SOL     OW23260   4.147   1.620   0.770  0.4018 -0.7482 -0.4201
 7454SOL    HW123261   4.226   1.680   0.785 -1.3908  2.2857 -2.0394
 7454SOL    HW223262   4.084   1.630   0.847 -0.1262 -0.1411 -0.9255
 7455SOL     OW23263   1.463   0.434   1.489  0.4664 -0.2749  0.4653
 7455SOL    HW123264   1.544   0.468   1.536 -0.3024 -1.4809  2.8635
 7455SOL    HW223265   1.427   0.504   1.428  1.8556  1.1996  1.2760
 7456SOL     OW23266   4.160   5.768   5.871 -0.3782  0.4649 -0.2052
 7456SOL    HW123267   4.181   5.782   5.968 -0.3587 -2.7397  0.3830
 7456SOL    HW223268   4.150   5.670   5.854 -2.3226  1.0406 -3.0746
 7457SOL     OW23269   0.125   3.235   1.431  0.2764 -0.3757  0.0498
 7457SOL    HW123270   0.066   3.199   1.503 -0.5609 -0.1412 -0.5135
 7457SOL    HW223271   0.157   3.160   1.373 -0.2408 -0.3917 -0.2160
 7458SOL     OW23272   0.213   5.654   4.157 -0.1163  0.2632 -0.4244
 7458SOL    HW123273   0.157   5.729   4.193 -2.2919 -0.0814 -2.7618
 7458SOL    HW223274   0.183   5.567   4.198 -1.7188  0.0287 -1.9538
 7459SOL     OW23275   3.894   0.060   5.686  0.3840  0.5252  0.0922
 7459SOL    HW123276   3.872   0.157   5.691  1.6623  0.7790  1.6085
 7459SOL    HW223277   3.993   0.047   5.699  0.0495 -1.0529  1.4149
 7460SOL     OW23278   0.117   1.041   1.526  0.2873  0.1766  0.4090
 7460SOL    HW123279   0.192   0.974   1.529  0.6861  0.6019  0.0104
 7460SOL    HW223280   0.130   1.108   1.599  0.8322  0.8139 -0.2638
 7461SOL     OW23281   1.837   4.768   6.074 -0.3919  0.0559  0.4222
 7461SOL    HW123282   1.779   4.699   6.031  1.2241 -0.5579 -0.8609
 7461SOL    HW223283   1.800   4.859   6.054 -1.2774 -0.3312  0.2168
 7462SOL     OW23284   2.408   3.590   0.050  0.0044  0.3697 -0.3104
 7462SOL    HW123285   2.493   3.608   0.099  0.4178 -1.5527 -0.2336
 7462SOL    HW223286   2.424   3.596  -0.049  1.4206 -4.0183 -0.5381
 7463SOL     OW23287   5.687   5.961   6.357 -1.2225 -0.2482  0.1583
 7463SOL    HW123288   5.751   6.020   6.309 -0.2667 -1.7856 -0.5379
 7463SOL    HW223289   5.652   6.009   6.438  0.1718  0.9287  0.1090
 7464SOL     OW23290   5.968   5.464   5.936 -0.1345 -0.5979  0.2482
 7464SOL    HW123291   5.908   5.402   5.987  2.1869 -1.5051  2.0799
 7464SOL    HW223292   6.045   5.492   5.994  1.4100  0.2373 -2.0406
 7465SOL     OW23293   1.916   4.128   0.471 -0.4063 -0.3974  0.5038
 7465SOL    HW123294   1.877   4.113   0.380 -2.4265  0.7878  1.1200
 7465SOL    HW223295   2.014   4.108   0.468 -0.4108 -0.4151 -1.9166
 7466SOL     OW23296   6.948   6.240   2.803 -0.1191 -0.0223 -0.1228
 7466SOL    HW123297   6.894   6.324   2.798  1.2063  0.8478 -0.2057
 7466SOL    HW223298   7.006   6.242   2.884 -0.9652 -1.4426  0.5590
 7467SOL     OW23299   1.458   5.552   3.647  0.0896 -0.2236 -0.5523
 7467SOL    HW123300   1.415   5.637   3.616  0.8098  0.4583  0.2817
 7467SOL    HW223301   1.552   5.548   3.614  0.6464  0.1877  0.9132
 7468SOL     OW23302   4.224   6.828   5.954 -0.2665  1.0811  0.3731
 7468SOL    HW123303   4.207   6.758   6.024 -0.0789  0.4677 -0.1831
 7468SOL    HW223304   4.283   6.899   5.992  0.6960  0.2184  0.5389
 7469SOL     OW23305   6.635   1.718   0.927 -0.2153 -0.2162 -0.2455
 7469SOL    HW123306   6.696   1.779   0.978 -0.4647  0.9332 -1.2860
 7469SOL    HW223307   6.678   1.690   0.842 -1.3977  1.2463 -1.3790
 7470SOL     OW23308   4.688   4.310   3.331 -0.3715 -0.1729 -0.0937
 7470SOL    HW123309   4.704   4.229   3.275 -0.7629 -0.2896 -0.0417
 7470SOL    HW223310   4.591   4.336   3.325 -0.0457  0.9633 -1.0272
 7471SOL     OW23311   2.225   5.439   6.308  0.4830  0.2977 -0.5131
 7471SOL    HW123312   2.197   5.476   6.220  2.6742 -0.1625 -1.4726
 7471SOL    HW223313   2.184   5.349   6.321 -1.3605  1.1302 -0.1403
 7472SOL     OW23314   1.031   1.823   6.601  0.3912 -0.2030 -0.3824
 7472SOL    HW123315   1.016   1.800   6.697  0.3264 -0.2679 -0.4077
 7472SOL    HW223316   0.952   1.793   6.547  0.4126 -0.1370 -0.4510
 7473SOL     OW23317   3.313   0.826   3.396  0.1167 -0.3765  0.1053
 7473SOL    HW123318   3.266   0.742   3.423  2.0071 -0.7511  2.7331
 7473SOL    HW223319   3.303   0.894   3.469  0.3248  0.9314 -1.0608
 7474SOL     OW23320   1.546   1.484   1.111 -0.3862  0.3047  0.1183
 7474SOL    HW123321   1.464   1.539   1.128 -0.4190  0.0914  0.6754
 7474SOL    HW223322   1.625   1.526   1.156 -0.4151 -0.1148  0.5586
 7475SOL     OW23323   4.573   2.160   0.913 -0.0315 -0.6923 -0.3691
 7475SOL    HW123324   4.591   2.236   0.976  2.3586 -2.0220  0.6931
 7475SOL    HW223325   4.515   2.192   0.838  0.5155  2.0468  0.2559
 7476SOL     OW23326   3.135   1.840   1.874  0.6812 -0.1767 -0.4252
 7476SOL    HW123327   3.133   1.923   1.818  0.9794  1.0933  1.3773
 7476SOL    HW223328   3.229   1.805   1.879  0.8741  0.4282  0.2815
 7477SOL     OW23329   3.060   2.928   5.454  0.1067  0.2381 -0.0921
 7477SOL    HW123330   3.092   2.835   5.437  0.5380  0.4825 -0.6497
 7477SOL    HW223331   3.007   2.961   5.376  2.7392  1.6481 -1.4037
 7478SOL     OW23332   2.113   3.443   0.928 -0.0027  0.1106 -0.2511
 7478SOL    HW123333   2.092   3.504   1.004  1.1384  1.3082 -0.8555
 7478SOL    HW223334   2.027   3.408   0.889 -0.6487  0.6195  0.6707
 7479SOL     OW23335   6.533   3.537   1.014 -0.3547 -0.4228  0.2894
 7479SOL    HW123336   6.444   3.500   1.043 -0.8255  0.4999  0.0720
 7479SOL    HW223337   6.588   3.464   0.973 -1.2893 -0.8657 -0.2111
 7480SOL     OW23338   5.635   0.484   2.016 -0.4976  0.0354 -0.0232
 7480SOL    HW123339   5.641   0.482   1.917  2.1422 -0.9855  0.0749
 7480SOL    HW223340   5.608   0.394   2.050  1.1835 -0.4130  0.2239
 7481SOL     OW23341   6.359   5.160   0.319  0.1866  0.3924  0.3607
 7481SOL    HW123342   6.436   5.213   0.355  1.7529 -0.4331 -1.5227
 7481SOL    HW223343   6.335   5.194   0.228 -0.0992 -0.8058 -0.0378
 7482SOL     OW23344   4.380   2.404   3.736  0.4791  0.4871 -0.5224
 7482SOL    HW123345   4.425   2.485   3.699 -0.3165  0.7798 -0.8833
 7482SOL    HW223346   4.417   2.322   3.692  1.4890  0.6201  0.0516
 7483SOL     OW23347   3.721   6.694   6.197  0.1629 -0.1904  0.4249
 7483SOL    HW123348   3.695   6.615   6.253  2.7075 -1.0030  0.5782
 7483SOL    HW223349   3.748   6.662   6.106  2.3796  0.2632  0.8566
 7484SOL     OW23350   1.793   6.725   5.197  0.3986  0.5093  0.0769
 7484SOL    HW123351   1.733   6.711   5.276  0.6047  0.6520  0.2617
 7484SOL    HW223352   1.871   6.782   5.225  2.8356 -2.9531  0.9357
 7485SOL     OW23353   2.825   0.248   0.095 -0.5223 -0.0150  0.5271
 7485SOL    HW123354   2.855   0.155   0.074 -0.6471 -0.4564  2.1796
 7485SOL    HW223355   2.770   0.283   0.019 -0.7373 -1.3925  0.0190
 7486SOL     OW23356   3.390   5.596   0.919  0.0633  0.4503  0.1804
 7486SOL    HW123357   3.408   5.497   0.920 -0.4414  0.3515 -0.3185
 7486SOL    HW223358   3.471   5.644   0.953  0.4818 -0.1097  0.0014
 7487SOL     OW23359   3.478   6.638   4.518 -0.5287 -0.0504 -0.4899
 7487SOL    HW123360   3.532   6.683   4.447 -1.4255 -1.3127 -2.0420
 7487SOL    HW223361   3.537   6.582   4.575  0.0274 -0.1295 -1.1376
 7488SOL     OW23362   3.066   6.706   3.803  0.2032 -0.5757 -0.1120
 7488SOL    HW123363   3.012   6.680   3.883  0.1815  0.5413  0.2502
 7488SOL    HW223364   3.017   6.777   3.752  1.8193  1.3580  0.8777
 7489SOL     OW23365   4.696   3.081   5.576 -0.0178  0.1457 -0.1750
 7489SOL    HW123366   4.648   3.097   5.490  1.6432  1.8507 -0.8335
 7489SOL    HW223367   4.709   3.167   5.624  0.2489 -0.6130  1.1697
 7490SOL     OW23368   2.911   2.649   1.116  0.0589 -0.5296 -0.0502
 7490SOL    HW123369   2.966   2.662   1.198  0.7660  1.0573 -0.7486
 7490SOL    HW223370   2.936   2.563   1.072 -0.3082 -1.3897  1.3454
 7491SOL     OW23371   5.360   5.419   5.856 -0.1706  0.0567  0.1097
 7491SOL    HW123372   5.443   5.400   5.910 -0.1982 -1.6454 -0.3892
 7491SOL    HW223373   5.330   5.335   5.812 -2.4834  0.5117  0.7030
 7492SOL     OW23374   1.045   6.562   3.757  0.4581  0.3504 -0.4262
 7492SOL    HW123375   1.118   6.497   3.738  1.3473  1.4007 -0.6839
 7492SOL    HW223376   1.031   6.569   3.856  0.8358  0.2711 -0.3658
 7493SOL     OW23377   1.474   1.088   3.086  0.9093 -0.3096 -0.7296
 7493SOL    HW123378   1.516   1.006   3.048  1.7837 -0.1790 -0.0942
 7493SOL    HW223379   1.505   1.100   3.180 -2.1660 -1.3126  0.5257
 7494SOL     OW23380   4.823   1.373   1.733 -0.4333 -0.1837  0.1073
 7494SOL    HW123381   4.745   1.312   1.746 -0.4340 -0.3040 -0.4207
 7494SOL    HW223382   4.849   1.373   1.636 -0.4922  0.7223  0.0820
 7495SOL     OW23383   1.048   4.937   3.137  0.6170  0.1179 -0.2548
 7495SOL    HW123384   1.147   4.926   3.124  1.4773  2.5251  2.9279
 7495SOL    HW223385   1.020   4.891   3.221 -0.2017  2.1725  0.6859
 7496SOL     OW23386   4.820   2.971   2.499 -0.2373 -0.6210 -0.0117
 7496SOL    HW123387   4.770   2.894   2.540 -0.7871 -0.6302 -0.6834
 7496SOL    HW223388   4.809   2.969   2.400 -0.5656  0.5436 -0.0106
 7497SOL     OW23389   5.929   2.001   0.846 -0.5673 -0.2482 -0.0921
 7497SOL    HW123390   5.869   2.035   0.919 -0.3823 -2.4579  1.1799
 7497SOL    HW223391   5.992   2.074   0.819 -1.3502  0.9678  1.1789
 7498SOL     OW23392   1.779   5.231   0.766  0.4835 -0.2988  0.4149
 7498SOL    HW123393   1.703   5.257   0.706  0.0741  0.5219  1.2676
 7498SOL    HW223394   1.863   5.228   0.712  0.1777  0.7190 -0.1494
 7499SOL     OW23395   2.825   1.450   2.079  0.1140  0.2973  0.6688
 7499SOL    HW123396   2.772   1.458   2.163 -0.9076  0.4390  0.0298
 7499SOL    HW223397   2.814   1.533   2.025 -1.9865 -1.0423 -1.1347
 7500SOL     OW23398   3.099   2.464   5.878  0.0747  0.4368 -0.0651
 7500SOL    HW123399   3.003   2.491   5.881 -0.4682 -1.2919 -0.6789
 7500SOL    HW223400   3.106   2.364   5.874  1.9164  0.5034  0.3991
 7501SOL     OW23401   6.259   2.957   2.705  0.2389  0.0017  0.0297
 7501SOL    HW123402   6.324   3.031   2.723 -0.8626  0.4494  2.5690
 7501SOL    HW223403   6.281   2.878   2.762 -1.6234  0.3290  1.3027
 7502SOL     OW23404   5.175   1.451   4.933  0.6318 -0.0854  0.0116
 7502SOL    HW123405   5.167   1.498   4.845 -0.6338  1.5052  0.9199
 7502SOL    HW223406   5.084   1.418   4.961  1.4413 -3.0947 -0.5348
 7503SOL     OW23407   1.206   4.057   0.917 -0.0995 -0.5631  0.3104
 7503SOL    HW123408   1.269   4.130   0.943 -0.6352 -1.1541  3.6723
 7503SOL    HW223409   1.183   4.067   0.820  0.8875  2.9067  0.2775
 7504SOL     OW23410   0.962   4.709   5.441 -0.0536  0.5889 -0.4565
 7504SOL    HW123411   1.006   4.743   5.358  2.8478 -0.5978  0.4949
 7504SOL    HW223412   0.974   4.610   5.448 -1.3537  0.4758  0.7910
 7505SOL     OW23413   1.381   1.111   6.406  0.5398 -0.1318 -0.0239
 7505SOL    HW123414   1.336   1.197   6.380 -0.6037 -0.9369 -0.8285
 7505SOL    HW223415   1.440   1.081   6.332  1.6272  0.3912  0.6149
 7506SOL     OW23416   4.311   0.934   4.940  0.3706 -1.1296  0.1105
 7506SOL    HW123417   4.343   0.991   4.865  0.1995 -0.0963  0.8041
 7506SOL    HW223418   4.220   0.900   4.920  0.7971 -1.8514 -0.6696
 7507SOL     OW23419   6.230   3.625   5.606  0.5932 -0.0213 -0.4829
 7507SOL    HW123420   6.201   3.675   5.688  1.0968 -0.9493  0.2846
 7507SOL    HW223421   6.324   3.649   5.585  1.4719 -1.9191  0.9635
 7508SOL     OW23422   4.592   6.812   0.241 -0.6972  0.0829  0.7202
 7508SOL    HW123423   4.599   6.854   0.151 -0.8529 -1.7681 -0.2181
 7508SOL    HW223424   4.641   6.867   0.309  0.3961  0.9275 -0.7085
 7509SOL     OW23425   5.921   3.052   3.423  0.4916 -0.4319  0.1452
 7509SOL    HW123426   6.000   3.030   3.366  0.0971 -0.7553 -0.2805
 7509SOL    HW223427   5.898   2.973   3.480  0.3663 -0.3960  0.1442
 7510SOL     OW23428   3.835   4.017   2.705 -0.3514  0.4950  0.1296
 7510SOL    HW123429   3.736   4.010   2.712 -0.1738 -1.5099  1.6538
 7510SOL    HW223430   3.862   4.010   2.609 -1.6882  1.6007 -0.3586
 7511SOL     OW23431   6.106   6.990   3.634  0.5956  0.0580  0.4533
 7511SOL    HW123432   6.088   7.071   3.688  0.2624  0.6473 -0.5135
 7511SOL    HW223433   6.143   6.917   3.693 -0.1250  0.5394  1.5167
 7512SOL     OW23434   4.863   4.949   1.120 -0.2881  0.5173  0.3380
 7512SOL    HW123435   4.901   4.898   1.043  1.5062  1.1885  0.7276
 7512SOL    HW223436   4.887   4.903   1.206 -0.3400  0.9727  0.5993
 7513SOL     OW23437   1.015   0.741   1.094  0.1290  0.3137 -0.8559
 7513SOL    HW123438   0.936   0.680   1.087  1.1270 -1.3329  1.3552
 7513SOL    HW223439   0.994   0.815   1.157  0.2901 -0.0676 -0.3463
 7514SOL     OW23440   6.461   2.181   0.160  0.6197 -0.4033 -0.4510
 7514SOL    HW123441   6.461   2.281   0.155 -0.0646 -0.4174 -0.9373
 7514SOL    HW223442   6.482   2.152   0.253 -2.2365  0.2688  0.5065
 7515SOL     OW23443   1.456   3.349   4.310 -0.1225  0.0706 -0.3519
 7515SOL    HW123444   1.466   3.446   4.331  0.0428  0.0046 -0.1261
 7515SOL    HW223445   1.370   3.315   4.347 -0.6671  0.3663 -1.3055
 7516SOL     OW23446   3.003   5.611   2.785  0.3786  0.1668 -0.2074
 7516SOL    HW123447   2.943   5.683   2.749  1.2933  0.2129 -1.7322
 7516SOL    HW223448   3.023   5.545   2.713  1.1823 -0.5003  0.6027
 7517SOL     OW23449   6.129   2.299   6.118  0.3591 -0.2717 -0.1562
 7517SOL    HW123450   6.208   2.283   6.060 -0.0844  0.1986 -0.9148
 7517SOL    HW223451   6.049   2.254   6.078  0.2135 -0.6194  0.5213
 7518SOL     OW23452   3.890   1.951   5.483  0.2599  0.2403 -0.1081
 7518SOL    HW123453   3.810   1.927   5.428  2.2119  0.5816 -3.3864
 7518SOL    HW223454   3.918   2.045   5.462  1.4884  0.1554  1.0177
 7519SOL     OW23455   3.174   6.724   5.131  0.4693  0.2773  0.3405
 7519SOL    HW123456   3.132   6.741   5.220  0.6902 -1.3209  0.7846
 7519SOL    HW223457   3.121   6.655   5.081  0.9712  0.3335 -0.2918
 7520SOL     OW23458   2.116   6.846   0.412  0.3511  0.0306 -0.2298
 7520SOL    HW123459   2.050   6.772   0.401  0.3868  0.2245 -2.1877
 7520SOL    HW223460   2.195   6.813   0.463  0.3291 -1.2626 -0.9907
 7521SOL     OW23461   5.366   0.901   5.128  0.6876 -0.0761  1.0627
 7521SOL    HW123462   5.339   0.855   5.212 -1.5375  0.6125  0.7965
 7521SOL    HW223463   5.402   0.992   5.150  1.3232 -0.3920  1.3389
 7522SOL     OW23464   1.631   4.768   5.230  0.4185 -0.5077  0.2479
 7522SOL    HW123465   1.684   4.786   5.312  0.3971  0.6238  0.0343
 7522SOL    HW223466   1.543   4.815   5.236  0.1601 -0.9257 -0.1576
 7523SOL     OW23467   5.297   1.923   0.532  0.2381  0.0331 -0.0135
 7523SOL    HW123468   5.260   2.011   0.503  0.6382  0.5547  1.0167
 7523SOL    HW223469   5.388   1.910   0.493 -0.4459 -0.6763 -1.4897
 7524SOL     OW23470   0.136   4.003   2.936 -0.7565 -0.1550  0.1956
 7524SOL    HW123471   0.192   3.953   2.870  0.4241 -1.7772  2.3245
 7524SOL    HW223472   0.040   3.998   2.909 -0.1470  1.4086 -2.7121
 7525SOL     OW23473   1.538   4.367   3.661  0.0274  0.4253  0.0363
 7525SOL    HW123474   1.590   4.286   3.687 -0.4906 -0.1359 -0.6287
 7525SOL    HW223475   1.444   4.342   3.640 -0.3981  1.3566  0.7496
 7526SOL     OW23476   2.379   4.543   0.953 -0.6277  0.2387  0.4604
 7526SOL    HW123477   2.470   4.507   0.970 -0.3181  1.4547  1.4705
 7526SOL    HW223478   2.325   4.541   1.037 -1.1129  0.6951  0.1691
 7527SOL     OW23479   3.131   4.846   3.396 -0.0731 -0.3506 -0.1171
 7527SOL    HW123480   3.228   4.857   3.374  0.2284 -1.4334  0.5965
 7527SOL    HW223481   3.116   4.867   3.493 -1.1319  2.9330 -0.8438
 7528SOL     OW23482   4.762   4.314   6.133 -0.1733 -0.8470 -0.2576
 7528SOL    HW123483   4.694   4.383   6.109  0.1279 -0.3124  0.3832
 7528SOL    HW223484   4.737   4.226   6.092  0.2240 -0.0397 -2.3499
 7529SOL     OW23485   3.858   1.601   4.779  0.1697 -0.2205 -0.3406
 7529SOL    HW123486   3.802   1.654   4.716 -2.0574 -2.1386 -0.0989
 7529SOL    HW223487   3.859   1.646   4.869 -0.5068  0.1165 -0.4994
 7530SOL     OW23488   1.684   1.519   3.833  0.2654  0.0137 -0.3884
 7530SOL    HW123489   1.599   1.525   3.885  0.2365  1.7061 -0.5842
 7530SOL    HW223490   1.759   1.492   3.895  0.1488  1.5367  0.4561
 7531SOL     OW23491   5.235   1.046   4.925  0.2805 -0.2469  0.7797
 7531SOL    HW123492   5.137   1.059   4.938  0.3173 -0.9386  1.8957
 7531SOL    HW223493   5.273   0.995   5.002  1.5042 -0.0934  0.3140
 7532SOL     OW23494   4.727   3.029   5.939  0.3676  0.2532 -0.3299
 7532SOL    HW123495   4.783   3.015   5.857  0.7588  1.0868 -0.2086
 7532SOL    HW223496   4.649   3.086   5.917 -0.9615 -1.6155 -0.7046
 7533SOL     OW23497   5.148   5.014   1.208 -0.0468 -0.4026 -0.3560
 7533SOL    HW123498   5.067   4.990   1.153  0.4131 -0.0020 -1.2220
 7533SOL    HW223499   5.120   5.069   1.286 -0.9317 -2.3883  0.7932
 7534SOL     OW23500   2.714   6.799   4.334  0.7979 -0.1974  0.0372
 7534SOL    HW123501   2.688   6.789   4.238  0.8031 -0.9232  0.1107
 7534SOL    HW223502   2.632   6.788   4.391  1.0908 -1.6423  0.2192
 7535SOL     OW23503   0.066   0.341   5.226  1.0291  0.0789  0.4399
 7535SOL    HW123504   0.021   0.416   5.274 -0.4616 -1.7604  2.1498
 7535SOL    HW223505   0.039   0.341   5.130 -0.0599  0.9283  0.7260
 7536SOL     OW23506   5.570   0.712   3.221  0.4363 -0.6628 -0.2955
 7536SOL    HW123507   5.562   0.811   3.233 -1.9709 -0.8801  0.4932
 7536SOL    HW223508   5.662   0.682   3.247  0.5416  1.0960  1.5941
 7537SOL     OW23509   3.306   1.178   1.627 -0.3170 -0.3867  0.3795
 7537SOL    HW123510   3.212   1.154   1.651 -0.9663 -0.3407 -1.8901
 7537SOL    HW223511   3.363   1.096   1.630 -0.7674 -0.7057  0.3083
 7538SOL     OW23512   0.061   4.374   1.650  0.0761 -0.0413 -0.1965
 7538SOL    HW123513   0.001   4.295   1.665  1.4254 -1.2254 -0.7559
 7538SOL    HW223514   0.012   4.445   1.600 -1.4156 -0.1691  1.0314
 7539SOL     OW23515   5.142   6.995   5.842  0.0508  0.2140 -0.3973
 7539SOL    HW123516   5.146   6.950   5.753  1.0741  1.8445 -1.2264
 7539SOL    HW223517   5.220   7.057   5.851  1.4156 -1.7154  2.6648
 7540SOL     OW23518   5.876   3.512   3.314  0.1579 -0.4441 -0.0898
 7540SOL    HW123519   5.848   3.417   3.325 -1.0555  0.0551  1.5903
 7540SOL    HW223520   5.955   3.530   3.374  0.1377 -0.3036 -0.1056
 7541SOL     OW23521   2.530   4.038   5.524 -0.2016 -0.4230 -0.0233
 7541SOL    HW123522   2.495   3.946   5.541 -0.5241 -0.4790 -0.9236
 7541SOL    HW223523   2.601   4.034   5.454 -1.3926  0.1894 -1.3293
 7542SOL     OW23524   1.302   5.323   4.804  0.2306  0.1390  0.2421
 7542SOL    HW123525   1.248   5.403   4.829  2.0589  1.1675  1.0653
 7542SOL    HW223526   1.342   5.283   4.886 -0.7937 -1.7929 -0.1289
 7543SOL     OW23527   0.912   6.691   0.847 -0.2440 -0.3979 -0.7037
 7543SOL    HW123528   0.914   6.790   0.855 -1.3028 -0.4407  0.3297
 7543SOL    HW223529   0.923   6.664   0.751 -1.1335  0.7622 -1.1479
 7544SOL     OW23530   5.606   1.296   5.007  0.0657  0.0079 -0.5092
 7544SOL    HW123531   5.684   1.316   5.066  1.8067 -1.4232 -2.1957
 7544SOL    HW223532   5.521   1.306   5.059  1.3333  1.6331  1.3817
 7545SOL     OW23533   0.281   5.097   5.391  0.3874  0.3261  0.0125
 7545SOL    HW123534   0.370   5.102   5.346 -0.7165  2.6905 -2.1884
 7545SOL    HW223535   0.292   5.115   5.489  2.4695 -1.3283  0.1537
 7546SOL     OW23536   1.665   3.155   2.887  0.0395  0.3977 -0.3647
 7546SOL    HW123537   1.744   3.194   2.934 -0.7989  1.4773  0.1784
 7546SOL    HW223538   1.624   3.085   2.945 -0.4623  1.1013  0.1436
 7547SOL     OW23539   3.854   0.910   3.638 -0.6154  0.2146  0.0135
 7547SOL    HW123540   3.888   0.905   3.544  0.5633  0.0016  0.4422
 7547SOL    HW223541   3.754   0.912   3.636 -0.7194 -2.0100 -1.1919
 7548SOL     OW23542   2.105   2.814   5.710  0.3330 -0.3446 -0.0195
 7548SOL    HW123543   2.167   2.746   5.671 -0.4962 -1.6243  0.8274
 7548SOL    HW223544   2.086   2.885   5.643  0.1540 -1.6678 -1.4130
 7549SOL     OW23545   3.934   6.713   6.993 -0.2173  0.2717 -0.0461
 7549SOL    HW123546   3.835   6.716   6.977 -0.0503  1.8118 -1.0670
 7549SOL    HW223547   3.972   6.804   6.980  1.1085  0.0742  2.1209
 7550SOL     OW23548   1.513   4.963   4.902 -0.3580  0.1914  0.3956
 7550SOL    HW123549   1.512   4.961   4.802  1.5940  0.2570  0.3308
 7550SOL    HW223550   1.506   5.058   4.934 -0.2985  0.2285  0.2976
 7551SOL     OW23551   5.745   3.969   0.400  0.1376  0.2152  0.0875
 7551SOL    HW123552   5.723   3.970   0.303 -0.1319  0.2934  0.1481
 7551SOL    HW223553   5.661   3.974   0.454  0.2958  0.4321  0.3226
 7552SOL     OW23554   3.785   6.620   3.059 -0.1655  0.3023  0.4658
 7552SOL    HW123555   3.775   6.559   2.980 -0.8361 -0.4794  1.1296
 7552SOL    HW223556   3.819   6.709   3.028  2.8329 -0.9827 -0.2799
 7553SOL     OW23557   4.955   6.986   4.159  1.0669 -0.0380  0.2095
 7553SOL    HW123558   5.047   6.991   4.199  0.6962  2.3395  0.9162
 7553SOL    HW223559   4.960   7.004   4.061  1.3884 -0.3588  0.1632
 7554SOL     OW23560   3.683   0.852   2.017  0.0957 -0.0789  0.2533
 7554SOL    HW123561   3.722   0.766   2.049  1.7651  0.4613 -0.2041
 7554SOL    HW223562   3.596   0.869   2.063  0.2131 -1.5357  1.0515
 7555SOL     OW23563   3.823   5.479   4.795  0.4239 -0.0905 -0.5032
 7555SOL    HW123564   3.748   5.539   4.769  0.4671  0.6611  0.9787
 7555SOL    HW223565   3.808   5.387   4.757 -0.7963  0.2697 -0.9276
 7556SOL     OW23566   2.472   0.439   1.129  0.1880  0.1157  0.4833
 7556SOL    HW123567   2.564   0.405   1.109  0.1955 -0.4084  1.3502
 7556SOL    HW223568   2.463   0.532   1.095 -0.1817 -1.0228 -2.9618
 7557SOL     OW23569   5.978   5.752   1.209 -0.1280 -0.8794 -0.4979
 7557SOL    HW123570   5.926   5.817   1.152  0.9461 -1.1605 -1.8618
 7557SOL    HW223571   5.988   5.789   1.301 -0.7364  0.2385 -0.8549
 7558SOL     OW23572   2.293   1.741   6.968 -0.2950  0.6981 -1.1154
 7558SOL    HW123573   2.246   1.827   6.989 -0.6788 -0.2516  2.6233
 7558SOL    HW223574   2.246   1.666   7.015  0.7256 -1.4447 -3.3104
 7559SOL     OW23575   1.200   5.693   6.671  0.3891  0.7985 -0.2822
 7559SOL    HW123576   1.127   5.761   6.664 -2.5311 -1.7903  2.0919
 7559SOL    HW223577   1.246   5.703   6.759  0.1231 -0.0916 -0.0360
 7560SOL     OW23578   0.479   0.443   6.141 -0.0930  0.6383  0.0292
 7560SOL    HW123579   0.561   0.421   6.196 -0.0702  1.1982  0.2250
 7560SOL    HW223580   0.435   0.358   6.112  0.5944  0.3259 -0.1320
 7561SOL     OW23581   4.469   1.233   5.694 -0.1815  0.6395 -0.0815
 7561SOL    HW123582   4.500   1.293   5.768 -0.7150  0.0930  0.5932
 7561SOL    HW223583   4.469   1.138   5.725  0.2834  0.3189 -1.0207
 7562SOL     OW23584   1.598   4.653   1.736 -0.0998 -0.0167  0.0291
 7562SOL    HW123585   1.659   4.644   1.815 -1.9230 -0.9979  1.4014
 7562SOL    HW223586   1.643   4.707   1.665  3.0052 -2.0305  0.2858
 7563SOL     OW23587   1.084   6.595   5.555  0.5136  0.0657 -0.1133
 7563SOL    HW123588   1.060   6.682   5.598 -2.3660 -0.4111 -0.5460
 7563SOL    HW223589   1.013   6.527   5.573  1.5516 -1.5608 -1.6621
 7564SOL     OW23590   5.762   3.702   5.176 -0.3155 -0.1684 -0.2503
 7564SOL    HW123591   5.843   3.660   5.217  0.8894  2.1327 -0.0611
 7564SOL    HW223592   5.779   3.719   5.079 -0.2943  0.8586 -0.0821
 7565SOL     OW23593   1.031   4.095   3.797 -0.3923 -0.0546 -0.3627
 7565SOL    HW123594   1.108   4.035   3.773 -0.8841 -1.2263  0.8687
 7565SOL    HW223595   0.955   4.078   3.734  0.3019  1.0462 -1.5301
 7566SOL     OW23596   5.526   4.921   1.394 -0.2377  0.1598  0.2456
 7566SOL    HW123597   5.580   4.972   1.327  0.4938 -0.9300 -0.0246
 7566SOL    HW223598   5.429   4.928   1.371  0.0302 -0.6817 -1.3146
 7567SOL     OW23599   0.377   0.749   2.590 -0.2678  0.1891 -0.8237
 7567SOL    HW123600   0.461   0.765   2.642 -0.7852 -0.3442  0.1976
 7567SOL    HW223601   0.307   0.816   2.617 -0.7554 -0.5097 -0.3349
 7568SOL     OW23602   0.337   5.055   0.184 -0.5834 -0.3053 -0.4820
 7568SOL    HW123603   0.380   4.964   0.187 -1.6304 -0.8061 -0.1198
 7568SOL    HW223604   0.323   5.088   0.277 -0.7364 -0.0364 -0.6007
 7569SOL     OW23605   4.951   4.742   1.745  0.0101 -0.5109  0.5191
 7569SOL    HW123606   4.956   4.710   1.840  3.0300 -0.6383  0.4379
 7569SOL    HW223607   4.910   4.671   1.688  1.5643 -2.0300  1.1961
 7570SOL     OW23608   1.353   1.311   2.177 -0.0204  0.1291 -0.4119
 7570SOL    HW123609   1.283   1.267   2.233  1.5798 -1.8778  0.0919
 7570SOL    HW223610   1.373   1.402   2.214 -1.6551  0.3824 -0.0359
 7571SOL     OW23611   4.731   1.100   3.573 -0.0885 -0.0185  0.3264
 7571SOL    HW123612   4.714   1.002   3.576  0.3544 -0.1289 -0.4467
 7571SOL    HW223613   4.816   1.118   3.522 -1.1664  0.8690 -1.2470
 7572SOL     OW23614   3.604   6.565   2.800  0.3762  0.2734  0.2596
 7572SOL    HW123615   3.599   6.590   2.703 -0.1837 -0.8702 -0.0230
 7572SOL    HW223616   3.539   6.492   2.819 -0.0147  0.9542  1.6603
 7573SOL     OW23617   3.688   6.102   0.147 -0.3084  0.2263  0.2085
 7573SOL    HW123618   3.709   6.199   0.147 -1.6933  0.5491 -0.1636
 7573SOL    HW223619   3.704   6.065   0.239  2.2056  0.3092 -0.1438
 7574SOL     OW23620   6.349   2.579   2.651  0.2710  0.3009  0.5327
 7574SOL    HW123621   6.389   2.593   2.560 -0.2471  1.3960  0.4564
 7574SOL    HW223622   6.401   2.510   2.700  1.6215  0.9357  0.0458
 7575SOL     OW23623   0.450   1.490   0.714  0.5781 -0.1379  0.1751
 7575SOL    HW123624   0.484   1.584   0.711  0.3850 -0.0842 -0.5002
 7575SOL    HW223625   0.526   1.428   0.735  0.5261  0.2471  1.6061
 7576SOL     OW23626   6.860   2.564   0.390  0.2397 -0.0703 -0.0882
 7576SOL    HW123627   6.925   2.584   0.317  0.4019  0.8312  0.2913
 7576SOL    HW223628   6.798   2.642   0.402  0.0554 -0.3075  0.5667
 7577SOL     OW23629   0.214   2.374   0.635 -0.2941 -0.4569  0.2908
 7577SOL    HW123630   0.170   2.463   0.648 -1.8101 -1.0183 -0.7031
 7577SOL    HW223631   0.254   2.343   0.722  0.4940  1.2851  0.5887
 7578SOL     OW23632   0.039   3.275   3.856  0.4733  0.6787  0.2126
 7578SOL    HW123633  -0.054   3.310   3.842  0.9271  1.8260 -0.0955
 7578SOL    HW223634   0.037   3.175   3.858 -0.7063  0.6724 -0.2111
 7579SOL     OW23635   0.405   3.352   6.029  0.0737 -0.1493 -0.3482
 7579SOL    HW123636   0.411   3.447   6.059 -0.1228 -0.4491  0.6947
 7579SOL    HW223637   0.424   3.346   5.931 -0.9451  1.1019 -0.6538
 7580SOL     OW23638   2.457   4.061   0.044  0.3285  0.0240 -0.0676
 7580SOL    HW123639   2.416   4.126  -0.020 -0.4484  1.4230  1.7553
 7580SOL    HW223640   2.541   4.022   0.004 -0.0612  0.9127 -1.8402
 7581SOL     OW23641   0.108   5.596   0.476  0.0540 -0.0184  0.4971
 7581SOL    HW123642   0.073   5.510   0.438  0.7788 -0.4499  0.7954
 7581SOL    HW223643   0.033   5.663   0.481 -1.1151 -1.3469  2.3989
 7582SOL     OW23644   3.546   1.263   5.043  0.1005  0.5927 -0.1497
 7582SOL    HW123645   3.617   1.316   4.998  0.0128 -0.4388 -1.5540
 7582SOL    HW223646   3.518   1.187   4.985 -0.2211 -0.6435  1.5330
 7583SOL     OW23647   5.556   2.409   2.760 -0.3675  0.1327 -0.0167
 7583SOL    HW123648   5.574   2.501   2.724  1.3860  0.0702  0.6285
 7583SOL    HW223649   5.557   2.412   2.860  2.1395 -0.9651  0.0608
 7584SOL     OW23650   1.761   0.929   3.278 -0.8024 -0.3682 -0.0943
 7584SOL    HW123651   1.742   0.862   3.207  0.3623  1.0781 -1.8589
 7584SOL    HW223652   1.688   0.997   3.281 -1.3987 -1.0319  0.8849
 7585SOL     OW23653   1.457   1.353   0.314 -0.2902  0.7950  0.1117
 7585SOL    HW123654   1.368   1.372   0.273  0.3944  3.2818 -0.3703
 7585SOL    HW223655   1.486   1.431   0.369  0.8338 -0.6909  1.7211
 7586SOL     OW23656   0.859   6.716   6.458  0.2452  0.0216  0.2756
 7586SOL    HW123657   0.949   6.685   6.426  0.1965  0.6604 -0.5320
 7586SOL    HW223658   0.792   6.644   6.442  0.2659  0.2440 -0.9171
 7587SOL     OW23659   5.114   0.685   1.698 -0.1455 -0.5946 -0.1594
 7587SOL    HW123660   5.059   0.607   1.726  0.0433 -0.1135  1.6891
 7587SOL    HW223661   5.082   0.718   1.609 -3.3000  0.0085  1.0486
 7588SOL     OW23662   1.408   2.449   4.077 -0.4803 -0.3511 -0.7289
 7588SOL    HW123663   1.433   2.393   3.998 -0.6692 -1.5369  0.0198
 7588SOL    HW223664   1.393   2.390   4.156 -1.0912  0.7371 -0.0016
 7589SOL     OW23665   1.033   0.380   2.436  0.0498  0.0909 -0.0034
 7589SOL    HW123666   1.090   0.349   2.512 -0.1434 -1.3188 -0.4036
 7589SOL    HW223667   1.068   0.343   2.350 -0.1695  1.0598 -0.5310
 7590SOL     OW23668   0.097   1.226   0.457  0.1154 -0.0273 -0.2851
 7590SOL    HW123669   0.134   1.139   0.490  1.5767  0.4219 -0.6713
 7590SOL    HW223670   0.165   1.298   0.471  0.8590  0.2391 -4.0778
 7591SOL     OW23671   3.933   4.570   5.613  0.1752 -0.1024  0.3094
 7591SOL    HW123672   3.840   4.598   5.638 -0.8827 -0.9866 -2.3045
 7591SOL    HW223673   3.990   4.652   5.601 -0.0480  0.4337  2.4656
 7592SOL     OW23674   0.880   0.873   2.194  0.3852 -0.0143  0.8227
 7592SOL    HW123675   0.872   0.858   2.292  0.7479  1.4761  1.1119
 7592SOL    HW223676   0.937   0.802   2.154  0.7603 -0.2777  1.7952
 7593SOL     OW23677   6.901   2.571   5.874  0.3339 -0.7548 -0.0870
 7593SOL    HW123678   6.978   2.634   5.863  0.2573 -0.8514 -1.3501
 7593SOL    HW223679   6.931   2.489   5.923  0.6331 -0.1132  0.8358
 7594SOL     OW23680   6.390   3.792   5.278  0.1790 -0.0926 -0.3364
 7594SOL    HW123681   6.417   3.768   5.371 -0.0257 -0.8005 -0.4538
 7594SOL    HW223682   6.325   3.724   5.244  0.1143  0.2637 -0.9286
 7595SOL     OW23683   1.414   3.846   5.608 -0.7630  0.2664  0.1211
 7595SOL    HW123684   1.465   3.924   5.571  0.2813  0.3412  1.6642
 7595SOL    HW223685   1.388   3.864   5.702 -0.7152 -1.1542  0.4284
 7596SOL     OW23686   2.861   2.596   5.900 -0.5737  0.0775 -0.0508
 7596SOL    HW123687   2.798   2.616   5.974  0.2536 -2.2947  1.4059
 7596SOL    HW223688   2.809   2.565   5.820 -1.4387  2.1354 -0.3380
 7597SOL     OW23689   4.679   6.359   6.473  0.4727 -0.0163  0.1821
 7597SOL    HW123690   4.626   6.440   6.499 -0.0254  0.0564 -1.0344
 7597SOL    HW223691   4.763   6.387   6.427  0.6229 -0.1892  0.3436
 7598SOL     OW23692   4.797   2.970   3.288 -1.3807  0.0466 -0.1737
 7598SOL    HW123693   4.831   3.064   3.277  1.0280 -0.6112  0.9506
 7598SOL    HW223694   4.778   2.953   3.384  1.1098 -1.4449  0.1464
 7599SOL     OW23695   1.990   2.148   2.085  0.5585 -0.2399  0.1517
 7599SOL    HW123696   1.896   2.180   2.080 -0.3810 -2.7112  0.6576
 7599SOL    HW223697   2.012   2.095   2.003  1.0131 -0.8696  0.6663
 7600SOL     OW23698   0.680   6.139   4.734 -0.0379  0.1686 -0.2930
 7600SOL    HW123699   0.648   6.102   4.647 -1.5298 -1.3734  0.8532
 7600SOL    HW223700   0.605   6.186   4.780  1.0021  1.8802 -0.2476
 7601SOL     OW23701   3.396   6.489   0.262  0.6192  0.1757  0.0476
 7601SOL    HW123702   3.338   6.475   0.343  0.4815 -0.9446 -0.2310
 7601SOL    HW223703   3.474   6.547   0.287 -1.3651  3.0020  0.0776
 7602SOL     OW23704   5.432   2.051   1.125 -0.4511 -0.7955  0.6487
 7602SOL    HW123705   5.355   1.999   1.163 -1.6338  0.8370  0.5957
 7602SOL    HW223706   5.443   2.136   1.176 -0.1717  0.0571 -0.7794
 7603SOL     OW23707   4.374   0.007   6.083 -0.5873  0.3606 -0.1252
 7603SOL    HW123708   4.355   0.091   6.133  2.1512  0.9630  0.0660
 7603SOL    HW223709   4.425   0.029   6.000  1.3096 -1.1373  0.5698
 7604SOL     OW23710   2.699   2.449   5.726  0.0678  0.6660 -0.2840
 7604SOL    HW123711   2.623   2.434   5.789  1.0514  0.1971  0.8280
 7604SOL    HW223712   2.727   2.362   5.686 -1.3022  1.0953 -2.3302
 7605SOL     OW23713   2.670   5.604   6.093  0.6060  0.5034  0.5539
 7605SOL    HW123714   2.625   5.542   6.156  0.5962 -1.1495 -0.9740
 7605SOL    HW223715   2.763   5.623   6.124  0.6324 -0.3637  1.0040
 7606SOL     OW23716   0.508   5.665   5.443 -0.5029 -0.4398 -0.1051
 7606SOL    HW123717   0.447   5.684   5.520 -1.0335 -0.5333 -0.4943
 7606SOL    HW223718   0.465   5.695   5.358 -0.3951 -1.3134 -0.4823
 7607SOL     OW23719   0.832   4.194   6.106  0.1803 -0.3222  0.1021
 7607SOL    HW123720   0.848   4.118   6.168 -1.4830 -0.5270  0.3183
 7607SOL    HW223721   0.833   4.280   6.157  2.6879 -0.0668 -0.2348
 7608SOL     OW23722   0.697   1.454   4.610  0.2228  0.4486  0.1594
 7608SOL    HW123723   0.719   1.543   4.568 -2.5261  3.3327  4.1728
 7608SOL    HW223724   0.759   1.438   4.687  0.3740 -0.9600 -0.2321
 7609SOL     OW23725   3.320   6.767   0.466 -0.0435  0.1013  0.5067
 7609SOL    HW123726   3.346   6.825   0.543  0.6443 -1.6701  1.6742
 7609SOL    HW223727   3.400   6.714   0.436 -0.1256  1.1899 -1.8698
 7610SOL     OW23728   3.844   0.320   5.529 -0.1059 -0.0096  0.4836
 7610SOL    HW123729   3.925   0.357   5.483  0.7202 -2.2417 -0.0086
 7610SOL    HW223730   3.843   0.351   5.624 -0.7419  3.0456 -0.4046
 7611SOL     OW23731   3.770   2.243   5.933  0.0760  0.1148  0.1933
 7611SOL    HW123732   3.693   2.192   5.895  1.0151 -0.4650 -0.9660
 7611SOL    HW223733   3.828   2.276   5.859  0.6484  1.0388  1.0293
 7612SOL     OW23734   5.408   3.416   1.815  0.1281 -0.3468  0.0756
 7612SOL    HW123735   5.339   3.454   1.753 -1.3268 -1.5547  0.8654
 7612SOL    HW223736   5.425   3.481   1.890  0.1093  0.1073 -0.3084
 7613SOL     OW23737   1.144   1.123   1.181  0.0189  0.1320  0.0094
 7613SOL    HW123738   1.115   1.190   1.113  0.3130  0.5901  0.3290
 7613SOL    HW223739   1.183   1.043   1.135 -1.4483 -0.3590 -0.4107
 7614SOL     OW23740   5.967   5.856   1.446  0.4271 -0.2019 -0.4646
 7614SOL    HW123741   6.036   5.860   1.518  0.4655  0.2641 -0.5272
 7614SOL    HW223742   5.909   5.937   1.450 -0.2892 -0.7149 -0.2435
 7615SOL     OW23743   4.037   2.931   5.309 -0.3953  0.3565  0.8061
 7615SOL    HW123744   4.103   2.870   5.352 -0.0518 -0.5463 -0.8898
 7615SOL    HW223745   3.944   2.897   5.324 -0.1470 -1.3904 -1.1900
 7616SOL     OW23746   6.948   6.980   0.986  0.2248 -0.2034  0.3305
 7616SOL    HW123747   6.891   6.946   1.060 -0.5139 -1.6045 -0.8340
 7616SOL    HW223748   6.890   7.024   0.917  0.4438 -2.0015 -1.0647
 7617SOL     OW23749   6.235   4.738   2.819  0.0222 -0.3207  0.0607
 7617SOL    HW123750   6.247   4.648   2.778  0.0483 -0.0145 -0.6091
 7617SOL    HW223751   6.139   4.765   2.814 -0.1321 -0.6476  0.9843
 7618SOL     OW23752   1.964   3.457   1.211 -0.2532  0.1882  1.1337
 7618SOL    HW123753   1.899   3.393   1.169 -0.5825 -0.6595  2.8329
 7618SOL    HW223754   1.977   3.432   1.306  0.3809  2.1035  1.5857
 7619SOL     OW23755   6.002   2.979   5.695 -0.4216 -0.4036  1.0837
 7619SOL    HW123756   6.091   3.021   5.715  0.9918 -2.4835 -0.3609
 7619SOL    HW223757   5.963   3.021   5.613  0.5797 -1.2456  0.1371
 7620SOL     OW23758   5.193   3.907   7.022 -0.4104 -0.4729 -0.1084
 7620SOL    HW123759   5.239   3.890   7.109 -2.3169 -0.7104  0.9261
 7620SOL    HW223760   5.117   3.970   7.037  0.4750  1.1744 -2.0344
 7621SOL     OW23761   0.325   4.372   1.641 -0.4615 -0.1539  0.0068
 7621SOL    HW123762   0.371   4.375   1.730  0.2520 -2.2990 -0.2138
 7621SOL    HW223763   0.226   4.375   1.653 -0.3497  1.1933  0.7316
 7622SOL     OW23764   3.058   3.886   0.198 -0.2739 -0.3469 -0.7061
 7622SOL    HW123765   3.031   3.938   0.279  1.2012  0.2566 -0.5555
 7622SOL    HW223766   3.156   3.901   0.181 -0.3935 -1.0805 -2.1520
 7623SOL     OW23767   4.132   6.080   5.184 -0.8718 -0.5852  0.1577
 7623SOL    HW123768   4.135   5.981   5.194  0.6419 -0.8422 -2.1030
 7623SOL    HW223769   4.218   6.120   5.218 -1.9417  0.1587  2.1931
 7624SOL     OW23770   4.691   4.798   1.927  0.1092 -0.2655  0.2718
 7624SOL    HW123771   4.618   4.827   1.988  2.0769  4.1377  0.9275
 7624SOL    HW223772   4.738   4.719   1.966 -0.9268  0.1751  2.5734
 7625SOL     OW23773   4.154   0.781   3.208 -0.1547 -0.2136 -0.0425
 7625SOL    HW123774   4.246   0.756   3.178  1.0464  1.4924  1.9049
 7625SOL    HW223775   4.119   0.855   3.151  1.9366  2.7180  2.1106
 7626SOL     OW23776   6.151   0.639   1.623  0.2421 -0.1850 -0.3235
 7626SOL    HW123777   6.211   0.641   1.703 -1.9138 -0.5933  1.3923
 7626SOL    HW223778   6.107   0.550   1.615 -0.4671  0.2205 -1.2768
 7627SOL     OW23779   5.388   1.589   5.421 -0.1642  0.3075  0.1164
 7627SOL    HW123780   5.482   1.594   5.389 -0.0480  0.7863  0.5107
 7627SOL    HW223781   5.327   1.624   5.350  0.1081  1.5310  0.4447
 7628SOL     OW23782   2.953   3.330   6.434  0.3641 -0.4379  0.1484
 7628SOL    HW123783   2.915   3.266   6.367 -0.2987  0.3463 -0.2428
 7628SOL    HW223784   2.908   3.419   6.425 -2.7729 -1.3193  4.4113
 7629SOL     OW23785   4.330   0.126   4.469 -0.0276 -0.0464  0.1541
 7629SOL    HW123786   4.419   0.086   4.492 -0.4381 -1.0599  0.0327
 7629SOL    HW223787   4.311   0.202   4.530  1.2898  0.7059 -0.3428
 7630SOL     OW23788   1.588   5.191   3.665 -0.1976  0.3349  0.3049
 7630SOL    HW123789   1.509   5.151   3.713 -0.0588  0.4631  0.6477
 7630SOL    HW223790   1.589   5.161   3.570  1.2694 -2.5046  1.1137
 7631SOL     OW23791   1.326   0.851   6.987 -0.1614  0.0975 -0.5909
 7631SOL    HW123792   1.298   0.865   7.082 -0.4189 -0.1501 -0.6302
 7631SOL    HW223793   1.423   0.826   6.985 -0.0870  0.3579 -0.4145
 7632SOL     OW23794   5.214   5.859   6.498  0.2721 -0.0720  0.3006
 7632SOL    HW123795   5.296   5.816   6.460  0.7498 -0.1651  1.3966
 7632SOL    HW223796   5.133   5.813   6.461  0.7512 -1.1641  0.5423
 7633SOL     OW23797   5.656   6.797   1.928  0.3788 -0.1960  0.3227
 7633SOL    HW123798   5.623   6.876   1.877 -0.1058  0.8332  2.1743
 7633SOL    HW223799   5.658   6.717   1.867 -1.5813  0.6304 -0.9050
 7634SOL     OW23800   0.505   2.570   6.279  0.3305  0.2256 -0.0034
 7634SOL    HW123801   0.580   2.634   6.264 -0.1167  1.0080  0.9925
 7634SOL    HW223802   0.499   2.549   6.376 -2.0315  1.8257  0.2816
 7635SOL     OW23803   1.604   1.950   0.761  0.3191 -0.5199 -0.1934
 7635SOL    HW123804   1.505   1.937   0.767  0.0805  0.3285 -1.6711
 7635SOL    HW223805   1.644   1.875   0.709  0.5938 -1.2765  1.0603
 7636SOL     OW23806   6.368   3.440   2.424  0.4608  0.4737 -0.4470
 7636SOL    HW123807   6.290   3.391   2.386  0.7430 -0.3307 -0.0087
 7636SOL    HW223808   6.386   3.408   2.517  3.0842 -1.5222 -1.5101
 7637SOL     OW23809   1.897   3.520   6.806  0.0181 -0.2837  0.4998
 7637SOL    HW123810   1.926   3.590   6.872 -0.4040 -0.6969  1.1277
 7637SOL    HW223811   1.943   3.434   6.826 -1.9399 -1.0902  1.8151
 7638SOL     OW23812   0.048   0.994   1.010 -0.4158  0.0821  0.3819
 7638SOL    HW123813   0.004   1.018   1.097 -1.8932  0.4165 -0.4288
 7638SOL    HW223814   0.123   0.930   1.028 -1.1956 -0.4844  1.8251
 7639SOL     OW23815   2.196   6.276   0.138  0.4158  0.2010  0.0972
 7639SOL    HW123816   2.241   6.194   0.102  0.4083  0.1225  0.2636
 7639SOL    HW223817   2.098   6.259   0.148  0.4797  0.0806  0.5429
 7640SOL     OW23818   5.595   0.051   6.852 -0.0966  0.9303 -0.8215
 7640SOL    HW123819   5.525   0.115   6.817 -0.1030  0.1334 -2.3668
 7640SOL    HW223820   5.682   0.070   6.806  0.2337  0.6751 -0.3028
 7641SOL     OW23821   4.528   3.868   5.982 -0.2371  0.3478  0.0946
 7641SOL    HW123822   4.512   3.960   6.019 -0.2137 -0.0178  1.0447
 7641SOL    HW223823   4.449   3.811   6.001  0.4566 -0.3124  1.0828
 7642SOL     OW23824   6.884   0.277   2.063 -0.1813  0.5979 -1.5839
 7642SOL    HW123825   6.892   0.363   2.012 -0.8776 -0.1135 -2.9245
 7642SOL    HW223826   6.971   0.228   2.058 -0.3037  0.4397 -2.2791
 7643SOL     OW23827   4.723   2.117   3.965  0.2642  0.0926  0.2543
 7643SOL    HW123828   4.819   2.105   3.991  0.4609 -1.1112 -0.9267
 7643SOL    HW223829   4.665   2.081   4.037  0.6938  0.4199  0.7784
 7644SOL     OW23830   4.648   4.015   6.249 -0.1339  0.6050 -0.2698
 7644SOL    HW123831   4.560   4.042   6.210  0.1172 -0.7535 -1.9130
 7644SOL    HW223832   4.695   3.954   6.185  1.5278  0.4257  1.0557
 7645SOL     OW23833   6.741   5.240   6.287  0.3259  0.4931 -0.4373
 7645SOL    HW123834   6.802   5.302   6.238  0.6418  0.7110  0.2196
 7645SOL    HW223835   6.647   5.253   6.255  0.2240  2.0585  0.4278
 7646SOL     OW23836   5.562   6.976   1.549 -0.1984 -0.0775  0.6820
 7646SOL    HW123837   5.625   7.032   1.496 -0.2381  0.1478  0.8720
 7646SOL    HW223838   5.522   6.906   1.490 -0.4143  0.3139  0.3603
 7647SOL     OW23839   4.105   1.818   3.139 -0.0988 -0.3936  0.3579
 7647SOL    HW123840   4.113   1.912   3.172  1.3215 -0.1137 -0.7177
 7647SOL    HW223841   4.123   1.754   3.214 -0.2020  0.1943  0.8895
 7648SOL     OW23842   3.298   0.719   0.259 -0.0509 -0.1311  0.7554
 7648SOL    HW123843   3.359   0.797   0.271 -0.0371 -0.0736  0.3323
 7648SOL    HW223844   3.203   0.751   0.256 -0.0066 -0.0590 -0.0276
 7649SOL     OW23845   3.837   0.117   0.675 -0.0843 -0.3284  0.2486
 7649SOL    HW123846   3.900   0.086   0.604  1.8229  0.3130  1.5900
 7649SOL    HW223847   3.829   0.216   0.673 -0.7778 -0.3772  0.3245
 7650SOL     OW23848   4.398   0.941   0.005 -0.3833 -0.1989  0.7128
 7650SOL    HW123849   4.458   0.924   0.083  0.6892  1.0598  0.1985
 7650SOL    HW223850   4.402   1.038  -0.020 -2.6756 -0.0464  0.6754
 7651SOL     OW23851   1.728   6.015   6.426 -0.1535  0.4934 -0.2392
 7651SOL    HW123852   1.757   6.061   6.510  1.2132  0.6333 -0.7613
 7651SOL    HW223853   1.666   5.940   6.448 -0.7724  1.2761  0.7875
 7652SOL     OW23854   6.954   1.333   6.243 -0.6132 -0.1708 -0.0889
 7652SOL    HW123855   6.869   1.344   6.192 -0.5796  3.0459  0.3334
 7652SOL    HW223856   7.032   1.340   6.180 -0.4993  5.4217  0.1544
 7653SOL     OW23857   1.092   6.569   6.374  0.2205  0.0016  0.4832
 7653SOL    HW123858   1.184   6.586   6.336  0.0101  0.9223  0.3522
 7653SOL    HW223859   1.082   6.472   6.394  0.9420 -0.2411 -0.2491
 7654SOL     OW23860   4.368   2.110   6.136 -0.1990 -0.2957  0.2953
 7654SOL    HW123861   4.382   2.085   6.040 -0.4808 -0.0776  0.1945
 7654SOL    HW223862   4.308   2.044   6.179 -1.1231  0.3130 -0.0302
 7655SOL     OW23863   1.773   1.510   5.772 -0.5690 -0.1395  0.0558
 7655SOL    HW123864   1.705   1.529   5.702 -0.9269  0.2443  0.4980
 7655SOL    HW223865   1.854   1.469   5.730 -0.5520  0.6000 -0.6650
 7656SOL     OW23866   5.686   4.968   5.854 -0.3758 -0.1968  0.0231
 7656SOL    HW123867   5.733   4.940   5.770  0.4001  0.3374  0.2652
 7656SOL    HW223868   5.657   4.886   5.904 -1.3229 -0.5213 -1.0030
 7657SOL     OW23869   2.112   4.460   4.848 -0.1998  0.1082 -0.0016
 7657SOL    HW123870   2.051   4.460   4.769 -1.8012  0.3607  1.1838
 7657SOL    HW223871   2.178   4.385   4.839  1.4711  1.7412 -2.8549
 7658SOL     OW23872   3.231   0.284   0.835  0.1734  0.1632  0.3107
 7658SOL    HW123873   3.261   0.348   0.764  0.2100 -0.3404 -0.1316
 7658SOL    HW223874   3.235   0.330   0.924 -1.0214  1.1931 -0.1267
 7659SOL     OW23875   6.630   5.235   4.115  0.5025  0.3629 -0.1061
 7659SOL    HW123876   6.659   5.160   4.174  1.1102  1.7208  1.4021
 7659SOL    HW223877   6.677   5.230   4.027  0.5724 -0.9607 -0.0022
 7660SOL     OW23878   5.670   0.617   4.890 -0.8466 -0.8441  0.7352
 7660SOL    HW123879   5.579   0.578   4.870 -1.4288  1.4095 -1.6401
 7660SOL    HW223880   5.659   0.712   4.921  0.6962 -0.0787 -0.9138
 7661SOL     OW23881   2.347   6.331   5.897 -0.6156 -0.1130 -0.0486
 7661SOL    HW123882   2.405   6.264   5.944 -1.4889 -0.8565 -0.0213
 7661SOL    HW223883   2.319   6.402   5.962  0.8888  0.7010 -0.2379
 7662SOL     OW23884   5.645   5.865   1.757  0.4463 -0.0805 -0.3386
 7662SOL    HW123885   5.620   5.864   1.854 -5.4026  0.0868 -1.4764
 7662SOL    HW223886   5.656   5.771   1.724  3.5356 -0.1226  0.5092
 7663SOL     OW23887   0.615   4.427   4.502  0.2673  0.1474 -0.2816
 7663SOL    HW123888   0.713   4.414   4.521  0.3797 -1.3988 -1.7662
 7663SOL    HW223889   0.576   4.343   4.465 -1.3600  1.1189 -0.8753
 7664SOL     OW23890   5.835   1.449   2.962  0.7433 -0.5364 -0.3730
 7664SOL    HW123891   5.766   1.467   2.892  0.8007 -2.5819 -1.0384
 7664SOL    HW223892   5.924   1.479   2.928  0.3512  1.2060  0.0813
 7665SOL     OW23893   0.170   6.894   4.103  0.2187  0.1031 -0.0977
 7665SOL    HW123894   0.164   6.898   4.003 -1.7252  1.4801  0.0177
 7665SOL    HW223895   0.088   6.850   4.140  0.3742  0.6366  0.9393
 7666SOL     OW23896   6.318   3.880   3.265 -0.0444  0.2413  0.2098
 7666SOL    HW123897   6.386   3.824   3.312  0.3537  0.6524  0.1279
 7666SOL    HW223898   6.275   3.943   3.330 -0.4981 -0.1552  0.3033
 7667SOL     OW23899   4.271   4.785   1.635  0.5734  0.2850 -0.2458
 7667SOL    HW123900   4.309   4.851   1.570  0.2160  0.6302 -0.1050
 7667SOL    HW223901   4.208   4.724   1.587  1.8784 -0.7865 -0.6399
 7668SOL     OW23902   2.417   5.289   6.929  0.1277  0.0412  0.1245
 7668SOL    HW123903   2.329   5.335   6.943 -1.0273 -1.6689 -1.1304
 7668SOL    HW223904   2.402   5.199   6.889  2.4799 -0.2869 -0.1822
 7669SOL     OW23905   3.851   3.351   6.321  0.4308 -0.3486  0.0474
 7669SOL    HW123906   3.772   3.363   6.262 -0.7152 -1.6444  1.2588
 7669SOL    HW223907   3.917   3.290   6.277  0.1880 -0.2593 -0.4384
 7670SOL     OW23908   1.395   1.190   1.718 -0.0867  0.7592 -0.1657
 7670SOL    HW123909   1.489   1.168   1.693  0.4006  1.6949  0.7769
 7670SOL    HW223910   1.386   1.289   1.728 -1.7071  0.8995 -2.3388
 7671SOL     OW23911   3.463   2.303   6.563  0.1053 -0.2599 -0.6961
 7671SOL    HW123912   3.527   2.267   6.631  0.1027 -0.2552 -0.6909
 7671SOL    HW223913   3.510   2.366   6.502 -0.0001  0.1059 -0.4031
 7672SOL     OW23914   5.246   4.519   1.160  0.0321  0.3411 -0.1179
 7672SOL    HW123915   5.312   4.552   1.227 -1.2210  0.4890  1.0665
 7672SOL    HW223916   5.168   4.478   1.207 -1.0961  0.8628 -1.4774
 7673SOL     OW23917   1.368   1.694   5.469  0.2468 -0.5174  0.2739
 7673SOL    HW123918   1.330   1.701   5.377 -0.7718  0.2294  0.7275
 7673SOL    HW223919   1.312   1.748   5.532  1.3744 -0.3973  1.2031
 7674SOL     OW23920   1.467   4.851   4.571 -0.8301 -0.5341  0.6136
 7674SOL    HW123921   1.411   4.933   4.559  0.2109  0.5026  2.3908
 7674SOL    HW223922   1.518   4.833   4.487 -0.2549  1.3068  0.5249
 7675SOL     OW23923   4.432   6.161   2.219  0.0597  0.0194  0.1221
 7675SOL    HW123924   4.391   6.252   2.212 -1.0603 -0.4012  0.8406
 7675SOL    HW223925   4.516   6.166   2.273  0.1197  0.6573 -0.0233
 7676SOL     OW23926   3.809   3.084   4.164  0.1746 -0.1502  0.1373
 7676SOL    HW123927   3.764   2.995   4.155 -0.6756 -0.4040  4.6066
 7676SOL    HW223928   3.744   3.157   4.146 -0.5068 -0.4983  1.1292
 7677SOL     OW23929   0.135   6.624   6.860  0.1347  0.1663 -0.2463
 7677SOL    HW123930   0.064   6.649   6.926 -1.8128 -0.7625 -1.8700
 7677SOL    HW223931   0.138   6.524   6.850  1.5786  0.1971 -0.3404
 7678SOL     OW23932   2.730   1.148   3.975 -0.3593 -0.1852 -0.0399
 7678SOL    HW123933   2.780   1.233   3.993  0.3009 -0.9039  1.7710
 7678SOL    HW223934   2.632   1.167   3.974 -0.2241  0.5845  0.4758
 7679SOL     OW23935   2.399   5.919   4.153  0.1688  0.2859  0.1321
 7679SOL    HW123936   2.452   5.939   4.235 -0.8425 -0.6516  1.0456
 7679SOL    HW223937   2.361   5.827   4.159  1.4552 -0.4815 -2.1668
 7680SOL     OW23938   1.729   5.745   5.275 -0.1394 -0.0430 -0.3569
 7680SOL    HW123939   1.703   5.828   5.324 -0.0860 -0.0250 -0.3587
 7680SOL    HW223940   1.718   5.665   5.335 -1.8898 -0.2546 -0.9083
 7681SOL     OW23941   1.943   2.282   5.800  0.1043  0.8104 -0.2013
 7681SOL    HW123942   1.883   2.335   5.741 -1.5862  0.9566  1.5332
 7681SOL    HW223943   1.889   2.216   5.852  1.6717 -0.1016  0.3470
 7682SOL     OW23944   2.647   0.792   0.486  0.2357 -0.4761  0.1915
 7682SOL    HW123945   2.674   0.859   0.555  2.0543 -1.7477  0.7745
 7682SOL    HW223946   2.551   0.767   0.500 -0.1189  1.0427  0.7305
 7683SOL     OW23947   1.236   2.620   3.466 -0.2265 -0.1350 -0.1682
 7683SOL    HW123948   1.238   2.649   3.370 -0.0038  0.8296  0.1253
 7683SOL    HW223949   1.329   2.610   3.499 -0.2854  1.2355  0.4506
 7684SOL     OW23950   5.581   2.651   2.609  0.9483  0.1393 -0.3384
 7684SOL    HW123951   5.495   2.691   2.640  1.4455  2.0242 -1.2469
 7684SOL    HW223952   5.579   2.641   2.510  1.4902 -0.5488 -0.2843
 7685SOL     OW23953   2.452   1.018   0.771  0.3763 -0.4629 -0.1989
 7685SOL    HW123954   2.534   0.963   0.762  1.0293  0.4539  0.0553
 7685SOL    HW223955   2.458   1.075   0.853 -0.8041 -0.8755  0.1917
 7686SOL     OW23956   6.743   2.404   6.491  0.6331 -0.0301 -0.3429
 7686SOL    HW123957   6.738   2.428   6.394 -2.6393 -0.8622 -0.5090
 7686SOL    HW223958   6.689   2.322   6.507  1.6854 -0.3287  2.1276
 7687SOL     OW23959   4.824   4.526   5.111 -0.4350  0.0342  0.0787
 7687SOL    HW123960   4.905   4.512   5.169  0.8352  0.2059 -1.5671
 7687SOL    HW223961   4.809   4.444   5.055 -0.3910  0.6119 -0.7998
 7688SOL     OW23962   0.231   0.844   6.159 -0.2947 -0.7339 -0.2732
 7688SOL    HW123963   0.301   0.808   6.220  1.0963 -2.7521 -2.8772
 7688SOL    HW223964   0.148   0.789   6.166  0.4224 -1.9871 -1.3022
 7689SOL     OW23965   3.510   4.916   3.449  0.2302  0.1338 -0.3309
 7689SOL    HW123966   3.459   4.915   3.364 -1.7119  0.4686  0.7761
 7689SOL    HW223967   3.575   4.839   3.450 -0.0040 -0.1089 -1.9025
 7690SOL     OW23968   5.444   4.221   2.842 -0.2102  0.4698 -0.5278
 7690SOL    HW123969   5.396   4.138   2.814 -0.2922  0.3228  0.0328
 7690SOL    HW223970   5.436   4.291   2.771  1.2190 -0.5395 -1.7346
 7691SOL     OW23971   7.017   1.719   4.259 -0.0455  0.6801 -0.0627
 7691SOL    HW123972   6.962   1.703   4.341  1.3265 -2.0405  0.4321
 7691SOL    HW223973   6.989   1.655   4.187  2.3690 -0.8407  0.2234
 7692SOL     OW23974   2.770   5.987   3.625  0.2436 -0.5246 -0.2526
 7692SOL    HW123975   2.796   5.891   3.641  1.9177  0.1407  1.3513
 7692SOL    HW223976   2.834   6.029   3.561 -0.9426 -0.6225 -1.5712
 7693SOL     OW23977   1.877   1.633   3.245 -0.6247  0.8297 -0.4250
 7693SOL    HW123978   1.800   1.637   3.308 -0.6687  0.3898 -0.4495
 7693SOL    HW223979   1.953   1.687   3.282 -0.9114  1.1952 -0.3629
 7694SOL     OW23980   6.121   3.016   2.201  0.1767 -0.1937 -0.0795
 7694SOL    HW123981   6.187   3.074   2.249 -0.0041 -0.1899  0.1672
 7694SOL    HW223982   6.137   2.920   2.224  2.1568 -0.5416 -2.4804
 7695SOL     OW23983   2.442   0.077   5.217  0.1243  0.1551  0.2251
 7695SOL    HW123984   2.351   0.097   5.253 -0.2410 -0.3347 -0.3986
 7695SOL    HW223985   2.488   0.011   5.278  0.1731  0.6035  0.6814
 7696SOL     OW23986   2.487   1.052   4.832  0.6494  0.2454  0.1722
 7696SOL    HW123987   2.529   1.006   4.753 -0.0152  0.3163 -0.2244
 7696SOL    HW223988   2.446   0.984   4.892  0.9933  0.2072  0.3704
 7697SOL     OW23989   6.573   1.042   3.250 -0.1002 -0.2959  0.3177
 7697SOL    HW123990   6.535   1.064   3.340 -0.7701 -0.0220 -0.0311
 7697SOL    HW223991   6.503   1.053   3.180  1.1223  2.4301 -0.6351
 7698SOL     OW23992   0.769   0.643   1.021  0.2265 -0.3150 -0.4430
 7698SOL    HW123993   0.702   0.660   1.093  0.7447 -0.5004  0.0881
 7698SOL    HW223994   0.738   0.567   0.964  0.2060 -0.7025  0.0797
 7699SOL     OW23995   3.404   0.487   6.711  0.2823  0.0803  0.4158
 7699SOL    HW123996   3.388   0.574   6.666 -1.2018 -0.9730 -1.2363
 7699SOL    HW223997   3.379   0.493   6.808  0.1824  1.4663  0.3116
 7700SOL     OW23998   6.220   6.917   1.362 -0.5010 -0.1980  0.4753
 7700SOL    HW123999   6.296   6.924   1.427 -2.1874 -0.9441  2.6406
 7700SOL    HW224000   6.252   6.872   1.278  1.6335  0.3580  0.9282
 7701SOL     OW24001   4.737   1.341   0.576  0.9039  0.2484 -0.3278
 7701SOL    HW124002   4.716   1.283   0.654  1.4114  1.0997  0.4695
 7701SOL    HW224003   4.818   1.306   0.528 -0.7363 -1.6055 -1.9135
 7702SOL     OW24004   0.687   0.923   6.208 -0.0349  1.0083  0.7553
 7702SOL    HW124005   0.733   0.867   6.139 -0.5668  0.1347  1.1023
 7702SOL    HW224006   0.621   0.983   6.162 -0.4607  0.3570  0.5023
 7703SOL     OW24007   0.386   4.439   6.193 -0.1389 -0.2639  0.0449
 7703SOL    HW124008   0.321   4.490   6.138 -0.8543 -1.1355  0.0556
 7703SOL    HW224009   0.458   4.402   6.134  0.3701  0.7110  0.0347
 7704SOL     OW24010   2.046   1.770   3.771 -0.0963 -0.3990  0.1224
 7704SOL    HW124011   1.952   1.762   3.803 -0.0580 -0.3313  0.2537
 7704SOL    HW224012   2.104   1.705   3.820 -0.2149 -1.0111 -0.5289
 7705SOL     OW24013   0.869   2.612   5.770  0.0506 -0.8783  0.1472
 7705SOL    HW124014   0.796   2.677   5.788  0.3706 -0.6120  0.4866
 7705SOL    HW224015   0.922   2.641   5.690  1.8827  0.7645  1.8661
 7706SOL     OW24016   3.162   3.827   3.271  0.0288 -0.4910 -0.4416
 7706SOL    HW124017   3.223   3.900   3.303 -0.6181 -0.3585  0.5582
 7706SOL    HW224018   3.203   3.780   3.193  0.2557  1.2581 -1.4351
 7707SOL     OW24019   1.047   6.207   6.999  0.3041  0.1107 -0.5113
 7707SOL    HW124020   1.066   6.155   6.916  2.8034  0.8705 -0.5288
 7707SOL    HW224021   0.949   6.206   7.018 -0.3466 -0.2051 -3.3680
 7708SOL     OW24022   1.487   5.696   4.081 -0.2510  0.2985  0.3763
 7708SOL    HW124023   1.465   5.599   4.091  0.7507  0.1792  1.7988
 7708SOL    HW224024   1.525   5.730   4.167 -1.5569  2.2340  0.2489
 7709SOL     OW24025   6.547   6.059   1.167  0.1704  0.2794 -0.7066
 7709SOL    HW124026   6.621   6.108   1.121  0.7207 -0.4285 -0.5969
 7709SOL    HW224027   6.545   6.084   1.264  0.2313  0.3538 -0.7248
 7710SOL     OW24028   4.989   3.013   1.857  0.1635 -0.5437 -0.5298
 7710SOL    HW124029   4.907   3.034   1.911 -0.8224 -0.5716 -1.9389
 7710SOL    HW224030   5.071   3.027   1.913 -0.5740  3.0606 -0.0782
 7711SOL     OW24031   3.100   5.167   1.912  0.1674 -0.2900  0.1647
 7711SOL    HW124032   3.147   5.087   1.950  0.7265 -0.3915 -0.6923
 7711SOL    HW224033   3.108   5.244   1.974  0.7670 -0.5370  0.3952
 7712SOL     OW24034   2.166   3.271   5.953 -0.5521 -0.0822  0.0636
 7712SOL    HW124035   2.141   3.248   5.859  0.5402  1.2267 -0.5858
 7712SOL    HW224036   2.258   3.312   5.954  0.1605 -1.5764  1.9154
 7713SOL     OW24037   1.600   5.152   6.540 -0.5262 -1.0834 -0.0094
 7713SOL    HW124038   1.697   5.151   6.563 -0.0850 -3.9208 -1.5558
 7713SOL    HW224039   1.546   5.141   6.624  0.4901 -0.3754  0.7714
 7714SOL     OW24040   6.334   1.714   4.052 -0.4017 -0.0400  0.3445
 7714SOL    HW124041   6.306   1.634   4.104  0.3992  0.0312  0.9029
 7714SOL    HW224042   6.406   1.687   3.988 -0.8716  0.0258 -0.2243
 7715SOL     OW24043   4.691   4.506   6.512  0.3434 -0.0059  0.2800
 7715SOL    HW124044   4.715   4.414   6.542  1.9610  0.3551  0.2043
 7715SOL    HW224045   4.592   4.514   6.502  0.1749 -1.6793  0.4265
 7716SOL     OW24046   0.100   6.969   0.457  0.1741 -0.0438  0.3163
 7716SOL    HW124047   0.061   7.060   0.447  1.2697  0.2506 -1.9210
 7716SOL    HW224048   0.107   6.945   0.554 -0.0994  2.2567  0.9463
 7717SOL     OW24049   1.152   2.022   5.879  0.2321  0.2225  0.1426
 7717SOL    HW124050   1.177   1.945   5.937 -0.7546 -0.6798 -0.5855
 7717SOL    HW224051   1.082   2.077   5.925 -0.3157 -0.3103 -0.0359
 7718SOL     OW24052   6.959   1.294   4.029 -0.1055  0.3186 -0.1525
 7718SOL    HW124053   6.917   1.209   4.061  2.6884 -0.5430  1.4942
 7718SOL    HW224054   7.013   1.275   3.947 -1.1293  0.9902 -1.0125
 7719SOL     OW24055   2.511   0.506   5.521  0.0400  0.1273  0.3301
 7719SOL    HW124056   2.448   0.441   5.479 -0.1303 -0.1625  1.0237
 7719SOL    HW224057   2.459   0.577   5.570  0.2429 -0.0301  0.7809
 7720SOL     OW24058   5.822   0.172   4.299  0.2267  0.3088  0.6428
 7720SOL    HW124059   5.792   0.080   4.324 -0.6811  0.6219  0.7535
 7720SOL    HW224060   5.896   0.201   4.360  0.7205 -0.4536  0.4174
 7721SOL     OW24061   4.570   4.903   3.495 -0.1971 -0.0773  0.3242
 7721SOL    HW124062   4.589   5.001   3.492 -3.9485  0.8259 -3.3857
 7721SOL    HW224063   4.581   4.864   3.404  0.6267 -3.0633  1.6013
 7722SOL     OW24064   0.482   6.939   4.454 -0.0603  0.0093  0.1269
 7722SOL    HW124065   0.527   6.855   4.483 -0.4724 -0.2960 -0.1241
 7722SOL    HW224066   0.390   6.943   4.493 -0.2710  0.0489 -0.3683
 7723SOL     OW24067   4.973   4.918   5.345  0.0267  0.3679  0.5148
 7723SOL    HW124068   4.876   4.914   5.370  0.1469 -3.5495  0.9718
 7723SOL    HW224069   5.029   4.911   5.428  0.7887  2.6228  0.2599
 7724SOL     OW24070   0.560   3.996   6.548  0.1318  0.4739 -0.0013
 7724SOL    HW124071   0.522   3.932   6.482 -0.7874  2.0656 -1.1126
 7724SOL    HW224072   0.485   4.039   6.599  0.4260  2.7455 -1.3427
 7725SOL     OW24073   5.017   2.412   3.394 -0.2038 -0.1434 -0.3743
 7725SOL    HW124074   4.967   2.354   3.458  2.1342 -3.6088 -1.3923
 7725SOL    HW224075   5.080   2.470   3.444  0.2255 -1.4193  0.6246
 7726SOL     OW24076   1.649   3.543   0.933  0.7434 -0.2493 -0.0554
 7726SOL    HW124077   1.672   3.636   0.906 -2.5345  0.6887  0.0364
 7726SOL    HW224078   1.647   3.484   0.852  0.1902  0.4038 -0.5293
 7727SOL     OW24079   6.524   0.328   4.486  0.3969 -0.0771  0.0123
 7727SOL    HW124080   6.589   0.380   4.541 -0.2746  0.8269 -0.0279
 7727SOL    HW224081   6.456   0.286   4.545 -1.7239  2.8039 -0.1613
 7728SOL     OW24082   2.595   3.948   6.412 -0.1325 -0.3447 -0.0890
 7728SOL    HW124083   2.620   4.023   6.350 -1.7343  0.5533  0.2986
 7728SOL    HW224084   2.626   3.969   6.504 -1.0766  0.1412  0.1317
 7729SOL     OW24085   1.518   1.014   2.415  0.1778 -0.3043  0.0035
 7729SOL    HW124086   1.564   1.077   2.352 -0.2006 -1.1569 -1.1570
 7729SOL    HW224087   1.496   1.062   2.500  3.0861  0.1670  0.5790
 7730SOL     OW24088   5.587   4.069   6.424  0.5228 -0.2857 -0.1390
 7730SOL    HW124089   5.524   4.077   6.346 -1.0758 -1.0782  1.0115
 7730SOL    HW224090   5.644   4.151   6.428 -0.8708  0.7813 -0.8852
 7731SOL     OW24091   0.053   0.435   5.586  0.6385  0.6200  0.2063
 7731SOL    HW124092   0.032   0.526   5.551  1.9567  1.1148  0.6755
 7731SOL    HW224093  -0.031   0.380   5.586  0.3054  0.9779 -2.5056
 7732SOL     OW24094   3.339   1.917   1.026 -0.0251 -0.2597  0.4757
 7732SOL    HW124095   3.430   1.888   0.997  0.2212  0.3003  0.6895
 7732SOL    HW224096   3.344   2.006   1.070 -0.8926  0.5045 -0.9006
 7733SOL     OW24097   3.975   5.271   2.007 -0.0503  0.2945 -0.6345
 7733SOL    HW124098   4.028   5.327   1.944  0.2841  0.4061 -0.2571
 7733SOL    HW224099   4.030   5.192   2.035  0.2912  0.9207  0.5140
 7734SOL     OW24100   3.150   3.311   4.474 -0.6434 -0.2910  0.4890
 7734SOL    HW124101   3.213   3.388   4.459 -0.2983 -0.8030 -0.9082
 7734SOL    HW224102   3.058   3.346   4.492 -0.6959  0.4764 -1.1032
 7735SOL     OW24103   6.768   5.364   1.330  0.1480 -0.0831 -0.0655
 7735SOL    HW124104   6.712   5.282   1.321  0.1746 -0.3992  2.0381
 7735SOL    HW224105   6.854   5.353   1.281 -0.2958 -0.8865 -0.6688
 7736SOL     OW24106   1.870   3.163   0.473  0.2711  0.5202  0.0775
 7736SOL    HW124107   1.891   3.066   0.483 -0.9538  0.3206  0.9875
 7736SOL    HW224108   1.872   3.207   0.563 -1.6264  0.7820  0.0387
 7737SOL     OW24109   4.859   6.908   6.430 -0.9204  0.5676 -0.1834
 7737SOL    HW124110   4.929   6.854   6.475  0.1742  2.3585  0.3537
 7737SOL    HW224111   4.778   6.914   6.489 -0.0342  1.7075  0.9701
 7738SOL     OW24112   2.714   6.833   3.582  0.8142  0.3047 -0.6816
 7738SOL    HW124113   2.787   6.875   3.529 -0.5965  1.5899 -1.6803
 7738SOL    HW224114   2.658   6.776   3.521  0.0383  0.6369 -0.2923
 7739SOL     OW24115   1.336   4.166   6.802  0.4894  0.3728 -0.0690
 7739SOL    HW124116   1.413   4.134   6.858  0.4619  0.9104  0.2835
 7739SOL    HW224117   1.317   4.099   6.730  1.4197  0.3351 -0.2913
 7740SOL     OW24118   2.816   1.009   3.746 -0.0106 -0.0333 -0.2634
 7740SOL    HW124119   2.815   1.029   3.648  0.4534  1.1609 -0.0433
 7740SOL    HW224120   2.757   1.075   3.794 -0.8489 -1.0816  0.1942
 7741SOL     OW24121   0.797   4.550   0.996  0.4944  1.0012  0.2652
 7741SOL    HW124122   0.759   4.458   0.996 -2.5783  2.1610 -0.4404
 7741SOL    HW224123   0.809   4.581   0.901 -0.4574  2.0337  0.4646
 7742SOL     OW24124   4.826   4.045   3.875  0.1068  0.4276  0.5081
 7742SOL    HW124125   4.748   3.998   3.917 -0.9554 -0.4536 -2.2521
 7742SOL    HW224126   4.911   3.998   3.900 -0.7590 -1.9114 -0.6389
 7743SOL     OW24127   4.772   0.660   6.828 -0.4902  0.0788 -0.2354
 7743SOL    HW124128   4.677   0.685   6.810 -0.9474 -0.8167  0.8127
 7743SOL    HW224129   4.796   0.580   6.774 -0.2389  0.4566 -0.6926
 7744SOL     OW24130   1.024   3.739   5.043  1.3325  0.0991  0.1387
 7744SOL    HW124131   0.937   3.758   5.087  0.7792 -2.5970  0.3989
 7744SOL    HW224132   1.098   3.753   5.109  1.1509  2.2352 -0.0370
 7745SOL     OW24133   2.666   5.420   0.316  0.2143  0.1931  0.2633
 7745SOL    HW124134   2.641   5.484   0.388  0.0502  0.8136 -0.3320
 7745SOL    HW224135   2.752   5.449   0.275 -0.5053  0.7928 -0.8767
 7746SOL     OW24136   6.489   0.100   1.747  0.4989  0.5911  0.0710
 7746SOL    HW124137   6.453   0.144   1.829 -1.3013  1.0302 -0.8971
 7746SOL    HW224138   6.511   0.169   1.678 -0.6571  0.1188 -0.8133
 7747SOL     OW24139   6.811   5.719   1.780 -0.5361  0.3841  0.0728
 7747SOL    HW124140   6.862   5.665   1.847 -0.3801  0.5291  0.0721
 7747SOL    HW224141   6.857   5.714   1.691  1.1574  2.8594  0.7102
 7748SOL     OW24142   5.028   1.367   5.797  0.5412  0.2137  0.4596
 7748SOL    HW124143   5.100   1.377   5.865 -0.2918  2.6049  1.1050
 7748SOL    HW224144   5.015   1.454   5.749 -0.0446 -0.9400 -1.6273
 7749SOL     OW24145   3.343   3.055   1.730  0.4240  0.2934  0.7630
 7749SOL    HW124146   3.271   3.068   1.797 -1.0858  0.1200 -0.7725
 7749SOL    HW224147   3.406   2.983   1.761 -1.9774 -1.9847  0.6430
 7750SOL     OW24148   6.793   2.000   6.184  0.3921  0.8594 -0.4962
 7750SOL    HW124149   6.850   1.964   6.111  0.4808 -0.3576  0.1409
 7750SOL    HW224150   6.846   2.001   6.270  0.0203  1.4501 -0.2641
 7751SOL     OW24151   6.660   0.771   3.526  0.4907 -0.1831 -0.2684
 7751SOL    HW124152   6.625   0.683   3.559 -0.2697 -0.4839 -1.8028
 7751SOL    HW224153   6.624   0.844   3.584 -0.0165 -0.7667  0.1712
 7752SOL     OW24154   5.773   3.691   4.912 -0.2561 -1.1368  0.2884
 7752SOL    HW124155   5.711   3.732   4.845 -1.2484 -2.3709  0.4133
 7752SOL    HW224156   5.828   3.620   4.868 -1.2796 -2.3150  0.8614
 7753SOL     OW24157   2.253   1.018   4.281  0.1861 -0.0839  0.3405
 7753SOL    HW124158   2.319   1.036   4.354 -0.6958 -0.4089  1.2449
 7753SOL    HW224159   2.161   1.008   4.321 -0.5410  1.0589 -0.9445
 7754SOL     OW24160   5.467   1.217   1.582  0.0091  0.0039 -0.5253
 7754SOL    HW124161   5.367   1.219   1.581 -0.1460 -2.3107  0.9238
 7754SOL    HW224162   5.503   1.287   1.521 -2.4938  0.5289 -1.5173
 7755SOL     OW24163   0.749   6.065   5.752  0.0562 -0.0715 -0.2533
 7755SOL    HW124164   0.660   6.082   5.795  0.1530  0.0940 -0.1196
 7755SOL    HW224165   0.761   5.967   5.739  0.1279 -0.1421  0.3175
 7756SOL     OW24166   2.502   6.174   3.641 -0.2271  0.2138 -0.3958
 7756SOL    HW124167   2.561   6.196   3.719  2.3232 -0.0165 -2.1226
 7756SOL    HW224168   2.545   6.208   3.557 -1.2897 -2.2549 -2.0328
 7757SOL     OW24169   4.028   1.430   5.610  0.2095 -0.1794 -0.2504
 7757SOL    HW124170   3.962   1.498   5.643  0.5031 -0.0777  0.1424
 7757SOL    HW224171   4.118   1.450   5.648 -0.0794 -1.9348  1.5449
 7758SOL     OW24172   2.612   1.264   6.354  0.0088 -0.3867  0.1449
 7758SOL    HW124173   2.528   1.317   6.341  0.4848  0.4729  0.4959
 7758SOL    HW224174   2.646   1.233   6.266 -1.5744 -2.1796  0.1130
 7759SOL     OW24175   2.752   6.565   4.594 -0.5976  0.3095 -0.8004
 7759SOL    HW124176   2.742   6.591   4.690 -1.5377  0.7038 -0.9979
 7759SOL    HW224177   2.799   6.477   4.587 -0.7855  0.1407  0.0299
 7760SOL     OW24178   5.086   1.332   3.405  0.0767  0.3498  0.1457
 7760SOL    HW124179   5.069   1.352   3.308  1.6888 -1.2391 -0.5264
 7760SOL    HW224180   5.130   1.411   3.448  4.1679 -0.6101 -1.8184
 7761SOL     OW24181   4.896   0.962   6.254  0.1317  0.1439  1.0282
 7761SOL    HW124182   4.845   0.976   6.339 -1.5558 -0.6286  0.1780
 7761SOL    HW224183   4.844   0.999   6.177  1.6946  0.9532  0.3104
 7762SOL     OW24184   2.962   2.125   1.818  0.4916 -0.2140  0.1400
 7762SOL    HW124185   2.873   2.096   1.853  0.8377 -1.0922  0.3174
 7762SOL    HW224186   2.998   2.199   1.876 -0.2590  0.3704 -0.1310
 7763SOL     OW24187   2.038   1.896   6.927  0.6516 -0.2260  0.3200
 7763SOL    HW124188   2.014   1.838   6.850  0.6841 -1.2984  1.0999
 7763SOL    HW224189   2.082   1.980   6.894  0.2712 -0.4745 -0.8337
 7764SOL     OW24190   3.527   3.547   3.076 -0.1166 -0.1921 -0.4303
 7764SOL    HW124191   3.569   3.635   3.100  0.3105 -0.3866 -0.4652
 7764SOL    HW224192   3.584   3.500   3.009 -0.6516 -0.2299 -0.8701
 7765SOL     OW24193   0.228   0.183   3.811 -0.6691  0.2690  0.1841
 7765SOL    HW124194   0.134   0.218   3.818 -1.1539 -0.3586 -2.3549
 7765SOL    HW224195   0.292   0.259   3.819 -1.4098  0.8427  0.9311
 7766SOL     OW24196   0.720   2.545   0.212 -0.4499 -0.2176  0.2097
 7766SOL    HW124197   0.639   2.599   0.233 -1.1168 -0.8104 -0.7636
 7766SOL    HW224198   0.792   2.606   0.178 -1.2314  0.0898 -0.9864
 7767SOL     OW24199   5.744   3.980   4.058 -0.2746  0.7257 -0.1458
 7767SOL    HW124200   5.797   3.918   4.116  0.3630  0.2639 -1.1803
 7767SOL    HW224201   5.737   4.069   4.102  0.3228  0.4306  0.5660
 7768SOL     OW24202   3.810   4.486   0.872  0.3499 -0.8472 -0.4065
 7768SOL    HW124203   3.733   4.431   0.903  0.4155 -0.2596  0.8988
 7768SOL    HW224204   3.881   4.427   0.835  0.0287 -1.5589  0.0918
 7769SOL     OW24205   2.779   2.190   3.816  0.7139  0.8661  0.2189
 7769SOL    HW124206   2.783   2.133   3.897 -1.8239  0.3591  0.0623
 7769SOL    HW224207   2.855   2.167   3.755  0.4079 -1.5720  0.6620
 7770SOL     OW24208   3.152   5.449   2.013 -0.0929 -0.1870  0.3708
 7770SOL    HW124209   3.213   5.457   2.092  0.5257  3.4485 -0.2973
 7770SOL    HW224210   3.206   5.436   1.930 -0.6667 -2.7249  0.3369
 7771SOL     OW24211   2.496   1.059   3.550  0.3154  0.3748 -0.3158
 7771SOL    HW124212   2.495   1.129   3.479  0.1294 -0.1695 -0.8609
 7771SOL    HW224213   2.405   1.017   3.556  0.7484 -0.6958 -0.8882
 7772SOL     OW24214   5.158   2.489   6.282 -0.1521 -0.0199 -0.2208
 7772SOL    HW124215   5.248   2.496   6.239 -0.5353 -0.8040 -1.1926
 7772SOL    HW224216   5.089   2.526   6.220 -0.7165 -1.1860 -0.3134
 7773SOL     OW24217   1.787   4.280   5.583  0.3544 -0.5109  0.7119
 7773SOL    HW124218   1.811   4.251   5.490  2.9406 -0.4515  1.2672
 7773SOL    HW224219   1.871   4.292   5.636 -0.9825  0.9479  2.6278
 7774SOL     OW24220   5.156   1.705   0.343  0.4968  0.4958 -0.2649
 7774SOL    HW124221   5.058   1.716   0.326  0.3201 -0.4924  0.0232
 7774SOL    HW224222   5.207   1.771   0.289 -0.2267 -0.2469 -1.9381
 7775SOL     OW24223   5.349   0.071   0.789 -0.0017  0.5426 -0.2042
 7775SOL    HW124224   5.429   0.111   0.835 -1.4523  0.1869  2.8693
 7775SOL    HW224225   5.350  -0.028   0.800 -1.7650  0.6696  1.5835
 7776SOL     OW24226   3.560   4.589   6.378  0.0850  0.2976  0.7657
 7776SOL    HW124227   3.506   4.507   6.396  0.2004  0.6556  3.1634
 7776SOL    HW224228   3.657   4.569   6.390  0.1279  0.7261  1.1822
 7777SOL     OW24229   6.505   1.446   0.922  0.1221  0.3167  0.1043
 7777SOL    HW124230   6.437   1.412   0.987  1.1615  0.2430  1.1856
 7777SOL    HW224231   6.549   1.528   0.960  2.4540 -1.0957  0.6710
 7778SOL     OW24232   5.482   2.931   2.966  0.3378 -0.3384 -0.2544
 7778SOL    HW124233   5.440   2.840   2.974 -0.7671 -0.0963 -2.4434
 7778SOL    HW224234   5.410   3.001   2.971  1.2160  0.4796  1.7735
 7779SOL     OW24235   3.305   3.632   0.271  0.1307 -0.2180  0.1470
 7779SOL    HW124236   3.208   3.653   0.289  0.6157  2.7462 -0.0711
 7779SOL    HW224237   3.312   3.575   0.189 -1.4462 -0.0485 -0.1474
 7780SOL     OW24238   0.047   0.090   5.044  0.4296  0.5539 -0.0095
 7780SOL    HW124239   0.064   0.028   4.967 -0.5444 -0.1678  0.3335
 7780SOL    HW224240   0.100   0.173   5.032  1.9174 -0.4139 -0.4059
 7781SOL     OW24241   2.829   3.566   6.417  0.2381  0.5664 -0.2407
 7781SOL    HW124242   2.837   3.655   6.373 -1.7357  2.6542  3.2204
 7781SOL    HW224243   2.742   3.560   6.465  0.5331 -3.0992  0.1143
 7782SOL     OW24244   5.112   5.161   5.908  0.2507 -0.2064  0.4355
 7782SOL    HW124245   5.167   5.090   5.865 -0.8287 -1.4832  1.0952
 7782SOL    HW224246   5.032   5.180   5.851 -0.8825 -1.4929  1.5364
 7783SOL     OW24247   3.464   0.927   0.290  0.1625 -0.1052  0.1805
 7783SOL    HW124248   3.492   0.920   0.385  1.3820 -1.3238 -0.2334
 7783SOL    HW224249   3.435   1.021   0.270  1.3414  0.5382  1.3663
 7784SOL     OW24250   6.187   4.204   0.990  0.6831  0.2396  0.2972
 7784SOL    HW124251   6.231   4.240   0.908 -0.4726 -1.6342 -1.2453
 7784SOL    HW224252   6.175   4.105   0.981 -2.6062  0.4177  1.1504
 7785SOL     OW24253   1.146   6.331   6.479 -0.1153 -0.4363  0.0255
 7785SOL    HW124254   1.230   6.314   6.428 -1.1351 -0.5316 -1.6889
 7785SOL    HW224255   1.168   6.345   6.576  1.7612 -1.4258 -0.2116
 7786SOL     OW24256   3.334   4.288   5.315 -0.3329  0.1188  0.7173
 7786SOL    HW124257   3.241   4.280   5.280 -0.1422  0.7698  0.0266
 7786SOL    HW224258   3.392   4.218   5.272 -0.4960 -0.2931  1.1558
 7787SOL     OW24259   3.553   3.057   6.227  0.1187  0.0270 -0.0194
 7787SOL    HW124260   3.591   3.127   6.288 -0.4067  0.5210 -0.2442
 7787SOL    HW224261   3.605   3.055   6.141 -0.3929  0.7531 -0.3569
 7788SOL     OW24262   5.444   1.003   6.943  0.3006 -0.2918  0.2938
 7788SOL    HW124263   5.412   0.909   6.958  1.9653 -0.9261  0.1832
 7788SOL    HW224264   5.529   1.000   6.891 -0.0988  1.3514 -0.4908
 7789SOL     OW24265   0.047   1.447   1.546 -0.0373 -0.1202  0.4445
 7789SOL    HW124266   0.018   1.538   1.515 -0.4083  0.0478  1.2454
 7789SOL    HW224267  -0.017   1.378   1.514  1.1989 -0.3640 -1.6950
 7790SOL     OW24268   6.694   2.620   3.417 -0.4256  0.7010  0.0437
 7790SOL    HW124269   6.762   2.566   3.465  0.1963  1.0433 -0.4356
 7790SOL    HW224270   6.604   2.577   3.427  0.2080 -1.0964 -1.2804
 7791SOL     OW24271   1.242   0.215   0.110  0.6109 -0.9487  0.2926
 7791SOL    HW124272   1.233   0.184   0.016  0.7719 -1.2362  0.3721
 7791SOL    HW224273   1.333   0.194   0.145  1.6150  1.7858 -0.4393
 7792SOL     OW24274   6.884   5.354   6.553  0.1834  0.2215  0.5232
 7792SOL    HW124275   6.939   5.304   6.620 -1.2964 -0.9659  0.9345
 7792SOL    HW224276   6.888   5.307   6.465  0.1575  0.3472  0.4548
 7793SOL     OW24277   1.384   6.932   6.783 -0.3413 -0.2411 -0.2076
 7793SOL    HW124278   1.371   6.910   6.686  0.2467  0.7182 -0.5210
 7793SOL    HW224279   1.334   6.866   6.839  1.4412 -2.4755 -1.0816
 7794SOL     OW24280   6.274   4.474   2.353  0.2297 -0.2521  0.3346
 7794SOL    HW124281   6.225   4.550   2.396  1.3913  0.0767  1.1406
 7794SOL    HW224282   6.209   4.411   2.311 -0.8879 -0.0270  1.6809
 7795SOL     OW24283   1.736   3.023   4.629 -0.5432 -0.0670  0.9836
 7795SOL    HW124284   1.645   3.005   4.592  0.1320 -1.0728 -0.2634
 7795SOL    HW224285   1.794   3.063   4.557  0.7037 -1.7317  0.9968
 7796SOL     OW24286   3.584   2.907   3.579 -0.2888  0.3142 -0.3054
 7796SOL    HW124287   3.521   2.942   3.649 -0.4034  0.3890 -0.4458
 7796SOL    HW224288   3.549   2.929   3.488  1.0233  2.3619 -0.4055
 7797SOL     OW24289   1.473   5.690   4.790 -0.1455 -0.1751  0.6437
 7797SOL    HW124290   1.570   5.685   4.814 -0.0354  0.2248  0.2954
 7797SOL    HW224291   1.440   5.784   4.803  0.1743  0.3090 -1.6593
 7798SOL     OW24292   6.161   6.820   4.937 -0.0995 -0.7043  0.0608
 7798SOL    HW124293   6.168   6.859   4.845  0.0873 -1.9443 -0.4791
 7798SOL    HW224294   6.089   6.751   4.937 -0.1475 -0.6544  0.8739
 7799SOL     OW24295   3.890   6.467   2.794 -0.5908 -0.3895  0.3346
 7799SOL    HW124296   3.813   6.476   2.730  0.9472  0.4775 -1.4948
 7799SOL    HW224297   3.938   6.381   2.776  2.3640  1.6618 -2.8023
 7800SOL     OW24298   6.466   5.756   2.400 -0.6579 -0.3455 -0.0514
 7800SOL    HW124299   6.523   5.808   2.464 -0.4907 -1.6353  0.8812
 7800SOL    HW224300   6.512   5.752   2.311 -0.1532  0.1543  0.1751
 7801SOL     OW24301   4.792   0.979   5.971  0.8746 -0.7959  0.6911
 7801SOL    HW124302   4.775   0.898   5.915  0.3268 -0.5342  0.4760
 7801SOL    HW224303   4.781   1.062   5.915  2.9433 -0.5959  0.5049
 7802SOL     OW24304   4.843   6.847   6.742 -0.0965 -0.0212 -0.0014
 7802SOL    HW124305   4.773   6.851   6.814 -1.1802 -1.1894 -0.9527
 7802SOL    HW224306   4.894   6.762   6.751  1.0042  0.6590  0.4596
 7803SOL     OW24307   2.014   2.623   1.172  0.1196 -0.3271 -0.3488
 7803SOL    HW124308   2.059   2.582   1.251  1.5851  0.8544 -0.5274
 7803SOL    HW224309   1.924   2.659   1.200  0.0352 -1.1229  0.4403
 7804SOL     OW24310   5.164   0.404   4.907 -0.7908 -0.7126  0.1438
 7804SOL    HW124311   5.105   0.324   4.894 -0.6609 -0.9583  0.9793
 7804SOL    HW224312   5.256   0.384   4.874 -0.4983 -1.2775  1.2423
 7805SOL     OW24313   6.028   4.483   1.781 -0.1945 -0.0094 -0.0102
 7805SOL    HW124314   6.062   4.404   1.730 -0.7181 -0.7779  0.8170
 7805SOL    HW224315   5.998   4.454   1.872 -2.2951  0.7880 -0.4038
 7806SOL     OW24316   6.212   2.605   6.891  0.3493  0.3307 -0.1889
 7806SOL    HW124317   6.225   2.507   6.907  2.4719  0.6555  0.4331
 7806SOL    HW224318   6.236   2.655   6.974 -1.0585  1.3912 -0.3855
 7807SOL     OW24319   2.445   2.214   6.353  0.0776  0.0911 -0.3458
 7807SOL    HW124320   2.413   2.151   6.423  2.2841 -0.1461  0.5513
 7807SOL    HW224321   2.456   2.164   6.266  1.8745 -0.8767  0.3704
 7808SOL     OW24322   0.556   2.297   4.746  0.2227 -0.2308 -0.1686
 7808SOL    HW124323   0.487   2.225   4.753  0.4453 -0.4209  0.0909
 7808SOL    HW224324   0.603   2.307   4.834 -1.7249  2.1675  0.7020
 7809SOL     OW24325   6.990   5.254   5.841 -0.0996 -0.2461 -0.2424
 7809SOL    HW124326   6.892   5.254   5.821 -0.1286 -2.5546 -0.3791
 7809SOL    HW224327   7.041   5.278   5.759 -0.4884 -1.9870 -1.0426
 7810SOL     OW24328   2.688   0.582   6.525  0.2882 -0.0128  0.0155
 7810SOL    HW124329   2.613   0.542   6.578  1.3806  1.4521  2.8785
 7810SOL    HW224330   2.727   0.512   6.465  0.0696 -2.3684  2.4275
 7811SOL     OW24331   5.638   3.944   6.048 -0.3365 -0.0689 -0.5159
 7811SOL    HW124332   5.686   4.019   6.093 -1.4487  0.4405 -0.1172
 7811SOL    HW224333   5.595   3.886   6.117 -1.1423  0.0878 -0.8729
 7812SOL     OW24334   6.995   0.593   5.270 -0.7922 -0.5278 -0.4147
 7812SOL    HW124335   7.031   0.647   5.346  1.6913 -2.3732 -0.1516
 7812SOL    HW224336   6.999   0.647   5.186  1.4090 -0.1584 -0.1283
 7813SOL     OW24337   6.936   1.485   0.564 -0.1398 -0.3032  0.2260
 7813SOL    HW124338   6.915   1.543   0.485  1.3037 -0.4538 -0.2960
 7813SOL    HW224339   6.871   1.409   0.568  1.3938 -1.9090 -2.5192
 7814SOL     OW24340   2.080   2.608   3.302 -0.2131  0.5386 -0.1568
 7814SOL    HW124341   2.003   2.634   3.360 -1.4367 -2.6378 -0.1965
 7814SOL    HW224342   2.048   2.590   3.209  1.2143  2.4657 -1.0955
 7815SOL     OW24343   6.998   4.168   5.060 -0.0047  0.4482  0.0326
 7815SOL    HW124344   6.956   4.077   5.056  0.3762  0.3135 -1.5407
 7815SOL    HW224345   6.984   4.207   5.151 -2.2934 -0.1716  0.0029
 7816SOL     OW24346   1.442   3.596   5.083  0.1013 -0.2415  0.2482
 7816SOL    HW124347   1.441   3.611   5.182 -3.2712 -3.2392  0.8907
 7816SOL    HW224348   1.366   3.647   5.041 -0.0642 -0.9824 -0.3759
 7817SOL     OW24349   5.292   2.814   4.408 -0.7028  0.2613 -0.0485
 7817SOL    HW124350   5.271   2.720   4.379 -2.0651  0.0039  1.6211
 7817SOL    HW224351   5.212   2.872   4.392  0.5300  1.4632 -2.1921
 7818SOL     OW24352   1.623   1.536   4.752 -0.5430  0.4516 -0.3111
 7818SOL    HW124353   1.591   1.449   4.789  0.7285 -0.1600 -0.5839
 7818SOL    HW224354   1.547   1.582   4.705 -1.1202 -0.7535 -0.6173
 7819SOL     OW24355   1.038   1.322   0.481 -0.1131  0.2331  0.0086
 7819SOL    HW124356   1.025   1.254   0.552  1.2600  1.0929  1.1391
 7819SOL    HW224357   1.117   1.298   0.425  0.5608  1.0092  0.5974
 7820SOL     OW24358   2.791   4.940   5.945  0.0637  0.2783  0.1822
 7820SOL    HW124359   2.890   4.938   5.956 -0.0717 -0.4962  1.3973
 7820SOL    HW224360   2.768   4.991   5.862  1.4918  0.0436 -0.3848
 7821SOL     OW24361   4.141   6.278   1.812 -0.4283 -0.1990 -0.1769
 7821SOL    HW124362   4.090   6.356   1.848  0.5827  0.5005 -0.2221
 7821SOL    HW224363   4.164   6.216   1.886  0.0279  0.2869  0.0917
 7822SOL     OW24364   0.818   6.979   4.854  0.2886  0.3886  0.0149
 7822SOL    HW124365   0.759   6.898   4.858 -0.5378  0.8456 -1.8944
 7822SOL    HW224366   0.768   7.058   4.891  0.8140  0.2177  1.1453
 7823SOL     OW24367   1.686   2.933   5.216 -0.5482  0.6587 -0.2478
 7823SOL    HW124368   1.724   2.868   5.150 -0.4599  0.2422  0.2053
 7823SOL    HW224369   1.645   3.010   5.168  2.7772  2.2813 -0.8139
 7824SOL     OW24370   6.884   3.024   4.811 -0.2314 -0.1840  0.7237
 7824SOL    HW124371   6.845   3.047   4.722  2.1335  1.1330 -0.0488
 7824SOL    HW224372   6.910   2.927   4.812 -1.4502 -0.5294  0.4789
 7825SOL     OW24373   2.234   0.395   0.268  0.8419  0.3405 -0.2602
 7825SOL    HW124374   2.332   0.388   0.254  0.6577 -0.4030 -1.2880
 7825SOL    HW224375   2.210   0.358   0.358  1.7248  2.5230  0.9377
 7826SOL     OW24376   0.289   3.763   5.170 -0.1285  0.7242 -0.1184
 7826SOL    HW124377   0.289   3.821   5.252  1.9658  1.1746 -0.3606
 7826SOL    HW224378   0.383   3.754   5.136 -0.1790 -3.5418  0.3816
 7827SOL     OW24379   6.231   5.603   3.613 -0.4773  0.2498  0.2858
 7827SOL    HW124380   6.195   5.696   3.616  0.7834  0.7244  1.8863
 7827SOL    HW224381   6.294   5.589   3.689 -1.5941 -2.3271  0.8552
 7828SOL     OW24382   0.923   6.383   6.067  0.4036  0.2534 -0.2905
 7828SOL    HW124383   0.994   6.452   6.054  1.0035  0.1345  1.9333
 7828SOL    HW224384   0.964   6.292   6.066 -0.0446  0.0526 -1.0095
 7829SOL     OW24385   5.698   5.391   0.777  0.4662  0.3243 -0.3829
 7829SOL    HW124386   5.733   5.300   0.757 -1.5495 -0.4355 -0.7202
 7829SOL    HW224387   5.598   5.388   0.782  0.4418  2.0264  2.0831
 7830SOL     OW24388   1.324   5.152   6.214  0.4346  0.2233 -0.0728
 7830SOL    HW124389   1.250   5.193   6.162  0.1902 -0.2999 -0.1404
 7830SOL    HW224390   1.410   5.161   6.163  0.4804  1.0946  0.1385
 7831SOL     OW24391   1.377   2.213   0.147 -0.1077 -0.1825  0.1973
 7831SOL    HW124392   1.277   2.213   0.151 -0.0937 -0.8129  0.6386
 7831SOL    HW224393   1.414   2.163   0.225  0.5254 -1.1049 -0.6732
 7832SOL     OW24394   6.331   6.801   5.699 -0.3785 -0.0202  0.7465
 7832SOL    HW124395   6.392   6.736   5.745  0.2430  0.5494  0.7338
 7832SOL    HW224396   6.264   6.751   5.644  0.7322 -0.6298 -0.0772
 7833SOL     OW24397   1.136   6.088   4.957  0.1059  0.4585  0.1419
 7833SOL    HW124398   1.092   6.000   4.975  1.4072 -0.1818  0.3155
 7833SOL    HW224399   1.147   6.138   5.043  2.7043 -0.8657  0.6961
 7834SOL     OW24400   6.827   2.140   5.348 -0.4219 -0.2511  0.3289
 7834SOL    HW124401   6.758   2.186   5.405  1.6983  1.7453  1.4735
 7834SOL    HW224402   6.838   2.191   5.262  1.0906  0.7882  1.0891
 7835SOL     OW24403   5.151   1.204   0.272  0.1235 -0.8432 -0.0620
 7835SOL    HW124404   5.188   1.288   0.311 -0.7002 -0.0914 -0.8509
 7835SOL    HW224405   5.164   1.204   0.173 -0.8649 -1.1257 -0.2066
 7836SOL     OW24406   3.369   2.513   5.314 -0.7111  0.1704 -0.5368
 7836SOL    HW124407   3.434   2.436   5.316 -1.3265 -0.4544 -2.3011
 7836SOL    HW224408   3.283   2.483   5.273 -1.3831  1.5306 -0.1900
 7837SOL     OW24409   0.266   5.145   0.455 -0.3124 -0.3632  0.1022
 7837SOL    HW124410   0.278   5.242   0.434  1.2968 -0.3326  0.9730
 7837SOL    HW224411   0.208   5.135   0.536 -0.0076 -0.0855  0.3588
 7838SOL     OW24412   3.956   5.776   2.592 -0.0033 -0.5633  0.4222
 7838SOL    HW124413   3.858   5.767   2.576 -0.2526  2.2819 -0.1377
 7838SOL    HW224414   3.971   5.810   2.685  0.4549 -0.5567  0.3448
 7839SOL     OW24415   5.305   4.601   2.308  0.1957  0.0328 -0.2462
 7839SOL    HW124416   5.392   4.553   2.323  0.1165 -0.7913 -2.0994
 7839SOL    HW224417   5.324   4.694   2.279  0.3896  0.5083  1.3104
 7840SOL     OW24418   3.029   2.139   3.965  0.0130  0.0059 -0.2557
 7840SOL    HW124419   3.012   2.171   3.872  0.0499 -1.2956 -0.7309
 7840SOL    HW224420   3.128   2.123   3.977 -0.1636 -1.6009 -0.6322
 7841SOL     OW24421   5.027   2.354   5.709  0.1118 -0.0221 -0.2738
 7841SOL    HW124422   4.960   2.427   5.722 -1.1382 -1.3770  1.3468
 7841SOL    HW224423   4.994   2.291   5.639  0.2928 -0.0253 -0.3568
 7842SOL     OW24424   1.230   6.011   0.796  0.2391 -0.0985 -0.2352
 7842SOL    HW124425   1.181   5.936   0.752 -2.2543  1.5483 -0.4252
 7842SOL    HW224426   1.192   6.027   0.887  0.3565  1.2743 -0.4160
 7843SOL     OW24427   6.639   6.480   2.497 -0.2844  0.3613  0.3129
 7843SOL    HW124428   6.584   6.557   2.530  0.1872  0.7737  0.1447
 7843SOL    HW224429   6.657   6.492   2.400 -1.6831 -0.8552 -0.1417
 7844SOL     OW24430   2.356   5.933   3.890 -0.2375 -0.6332  0.1103
 7844SOL    HW124431   2.441   5.946   3.841 -0.4740 -2.1722 -0.7927
 7844SOL    HW224432   2.374   5.922   3.988  0.3229  1.5520  0.2886
 7845SOL     OW24433   0.073   4.665   1.160  0.4652  0.4200  0.0425
 7845SOL    HW124434   0.036   4.702   1.075 -0.5369 -1.3028 -0.3308
 7845SOL    HW224435   0.016   4.695   1.237 -0.0559  0.0313 -0.1919
 7846SOL     OW24436   6.782   3.134   5.339  0.2393  0.1768  0.2205
 7846SOL    HW124437   6.776   3.195   5.419  1.1084 -1.5963  1.7244
 7846SOL    HW224438   6.723   3.055   5.353  0.9718 -0.5242 -0.5469
 7847SOL     OW24439   0.527   4.922   4.693  0.2287  0.3235  0.7420
 7847SOL    HW124440   0.613   4.895   4.650 -0.5565 -0.7633 -0.2359
 7847SOL    HW224441   0.474   4.839   4.715  0.1694  0.8875  2.9451
 7848SOL     OW24442   6.522   5.253   6.896  1.0404 -0.1825  0.4124
 7848SOL    HW124443   6.573   5.318   6.839  2.0308 -2.0246 -0.8948
 7848SOL    HW224444   6.489   5.177   6.840  1.4729 -1.7354  2.1591
 7849SOL     OW24445   2.792   5.895   0.746  0.0756  0.3878  0.1131
 7849SOL    HW124446   2.772   5.802   0.775 -0.0513 -0.1778 -1.6480
 7849SOL    HW224447   2.748   5.960   0.808 -2.9575 -0.7780 -0.6308
 7850SOL     OW24448   4.582   1.166   2.570 -0.3910  0.2347 -0.4935
 7850SOL    HW124449   4.601   1.214   2.484 -2.6951  0.0761 -1.1564
 7850SOL    HW224450   4.666   1.157   2.622  0.7597  1.8702 -1.9466
 7851SOL     OW24451   2.312   4.474   6.006  0.4479  0.0245 -0.1786
 7851SOL    HW124452   2.275   4.536   5.937 -0.1034 -1.6848 -1.4948
 7851SOL    HW224453   2.278   4.499   6.096 -0.7240  0.8971 -0.8411
 7852SOL     OW24454   2.116   3.538   3.665  0.0284  0.0235  0.4836
 7852SOL    HW124455   2.095   3.538   3.567 -1.3312 -0.4800  0.7529
 7852SOL    HW224456   2.056   3.603   3.712 -1.0460 -1.4746  1.2852
 7853SOL     OW24457   4.348   0.433   3.130  0.5541  0.6585 -1.0334
 7853SOL    HW124458   4.255   0.449   3.162  0.7912 -0.5784  0.3908
 7853SOL    HW224459   4.403   0.515   3.148 -0.1349  1.2353 -1.4827
 7854SOL     OW24460   4.567   2.394   1.075  0.4643  0.0457 -0.3149
 7854SOL    HW124461   4.636   2.465   1.056 -1.5739  1.9131 -1.1677
 7854SOL    HW224462   4.482   2.438   1.103 -0.2843 -2.2235  1.1953
 7855SOL     OW24463   4.524   6.878   5.132 -0.0305 -0.1358 -0.0925
 7855SOL    HW124464   4.509   6.784   5.164 -1.6977 -0.6167 -2.0149
 7855SOL    HW224465   4.461   6.940   5.179  1.5023  0.1847  1.6381
 7856SOL     OW24466   0.717   6.844   6.222  0.9097 -0.7256 -0.1807
 7856SOL    HW124467   0.682   6.832   6.315  0.8524  0.9273  0.0475
 7856SOL    HW224468   0.672   6.780   6.160 -0.0478 -0.9244  0.6966
 7857SOL     OW24469   6.831   5.254   4.800 -0.6395  0.2814  0.1796
 7857SOL    HW124470   6.914   5.264   4.853  0.0239  0.8029 -0.9108
 7857SOL    HW224471   6.807   5.157   4.792 -0.6977  0.1982  1.3180
 7858SOL     OW24472   6.660   2.982   3.951 -0.3844 -0.0669  0.1665
 7858SOL    HW124473   6.618   3.063   3.910  0.0330  0.3744  0.6009
 7858SOL    HW224474   6.615   2.900   3.916  0.4433  0.2458 -1.7228
 7859SOL     OW24475   5.351   3.114   1.844  0.0005  0.2630 -0.4290
 7859SOL    HW124476   5.294   3.107   1.925 -0.7007  2.1648 -0.7135
 7859SOL    HW224477   5.389   3.206   1.837 -2.3909  1.2247 -3.7489
 7860SOL     OW24478   1.440   2.987   4.531  0.0407 -0.0547 -0.0657
 7860SOL    HW124479   1.485   2.900   4.550  0.5741  0.4165  0.9421
 7860SOL    HW224480   1.408   2.989   4.436  0.8375 -0.9772 -0.3646
 7861SOL     OW24481   2.911   5.304   6.996  0.1810 -0.8853 -0.1872
 7861SOL    HW124482   2.936   5.300   6.899  0.3628 -1.1835 -0.1284
 7861SOL    HW224483   2.814   5.324   7.005  0.4308  0.5882 -0.4259
 7862SOL     OW24484   1.498   6.850   5.711  0.3015 -0.6241 -0.1236
 7862SOL    HW124485   1.468   6.786   5.640 -0.6982 -0.6462  0.3157
 7862SOL    HW224486   1.549   6.925   5.668 -1.9228  0.3908 -1.1189
 7863SOL     OW24487   0.888   3.351   3.976  1.1190  0.6095  0.2181
 7863SOL    HW124488   0.970   3.330   4.029  1.9200 -1.0538 -1.5629
 7863SOL    HW224489   0.815   3.286   4.000  0.7099  1.2758  0.8543
 7864SOL     OW24490   2.467   5.064   4.282 -0.3416 -0.2488  0.8810
 7864SOL    HW124491   2.475   5.150   4.232  0.4030 -0.5385  0.4965
 7864SOL    HW224492   2.370   5.046   4.302 -0.5134  0.6020  0.8449
 7865SOL     OW24493   6.746   4.642   1.706 -0.8831 -0.2541 -0.6894
 7865SOL    HW124494   6.665   4.700   1.692 -1.0286  0.7348  3.1120
 7865SOL    HW224495   6.718   4.555   1.747 -0.0677  0.1195  0.7126
 7866SOL     OW24496   0.779   1.258   5.316  0.0452 -0.3352 -0.8757
 7866SOL    HW124497   0.803   1.328   5.249 -1.0011  1.5990  0.6488
 7866SOL    HW224498   0.691   1.217   5.291 -1.0795  1.4110 -0.0350
 7867SOL     OW24499   4.331   0.178   3.091  0.6160 -0.0488 -0.2801
 7867SOL    HW124500   4.335   0.274   3.117  0.5434  0.7076 -2.7734
 7867SOL    HW224501   4.238   0.144   3.103  0.4330  0.4641 -0.2128
 7868SOL     OW24502   4.445   5.682   1.174 -0.7516  0.1221 -0.2045
 7868SOL    HW124503   4.432   5.603   1.115  1.2175 -0.8384  0.5612
 7868SOL    HW224504   4.376   5.681   1.246 -0.3285 -1.3211  0.2158
 7869SOL     OW24505   5.467   6.997   6.185 -0.0389  0.4618  0.2292
 7869SOL    HW124506   5.490   7.019   6.280  1.0323  2.5656 -0.4493
 7869SOL    HW224507   5.516   6.914   6.157  0.9764  0.7709  1.0159
 7870SOL     OW24508   2.212   6.477   3.197  0.3837  0.2129 -0.2939
 7870SOL    HW124509   2.286   6.453   3.134 -0.8104 -0.2743 -1.5693
 7870SOL    HW224510   2.125   6.447   3.159 -0.3570 -0.4577  1.8107
 7871SOL     OW24511   6.014   1.476   0.453 -0.1756 -0.4564  0.2393
 7871SOL    HW124512   6.040   1.571   0.471 -1.5111 -0.2190  1.0614
 7871SOL    HW224513   6.096   1.421   0.441  0.6316  1.0660 -1.8339
 7872SOL     OW24514   1.514   5.380   4.243 -0.7456 -0.7453  0.1312
 7872SOL    HW124515   1.521   5.332   4.331  0.4557 -1.6064 -0.4068
 7872SOL    HW224516   1.475   5.318   4.175 -1.1855 -0.2444 -0.0816
 7873SOL     OW24517   5.715   2.526   0.013  0.4642  0.2196 -0.0755
 7873SOL    HW124518   5.629   2.487  -0.019  0.7752  0.6570 -1.5023
 7873SOL    HW224519   5.703   2.561   0.106 -0.8321  0.0895 -0.1753
 7874SOL     OW24520   5.711   3.501   1.235  0.1189  0.2378  0.2861
 7874SOL    HW124521   5.635   3.450   1.195  1.0134  0.9920 -2.6248
 7874SOL    HW224522   5.677   3.587   1.274 -1.1753 -1.7264  3.8780
 7875SOL     OW24523   6.150   0.074   7.007 -0.0065  0.2452 -0.2347
 7875SOL    HW124524   6.136   0.170   7.034 -1.1183  0.2021 -0.6235
 7875SOL    HW224525   6.245   0.048   7.027  0.0882  1.1782  0.6271
 7876SOL     OW24526   0.322   4.401   3.080 -0.0476 -0.1259 -0.1687
 7876SOL    HW124527   0.365   4.417   3.169 -1.0576 -0.2888  0.3588
 7876SOL    HW224528   0.371   4.327   3.033  1.3204  0.8579 -0.3393
 7877SOL     OW24529   0.792   3.917   0.635 -0.4116  0.2524  0.3639
 7877SOL    HW124530   0.731   3.981   0.590 -2.1188 -0.6643  1.2828
 7877SOL    HW224531   0.756   3.893   0.724  1.7158  0.2553  1.2971
 7878SOL     OW24532   3.014   1.044   2.403 -0.0949  0.2574  0.1300
 7878SOL    HW124533   2.973   0.953   2.407  1.3993 -0.4596 -0.0602
 7878SOL    HW224534   2.984   1.091   2.320 -2.1293  0.5965  1.0107
 7879SOL     OW24535   2.460   5.868   3.023 -0.0213  0.3417  0.5572
 7879SOL    HW124536   2.378   5.888   3.077  0.7522  0.4952  1.7023
 7879SOL    HW224537   2.540   5.865   3.083  0.6179 -1.2765 -0.2983
 7880SOL     OW24538   1.942   4.031   2.145  0.3436  0.1397 -0.4907
 7880SOL    HW124539   1.881   4.007   2.220  1.4748 -3.1681 -0.4738
 7880SOL    HW224540   2.032   4.054   2.181  0.9365 -1.6215 -0.7835
 7881SOL     OW24541   5.496   3.642   3.329  0.5550 -0.4933  0.0258
 7881SOL    HW124542   5.488   3.587   3.245  1.7441  0.2636 -0.6138
 7881SOL    HW224543   5.423   3.710   3.332  0.5979 -0.4245 -0.4718
 7882SOL     OW24544   5.987   2.889   0.215 -0.0637 -0.3238 -0.1982
 7882SOL    HW124545   6.083   2.917   0.210  0.3735 -1.6808 -0.0779
 7882SOL    HW224546   5.928   2.969   0.215  1.0756  0.5374 -0.2336
 7883SOL     OW24547   6.521   6.529   4.809 -0.2518 -0.0222 -0.0700
 7883SOL    HW124548   6.592   6.507   4.876 -0.1372  2.0741  0.5914
 7883SOL    HW224549   6.554   6.603   4.750 -0.4478 -1.6407 -2.3468
 7884SOL     OW24550   0.337   2.048   2.539  0.1229 -0.1533  0.2593
 7884SOL    HW124551   0.422   2.097   2.560  1.6730 -2.4636 -0.1469
 7884SOL    HW224552   0.260   2.111   2.542  1.7361  1.8934  1.4233
 7885SOL     OW24553   6.492   6.447   1.413  0.5726 -0.8162  0.5664
 7885SOL    HW124554   6.450   6.447   1.504 -0.6007 -1.9604  0.0701
 7885SOL    HW224555   6.558   6.372   1.406  1.8028  0.2100  0.9435
 7886SOL     OW24556   4.880   3.128   0.538  0.0569 -0.0598  0.5100
 7886SOL    HW124557   4.842   3.070   0.610 -0.9547 -1.3055 -0.9873
 7886SOL    HW224558   4.879   3.080   0.451  0.1861  1.8296 -0.5990
 7887SOL     OW24559   4.317   2.367   6.078  0.6585  0.1328 -0.0305
 7887SOL    HW124560   4.292   2.384   5.982 -0.0558  1.6899  0.4014
 7887SOL    HW224561   4.340   2.271   6.090 -0.3007 -0.3142 -1.5413
 7888SOL     OW24562   3.174   6.638   4.142  0.2537 -0.5363 -0.4093
 7888SOL    HW124563   3.191   6.615   4.237  1.9330 -0.2543 -0.6071
 7888SOL    HW224564   3.104   6.709   4.136 -0.6668 -1.3336  0.5213
 7889SOL     OW24565   0.848   3.234   3.021 -0.3767  0.0046 -0.5138
 7889SOL    HW124566   0.887   3.221   3.112  0.7917 -0.4075 -1.0469
 7889SOL    HW224567   0.749   3.222   3.025 -0.1211 -2.3676  0.3066
 7890SOL     OW24568   2.681   5.879   3.200 -0.0127  0.0869 -0.0287
 7890SOL    HW124569   2.755   5.814   3.209  0.0097  0.0905 -0.1803
 7890SOL    HW224570   2.717   5.967   3.167 -0.4216 -0.7167 -2.9193
 7891SOL     OW24571   5.776   4.225   4.427  0.4239  0.2933  0.1525
 7891SOL    HW124572   5.826   4.265   4.504  0.1998 -0.5570  0.7584
 7891SOL    HW224573   5.687   4.192   4.459  0.2917  0.0060 -0.4929
 7892SOL     OW24574   1.185   1.645   4.245  0.1504 -0.3238  0.8222
 7892SOL    HW124575   1.163   1.632   4.149 -0.2196 -0.4714  0.9274
 7892SOL    HW224576   1.260   1.711   4.253  0.7504 -0.9353  0.3936
 7893SOL     OW24577   4.528   6.528   3.172  0.3604 -0.3282  0.0196
 7893SOL    HW124578   4.468   6.454   3.141 -0.9279  0.9731 -0.7474
 7893SOL    HW224579   4.611   6.489   3.211 -0.2608 -2.1682 -0.3661
 7894SOL     OW24580   1.510   1.740   1.648  0.5152 -0.2670 -0.0869
 7894SOL    HW124581   1.534   1.657   1.699  0.1869 -0.4959 -0.2984
 7894SOL    HW224582   1.438   1.718   1.582  0.3769  0.2053 -0.0930
 7895SOL     OW24583   0.518   2.192   3.037 -0.6722 -0.3146 -0.0588
 7895SOL    HW124584   0.543   2.289   3.043  0.8619 -0.5643 -1.6350
 7895SOL    HW224585   0.506   2.155   3.129  1.4162  0.7217  0.7026
 7896SOL     OW24586   4.041   6.438   7.005  0.6864 -0.1289 -0.5776
 7896SOL    HW124587   4.005   6.528   7.029  0.3765 -0.7782  1.5837
 7896SOL    HW224588   3.968   6.384   6.962  0.3300  0.0388 -0.1962
 7897SOL     OW24589   3.222   3.160   6.537  0.5452 -0.0804  0.3132
 7897SOL    HW124590   3.204   3.064   6.559  0.6565  0.0429  0.9671
 7897SOL    HW224591   3.232   3.170   6.438 -3.4400 -0.1124 -0.2642
 7898SOL     OW24592   5.586   1.622   3.084  0.2205 -0.6158 -0.1587
 7898SOL    HW124593   5.648   1.666   3.149 -1.5876  1.6169  0.1862
 7898SOL    HW224594   5.579   1.525   3.105  3.8397 -1.0865 -0.4849
 7899SOL     OW24595   3.441   6.381   1.070 -0.0657 -0.6805  0.7396
 7899SOL    HW124596   3.521   6.383   1.009  0.0658 -3.2492  0.7368
 7899SOL    HW224597   3.366   6.334   1.025 -0.8198 -0.3572  1.6337
 7900SOL     OW24598   0.060   0.113   2.055 -0.3782 -0.1542  0.3905
 7900SOL    HW124599   0.139   0.166   2.086 -0.7359 -0.5160  1.9710
 7900SOL    HW224600   0.092   0.026   2.018  0.1165  0.6367 -1.1456
 7901SOL     OW24601   6.247   4.638   0.036  0.0833 -0.2161  0.1482
 7901SOL    HW124602   6.228   4.584  -0.046 -1.0406  0.2893  0.0563
 7901SOL    HW224603   6.335   4.610   0.075  0.9530 -0.0156 -1.5898
 7902SOL     OW24604   4.202   4.366   6.334 -0.1961  0.2669 -0.5937
 7902SOL    HW124605   4.121   4.414   6.299 -0.2835 -0.2029 -1.0506
 7902SOL    HW224606   4.213   4.279   6.285  0.4732  0.2339 -0.3964
 7903SOL     OW24607   1.548   1.259   2.880  0.2086  0.0650 -0.0601
 7903SOL    HW124608   1.523   1.188   2.945 -0.4379 -0.4102 -0.8135
 7903SOL    HW224609   1.554   1.347   2.927 -1.2432 -0.0968  0.4590
 7904SOL     OW24610   5.271   1.578   4.554  0.0074 -0.9043  0.0345
 7904SOL    HW124611   5.211   1.607   4.629  0.3332 -1.3575  0.4764
 7904SOL    HW224612   5.216   1.534   4.483 -0.4131  0.2492 -0.3768
 7905SOL     OW24613   3.172   1.506   2.108 -0.3876  0.6815  0.1603
 7905SOL    HW124614   3.141   1.562   2.185 -1.8004 -0.0310  0.1292
 7905SOL    HW224615   3.093   1.465   2.062  0.5569 -0.5867 -0.3911
 7906SOL     OW24616   0.818   4.389   6.823 -0.8127  0.5286  0.0340
 7906SOL    HW124617   0.857   4.305   6.861  0.3375  0.8929 -0.2952
 7906SOL    HW224618   0.757   4.431   6.891 -2.7300 -1.4013 -0.4052
 7907SOL     OW24619   6.280   3.164   3.473 -0.2610 -0.1244  0.2038
 7907SOL    HW124620   6.273   3.102   3.395  0.4570  0.4756 -0.3535
 7907SOL    HW224621   6.260   3.114   3.557  0.5587 -1.1818 -0.2041
 7908SOL     OW24622   6.996   6.750   3.885 -0.3462  0.1031 -0.0878
 7908SOL    HW124623   6.907   6.790   3.861  0.1693  1.6033  0.4017
 7908SOL    HW224624   7.068   6.818   3.873  0.6075 -0.7461  0.6115
 7909SOL     OW24625   3.250   5.737   5.856  0.2207  0.2319  0.2895
 7909SOL    HW124626   3.340   5.698   5.875  0.9956  0.7697 -2.0107
 7909SOL    HW224627   3.237   5.820   5.910  0.5413 -0.5192  1.5744
 7910SOL     OW24628   6.257   4.188   5.121 -0.4473 -0.3704 -0.6263
 7910SOL    HW124629   6.225   4.100   5.085 -0.3654 -0.1527 -1.2492
 7910SOL    HW224630   6.270   4.252   5.045  1.6798 -0.5115 -0.4451
 7911SOL     OW24631   6.241   4.320   6.461 -0.3428  0.1606  0.0457
 7911SOL    HW124632   6.324   4.356   6.419  0.0563  0.3434  0.9848
 7911SOL    HW224633   6.187   4.395   6.500  0.3207 -0.1904  1.6992
 7912SOL     OW24634   5.570   5.212   5.188  0.1335 -0.3013 -0.3085
 7912SOL    HW124635   5.565   5.152   5.109 -1.0330 -0.3239 -0.2308
 7912SOL    HW224636   5.595   5.159   5.269 -1.0641 -0.7232 -0.2073
 7913SOL     OW24637   0.596   5.380   0.535  0.6030 -0.2368  0.5839
 7913SOL    HW124638   0.503   5.360   0.503  0.6258  1.3603 -0.6162
 7913SOL    HW224639   0.593   5.454   0.602  0.9835 -0.3947  0.7787
 7914SOL     OW24640   6.657   3.529   5.966  1.2221  0.7181 -0.3826
 7914SOL    HW124641   6.755   3.551   5.969  1.0687  1.3848  1.9568
 7914SOL    HW224642   6.604   3.610   5.993  0.2368 -0.4173  1.3112
 7915SOL     OW24643   2.770   1.632   2.368 -0.2570 -0.2001  0.3115
 7915SOL    HW124644   2.749   1.729   2.382 -1.7522 -0.3317 -0.7873
 7915SOL    HW224645   2.866   1.622   2.344 -0.1421  1.0495  0.1877
 7916SOL     OW24646   3.190   3.348   4.897  0.4821 -0.1852 -0.5370
 7916SOL    HW124647   3.110   3.405   4.877  0.2546 -0.6302 -0.9195
 7916SOL    HW224648   3.235   3.382   4.980  0.1077  0.2908 -0.5233
 7917SOL     OW24649   3.834   4.002   3.494  0.0437 -0.3586  0.0220
 7917SOL    HW124650   3.911   4.027   3.553 -0.4959  0.8793  0.2480
 7917SOL    HW224651   3.866   3.991   3.400  0.7513 -1.4040  0.3751
 7918SOL     OW24652   4.045   2.366   1.258  0.1367 -0.1850  0.6015
 7918SOL    HW124653   4.010   2.375   1.351  0.1109 -1.0796  0.6836
 7918SOL    HW224654   4.003   2.287   1.214 -1.6457  1.5501 -1.0017
 7919SOL     OW24655   5.178   3.064   2.051 -0.0603 -0.1384 -0.3829
 7919SOL    HW124656   5.130   3.146   2.081  0.9767  0.2606  0.2490
 7919SOL    HW224657   5.233   3.028   2.126  0.4272 -0.7159 -1.0024
 7920SOL     OW24658   0.725   6.223   1.319 -0.6194  0.1376  0.0239
 7920SOL    HW124659   0.707   6.130   1.350  0.4486 -0.1691 -0.2398
 7920SOL    HW224660   0.684   6.288   1.384 -0.0578 -0.5010  1.0497
 7921SOL     OW24661   3.048   5.150   1.444 -0.0461 -0.3652 -0.3685
 7921SOL    HW124662   2.978   5.210   1.405 -1.0929 -0.9498  0.5531
 7921SOL    HW224663   3.023   5.055   1.427 -0.3325 -0.6274  1.3217
 7922SOL     OW24664   2.182   3.947   4.390 -0.0684 -0.1763  0.5028
 7922SOL    HW124665   2.141   4.003   4.318  3.1499  2.7624  0.7033
 7922SOL    HW224666   2.246   3.881   4.350  0.5080  0.3382  0.5710
 7923SOL     OW24667   2.226   2.517   0.713  0.1023  0.9285 -0.0933
 7923SOL    HW124668   2.322   2.488   0.710 -0.2835 -0.3789 -1.0596
 7923SOL    HW224669   2.215   2.600   0.659  0.6199  0.8229 -0.3686
 7924SOL     OW24670   2.488   2.213   3.477  1.0383  0.0880  0.3328
 7924SOL    HW124671   2.400   2.257   3.459  1.2848  0.5151  0.1481
 7924SOL    HW224672   2.548   2.278   3.524  1.1153 -0.3363  0.8306
 7925SOL     OW24673   1.881   1.625   0.853  0.0852 -0.3327  0.5480
 7925SOL    HW124674   1.902   1.703   0.912  3.1716 -0.7532  0.1920
 7925SOL    HW224675   1.966   1.589   0.815 -1.5332 -1.9712 -1.7786
 7926SOL     OW24676   2.463   2.186   1.586 -0.4246 -0.2018  0.0670
 7926SOL    HW124677   2.433   2.109   1.642 -0.8884 -0.7562 -0.9069
 7926SOL    HW224678   2.534   2.237   1.634  0.7032 -1.9024  0.2834
 7927SOL     OW24679   5.114   5.008   3.965  0.2256  0.2344  0.7358
 7927SOL    HW124680   5.080   4.915   3.973 -0.3569  0.4763  1.1575
 7927SOL    HW224681   5.037   5.071   3.954  0.5130  0.8157  1.8908
 7928SOL     OW24682   1.128   5.101   1.277 -0.2997 -0.2405 -0.0711
 7928SOL    HW124683   1.203   5.080   1.214 -3.3478 -2.2715 -3.4099
 7928SOL    HW224684   1.124   5.031   1.349  1.2689  0.2453  0.5372
 7929SOL     OW24685   3.175   3.779   4.298 -0.1705 -0.4782  0.1601
 7929SOL    HW124686   3.240   3.850   4.271 -0.0660 -0.4769  0.4136
 7929SOL    HW224687   3.222   3.710   4.354 -0.3814 -0.4954  0.3165
 7930SOL     OW24688   3.848   0.635   3.336 -0.1221 -0.3834 -0.6712
 7930SOL    HW124689   3.756   0.631   3.374 -0.7924 -1.1844 -2.2841
 7930SOL    HW224690   3.869   0.728   3.307  0.7530  0.4533  2.3483
 7931SOL     OW24691   2.526   1.845   5.094 -0.1074  0.3720  0.1529
 7931SOL    HW124692   2.565   1.875   5.007  2.0891 -1.3175  0.4824
 7931SOL    HW224693   2.500   1.749   5.088 -0.0459  0.2722  1.3316
 7932SOL     OW24694   2.783   2.339   1.689 -0.1920  0.4086  0.2846
 7932SOL    HW124695   2.832   2.297   1.613 -0.5930 -0.0779  0.2878
 7932SOL    HW224696   2.847   2.358   1.763  0.1605  0.6769 -0.0865
 7933SOL     OW24697   0.678   4.648   6.442 -0.2058 -0.3718  0.3140
 7933SOL    HW124698   0.713   4.668   6.534 -1.2609 -1.1931  0.9252
 7933SOL    HW224699   0.748   4.671   6.374  0.7379 -0.0902  1.3385
 7934SOL     OW24700   5.349   2.821   4.665 -0.1739 -0.1257 -0.6804
 7934SOL    HW124701   5.353   2.801   4.567  1.8932 -3.5534 -0.0522
 7934SOL    HW224702   5.431   2.784   4.710 -1.6059  0.2857  2.5129
 7935SOL     OW24703   5.646   5.444   2.885 -0.1354 -0.5129  0.3625
 7935SOL    HW124704   5.668   5.413   2.977  0.2096  3.1780  1.6706
 7935SOL    HW224705   5.568   5.507   2.888 -0.4329 -0.6664 -1.9447
 7936SOL     OW24706   2.984   4.866   2.257  0.1745 -0.1904  0.1130
 7936SOL    HW124707   2.966   4.963   2.241 -0.1460  0.0034  1.5086
 7936SOL    HW224708   3.007   4.822   2.171 -1.8420  0.6481 -0.9162
 7937SOL     OW24709   4.920   3.411   4.071 -0.6506  0.2545 -0.1445
 7937SOL    HW124710   5.009   3.367   4.070 -1.0107 -0.5045  0.4663
 7937SOL    HW224711   4.932   3.510   4.081  0.0826 -0.0599  3.4396
 7938SOL     OW24712   5.398   5.378   3.852 -0.6539 -0.6059  0.3659
 7938SOL    HW124713   5.318   5.408   3.904  0.3942  1.2545  0.9794
 7938SOL    HW224714   5.403   5.430   3.767 -0.8092 -1.6889 -0.3393
 7939SOL     OW24715   6.129   3.891   4.230 -0.5073 -0.3985  0.2736
 7939SOL    HW124716   6.071   3.945   4.291 -1.4125 -1.5539  0.4860
 7939SOL    HW224717   6.173   3.817   4.282  1.6781  0.7923  0.2432
 7940SOL     OW24718   2.045   5.888   1.074 -0.1234 -0.1533  0.3862
 7940SOL    HW124719   2.028   5.796   1.110 -1.4337 -0.4444 -0.9065
 7940SOL    HW224720   1.958   5.931   1.051  0.6100  0.0309 -2.3191
 7941SOL     OW24721   0.084   1.955   1.511  0.1915 -0.1527  0.0030
 7941SOL    HW124722   0.174   1.929   1.477  0.6602  0.6020  0.6391
 7941SOL    HW224723   0.070   2.053   1.498 -1.8525 -0.7071 -3.0882
 7942SOL     OW24724   1.580   0.419   1.174  0.1276 -0.4119 -0.3271
 7942SOL    HW124725   1.506   0.486   1.186  0.9286  0.3943  0.3338
 7942SOL    HW224726   1.651   0.436   1.243  0.8883 -1.2188 -0.8919
 7943SOL     OW24727   6.270   1.677   6.640  0.6288 -0.0033 -0.2102
 7943SOL    HW124728   6.201   1.644   6.576  0.5632 -1.0528  0.3749
 7943SOL    HW224729   6.353   1.621   6.632  0.4479 -0.4669  0.9414
 7944SOL     OW24730   6.118   4.219   1.354  0.0048  0.4617 -0.3614
 7944SOL    HW124731   6.122   4.268   1.267  1.1021  0.8997 -0.0801
 7944SOL    HW224732   6.135   4.122   1.339 -0.6333  0.3980 -0.7251
 7945SOL     OW24733   5.461   6.019   5.471  0.5368 -0.5049 -0.1358
 7945SOL    HW124734   5.393   5.949   5.452 -1.6935  1.4227  0.2953
 7945SOL    HW224735   5.444   6.060   5.560  1.9415  0.4154 -0.2406
 7946SOL     OW24736   1.426   0.207   5.365 -0.3914 -0.5397 -0.1818
 7946SOL    HW124737   1.499   0.224   5.431  0.1241 -0.7646 -0.6821
 7946SOL    HW224738   1.372   0.291   5.353  0.1401 -0.1963 -0.2234
 7947SOL     OW24739   2.412   6.707   0.079  0.1304  0.1548  0.0232
 7947SOL    HW124740   2.317   6.680   0.063 -0.0423  0.6849  0.1635
 7947SOL    HW224741   2.468   6.624   0.087 -0.2562 -0.1564 -0.4061
 7948SOL     OW24742   1.650   4.128   4.306 -0.2222  0.0463  0.0957
 7948SOL    HW124743   1.643   4.065   4.383  0.7999 -0.6947 -0.3949
 7948SOL    HW224744   1.594   4.095   4.230  0.6805 -0.5387 -0.3265
 7949SOL     OW24745   6.739   0.492   4.997  0.0935  0.0142 -0.0177
 7949SOL    HW124746   6.807   0.549   4.951  1.4359 -2.4263 -1.2117
 7949SOL    HW224747   6.703   0.542   5.077  2.1433  1.9723 -0.2073
 7950SOL     OW24748   3.139   5.199   3.577  0.5740  0.2705 -0.0527
 7950SOL    HW124749   3.076   5.244   3.514  0.4136  1.1821  0.7374
 7950SOL    HW224750   3.231   5.199   3.538  0.7511  2.0652  0.2841
 7951SOL     OW24751   1.598   3.011   0.411  0.3494 -0.1972  0.1680
 7951SOL    HW124752   1.622   3.017   0.314  1.3314  1.6054  0.4845
 7951SOL    HW224753   1.680   2.994   0.465  0.3741  1.9847  0.9169
 7952SOL     OW24754   6.363   3.302   6.391  0.5219  0.0468  0.7716
 7952SOL    HW124755   6.425   3.271   6.462 -0.3158  1.5124  2.2116
 7952SOL    HW224756   6.326   3.223   6.342 -0.2053 -1.1601  3.1198
 7953SOL     OW24757   2.430   5.108   0.173  0.4172  0.1794  0.7118
 7953SOL    HW124758   2.504   5.064   0.224  2.0848 -0.0429 -1.7372
 7953SOL    HW224759   2.419   5.063   0.085 -0.2868  2.3771 -0.3911
 7954SOL     OW24760   6.115   3.629   4.354  0.4459  0.1827  0.8225
 7954SOL    HW124761   6.090   3.602   4.447  1.3226 -0.6681  0.8350
 7954SOL    HW224762   6.124   3.547   4.297 -1.8732  0.7804 -0.5250
 7955SOL     OW24763   0.785   6.484   0.032  0.9148 -0.2241 -0.4816
 7955SOL    HW124764   0.804   6.473  -0.066  2.3086 -2.0355 -0.0555
 7955SOL    HW224765   0.860   6.533   0.075  0.9316 -0.5891 -0.0927
 7956SOL     OW24766   5.586   5.259   4.087 -0.1340  0.2822 -0.2541
 7956SOL    HW124767   5.631   5.227   4.004 -0.9146 -0.2903 -0.4683
 7956SOL    HW224768   5.487   5.258   4.073 -0.3780 -1.4993  1.2772
 7957SOL     OW24769   1.074   3.180   1.466  0.1439 -0.2147  0.3375
 7957SOL    HW124770   1.143   3.108   1.473  1.9719  1.3958 -0.1122
 7957SOL    HW224771   1.117   3.269   1.487 -0.7368  1.4274 -3.9215
 7958SOL     OW24772   1.542   5.212   4.477 -0.5695  0.2784  0.6632
 7958SOL    HW124773   1.524   5.253   4.567 -1.4920  0.1699  0.5327
 7958SOL    HW224774   1.474   5.142   4.458  0.3921 -0.6230  0.4354
 7959SOL     OW24775   5.443   5.148   0.818  0.5421  0.6204  0.0861
 7959SOL    HW124776   5.523   5.100   0.852 -0.8679 -0.6406  1.8306
 7959SOL    HW224777   5.427   5.122   0.722  1.5381 -0.0270  0.0797
 7960SOL     OW24778   0.911   2.297   3.327  0.3826 -0.2972 -0.1983
 7960SOL    HW124779   0.987   2.337   3.377  1.5936 -1.2056 -1.2537
 7960SOL    HW224780   0.841   2.367   3.310  0.5100  0.3184  1.6027
 7961SOL     OW24781   1.794   6.575   3.187 -0.8597  0.1048 -0.2036
 7961SOL    HW124782   1.797   6.598   3.284  2.5884 -2.4741  0.5153
 7961SOL    HW224783   1.850   6.641   3.136 -0.4168 -0.1013  0.0116
 7962SOL     OW24784   0.631   0.251   3.077  0.3856  0.0379  0.1987
 7962SOL    HW124785   0.667   0.298   3.158 -0.1805 -1.3293  1.2940
 7962SOL    HW224786   0.698   0.256   3.003  0.1237  3.0078  0.0353
 7963SOL     OW24787   6.076   6.926   6.089 -0.2798  0.3233  0.4879
 7963SOL    HW124788   6.000   6.873   6.050 -1.0505  1.4122  0.4506
 7963SOL    HW224789   6.039   7.000   6.145  0.7469  1.3891 -0.2003
 7964SOL     OW24790   0.041   5.938   3.826 -0.1904  0.3134 -0.5375
 7964SOL    HW124791   0.108   5.865   3.840  1.3449  1.7958  0.3570
 7964SOL    HW224792  -0.026   5.910   3.758  1.0539 -1.4518 -1.1044
 7965SOL     OW24793   5.011   0.441   1.453  0.0821 -0.3129 -0.1686
 7965SOL    HW124794   5.086   0.402   1.507  0.5345 -1.3693 -1.5178
 7965SOL    HW224795   5.019   0.412   1.358 -3.2860 -2.3919 -0.0039
 7966SOL     OW24796   6.721   1.067   4.748 -0.0547 -0.2877  0.1090
 7966SOL    HW124797   6.638   1.013   4.733  0.3199 -1.3718  1.7352
 7966SOL    HW224798   6.787   1.046   4.676 -0.5990 -0.5973 -0.3130
 7967SOL     OW24799   2.177   0.163   5.333 -0.2772  0.5707 -0.0371
 7967SOL    HW124800   2.115   0.168   5.254 -1.2925  1.4067  0.7910
 7967SOL    HW224801   2.128   0.128   5.412  0.5676  0.3741  0.4157
 7968SOL     OW24802   0.453   6.545   0.343 -0.0928 -0.0759 -0.0788
 7968SOL    HW124803   0.358   6.549   0.312  0.0465 -0.5876 -0.5882
 7968SOL    HW224804   0.513   6.529   0.265  0.2340 -1.6674  0.4451
 7969SOL     OW24805   3.715   0.452   4.519 -0.5385  0.1339  0.3047
 7969SOL    HW124806   3.659   0.449   4.437 -0.0237 -0.4691 -0.0376
 7969SOL    HW224807   3.657   0.439   4.599 -0.7783 -1.6102 -0.1119
 7970SOL     OW24808   1.877   4.001   2.914 -0.5100  0.4634  0.2668
 7970SOL    HW124809   1.872   3.924   2.850 -2.0469  1.2110 -0.5670
 7970SOL    HW224810   1.945   3.981   2.985  0.6825 -0.7182 -1.1458
 7971SOL     OW24811   4.313   2.234   4.375 -0.0925 -0.1710  0.1554
 7971SOL    HW124812   4.345   2.307   4.315 -0.9538  0.5288  0.5157
 7971SOL    HW224813   4.363   2.238   4.462  0.2439 -0.3629 -0.0269
 7972SOL     OW24814   4.901   6.133   2.482 -0.1347 -0.3058  0.0844
 7972SOL    HW124815   4.873   6.227   2.498 -0.3775 -0.1249 -1.2884
 7972SOL    HW224816   4.989   6.131   2.436 -1.0337 -0.6595 -1.7073
 7973SOL     OW24817   6.315   3.064   2.392  0.3925 -0.4180  0.0755
 7973SOL    HW124818   6.317   3.164   2.391  1.8020 -0.4206 -0.6966
 7973SOL    HW224819   6.259   3.032   2.468 -0.6444  0.9494 -0.0708
 7974SOL     OW24820   4.421   5.410   4.484  0.3155  0.4268  0.7815
 7974SOL    HW124821   4.428   5.382   4.388 -0.5081  1.0587  0.5206
 7974SOL    HW224822   4.512   5.409   4.526  0.3717 -2.6330  0.8300
 7975SOL     OW24823   2.412   1.063   2.360  0.3204  0.1585  0.7162
 7975SOL    HW124824   2.412   1.032   2.455 -0.2761 -0.1578  0.6200
 7975SOL    HW224825   2.332   1.121   2.343 -2.0557 -3.1664 -0.6186
 7976SOL     OW24826   1.724   5.779   4.911  0.1745 -0.5428  0.6816
 7976SOL    HW124827   1.651   5.835   4.950  0.3982 -0.2440  0.6692
 7976SOL    HW224828   1.812   5.826   4.922  0.2942 -0.6557  0.2048
 7977SOL     OW24829   5.964   0.318   0.464 -0.1874  0.3714 -0.7129
 7977SOL    HW124830   5.911   0.275   0.538  0.6616  0.1973 -0.1998
 7977SOL    HW224831   5.946   0.271   0.378 -0.6860  0.1693 -0.5028
 7978SOL     OW24832   4.451   0.310   7.010 -0.6334 -0.9632 -0.0806
 7978SOL    HW124833   4.416   0.333   6.919 -0.9556  0.3298  0.3445
 7978SOL    HW224834   4.469   0.394   7.061 -2.3513 -1.6068  1.7523
 7979SOL     OW24835   6.991   5.783   4.239  0.1330  0.2496 -0.3446
 7979SOL    HW124836   6.935   5.812   4.317  1.5519  1.9042  0.1029
 7979SOL    HW224837   6.935   5.726   4.178 -2.3073  2.4595 -0.3621
 7980SOL     OW24838   2.841   6.953   1.585  0.2769 -0.3570  0.1634
 7980SOL    HW124839   2.884   6.922   1.670  0.4726  0.9154  0.5494
 7980SOL    HW224840   2.766   6.891   1.561  0.8010 -1.2449  0.7612
 7981SOL     OW24841   1.072   5.121   2.344  0.0922 -0.0885 -0.0289
 7981SOL    HW124842   0.994   5.145   2.287  1.1520  1.0624 -1.0343
 7981SOL    HW224843   1.071   5.176   2.427 -0.4283 -0.4401  0.2041
 7982SOL     OW24844   0.688   4.085   0.248 -0.0678 -0.3754 -0.0128
 7982SOL    HW124845   0.776   4.038   0.241  0.3176  0.1219  1.2454
 7982SOL    HW224846   0.619   4.033   0.197  0.4276 -2.0663  0.9545
 7983SOL     OW24847   6.723   3.330   6.833 -0.7199  0.4276 -0.3542
 7983SOL    HW124848   6.709   3.233   6.811 -1.2000  0.1945  0.9053
 7983SOL    HW224849   6.694   3.386   6.756  0.5998 -0.4538 -1.5520
 7984SOL     OW24850   0.609   2.437   7.018 -0.0629 -0.0623 -0.2754
 7984SOL    HW124851   0.641   2.465   7.109  0.7673 -0.9121 -0.2880
 7984SOL    HW224852   0.618   2.514   6.954 -0.5602  0.5106  0.3308
 7985SOL     OW24853   0.735   1.076   0.643  0.2904  0.0890  0.4872
 7985SOL    HW124854   0.670   1.078   0.567 -0.9114  1.2129  1.4836
 7985SOL    HW224855   0.706   1.009   0.711  1.1169 -0.5955  0.1860
 7986SOL     OW24856   4.282   2.764   6.706 -0.1310  0.4099  0.2751
 7986SOL    HW124857   4.318   2.698   6.772  0.4662  0.6780  0.2130
 7986SOL    HW224858   4.260   2.717   6.620 -0.1069  0.2189  0.3739
 7987SOL     OW24859   1.594   3.551   6.246 -0.1540 -0.8328 -0.0085
 7987SOL    HW124860   1.642   3.569   6.161  0.3067 -0.4062  0.3401
 7987SOL    HW224861   1.659   3.527   6.317 -0.0932  2.4005  1.2047
 7988SOL     OW24862   1.973   0.445   5.988 -0.4952  0.3368 -0.1255
 7988SOL    HW124863   1.949   0.362   6.038  0.7848 -1.0273 -1.6560
 7988SOL    HW224864   1.987   0.520   6.053  1.1632 -1.3549  1.6161
 7989SOL     OW24865   3.822   4.316   5.997 -0.0023 -0.3531  0.3896
 7989SOL    HW124866   3.750   4.297   5.930 -0.5823 -1.3894  1.2697
 7989SOL    HW224867   3.911   4.295   5.956  0.0001  2.4784 -1.2605
 7990SOL     OW24868   1.614   3.117   5.040 -0.4355  0.6653 -0.0194
 7990SOL    HW124869   1.568   3.204   5.058  1.1388  1.4829  0.2262
 7990SOL    HW224870   1.696   3.133   4.986  0.3311 -0.5527  0.7309
 7991SOL     OW24871   1.831   2.120   4.828  0.1767 -1.0814  0.0304
 7991SOL    HW124872   1.824   2.188   4.901  1.8269  1.2462 -1.8342
 7991SOL    HW224873   1.927   2.109   4.803 -0.4532 -0.5412 -2.8825
 7992SOL     OW24874   2.684   6.843   0.376  0.2381 -0.3521  0.1408
 7992SOL    HW124875   2.750   6.865   0.304 -1.1904 -0.9339 -1.4086
 7992SOL    HW224876   2.706   6.896   0.458  2.0933  0.1185 -0.6011
 7993SOL     OW24877   4.058   5.478   6.304 -0.0821 -0.2509  0.7537
 7993SOL    HW124878   4.084   5.566   6.266  0.2612 -0.3159  0.8320
 7993SOL    HW224879   4.038   5.414   6.230 -1.6966  0.2759  0.6958
 7994SOL     OW24880   6.052   5.568   4.757 -0.7322  0.0046  0.4391
 7994SOL    HW124881   6.105   5.526   4.684 -0.8841  1.3261 -0.4843
 7994SOL    HW224882   6.092   5.657   4.780 -0.8330 -0.2816  1.8183
 7995SOL     OW24883   5.400   5.083   2.931  0.2730 -0.7021  0.1705
 7995SOL    HW124884   5.367   5.152   2.995  2.4142  1.1261 -0.5541
 7995SOL    HW224885   5.422   5.127   2.843  1.2575 -2.3969 -0.4822
 7996SOL     OW24886   3.883   1.619   5.995 -0.3292 -0.3622 -0.0755
 7996SOL    HW124887   3.847   1.642   5.905  0.5577  2.8713  0.2600
 7996SOL    HW224888   3.841   1.678   6.064  1.2634 -0.5991  1.1505
 7997SOL     OW24889   6.401   5.168   0.822  0.0964  0.3594 -0.0191
 7997SOL    HW124890   6.407   5.072   0.847 -1.7569  0.5716  1.4618
 7997SOL    HW224891   6.308   5.189   0.792  0.2435  1.8581  0.4908
 7998SOL     OW24892   6.231   4.125   0.420  0.6552 -0.1246  0.1646
 7998SOL    HW124893   6.160   4.160   0.359  1.2332  0.0623 -0.4084
 7998SOL    HW224894   6.272   4.202   0.469 -0.0680 -0.3086  1.0940
 7999SOL     OW24895   2.953   2.264   5.614 -0.1067 -0.1481  0.2232
 7999SOL    HW124896   3.011   2.335   5.574 -0.3798  0.1391  0.3340
 7999SOL    HW224897   3.006   2.180   5.625  0.2095  0.0290  0.0638
 8000SOL     OW24898   4.307   6.398   5.963 -0.3261 -0.0613 -0.1241
 8000SOL    HW124899   4.373   6.325   5.949 -0.7317 -0.7437  1.3268
 8000SOL    HW224900   4.275   6.397   6.058 -0.1654  2.1579  0.0100
 8001SOL     OW24901   2.658   3.932   6.946 -0.3322  0.0995 -0.1968
 8001SOL    HW124902   2.694   3.867   7.013 -0.8691  0.0189  0.0176
 8001SOL    HW224903   2.732   3.993   6.916 -0.8302  2.8852  3.5426
 8002SOL     OW24904   3.866   3.104   4.799 -0.5481  0.1155 -0.0314
 8002SOL    HW124905   3.839   3.126   4.706 -0.9644  0.9081  0.2686
 8002SOL    HW224906   3.939   3.166   4.828  0.9405 -1.3568 -0.4848
 8003SOL     OW24907   4.813   4.284   4.183  0.0364 -0.0293  0.3422
 8003SOL    HW124908   4.906   4.266   4.214 -0.3785 -0.3772  1.4403
 8003SOL    HW224909   4.749   4.264   4.258 -1.1041 -1.9269 -1.0570
 8004SOL     OW24910   1.268   4.288   3.556 -0.4801 -0.1526 -0.3065
 8004SOL    HW124911   1.230   4.300   3.648 -1.0542 -0.8046 -0.4534
 8004SOL    HW224912   1.258   4.373   3.504 -1.4304 -0.2076 -0.2267
 8005SOL     OW24913   1.557   1.486   3.102  0.2159 -0.0621 -0.3834
 8005SOL    HW124914   1.583   1.560   3.040  0.9536 -1.0658 -1.3184
 8005SOL    HW224915   1.553   1.520   3.195 -2.9798  2.0213 -1.1149
 8006SOL     OW24916   0.616   6.715   4.542  0.4417  0.2367  0.0339
 8006SOL    HW124917   0.553   6.679   4.611  1.1020  0.6719  0.8825
 8006SOL    HW224918   0.681   6.643   4.517  0.1433  0.0489 -0.2043
 8007SOL     OW24919   0.280   1.589   5.391  1.0419 -0.0990 -0.6304
 8007SOL    HW124920   0.195   1.643   5.393  1.7575  1.0897 -1.4338
 8007SOL    HW224921   0.274   1.520   5.319 -0.1748 -1.6601  0.8818
 8008SOL     OW24922   6.514   6.190   0.860 -0.1674  0.7327 -0.0458
 8008SOL    HW124923   6.469   6.271   0.898  0.2453  1.2337 -0.6147
 8008SOL    HW224924   6.612   6.193   0.881 -0.2757 -0.0374  0.6374
 8009SOL     OW24925   6.683   5.738   3.237 -0.1487 -0.5403  0.3159
 8009SOL    HW124926   6.723   5.698   3.320  0.9567 -1.3049 -0.5483
 8009SOL    HW224927   6.688   5.672   3.163 -1.1971  0.1074 -0.3505
 8010SOL     OW24928   2.098   0.708   1.142  0.3119 -0.4154  0.3813
 8010SOL    HW124929   2.091   0.766   1.061 -1.8765  1.0947  1.5155
 8010SOL    HW224930   2.181   0.731   1.192 -0.3854  1.7069  0.6885
 8011SOL     OW24931   2.333   2.191   0.524  0.0062  0.3394  0.4085
 8011SOL    HW124932   2.245   2.228   0.555 -0.0334 -0.8890  1.8470
 8011SOL    HW224933   2.316   2.114   0.462  0.0754  0.3057  0.4321
 8012SOL     OW24934   0.465   5.643   4.050  0.0049 -0.5311  0.1698
 8012SOL    HW124935   0.467   5.734   4.008 -0.9138  0.3096  1.8616
 8012SOL    HW224936   0.373   5.624   4.085  0.0685 -2.2973 -0.4834
 8013SOL     OW24937   0.054   4.444   3.732  0.1298  0.6929  0.1720
 8013SOL    HW124938   0.105   4.364   3.700 -3.3022 -0.6052 -2.7172
 8013SOL    HW224939   0.044   4.440   3.831  0.2683 -2.3842  0.1436
 8014SOL     OW24940   3.319   0.524   0.641  0.0565 -0.7433 -0.5997
 8014SOL    HW124941   3.222   0.542   0.656 -0.2318 -2.5656 -0.0920
 8014SOL    HW224942   3.336   0.508   0.544 -0.2635 -0.9951 -0.6157
 8015SOL     OW24943   0.796   0.889   2.440 -0.6527 -0.0894 -0.1200
 8015SOL    HW124944   0.713   0.944   2.452 -1.5147 -0.9875 -1.5950
 8015SOL    HW224945   0.813   0.836   2.523  0.4390  2.6137  1.4994
 8016SOL     OW24946   2.835   5.709   3.611  0.3519 -0.2947 -0.4302
 8016SOL    HW124947   2.849   5.611   3.603  0.2752 -0.1604 -2.8428
 8016SOL    HW224948   2.919   5.753   3.642  0.5890 -1.0440  0.0039
 8017SOL     OW24949   6.706   2.221   4.941  0.3051 -0.0182  0.4676
 8017SOL    HW124950   6.644   2.148   4.973  0.2273  0.8846  2.5040
 8017SOL    HW224951   6.760   2.255   5.018 -0.2414  2.6495 -0.2394
 8018SOL     OW24952   5.016   5.159   1.408  0.1355 -0.0016 -0.3666
 8018SOL    HW124953   4.919   5.183   1.405  0.1756  0.2118  0.0172
 8018SOL    HW224954   5.045   5.151   1.503  0.3470 -0.6724 -0.4834
 8019SOL     OW24955   4.297   5.475   3.466 -0.5027  0.0307  0.1773
 8019SOL    HW124956   4.278   5.419   3.547 -1.5160 -0.9530 -0.7221
 8019SOL    HW224957   4.277   5.571   3.487 -3.5373 -0.5278  0.2964
 8020SOL     OW24958   0.263   0.779   0.545 -0.3184  0.1578 -0.0607
 8020SOL    HW124959   0.346   0.828   0.571  0.7709 -1.4295 -0.3982
 8020SOL    HW224960   0.241   0.799   0.450 -0.0593  0.2387 -0.1060
 8021SOL     OW24961   0.035   0.863   2.375 -0.0555 -0.2956  0.1459
 8021SOL    HW124962   0.016   0.848   2.278 -0.1259  0.9020 -0.0355
 8021SOL    HW224963   0.003   0.783   2.427 -2.6376  0.2189 -0.5030
 8022SOL     OW24964   0.616   2.224   3.793 -0.7369 -0.0578 -0.1089
 8022SOL    HW124965   0.686   2.218   3.722 -0.1125  0.8012  0.4138
 8022SOL    HW224966   0.540   2.281   3.759 -0.5650  0.1272 -0.1854
 8023SOL     OW24967   0.851   4.497   1.981 -0.3406  0.0751 -0.2574
 8023SOL    HW124968   0.892   4.585   1.956  0.9295 -0.3427  0.2482
 8023SOL    HW224969   0.752   4.507   1.985 -0.2173  1.5508  0.0337
 8024SOL     OW24970   5.068   6.187   3.088  0.0785 -0.2422  0.2120
 8024SOL    HW124971   4.998   6.188   3.160 -0.5038 -3.2988 -0.2038
 8024SOL    HW224972   5.033   6.236   3.008 -0.9428 -0.3468  0.5764
 8025SOL     OW24973   2.314   5.842   0.335  0.1069  0.0912  0.3191
 8025SOL    HW124974   2.327   5.764   0.396  2.2610  0.5589  0.5425
 8025SOL    HW224975   2.383   5.840   0.262 -0.1411  1.4793  0.0040
 8026SOL     OW24976   2.652   0.616   6.032  0.0059  0.1084  0.1392
 8026SOL    HW124977   2.720   0.616   6.105 -0.2265 -1.2867  0.3730
 8026SOL    HW224978   2.677   0.685   5.964  1.4134 -0.0648  0.4473
 8027SOL     OW24979   4.673   4.552   5.670 -0.0845  0.5424  0.2798
 8027SOL    HW124980   4.744   4.542   5.601  0.2126  0.3217  0.6096
 8027SOL    HW224981   4.584   4.537   5.629  0.1530 -0.5806  0.1445
 8028SOL     OW24982   2.229   5.046   0.990 -0.3899 -0.4804 -0.1109
 8028SOL    HW124983   2.173   5.044   1.072  1.3075  0.2161  1.1408
 8028SOL    HW224984   2.225   4.958   0.944 -2.8620 -0.2998 -0.3821
 8029SOL     OW24985   3.769   3.999   5.089 -0.3081 -0.7581 -0.3766
 8029SOL    HW124986   3.779   4.054   5.006 -1.0794 -0.1927 -0.1053
 8029SOL    HW224987   3.724   3.913   5.066 -1.3380 -0.2272 -0.4167
 8030SOL     OW24988   1.239   3.424   1.530  0.0499  0.1133 -0.0043
 8030SOL    HW124989   1.175   3.492   1.564 -1.8375 -0.3805 -2.2868
 8030SOL    HW224990   1.328   3.466   1.515 -1.2739  2.3921 -2.1686
 8031SOL     OW24991   4.839   5.479   0.901 -0.2857  0.3306 -0.8376
 8031SOL    HW124992   4.747   5.491   0.939  0.8567  0.7223  2.0371
 8031SOL    HW224993   4.836   5.407   0.831 -2.3465 -1.5473  0.9982
 8032SOL     OW24994   3.377   3.673   6.276 -0.0508  0.1923  0.5301
 8032SOL    HW124995   3.412   3.717   6.193  0.4842  0.5102  0.9164
 8032SOL    HW224996   3.366   3.742   6.348 -0.3209 -0.1147  0.7866
 8033SOL     OW24997   4.472   0.803   1.241  0.0884  0.2136  0.2476
 8033SOL    HW124998   4.533   0.766   1.312  2.7231  2.1605 -0.8018
 8033SOL    HW224999   4.420   0.729   1.200  1.3906 -1.5362  1.5494
 8034SOL     OW25000   5.744   2.456   5.422  0.0622  0.0386 -0.3145
 8034SOL    HW125001   5.772   2.508   5.341 -1.3068 -1.0773 -1.5595
 8034SOL    HW225002   5.709   2.367   5.393  0.0763 -0.6178  1.5807
 8035SOL     OW25003   6.978   6.453   6.558 -0.0270 -0.7468 -0.4830
 8035SOL    HW125004   6.924   6.474   6.640 -0.2321 -1.2030 -0.4948
 8035SOL    HW225005   6.954   6.362   6.526  1.4203 -1.3423  0.0472
 8036SOL     OW25006   3.701   1.740   6.963  0.1522 -0.3499 -0.3998
 8036SOL    HW125007   3.671   1.836   6.961  0.7070 -0.1768 -0.3293
 8036SOL    HW225008   3.621   1.681   6.977  0.1743  0.2706  3.0960
 8037SOL     OW25009   1.276   2.501   1.439 -0.0352  0.9128 -0.0170
 8037SOL    HW125010   1.374   2.490   1.453  0.0235  0.7885 -0.5186
 8037SOL    HW225011   1.244   2.435   1.372 -0.5487  0.6458  0.4841
 8038SOL     OW25012   6.696   6.846   4.933 -0.4932  0.1786  0.6285
 8038SOL    HW125013   6.604   6.884   4.948 -0.7464 -0.9423  2.1942
 8038SOL    HW225014   6.695   6.748   4.953  0.9625  0.0671  0.2510
 8039SOL     OW25015   2.029   6.333   1.662  0.5560 -0.3402  0.0847
 8039SOL    HW125016   2.024   6.234   1.645  0.1303 -0.3411  0.2061
 8039SOL    HW225017   1.937   6.371   1.662  0.7139  0.0400  0.1477
 8040SOL     OW25018   1.737   5.075   1.482  0.2421  0.6760 -0.0198
 8040SOL    HW125019   1.685   5.150   1.441 -0.1551 -0.0827 -0.9609
 8040SOL    HW225020   1.681   4.992   1.482  1.6850 -0.3685 -1.8017
 8041SOL     OW25021   3.554   3.914   0.725  0.1031  0.2212  0.0263
 8041SOL    HW125022   3.591   3.893   0.816 -0.0401  0.7519  0.2105
 8041SOL    HW225023   3.579   4.008   0.699  1.4434 -0.4181 -1.1362
 8042SOL     OW25024   1.916   2.965   6.860 -0.0301 -0.5369  0.0929
 8042SOL    HW125025   1.879   2.921   6.778 -1.3089  2.2152 -0.9198
 8042SOL    HW225026   1.860   2.940   6.939 -1.3170 -0.0525 -0.6265
 8043SOL     OW25027   2.235   0.852   2.287 -0.0340 -0.1258  0.0064
 8043SOL    HW125028   2.288   0.931   2.318  1.2549 -0.7498 -0.5560
 8043SOL    HW225029   2.293   0.771   2.285 -1.2971 -1.0676  0.4009
 8044SOL     OW25030   3.129   3.306   1.613 -0.1568  0.0771  0.1188
 8044SOL    HW125031   3.196   3.262   1.552 -0.2847  1.1143 -0.7943
 8044SOL    HW225032   3.158   3.295   1.708  0.0108 -1.6342 -0.1032
 8045SOL     OW25033   5.213   2.087   2.526  0.3131  0.3007  0.0472
 8045SOL    HW125034   5.301   2.110   2.567 -0.1029  0.6598  0.7622
 8045SOL    HW225035   5.203   2.134   2.439  0.8212  0.2778 -0.0210
 8046SOL     OW25036   0.557   5.907   6.256  0.1897 -0.5393  0.1623
 8046SOL    HW125037   0.616   5.827   6.262 -0.2219 -0.8534  0.0926
 8046SOL    HW225038   0.571   5.953   6.168  0.3222 -0.6191  0.1424
 8047SOL     OW25039   1.750   6.170   5.461  0.0547  0.2076 -0.1621
 8047SOL    HW125040   1.683   6.099   5.482  1.8374 -1.3600  0.4860
 8047SOL    HW225041   1.788   6.207   5.546  1.5324 -0.4797 -0.4822
 8048SOL     OW25042   4.211   6.081   5.958 -0.2042 -0.3423 -0.1983
 8048SOL    HW125043   4.147   6.051   6.029 -0.1852 -0.7071 -0.3374
 8048SOL    HW225044   4.181   6.170   5.922 -0.0518 -0.0102  0.4726
 8049SOL     OW25045   1.327   4.477   5.380  0.4104  0.1121  0.1255
 8049SOL    HW125046   1.414   4.428   5.386 -0.5454 -1.5668  0.9912
 8049SOL    HW225047   1.282   4.455   5.293 -1.5155 -3.3926  1.7738
 8050SOL     OW25048   6.883   5.727   0.513 -0.6437  0.7659 -0.0085
 8050SOL    HW125049   6.914   5.786   0.438  1.4926 -1.0854 -0.7079
 8050SOL    HW225050   6.796   5.685   0.489 -0.3479  0.7689 -1.1331
 8051SOL     OW25051   1.733   3.828   5.910  0.2116  0.1504 -0.2555
 8051SOL    HW125052   1.760   3.746   5.961  0.3219 -0.1916 -0.8433
 8051SOL    HW225053   1.779   3.827   5.821 -0.2787  0.5313 -0.5121
 8052SOL     OW25054   3.386   5.206   1.939  0.2251 -0.1198 -0.0998
 8052SOL    HW125055   3.469   5.155   1.915 -0.5032 -0.4066 -2.2354
 8052SOL    HW225056   3.368   5.274   1.868 -2.0105 -0.8789 -0.3129
 8053SOL     OW25057   6.027   3.926   0.912  0.3149  0.4529 -0.2139
 8053SOL    HW125058   6.028   3.938   0.812 -2.3879  0.7181 -0.2875
 8053SOL    HW225059   6.026   3.829   0.934  0.4162  0.3915 -0.4795
 8054SOL     OW25060   3.060   0.753   6.007 -0.3487  0.0967 -0.2405
 8054SOL    HW125061   3.159   0.764   6.011 -0.0886 -1.7453 -0.6301
 8054SOL    HW225062   3.030   0.755   5.911 -0.6916  0.6280 -0.1260
 8055SOL     OW25063   2.206   6.695   5.092 -0.3734  0.5001 -0.0132
 8055SOL    HW125064   2.290   6.684   5.145 -0.6279 -0.4677  0.2037
 8055SOL    HW225065   2.139   6.746   5.145 -1.0620 -1.4899  1.1204
 8056SOL     OW25066   4.166   1.360   3.186 -0.2575 -0.5634 -0.0670
 8056SOL    HW125067   4.209   1.294   3.248 -0.4903 -1.1212 -0.4802
 8056SOL    HW225068   4.193   1.339   3.092 -2.1420 -1.5438 -0.4454
 8057SOL     OW25069   3.496   5.635   2.502 -0.0141  0.5084  0.1983
 8057SOL    HW125070   3.434   5.662   2.428 -0.7005 -0.9507  0.2075
 8057SOL    HW225071   3.473   5.543   2.533  1.5794  0.2882  0.8436
 8058SOL     OW25072   1.150   1.939   3.221  0.5704 -0.2715 -0.1643
 8058SOL    HW125073   1.103   2.023   3.194 -0.7960 -1.5312 -1.9546
 8058SOL    HW225074   1.206   1.906   3.145  0.6806 -1.2453  0.3243
 8059SOL     OW25075   0.175   7.004   4.391 -0.1421 -0.2808  0.2749
 8059SOL    HW125076   0.102   7.073   4.393  0.1110  0.0310 -0.7283
 8059SOL    HW225077   0.192   6.976   4.296  1.1970 -0.1886  0.4714
 8060SOL     OW25078   1.342   3.040   5.340  0.0656 -0.1689 -0.0518
 8060SOL    HW125079   1.286   2.958   5.326  0.5704 -0.7670  1.2965
 8060SOL    HW225080   1.423   3.017   5.394  0.3866  1.1680  0.0825
 8061SOL     OW25081   4.639   0.170   2.369  0.4670 -0.3063  0.5351
 8061SOL    HW125082   4.594   0.191   2.283 -0.4327  0.0375  1.0709
 8061SOL    HW225083   4.669   0.074   2.369  0.3054 -0.3578 -0.0732
 8062SOL     OW25084   1.550   2.274   2.326  0.0173 -0.4642  0.4982
 8062SOL    HW125085   1.605   2.288   2.408  1.3773 -0.8184 -0.3070
 8062SOL    HW225086   1.549   2.177   2.302 -0.8987 -0.4500  0.4375
 8063SOL     OW25087   2.927   1.738   5.179 -0.3177  0.4614 -0.1269
 8063SOL    HW125088   2.833   1.761   5.204 -0.3360  3.4044 -2.3707
 8063SOL    HW225089   2.964   1.809   5.118  2.7379 -1.5415 -0.8424
 8064SOL     OW25090   4.942   0.465   4.373 -0.6485 -0.1939 -0.0057
 8064SOL    HW125091   5.034   0.503   4.364 -1.5749  2.3833  0.4779
 8064SOL    HW225092   4.932   0.387   4.312  1.6567 -0.1725 -0.5068
 8065SOL     OW25093   5.336   0.995   6.506 -0.0934  0.6928 -0.0385
 8065SOL    HW125094   5.361   0.899   6.516 -0.4465  0.3965 -1.6752
 8065SOL    HW225095   5.270   1.005   6.431 -0.6516  2.1246  0.6020
 8066SOL     OW25096   0.507   0.729   1.788 -0.3485  0.0416 -0.6299
 8066SOL    HW125097   0.558   0.761   1.708  0.4820 -1.9141 -0.9297
 8066SOL    HW225098   0.557   0.754   1.872 -0.2764  0.4508 -0.7898
 8067SOL     OW25099   4.691   2.169   1.426 -0.2829  0.2463  0.1304
 8067SOL    HW125100   4.758   2.232   1.386  0.1694 -0.8514 -0.8819
 8067SOL    HW225101   4.675   2.092   1.363 -0.3283 -0.9996  1.6165
 8068SOL     OW25102   1.378   1.966   3.065 -0.6760 -0.4307 -0.8384
 8068SOL    HW125103   1.357   2.051   3.115  2.4044 -0.6353  1.0828
 8068SOL    HW225104   1.431   1.989   2.984  0.1641 -0.4791 -0.3145
 8069SOL     OW25105   5.839   6.615   2.867  0.2069 -0.1133  0.8759
 8069SOL    HW125106   5.912   6.616   2.935  1.5937  0.2738 -0.5670
 8069SOL    HW225107   5.861   6.678   2.792 -1.2686 -0.5163  0.0572
 8070SOL     OW25108   1.918   2.088   3.972 -0.7262  0.4862  0.3000
 8070SOL    HW125109   1.818   2.086   3.982 -0.7654  0.4311 -0.0713
 8070SOL    HW225110   1.959   2.018   4.030 -0.9917 -0.3369 -0.4808
 8071SOL     OW25111   0.267   4.021   4.412  0.1484  0.2122 -0.2664
 8071SOL    HW125112   0.309   3.930   4.418 -0.3526 -0.0177 -0.1600
 8071SOL    HW225113   0.322   4.086   4.463  0.1788 -0.1606  0.1880
 8072SOL     OW25114   4.048   0.979   5.110  0.0829 -0.3654  0.0010
 8072SOL    HW125115   4.046   0.882   5.087 -0.9169 -0.5146  0.6627
 8072SOL    HW225116   3.996   0.995   5.194 -0.0801  0.7930 -0.2993
 8073SOL     OW25117   5.316   1.619   6.673  0.1475 -0.2105  0.3282
 8073SOL    HW125118   5.258   1.646   6.597  1.2743  0.8926 -0.1825
 8073SOL    HW225119   5.269   1.637   6.759  0.1034  1.6582 -0.0480
 8074SOL     OW25120   5.445   5.917   6.739 -0.2841 -0.1781 -0.7322
 8074SOL    HW125121   5.499   5.950   6.817 -1.4871  0.1628 -0.0130
 8074SOL    HW225122   5.505   5.902   6.661  0.7837  0.6057 -0.0919
 8075SOL     OW25123   6.143   1.124   1.280  0.4222 -0.7652  0.2159
 8075SOL    HW125124   6.113   1.075   1.362  0.5618 -0.8960  0.1879
 8075SOL    HW225125   6.063   1.149   1.225  0.2317  0.3194  0.9500
 8076SOL     OW25126   4.454   2.198   4.960  0.2680  0.0385 -0.6240
 8076SOL    HW125127   4.547   2.193   4.924  0.3990  1.5123 -0.5394
 8076SOL    HW225128   4.402   2.117   4.931  1.0235  0.1020 -2.2267
 8077SOL     OW25129   1.625   0.759   6.773 -0.0192 -0.2576 -0.1834
 8077SOL    HW125130   1.641   0.660   6.769  3.0811  0.0360  1.7914
 8077SOL    HW225131   1.596   0.784   6.865  0.0205  0.7782 -0.4416
 8078SOL     OW25132   0.308   2.598   5.384  0.0449  0.1190 -0.0533
 8078SOL    HW125133   0.228   2.540   5.399  1.0889 -0.7256  2.8626
 8078SOL    HW225134   0.284   2.693   5.398 -1.0369  0.2119 -2.1055
 8079SOL     OW25135   2.846   3.204   6.193  0.2513 -0.6139 -0.5969
 8079SOL    HW125136   2.909   3.265   6.146  2.7407 -0.8686  2.1065
 8079SOL    HW225137   2.859   3.111   6.159  0.6833 -0.5190 -0.6989
 8080SOL     OW25138   5.249   5.763   1.830 -0.5471  0.5584 -0.2466
 8080SOL    HW125139   5.201   5.709   1.761 -1.0851  0.4590  0.1939
 8080SOL    HW225140   5.272   5.704   1.908 -0.3532  0.7718 -0.1424
 8081SOL     OW25141   5.157   0.815   2.953  0.4280  0.5045 -0.1619
 8081SOL    HW125142   5.139   0.854   3.043  1.3591  0.4594  0.0555
 8081SOL    HW225143   5.072   0.779   2.915  0.3219 -1.2127  1.5210
 8082SOL     OW25144   4.784   2.901   5.289  0.1144  0.2902 -0.6197
 8082SOL    HW125145   4.814   2.855   5.205 -0.1222  1.2805 -1.2607
 8082SOL    HW225146   4.863   2.912   5.350 -0.0395 -1.9577  0.0517
 8083SOL     OW25147   6.843   1.428   4.746 -0.7569  0.0165  0.0196
 8083SOL    HW125148   6.838   1.379   4.833 -0.3276  0.5429  0.3420
 8083SOL    HW225149   6.870   1.364   4.674  1.2910  0.0589  0.6994
 8084SOL     OW25150   5.722   6.871   0.433 -0.0522 -0.1539  0.1945
 8084SOL    HW125151   5.691   6.800   0.497  0.2651 -1.9876 -1.5590
 8084SOL    HW225152   5.653   6.943   0.426 -1.8113 -1.7841 -0.1419
 8085SOL     OW25153   4.645   2.524   0.634 -0.3452  0.4418  0.0199
 8085SOL    HW125154   4.691   2.439   0.659 -0.0380  0.1467 -1.4960
 8085SOL    HW225155   4.549   2.519   0.663 -0.4853 -0.6641 -0.5887
 8086SOL     OW25156   2.973   4.102   5.832 -0.1658 -0.2477  0.0321
 8086SOL    HW125157   3.063   4.066   5.804  0.5183 -0.0441  1.8141
 8086SOL    HW225158   2.978   4.201   5.838  0.6793 -0.3553  3.5603
 8087SOL     OW25159   3.798   2.631   0.611  0.5515  0.3103 -0.0300
 8087SOL    HW125160   3.810   2.726   0.641 -0.6272  1.4503 -2.8444
 8087SOL    HW225161   3.701   2.607   0.615  0.6453 -0.2171 -0.7976
 8088SOL     OW25162   6.001   2.872   2.800  0.4855  0.1321  0.5375
 8088SOL    HW125163   6.064   2.945   2.774 -1.1477  1.5455  0.2868
 8088SOL    HW225164   5.998   2.865   2.900  0.2522  0.8170  0.5876
 8089SOL     OW25165   6.987   2.877   6.547  0.3852 -0.1098  0.1498
 8089SOL    HW125166   6.943   2.794   6.579  0.9932 -0.0271  1.2726
 8089SOL    HW225167   6.922   2.953   6.550  0.7918  0.2174  2.7126
 8090SOL     OW25168   4.311   1.206   3.552  0.7503 -0.3120  0.0928
 8090SOL    HW125169   4.320   1.127   3.612 -0.1249  0.0809  0.7607
 8090SOL    HW225170   4.300   1.175   3.457 -1.9268 -1.1280  0.5879
 8091SOL     OW25171   2.842   1.171   4.316 -0.4569 -0.4470  0.1883
 8091SOL    HW125172   2.867   1.092   4.260  1.2650  0.7617 -0.8583
 8091SOL    HW225173   2.870   1.255   4.269 -2.6831  0.8417  1.0383
 8092SOL     OW25174   4.853   1.538   3.448  0.1556  0.6618 -1.0490
 8092SOL    HW125175   4.803   1.583   3.522  4.2724  2.5745  0.8833
 8092SOL    HW225176   4.861   1.440   3.468 -1.5019  0.5626 -0.7106
 8093SOL     OW25177   6.375   4.904   0.407  0.6852  0.5071  0.0940
 8093SOL    HW125178   6.417   4.868   0.324  5.3421  2.4461  1.2966
 8093SOL    HW225179   6.381   5.004   0.408 -1.0000  0.6705  1.9720
 8094SOL     OW25180   0.852   1.489   5.907 -0.5190 -0.4932 -0.3874
 8094SOL    HW125181   0.902   1.414   5.950 -1.5223 -0.2606  1.2484
 8094SOL    HW225182   0.782   1.453   5.846 -0.5256 -0.8724 -0.1541
 8095SOL     OW25183   6.187   1.866   4.224  0.1538 -0.0477 -0.1248
 8095SOL    HW125184   6.161   1.953   4.184 -0.9768 -0.4469 -0.3128
 8095SOL    HW225185   6.230   1.808   4.155  1.3208  0.5133  0.1128
 8096SOL     OW25186   3.972   6.050   1.723  0.2866 -0.3943 -0.7243
 8096SOL    HW125187   4.040   6.116   1.756 -0.4488 -0.4924  1.1198
 8096SOL    HW225188   3.887   6.098   1.704 -0.2732 -0.7587  0.6912
 8097SOL     OW25189   3.474   0.352   5.656 -0.0798  0.3089 -0.1548
 8097SOL    HW125190   3.491   0.275   5.717 -1.0008 -0.8897 -1.3432
 8097SOL    HW225191   3.558   0.406   5.645  1.0075 -1.3683 -0.4373
 8098SOL     OW25192   0.810   2.079   6.513 -0.4876 -0.1874  0.1559
 8098SOL    HW125193   0.855   2.150   6.567  0.7045 -0.7169 -0.1011
 8098SOL    HW225194   0.790   2.000   6.572 -2.3154  0.5312  0.5702
 8099SOL     OW25195   3.919   0.408   4.298 -0.1455 -0.2099 -0.3135
 8099SOL    HW125196   3.874   0.464   4.229  1.2548 -0.3817 -1.4122
 8099SOL    HW225197   3.881   0.430   4.388 -4.5474 -2.4494 -1.3253
 8100SOL     OW25198   5.910   5.497   4.136  0.4169  0.1088 -0.0599
 8100SOL    HW125199   5.815   5.467   4.136 -0.1939  1.8164 -2.2891
 8100SOL    HW225200   5.944   5.504   4.042  1.8520  2.1816  0.5403
 8101SOL     OW25201   0.778   4.798   1.692  0.1688 -0.2919  0.4499
 8101SOL    HW125202   0.813   4.880   1.646  0.8478 -0.3787  0.8157
 8101SOL    HW225203   0.854   4.739   1.719 -0.1783 -0.0215  2.1152
 8102SOL     OW25204   0.956   1.005   5.833 -0.7547  0.3855  0.1434
 8102SOL    HW125205   0.873   1.061   5.831 -0.6478  0.5231 -1.3267
 8102SOL    HW225206   0.965   0.956   5.747  1.2436  1.1509 -0.1361
 8103SOL     OW25207   1.649   1.220   2.294  0.3651 -0.2729 -0.0074
 8103SOL    HW125208   1.738   1.263   2.282  0.4663 -0.1158  1.2071
 8103SOL    HW225209   1.597   1.227   2.209  1.9507 -1.4210 -1.1101
 8104SOL     OW25210   4.905   2.772   5.956  0.3322 -0.2797 -0.0524
 8104SOL    HW125211   4.917   2.851   5.896 -0.1020  1.4168  1.9808
 8104SOL    HW225212   4.976   2.773   6.026  0.2090 -1.6392  0.1224
 8105SOL     OW25213   1.225   2.150   2.403 -0.1716  0.5289  0.4253
 8105SOL    HW125214   1.193   2.186   2.491 -0.4613  0.7628  0.2270
 8105SOL    HW225215   1.147   2.134   2.343  0.1604  2.8143 -0.7198
 8106SOL     OW25216   0.240   3.884   6.627 -0.2760 -0.0307  0.1354
 8106SOL    HW125217   0.321   3.883   6.686  0.8934  0.0250 -1.4007
 8106SOL    HW225218   0.199   3.975   6.629  1.4767  0.8540 -1.3235
 8107SOL     OW25219   0.384   3.541   5.724  0.5991 -0.5706 -0.0680
 8107SOL    HW125220   0.368   3.559   5.627  0.0205  0.5449  0.2237
 8107SOL    HW225221   0.441   3.460   5.733  1.0881 -0.3976 -1.3598
 8108SOL     OW25222   1.972   1.792   5.840  0.6257  0.0692  0.5001
 8108SOL    HW125223   1.946   1.765   5.747 -1.6332  0.8107  0.8509
 8108SOL    HW225224   1.941   1.722   5.905 -0.0174  0.6915  0.8827
 8109SOL     OW25225   1.404   5.571   5.034 -0.0485  0.1785  0.4862
 8109SOL    HW125226   1.486   5.524   5.069 -0.0742 -0.2272  0.0270
 8109SOL    HW225227   1.424   5.605   4.942 -0.5317 -0.3030  0.1995
 8110SOL     OW25228   2.754   5.104   6.452  0.4647  0.4008  0.4677
 8110SOL    HW125229   2.730   5.201   6.460  0.7898  0.3793  2.2575
 8110SOL    HW225230   2.847   5.095   6.417  0.7239  0.7768  1.0444
 8111SOL     OW25231   2.896   1.058   5.161 -0.9700  0.0295 -0.1348
 8111SOL    HW125232   2.990   1.085   5.182 -0.9002  1.2736 -1.8400
 8111SOL    HW225233   2.890   0.958   5.156  0.1661 -0.0766  0.3531
 8112SOL     OW25234   4.357   0.281   3.913  0.1410  0.4038  0.3420
 8112SOL    HW125235   4.431   0.348   3.910  1.2014 -0.7348  0.3584
 8112SOL    HW225236   4.344   0.249   4.007  0.3397 -0.1523  0.1851
 8113SOL     OW25237   3.954   1.550   6.618  0.7252  0.1785  0.0118
 8113SOL    HW125238   3.868   1.597   6.637  1.1079  0.5026  1.0062
 8113SOL    HW225239   3.980   1.494   6.697  1.6095  0.3752 -0.1280
 8114SOL     OW25240   2.136   3.387   2.605  0.2444  0.0309  0.2312
 8114SOL    HW125241   2.208   3.319   2.617 -0.4953 -0.9354 -0.6411
 8114SOL    HW225242   2.100   3.382   2.512 -0.2902  1.1596  0.3564
 8115SOL     OW25243   5.170   3.943   0.835  0.3407  0.3476  0.1373
 8115SOL    HW125244   5.170   4.001   0.753  1.9736 -0.5027 -0.4977
 8115SOL    HW225245   5.091   3.881   0.832  0.5272  0.1456 -0.9317
 8116SOL     OW25246   4.667   0.828   3.916  0.5044  0.0071 -0.2369
 8116SOL    HW125247   4.716   0.758   3.966  0.0118  0.9810  1.6850
 8116SOL    HW225248   4.603   0.875   3.977 -0.5652  0.8567 -1.9233
 8117SOL     OW25249   3.255   3.462   5.459 -0.2623  0.0305 -0.0283
 8117SOL    HW125250   3.167   3.507   5.472 -0.8945 -1.6930  2.3385
 8117SOL    HW225251   3.311   3.471   5.541 -0.7025 -3.8513  0.8960
 8118SOL     OW25252   0.507   1.593   2.984  0.1184  0.4752 -0.0377
 8118SOL    HW125253   0.606   1.581   2.988  0.2640  1.3276 -0.7876
 8118SOL    HW225254   0.464   1.505   2.965  0.6514 -0.0868  1.2564
 8119SOL     OW25255   0.843   6.376   4.110  0.3108 -0.1413  1.1736
 8119SOL    HW125256   0.856   6.306   4.180  1.5088  0.3329  1.4378
 8119SOL    HW225257   0.857   6.336   4.019  3.0837  0.1389  1.3866
 8120SOL     OW25258   4.912   4.980   2.578 -0.2475 -0.1792  0.4296
 8120SOL    HW125259   4.863   4.951   2.495  0.0069 -1.1736  0.6234
 8120SOL    HW225260   4.869   5.064   2.613  0.2769  0.8757 -1.2871
 8121SOL     OW25261   6.206   5.366   3.823 -0.3879 -0.1881  0.2097
 8121SOL    HW125262   6.272   5.437   3.848 -0.4599  0.2400 -0.7825
 8121SOL    HW225263   6.238   5.316   3.743 -0.1074 -1.6276  1.1907
 8122SOL     OW25264   0.859   5.113   3.300  0.3706 -0.0611  0.0330
 8122SOL    HW125265   0.866   5.021   3.261 -0.2650  1.0642 -2.9529
 8122SOL    HW225266   0.938   5.167   3.274  0.2615  0.5492  0.9265
 8123SOL     OW25267   1.202   4.766   6.011 -0.0800  0.1151  0.1494
 8123SOL    HW125268   1.128   4.739   6.072 -0.5803 -0.0691 -0.5249
 8123SOL    HW225269   1.287   4.775   6.063 -0.0040 -2.1520  0.5246
 8124SOL     OW25270   0.920   5.953   3.578 -0.3624 -0.1514 -0.0325
 8124SOL    HW125271   0.902   5.860   3.609 -1.4829 -0.1791 -0.7209
 8124SOL    HW225272   0.938   5.952   3.479  0.1177  0.3051  0.0464
 8125SOL     OW25273   6.339   5.361   3.158 -0.2206 -0.1642  0.0729
 8125SOL    HW125274   6.325   5.263   3.146  0.1427 -0.1737 -0.3233
 8125SOL    HW225275   6.251   5.408   3.153 -0.6859 -0.6644  2.4740
 8126SOL     OW25276   0.851   4.918   0.603 -0.3041  0.8486 -0.3531
 8126SOL    HW125277   0.903   5.002   0.591 -0.3171  0.8003 -0.7801
 8126SOL    HW225278   0.834   4.902   0.700  2.2223 -0.2091 -0.0285
 8127SOL     OW25279   3.606   4.177   0.674 -0.5772  0.2608 -0.1678
 8127SOL    HW125280   3.512   4.193   0.645 -0.1848  0.7839 -1.1946
 8127SOL    HW225281   3.613   4.189   0.773 -1.4309  1.0098 -0.1847
 8128SOL     OW25282   4.314   2.050   5.212  0.0556 -0.1637 -0.0526
 8128SOL    HW125283   4.302   1.996   5.129  1.1017  1.8823 -1.6381
 8128SOL    HW225284   4.231   2.045   5.267 -0.9682 -0.9869 -1.5876
 8129SOL     OW25285   6.657   1.102   1.326  0.4434 -0.0846 -0.3713
 8129SOL    HW125286   6.571   1.055   1.304 -0.4578  2.4797 -2.9509
 8129SOL    HW225287   6.647   1.200   1.310  3.7058  0.3795 -0.2582
 8130SOL     OW25288   6.345   2.266   5.916 -0.1783 -0.2040  0.2407
 8130SOL    HW125289   6.389   2.355   5.897 -0.0537 -0.1945  0.5794
 8130SOL    HW225290   6.411   2.193   5.898 -0.1351 -0.2063  0.4108
 8131SOL     OW25291   0.399   1.923   4.199 -0.0415 -0.2063 -0.0496
 8131SOL    HW125292   0.435   1.958   4.113 -0.1322 -0.3146 -0.1318
 8131SOL    HW225293   0.380   1.999   4.261 -0.4604 -0.0970 -0.3117
 8132SOL     OW25294   6.404   3.699   2.490 -0.7678 -0.2223 -0.0577
 8132SOL    HW125295   6.406   3.599   2.488 -0.9539 -0.2440  0.5186
 8132SOL    HW225296   6.385   3.730   2.583  0.4926  0.3711  0.0262
 8133SOL     OW25297   6.537   5.030   1.991  0.6482 -0.1834 -0.2345
 8133SOL    HW125298   6.481   5.038   1.908 -0.5300  0.1430  0.5707
 8133SOL    HW225299   6.504   4.953   2.045  1.1785 -0.1724  0.1044
 8134SOL     OW25300   5.359   3.802   0.978  0.1011 -0.0471 -0.6000
 8134SOL    HW125301   5.302   3.773   1.055 -0.7110  0.0558 -1.1510
 8134SOL    HW225302   5.302   3.847   0.909  0.5786 -1.3588 -1.8949
 8135SOL     OW25303   6.190   6.260   6.636 -0.5696  0.5944 -0.1366
 8135SOL    HW125304   6.167   6.198   6.711  1.2724  2.7457  2.3907
 8135SOL    HW225305   6.279   6.233   6.598 -0.0235  1.3220  0.6004
 8136SOL     OW25306   2.265   4.530   0.195 -0.0787 -0.5579 -0.4394
 8136SOL    HW125307   2.206   4.594   0.244  1.2413 -0.6013  1.3084
 8136SOL    HW225308   2.358   4.565   0.193  0.8869 -2.7520  1.3840
 8137SOL     OW25309   2.850   6.420   6.636 -0.0037  0.2510 -0.3176
 8137SOL    HW125310   2.811   6.502   6.593  0.1621  0.2357 -0.4986
 8137SOL    HW225311   2.924   6.385   6.579  1.3698  1.2230  0.8184
 8138SOL     OW25312   2.828   2.249   3.372 -0.0263  0.1906  0.7391
 8138SOL    HW125313   2.770   2.169   3.385  0.9498 -0.4015  1.6340
 8138SOL    HW225314   2.886   2.237   3.292  0.6658 -0.3611  1.3075
 8139SOL     OW25315   1.182   3.483   0.079 -0.3375 -0.2161 -0.1890
 8139SOL    HW125316   1.273   3.505   0.114  0.6853  0.0173 -2.7771
 8139SOL    HW225317   1.186   3.399   0.025 -0.9609  1.3265 -2.7799
 8140SOL     OW25318   5.687   3.143   0.796 -0.4852 -0.8049  0.4455
 8140SOL    HW125319   5.646   3.232   0.813  1.8917 -0.0044  2.5722
 8140SOL    HW225320   5.621   3.071   0.819 -2.1610  0.3448 -0.5523
 8141SOL     OW25321   3.634   1.330   5.736  0.1903 -0.0251  0.2724
 8141SOL    HW125322   3.662   1.404   5.675  0.8034 -0.3062  0.2060
 8141SOL    HW225323   3.583   1.367   5.813  1.3483  0.5765  0.7658
 8142SOL     OW25324   6.090   5.696   0.587  0.2062 -1.1158  0.4127
 8142SOL    HW125325   6.005   5.674   0.635 -1.3865 -1.6838 -2.4646
 8142SOL    HW225326   6.101   5.795   0.586 -0.3713 -1.0341  0.8849
 8143SOL     OW25327   6.321   3.938   5.996  0.2983 -0.5309 -0.4765
 8143SOL    HW125328   6.223   3.926   5.979 -0.2197  0.7073  1.4022
 8143SOL    HW225329   6.362   3.983   5.917 -1.2465  1.5305 -0.2053
 8144SOL     OW25330   2.925   4.293   0.994  0.0451  0.3741  0.4750
 8144SOL    HW125331   2.888   4.260   1.081  1.5183 -1.1455  0.5609
 8144SOL    HW225332   2.998   4.232   0.963  1.2464  2.2679 -0.5989
 8145SOL     OW25333   5.630   6.093   6.581 -0.2320  0.6278 -0.3949
 8145SOL    HW125334   5.537   6.124   6.561  0.1335  2.1880  0.1928
 8145SOL    HW225335   5.637   6.068   6.677  0.1419  1.2966 -0.2398
 8146SOL     OW25336   1.740   4.305   4.768 -0.5004 -0.6136  0.0941
 8146SOL    HW125337   1.730   4.402   4.791 -2.1764 -0.9311  0.8243
 8146SOL    HW225338   1.688   4.284   4.686 -1.6185 -1.2258  0.9308
 8147SOL     OW25339   6.777   0.145   3.609  0.0848 -0.7483 -0.0503
 8147SOL    HW125340   6.758   0.160   3.511 -1.5820  2.9527  0.6388
 8147SOL    HW225341   6.694   0.113   3.654 -0.4495  1.4499  0.6775
 8148SOL     OW25342   6.508   6.290   6.281  0.5019  0.4046 -0.0902
 8148SOL    HW125343   6.533   6.198   6.251  2.5830  0.8273  0.2511
 8148SOL    HW225344   6.455   6.284   6.366  1.8375 -0.4443  0.7081
 8149SOL     OW25345   1.690   6.483   5.399  0.1301  0.6982 -0.0015
 8149SOL    HW125346   1.652   6.449   5.313 -0.9322  0.4477  0.5583
 8149SOL    HW225347   1.624   6.471   5.473  1.7980 -1.0740  1.3147
 8150SOL     OW25348   1.534   3.252   0.483  0.0078  0.2484  0.1982
 8150SOL    HW125349   1.596   3.281   0.556 -1.2355  0.6125  1.1593
 8150SOL    HW225350   1.558   3.159   0.454 -1.0944 -1.0374  3.0128
 8151SOL     OW25351   5.969   1.689   4.243 -0.2615 -0.1279  0.1471
 8151SOL    HW125352   6.054   1.742   4.242 -0.5808  0.4301  1.1169
 8151SOL    HW225353   5.974   1.621   4.317 -1.4496  1.3084  1.6297
 8152SOL     OW25354   5.227   1.806   2.443 -0.3942  0.4643 -0.0168
 8152SOL    HW125355   5.241   1.880   2.509 -1.8325  0.6709  0.0809
 8152SOL    HW225356   5.175   1.733   2.486 -0.1518 -0.0148 -0.5264
 8153SOL     OW25357   1.449   1.632   2.478 -0.5002  0.0478  0.1655
 8153SOL    HW125358   1.364   1.588   2.450 -0.4136 -1.0667  1.5106
 8153SOL    HW225359   1.496   1.668   2.398 -1.5549 -0.5710 -0.7629
 8154SOL     OW25360   6.851   6.946   4.693  0.7866  0.1327 -0.6782
 8154SOL    HW125361   6.786   6.912   4.761 -0.9531  0.4774 -2.0906
 8154SOL    HW225362   6.860   7.045   4.701 -0.5735  0.3864 -1.8262
 8155SOL     OW25363   1.002   4.466   2.836 -0.3301  0.9319 -0.3064
 8155SOL    HW125364   1.066   4.508   2.900 -0.5195  2.0478 -0.8223
 8155SOL    HW225365   0.962   4.384   2.878  2.0197 -0.2775 -0.2790
 8156SOL     OW25366   0.922   2.996   6.431  0.8168  0.2115  0.0983
 8156SOL    HW125367   0.851   3.046   6.382  0.3868  0.1840  0.6956
 8156SOL    HW225368   0.980   2.947   6.364 -0.4187 -0.7077 -0.3416
 8157SOL     OW25369   1.120   5.168   6.723 -0.2631 -0.2079  0.6402
 8157SOL    HW125370   1.064   5.113   6.785 -0.2833  0.0733  0.8730
 8157SOL    HW225371   1.082   5.260   6.716  1.0610  0.4830  2.0573
 8158SOL     OW25372   0.561   6.410   6.755  0.0327  0.1272 -0.1135
 8158SOL    HW125373   0.633   6.344   6.773 -1.2406 -0.7668  2.0307
 8158SOL    HW225374   0.523   6.394   6.664  0.2633 -1.6156  0.0652
 8159SOL     OW25375   3.254   0.194   5.572  0.3725  0.2171 -0.8395
 8159SOL    HW125376   3.299   0.272   5.615 -0.0211  0.4844 -0.9080
 8159SOL    HW225377   3.312   0.113   5.582 -0.9126 -0.4228  2.7486
 8160SOL     OW25378   5.613   4.025   1.606 -0.1373  0.4470  0.1392
 8160SOL    HW125379   5.590   4.109   1.654 -0.5702  0.7235 -0.5330
 8160SOL    HW225380   5.557   4.018   1.523  0.2866 -0.2298 -0.0975
 8161SOL     OW25381   1.436   2.927   4.940 -0.4498 -0.3331 -0.6194
 8161SOL    HW125382   1.339   2.947   4.955 -0.1570  1.4272 -0.9108
 8161SOL    HW225383   1.492   2.997   4.984  0.7269 -1.4348 -0.2828
 8162SOL     OW25384   6.830   1.214   1.051 -0.0433 -0.1122  0.4684
 8162SOL    HW125385   6.891   1.273   1.104 -0.2736 -0.4584  1.1274
 8162SOL    HW225386   6.832   1.121   1.088 -0.0737 -0.4047 -0.2451
 8163SOL     OW25387   4.897   5.377   5.103  0.7581  0.1821  0.2974
 8163SOL    HW125388   4.842   5.313   5.157  0.4806 -0.3284 -0.5754
 8163SOL    HW225389   4.963   5.422   5.163  0.1905 -0.0795  1.1354
 8164SOL     OW25390   4.980   3.736   0.534 -0.4451  0.3044 -0.0459
 8164SOL    HW125391   4.956   3.791   0.614 -0.6535  0.9941 -0.5769
 8164SOL    HW225392   4.908   3.669   0.517  0.5454 -1.3035  1.5806
 8165SOL     OW25393   1.312   2.743   5.658 -0.7408 -0.5599  0.3743
 8165SOL    HW125394   1.307   2.834   5.616 -0.4563 -0.8228 -0.2435
 8165SOL    HW225395   1.407   2.711   5.656 -0.3060  0.2865  3.1304
 8166SOL     OW25396   3.131   1.721   3.923  0.1144 -0.0580 -0.4650
 8166SOL    HW125397   3.095   1.714   4.017 -0.8425  2.6757 -0.5596
 8166SOL    HW225398   3.229   1.704   3.925  0.0459 -0.4851  0.9635
 8167SOL     OW25399   0.904   3.642   2.350  0.0666  0.4551 -0.1701
 8167SOL    HW125400   0.998   3.652   2.382  0.2942 -1.6735 -0.0002
 8167SOL    HW225401   0.903   3.590   2.265 -0.9731  0.1280  0.0257
 8168SOL     OW25402   0.904   0.609   2.541  0.1074 -0.6468 -0.6374
 8168SOL    HW125403   0.925   0.511   2.535  3.3676 -0.3891  2.8397
 8168SOL    HW225404   0.990   0.661   2.538 -1.4891  2.1248 -1.6882
 8169SOL     OW25405   5.827   4.906   0.154  0.0115  0.0488  0.1364
 8169SOL    HW125406   5.732   4.938   0.155 -0.6124 -1.6696  1.4384
 8169SOL    HW225407   5.872   4.935   0.239 -0.1020 -1.1390  0.6195
 8170SOL     OW25408   6.839   5.388   2.336  0.0714  0.3091 -0.0526
 8170SOL    HW125409   6.862   5.481   2.365 -1.6825  1.1347 -1.1735
 8170SOL    HW225410   6.794   5.341   2.412 -1.2055  1.2102 -0.2185
 8171SOL     OW25411   2.534   6.555   4.407 -0.1453  0.7015 -0.2339
 8171SOL    HW125412   2.607   6.581   4.470  0.6073 -0.5853 -0.5419
 8171SOL    HW225413   2.524   6.455   4.407 -2.1500  0.8590  0.0641
 8172SOL     OW25414   1.766   3.098   1.512 -0.5953  0.3816 -1.1179
 8172SOL    HW125415   1.821   3.036   1.456 -0.5748  0.0367 -0.7211
 8172SOL    HW225416   1.775   3.192   1.477  0.9552  0.4869 -0.5269
 8173SOL     OW25417   4.332   0.356   1.639 -0.6053 -0.3799  0.1983
 8173SOL    HW125418   4.349   0.377   1.735  0.7744 -1.3010  0.1723
 8173SOL    HW225419   4.299   0.262   1.631  0.1132 -0.5915 -0.3076
 8174SOL     OW25420   3.621   6.752   3.325 -0.0433  0.0658  0.3081
 8174SOL    HW125421   3.570   6.774   3.408 -0.9297  0.9458 -0.4279
 8174SOL    HW225422   3.591   6.663   3.290 -2.0970  1.1031 -0.7909
 8175SOL     OW25423   1.310   1.957   0.816  0.2178 -0.1026  0.5674
 8175SOL    HW125424   1.309   1.858   0.824  1.9591 -0.1387  0.7608
 8175SOL    HW225425   1.316   1.984   0.720 -0.3559 -0.1654  0.5090
 8176SOL     OW25426   3.337   5.739   1.511 -0.8015  0.2284  0.2321
 8176SOL    HW125427   3.250   5.690   1.522 -1.4744  0.7028 -2.2476
 8176SOL    HW225428   3.322   5.836   1.529 -0.1815  0.0140  2.1140
 8177SOL     OW25429   1.565   0.706   4.049 -0.1191  0.1910  0.1987
 8177SOL    HW125430   1.611   0.750   4.126 -0.6612 -0.5244  0.9586
 8177SOL    HW225431   1.611   0.619   4.030  1.4123  1.3500 -1.7711
 8178SOL     OW25432   2.416   6.062   1.255  0.1715  0.7658 -0.1254
 8178SOL    HW125433   2.448   6.005   1.178  1.0365  1.3295 -0.1977
 8178SOL    HW225434   2.400   6.155   1.223 -0.1129  0.8455  0.2458
 8179SOL     OW25435   6.398   4.324   4.134 -0.1033 -0.1691  0.1755
 8179SOL    HW125436   6.450   4.239   4.121  0.5540  0.5751 -2.5756
 8179SOL    HW225437   6.336   4.337   4.057  0.0803  2.0390  0.3591
 8180SOL     OW25438   3.057   4.506   1.694 -0.2029 -0.2787 -0.4946
 8180SOL    HW125439   3.088   4.600   1.680  0.0003 -0.0329  1.2945
 8180SOL    HW225440   2.989   4.504   1.768  0.7453 -1.6701  0.3968
 8181SOL     OW25441   6.441   1.969   6.717 -0.0241 -0.0143 -0.0954
 8181SOL    HW125442   6.532   1.932   6.697 -0.0767 -0.8548  1.0801
 8181SOL    HW225443   6.449   2.062   6.751  0.2174  0.6600 -1.8788
 8182SOL     OW25444   4.054   3.258   2.903  0.0730  0.1624 -0.7506
 8182SOL    HW125445   4.049   3.333   2.837  1.2127  0.5716 -0.3945
 8182SOL    HW225446   4.092   3.292   2.989 -3.1153  0.1002  0.8324
 8183SOL     OW25447   0.008   1.630   5.371  0.6820 -0.3456 -0.3085
 8183SOL    HW125448  -0.032   1.558   5.315  0.4403 -0.5575  0.1268
 8183SOL    HW225449  -0.039   1.716   5.354 -2.2300 -1.1700  2.4825
 8184SOL     OW25450   6.203   4.395   3.338  0.4025  0.3565 -0.2331
 8184SOL    HW125451   6.294   4.429   3.314  0.9844 -1.2511 -0.4732
 8184SOL    HW225452   6.168   4.338   3.264 -0.3797  0.1561  0.2711
 8185SOL     OW25453   6.777   6.198   5.566  0.3140 -0.5122  0.2778
 8185SOL    HW125454   6.787   6.293   5.594  0.4277  0.0869 -1.6120
 8185SOL    HW225455   6.866   6.161   5.540 -0.0433 -0.2749 -1.4196
 8186SOL     OW25456   0.358   5.757   5.229 -0.3299 -0.6522  0.1611
 8186SOL    HW125457   0.305   5.840   5.246  0.7997  0.3637 -1.0340
 8186SOL    HW225458   0.302   5.692   5.177 -0.5982  0.1786 -0.6179
 8187SOL     OW25459   1.546   4.967   3.465  0.0343 -0.2973 -0.4722
 8187SOL    HW125460   1.629   4.942   3.415  2.3638  2.0652  1.9335
 8187SOL    HW225461   1.539   4.914   3.549 -0.4702  0.0596 -0.2780
 8188SOL     OW25462   1.093   4.069   0.648 -0.0543  0.1315 -0.1220
 8188SOL    HW125463   1.001   4.100   0.671  0.0109 -0.8240  1.6178
 8188SOL    HW225464   1.092   4.025   0.558 -1.5400 -0.8111  0.3214
 8189SOL     OW25465   6.799   5.382   2.047 -0.1327 -0.4138  0.2580
 8189SOL    HW125466   6.728   5.347   2.107  0.3594 -1.2813  0.3506
 8189SOL    HW225467   6.836   5.307   1.992  2.7218 -0.6367  2.2673
 8190SOL     OW25468   5.912   4.910   2.211  0.3035  0.2398  0.1474
 8190SOL    HW125469   6.001   4.955   2.200  0.3366 -0.2210 -1.9243
 8190SOL    HW225470   5.918   4.816   2.179 -0.5209 -0.3575  1.6554
 8191SOL     OW25471   6.298   5.909   1.815 -0.3834  0.0961 -0.1658
 8191SOL    HW125472   6.283   5.849   1.735  1.6403  0.9215 -1.2327
 8191SOL    HW225473   6.265   5.862   1.897 -0.9626 -1.5095 -1.2439
 8192SOL     OW25474   0.802   5.466   0.848 -0.0288  0.2674 -0.3737
 8192SOL    HW125475   0.708   5.499   0.834 -0.7518 -0.0395  2.9108
 8192SOL    HW225476   0.861   5.542   0.872  0.0819  0.1595 -0.3055
 8193SOL     OW25477   2.499   5.835   5.997 -0.0694 -0.3110 -0.5459
 8193SOL    HW125478   2.509   5.922   6.046 -0.1102  0.6205 -2.1351
 8193SOL    HW225479   2.571   5.773   6.026 -0.9991 -0.3853  1.8375
 8194SOL     OW25480   5.001   6.006   4.961 -0.0603 -0.5143  0.5634
 8194SOL    HW125481   4.926   6.032   5.022 -0.0499  0.9096  0.0015
 8194SOL    HW225482   5.005   6.069   4.884 -0.0011 -2.2241 -0.8877
 8195SOL     OW25483   0.828   6.570   3.560 -0.6306 -0.2386  0.1857
 8195SOL    HW125484   0.886   6.547   3.482  1.3257  0.6442  1.3236
 8195SOL    HW225485   0.878   6.555   3.645 -1.6483  1.6446  1.1903
 8196SOL     OW25486   6.264   0.629   3.811  0.1719  0.1451 -0.3926
 8196SOL    HW125487   6.178   0.607   3.766 -1.3176 -0.7846  2.5958
 8196SOL    HW225488   6.250   0.706   3.874  1.6858  0.3317 -0.2330
 8197SOL     OW25489   2.710   1.594   4.201  0.1713 -0.2321 -0.6637
 8197SOL    HW125490   2.734   1.691   4.198 -0.5964  0.1936  2.6518
 8197SOL    HW225491   2.655   1.576   4.282 -0.8693 -3.2456 -1.8925
 8198SOL     OW25492   1.497   4.793   0.468  0.2670 -0.2510  0.0841
 8198SOL    HW125493   1.543   4.882   0.463  1.7026 -0.9765 -0.0510
 8198SOL    HW225494   1.526   4.737   0.390  0.6014 -1.3907  1.0080
 8199SOL     OW25495   6.929   1.942   0.146  0.1748 -0.0470  0.1262
 8199SOL    HW125496   6.869   1.949   0.225  0.9673 -1.5779  0.9039
 8199SOL    HW225497   6.875   1.944   0.062 -0.7805  0.4211  0.7433
 8200SOL     OW25498   6.339   5.801   0.370  0.3893 -0.0618  0.1533
 8200SOL    HW125499   6.354   5.703   0.363  0.8833 -0.0624  1.1372
 8200SOL    HW225500   6.244   5.819   0.392  0.3327 -0.3194  0.1184
 8201SOL     OW25501   4.922   3.023   6.907 -0.5030  0.1599  0.3873
 8201SOL    HW125502   4.902   2.957   6.835 -1.6579 -0.1086  0.9451
 8201SOL    HW225503   4.837   3.054   6.950  0.1099  0.9464  1.0892
 8202SOL     OW25504   0.023   4.818   3.846 -0.1289 -0.1140  0.3780
 8202SOL    HW125505   0.106   4.781   3.803  0.6510  1.7114  0.2231
 8202SOL    HW225506  -0.039   4.851   3.774 -0.1165  0.3056  0.5600
 8203SOL     OW25507   1.320   2.916   0.360 -0.3033 -0.2856 -0.2959
 8203SOL    HW125508   1.413   2.954   0.352 -1.0476  1.3686 -1.8538
 8203SOL    HW225509   1.271   2.965   0.432 -0.5698  0.2238 -0.8148
 8204SOL     OW25510   1.231   5.136   0.254  0.3819  0.1586 -0.0515
 8204SOL    HW125511   1.280   5.087   0.326  0.1616  0.3874  0.2568
 8204SOL    HW225512   1.144   5.091   0.235  0.0584  0.5684  0.4174
 8205SOL     OW25513   0.499   3.057   6.847 -0.2425 -0.4005  0.2885
 8205SOL    HW125514   0.520   3.020   6.937  0.7001 -0.5043  0.0399
 8205SOL    HW225515   0.566   3.126   6.822  0.7562 -1.8018 -1.1649
 8206SOL     OW25516   3.126   1.853   0.880  0.0279  0.1906  0.1251
 8206SOL    HW125517   3.055   1.821   0.942  1.0938 -1.4956  0.5396
 8206SOL    HW225518   3.209   1.873   0.932  0.9183 -1.1950 -0.6972
 8207SOL     OW25519   3.619   3.382   2.871 -0.0330 -0.2726 -0.0988
 8207SOL    HW125520   3.705   3.367   2.822  0.1870  1.1924 -0.2113
 8207SOL    HW225521   3.542   3.362   2.810  0.2278 -0.8369 -0.2465
 8208SOL     OW25522   4.149   5.398   6.696  0.7966 -0.4267  0.5457
 8208SOL    HW125523   4.221   5.378   6.762 -0.4565 -1.6708  1.5993
 8208SOL    HW225524   4.060   5.381   6.738 -0.0397 -2.7978 -1.9074
 8209SOL     OW25525   6.406   2.043   4.160 -0.4992 -0.1027  0.0269
 8209SOL    HW125526   6.419   1.958   4.211 -1.9420 -0.8480 -0.7965
 8209SOL    HW225527   6.422   2.026   4.063 -0.9476  0.5241 -0.1590
 8210SOL     OW25528   1.341   0.495   6.149  0.0138 -0.2245  0.7336
 8210SOL    HW125529   1.271   0.425   6.162 -1.9927  1.4117 -0.5248
 8210SOL    HW225530   1.308   0.563   6.083  1.6673  2.1120  2.1432
 8211SOL     OW25531   4.748   5.716   0.340 -0.5490  0.5919 -0.4714
 8211SOL    HW125532   4.680   5.750   0.406  0.5060  1.2837  0.2844
 8211SOL    HW225533   4.701   5.693   0.255 -1.6399  1.8808 -0.2702
 8212SOL     OW25534   1.456   3.485   2.572  0.0377 -0.2509  0.1696
 8212SOL    HW125535   1.533   3.421   2.576 -0.3797 -0.8031 -0.4848
 8212SOL    HW225536   1.442   3.525   2.663  0.7578 -0.5409  0.4185
 8213SOL     OW25537   6.041   6.179   0.776  0.0035 -0.5345 -0.6897
 8213SOL    HW125538   6.069   6.084   0.791  1.1914 -0.0157  0.5225
 8213SOL    HW225539   5.950   6.180   0.733  0.8796 -2.2249 -2.7676
 8214SOL     OW25540   4.730   2.261   2.753  0.2398 -0.4694 -0.2912
 8214SOL    HW125541   4.790   2.257   2.673  0.5583 -3.4644 -0.0209
 8214SOL    HW225542   4.635   2.261   2.723  0.2389  2.9255 -0.6821
 8215SOL     OW25543   3.874   3.980   2.416  0.3945 -0.1013  0.1492
 8215SOL    HW125544   3.893   4.009   2.323 -1.3800  1.6993  0.2840
 8215SOL    HW225545   3.780   3.944   2.421  1.0906 -1.9547  0.8949
 8216SOL     OW25546   5.838   4.099   5.014 -0.1101  0.2629 -0.0074
 8216SOL    HW125547   5.849   4.197   5.032  0.8712  0.0363  0.6947
 8216SOL    HW225548   5.754   4.067   5.058 -0.9362  0.9599 -1.0191
 8217SOL     OW25549   3.294   4.506   0.388  0.2948  0.1342 -0.1347
 8217SOL    HW125550   3.394   4.500   0.383  0.2107 -1.4891 -0.5397
 8217SOL    HW225551   3.261   4.562   0.313  0.8417 -0.4370 -0.8231
 8218SOL     OW25552   2.735   6.068   0.156  1.2081  0.2728 -0.0810
 8218SOL    HW125553   2.696   6.011   0.084  0.2177 -0.4825  1.0089
 8218SOL    HW225554   2.820   6.110   0.124  0.6611  0.1598 -1.7509
 8219SOL     OW25555   5.160   2.843   5.186 -0.5745 -0.1791 -0.3293
 8219SOL    HW125556   5.145   2.752   5.225 -1.0309 -0.0501 -0.2001
 8219SOL    HW225557   5.072   2.886   5.166 -0.4204  0.8461  1.0553
 8220SOL     OW25558   5.614   3.120   1.172  0.0523  0.1420  0.1593
 8220SOL    HW125559   5.615   3.133   1.271  1.8324 -0.4069  0.2564
 8220SOL    HW225560   5.608   3.208   1.126 -1.4910  0.3607  0.7325
 8221SOL     OW25561   5.103   2.990   2.453  0.6453 -0.4847 -0.3886
 8221SOL    HW125562   5.139   3.054   2.521  1.2850 -0.4206 -0.7770
 8221SOL    HW225563   5.007   2.971   2.472  0.3425  0.8722 -0.4643
 8222SOL     OW25564   6.152   3.409   2.049  0.2029  0.0227  0.5822
 8222SOL    HW125565   6.149   3.337   2.119  2.3694  0.6181  1.3616
 8222SOL    HW225566   6.107   3.376   1.966 -1.2648 -1.1968  1.7869
 8223SOL     OW25567   1.405   5.164   5.657 -0.1408 -0.5661  0.2113
 8223SOL    HW125568   1.331   5.230   5.648 -1.3877 -2.0830 -1.2832
 8223SOL    HW225569   1.457   5.159   5.572  1.1883 -0.1189  0.9697
 8224SOL     OW25570   5.216   3.795   1.492 -0.4466 -0.3164 -0.2378
 8224SOL    HW125571   5.150   3.868   1.509 -2.3697 -1.7667 -1.0419
 8224SOL    HW225572   5.269   3.779   1.575 -0.5727  1.3963  0.2102
 8225SOL     OW25573   2.115   6.778   1.529  0.6521 -0.2958 -0.2091
 8225SOL    HW125574   2.148   6.842   1.598 -1.0380  0.6196 -0.2132
 8225SOL    HW225575   2.078   6.829   1.451 -1.6793 -1.1958  0.2208
 8226SOL     OW25576   5.035   0.864   0.486  0.0764  0.5267 -0.1917
 8226SOL    HW125577   4.985   0.820   0.560 -2.5138  0.8329 -1.6473
 8226SOL    HW225578   5.080   0.795   0.430 -0.3762  0.0793 -0.0044
 8227SOL     OW25579   0.751   3.376   2.205 -0.8249  0.0837 -0.2806
 8227SOL    HW125580   0.759   3.280   2.232 -0.7466 -0.2121 -1.3005
 8227SOL    HW225581   0.824   3.398   2.141 -1.0829  0.7118 -0.3598
 8228SOL     OW25582   5.655   1.019   4.389  0.0281  0.0579  0.9669
 8228SOL    HW125583   5.590   1.081   4.345 -0.4383 -1.1443 -0.1078
 8228SOL    HW225584   5.622   0.925   4.381  1.5050 -0.5023  1.1186
 8229SOL     OW25585   5.208   0.083   6.165 -0.2792  0.1074  0.4636
 8229SOL    HW125586   5.294   0.033   6.179 -1.1626 -0.8304  3.2428
 8229SOL    HW225587   5.171   0.062   6.075  1.6879 -0.5742 -0.2351
 8230SOL     OW25588   3.154   0.223   3.569  0.1146 -0.2577 -0.0516
 8230SOL    HW125589   3.131   0.256   3.661  3.2926  1.3158  0.3555
 8230SOL    HW225590   3.109   0.280   3.501 -0.0530  0.3962  0.5904
 8231SOL     OW25591   3.449   6.340   1.342  0.5430  0.9473  1.0456
 8231SOL    HW125592   3.389   6.415   1.373 -1.2261  1.5224 -3.1211
 8231SOL    HW225593   3.469   6.351   1.245  2.8618 -2.3875  0.9820
 8232SOL     OW25594   1.535   2.777   0.968  0.1304  0.4006  0.5202
 8232SOL    HW125595   1.536   2.763   1.067  0.2070  1.1562  0.6331
 8232SOL    HW225596   1.629   2.780   0.934  0.1391 -2.5115  0.0003
 8233SOL     OW25597   0.185   6.637   1.311 -0.4480 -0.1025 -0.1013
 8233SOL    HW125598   0.164   6.722   1.262 -3.7707  1.0340  2.8552
 8233SOL    HW225599   0.124   6.565   1.278 -1.8390  0.3531  1.3069
 8234SOL     OW25600   1.351   1.840   0.207 -0.4077  0.1383 -0.1321
 8234SOL    HW125601   1.379   1.803   0.119  1.7493  1.5354 -0.1025
 8234SOL    HW225602   1.419   1.906   0.239 -2.2961  1.4524  1.4662
 8235SOL     OW25603   4.933   2.334   6.677 -0.4064  0.3206 -0.4403
 8235SOL    HW125604   4.863   2.284   6.626 -0.0255 -1.4780  0.6965
 8235SOL    HW225605   4.925   2.312   6.775  2.5265 -0.9570 -0.3977
 8236SOL     OW25606   6.186   1.544   0.852  0.1331  0.2926 -0.0088
 8236SOL    HW125607   6.118   1.610   0.882  0.3678  0.7689 -0.5118
 8236SOL    HW225608   6.141   1.467   0.807 -0.1966 -0.2667  1.2395
 8237SOL     OW25609   1.935   6.399   6.036 -0.2087  0.1278  0.0281
 8237SOL    HW125610   1.936   6.455   5.953 -0.0156 -0.2196 -0.2078
 8237SOL    HW225611   1.842   6.366   6.053 -0.2130  0.0448 -0.1578
 8238SOL     OW25612   5.999   2.399   4.983 -0.5458  0.3385 -0.2260
 8238SOL    HW125613   5.960   2.428   4.895  1.5984  0.2069 -1.2741
 8238SOL    HW225614   5.955   2.313   5.011 -1.2251  0.3522 -1.1782
 8239SOL     OW25615   4.323   1.500   7.002  0.5313 -0.4303  0.2259
 8239SOL    HW125616   4.359   1.466   6.916 -0.8587  0.0392 -0.5651
 8239SOL    HW225617   4.380   1.576   7.034  0.0133  0.6196 -1.2421
 8240SOL     OW25618   2.801   3.854   1.450 -0.2381  0.0688 -0.3869
 8240SOL    HW125619   2.850   3.922   1.396 -0.5571  0.5609 -0.0668
 8240SOL    HW225620   2.739   3.802   1.391  1.4192 -1.2846 -0.9967
 8241SOL     OW25621   4.239   5.637   0.757 -0.7168  0.2361 -0.3390
 8241SOL    HW125622   4.152   5.588   0.762 -0.8168  0.2930 -1.2908
 8241SOL    HW225623   4.232   5.712   0.692 -0.3880  1.1792  0.6860
 8242SOL     OW25624   1.688   3.192   3.645 -0.3566  0.5025  0.2651
 8242SOL    HW125625   1.591   3.216   3.650 -0.1032  1.3951  1.4963
 8242SOL    HW225626   1.698   3.100   3.608 -1.7033  0.2280  0.5419
 8243SOL     OW25627   1.186   2.290   3.819  0.2015 -1.1795 -0.1637
 8243SOL    HW125628   1.167   2.384   3.850  1.6518 -0.9632  0.1384
 8243SOL    HW225629   1.099   2.242   3.803 -0.5696  0.1498 -0.1571
 8244SOL     OW25630   2.902   1.026   5.784 -0.3356 -0.0468 -0.2471
 8244SOL    HW125631   2.966   1.053   5.856  0.9749  0.0882 -1.4135
 8244SOL    HW225632   2.922   1.078   5.700 -2.5139  0.5883 -0.4295
 8245SOL     OW25633   4.734   4.493   7.003 -0.9328  0.3672  0.3286
 8245SOL    HW125634   4.709   4.409   6.954 -0.1938  1.4902 -2.1536
 8245SOL    HW225635   4.653   4.549   7.016 -1.5390 -0.9082  2.5241
 8246SOL     OW25636   4.523   2.871   5.653 -0.0923  0.3102  0.2393
 8246SOL    HW125637   4.563   2.951   5.608  0.0135  0.0278 -0.1716
 8246SOL    HW225638   4.425   2.887   5.669 -0.3807 -0.0088 -1.0814
 8247SOL     OW25639   2.010   5.652   0.419  0.0683 -0.3918 -0.0003
 8247SOL    HW125640   2.103   5.623   0.396  0.1838 -0.4549  0.5451
 8247SOL    HW225641   1.981   5.608   0.504  0.7178  2.0288  1.5780
 8248SOL     OW25642   6.109   2.836   1.771 -0.4242 -0.1339 -0.1989
 8248SOL    HW125643   6.019   2.823   1.813  0.2060 -1.0164  0.9422
 8248SOL    HW225644   6.108   2.800   1.678 -1.0253 -0.9166  0.0969
 8249SOL     OW25645   5.961   0.584   2.693 -0.5117 -0.0016 -0.1340
 8249SOL    HW125646   5.875   0.543   2.661 -0.4955 -0.0466 -0.1198
 8249SOL    HW225647   6.037   0.543   2.643 -0.5616  0.6196 -0.7312
 8250SOL     OW25648   1.394   3.939   1.088  0.3248 -0.4477 -0.0986
 8250SOL    HW125649   1.338   4.017   1.059  1.4107 -0.2411 -1.7639
 8250SOL    HW225650   1.342   3.884   1.153 -2.0797 -0.5700 -1.9581
 8251SOL     OW25651   5.855   0.812   2.625  0.4001  0.2038  0.0801
 8251SOL    HW125652   5.895   0.731   2.668 -0.3584 -0.2094  0.0218
 8251SOL    HW225653   5.911   0.837   2.545  0.8157 -0.0754  0.2782
 8252SOL     OW25654   1.241   3.182   5.143  0.5638 -0.0047  0.1379
 8252SOL    HW125655   1.293   3.123   5.204  0.6067 -1.3353 -1.1219
 8252SOL    HW225656   1.302   3.218   5.072  0.4011  1.0721  0.5139
 8253SOL     OW25657   0.204   2.279   6.200 -0.0798 -0.3093 -0.2970
 8253SOL    HW125658   0.118   2.300   6.245  0.5972 -0.7077  1.2253
 8253SOL    HW225659   0.195   2.196   6.146 -1.1631  0.6834 -1.7365
 8254SOL     OW25660   6.383   5.029   1.763  0.1251  0.0204 -0.0627
 8254SOL    HW125661   6.312   5.098   1.755  0.9276  0.9081  0.2713
 8254SOL    HW225662   6.341   4.938   1.770 -0.9184  0.3587 -1.4749
 8255SOL     OW25663   4.462   4.888   2.069 -0.1942  0.9725 -0.8517
 8255SOL    HW125664   4.402   4.815   2.038  1.5689 -0.6148 -0.7376
 8255SOL    HW225665   4.439   4.913   2.163  0.5904 -1.1027 -0.0490
 8256SOL     OW25666   4.181   1.910   1.566 -0.2193  0.4683  0.0942
 8256SOL    HW125667   4.231   1.920   1.652 -0.6720 -0.0003  0.4163
 8256SOL    HW225668   4.233   1.954   1.492  1.3028 -1.0958  0.1726
 8257SOL     OW25669   6.306   3.008   4.262 -0.0382 -0.0205 -0.3906
 8257SOL    HW125670   6.310   3.048   4.353  1.6641 -2.1924  0.5917
 8257SOL    HW225671   6.260   3.071   4.199 -0.5940  1.8516  1.7693
 8258SOL     OW25672   6.092   2.345   6.657 -0.4542  0.2356 -0.4967
 8258SOL    HW125673   6.006   2.324   6.702 -2.1973  3.7846 -1.7816
 8258SOL    HW225674   6.086   2.319   6.560 -0.0947  0.4629 -0.5832
 8259SOL     OW25675   4.506   5.473   2.035 -0.1007  0.3862  0.2881
 8259SOL    HW125676   4.510   5.536   1.958 -0.9832 -1.7359 -1.6117
 8259SOL    HW225677   4.599   5.448   2.063  0.2326  0.2437 -0.9186
 8260SOL     OW25678   4.850   6.462   6.141 -0.4866  0.2597 -0.4409
 8260SOL    HW125679   4.891   6.431   6.226 -0.1816 -1.6174 -1.2287
 8260SOL    HW225680   4.750   6.453   6.146 -0.5512  1.2152  0.1055
 8261SOL     OW25681   3.022   2.182   3.636 -0.1012  0.2196 -0.3952
 8261SOL    HW125682   3.019   2.206   3.539  1.2149 -2.4837 -1.2123
 8261SOL    HW225683   3.114   2.149   3.660 -0.5219  0.3710  1.6770
 8262SOL     OW25684   5.847   3.666   1.708  0.3652 -0.0349 -0.2134
 8262SOL    HW125685   5.893   3.636   1.624 -0.1638 -0.7789 -0.2470
 8262SOL    HW225686   5.751   3.637   1.706  0.5546 -0.8572  1.0287
 8263SOL     OW25687   0.229   3.172   6.851  0.0942 -0.1565  0.2330
 8263SOL    HW125688   0.195   3.102   6.789  1.2721 -1.2274  0.7608
 8263SOL    HW225689   0.328   3.164   6.860  0.2445  1.5096  0.4079
 8264SOL     OW25690   1.333   6.220   0.328  0.2429 -0.5031 -0.3475
 8264SOL    HW125691   1.370   6.191   0.416 -1.8010  0.8923  1.0632
 8264SOL    HW225692   1.234   6.212   0.329 -0.2103  3.2526 -1.0064
 8265SOL     OW25693   0.765   1.698   3.500  0.3477  0.4412 -0.4567
 8265SOL    HW125694   0.862   1.682   3.482  0.2669  0.5198 -0.9721
 8265SOL    HW225695   0.715   1.612   3.491  0.2580  0.5435 -0.9331
 8266SOL     OW25696   3.419   0.817   4.031  0.8235  0.0666  0.6092
 8266SOL    HW125697   3.487   0.790   4.099  1.7901  1.5455  0.2839
 8266SOL    HW225698   3.465   0.861   3.954 -0.4215  0.0968 -0.1433
 8267SOL     OW25699   5.037   2.642   1.622 -0.3028 -0.4174 -1.4091
 8267SOL    HW125700   4.996   2.594   1.700  0.8266 -2.6420 -2.1177
 8267SOL    HW225701   5.112   2.700   1.655 -0.6667 -0.3417 -0.6943
 8268SOL     OW25702   6.149   4.902   6.712  0.4677  0.1934 -0.2189
 8268SOL    HW125703   6.067   4.936   6.759  1.1966  2.5963 -0.5422
 8268SOL    HW225704   6.124   4.871   6.621 -0.4267 -1.4082  0.5272
 8269SOL     OW25705   5.974   5.121   1.572 -0.1284  0.1434  0.2150
 8269SOL    HW125706   6.003   5.123   1.477 -0.1930  0.4914  0.1988
 8269SOL    HW225707   5.883   5.163   1.580  0.6878  1.9380  0.6937
 8270SOL     OW25708   3.598   5.008   2.783 -0.4753  0.3412  0.2256
 8270SOL    HW125709   3.514   4.993   2.731 -0.7966  1.0827  0.5200
 8270SOL    HW225710   3.620   5.106   2.782  0.9739  0.0509 -0.7686
 8271SOL     OW25711   6.560   2.526   1.269 -0.4305  0.4729 -0.2163
 8271SOL    HW125712   6.650   2.534   1.225  0.1742 -0.4866  0.7937
 8271SOL    HW225713   6.555   2.439   1.318 -2.0290  0.3815 -0.4922
 8272SOL     OW25714   3.273   2.052   4.057  0.2693 -0.3226 -0.1398
 8272SOL    HW125715   3.332   2.084   3.983  0.7809 -0.6839  0.1046
 8272SOL    HW225716   3.263   1.953   4.051  0.4154 -0.3698  0.3459
 8273SOL     OW25717   2.336   5.176   3.259 -1.1714 -0.1495  0.1576
 8273SOL    HW125718   2.346   5.273   3.239 -0.9989  0.1366  1.5925
 8273SOL    HW225719   2.239   5.152   3.258 -1.3014  0.3188  1.0747
 8274SOL     OW25720   4.883   3.272   3.832 -0.0030  0.3357 -0.5445
 8274SOL    HW125721   4.882   3.332   3.911  1.1486 -0.1124 -0.1583
 8274SOL    HW225722   4.884   3.327   3.748 -0.3661  0.8265 -0.2273
 8275SOL     OW25723   6.320   1.419   6.125  0.1649 -0.5488 -0.0542
 8275SOL    HW125724   6.348   1.515   6.133 -0.6287 -0.2483 -0.7439
 8275SOL    HW225725   6.282   1.403   6.034  1.2288 -1.7796 -0.3127
 8276SOL     OW25726   6.792   6.835   3.716  0.0573 -0.1206  0.0520
 8276SOL    HW125727   6.708   6.889   3.715 -0.2320 -0.5687 -0.0184
 8276SOL    HW225728   6.853   6.868   3.643 -0.0904  0.1489  0.0483
 8277SOL     OW25729   0.830   2.803   0.661 -0.0488 -0.4744 -0.0990
 8277SOL    HW125730   0.846   2.892   0.704 -2.0796 -0.3827  0.5574
 8277SOL    HW225731   0.875   2.732   0.714  0.6014  0.0340  0.0429
 8278SOL     OW25732   6.143   4.228   6.884  0.1548  0.2975  0.7473
 8278SOL    HW125733   6.211   4.201   6.952  2.0997  0.6139 -0.9579
 8278SOL    HW225734   6.148   4.165   6.806 -1.1149  0.6935  0.3268
 8279SOL     OW25735   1.950   0.175   3.178 -0.5585 -0.0573  0.4321
 8279SOL    HW125736   1.851   0.168   3.196 -0.5986 -0.4167  0.0825
 8279SOL    HW225737   1.983   0.263   3.210 -1.0742  0.2356  0.1713
 8280SOL     OW25738   4.738   1.929   6.748  0.0370  0.7568 -0.1115
 8280SOL    HW125739   4.716   1.847   6.802  0.5460  1.3600  1.0592
 8280SOL    HW225740   4.831   1.959   6.769 -0.4876  2.2191  0.2689
 8281SOL     OW25741   6.105   4.911   0.920 -0.3100 -0.0416  0.7710
 8281SOL    HW125742   6.028   4.958   0.877 -1.5239 -1.6758  1.0471
 8281SOL    HW225743   6.082   4.814   0.931  1.5719 -0.4415  1.4124
 8282SOL     OW25744   6.448   3.175   5.621  0.2488  0.5363  0.0200
 8282SOL    HW125745   6.527   3.224   5.655  1.0015  1.4400 -2.7606
 8282SOL    HW225746   6.365   3.230   5.634  0.5792  1.0523 -0.0679
 8283SOL     OW25747   3.572   1.830   4.888  0.1684 -0.2136 -0.3718
 8283SOL    HW125748   3.474   1.816   4.905  0.7020 -1.1398  2.4061
 8283SOL    HW225749   3.607   1.898   4.952  1.6876 -1.1943 -0.1101
 8284SOL     OW25750   0.859   5.962   0.992 -0.0366 -0.1685 -0.8694
 8284SOL    HW125751   0.896   5.988   1.081  0.5764  0.2019 -1.2184
 8284SOL    HW225752   0.761   5.979   0.990  0.3104  2.1946 -1.0604
 8285SOL     OW25753   3.036   2.410   5.406  0.4229 -0.7610  0.3544
 8285SOL    HW125754   3.079   2.500   5.413  2.1396 -1.5573  0.5845
 8285SOL    HW225755   3.061   2.369   5.318 -1.9000 -0.2893 -0.5906
 8286SOL     OW25756   0.341   3.089   0.835 -0.1120  0.6778 -0.4094
 8286SOL    HW125757   0.256   3.113   0.787  0.6081  1.1219 -1.5053
 8286SOL    HW225758   0.419   3.116   0.779  0.7617  0.4117  0.6527
 8287SOL     OW25759   2.284   6.544   6.078 -0.6232  0.4280  0.1356
 8287SOL    HW125760   2.338   6.522   6.160  0.2182 -0.2760 -0.5896
 8287SOL    HW225761   2.340   6.598   6.015 -1.3668  1.2290  0.1366
 8288SOL     OW25762   2.383   2.451   4.397 -0.2003 -0.1113  0.1056
 8288SOL    HW125763   2.340   2.518   4.337 -0.8829 -0.9173 -0.3210
 8288SOL    HW225764   2.393   2.490   4.488  0.3597  0.9351 -0.3799
 8289SOL     OW25765   0.130   6.355   6.866  0.0873 -0.2770  0.0823
 8289SOL    HW125766   0.097   6.296   6.792  0.5420  0.2027 -0.5185
 8289SOL    HW225767   0.201   6.307   6.918 -1.4472 -1.2746  1.3194
 8290SOL     OW25768   1.031   1.714   6.860 -0.1558  0.5572  0.0264
 8290SOL    HW125769   0.939   1.749   6.847 -0.2919  0.3844  0.4802
 8290SOL    HW225770   1.049   1.641   6.794 -0.9464 -0.5368  0.9852
 8291SOL     OW25771   1.475   6.975   3.899  0.1101 -0.1405 -0.1239
 8291SOL    HW125772   1.448   6.885   3.933  0.6641 -0.5459 -0.7403
 8291SOL    HW225773   1.497   7.034   3.977 -3.7076  0.6431  0.5507
 8292SOL     OW25774   3.742   0.530   0.359 -0.7167 -0.5029 -0.5245
 8292SOL    HW125775   3.663   0.481   0.320 -0.6950  0.5196 -1.9504
 8292SOL    HW225776   3.728   0.628   0.351 -0.4491 -0.2358  1.6725
 8293SOL     OW25777   5.608   6.303   4.527 -0.1188  0.1452  0.4279
 8293SOL    HW125778   5.669   6.335   4.455 -1.0818  0.5562 -0.2259
 8293SOL    HW225779   5.662   6.277   4.607  0.9203  0.2792 -0.2090
 8294SOL     OW25780   5.527   4.727   0.176 -0.2412  0.3003 -0.7601
 8294SOL    HW125781   5.539   4.824   0.199 -0.7285  0.4013 -0.9249
 8294SOL    HW225782   5.474   4.682   0.248  0.8486 -0.0801 -0.1801
 8295SOL     OW25783   3.646   3.218   6.438 -0.2023  0.4721  0.5023
 8295SOL    HW125784   3.691   3.307   6.435 -1.4158  1.0791 -0.4011
 8295SOL    HW225785   3.560   3.226   6.490 -0.3356 -0.1660  0.3904
 8296SOL     OW25786   2.145   3.292   4.503 -0.3594  0.3520  0.0321
 8296SOL    HW125787   2.163   3.382   4.542 -0.6346  0.3907  0.0705
 8296SOL    HW225788   2.189   3.286   4.413 -0.1691  0.4501  0.1181
 8297SOL     OW25789   0.975   3.228   3.316  0.2790  0.1340 -0.3319
 8297SOL    HW125790   1.002   3.142   3.360 -2.4921 -0.8861 -0.3923
 8297SOL    HW225791   0.907   3.274   3.373  0.4858  1.4496 -1.1143
 8298SOL     OW25792   4.038   2.162   2.415  0.1967 -0.0646  0.3394
 8298SOL    HW125793   3.975   2.100   2.462  0.3260  0.0668  0.6875
 8298SOL    HW225794   4.060   2.125   2.324  1.5567 -1.3482  1.1513
 8299SOL     OW25795   4.924   1.407   0.951  1.0158 -0.5268 -0.1829
 8299SOL    HW125796   4.851   1.447   0.895  2.3544  0.2466 -1.4359
 8299SOL    HW225797   4.948   1.317   0.916 -0.4105 -1.5363  1.2451
 8300SOL     OW25798   6.875   4.999   3.294  0.1331  0.0843  0.5305
 8300SOL    HW125799   6.827   5.080   3.259  0.8425  0.4142  0.2935
 8300SOL    HW225800   6.815   4.949   3.356 -0.5185  0.4761  0.2291
 8301SOL     OW25801   3.334   0.810   5.890  0.3757  0.3968  0.0092
 8301SOL    HW125802   3.357   0.771   5.801  0.9350 -0.0169  0.3268
 8301SOL    HW225803   3.395   0.772   5.960 -0.5234  0.1401  0.6901
 8302SOL     OW25804   6.443   4.870   4.155 -0.8258 -0.1689  0.2327
 8302SOL    HW125805   6.476   4.799   4.093  0.0496 -0.2623  0.7784
 8302SOL    HW225806   6.416   4.951   4.103  2.2279  0.6984 -0.1927
 8303SOL     OW25807   0.265   6.857   0.246  0.6098 -0.3558  0.3864
 8303SOL    HW125808   0.210   6.934   0.277  0.9278  0.0834 -0.1238
 8303SOL    HW225809   0.204   6.780   0.225  0.2283 -0.0180  0.2418
 8304SOL     OW25810   6.431   3.435   6.831  0.6020 -0.1288  0.2104
 8304SOL    HW125811   6.396   3.526   6.811  2.7101  0.9586  1.0872
 8304SOL    HW225812   6.510   3.416   6.772  0.1854 -1.4097  0.0328
 8305SOL     OW25813   3.036   5.884   3.683 -0.4117  0.2183 -0.1560
 8305SOL    HW125814   3.055   5.870   3.780 -0.8464  1.4545  0.1290
 8305SOL    HW225815   3.103   5.948   3.645  1.8145 -2.7138 -1.5170
 8306SOL     OW25816   1.070   1.256   2.075 -0.2935 -0.1623  0.5909
 8306SOL    HW125817   1.030   1.339   2.037 -1.6823 -0.4940  1.2543
 8306SOL    HW225818   1.098   1.195   2.001 -1.1952  0.0114  0.0882
 8307SOL     OW25819   4.058   6.118   0.219 -0.1998  0.0454  0.1338
 8307SOL    HW125820   3.972   6.117   0.167 -0.3119  0.0888  0.3177
 8307SOL    HW225821   4.111   6.199   0.193  0.7233 -1.0308 -1.4987
 8308SOL     OW25822   3.110   0.077   2.200  0.3056  0.4850  0.3984
 8308SOL    HW125823   3.172   0.110   2.129  1.6645 -0.1550  1.2386
 8308SOL    HW225824   3.084  -0.017   2.180 -0.2264  0.6853  0.1535
 8309SOL     OW25825   5.150   6.745   2.419 -0.0268 -1.1322  0.4790
 8309SOL    HW125826   5.116   6.698   2.501 -0.7967 -1.4172  0.0145
 8309SOL    HW225827   5.073   6.763   2.357  0.6596 -1.7770 -0.6027
 8310SOL     OW25828   0.027   5.861   0.045  0.1300  0.4653  0.4946
 8310SOL    HW125829   0.123   5.863   0.018 -0.1591  1.0831 -0.5475
 8310SOL    HW225830  -0.008   5.954   0.052 -0.2417  0.2672  1.4669
 8311SOL     OW25831   5.334   2.455   5.473 -0.2054 -0.1996  0.1881
 8311SOL    HW125832   5.253   2.502   5.437 -0.9195 -1.2240  0.4193
 8311SOL    HW225833   5.416   2.504   5.443 -0.9239  1.7570  1.2209
 8312SOL     OW25834   5.166   5.576   2.562 -0.0022 -0.0285  0.2483
 8312SOL    HW125835   5.162   5.556   2.464  0.6157 -1.5195  0.4940
 8312SOL    HW225836   5.219   5.505   2.608 -1.6368 -0.2780  1.8826
 8313SOL     OW25837   4.006   1.852   3.700  0.2447 -0.1005  0.4586
 8313SOL    HW125838   3.949   1.801   3.636  1.2445  1.0214 -1.3842
 8313SOL    HW225839   3.949   1.917   3.750 -0.3412 -0.0129 -0.3037
 8314SOL     OW25840   6.360   5.858   3.066  0.0319 -0.5024 -0.2115
 8314SOL    HW125841   6.414   5.777   3.088  2.2574  1.1618  0.8836
 8314SOL    HW225842   6.393   5.899   2.981  1.0057  0.8459  0.7604
 8315SOL     OW25843   6.104   4.443   1.151 -0.4012 -0.3903  0.1081
 8315SOL    HW125844   6.190   4.492   1.162 -1.0719  0.3601  3.1306
 8315SOL    HW225845   6.117   4.363   1.093  1.8021  0.8118 -1.1571
 8316SOL     OW25846   3.173   4.764   0.931 -0.1028  0.3796  0.2342
 8316SOL    HW125847   3.211   4.725   1.015 -0.7271  1.2519  0.9432
 8316SOL    HW225848   3.208   4.857   0.920  0.1070  0.2079 -0.5673
 8317SOL     OW25849   3.110   5.650   6.942 -0.0913  0.1085  0.1714
 8317SOL    HW125850   3.167   5.588   6.996  0.0518 -0.3991 -0.5436
 8317SOL    HW225851   3.039   5.598   6.896  0.7023  0.2793 -1.3321
 8318SOL     OW25852   5.145   1.488   6.918 -0.2645 -0.1339 -0.1190
 8318SOL    HW125853   5.151   1.412   6.853 -3.0808  0.6236 -1.4191
 8318SOL    HW225854   5.183   1.459   7.006  3.4857 -1.2772 -1.8952
 8319SOL     OW25855   0.486   0.133   5.348  0.0646  0.3196  0.3515
 8319SOL    HW125856   0.522   0.187   5.425 -0.3637 -0.0859  0.8400
 8319SOL    HW225857   0.560   0.081   5.307  0.7557  2.1584 -0.8927
 8320SOL     OW25858   0.475   0.034   6.896 -0.1262 -0.2981  0.2657
 8320SOL    HW125859   0.444  -0.024   6.971  2.5747 -1.7689  0.3599
 8320SOL    HW225860   0.522   0.114   6.934 -0.0728 -0.2733  0.1472
 8321SOL     OW25861   5.161   0.454   2.996 -0.1773 -0.1189 -0.1433
 8321SOL    HW125862   5.076   0.478   2.950 -0.3659  1.1357  0.8183
 8321SOL    HW225863   5.225   0.532   2.990 -0.0851 -0.0590  1.4021
 8322SOL     OW25864   3.351   0.637   1.572 -0.4797  0.0203  0.1326
 8322SOL    HW125865   3.298   0.553   1.572  0.0496 -0.3410 -0.9419
 8322SOL    HW225866   3.426   0.629   1.506 -1.0666  1.7277 -0.8219
 8323SOL     OW25867   6.961   0.657   2.525 -0.0593  0.3417  0.1017
 8323SOL    HW125868   6.940   0.669   2.622 -0.3396  0.7287 -0.0035
 8323SOL    HW225869   6.900   0.588   2.486  0.8987 -0.7340  0.4853
 8324SOL     OW25870   0.092   0.051   2.413 -0.1767 -0.4768 -0.4024
 8324SOL    HW125871   0.149   0.126   2.382 -0.3618 -0.4101 -0.5800
 8324SOL    HW225872  -0.004   0.079   2.413 -0.2752 -0.8065 -0.7519
 8325SOL     OW25873   2.928   3.959   4.923 -0.4526  0.0662  0.1425
 8325SOL    HW125874   2.829   3.965   4.910 -0.3583  0.4068 -0.4220
 8325SOL    HW225875   2.973   3.945   4.835 -0.1412 -2.2055  0.6054
 8326SOL     OW25876   3.163   3.935   5.114  0.3428  0.1199  0.3405
 8326SOL    HW125877   3.070   3.929   5.078  0.6626  0.2019 -0.5206
 8326SOL    HW225878   3.207   3.846   5.108  0.0803 -0.1018  1.4495
 8327SOL     OW25879   5.876   2.097   6.489  0.0077  0.5126 -0.5142
 8327SOL    HW125880   5.871   2.024   6.557 -0.1909 -1.4676 -2.5328
 8327SOL    HW225881   5.955   2.081   6.429  0.3062  2.3200 -0.6591
 8328SOL     OW25882   0.158   2.252   2.569 -0.5663 -0.1533 -0.3933
 8328SOL    HW125883   0.123   2.260   2.663 -0.1878 -1.6310 -0.0848
 8328SOL    HW225884   0.082   2.256   2.505 -0.8879  0.3660  0.0105
 8329SOL     OW25885   0.329   3.746   6.273  0.2022  0.1117 -0.1560
 8329SOL    HW125886   0.379   3.785   6.195  0.4977 -1.8268 -1.0030
 8329SOL    HW225887   0.348   3.648   6.278 -2.4329 -0.4226  0.3618
 8330SOL     OW25888   2.750   1.073   0.084  0.4354  0.2586  0.5389
 8330SOL    HW125889   2.756   0.978   0.113 -0.2625  0.4449  1.3203
 8330SOL    HW225890   2.700   1.079  -0.003 -0.6738  0.0272  1.1465
 8331SOL     OW25891   1.957   0.326   1.146  0.2437 -0.3495 -0.1841
 8331SOL    HW125892   1.996   0.267   1.075 -0.5359 -0.9105 -0.1643
 8331SOL    HW225893   1.984   0.293   1.236  1.9216  0.8514 -0.2095
 8332SOL     OW25894   4.402   5.947   1.722  0.1601  0.2253 -0.3524
 8332SOL    HW125895   4.380   5.965   1.818 -1.8530  0.6780 -0.8492
 8332SOL    HW225896   4.355   5.864   1.692  1.6955 -0.5561 -0.6579
 8333SOL     OW25897   1.357   4.995   0.030  0.3756 -0.0250 -0.3972
 8333SOL    HW125898   1.404   4.979   0.116 -0.4985 -0.0185  0.0919
 8333SOL    HW225899   1.291   5.069   0.041 -0.4020 -0.6375 -0.8139
 8334SOL     OW25900   4.838   6.506   4.160  0.1076 -1.3090  0.8749
 8334SOL    HW125901   4.778   6.578   4.195  1.9266 -0.1818  1.8053
 8334SOL    HW225902   4.852   6.519   4.062 -0.7912 -1.3360  0.7314
 8335SOL     OW25903   5.276   4.870   4.351 -0.2922 -0.3069 -0.4443
 8335SOL    HW125904   5.352   4.884   4.414  0.3652  0.9971 -1.4765
 8335SOL    HW225905   5.190   4.867   4.403  0.3554 -0.6628  0.6306
 8336SOL     OW25906   6.753   1.343   0.818 -0.0873  0.3545 -0.0653
 8336SOL    HW125907   6.785   1.301   0.903 -1.3001 -1.6867 -0.5488
 8336SOL    HW225908   6.671   1.396   0.835  1.0746  2.0608  0.4333
 8337SOL     OW25909   4.896   6.411   3.729 -0.4495  0.0356  0.1759
 8337SOL    HW125910   4.913   6.323   3.773 -1.0195 -0.7262 -1.0645
 8337SOL    HW225911   4.981   6.445   3.689 -0.5495 -0.8250 -0.8301
 8338SOL     OW25912   5.835   4.500   0.855 -0.1210 -0.5297  0.1250
 8338SOL    HW125913   5.829   4.420   0.796 -0.4291  0.0517 -0.6481
 8338SOL    HW225914   5.747   4.547   0.858 -0.8628 -1.8715  3.0036
 8339SOL     OW25915   5.153   6.910   4.572 -0.1110 -0.3410  0.5808
 8339SOL    HW125916   5.055   6.894   4.572 -0.1182 -0.4936 -1.0698
 8339SOL    HW225917   5.184   6.930   4.479  1.0860  1.9057  1.3968
 8340SOL     OW25918   5.638   3.897   1.848 -0.1781 -0.2262 -0.3664
 8340SOL    HW125919   5.649   3.937   1.756  0.5145 -2.0018 -1.0947
 8340SOL    HW225920   5.691   3.813   1.854  1.8397  1.0671  2.5039
 8341SOL     OW25921   2.760   4.807   0.604  0.5787  0.8862  0.2272
 8341SOL    HW125922   2.806   4.801   0.515 -0.7218  1.3932 -0.5177
 8341SOL    HW225923   2.795   4.886   0.655  1.5163  0.4405  0.2912
 8342SOL     OW25924   5.670   1.219   0.301 -0.0917 -0.6810 -0.2033
 8342SOL    HW125925   5.722   1.143   0.262  0.3313 -1.0140  0.9844
 8342SOL    HW225926   5.589   1.235   0.244 -0.1927 -2.0118 -0.4837
 8343SOL     OW25927   6.774   4.985   4.799 -0.1575  0.2973  0.6609
 8343SOL    HW125928   6.710   4.933   4.856 -2.1646  0.1132 -1.5709
 8343SOL    HW225929   6.849   4.926   4.770 -1.0480 -0.6728  0.2335
 8344SOL     OW25930   2.746   6.606   4.868  0.0652 -0.5024 -0.5730
 8344SOL    HW125931   2.653   6.582   4.896 -0.3114 -0.0323 -1.3842
 8344SOL    HW225932   2.768   6.699   4.899  0.2286 -0.5680 -0.4865
 8345SOL     OW25933   5.008   1.089   2.597  0.0333  0.1512 -0.3238
 8345SOL    HW125934   5.008   1.060   2.502  1.4853  1.8049 -0.8921
 8345SOL    HW225935   5.103   1.097   2.629 -0.4347 -0.6571  1.3632
 8346SOL     OW25936   4.476   3.493   0.406  0.4160 -0.0742 -0.3791
 8346SOL    HW125937   4.465   3.434   0.485 -2.5033  0.9176  0.0854
 8346SOL    HW225938   4.518   3.579   0.434 -0.5337  0.2411  0.1263
 8347SOL     OW25939   4.720   4.895   5.423 -0.0645 -0.0206  0.1998
 8347SOL    HW125940   4.744   4.934   5.512 -0.0652 -1.0230  0.6486
 8347SOL    HW225941   4.632   4.848   5.430  0.0169 -0.2490 -0.2823
 8348SOL     OW25942   1.303   5.953   6.450  0.1518 -0.5050 -0.0569
 8348SOL    HW125943   1.367   5.881   6.425 -1.2799 -1.8985  0.1609
 8348SOL    HW225944   1.328   6.038   6.403  1.5972 -1.2533 -0.6822
 8349SOL     OW25945   0.543   4.955   3.033  0.2562  0.7188 -0.5810
 8349SOL    HW125946   0.517   4.964   2.937  0.6114 -0.1429 -0.7688
 8349SOL    HW225947   0.640   4.932   3.039 -0.1012 -0.8160 -0.1061
 8350SOL     OW25948   0.377   6.694   4.701 -0.3190  0.2249 -0.2189
 8350SOL    HW125949   0.286   6.705   4.662  0.0660  1.2891 -0.8452
 8350SOL    HW225950   0.406   6.780   4.743  1.0612  0.3940 -1.4817
 8351SOL     OW25951   1.283   5.355   4.437  0.0526 -0.4569  0.2709
 8351SOL    HW125952   1.228   5.325   4.515  0.1735  2.3582  1.5758
 8351SOL    HW225953   1.358   5.414   4.470  0.6692  0.0706 -1.9084
 8352SOL     OW25954   5.638   5.852   2.558  0.3130  0.2767 -0.0712
 8352SOL    HW125955   5.702   5.818   2.489  0.5728 -2.5966  1.4276
 8352SOL    HW225956   5.686   5.911   2.622  0.7285  0.6397 -0.7068
 8353SOL     OW25957   2.847   3.523   1.360 -0.2183  0.3249 -0.2386
 8353SOL    HW125958   2.846   3.501   1.458  0.9070 -1.3010 -0.5535
 8353SOL    HW225959   2.774   3.473   1.313  1.0690 -1.2611 -0.6415
 8354SOL     OW25960   2.550   6.758   1.502  0.5970 -0.0535  0.0912
 8354SOL    HW125961   2.530   6.815   1.422 -0.3452  0.3890  0.6265
 8354SOL    HW225962   2.472   6.699   1.521  1.4543 -1.3264 -0.2790
 8355SOL     OW25963   3.279   2.182   1.882 -0.0741  0.1893  0.0334
 8355SOL    HW125964   3.375   2.155   1.885 -0.5154 -2.1807 -2.3640
 8355SOL    HW225965   3.268   2.262   1.823  0.3649  0.0687 -0.2128
 8356SOL     OW25966   3.022   5.089   6.366 -0.2192 -0.1721 -0.3731
 8356SOL    HW125967   3.060   4.997   6.377  0.5350  0.2435  0.5732
 8356SOL    HW225968   3.045   5.123   6.275  0.1920 -0.6041 -0.4365
 8357SOL     OW25969   3.340   6.050   1.316 -0.3634  0.3927  0.0440
 8357SOL    HW125970   3.285   6.012   1.391 -2.6396 -0.4564 -1.9380
 8357SOL    HW225971   3.358   6.147   1.333 -1.4645  0.3918  1.3227
 8358SOL     OW25972   2.653   0.745   4.751  0.2290  0.3929  0.8283
 8358SOL    HW125973   2.647   0.664   4.808  0.9980 -0.9115 -0.8497
 8358SOL    HW225974   2.581   0.743   4.682  0.9687  0.5068  0.0362
 8359SOL     OW25975   4.481   6.429   4.996  0.4779  0.0759  0.1295
 8359SOL    HW125976   4.488   6.484   5.079  0.0245  0.5263 -0.1232
 8359SOL    HW225977   4.385   6.426   4.966  0.5989 -0.2971 -0.2364
 8360SOL     OW25978   4.145   6.390   2.994  0.2505 -0.3963  0.2505
 8360SOL    HW125979   4.206   6.365   3.069  0.0771  0.2056  0.5984
 8360SOL    HW225980   4.147   6.489   2.981 -0.0285 -0.4579 -0.2773
 8361SOL     OW25981   1.453   6.629   4.781 -0.2395 -0.0017 -0.0308
 8361SOL    HW125982   1.533   6.631   4.721 -1.0120  1.1767 -1.0755
 8361SOL    HW225983   1.480   6.655   4.874  0.7122 -0.4181 -0.1754
 8362SOL     OW25984   4.220   2.552   1.184 -0.4190  0.0323 -0.2725
 8362SOL    HW125985   4.156   2.485   1.219 -0.9595  1.0908  0.8389
 8362SOL    HW225986   4.282   2.581   1.257 -0.4014  0.9553 -0.6361
 8363SOL     OW25987   6.297   3.965   6.272  0.0082  0.1402 -0.5365
 8363SOL    HW125988   6.384   3.973   6.320 -0.6866  2.7760  0.4412
 8363SOL    HW225989   6.309   3.991   6.176  0.2314  0.9947 -0.2836
 8364SOL     OW25990   0.145   4.761   4.371  0.4776  0.0658  0.6830
 8364SOL    HW125991   0.206   4.683   4.362 -0.5753 -0.5686 -1.8154
 8364SOL    HW225992   0.199   4.845   4.381  1.7718 -0.5584 -0.7115
 8365SOL     OW25993   0.815   4.409   6.257 -0.2245  0.1996 -0.1301
 8365SOL    HW125994   0.860   4.464   6.327  0.8309 -1.6850  0.7708
 8365SOL    HW225995   0.742   4.356   6.298 -0.3729 -0.0448 -0.6960
 8366SOL     OW25996   4.621   0.104   6.973 -0.6964  0.4818 -0.0409
 8366SOL    HW125997   4.596   0.179   7.034 -1.8969 -0.0010  0.0891
 8366SOL    HW225998   4.704   0.060   7.007 -0.5593  1.1060  0.4531
 8367SOL     OW25999   6.792   5.489   3.719  0.1081  0.1506 -0.3991
 8367SOL    HW126000   6.709   5.534   3.752  0.2225  0.8653 -1.0532
 8367SOL    HW226001   6.768   5.428   3.643  0.4021  1.7996 -1.8754
 8368SOL     OW26002   2.307   5.634   0.522 -0.2669 -0.4501  0.1778
 8368SOL    HW126003   2.312   5.534   0.525  0.9683 -0.4331 -0.5420
 8368SOL    HW226004   2.310   5.671   0.616 -0.3126 -1.0726  0.4265
 8369SOL     OW26005   2.272   1.075   2.637  0.3012 -0.4986  0.3847
 8369SOL    HW126006   2.254   1.170   2.661  1.2307 -0.1843 -0.1322
 8369SOL    HW226007   2.221   1.015   2.700 -0.3970  0.3280  0.6235
 8370SOL     OW26008   2.005   6.138   6.068 -0.6202  0.3278 -0.6481
 8370SOL    HW126009   1.985   6.086   5.985 -0.3566  0.3519 -0.7289
 8370SOL    HW226010   1.986   6.235   6.053 -1.8502  0.1633 -0.2536
 8371SOL     OW26011   1.540   4.068   6.987 -0.4364 -0.5469 -0.8871
 8371SOL    HW126012   1.493   4.027   7.065 -1.1400 -1.6578 -1.8748
 8371SOL    HW226013   1.595   4.146   7.019 -0.1916 -1.3649  0.8092
 8372SOL     OW26014   6.897   0.198   6.475  0.5908  0.2918  0.1456
 8372SOL    HW126015   6.876   0.261   6.550  0.8480 -0.8501  1.2111
 8372SOL    HW226016   6.856   0.109   6.493  1.0853 -0.1526 -0.8230
 8373SOL     OW26017   6.857   1.094   3.648  0.0741  0.2124  0.3141
 8373SOL    HW126018   6.865   1.014   3.708  1.0647  0.5442  0.6440
 8373SOL    HW226019   6.894   1.072   3.558  0.9311  0.4748  0.5913
 8374SOL     OW26020   5.105   2.046   5.019 -0.2799 -0.3902  0.1196
 8374SOL    HW126021   5.147   2.123   4.970 -1.1659 -0.3301 -0.5665
 8374SOL    HW226022   5.141   1.960   4.983  1.5574 -0.3353  1.6365
 8375SOL     OW26023   5.228   6.745   6.748 -0.7940 -0.2445  0.2211
 8375SOL    HW126024   5.250   6.652   6.775 -0.0217 -0.1904 -0.1868
 8375SOL    HW226025   5.195   6.746   6.653 -2.3240 -0.2868  0.7274
 8376SOL     OW26026   3.297   0.059   5.305 -0.3174 -0.1732 -0.4254
 8376SOL    HW126027   3.201   0.082   5.320 -0.4821 -1.6107  0.9811
 8376SOL    HW226028   3.355   0.114   5.365 -0.3346 -0.1032 -0.4719
 8377SOL     OW26029   6.094   5.728   6.351 -0.1060 -0.3067  0.1827
 8377SOL    HW126030   6.126   5.804   6.408 -1.6983 -0.8983  1.9495
 8377SOL    HW226031   6.008   5.692   6.388  0.2410 -2.5313 -1.0161
 8378SOL     OW26032   6.099   4.238   2.757 -0.2325 -0.6716 -0.3012
 8378SOL    HW126033   6.063   4.163   2.813  0.1711 -1.5125 -1.1479
 8378SOL    HW226034   6.035   4.315   2.759 -0.2107 -0.6564  1.3427
 8379SOL     OW26035   5.741   2.064   1.078  0.5131  0.1076 -0.2458
 8379SOL    HW126036   5.641   2.065   1.069  0.4565  0.1815  0.3666
 8379SOL    HW226037   5.776   2.157   1.066  0.3389  0.3973  1.2538
 8380SOL     OW26038   5.830   1.490   5.745 -0.6779 -0.7362 -0.0373
 8380SOL    HW126039   5.826   1.511   5.842  1.8278 -0.1847  0.0112
 8380SOL    HW226040   5.918   1.518   5.708 -0.9658 -2.3288 -2.1536
 8381SOL     OW26041   0.871   5.110   4.001 -0.3512 -0.1938 -0.0386
 8381SOL    HW126042   0.823   5.096   4.087  2.3755  1.6798  1.9737
 8381SOL    HW226043   0.931   5.032   3.983 -1.9772 -1.2550 -1.0925
 8382SOL     OW26044   2.298   4.619   2.204  0.1578  0.0147 -0.0997
 8382SOL    HW126045   2.348   4.697   2.166  0.4244 -0.4675 -0.7443
 8382SOL    HW226046   2.358   4.566   2.263  0.5390 -0.7870 -1.1837
 8383SOL     OW26047   4.162   2.405   0.174  0.2505  0.3824 -0.0563
 8383SOL    HW126048   4.104   2.483   0.195 -0.0813 -0.0708  0.7718
 8383SOL    HW226049   4.231   2.431   0.106 -0.8321  0.9586 -0.9638
 8384SOL     OW26050   6.494   0.604   0.924  0.2534 -0.0615  0.3405
 8384SOL    HW126051   6.404   0.637   0.895  0.0485 -2.0063 -1.5103
 8384SOL    HW226052   6.562   0.676   0.911 -0.5618  0.4909 -1.1234
 8385SOL     OW26053   3.949   2.886   1.820 -0.1869  0.1364  0.5153
 8385SOL    HW126054   3.899   2.895   1.905 -1.6637 -1.0040 -0.1983
 8385SOL    HW226055   3.905   2.818   1.761  1.5662 -0.1057 -0.6119
 8386SOL     OW26056   6.423   4.872   2.168  0.2889 -0.2662 -0.4065
 8386SOL    HW126057   6.492   4.862   2.239 -0.5487  0.0035  0.4703
 8386SOL    HW226058   6.380   4.783   2.150 -1.9430  0.1974  2.0047
 8387SOL     OW26059   5.890   3.538   1.444 -0.1740 -0.0022  1.3350
 8387SOL    HW126060   5.971   3.546   1.386 -1.6421  2.1429 -0.6063
 8387SOL    HW226061   5.812   3.512   1.388 -1.2516 -0.0136  2.7803
 8388SOL     OW26062   6.538   1.005   3.653  0.1813 -0.2866  0.2132
 8388SOL    HW126063   6.581   1.083   3.608 -2.6451  1.4994  0.3261
 8388SOL    HW226064   6.544   1.017   3.752  0.4822 -0.6628  0.2414
 8389SOL     OW26065   0.367   2.145   4.373 -0.2202 -0.6445 -0.0141
 8389SOL    HW126066   0.409   2.219   4.320  0.8126 -0.9002  0.4239
 8389SOL    HW226067   0.279   2.175   4.409  0.9095  1.0003  1.5543
 8390SOL     OW26068   7.020   3.017   5.956  0.2316  0.0485 -0.3497
 8390SOL    HW126069   7.112   2.979   5.968  1.1521  2.2532 -0.1005
 8390SOL    HW226070   6.964   2.993   6.036  0.9129 -0.3552  0.0167
 8391SOL     OW26071   4.533   1.604   6.600  0.0479  0.5483 -0.3886
 8391SOL    HW126072   4.509   1.676   6.666 -0.7720  0.8872 -1.0350
 8391SOL    HW226073   4.510   1.515   6.638 -0.3378  0.7337 -0.1769
 8392SOL     OW26074   3.270   3.356   3.631  0.3409  0.9051  0.0872
 8392SOL    HW126075   3.350   3.319   3.584  0.2503 -0.4458  0.9662
 8392SOL    HW226076   3.300   3.410   3.710  0.3935  0.6920  0.2123
 8393SOL     OW26077   6.454   0.472   2.004 -0.1039  0.2509  0.3696
 8393SOL    HW126078   6.478   0.548   2.065 -0.9875  2.0386 -1.4006
 8393SOL    HW226079   6.355   0.473   1.987  0.0759 -0.3848 -0.8238
 8394SOL     OW26080   5.204   2.554   4.423  0.0439 -0.7884  0.1696
 8394SOL    HW126081   5.132   2.485   4.416  0.6271 -1.4810  0.7979
 8394SOL    HW226082   5.264   2.532   4.501  0.3221  0.3526  0.2865
 8395SOL     OW26083   1.934   1.246   0.282  0.3596  0.0666 -0.4105
 8395SOL    HW126084   1.861   1.254   0.215 -0.0978 -0.9567 -0.0467
 8395SOL    HW226085   1.938   1.330   0.337 -1.0490 -0.1591  0.0694
 8396SOL     OW26086   5.830   5.376   3.290  0.5690 -0.2245 -0.2975
 8396SOL    HW126087   5.868   5.387   3.382 -0.5673  0.6492  0.0944
 8396SOL    HW226088   5.834   5.463   3.241  0.2600 -0.4412 -0.7129
 8397SOL     OW26089   4.961   6.859   2.680 -0.5757 -0.0440  0.2470
 8397SOL    HW126090   4.928   6.821   2.767  1.0549  1.2536  1.5080
 8397SOL    HW226091   4.973   6.958   2.690 -1.3796  0.3057 -1.8393
 8398SOL     OW26092   6.015   6.996   5.328 -0.6210 -0.0789  0.4078
 8398SOL    HW126093   6.048   6.999   5.423 -0.4249 -0.0999  0.3422
 8398SOL    HW226094   6.006   6.900   5.300  0.1795 -0.0808  0.1180
 8399SOL     OW26095   5.660   5.249   2.068 -0.0585  0.0087  0.3690
 8399SOL    HW126096   5.613   5.236   1.980  0.9717 -0.3620 -0.1447
 8399SOL    HW226097   5.758   5.240   2.054  0.1694  0.7289  1.4332
 8400SOL     OW26098   1.712   6.687   2.662  0.4225  0.0075 -0.5838
 8400SOL    HW126099   1.650   6.722   2.732  0.8169 -0.5776  0.0723
 8400SOL    HW226100   1.806   6.708   2.688  0.5140  1.2448 -1.7647
 8401SOL     OW26101   2.125   0.285   0.513 -0.2606  0.1383 -0.2930
 8401SOL    HW126102   2.129   0.278   0.613 -0.7813  0.7309 -0.2209
 8401SOL    HW226103   2.062   0.216   0.477 -0.2391  0.0634 -0.1866
 8402SOL     OW26104   1.836   0.245   6.171 -0.0419 -0.7005 -0.5542
 8402SOL    HW126105   1.890   0.260   6.254  1.8186 -0.5857 -1.7363
 8402SOL    HW226106   1.743   0.280   6.186  0.6223  0.5480  1.0233
 8403SOL     OW26107   1.061   0.477   6.507  0.0403 -0.2844 -0.0717
 8403SOL    HW126108   1.110   0.474   6.595  0.5320  3.4903 -0.0885
 8403SOL    HW226109   0.965   0.498   6.523  0.5837  2.8807 -0.4026
 8404SOL     OW26110   1.528   0.416   0.696 -0.9389 -0.2875 -0.3900
 8404SOL    HW126111   1.516   0.317   0.685 -1.7826 -0.4040  1.2590
 8404SOL    HW226112   1.459   0.464   0.643 -1.4036 -0.6305 -0.1005
 8405SOL     OW26113   3.920   1.351   5.941  0.6386 -0.0342  0.5099
 8405SOL    HW126114   3.896   1.431   5.885 -0.9435 -1.8354 -1.5364
 8405SOL    HW226115   3.875   1.357   6.029 -0.6913  0.6304 -0.1958
 8406SOL     OW26116   5.455   1.580   6.395  0.3575 -0.0863  0.4170
 8406SOL    HW126117   5.432   1.584   6.492  1.4749 -1.4443  0.7686
 8406SOL    HW226118   5.500   1.493   6.374 -1.5764 -0.6822 -1.7254
 8407SOL     OW26119   4.006   0.787   5.505 -0.1395 -0.3095  0.1076
 8407SOL    HW126120   3.957   0.827   5.427  1.4040 -1.3823 -1.4900
 8407SOL    HW226121   4.062   0.858   5.549 -0.9967  0.2971  0.2530
 8408SOL     OW26122   4.960   3.384   0.578 -0.9640  0.1637  0.3108
 8408SOL    HW126123   4.916   3.294   0.580  2.2438 -1.5714  0.4758
 8408SOL    HW226124   4.965   3.416   0.484 -1.5181 -0.1468  0.1696
 8409SOL     OW26125   5.311   3.239   2.469  0.2322  0.3815  0.3919
 8409SOL    HW126126   5.235   3.241   2.534 -1.2293 -0.1507 -1.2370
 8409SOL    HW226127   5.383   3.179   2.505 -0.9394 -0.6516  1.1311
 8410SOL     OW26128   0.615   1.353   2.503 -0.3711 -0.2505  0.0370
 8410SOL    HW126129   0.588   1.399   2.418 -0.4334  1.7465  1.0692
 8410SOL    HW226130   0.571   1.399   2.580 -0.8101 -2.4024  1.1406
 8411SOL     OW26131   1.568   6.025   1.584  0.0277  0.7184 -0.6950
 8411SOL    HW126132   1.595   5.946   1.640  0.7922 -1.1090 -3.4264
 8411SOL    HW226133   1.477   6.009   1.546  0.5703  0.6339 -2.0326
 8412SOL     OW26134   4.032   1.670   0.502 -0.5111  0.1426 -0.5045
 8412SOL    HW126135   4.090   1.724   0.441  0.6854 -0.3445  0.1696
 8412SOL    HW226136   4.075   1.664   0.593 -1.3993 -0.6012 -0.1151
 8413SOL     OW26137   3.354   0.748   6.661  0.1143  0.3781  0.4871
 8413SOL    HW126138   3.258   0.776   6.672  0.4105  1.8099 -0.4136
 8413SOL    HW226139   3.414   0.827   6.672  1.0254  0.0254 -1.5609
 8414SOL     OW26140   1.807   6.697   3.450  0.3555  0.0599  0.5529
 8414SOL    HW126141   1.788   6.615   3.503  0.6555 -0.0727  0.4599
 8414SOL    HW226142   1.863   6.760   3.504 -1.1716  0.9115  1.2178
 8415SOL     OW26143   5.514   0.751   6.747 -0.1478 -0.1507  0.3497
 8415SOL    HW126144   5.544   0.690   6.821 -0.1670 -0.1588  0.3508
 8415SOL    HW226145   5.464   0.698   6.679  1.5509 -0.5261 -0.6622
 8416SOL     OW26146   6.764   1.936   6.895  0.3003 -0.1896  0.5456
 8416SOL    HW126147   6.685   1.997   6.907 -0.7998 -1.5182  0.3178
 8416SOL    HW226148   6.846   1.991   6.880 -0.4806  1.2476  1.2858
 8417SOL     OW26149   3.663   2.016   0.301  0.2593  0.6336  0.0852
 8417SOL    HW126150   3.662   2.116   0.290  0.3010  0.7912  1.4398
 8417SOL    HW226151   3.573   1.979   0.278  0.3847  0.9032 -0.9299
 8418SOL     OW26152   6.023   5.641   2.431 -0.2690 -0.1454  0.0099
 8418SOL    HW126153   6.107   5.694   2.420  0.0829 -0.9955 -1.7981
 8418SOL    HW226154   6.025   5.593   2.519 -0.7020  2.8931  1.8409
 8419SOL     OW26155   4.542   1.695   5.002 -0.6749  0.2705  0.1925
 8419SOL    HW126156   4.546   1.606   5.049 -2.1129  0.9769  1.7549
 8419SOL    HW226157   4.480   1.688   4.923  0.2969 -0.4384 -0.5395
 8420SOL     OW26158   4.492   2.000   2.067  0.0883 -0.6889 -0.0697
 8420SOL    HW126159   4.410   1.991   2.125 -0.1918 -1.9758 -0.6265
 8420SOL    HW226160   4.465   1.991   1.971  0.1530  3.8752 -0.7187
 8421SOL     OW26161   5.964   1.603   6.847  0.4747  0.3127  0.3497
 8421SOL    HW126162   5.967   1.532   6.777  2.3702  2.1211 -1.5629
 8421SOL    HW226163   6.050   1.603   6.899  1.9191  3.0612 -1.7994
 8422SOL     OW26164   6.642   2.174   4.200 -0.2788 -0.9486 -0.1504
 8422SOL    HW126165   6.686   2.137   4.118  1.5319 -1.1879  0.8837
 8422SOL    HW226166   6.552   2.131   4.210 -0.2115 -1.5049 -1.5685
 8423SOL     OW26167   5.934   6.185   6.829 -0.7178  0.1431 -0.4171
 8423SOL    HW126168   5.862   6.247   6.858 -0.2779  1.1686 -1.4107
 8423SOL    HW226169   5.899   6.092   6.826 -1.8298  0.5442 -0.3336
 8424SOL     OW26170   2.106   2.627   4.795 -0.5271 -0.2693 -0.0278
 8424SOL    HW126171   2.070   2.703   4.848  0.5389 -0.7425  1.4427
 8424SOL    HW226172   2.182   2.658   4.738  1.4587 -0.5674  2.2945
 8425SOL     OW26173   3.751   3.614   1.473 -0.0663  0.1585 -0.0389
 8425SOL    HW126174   3.678   3.679   1.451  1.5024  1.7327 -0.9303
 8425SOL    HW226175   3.727   3.524   1.437 -1.6029  0.6097 -0.2240
 8426SOL     OW26176   3.664   3.129   1.759 -0.5212  0.0346 -0.0825
 8426SOL    HW126177   3.629   3.036   1.770  1.2104 -0.7644 -1.0383
 8426SOL    HW226178   3.700   3.162   1.846 -1.2074 -0.1416  0.2772
 8427SOL     OW26179   3.642   4.131   3.098 -0.4010 -0.1470 -0.0181
 8427SOL    HW126180   3.613   4.138   3.003  0.0488 -0.1362 -0.1605
 8427SOL    HW226181   3.736   4.097   3.102 -0.2246  0.3617  0.3959
 8428SOL     OW26182   5.398   2.199   1.636  0.0657  0.4077 -0.1177
 8428SOL    HW126183   5.358   2.132   1.573 -1.1934 -0.3351  1.3886
 8428SOL    HW226184   5.494   2.178   1.650  0.2592  0.3328 -1.4418
 8429SOL     OW26185   3.140   0.010   6.361  0.2285 -0.7876 -0.3214
 8429SOL    HW126186   3.200   0.090   6.357 -1.7754  0.8645  0.5061
 8429SOL    HW226187   3.176  -0.055   6.429  0.0717  1.1278  1.7229
 8430SOL     OW26188   4.592   6.533   6.915 -0.1506  0.2135  0.1164
 8430SOL    HW126189   4.653   6.454   6.907  2.6743  2.1324  1.2084
 8430SOL    HW226190   4.592   6.567   7.009 -0.8816  1.8341 -0.4280
 8431SOL     OW26191   3.227   1.145   6.762  0.2113  0.3810 -0.4596
 8431SOL    HW126192   3.194   1.054   6.735  1.3263 -0.2057  0.0720
 8431SOL    HW226193   3.168   1.182   6.834 -1.1155  0.7329 -1.6985
 8432SOL     OW26194   5.927   3.200   3.667 -0.0873 -0.4398  0.2753
 8432SOL    HW126195   6.006   3.260   3.658  0.4017 -0.9670  0.9056
 8432SOL    HW226196   5.920   3.141   3.587  0.1617 -0.3922  0.2186
 8433SOL     OW26197   4.064   1.408   0.408 -0.5242  0.2084  0.0620
 8433SOL    HW126198   4.075   1.506   0.423 -1.7866  0.6068 -1.3836
 8433SOL    HW226199   4.109   1.381   0.323 -0.4296 -0.4085  0.2983
 8434SOL     OW26200   2.187   6.087   4.284 -0.4398 -0.1054 -0.0879
 8434SOL    HW126201   2.095   6.090   4.244 -0.5310  0.4520  0.1541
 8434SOL    HW226202   2.247   6.033   4.224 -0.7605  0.0770 -0.5853
 8435SOL     OW26203   6.335   1.080   5.172 -0.5437 -0.9879  0.1951
 8435SOL    HW126204   6.379   1.136   5.242  2.6522 -3.6027  0.5413
 8435SOL    HW226205   6.285   1.005   5.215  0.0488 -1.6622 -0.2626
 8436SOL     OW26206   4.093   6.268   3.512  0.1117 -0.1612  0.2447
 8436SOL    HW126207   4.042   6.183   3.526 -0.3888  0.1434  0.2844
 8436SOL    HW226208   4.036   6.333   3.461  0.7287 -0.0836 -0.3579
 8437SOL     OW26209   2.378   6.034   0.790 -0.4402 -0.5033 -0.3564
 8437SOL    HW126210   2.298   6.079   0.831  1.1643  1.7431  0.5615
 8437SOL    HW226211   2.403   5.955   0.845 -0.8122  0.0186  0.6033
 8438SOL     OW26212   6.056   4.613   3.022  0.0139 -0.5279  0.3221
 8438SOL    HW126213   6.040   4.581   3.116  0.5083 -0.2305  0.5071
 8438SOL    HW226214   6.151   4.640   3.011 -0.1616 -0.0737 -0.1260
 8439SOL     OW26215   6.305   4.670   2.067  0.6000  0.0357  0.0279
 8439SOL    HW126216   6.289   4.713   1.978 -2.3011 -1.3854 -0.2335
 8439SOL    HW226217   6.369   4.594   2.056  1.6269  0.9486 -0.4766
 8440SOL     OW26218   2.156   1.952   3.123 -0.3754 -0.7466 -0.0547
 8440SOL    HW126219   2.252   1.969   3.148 -0.6748  1.3036 -0.1189
 8440SOL    HW226220   2.099   2.027   3.158 -2.5005 -3.4897  2.8559
 8441SOL     OW26221   0.110   3.777   6.430  0.0256 -0.1607 -0.0108
 8441SOL    HW126222   0.148   3.828   6.507 -1.0497 -0.3462  0.6652
 8441SOL    HW226223   0.182   3.758   6.364  0.9170  0.2354  0.8203
 8442SOL     OW26224   3.157   2.087   5.644 -0.0600  0.4853  0.7091
 8442SOL    HW126225   3.248   2.099   5.603 -0.8844  0.4805 -1.2613
 8442SOL    HW226226   3.139   1.990   5.657 -0.8220  0.2418 -1.6114
 8443SOL     OW26227   1.887   4.783   4.390  0.9636 -0.0022  0.1949
 8443SOL    HW126228   1.788   4.785   4.380  1.1463 -0.1003 -2.3411
 8443SOL    HW226229   1.924   4.876   4.376  1.1887  0.3180  2.5136
 8444SOL     OW26230   5.737   6.465   3.485  0.2876  0.3155  0.1769
 8444SOL    HW126231   5.683   6.450   3.568 -1.4601  0.5082 -0.8687
 8444SOL    HW226232   5.829   6.426   3.497  0.3298  0.9926  2.4362
 8445SOL     OW26233   5.230   5.468   6.848 -0.3494  0.5365 -0.5709
 8445SOL    HW126234   5.265   5.460   6.754 -0.2064  1.8565 -0.6483
 8445SOL    HW226235   5.180   5.385   6.872  1.8577 -0.9700 -0.8557
 8446SOL     OW26236   0.242   4.105   4.120 -0.2165  0.1070  0.0120
 8446SOL    HW126237   0.331   4.072   4.151  0.4791  1.7274 -0.1690
 8446SOL    HW226238   0.179   4.107   4.198  0.0539 -0.5283  0.2561
 8447SOL     OW26239   3.713   1.799   3.612 -0.0873  0.3696  0.3185
 8447SOL    HW126240   3.740   1.788   3.516 -0.8394  2.5001 -0.1723
 8447SOL    HW226241   3.655   1.722   3.638  0.5331 -0.5068 -0.7499
 8448SOL     OW26242   2.471   0.507   3.403  0.2442 -0.8370 -0.6301
 8448SOL    HW126243   2.400   0.575   3.422  0.8433 -0.6632  1.2013
 8448SOL    HW226244   2.523   0.534   3.321 -0.2059  0.3512 -0.5398
 8449SOL     OW26245   0.452   2.185   3.318  0.3355  0.0940  0.3250
 8449SOL    HW126246   0.476   2.154   3.410  2.8368 -0.9296 -0.5889
 8449SOL    HW226247   0.360   2.154   3.295  0.0159 -0.3993  2.1127
 8450SOL     OW26248   0.766   2.935   2.397  0.5966  0.6988 -0.5669
 8450SOL    HW126249   0.778   2.942   2.496 -0.4735  1.1426 -0.4529
 8450SOL    HW226250   0.818   2.857   2.363  0.6268  0.2722  0.4128
 8451SOL     OW26251   5.194   2.070   1.444 -0.2366  0.3798 -0.5018
 8451SOL    HW126252   5.169   1.999   1.510  1.1542  0.6839  0.3764
 8451SOL    HW226253   5.239   2.027   1.365  1.5262  0.3361  0.4865
 8452SOL     OW26254   6.003   0.849   0.822  0.0396  0.2245  0.0919
 8452SOL    HW126255   5.945   0.924   0.788  0.7357 -0.3896 -2.7264
 8452SOL    HW226256   5.990   0.769   0.764  0.6058 -1.3164  2.0044
 8453SOL     OW26257   0.260   1.227   0.904  0.1902 -0.5119  0.1849
 8453SOL    HW126258   0.227   1.181   0.986 -0.4133  2.2482  1.6367
 8453SOL    HW226259   0.185   1.241   0.840  0.0962 -0.4898  0.2997
 8454SOL     OW26260   6.148   5.939   0.560  0.0274 -0.0676  0.0346
 8454SOL    HW126261   6.223   5.999   0.587 -1.1712  1.5849 -0.1558
 8454SOL    HW226262   6.100   5.978   0.482 -1.6338 -0.5648  0.7558
 8455SOL     OW26263   5.773   0.087   2.373  0.4997  0.0564 -0.0598
 8455SOL    HW126264   5.762   0.106   2.275 -0.0426  1.6454  0.2715
 8455SOL    HW226265   5.683   0.072   2.414  0.6138  0.6389  0.4115
 8456SOL     OW26266   6.681   0.964   2.321 -0.3630  0.4829  0.2956
 8456SOL    HW126267   6.646   1.024   2.249 -1.1260  0.1625  0.3959
 8456SOL    HW226268   6.762   0.917   2.287 -1.1773 -0.2753 -0.6641
 8457SOL     OW26269   0.318   5.130   4.667  0.1380  0.0297  0.0403
 8457SOL    HW126270   0.375   5.213   4.668 -1.0972  0.9121 -0.4896
 8457SOL    HW226271   0.377   5.050   4.678  1.5377  0.8748 -0.8930
 8458SOL     OW26272   1.336   6.507   0.328  0.0550  0.0299 -0.8681
 8458SOL    HW126273   1.331   6.408   0.318  1.1441  0.1157 -2.9303
 8458SOL    HW226274   1.415   6.542   0.276 -0.0814  1.9415  0.1083
 8459SOL     OW26275   2.806   6.491   5.247  0.1320 -0.7616  0.0757
 8459SOL    HW126276   2.812   6.468   5.344  0.8410  0.0866  0.2488
 8459SOL    HW226277   2.710   6.489   5.218 -0.0975 -0.9105  0.8222
 8460SOL     OW26278   3.246   3.594   3.421 -0.0052  0.5207 -0.2217
 8460SOL    HW126279   3.213   3.587   3.515  2.6874  2.4737  0.9909
 8460SOL    HW226280   3.217   3.682   3.382 -0.5672 -0.0056 -1.0277
 8461SOL     OW26281   4.951   4.720   3.058 -0.1253 -0.0604 -0.1815
 8461SOL    HW126282   4.912   4.705   2.968 -0.4169 -0.3500 -0.0099
 8461SOL    HW226283   5.050   4.736   3.050  0.0075 -0.9913 -0.4710
 8462SOL     OW26284   1.285   2.237   1.822 -0.1243  0.7426  0.5325
 8462SOL    HW126285   1.279   2.145   1.862 -0.2810  0.7857  0.6086
 8462SOL    HW226286   1.311   2.229   1.725 -0.4436  0.6020  0.4568
 8463SOL     OW26287   5.743   0.086   1.381  0.1555 -0.0095 -0.2063
 8463SOL    HW126288   5.739   0.078   1.281  1.4538  1.2710 -0.3944
 8463SOL    HW226289   5.837   0.073   1.412 -0.2593 -0.5525  0.8878
 8464SOL     OW26290   6.075   0.686   5.470  0.4399  0.0895  0.0387
 8464SOL    HW126291   6.112   0.773   5.502 -0.1834  0.7963 -1.0990
 8464SOL    HW226292   6.104   0.613   5.532 -1.8938  1.5542  3.1640
 8465SOL     OW26293   0.258   6.486   0.134  0.0950  0.3717 -0.7933
 8465SOL    HW126294   0.348   6.468   0.094  0.8207  0.9302  0.5371
 8465SOL    HW226295   0.215   6.399   0.159  1.1474  0.1805  0.4277
 8466SOL     OW26296   1.281   6.418   3.872 -0.1567  0.4611 -1.1929
 8466SOL    HW126297   1.336   6.350   3.823 -1.7879 -0.2859 -2.0820
 8466SOL    HW226298   1.221   6.371   3.936  1.0100  1.3437  0.6074
 8467SOL     OW26299   3.352   5.806   4.102  0.7407  0.2006 -0.1029
 8467SOL    HW126300   3.286   5.834   4.032  0.7660 -1.9454 -1.0918
 8467SOL    HW226301   3.350   5.706   4.110  3.1296  0.1583  0.5765
 8468SOL     OW26302   4.014   3.705   0.642 -0.0593  0.2612  0.1375
 8468SOL    HW126303   4.054   3.721   0.733  1.8936  1.1607 -0.8056
 8468SOL    HW226304   4.033   3.611   0.614  0.5766  0.3890  0.1110
 8469SOL     OW26305   4.872   1.451   4.676 -0.0920 -0.0815  0.7364
 8469SOL    HW126306   4.905   1.403   4.595  0.8143  0.6249  0.6814
 8469SOL    HW226307   4.831   1.385   4.739 -0.0493 -0.7437  0.0865
 8470SOL     OW26308   2.304   1.326   6.330 -0.1205  0.5083 -0.1307
 8470SOL    HW126309   2.288   1.253   6.264 -1.1546  1.1660 -0.6406
 8470SOL    HW226310   2.236   1.320   6.403  0.6033  0.1872  0.5318
 8471SOL     OW26311   4.152   0.307   6.541  0.4757 -0.1994  0.0469
 8471SOL    HW126312   4.147   0.406   6.526  0.6495 -0.0828  0.7199
 8471SOL    HW226313   4.062   0.274   6.570  0.6325 -0.0899  0.6661
 8472SOL     OW26314   0.312   6.019   3.115  0.5723 -0.0656 -0.2796
 8472SOL    HW126315   0.275   5.943   3.060 -1.1600  1.1834 -0.9232
 8472SOL    HW226316   0.310   5.994   3.211  2.2958 -1.7378 -0.6129
 8473SOL     OW26317   5.752   5.701   5.212 -0.0522  0.2475  0.7113
 8473SOL    HW126318   5.799   5.788   5.196 -1.3225  0.9024  0.3837
 8473SOL    HW226319   5.721   5.698   5.308  1.6470 -0.7006  1.2606
 8474SOL     OW26320   4.137   6.978   0.552 -0.5018  0.3128 -0.2292
 8474SOL    HW126321   4.056   7.012   0.504 -0.8045  0.6226  0.4802
 8474SOL    HW226322   4.191   6.919   0.491 -1.1732  0.2362 -0.7529
 8475SOL     OW26323   5.310   2.904   2.271 -0.2032 -0.8884  0.4727
 8475SOL    HW126324   5.227   2.894   2.326  0.5503 -1.5533  1.5400
 8475SOL    HW226325   5.383   2.944   2.328  0.1347 -0.0400 -0.5280
 8476SOL     OW26326   5.339   2.414   2.468 -0.0797 -0.4430  0.5890
 8476SOL    HW126327   5.267   2.475   2.435  0.1188 -0.3885  0.2498
 8476SOL    HW226328   5.316   2.319   2.446 -0.0888 -0.4331  0.5557
 8477SOL     OW26329   1.986   1.697   2.266  0.3712 -0.0142 -0.4105
 8477SOL    HW126330   1.996   1.705   2.365  1.0983  4.7789 -0.6175
 8477SOL    HW226331   1.947   1.782   2.230 -0.2341 -1.7256 -4.2530
 8478SOL     OW26332   2.119   2.149   5.043  0.0559 -0.5757  0.5098
 8478SOL    HW126333   2.217   2.163   5.028 -0.7322  1.5139 -4.8150
 8478SOL    HW226334   2.074   2.237   5.056 -1.4056 -1.2783  0.4852
 8479SOL     OW26335   4.521   6.272   1.041 -0.4541 -0.6163 -0.0529
 8479SOL    HW126336   4.530   6.355   0.985  0.2039  1.1334  2.4925
 8479SOL    HW226337   4.545   6.192   0.985  1.4662  1.1229 -1.9097
 8480SOL     OW26338   3.139   1.214   2.047  0.0926 -0.6699 -0.0020
 8480SOL    HW126339   3.170   1.298   2.092 -2.3448  0.3040  0.0323
 8480SOL    HW226340   3.053   1.184   2.089  1.1729 -3.5766  0.3748
 8481SOL     OW26341   2.507   0.814   6.240 -0.0930 -0.1493 -0.1173
 8481SOL    HW126342   2.437   0.882   6.215  1.3547  0.7961 -1.8677
 8481SOL    HW226343   2.503   0.737   6.176  0.5558 -0.0089 -0.3318
 8482SOL     OW26344   4.935   1.722   2.028 -0.4893  1.5403 -0.0780
 8482SOL    HW126345   4.890   1.633   2.022  0.7858  0.9845 -2.4131
 8482SOL    HW226346   4.874   1.787   2.075 -2.5289  0.1364 -0.6538
 8483SOL     OW26347   3.274   5.525   0.617 -0.2867 -0.3381 -0.5373
 8483SOL    HW126348   3.294   5.541   0.714 -0.9986 -0.2308 -0.4041
 8483SOL    HW226349   3.182   5.557   0.596  0.9662  2.8283 -2.0184
 8484SOL     OW26350   0.281   4.550   6.514 -0.0635 -0.3821  0.3362
 8484SOL    HW126351   0.281   4.621   6.444  0.3589  0.8296  1.5309
 8484SOL    HW226352   0.368   4.500   6.510 -0.1255 -0.4584 -0.1321
 8485SOL     OW26353   2.754   2.861   6.561 -0.8766 -0.4185 -0.4307
 8485SOL    HW126354   2.853   2.856   6.562 -0.7768 -0.6420 -3.1705
 8485SOL    HW226355   2.725   2.949   6.524 -1.6197 -1.0692 -1.4618
 8486SOL     OW26356   4.181   6.151   2.092 -0.9015 -0.2589  0.2971
 8486SOL    HW126357   4.279   6.145   2.110 -0.9145  0.3913  0.6117
 8486SOL    HW226358   4.131   6.097   2.160 -0.7806 -0.3967  0.2779
 8487SOL     OW26359   2.996   1.787   1.319  0.4163  0.0976 -0.0184
 8487SOL    HW126360   3.014   1.820   1.412  1.1254  0.6397 -0.3380
 8487SOL    HW226361   2.937   1.706   1.323 -1.0730  1.1725  0.8075
 8488SOL     OW26362   6.359   5.536   5.988  0.4072 -0.2353  0.5507
 8488SOL    HW126363   6.377   5.449   5.940  2.6187  0.1667  0.5356
 8488SOL    HW226364   6.353   5.610   5.921  2.7705  0.2139  0.7354
 8489SOL     OW26365   2.607   6.995   2.774  0.3438 -0.0447 -0.1402
 8489SOL    HW126366   2.541   6.935   2.820  0.9995 -0.7972 -0.1502
 8489SOL    HW226367   2.629   7.072   2.834 -0.6829  0.3291 -0.2191
 8490SOL     OW26368   4.359   5.064   1.744 -0.0385  0.4707 -0.2434
 8490SOL    HW126369   4.293   5.101   1.678 -0.7864 -1.8624 -0.8761
 8490SOL    HW226370   4.309   5.021   1.819  0.8202  1.4986  0.9688
 8491SOL     OW26371   0.469   0.564   2.063 -0.1331  0.0773 -0.9212
 8491SOL    HW126372   0.444   0.659   2.083  0.3270  0.0860 -0.3702
 8491SOL    HW226373   0.446   0.506   2.140  1.5367  0.0939 -0.3575
 8492SOL     OW26374   6.367   2.312   2.976  0.4122  0.1960 -0.2343
 8492SOL    HW126375   6.351   2.341   3.071  0.5950 -1.2659  0.2648
 8492SOL    HW226376   6.286   2.264   2.942 -0.6877  2.8832 -1.7462
 8493SOL     OW26377   4.745   3.370   0.856  0.2916 -0.1515  0.3438
 8493SOL    HW126378   4.718   3.284   0.900 -0.4752  0.3258  0.8306
 8493SOL    HW226379   4.724   3.366   0.758 -0.8360 -0.0947  0.5714
 8494SOL     OW26380   2.691   5.982   6.268 -0.2300 -0.3269  0.5739
 8494SOL    HW126381   2.751   5.990   6.189 -1.3978 -3.2506 -0.7985
 8494SOL    HW226382   2.601   6.019   6.245  0.3012  1.9358  1.8252
 8495SOL     OW26383   6.553   4.416   4.624 -0.3028 -0.6549  0.0107
 8495SOL    HW126384   6.629   4.379   4.571  0.7474  0.1614  0.9112
 8495SOL    HW226385   6.580   4.502   4.668 -1.0931 -1.3152  1.9297
 8496SOL     OW26386   1.677   2.701   4.074 -0.3827 -0.1391 -0.1981
 8496SOL    HW126387   1.773   2.709   4.047 -0.2725 -0.7061  0.0015
 8496SOL    HW226388   1.635   2.624   4.025 -1.3843  1.5179 -2.0610
 8497SOL     OW26389   5.150   4.332   4.269  0.3959  0.4171 -0.3192
 8497SOL    HW126390   5.150   4.422   4.312  0.0957 -0.1427  0.8916
 8497SOL    HW226391   5.120   4.341   4.173 -1.4464  1.3920  0.2971
 8498SOL     OW26392   0.172   3.743   1.532 -0.0652 -0.4182 -0.1458
 8498SOL    HW126393   0.156   3.767   1.627 -0.7837 -1.7022  0.0761
 8498SOL    HW226394   0.183   3.644   1.523  0.7379 -0.2524 -1.2973
 8499SOL     OW26395   6.733   4.296   6.185  0.1819  0.2152  0.2700
 8499SOL    HW126396   6.779   4.372   6.232 -0.7764  0.2713  1.1539
 8499SOL    HW226397   6.692   4.329   6.100  2.0854  0.0794 -0.7514
 8500SOL     OW26398   1.680   0.857   5.628  0.4793  0.2901  0.4689
 8500SOL    HW126399   1.647   0.937   5.578  0.9846  1.4278  1.8863
 8500SOL    HW226400   1.772   0.876   5.663  1.0739 -1.3580 -0.1129
 8501SOL     OW26401   3.223   3.034   4.473 -0.0708 -0.1693  0.0854
 8501SOL    HW126402   3.251   3.017   4.568  1.4304  0.8571 -0.1372
 8501SOL    HW226403   3.171   3.119   4.468  0.4096  0.1122 -0.1078
 8502SOL     OW26404   1.616   0.938   1.306 -0.0784 -0.0639  0.1482
 8502SOL    HW126405   1.528   0.901   1.277 -0.6054  0.8310  0.5547
 8502SOL    HW226406   1.677   0.946   1.227 -0.1512 -1.2125 -0.0417
 8503SOL     OW26407   3.640   6.118   5.499 -0.4224 -0.1317  0.2451
 8503SOL    HW126408   3.577   6.078   5.432 -0.8578  0.6092  0.2050
 8503SOL    HW226409   3.720   6.154   5.451 -1.1987  1.3212 -0.0233
 8504SOL     OW26410   2.691   6.710   1.736  0.3867 -0.1494  0.2977
 8504SOL    HW126411   2.648   6.737   1.650 -0.4481  0.9107  1.0179
 8504SOL    HW226412   2.628   6.727   1.811  1.8247  0.8500  1.3374
 8505SOL     OW26413   5.135   2.526   4.895  0.4786 -0.4516  0.4508
 8505SOL    HW126414   5.173   2.435   4.883  1.8468  0.0850  0.5449
 8505SOL    HW226415   5.209   2.593   4.900 -0.5089  0.8923 -1.4268
 8506SOL     OW26416   0.435   6.657   1.491 -0.1309 -0.0095  0.1278
 8506SOL    HW126417   0.445   6.565   1.529 -0.0073 -0.8095 -1.7299
 8506SOL    HW226418   0.350   6.662   1.439 -1.5298  1.7977  2.3779
 8507SOL     OW26419   0.760   5.913   6.540 -0.5830  0.5062  0.1697
 8507SOL    HW126420   0.739   5.949   6.450 -1.5603 -0.9964 -0.2382
 8507SOL    HW226421   0.859   5.919   6.556 -0.5986  2.4514 -0.2219
 8508SOL     OW26422   6.425   3.881   6.715 -0.2197 -0.7234 -0.2700
 8508SOL    HW126423   6.493   3.876   6.789 -1.5138 -1.8271  0.8804
 8508SOL    HW226424   6.428   3.798   6.661 -1.2853 -1.2025  0.3806
 8509SOL     OW26425   6.252   2.996   3.695  0.1225 -0.2204  0.1467
 8509SOL    HW126426   6.193   2.942   3.756  1.0106 -1.9786 -0.4889
 8509SOL    HW226427   6.328   3.033   3.747  0.6193 -1.3178  0.2286
 8510SOL     OW26428   6.286   6.454   3.220  0.1805 -0.2512 -0.6325
 8510SOL    HW126429   6.293   6.531   3.283  0.5802 -0.7320 -0.0709
 8510SOL    HW226430   6.212   6.393   3.249 -0.2286 -0.0071 -1.1558
 8511SOL     OW26431   1.660   6.197   1.773  0.0061  0.1427  0.3820
 8511SOL    HW126432   1.596   6.190   1.850  1.4100  0.7862  1.6490
 8511SOL    HW226433   1.627   6.141   1.697 -1.6461 -0.1574  1.2698
 8512SOL     OW26434   5.230   4.593   0.881  0.1167  0.3308 -0.2480
 8512SOL    HW126435   5.253   4.546   0.966  0.1315  0.1505 -0.3507
 8512SOL    HW226436   5.182   4.530   0.820  1.8958 -0.1814 -1.1958
 8513SOL     OW26437   1.100   3.950   0.379  0.2630  0.0760  0.0488
 8513SOL    HW126438   1.180   3.922   0.326  1.7384  3.0124  0.5067
 8513SOL    HW226439   1.018   3.944   0.322  1.3477  0.2008 -1.5860
 8514SOL     OW26440   2.110   2.847   5.024  0.4890  0.3004  0.2543
 8514SOL    HW126441   2.207   2.856   5.046  0.8293 -0.8960 -0.6206
 8514SOL    HW226442   2.068   2.780   5.085  0.3480  0.4303  0.2974
 8515SOL     OW26443   2.260   1.699   1.527  0.6163 -0.1525  0.5213
 8515SOL    HW126444   2.316   1.620   1.553 -0.1109 -0.9442 -0.2317
 8515SOL    HW226445   2.305   1.749   1.454  0.2207 -0.9688 -0.3032
 8516SOL     OW26446   5.603   3.217   5.597  0.9422  0.2004  0.0644
 8516SOL    HW126447   5.628   3.301   5.645 -1.3725  1.1232 -0.2205
 8516SOL    HW226448   5.506   3.220   5.574  1.6588 -0.6453 -3.7416
 8517SOL     OW26449   1.688   1.749   6.593 -0.1998 -0.6283 -0.0994
 8517SOL    HW126450   1.640   1.812   6.654  0.2293 -0.0773 -0.3250
 8517SOL    HW226451   1.652   1.759   6.500  0.3553 -0.1969 -0.2738
 8518SOL     OW26452   5.344   5.910   0.101 -0.3423 -0.2837 -0.2359
 8518SOL    HW126453   5.439   5.887   0.082  0.0916  0.6379  0.6719
 8518SOL    HW226454   5.284   5.835   0.071  0.7384 -1.2712 -0.0036
 8519SOL     OW26455   2.514   3.288   0.049  1.0487  0.2787 -0.2871
 8519SOL    HW126456   2.608   3.287   0.084  0.2139  1.4612  2.2427
 8519SOL    HW226457   2.484   3.383   0.040 -0.4176 -0.0824  0.5173
 8520SOL     OW26458   0.803   3.056   5.216  0.3303  0.4567  0.2037
 8520SOL    HW126459   0.854   3.141   5.218 -0.2721  1.0554 -3.3499
 8520SOL    HW226460   0.864   2.980   5.193  0.2190  0.6835 -0.9306
 8521SOL     OW26461   3.483   2.103   4.655  1.0153  0.2162  0.2200
 8521SOL    HW126462   3.444   2.014   4.632  1.6676 -0.2274  0.8040
 8521SOL    HW226463   3.423   2.149   4.720 -0.0768  0.8493 -1.1633
 8522SOL     OW26464   1.855   1.537   0.162 -0.1954 -1.0233  0.2597
 8522SOL    HW126465   1.780   1.470   0.159 -0.5363 -0.6198 -0.8191
 8522SOL    HW226466   1.920   1.517   0.089 -1.3960  1.0151 -1.5010
 8523SOL     OW26467   2.797   2.235   0.866 -0.1216  0.0212  0.1619
 8523SOL    HW126468   2.841   2.244   0.955  0.7997 -1.0412 -0.1675
 8523SOL    HW226469   2.706   2.278   0.870 -0.1107 -0.0291  1.6114
 8524SOL     OW26470   4.243   4.710   4.438  0.0820 -0.4106  0.0061
 8524SOL    HW126471   4.253   4.711   4.537  1.1472 -0.1672 -0.1001
 8524SOL    HW226472   4.309   4.647   4.398  1.0649  1.0030 -0.6832
 8525SOL     OW26473   6.791   2.076   4.673 -0.5183  0.1320 -0.8095
 8525SOL    HW126474   6.785   2.124   4.760 -1.4360  1.0040 -1.3246
 8525SOL    HW226475   6.805   2.143   4.599  4.2367 -0.7804 -1.0558
 8526SOL     OW26476   1.061   4.861   6.539  0.6351 -0.4714  0.0891
 8526SOL    HW126477   0.986   4.795   6.543 -0.0069  0.2539  0.3578
 8526SOL    HW226478   1.095   4.867   6.445  0.5303 -0.9900  0.0153
 8527SOL     OW26479   1.818   1.267   1.171 -0.3431  0.5136  0.1714
 8527SOL    HW126480   1.735   1.290   1.224 -2.4183 -2.6383 -1.3973
 8527SOL    HW226481   1.828   1.332   1.096 -1.3548  1.0053  0.4330
 8528SOL     OW26482   5.874   6.859   2.100 -0.0425 -0.1276 -0.5740
 8528SOL    HW126483   5.855   6.766   2.069 -0.7374  0.0847 -0.7976
 8528SOL    HW226484   5.945   6.900   2.043  1.1336 -0.9228  0.2636
 8529SOL     OW26485   1.317   6.818   6.525 -0.3624  0.1506 -0.1776
 8529SOL    HW126486   1.346   6.746   6.462 -1.5503  1.1734 -1.9540
 8529SOL    HW226487   1.306   6.904   6.476 -0.6443  1.1724  1.5727
 8530SOL     OW26488   3.069   3.926   4.032 -0.0750 -0.1075 -0.3297
 8530SOL    HW126489   2.997   3.870   4.073 -1.8138  2.5112  0.4559
 8530SOL    HW226490   3.078   3.903   3.935  0.1492 -2.5063  0.2058
 8531SOL     OW26491   1.167   4.826   2.585  0.5241 -0.0316  0.3695
 8531SOL    HW126492   1.112   4.905   2.560  0.8484 -0.3110 -1.3003
 8531SOL    HW226493   1.247   4.857   2.637  0.0971  0.6106  0.6667
 8532SOL     OW26494   4.560   5.176   6.656  0.1542 -0.2150  0.0557
 8532SOL    HW126495   4.529   5.086   6.627 -0.8976  0.4132 -0.8848
 8532SOL    HW226496   4.536   5.244   6.585  1.4093  0.7175  0.4878
 8533SOL     OW26497   2.447   0.216   5.806  0.3732  0.6924 -0.4477
 8533SOL    HW126498   2.447   0.310   5.843 -2.5920  0.4493  0.4963
 8533SOL    HW226499   2.386   0.212   5.727  1.5747 -0.1933 -1.3629
 8534SOL     OW26500   0.681   3.801   1.541  0.3557  0.5699  0.3693
 8534SOL    HW126501   0.717   3.769   1.453  1.1087 -2.4215  1.6168
 8534SOL    HW226502   0.721   3.890   1.563  1.6060  0.5200 -1.4677
 8535SOL     OW26503   0.204   6.819   2.382  0.5672 -0.1280 -0.5988
 8535SOL    HW126504   0.124   6.760   2.391  0.8931 -0.7854 -1.7791
 8535SOL    HW226505   0.177   6.914   2.393 -0.3378 -0.3594 -0.7625
 8536SOL     OW26506   1.021   0.914   5.405 -0.9797  0.0148 -0.0533
 8536SOL    HW126507   1.005   1.012   5.421 -3.3985 -0.4262  0.6431
 8536SOL    HW226508   0.977   0.861   5.477  0.9725 -1.6123  0.0311
 8537SOL     OW26509   4.951   6.667   2.943 -0.1586 -0.3317 -0.4595
 8537SOL    HW126510   4.861   6.710   2.941 -0.3919 -0.6611  1.2362
 8537SOL    HW226511   4.941   6.569   2.962  0.5644 -0.3042  0.1303
 8538SOL     OW26512   0.762   1.968   5.490  0.1657 -1.0105 -0.0551
 8538SOL    HW126513   0.841   1.933   5.440 -0.1751 -1.2681 -0.4240
 8538SOL    HW226514   0.780   1.963   5.589  1.1108  0.1343 -0.1441
 8539SOL     OW26515   5.147   4.924   1.654 -0.0683  0.0124 -0.0440
 8539SOL    HW126516   5.079   4.866   1.698  0.0025 -0.3074 -0.3490
 8539SOL    HW226517   5.136   5.018   1.685 -0.5968 -0.0516 -0.0330
 8540SOL     OW26518   4.049   6.699   1.539 -0.5607  0.2611  0.2897
 8540SOL    HW126519   3.990   6.694   1.620 -0.3051  0.8877  0.5284
 8540SOL    HW226520   4.064   6.608   1.502  0.0585 -0.1559  1.4916
 8541SOL     OW26521   1.444   2.484   2.994 -0.2933  0.0980 -0.3427
 8541SOL    HW126522   1.477   2.408   3.051  0.4938  0.9028  0.3063
 8541SOL    HW226523   1.520   2.545   2.972 -1.0552  1.1523 -0.1433
 8542SOL     OW26524   3.130   3.457   6.690 -0.2253  0.3964 -0.2133
 8542SOL    HW126525   3.131   3.528   6.619  0.5153  1.1843  0.5599
 8542SOL    HW226526   3.102   3.370   6.650 -1.2158  1.1282 -1.1803
 8543SOL     OW26527   3.734   1.492   1.084 -0.0588 -0.0614 -0.2832
 8543SOL    HW126528   3.790   1.472   1.164 -1.7457  0.1883  1.0116
 8543SOL    HW226529   3.647   1.531   1.113 -0.2900  1.0782 -2.3110
 8544SOL     OW26530   5.071   1.638   4.743  0.1304 -0.5684  0.2192
 8544SOL    HW126531   5.042   1.669   4.833  0.8154 -0.9823  0.5956
 8544SOL    HW226532   5.007   1.571   4.708 -0.8314  0.5230 -0.1729
 8545SOL     OW26533   5.351   1.220   4.747  0.0847  0.4028  0.0934
 8545SOL    HW126534   5.326   1.152   4.815  0.1326 -0.2582 -0.5430
 8545SOL    HW226535   5.268   1.254   4.702  0.2095 -1.2298 -1.4792
 8546SOL     OW26536   4.387   2.015   5.834 -0.1244  0.1317 -0.0003
 8546SOL    HW126537   4.363   2.035   5.740  1.2371  1.4574 -0.0960
 8546SOL    HW226538   4.486   2.016   5.845 -0.2508  2.4824  1.9101
 8547SOL     OW26539   2.832   6.521   3.956  0.6465 -0.7475  0.9819
 8547SOL    HW126540   2.786   6.517   3.868  1.4426  2.4395  0.2778
 8547SOL    HW226541   2.889   6.440   3.968 -0.7739 -2.0463 -0.6344
 8548SOL     OW26542   5.326   2.469   3.752 -0.2452  0.8217 -0.8457
 8548SOL    HW126543   5.227   2.468   3.764 -0.4056 -1.7059 -1.8111
 8548SOL    HW226544   5.349   2.436   3.660  1.4723  2.6658 -1.1473
 8549SOL     OW26545   5.013   1.861   4.526 -0.2131  0.1931 -0.4039
 8549SOL    HW126546   5.067   1.825   4.602 -0.9336  1.3364  0.6810
 8549SOL    HW226547   4.951   1.931   4.559  0.8488  2.1967 -2.3869
 8550SOL     OW26548   2.579   5.328   6.491 -0.1545  0.0445 -0.6671
 8550SOL    HW126549   2.542   5.238   6.514 -1.1037  0.4244 -0.6998
 8550SOL    HW226550   2.581   5.385   6.573 -0.9532  0.4830 -0.9442
 8551SOL     OW26551   1.901   4.836   6.466 -0.1105  0.6195  0.2800
 8551SOL    HW126552   1.830   4.795   6.408  0.9952 -0.9461 -0.0428
 8551SOL    HW226553   1.954   4.763   6.510 -0.1054  1.7636  2.2790
 8552SOL     OW26554   2.087   4.650   3.049  0.1468 -0.2233 -0.4663
 8552SOL    HW126555   1.993   4.625   3.074 -0.1152  0.4962 -0.6981
 8552SOL    HW226556   2.136   4.569   3.019  0.1912 -0.9569  1.4676
 8553SOL     OW26557   6.244   5.155   0.027  0.1086 -0.0850 -0.1059
 8553SOL    HW126558   6.316   5.210  -0.015 -0.7933 -0.6291 -2.5813
 8553SOL    HW226559   6.266   5.058   0.017 -0.0611 -0.2339  0.8806
 8554SOL     OW26560   5.263   4.465   6.718 -0.0927  0.0981  0.4366
 8554SOL    HW126561   5.216   4.494   6.634  1.0197  0.1955 -0.1810
 8554SOL    HW226562   5.331   4.395   6.695 -0.4383 -0.5710  1.4172
 8555SOL     OW26563   2.503   6.886   4.720 -0.4428  0.2499  0.5035
 8555SOL    HW126564   2.488   6.950   4.796  1.3486  1.2953  0.0452
 8555SOL    HW226565   2.586   6.912   4.671 -1.2474 -0.7333 -1.4945
 8556SOL     OW26566   5.872   0.821   5.665  0.2065  0.2448  0.5392
 8556SOL    HW126567   5.823   0.835   5.751  0.6774 -0.9898  1.0360
 8556SOL    HW226568   5.872   0.723   5.642 -0.3478  0.5950 -1.1466
 8557SOL     OW26569   6.004   1.203   3.726 -0.4195 -0.0374  0.3720
 8557SOL    HW126570   5.976   1.153   3.808 -1.1880 -0.6053 -0.2224
 8557SOL    HW226571   6.041   1.292   3.752 -0.1809 -0.4085  1.3630
 8558SOL     OW26572   1.918   2.990   1.288 -0.1581  0.4791  0.0115
 8558SOL    HW126573   2.006   2.947   1.266 -1.1052 -1.1161 -0.8972
 8558SOL    HW226574   1.873   3.019   1.203 -1.0176  0.1884  0.3502
 8559SOL     OW26575   0.694   0.017   5.659 -0.6334 -0.1241 -0.3315
 8559SOL    HW126576   0.746   0.025   5.744 -1.8508 -2.2924  0.7051
 8559SOL    HW226577   0.694   0.105   5.612  3.5255  0.1434 -0.2111
 8560SOL     OW26578   6.299   4.629   6.338  0.2921  0.1594  0.1031
 8560SOL    HW126579   6.234   4.645   6.412 -1.2463 -0.6852 -1.0075
 8560SOL    HW226580   6.366   4.703   6.335 -0.4922  0.9479  1.4070
 8561SOL     OW26581   5.719   6.002   4.416  0.4287 -0.3173 -0.4844
 8561SOL    HW126582   5.758   5.942   4.347 -0.7845  1.3787 -2.7710
 8561SOL    HW226583   5.743   6.097   4.396 -1.2282  0.3545  0.5215
 8562SOL     OW26584   5.599   1.486   6.750 -0.3219  0.2896 -0.2930
 8562SOL    HW126585   5.599   1.502   6.849  1.3305  1.6832 -0.4723
 8562SOL    HW226586   5.509   1.507   6.713 -1.2067 -1.0076  0.9950
 8563SOL     OW26587   2.516   2.214   5.794 -0.0747  0.3512 -0.3402
 8563SOL    HW126588   2.463   2.187   5.875  0.7760 -0.4760 -0.0417
 8563SOL    HW226589   2.477   2.172   5.713 -0.8159  1.0259 -0.3452
 8564SOL     OW26590   1.909   5.239   3.542  0.5014 -0.1185 -0.2591
 8564SOL    HW126591   1.951   5.170   3.483 -0.7710  0.4407 -1.9020
 8564SOL    HW226592   1.854   5.194   3.612  0.7064 -0.7819 -0.5135
 8565SOL     OW26593   2.592   0.277   2.306  0.3127  0.6235  0.3437
 8565SOL    HW126594   2.685   0.246   2.284  0.3880 -0.2797  1.7469
 8565SOL    HW226595   2.533   0.265   2.226  1.3248  0.8958 -0.4658
 8566SOL     OW26596   1.010   4.081   2.478 -0.2318  1.2191  0.0488
 8566SOL    HW126597   0.943   4.037   2.418  0.7426 -0.4007  0.0873
 8566SOL    HW226598   1.016   4.179   2.455 -0.4315  0.8028 -1.9921
 8567SOL     OW26599   4.606   6.863   4.855 -0.2358  0.0368  0.1635
 8567SOL    HW126600   4.579   6.943   4.800 -0.0231  0.7072  1.0240
 8567SOL    HW226601   4.572   6.873   4.948  1.1389 -0.1205  0.7063
 8568SOL     OW26602   6.941   1.038   0.765 -0.0780  0.0911 -0.0261
 8568SOL    HW126603   6.974   0.995   0.850 -1.2257 -0.2954  0.2420
 8568SOL    HW226604   7.004   1.110   0.738  2.4246 -2.2524 -0.9511
 8569SOL     OW26605   2.613   1.422   3.729 -0.1324  0.7760 -0.6768
 8569SOL    HW126606   2.557   1.469   3.661  1.2629  1.1596 -1.6023
 8569SOL    HW226607   2.708   1.420   3.699  0.3103 -0.2076  0.6639
 8570SOL     OW26608   0.718   3.400   5.064  0.0511 -0.0028 -0.4075
 8570SOL    HW126609   0.653   3.428   4.993 -0.5747 -1.7988 -0.6188
 8570SOL    HW226610   0.673   3.403   5.154 -0.6693 -2.0326 -0.6439
 8571SOL     OW26611   2.305   6.157   0.489  0.5387  0.2475 -0.5582
 8571SOL    HW126612   2.218   6.113   0.467  0.0470  0.4529  0.8755
 8571SOL    HW226613   2.341   6.119   0.574  1.5212  0.6419 -0.7871
 8572SOL     OW26614   2.175   3.534   0.210  0.7023  0.1719  0.1916
 8572SOL    HW126615   2.248   3.563   0.148  0.6319 -0.0944 -0.0207
 8572SOL    HW226616   2.121   3.613   0.236 -0.6467  0.0096 -1.8714
 8573SOL     OW26617   2.494   4.633   3.227  0.0183 -0.2826  0.3704
 8573SOL    HW126618   2.559   4.614   3.301 -0.0340  1.4769  0.9241
 8573SOL    HW226619   2.402   4.640   3.264 -0.4243 -1.9667 -0.2974
 8574SOL     OW26620   3.106   5.370   4.319  0.2219  0.2157  0.2504
 8574SOL    HW126621   3.133   5.347   4.412 -0.1562  0.2403  0.3670
 8574SOL    HW226622   3.016   5.415   4.320 -0.5954 -1.3362 -0.2691
 8575SOL     OW26623   2.925   2.424   0.696 -0.0324 -0.2465 -0.3357
 8575SOL    HW126624   2.925   2.516   0.735  0.7117 -0.4255  0.0892
 8575SOL    HW226625   2.887   2.360   0.763  0.4091 -0.4104 -0.2408
 8576SOL     OW26626   4.880   0.702   6.191 -0.6863 -0.2676  0.0692
 8576SOL    HW126627   4.957   0.666   6.243 -0.4476 -0.0089 -0.0976
 8576SOL    HW226628   4.872   0.801   6.207  0.3949  0.1424 -1.6015
 8577SOL     OW26629   6.264   6.475   6.838 -0.6436 -0.4194  0.0653
 8577SOL    HW126630   6.278   6.404   6.769  0.3863 -1.4206  1.2427
 8577SOL    HW226631   6.193   6.446   6.902  0.6099 -0.9596  1.2421
 8578SOL     OW26632   2.585   0.795   4.208 -0.4216  0.1123 -0.5933
 8578SOL    HW126633   2.564   0.720   4.271  2.2527 -0.7389 -0.5833
 8578SOL    HW226634   2.571   0.765   4.114  1.8676 -0.9404 -0.6600
 8579SOL     OW26635   1.611   4.362   2.664  0.3635 -0.9285  0.1887
 8579SOL    HW126636   1.571   4.421   2.593 -1.6654 -1.0821  1.1194
 8579SOL    HW226637   1.607   4.267   2.634 -3.7614 -1.4543  1.6840
 8580SOL     OW26638   3.002   6.665   5.415 -0.4294 -0.2814  0.0465
 8580SOL    HW126639   3.053   6.733   5.468  1.4916 -1.1125 -0.6092
 8580SOL    HW226640   3.062   6.586   5.397 -1.7681 -1.0225 -1.3717
 8581SOL     OW26641   3.294   2.144   5.278  0.3472  0.1314  0.1491
 8581SOL    HW126642   3.238   2.218   5.240  1.1795  1.5954  1.6439
 8581SOL    HW226643   3.302   2.156   5.377  1.5159 -1.2721  0.2553
 8582SOL     OW26644   4.447   5.674   6.314  0.4264  0.1405  0.2468
 8582SOL    HW126645   4.479   5.732   6.389  0.1431  0.1474  0.3615
 8582SOL    HW226646   4.524   5.619   6.280 -0.1184 -2.6391  2.9815
 8583SOL     OW26647   5.991   6.383   3.479 -0.0780 -0.3963 -0.5647
 8583SOL    HW126648   6.057   6.321   3.521 -1.6773 -1.7946  0.0390
 8583SOL    HW226649   5.994   6.373   3.380  0.0039 -1.1310 -0.4936
 8584SOL     OW26650   0.569   0.305   0.295  0.4128  0.1529  0.0670
 8584SOL    HW126651   0.523   0.225   0.333  0.6504 -0.3577 -0.7057
 8584SOL    HW226652   0.541   0.387   0.347 -2.2222  0.0354 -1.0112
 8585SOL     OW26653   0.825   6.134   1.834  0.0197 -0.1576 -0.2948
 8585SOL    HW126654   0.885   6.203   1.873  0.7972  0.1301 -1.9023
 8585SOL    HW226655   0.737   6.135   1.882 -0.0103  1.9721 -0.2843
 8586SOL     OW26656   2.007   6.019   5.403 -1.1184 -0.0579 -0.3241
 8586SOL    HW126657   2.028   6.106   5.358 -0.1658  0.3944  0.9302
 8586SOL    HW226658   1.966   6.037   5.492  0.0538 -0.8434  0.4129
 8587SOL     OW26659   1.886   2.264   0.059 -0.0150  0.2198  0.2048
 8587SOL    HW126660   1.962   2.212   0.099  0.3243  0.6664  0.1496
 8587SOL    HW226661   1.841   2.317   0.131 -2.3050 -2.4053  0.9191
 8588SOL     OW26662   3.811   4.092   5.647 -0.5354  0.1256 -0.9032
 8588SOL    HW126663   3.729   4.075   5.592 -0.3335 -0.7046 -0.9661
 8588SOL    HW226664   3.864   4.008   5.653  1.0084  0.9623 -1.9934
 8589SOL     OW26665   4.342   0.990   2.695  0.3747  0.2826  0.4910
 8589SOL    HW126666   4.334   1.059   2.767  1.7194  1.0861 -0.0976
 8589SOL    HW226667   4.381   1.031   2.613 -2.4080 -0.2860 -1.2497
 8590SOL     OW26668   3.637   4.955   5.396 -0.7723 -0.0943 -0.0637
 8590SOL    HW126669   3.708   4.888   5.374 -1.2736 -0.8044  0.4505
 8590SOL    HW226670   3.575   4.917   5.464  0.0362  1.6053  1.7093
 8591SOL     OW26671   0.197   2.187   6.971  0.3185 -0.2003  0.3048
 8591SOL    HW126672   0.197   2.126   7.050  2.2020  1.3404  1.5648
 8591SOL    HW226673   0.263   2.155   6.903 -0.4054 -0.8338 -0.1173
 8592SOL     OW26674   0.039   5.255   6.916 -0.0410  0.1348  0.5328
 8592SOL    HW126675   0.068   5.278   7.009 -0.6833  1.9028  0.3252
 8592SOL    HW226676   0.034   5.338   6.861  1.4225 -0.9907 -1.4334
 8593SOL     OW26677   7.014   5.542   3.844  0.4766 -0.2725 -0.6029
 8593SOL    HW126678   6.927   5.523   3.797  1.1127  0.2558 -2.0526
 8593SOL    HW226679   7.047   5.458   3.887  0.0049 -0.8671 -1.3548
 8594SOL     OW26680   3.740   3.966   1.693  0.3029  0.3490 -0.1510
 8594SOL    HW126681   3.836   3.947   1.674  0.6707  1.4250  0.5422
 8594SOL    HW226682   3.722   4.064   1.678 -0.6083  0.2166  0.0341
 8595SOL     OW26683   0.978   2.875   1.966 -0.2979 -0.1182  0.2286
 8595SOL    HW126684   0.899   2.926   2.001  0.1591  0.8652 -0.1326
 8595SOL    HW226685   1.059   2.933   1.968  0.5794 -1.3318  1.2081
 8596SOL     OW26686   5.656   5.893   0.726  0.0526  0.2298 -0.1721
 8596SOL    HW126687   5.628   5.811   0.775  1.6025 -1.4709 -1.9268
 8596SOL    HW226688   5.705   5.955   0.788 -0.8485 -0.3232  1.1048
 8597SOL     OW26689   1.738   1.754   0.638  0.1793  0.2844 -0.4672
 8597SOL    HW126690   1.778   1.706   0.716 -1.8523 -1.9834 -0.7066
 8597SOL    HW226691   1.783   1.723   0.554  0.1140  0.1808 -0.4647
 8598SOL     OW26692   0.465   3.981   1.279 -0.0162  0.3667  0.0888
 8598SOL    HW126693   0.369   3.959   1.259 -0.2806  0.1869  1.4662
 8598SOL    HW226694   0.470   4.038   1.361  0.9314  2.1706 -1.1601
 8599SOL     OW26695   0.923   2.705   0.088  0.2782  0.1505  0.0190
 8599SOL    HW126696   0.965   2.747   0.169  1.2825  0.5551 -0.6896
 8599SOL    HW226697   0.989   2.643   0.045  0.1036  0.6885 -1.0458
 8600SOL     OW26698   5.907   4.666   4.933 -0.0325  0.5628 -0.2552
 8600SOL    HW126699   5.988   4.681   4.877 -1.1949  0.8020 -1.9711
 8600SOL    HW226700   5.925   4.695   5.027  1.2806  2.4102 -1.0061
 8601SOL     OW26701   1.283   6.983   5.047  0.2838  0.6868 -0.5129
 8601SOL    HW126702   1.285   7.072   5.003  2.2883  0.1553 -1.6146
 8601SOL    HW226703   1.216   6.924   5.001 -2.3648  2.0715  1.3309
 8602SOL     OW26704   6.551   6.974   3.678 -0.2486  0.5673  0.1852
 8602SOL    HW126705   6.495   6.967   3.761 -0.3502  0.0633  0.0744
 8602SOL    HW226706   6.493   6.984   3.598 -0.1452  1.1979  0.1857
 8603SOL     OW26707   4.034   4.849   3.152 -0.0175 -0.2383 -0.0952
 8603SOL    HW126708   4.079   4.787   3.088 -0.1617 -0.3002 -0.1363
 8603SOL    HW226709   4.058   4.823   3.246 -0.1442 -0.4066 -0.1092
 8604SOL     OW26710   5.330   2.647   2.160  0.1404  0.1042 -0.2028
 8604SOL    HW126711   5.289   2.726   2.207  0.9634  1.5379 -1.8116
 8604SOL    HW226712   5.399   2.605   2.219 -0.4965  0.3912  0.7758
 8605SOL     OW26713   0.691   4.260   0.971 -0.0787 -0.8340  0.1431
 8605SOL    HW126714   0.766   4.197   0.990 -0.1051 -0.8534  0.1818
 8605SOL    HW226715   0.629   4.264   1.049 -0.7746 -1.7365 -0.3456
 8606SOL     OW26716   3.873   0.994   5.341 -0.2477 -0.3026  0.3089
 8606SOL    HW126717   3.916   1.066   5.395 -0.6569 -0.0004  0.2356
 8606SOL    HW226718   3.775   1.013   5.332  0.2146  1.1541 -2.8660
 8607SOL     OW26719   3.603   0.145   0.410  0.2679 -0.3675 -0.0971
 8607SOL    HW126720   3.555   0.151   0.323  1.4210 -1.6959 -0.8594
 8607SOL    HW226721   3.674   0.074   0.405  0.0061 -0.8678  2.0814
 8608SOL     OW26722   5.123   0.639   4.049  0.1049  0.2570  0.3513
 8608SOL    HW126723   5.194   0.691   4.097  1.5299  0.9383 -2.2918
 8608SOL    HW226724   5.128   0.657   3.951 -1.9277 -1.8931 -0.2675
 8609SOL     OW26725   1.026   1.389   6.256  0.0950 -0.0008 -0.4898
 8609SOL    HW126726   1.044   1.481   6.290 -2.1866 -0.6249  2.8577
 8609SOL    HW226727   0.981   1.395   6.166  1.1783  2.0323 -0.9572
 8610SOL     OW26728   0.924   0.444   4.934  0.5456 -0.1671  0.3896
 8610SOL    HW126729   0.967   0.371   4.882  1.3122 -0.5698  1.5475
 8610SOL    HW226730   0.840   0.409   4.977  0.7747 -0.2988  0.7330
 8611SOL     OW26731   1.089   0.200   4.428 -0.1979  0.2550 -0.4913
 8611SOL    HW126732   1.038   0.132   4.482  0.2839  0.1435 -0.1723
 8611SOL    HW226733   1.143   0.153   4.358 -1.3984  0.4420 -1.5928
 8612SOL     OW26734   5.083   4.249   4.827  0.1804 -0.1038 -0.4272
 8612SOL    HW126735   4.998   4.285   4.789  0.2552 -1.0464 -1.5501
 8612SOL    HW226736   5.064   4.164   4.875  0.1312  0.9461  1.5024
 8613SOL     OW26737   1.350   6.636   2.344 -0.3181  0.3264  0.0842
 8613SOL    HW126738   1.301   6.665   2.426 -1.5845 -0.8843 -0.2213
 8613SOL    HW226739   1.323   6.694   2.267  0.2383  0.9193  0.3220
 8614SOL     OW26740   0.975   2.387   3.575  0.1619 -0.1459  0.0905
 8614SOL    HW126741   0.891   2.335   3.591  0.2207 -0.4811 -0.6531
 8614SOL    HW226742   0.970   2.474   3.624 -0.9799  0.2006 -0.5873
 8615SOL     OW26743   4.699   1.726   6.163  0.4715  0.7389 -0.2122
 8615SOL    HW126744   4.768   1.715   6.092  0.0216  0.8585 -0.6688
 8615SOL    HW226745   4.612   1.687   6.133  0.7927 -1.1692  1.1067
 8616SOL     OW26746   0.970   2.498   5.350  0.3263  0.4444  0.2516
 8616SOL    HW126747   0.987   2.558   5.428 -0.2475  0.4619  0.3737
 8616SOL    HW226748   0.893   2.534   5.297  0.7134  0.4292 -0.3183
 8617SOL     OW26749   0.121   4.363   6.986  0.5317 -0.2149 -0.0477
 8617SOL    HW126750   0.076   4.318   6.909  0.9665  0.3935 -0.6725
 8617SOL    HW226751   0.209   4.399   6.956  0.8656 -0.2864  0.8336
 8618SOL     OW26752   3.089   6.444   2.946 -0.0310  0.1025 -0.3657
 8618SOL    HW126753   3.145   6.515   2.904 -1.5691  0.6950 -1.5301
 8618SOL    HW226754   2.995   6.477   2.955 -0.2795 -0.9335  1.3166
 8619SOL     OW26755   4.840   7.019   0.062  0.0014 -0.1900  0.1685
 8619SOL    HW126756   4.884   7.109   0.064 -0.4519  0.0173  1.7208
 8619SOL    HW226757   4.909   6.948   0.077  0.2893 -0.0908 -0.6251
 8620SOL     OW26758   5.342   6.875   5.278 -0.9269  0.0078 -0.1847
 8620SOL    HW126759   5.265   6.920   5.233 -0.3112  1.7117  0.3874
 8620SOL    HW226760   5.342   6.898   5.375  0.4403  0.2736 -0.2218
 8621SOL     OW26761   4.157   1.729   3.875 -0.2565 -0.2554  0.3239
 8621SOL    HW126762   4.096   1.759   3.801  0.5362  0.9300  0.1316
 8621SOL    HW226763   4.134   1.777   3.959  1.2495  1.2749 -0.0709
 8622SOL     OW26764   2.428   5.552   4.722 -0.5232  0.9075  0.4786
 8622SOL    HW126765   2.395   5.621   4.787 -1.6437  3.4592 -2.5540
 8622SOL    HW226766   2.354   5.528   4.659  1.3696  1.2790 -2.0266
 8623SOL     OW26767   4.841   1.141   3.123 -1.0195  0.1658 -0.0174
 8623SOL    HW126768   4.799   1.128   3.213 -0.5604 -1.8527 -0.0520
 8623SOL    HW226769   4.791   1.087   3.056 -0.3931  0.4165 -0.6891
 8624SOL     OW26770   0.496   1.860   3.218 -0.4999  0.0359 -0.4152
 8624SOL    HW126771   0.592   1.843   3.239 -0.2174  0.9870 -0.8921
 8624SOL    HW226772   0.469   1.805   3.139 -0.6596 -1.0297  0.3457
 8625SOL     OW26773   4.204   1.198   6.319  0.0015 -0.0059 -0.0573
 8625SOL    HW126774   4.302   1.211   6.305  0.1186 -0.6303  0.1508
 8625SOL    HW226775   4.157   1.285   6.305  0.2010 -0.3090 -3.3888
 8626SOL     OW26776   3.341   3.597   1.726  1.2041 -0.0024  0.0775
 8626SOL    HW126777   3.352   3.504   1.761 -0.1880 -0.4696 -0.6761
 8626SOL    HW226778   3.348   3.596   1.626 -0.6002  0.4095 -0.0747
 8627SOL     OW26779   3.720   5.315   6.197  0.5639  0.0137  0.6624
 8627SOL    HW126780   3.674   5.404   6.189  0.5246  0.0557  1.3412
 8627SOL    HW226781   3.654   5.242   6.181  0.6891  0.1008 -0.3571
 8628SOL     OW26782   5.821   6.775   0.960 -0.1393 -0.7388 -0.3515
 8628SOL    HW126783   5.744   6.712   0.954 -0.8756 -0.0983  1.5586
 8628SOL    HW226784   5.797   6.861   0.914 -1.1235 -0.0779  1.3071
 8629SOL     OW26785   1.929   6.760   6.416 -0.5231  0.1130 -0.0457
 8629SOL    HW126786   1.963   6.721   6.331 -0.4434 -3.1117  1.3407
 8629SOL    HW226787   2.000   6.756   6.486 -0.8984  1.8529  0.4958
 8630SOL     OW26788   0.581   5.637   3.511  0.2007  0.4828  0.2677
 8630SOL    HW126789   0.556   5.721   3.462 -1.0901  0.6274  1.1305
 8630SOL    HW226790   0.514   5.620   3.583  1.7160 -0.0597  1.5839
 8631SOL     OW26791   4.457   6.080   3.166  0.4563 -0.1636  0.1182
 8631SOL    HW126792   4.433   6.032   3.251  1.8894 -0.7769  0.1988
 8631SOL    HW226793   4.557   6.086   3.158  0.3400 -0.0415 -1.4954
 8632SOL     OW26794   1.866   5.659   4.514  0.0990  0.6594 -0.0975
 8632SOL    HW126795   1.923   5.621   4.587  0.5775  0.4030 -0.5950
 8632SOL    HW226796   1.776   5.615   4.515  0.1295  0.6059  0.2883
 8633SOL     OW26797   5.139   0.520   2.308  0.0748 -0.0285 -0.4942
 8633SOL    HW126798   5.198   0.599   2.291 -0.7940  0.7362 -0.0004
 8633SOL    HW226799   5.180   0.463   2.379 -1.0235  1.9310  1.8613
 8634SOL     OW26800   6.013   1.472   1.743  0.1325 -0.4886 -0.2388
 8634SOL    HW126801   5.977   1.518   1.824  2.7485  0.8843  0.2702
 8634SOL    HW226802   6.049   1.383   1.768  0.4892 -0.2705  0.0372
 8635SOL     OW26803   5.094   4.370   5.601 -0.0961  0.2691  0.2718
 8635SOL    HW126804   5.125   4.464   5.586 -1.1842  0.5282 -0.4687
 8635SOL    HW226805   5.011   4.353   5.548 -0.3496 -0.8761  0.9909
 8636SOL     OW26806   5.967   5.688   2.007 -0.5267 -0.0613  0.3176
 8636SOL    HW126807   5.940   5.657   1.916 -0.5965 -1.1518  0.6971
 8636SOL    HW226808   5.976   5.609   2.067  0.8337  0.5278  0.9114
 8637SOL     OW26809   1.113   0.032   2.716  0.0711 -0.0344  0.4617
 8637SOL    HW126810   1.182  -0.030   2.754  0.5948  0.0073 -0.4125
 8637SOL    HW226811   1.039   0.043   2.783 -0.0787 -1.6540  0.5976
 8638SOL     OW26812   6.381   4.282   0.751  0.7177 -0.1863  0.3613
 8638SOL    HW126813   6.319   4.359   0.742  0.5289 -0.0860  2.1903
 8638SOL    HW226814   6.467   4.302   0.703  0.5563  1.0262  0.5536
 8639SOL     OW26815   4.680   1.564   3.691 -0.0530 -0.1243  0.7668
 8639SOL    HW126816   4.673   1.638   3.757 -1.1057 -0.9117  1.5634
 8639SOL    HW226817   4.615   1.492   3.713  0.5797 -1.0701 -0.2911
 8640SOL     OW26818   6.013   6.257   1.084 -0.5447 -0.3861  0.1232
 8640SOL    HW126819   5.993   6.202   1.003  0.4861  0.2895 -0.6145
 8640SOL    HW226820   5.991   6.205   1.167 -1.0856 -1.2904 -0.5812
 8641SOL     OW26821   6.359   4.647   3.914 -0.1230 -0.0601 -0.3097
 8641SOL    HW126822   6.457   4.636   3.895 -0.3102 -1.1005 -0.7543
 8641SOL    HW226823   6.320   4.714   3.851  0.5757  1.4292  0.8041
 8642SOL     OW26824   2.710   0.966   0.682  0.2893 -0.2399 -0.2188
 8642SOL    HW126825   2.685   1.056   0.648 -1.1103 -0.6386 -0.2877
 8642SOL    HW226826   2.803   0.969   0.720 -0.5206  1.7807  1.7955
 8643SOL     OW26827   5.458   1.022   0.973  0.4099  0.2741 -0.1283
 8643SOL    HW126828   5.451   0.945   0.909 -2.2985  0.9125 -0.7261
 8643SOL    HW226829   5.552   1.057   0.973  0.9202 -0.8909 -2.4048
 8644SOL     OW26830   4.887   3.982   4.183  0.1354 -0.6494 -0.2689
 8644SOL    HW126831   4.859   4.067   4.139 -0.6408 -0.8245 -0.1370
 8644SOL    HW226832   4.919   3.917   4.115 -1.1768 -0.9663 -0.6209
 8645SOL     OW26833   5.787   3.978   2.552 -0.2019 -0.5430  0.2253
 8645SOL    HW126834   5.783   3.894   2.605 -0.5155  0.0595  1.1850
 8645SOL    HW226835   5.765   3.958   2.456 -0.4922 -1.5132  0.4838
 8646SOL     OW26836   5.765   6.401   0.809 -0.0050 -0.5867  0.4951
 8646SOL    HW126837   5.670   6.373   0.799 -0.1511 -0.1176  0.5509
 8646SOL    HW226838   5.773   6.469   0.882 -0.0406  1.3008 -1.1644
 8647SOL     OW26839   5.961   0.038   1.031 -0.2259  0.3866  0.0798
 8647SOL    HW126840   5.984  -0.058   1.050  0.2419  0.6865  1.0947
 8647SOL    HW226841   6.038   0.081   0.983 -0.7445  0.0689 -1.0792
 8648SOL     OW26842   3.396   6.856   4.649  0.7833  0.0461  1.0034
 8648SOL    HW126843   3.339   6.827   4.726  1.2358 -1.3880  0.8288
 8648SOL    HW226844   3.432   6.775   4.602  0.5115  0.8855 -0.7246
 8649SOL     OW26845   6.007   2.799   5.917 -0.0563  0.3544  0.1862
 8649SOL    HW126846   6.097   2.758   5.905  0.5096  1.4881  0.3469
 8649SOL    HW226847   5.994   2.871   5.849 -0.5766  0.6333  0.5720
 8650SOL     OW26848   5.545   5.931   2.011 -0.2593  0.4323 -0.3426
 8650SOL    HW126849   5.494   5.893   2.088 -0.3225  1.2174  0.0145
 8650SOL    HW226850   5.516   6.025   1.995  1.4445  1.1139  0.2364
 8651SOL     OW26851   5.840   4.568   1.578 -0.1740  0.1527  0.2757
 8651SOL    HW126852   5.900   4.542   1.654 -0.7145  2.0565  1.4443
 8651SOL    HW226853   5.889   4.557   1.492  0.9651 -0.7324  0.9991
 8652SOL     OW26854   7.018   1.995   4.310  0.1306 -0.3418 -0.1384
 8652SOL    HW126855   6.933   1.989   4.363  0.8126  1.1205  1.1734
 8652SOL    HW226856   7.030   1.910   4.258 -1.8245 -0.8167  0.0819
 8653SOL     OW26857   5.911   3.941   6.196 -0.2338 -0.2527 -0.0091
 8653SOL    HW126858   5.927   4.005   6.271 -1.2163  0.2165 -0.1805
 8653SOL    HW226859   5.866   3.858   6.231  0.3863 -0.5494  0.0989
 8654SOL     OW26860   2.120   4.576   0.592 -0.3121  0.0721  0.5275
 8654SOL    HW126861   2.039   4.530   0.556 -0.6130  0.5988  0.5362
 8654SOL    HW226862   2.120   4.672   0.563 -0.8087  0.6452  2.3207
 8655SOL     OW26863   4.347   1.985   4.356  0.9712 -0.2384  0.0431
 8655SOL    HW126864   4.394   1.955   4.439  2.4676  1.3961 -0.1651
 8655SOL    HW226865   4.315   2.079   4.367  0.5911 -0.2344 -0.9884
 8656SOL     OW26866   4.579   1.383   0.899  0.3796 -0.4904 -0.2212
 8656SOL    HW126867   4.517   1.415   0.828  0.8320 -1.6586 -1.1719
 8656SOL    HW226868   4.631   1.304   0.866 -0.3105 -1.9054  1.8023
 8657SOL     OW26869   3.715   4.539   6.935  0.0408  0.1153 -0.1891
 8657SOL    HW126870   3.625   4.514   6.900  0.0790  2.0779 -1.8249
 8657SOL    HW226871   3.705   4.605   7.009  0.0848  2.3156 -2.0237
 8658SOL     OW26872   1.059   6.429   2.508  0.2590  0.0349  0.2462
 8658SOL    HW126873   1.022   6.390   2.593 -1.1355  0.3904 -0.1794
 8658SOL    HW226874   1.122   6.504   2.531 -0.4207  0.3984  0.9693
 8659SOL     OW26875   4.147   1.193   4.737 -0.0454  0.2998 -0.1610
 8659SOL    HW126876   4.247   1.185   4.742  0.1370  2.5064  0.7260
 8659SOL    HW226877   4.122   1.238   4.651 -0.0722  1.7399  0.5644
 8660SOL     OW26878   4.845   5.220   5.311 -0.2767 -0.3766 -0.3114
 8660SOL    HW126879   4.841   5.256   5.404  0.9199  0.9945 -0.7381
 8660SOL    HW226880   4.804   5.129   5.307 -0.7684 -0.2516  1.4435
 8661SOL     OW26881   6.153   4.671   2.501 -0.4751  0.1104  0.4458
 8661SOL    HW126882   6.057   4.683   2.477 -0.1265 -1.0082 -1.8256
 8661SOL    HW226883   6.202   4.757   2.487 -0.8246  0.1936 -0.3417
 8662SOL     OW26884   1.969   1.431   6.962 -0.2826 -0.2848 -0.1642
 8662SOL    HW126885   2.008   1.498   6.899 -2.2687  0.7203 -0.3860
 8662SOL    HW226886   1.990   1.339   6.929  0.9582  0.2196 -0.8397
 8663SOL     OW26887   3.531   5.127   0.308 -0.3991  0.1216  0.2543
 8663SOL    HW126888   3.589   5.188   0.362  3.5400 -3.0174 -0.0029
 8663SOL    HW226889   3.556   5.134   0.212 -3.1930  1.3246 -0.4774
 8664SOL     OW26890   4.957   3.423   1.946 -0.0919  0.2577 -0.4421
 8664SOL    HW126891   4.957   3.510   1.896 -1.3843 -0.7244 -2.2421
 8664SOL    HW226892   4.894   3.359   1.902  1.5433 -1.9495  0.2363
 8665SOL     OW26893   5.686   5.108   3.343 -0.4566 -0.0483  0.1251
 8665SOL    HW126894   5.720   5.177   3.279  0.3431 -0.3885  0.1771
 8665SOL    HW226895   5.670   5.022   3.293 -0.7559 -0.0370  0.2004
 8666SOL     OW26896   1.111   3.930   2.720  0.1589 -0.5752  0.1965
 8666SOL    HW126897   1.078   3.944   2.626 -0.1290 -0.1220  0.3646
 8666SOL    HW226898   1.039   3.887   2.775  0.3510 -0.9027  0.1967
 8667SOL     OW26899   5.586   2.456   1.879  0.3329 -0.0609 -0.5062
 8667SOL    HW126900   5.487   2.439   1.883  0.0933  0.8635 -1.7464
 8667SOL    HW226901   5.619   2.436   1.786  1.1088  0.6650 -0.3966
 8668SOL     OW26902   2.703   1.232   6.066  0.5700  0.1323  0.2316
 8668SOL    HW126903   2.642   1.261   5.992  0.2884  1.3236  0.8981
 8668SOL    HW226904   2.695   1.133   6.080 -1.6662  0.3210  0.6858
 8669SOL     OW26905   2.712   0.215   5.076  0.1915 -0.3566 -0.1329
 8669SOL    HW126906   2.642   0.145   5.058  0.1980 -0.4740  0.2926
 8669SOL    HW226907   2.699   0.252   5.168  2.2948 -2.2643  1.0249
 8670SOL     OW26908   2.314   6.674   5.747 -0.0783  0.4025 -0.1356
 8670SOL    HW126909   2.379   6.684   5.672  1.1769 -1.4220  0.6139
 8670SOL    HW226910   2.356   6.707   5.832 -1.2179  1.8010 -0.0813
 8671SOL     OW26911   5.791   4.370   6.370  0.0290 -0.0740  0.5940
 8671SOL    HW126912   5.791   4.353   6.469 -1.0666  1.4037  0.8755
 8671SOL    HW226913   5.882   4.400   6.342  0.4072 -0.7169  1.1043
 8672SOL     OW26914   1.695   5.304   6.283  0.5577 -0.5780 -0.3400
 8672SOL    HW126915   1.755   5.231   6.250  1.7874 -0.0919  0.7838
 8672SOL    HW226916   1.633   5.268   6.353 -0.0605 -0.9266 -1.0444
 8673SOL     OW26917   5.319   1.745   1.014  0.1204  0.2953 -0.3988
 8673SOL    HW126918   5.322   1.803   0.933 -0.0036 -2.1959 -2.3190
 8673SOL    HW226919   5.235   1.691   1.013  1.0075 -1.1496  0.3698
 8674SOL     OW26920   6.729   1.122   2.820 -0.0546 -0.2962  0.0117
 8674SOL    HW126921   6.762   1.216   2.821  0.4029 -0.4094 -1.8351
 8674SOL    HW226922   6.739   1.083   2.912 -0.6135  1.5439  0.9185
 8675SOL     OW26923   2.386   2.546   1.052 -0.0192 -0.3270 -0.1756
 8675SOL    HW126924   2.442   2.561   1.134  1.6278 -0.0069 -1.3145
 8675SOL    HW226925   2.397   2.624   0.990  0.0933 -1.3240 -1.4333
 8676SOL     OW26926   5.293   1.990   6.237  0.1711  0.4477  0.8006
 8676SOL    HW126927   5.315   2.045   6.156  2.2987  0.2408  1.1827
 8676SOL    HW226928   5.295   2.049   6.318 -2.6587  0.8115  0.7154
 8677SOL     OW26929   3.609   3.406   6.166 -0.2565  0.4539  0.5068
 8677SOL    HW126930   3.513   3.389   6.145 -0.1736  0.3721  0.1859
 8677SOL    HW226931   3.659   3.425   6.081  0.4733 -1.7444  0.3980
 8678SOL     OW26932   0.356   1.099   6.858  0.2055 -0.4481 -0.3101
 8678SOL    HW126933   0.399   1.179   6.900 -1.1713 -0.2096  0.6951
 8678SOL    HW226934   0.390   1.088   6.764 -0.9161  2.3952 -1.1339
 8679SOL     OW26935   4.465   1.355   4.552  0.8403 -0.3139  0.2500
 8679SOL    HW126936   4.456   1.440   4.604  2.0871  0.4161 -0.6715
 8679SOL    HW226937   4.456   1.374   4.454  2.0698 -1.0735 -0.0322
 8680SOL     OW26938   0.160   2.389   6.572 -0.0532 -1.1446 -0.0725
 8680SOL    HW126939   0.199   2.478   6.596  0.2459 -0.9969 -1.0528
 8680SOL    HW226940   0.232   2.330   6.536 -0.3885 -1.5367 -0.1076
 8681SOL     OW26941   4.966   4.324   3.499  0.2490 -0.9119 -0.1165
 8681SOL    HW126942   4.919   4.304   3.585 -3.1077 -1.0807 -1.8403
 8681SOL    HW226943   4.903   4.313   3.422  2.0664  2.5778 -2.3984
 8682SOL     OW26944   0.315   5.523   2.203 -0.1042 -0.1150  0.0700
 8682SOL    HW126945   0.389   5.526   2.269  0.3402 -0.3804 -0.4091
 8682SOL    HW226946   0.253   5.600   2.218 -0.3844 -0.5520  1.2233
 8683SOL     OW26947   4.914   3.744   4.767 -0.2727  0.9399 -0.1098
 8683SOL    HW126948   4.887   3.832   4.727 -1.5884  1.1574  1.1721
 8683SOL    HW226949   4.863   3.729   4.851 -0.8255 -1.5283 -0.8067
 8684SOL     OW26950   5.429   2.175   2.654  0.3668 -0.1805  0.4770
 8684SOL    HW126951   5.521   2.137   2.649  0.3508 -0.4889  2.0854
 8684SOL    HW226952   5.432   2.265   2.698  0.0016  0.2393 -0.3241
 8685SOL     OW26953   0.018   3.992   5.473  0.3904 -0.1877 -0.2491
 8685SOL    HW126954  -0.016   4.012   5.565  2.0769  0.4265  0.2810
 8685SOL    HW226955  -0.006   3.898   5.448 -0.0583 -0.3687  0.8324
 8686SOL     OW26956   4.486   0.878   4.635 -0.6523  0.1114 -0.5291
 8686SOL    HW126957   4.572   0.840   4.600 -1.4847  0.2123 -2.8833
 8686SOL    HW226958   4.419   0.804   4.645 -1.1241  0.3934 -1.4633
 8687SOL     OW26959   3.816   0.718   3.033  0.3212  0.1515 -0.5744
 8687SOL    HW126960   3.880   0.759   2.967 -0.0078 -1.8746 -2.2628
 8687SOL    HW226961   3.864   0.651   3.089  0.1151  0.1858 -0.3553
 8688SOL     OW26962   6.947   0.452   0.783  0.3037  0.1887 -0.4850
 8688SOL    HW126963   6.943   0.469   0.685  0.0032 -0.4177 -0.5847
 8688SOL    HW226964   6.920   0.535   0.832  2.3655  1.1236 -0.8464
 8689SOL     OW26965   6.364   4.338   1.385 -0.2155 -0.6460 -0.2131
 8689SOL    HW126966   6.267   4.313   1.379 -0.3227 -0.1454 -0.6280
 8689SOL    HW226967   6.386   4.363   1.479 -0.6641 -0.0623 -0.2610
 8690SOL     OW26968   0.641   0.681   2.719 -0.0493  0.2286 -0.3442
 8690SOL    HW126969   0.583   0.640   2.789 -0.2396  0.0771 -0.5909
 8690SOL    HW226970   0.725   0.628   2.710  0.7405  1.1821  0.9405
 8691SOL     OW26971   4.347   0.319   0.393 -0.5623  0.5525 -0.0371
 8691SOL    HW126972   4.350   0.418   0.383  1.1012  0.7684  2.0557
 8691SOL    HW226973   4.438   0.281   0.383 -1.2094 -0.8291 -1.0243
 8692SOL     OW26974   2.519   0.985   4.394 -0.5126 -0.7023 -0.4793
 8692SOL    HW126975   2.551   1.078   4.376 -2.0826 -0.1933 -0.7674
 8692SOL    HW226976   2.530   0.929   4.311  2.7184 -1.5196  0.3778
 8693SOL     OW26977   5.431   3.488   1.211 -0.3607 -0.1537 -0.3608
 8693SOL    HW126978   5.397   3.582   1.211  0.1322  0.0318  0.2511
 8693SOL    HW226979   5.354   3.424   1.209 -0.6934  0.2386 -2.4942
 8694SOL     OW26980   2.286   1.184   5.900 -0.0265 -1.1422 -0.5578
 8694SOL    HW126981   2.263   1.277   5.874 -3.7667 -0.9490  2.5291
 8694SOL    HW226982   2.249   1.120   5.833  0.5080 -0.5126 -1.4688
 8695SOL     OW26983   4.004   3.148   3.984  0.0062  0.1079  0.0917
 8695SOL    HW126984   3.983   3.089   3.906  1.1919  0.2045 -0.3154
 8695SOL    HW226985   3.945   3.122   4.061  0.6555 -1.7958  0.0045
 8696SOL     OW26986   3.714   4.826   6.701 -0.1326  0.2341  0.0571
 8696SOL    HW126987   3.728   4.727   6.699 -0.0844  0.2453 -0.4651
 8696SOL    HW226988   3.766   4.868   6.627 -2.3286  0.3515 -1.5412
 8697SOL     OW26989   6.064   0.595   6.031 -0.2053 -0.6054  0.0644
 8697SOL    HW126990   5.978   0.646   6.027 -0.1555 -0.3165  1.8230
 8697SOL    HW226991   6.130   0.647   6.085  0.8688 -1.1479 -0.6895
 8698SOL     OW26992   6.046   6.448   6.088 -0.2193 -0.7372 -0.1616
 8698SOL    HW126993   6.076   6.355   6.107  0.2457 -0.6227 -0.3206
 8698SOL    HW226994   6.095   6.512   6.148 -0.9105 -0.6369  0.3098
 8699SOL     OW26995   2.767   0.176   3.784  0.7129  0.4758  0.0548
 8699SOL    HW126996   2.712   0.183   3.701 -1.1428 -0.7180  1.1079
 8699SOL    HW226997   2.728   0.233   3.855  0.0146 -1.3262  1.1952
 8700SOL     OW26998   0.771   0.070   6.200  0.0423 -0.4086  0.5118
 8700SOL    HW126999   0.760  -0.027   6.220 -0.2264 -0.2769  1.0279
 8700SOL    HW227000   0.705   0.099   6.131  1.5204 -1.0562 -1.2716
 8701SOL     OW27001   0.455   5.259   4.301 -0.1779 -0.2077  0.1372
 8701SOL    HW127002   0.403   5.345   4.306 -0.0142 -0.0366 -0.8716
 8701SOL    HW227003   0.393   5.184   4.280 -0.0754 -0.0552 -0.7370
 8702SOL     OW27004   5.676   6.478   6.122 -0.2139  0.0584  0.0069
 8702SOL    HW127005   5.726   6.391   6.120  0.2862  0.3404  0.0570
 8702SOL    HW227006   5.646   6.502   6.029 -1.3753 -0.7412  0.1528
 8703SOL     OW27007   1.145   3.623   5.727  0.1790  0.5191 -0.2970
 8703SOL    HW127008   1.180   3.714   5.749 -0.8137  0.8258  0.0655
 8703SOL    HW227009   1.081   3.629   5.650 -0.2694  0.2141  0.0431
 8704SOL     OW27010   1.525   4.543   2.473  0.0377  0.5825  0.7033
 8704SOL    HW127011   1.430   4.562   2.497 -1.1718 -0.8232 -2.3859
 8704SOL    HW227012   1.573   4.629   2.455 -1.4696  1.2541 -0.2815
 8705SOL     OW27013   4.921   0.783   3.523 -0.3219 -0.1775 -0.3729
 8705SOL    HW127014   4.829   0.793   3.562 -0.6628  0.7485 -1.3782
 8705SOL    HW227015   4.951   0.870   3.486  0.3087 -0.8420 -1.4747
 8706SOL     OW27016   5.934   6.285   5.521  0.0550 -0.6997  0.2275
 8706SOL    HW127017   6.031   6.262   5.516  0.1462 -0.5526  1.0792
 8706SOL    HW227018   5.889   6.259   5.436  0.7932 -0.9889 -0.0853
 8707SOL     OW27019   2.850   1.549   5.394  0.2984 -0.1085  0.2965
 8707SOL    HW127020   2.777   1.553   5.326 -1.3749 -1.9020  1.8590
 8707SOL    HW227021   2.935   1.517   5.350 -0.4239 -0.1102 -1.1532
 8708SOL     OW27022   3.405   1.960   0.241 -0.3209  0.0207  0.0345
 8708SOL    HW127023   3.329   1.895   0.238  1.4236 -2.3598  2.3397
 8708SOL    HW227024   3.420   1.999   0.150 -0.6927 -3.8364 -1.8744
 8709SOL     OW27025   5.790   2.768   6.977  0.2588  0.1463  0.2994
 8709SOL    HW127026   5.760   2.674   6.996 -1.0023  0.2629 -0.9232
 8709SOL    HW227027   5.818   2.812   7.062 -0.4440 -0.9102  1.1038
 8710SOL     OW27028   6.793   3.082   3.402  0.5083 -0.1956 -0.0469
 8710SOL    HW127029   6.861   3.137   3.449 -0.4138  2.1844 -1.3504
 8710SOL    HW227030   6.720   3.055   3.465  1.2195 -0.3754  0.7073
 8711SOL     OW27031   1.881   2.762   4.447  0.1332  0.2255 -0.0077
 8711SOL    HW127032   1.867   2.781   4.350 -0.7891  0.0898  0.0886
 8711SOL    HW227033   1.955   2.819   4.482  0.5842  0.1573 -0.8263
 8712SOL     OW27034   4.075   5.834   0.187  0.2086  0.6157  0.0907
 8712SOL    HW127035   4.017   5.792   0.257  0.2276  0.2278 -0.1208
 8712SOL    HW227036   4.053   5.931   0.179 -0.8991  0.3375 -0.4682
 8713SOL     OW27037   1.153   5.243   4.204  0.0307  0.1447 -0.9579
 8713SOL    HW127038   1.207   5.286   4.276 -1.8922 -1.6676  1.7623
 8713SOL    HW227039   1.088   5.310   4.167 -1.4256  0.2938  1.6352
 8714SOL     OW27040   1.798   3.344   3.046  0.1300 -0.0284 -0.1546
 8714SOL    HW127041   1.814   3.324   3.142 -0.0594 -2.2196 -0.5146
 8714SOL    HW227042   1.716   3.401   3.037 -1.0967 -1.5287  0.9197
 8715SOL     OW27043   3.771   0.857   2.342  0.5231 -0.3610 -0.4277
 8715SOL    HW127044   3.850   0.917   2.342 -0.8912  1.7011 -3.3802
 8715SOL    HW227045   3.792   0.773   2.291  0.6976  0.3954 -1.6288
 8716SOL     OW27046   1.079   0.445   4.009 -0.0660 -0.7200 -0.5176
 8716SOL    HW127047   1.031   0.523   3.967 -2.8450 -1.4717  1.0109
 8716SOL    HW227048   1.056   0.441   4.106  2.5793 -1.6562  0.1419
 8717SOL     OW27049   6.418   4.816   5.353  0.5259  1.0510  0.1321
 8717SOL    HW127050   6.454   4.743   5.295 -2.3706  0.9187 -1.6951
 8717SOL    HW227051   6.448   4.904   5.318  2.5597  0.8736  1.2799
 8718SOL     OW27052   6.407   4.501   4.363  0.4688 -0.5565 -0.1973
 8718SOL    HW127053   6.434   4.471   4.271  1.4902 -1.1319  0.2717
 8718SOL    HW227054   6.444   4.437   4.430 -1.1348 -0.7244  0.5643
 8719SOL     OW27055   0.105   0.972   5.627 -0.1378 -0.1300 -0.0628
 8719SOL    HW127056   0.159   0.959   5.709 -2.1538  0.1966  1.3897
 8719SOL    HW227057   0.071   1.066   5.624 -1.0587 -0.4703 -0.6373
 8720SOL     OW27058   3.794   3.044   5.670 -0.0942 -0.6681  0.4605
 8720SOL    HW127059   3.787   2.950   5.636 -1.1721 -0.3645 -0.1853
 8720SOL    HW227060   3.703   3.085   5.674  0.4411  0.5994  0.0375
 8721SOL     OW27061   0.315   0.731   6.736 -0.2148 -0.7369 -0.7853
 8721SOL    HW127062   0.329   0.691   6.645 -0.6025 -0.5917 -0.9075
 8721SOL    HW227063   0.218   0.743   6.753 -0.2233 -1.8871  0.1336
 8722SOL     OW27064   4.916   2.795   0.366 -1.1916  0.4677  0.4485
 8722SOL    HW127065   4.883   2.862   0.300 -0.5848 -1.3374 -1.7948
 8722SOL    HW227066   5.016   2.793   0.364 -1.2057 -0.5440  0.4355
 8723SOL     OW27067   0.547   5.500   1.484  0.2790  0.1924  0.4843
 8723SOL    HW127068   0.496   5.505   1.398 -0.0987 -0.6217  0.6512
 8723SOL    HW227069   0.519   5.576   1.544  1.0841  1.2067 -0.3810
 8724SOL     OW27070   6.284   5.234   5.265 -0.6936 -0.3614  0.2323
 8724SOL    HW127071   6.348   5.303   5.233 -0.7816 -0.0522  0.7052
 8724SOL    HW227072   6.191   5.259   5.240 -0.7013 -0.4311  0.1902
 8725SOL     OW27073   1.297   6.716   6.957 -0.5978 -0.1078 -0.3014
 8725SOL    HW127074   1.250   6.690   6.873 -1.6305  1.3352 -0.2286
 8725SOL    HW227075   1.277   6.649   7.028 -0.7810 -0.6610 -0.8652
 8726SOL     OW27076   0.152   1.031   6.574 -0.3802  0.3382  0.1418
 8726SOL    HW127077   0.137   0.938   6.609 -1.4488  0.9916  1.4933
 8726SOL    HW227078   0.250   1.050   6.572 -0.1630 -0.7099  0.1386
 8727SOL     OW27079   3.729   6.342   0.770 -0.4097 -0.5665 -0.6839
 8727SOL    HW127080   3.680   6.273   0.823 -2.2272  0.0548 -1.4544
 8727SOL    HW227081   3.769   6.299   0.689  0.3763 -1.0870 -0.0372
 8728SOL     OW27082   3.451   6.260   5.003 -0.4567 -0.3843  0.4484
 8728SOL    HW127083   3.506   6.318   5.064 -0.9695  1.1163 -0.4585
 8728SOL    HW227084   3.357   6.294   5.000 -1.1096 -2.0528  0.8507
 8729SOL     OW27085   7.017   0.185   4.366 -0.2701  0.3097 -0.0341
 8729SOL    HW127086   6.918   0.184   4.379 -0.5296 -3.1156 -1.1020
 8729SOL    HW227087   7.038   0.183   4.268  0.7949  0.0702  0.1820
 8730SOL     OW27088   5.231   6.544   2.103 -0.0427  0.2335  0.1918
 8730SOL    HW127089   5.219   6.537   2.202  3.0362 -4.1498  0.5562
 8730SOL    HW227090   5.323   6.578   2.083  0.0917 -0.7820 -1.0562
 8731SOL     OW27091   1.340   1.373   3.351 -0.4615  0.4015  0.3101
 8731SOL    HW127092   1.337   1.460   3.399 -1.8951  0.2223  0.6074
 8731SOL    HW227093   1.387   1.305   3.407  0.5985  0.9601  0.1054
 8732SOL     OW27094   6.713   6.185   3.217  0.6502 -0.3460 -0.4082
 8732SOL    HW127095   6.728   6.124   3.294 -1.4436 -1.4627 -0.7922
 8732SOL    HW227096   6.658   6.263   3.247  0.6200 -0.3061 -0.5652
 8733SOL     OW27097   6.886   0.034   5.936  0.2526  0.3975 -0.0341
 8733SOL    HW127098   6.812   0.023   5.869  3.0681  0.1775 -3.3702
 8733SOL    HW227099   6.852   0.008   6.027 -3.6952  0.3100 -1.3155
 8734SOL     OW27100   6.993   0.196   1.764  0.0678 -0.6094  0.5642
 8734SOL    HW127101   7.087   0.229   1.771  0.3220 -1.0955 -0.4415
 8734SOL    HW227102   6.970   0.145   1.847  0.0603  1.0435  1.6300
 8735SOL     OW27103   5.230   2.990   4.835  0.1610 -0.0511 -0.3610
 8735SOL    HW127104   5.279   2.936   4.767  1.3809  0.5193  0.0347
 8735SOL    HW227105   5.229   3.086   4.807  0.5033  0.1569  0.3147
 8736SOL     OW27106   6.441   4.046   4.083  0.0056 -0.5165  0.3332
 8736SOL    HW127107   6.487   4.037   3.994 -0.4150  2.8281 -0.3408
 8736SOL    HW227108   6.343   4.032   4.071 -0.1433  0.6732  0.0980
 8737SOL     OW27109   4.643   5.158   0.267  0.3027 -0.0305 -0.6809
 8737SOL    HW127110   4.587   5.103   0.206  1.3388 -0.2507 -1.4670
 8737SOL    HW227111   4.686   5.099   0.335  1.2102 -0.1809 -1.3653
 8738SOL     OW27112   1.657   3.303   5.645  0.2436  0.1231 -0.4079
 8738SOL    HW127113   1.606   3.335   5.725  0.8017 -1.1798  0.5033
 8738SOL    HW227114   1.727   3.370   5.621 -0.5039  0.9364 -0.3651
 8739SOL     OW27115   1.476   3.820   6.058 -0.2119 -0.2090 -0.4931
 8739SOL    HW127116   1.502   3.782   6.147 -0.7380  1.4325  0.4035
 8739SOL    HW227117   1.551   3.809   5.993  1.0443  0.4954  0.7869
 8740SOL     OW27118   1.628   5.681   0.416  0.1678 -0.2814 -0.4140
 8740SOL    HW127119   1.698   5.749   0.439  0.4279 -0.6237 -0.1749
 8740SOL    HW227120   1.586   5.704   0.329  0.1179  0.2949 -0.2419
 8741SOL     OW27121   1.942   2.896   2.694  0.1182  0.4625 -0.4495
 8741SOL    HW127122   1.881   2.825   2.659  1.5946 -0.2547 -1.6845
 8741SOL    HW227123   1.985   2.865   2.779 -0.2905  0.4571 -0.2445
 8742SOL     OW27124   5.516   6.289   0.810  0.0916  0.0528 -0.0451
 8742SOL    HW127125   5.477   6.277   0.719 -0.1834  1.6102 -0.1535
 8742SOL    HW227126   5.461   6.354   0.862 -0.2209 -1.4258  1.5519
 8743SOL     OW27127   2.451   6.636   3.043  0.0793 -0.2740 -0.4886
 8743SOL    HW127128   2.543   6.675   3.054  0.1184 -0.6954  0.7502
 8743SOL    HW227129   2.387   6.685   3.102 -0.4559 -0.1485 -1.1643
 8744SOL     OW27130   0.956   3.230   5.732  0.0434  0.9292  0.9339
 8744SOL    HW127131   1.023   3.244   5.660 -0.6257 -0.3831  0.0172
 8744SOL    HW227132   0.960   3.306   5.797  2.0376  1.1286  0.6252
 8745SOL     OW27133   6.311   2.880   0.858 -0.0312 -0.2316 -0.0766
 8745SOL    HW127134   6.212   2.889   0.867 -0.0740 -1.1343  0.4752
 8745SOL    HW227135   6.355   2.966   0.884 -0.7408  0.8241 -2.1361
 8746SOL     OW27136   2.582   3.209   6.124  0.6618 -0.1561  0.8649
 8746SOL    HW127137   2.678   3.229   6.144  0.5127  1.6633 -0.0493
 8746SOL    HW227138   2.577   3.153   6.041  0.8993  0.6259  0.3177
 8747SOL     OW27139   1.220   2.373   4.602  0.3041 -0.0704  0.0190
 8747SOL    HW127140   1.319   2.362   4.594  0.3413  0.3594 -0.1140
 8747SOL    HW227141   1.178   2.365   4.512  0.1630 -0.7255  0.1319
 8748SOL     OW27142   2.004   1.566   6.374 -0.3426 -0.2386 -0.5073
 8748SOL    HW127143   2.071   1.572   6.300  0.1242 -0.3469 -0.0997
 8748SOL    HW227144   2.033   1.625   6.450 -0.3921 -0.7547 -0.0840
 8749SOL     OW27145   3.522   0.618   1.792 -0.6384 -0.1066  0.1276
 8749SOL    HW127146   3.601   0.665   1.752 -1.0944  0.5525 -0.0178
 8749SOL    HW227147   3.439   0.648   1.746 -0.9835 -0.7807  0.2944
 8750SOL     OW27148   1.727   6.492   4.805 -0.2141 -0.4588  0.1280
 8750SOL    HW127149   1.748   6.589   4.820  0.0775 -0.7933  2.0972
 8750SOL    HW227150   1.803   6.449   4.756 -0.7553  0.4766 -1.6111
 8751SOL     OW27151   1.200   6.944   3.431  0.3080 -0.1267 -0.1472
 8751SOL    HW127152   1.109   6.905   3.413  0.3084  0.5890 -1.8738
 8751SOL    HW227153   1.208   6.965   3.528 -2.0989  1.5321 -0.2168
 8752SOL     OW27154   2.829   0.835   6.770  0.2355  0.4032 -0.1158
 8752SOL    HW127155   2.729   0.836   6.780 -0.0133 -0.7259 -1.9529
 8752SOL    HW227156   2.868   0.767   6.832 -0.1559  0.6404  0.4012
 8753SOL     OW27157   5.224   2.204   5.403 -1.1082 -0.0005 -0.1767
 8753SOL    HW127158   5.294   2.155   5.455 -1.2530 -0.5605 -0.5030
 8753SOL    HW227159   5.218   2.298   5.437 -0.5087 -0.0704  0.1501
 8754SOL     OW27160   2.578   0.772   6.879  0.1279  0.1565 -0.1424
 8754SOL    HW127161   2.634   0.698   6.915  0.0934  0.2039  0.0097
 8754SOL    HW227162   2.485   0.740   6.862 -0.3801  0.6041  1.6172
 8755SOL     OW27163   1.716   2.681   6.770 -0.0862 -0.0154 -0.0133
 8755SOL    HW127164   1.800   2.633   6.792  0.0868  0.0849 -0.4481
 8755SOL    HW227165   1.662   2.628   6.705 -0.0849  0.1880 -0.1836
 8756SOL     OW27166   3.580   6.660   5.238 -0.3852  0.4415 -0.0834
 8756SOL    HW127167   3.516   6.667   5.315 -1.3620  0.4054 -0.8773
 8756SOL    HW227168   3.653   6.727   5.250 -0.9495  0.9735  0.4767
 8757SOL     OW27169   3.366   0.104   4.328 -0.0277 -0.2428  0.2175
 8757SOL    HW127170   3.429   0.106   4.406  1.0622 -0.4569 -0.6242
 8757SOL    HW227171   3.301   0.029   4.340 -0.0079 -0.1516  1.0025
 8758SOL     OW27172   4.688   6.213   1.836 -0.2650  0.0395 -0.3901
 8758SOL    HW127173   4.603   6.230   1.786 -1.0643 -2.1772  0.1375
 8758SOL    HW227174   4.765   6.229   1.775 -0.9751  2.5422 -0.7526
 8759SOL     OW27175   5.796   6.901   4.290  0.1908 -0.0003  0.5707
 8759SOL    HW127176   5.767   6.824   4.233  0.2569  0.6591 -0.3791
 8759SOL    HW227177   5.719   6.930   4.347 -0.2204  0.0330  0.0077
 8760SOL     OW27178   0.196   3.091   3.290 -0.5660 -0.4702  0.3342
 8760SOL    HW127179   0.131   3.021   3.259  0.6476 -1.7573  0.6228
 8760SOL    HW227180   0.191   3.100   3.389 -0.1181 -0.7559  0.3820
 8761SOL     OW27181   6.713   0.289   0.806 -0.4810  0.0957  0.7457
 8761SOL    HW127182   6.724   0.196   0.769  0.7086  0.4523  0.1570
 8761SOL    HW227183   6.797   0.340   0.792 -0.3973  0.6389  2.8884
 8762SOL     OW27184   0.533   6.979   0.992 -0.2624 -0.1009 -0.2482
 8762SOL    HW127185   0.589   7.010   1.069  1.3108 -0.0186 -1.3806
 8762SOL    HW227186   0.446   7.028   0.994 -0.2748 -0.1244  1.4807
 8763SOL     OW27187   5.684   6.581   1.724  0.1013 -0.1762  0.0760
 8763SOL    HW127188   5.679   6.481   1.727  0.4859 -0.2265 -0.6522
 8763SOL    HW227189   5.620   6.615   1.655 -0.0905  0.0832  0.3837
 8764SOL     OW27190   1.317   1.663   1.486  0.1311 -0.4290 -0.7571
 8764SOL    HW127191   1.344   1.732   1.419 -1.5488  1.3676  0.2940
 8764SOL    HW227192   1.218   1.655   1.487 -0.0209  0.5018  2.2577
 8765SOL     OW27193   5.882   0.812   4.074  0.2877 -0.0350 -0.5501
 8765SOL    HW127194   5.844   0.721   4.089 -3.9035  1.7964  2.0089
 8765SOL    HW227195   5.921   0.846   4.160  0.2128  1.1801 -0.9750
 8766SOL     OW27196   2.281   5.889   2.839  0.5499  0.8029  0.2834
 8766SOL    HW127197   2.355   5.885   2.907 -0.1643  0.8588  1.0870
 8766SOL    HW227198   2.318   5.918   2.751  1.3283  1.7541  0.9003
 8767SOL     OW27199   3.786   0.708   6.449 -0.0057 -0.0557 -0.2209
 8767SOL    HW127200   3.759   0.762   6.529 -1.2986 -1.6367  0.4780
 8767SOL    HW227201   3.847   0.762   6.392 -0.7802  1.9320  0.7102
 8768SOL     OW27202   2.643   3.208   6.727  0.4169  0.1276  0.0830
 8768SOL    HW127203   2.729   3.203   6.676  1.3279  0.2347  1.5307
 8768SOL    HW227204   2.629   3.122   6.776 -0.6416 -0.1233 -0.6318
 8769SOL     OW27205   2.190   6.075   1.844  0.2236  0.2674  0.0659
 8769SOL    HW127206   2.101   6.062   1.801  0.0455  2.2067 -0.2584
 8769SOL    HW227207   2.262   6.049   1.780 -0.0802 -0.8585  0.1607
 8770SOL     OW27208   5.833   1.372   1.576  0.0403 -0.6385 -0.3445
 8770SOL    HW127209   5.760   1.325   1.625  0.4698 -2.7262 -1.5680
 8770SOL    HW227210   5.885   1.428   1.639 -0.5453 -1.7736  1.2155
 8771SOL     OW27211   3.426   2.860   4.976 -0.5634 -0.4729 -0.2607
 8771SOL    HW127212   3.466   2.853   5.067 -2.4122  2.5079  0.8747
 8771SOL    HW227213   3.500   2.861   4.908  0.9348 -0.8527  1.2892
 8772SOL     OW27214   6.620   6.605   6.218 -0.4417  0.6203  0.1131
 8772SOL    HW127215   6.703   6.588   6.164 -0.1124  0.8166  0.5536
 8772SOL    HW227216   6.624   6.553   6.303 -2.0285 -1.5552 -1.0460
 8773SOL     OW27217   3.235   0.586   2.287 -0.7742 -0.3841 -0.1587
 8773SOL    HW127218   3.320   0.553   2.329 -1.7649  0.8153  3.0610
 8773SOL    HW227219   3.253   0.611   2.192  2.1178 -1.4333 -0.0030
 8774SOL     OW27220   1.675   1.193   2.025 -0.4204 -0.4964  0.3282
 8774SOL    HW127221   1.774   1.189   2.008 -0.5948  0.1928 -0.9745
 8774SOL    HW227222   1.634   1.104   2.005 -0.2597 -0.3891 -0.5042
 8775SOL     OW27223   4.548   5.856   2.927  0.1889 -0.5502 -0.1063
 8775SOL    HW127224   4.594   5.912   2.859 -0.5320  0.9348  0.5773
 8775SOL    HW227225   4.597   5.861   3.014 -0.1341 -0.6047  0.0838
 8776SOL     OW27226   2.901   2.946   5.686 -0.2830  0.1287  0.1734
 8776SOL    HW127227   2.844   3.028   5.681 -0.7068 -0.2295 -1.1739
 8776SOL    HW227228   2.952   2.936   5.601  0.5539 -0.4528  0.7320
 8777SOL     OW27229   1.084   4.649   3.813  0.7541  0.0035  0.3483
 8777SOL    HW127230   1.174   4.639   3.854  0.2241  0.7366  1.7616
 8777SOL    HW227231   1.040   4.559   3.806  1.0867 -0.2023  0.8508
 8778SOL     OW27232   1.139   1.400   1.764  0.0051 -0.5394  0.1887
 8778SOL    HW127233   1.114   1.310   1.730  1.8323 -1.8808  2.1642
 8778SOL    HW227234   1.067   1.435   1.824 -1.3020 -0.0216 -1.5914
 8779SOL     OW27235   6.583   4.223   0.118  0.0170 -0.6584  0.0880
 8779SOL    HW127236   6.487   4.194   0.117  0.3424 -1.8028 -0.9598
 8779SOL    HW227237   6.588   4.323   0.110 -1.0819 -0.6132 -0.1606
 8780SOL     OW27238   2.119   5.199   5.044 -0.3357  0.1547 -0.3677
 8780SOL    HW127239   2.170   5.121   5.081  0.4557  1.0694  0.5204
 8780SOL    HW227240   2.028   5.168   5.015 -0.4694 -0.8938  1.0506
 8781SOL     OW27241   1.365   4.036   2.174  0.1010 -0.4524 -0.7396
 8781SOL    HW127242   1.352   3.997   2.265  1.7225  0.5006 -0.0599
 8781SOL    HW227243   1.299   4.109   2.159  1.9649  1.7671  1.1314
 8782SOL     OW27244   4.668   0.054   3.876 -0.3859 -0.3315 -0.6683
 8782SOL    HW127245   4.705  -0.029   3.835  1.8313  0.7290 -0.9238
 8782SOL    HW227246   4.741   0.121   3.889 -1.7540  0.8696  1.3640
 8783SOL     OW27247   5.786   0.524   6.010 -0.3382  0.2878  0.1459
 8783SOL    HW127248   5.728   0.481   5.940  0.6386 -2.1782  0.7511
 8783SOL    HW227249   5.881   0.498   5.996 -0.1731 -0.8180  2.7117
 8784SOL     OW27250   3.447   3.326   6.613  0.5985 -0.6808  0.4871
 8784SOL    HW127251   3.414   3.369   6.696  0.7873 -0.6337  0.5372
 8784SOL    HW227252   3.383   3.254   6.585 -1.0399  1.2003 -0.9474
 8785SOL     OW27253   5.404   4.518   5.750 -0.0379 -0.4942  0.0329
 8785SOL    HW127254   5.479   4.465   5.788 -0.0318 -0.0171  0.7058
 8785SOL    HW227255   5.338   4.540   5.822 -1.1503 -1.4187 -0.6511
 8786SOL     OW27256   1.788   5.488   0.567 -0.0739  0.5781 -0.3061
 8786SOL    HW127257   1.746   5.544   0.495  2.9928  1.0985 -1.8180
 8786SOL    HW227258   1.814   5.547   0.644  0.7194  0.8136 -0.7438
 8787SOL     OW27259   0.533   2.790   5.062  0.1796 -0.5069 -0.0760
 8787SOL    HW127260   0.631   2.813   5.059  0.2014 -0.5196  0.3797
 8787SOL    HW227261   0.522   2.693   5.084  0.0673 -0.0487  2.1621
 8788SOL     OW27262   0.840   1.437   5.135  0.1830  0.0252 -0.4325
 8788SOL    HW127263   0.883   1.506   5.076 -0.4591  1.5654  0.8023
 8788SOL    HW227264   0.741   1.449   5.133  0.1862  2.1646  3.1061
 8789SOL     OW27265   1.369   1.041   5.603  0.2036  0.0127  0.1097
 8789SOL    HW127266   1.420   1.118   5.642 -1.8534  0.6462  1.7019
 8789SOL    HW227267   1.354   0.972   5.673  0.3164 -0.9559 -0.7923
 8790SOL     OW27268   3.500   1.601   1.185 -0.1193 -0.7108  0.2121
 8790SOL    HW127269   3.405   1.632   1.180  0.3154  0.6836  0.0220
 8790SOL    HW227270   3.514   1.550   1.270 -1.1431 -1.3667  0.0119
 8791SOL     OW27271   6.246   2.982   6.308  0.6614  0.2142 -0.1283
 8791SOL    HW127272   6.174   2.915   6.324 -0.1087  1.2008  0.7167
 8791SOL    HW227273   6.296   2.998   6.393  0.1273  1.4882 -0.0317
 8792SOL     OW27274   6.547   0.793   4.805  0.1906  0.1170  0.3864
 8792SOL    HW127275   6.531   0.867   4.870 -1.6811  0.5338 -0.4738
 8792SOL    HW227276   6.470   0.729   4.808  1.8495 -1.9164  1.2344
 8793SOL     OW27277   2.070   6.214   3.088 -0.2088  0.5793  0.0212
 8793SOL    HW127278   2.141   6.246   3.025  0.3615 -0.2455  0.2287
 8793SOL    HW227279   1.980   6.230   3.048  0.1329  0.4784 -0.7982
 8794SOL     OW27280   3.468   1.063   3.125 -0.0946  0.4202  0.6582
 8794SOL    HW127281   3.485   1.131   3.054 -0.7483 -1.6478 -1.6292
 8794SOL    HW227282   3.542   0.996   3.125 -2.2799 -2.2215 -1.4582
 8795SOL     OW27283   4.403   6.975   3.461  0.1781 -0.1835 -0.6639
 8795SOL    HW127284   4.428   7.069   3.436 -1.1870  0.0859 -1.0938
 8795SOL    HW227285   4.446   6.911   3.397  0.2767  0.2159 -1.0039
 8796SOL     OW27286   3.989   1.878   4.070  0.2330 -0.1611 -0.0128
 8796SOL    HW127287   3.927   1.801   4.052  0.0118 -0.0649  0.3453
 8796SOL    HW227288   3.947   1.941   4.134  0.4231  0.2570 -0.2976
 8797SOL     OW27289   1.841   5.678   0.776  0.2635 -0.2329 -0.0621
 8797SOL    HW127290   1.799   5.768   0.788  0.9394  0.1500 -0.4954
 8797SOL    HW227291   1.940   5.688   0.767  0.3496 -1.0247 -0.1056
 8798SOL     OW27292   3.806   3.659   6.206 -0.0983 -0.5342  0.0453
 8798SOL    HW127293   3.851   3.584   6.157  0.5648  0.4639 -0.9317
 8798SOL    HW227294   3.803   3.638   6.303  0.9618 -1.3779 -0.0864
 8799SOL     OW27295   3.516   1.143   3.379  0.5825  0.4027 -0.0644
 8799SOL    HW127296   3.443   1.210   3.397  0.9984  0.9294 -0.3091
 8799SOL    HW227297   3.527   1.134   3.280  1.5893  1.1473 -0.0328
 8800SOL     OW27298   4.659   4.740   0.688  0.9902  0.4427 -0.0012
 8800SOL    HW127299   4.656   4.640   0.686 -0.1251  0.4248  1.2268
 8800SOL    HW227300   4.721   4.770   0.760 -0.6297  0.5945  1.3708
 8801SOL     OW27301   2.752   6.104   4.266 -0.0076  0.1986  0.5390
 8801SOL    HW127302   2.837   6.104   4.318 -0.5428 -0.0225  1.4376
 8801SOL    HW227303   2.723   6.198   4.249 -1.0285  0.3439  2.7007
 8802SOL     OW27304   2.586   0.144   2.039 -0.4211 -0.4137  0.3713
 8802SOL    HW127305   2.583   0.047   2.014 -2.4841 -0.9027  2.1895
 8802SOL    HW227306   2.673   0.165   2.083  0.3428 -1.2441 -0.6929
 8803SOL     OW27307   3.439   5.577   1.963 -0.2505  0.0042 -0.0965
 8803SOL    HW127308   3.522   5.524   1.975 -0.0887  0.3067  0.1265
 8803SOL    HW227309   3.408   5.613   2.051 -0.3841  0.2391 -0.2369
 8804SOL     OW27310   3.593   0.011   0.794  0.3344 -0.5030 -0.5741
 8804SOL    HW127311   3.673   0.056   0.752  2.6448 -0.8235  3.0459
 8804SOL    HW227312   3.542   0.078   0.848 -0.9378 -0.6687 -1.5307
 8805SOL     OW27313   4.360   0.861   4.282  0.5205  0.4766 -0.4392
 8805SOL    HW127314   4.430   0.790   4.282  0.2668  0.2202 -1.4998
 8805SOL    HW227315   4.369   0.918   4.200  0.4599  1.4163  0.1845
 8806SOL     OW27316   3.162   4.849   6.365  0.1992  0.1570 -0.0606
 8806SOL    HW127317   3.124   4.788   6.296 -0.1999  1.8056 -1.3644
 8806SOL    HW227318   3.261   4.838   6.369  0.1913 -0.1874 -0.6841
 8807SOL     OW27319   4.142   4.789   6.347  0.0165 -0.5197  0.2484
 8807SOL    HW127320   4.173   4.773   6.440  2.2091 -0.6957 -0.4501
 8807SOL    HW227321   4.130   4.701   6.300  1.0114 -0.4053 -0.2452
 8808SOL     OW27322   5.590   2.491   0.868 -0.7462  0.3369  0.7372
 8808SOL    HW127323   5.552   2.428   0.800  0.3068 -0.7651  1.1246
 8808SOL    HW227324   5.517   2.521   0.930 -1.0775 -1.4577  1.2642
 8809SOL     OW27325   5.825   4.874   5.625 -0.1716  0.6958 -0.0303
 8809SOL    HW127326   5.804   4.846   5.531 -0.4257  2.1024 -0.4155
 8809SOL    HW227327   5.918   4.845   5.648 -1.0693 -2.1319  0.3088
 8810SOL     OW27328   3.852   2.073   4.211  0.8752  0.0342 -0.3362
 8810SOL    HW127329   3.824   2.058   4.306 -0.4287 -4.1375 -1.1827
 8810SOL    HW227330   3.912   2.153   4.207 -0.1387  1.2506  3.7129
 8811SOL     OW27331   5.503   1.200   4.263  0.1043 -0.0239  0.4957
 8811SOL    HW127332   5.493   1.299   4.278  0.0904  0.1868 -0.7614
 8811SOL    HW227333   5.431   1.168   4.201  2.3029 -0.0245 -2.2607
 8812SOL     OW27334   1.537   0.567   2.334 -0.6839  0.1856 -0.1292
 8812SOL    HW127335   1.547   0.482   2.282  1.4456  1.6335 -2.3224
 8812SOL    HW227336   1.606   0.570   2.407 -0.9801 -0.0983  0.1649
 8813SOL     OW27337   0.717   5.047   6.818 -0.4269 -0.4202 -1.0249
 8813SOL    HW127338   0.711   5.040   6.918  1.3980  1.1021 -0.7485
 8813SOL    HW227339   0.806   5.014   6.788 -0.6765 -0.1590 -2.0792
 8814SOL     OW27340   5.209   1.430   0.425 -0.5485 -0.1105 -0.0688
 8814SOL    HW127341   5.221   1.407   0.522 -0.1765  0.1621 -0.0454
 8814SOL    HW227342   5.151   1.511   0.416  0.7243  0.8382  0.0187
 8815SOL     OW27343   6.807   4.012   3.703 -0.6172  0.4803  0.0456
 8815SOL    HW127344   6.865   3.969   3.771  0.2018  0.3366 -0.7202
 8815SOL    HW227345   6.849   4.099   3.674 -0.4838  0.1154 -0.9063
 8816SOL     OW27346   0.357   6.367   1.359 -0.3099 -0.7269 -0.3385
 8816SOL    HW127347   0.305   6.434   1.306  1.6156  0.7496 -0.5025
 8816SOL    HW227348   0.337   6.275   1.326 -1.7644 -0.1155 -1.2633
 8817SOL     OW27349   2.354   2.688   2.841  0.4030  0.0644  0.2283
 8817SOL    HW127350   2.393   2.664   2.930  1.5697 -0.7959 -0.4885
 8817SOL    HW227351   2.411   2.651   2.768 -1.2978 -0.4988 -0.8909
 8818SOL     OW27352   0.508   3.999   4.191  0.0663 -0.4361  0.3825
 8818SOL    HW127353   0.604   4.001   4.163  0.1760 -0.1586  0.7628
 8818SOL    HW227354   0.501   3.955   4.280 -0.5042 -3.1297 -0.8981
 8819SOL     OW27355   5.908   1.018   5.904  0.4395 -0.1055 -0.1815
 8819SOL    HW127356   5.839   0.954   5.937 -1.1915  1.4790 -0.3817
 8819SOL    HW227357   5.963   1.052   5.981  1.2506 -1.5981 -0.0638
 8820SOL     OW27358   5.214   1.850   2.815  0.2209  0.9537  0.2913
 8820SOL    HW127359   5.149   1.923   2.794 -1.7248 -0.4145  1.2335
 8820SOL    HW227360   5.248   1.861   2.908 -2.1668 -0.7171  1.4528
 8821SOL     OW27361   1.243   4.765   1.036 -0.2853  0.2283 -0.1570
 8821SOL    HW127362   1.307   4.696   1.001  1.0387  0.3167  1.8772
 8821SOL    HW227363   1.151   4.745   1.004  0.5992 -0.4310 -2.4802
 8822SOL     OW27364   6.453   2.382   3.893  0.5114 -0.1501  0.5424
 8822SOL    HW127365   6.371   2.415   3.845  0.4699 -1.6471 -0.4868
 8822SOL    HW227366   6.442   2.398   3.991 -0.8566  0.0070  0.3928
 8823SOL     OW27367   4.053   5.291   0.430  0.5238 -0.0229 -0.1644
 8823SOL    HW127368   4.130   5.257   0.485  1.0183  0.3158 -0.6454
 8823SOL    HW227369   3.968   5.256   0.469  0.8822 -0.0147  0.6599
 8824SOL     OW27370   0.322   5.257   2.259  0.0789 -0.2081 -0.4338
 8824SOL    HW127371   0.297   5.348   2.229 -0.4465 -0.2680 -0.1828
 8824SOL    HW227372   0.281   5.238   2.348  0.6094 -0.4936 -0.2440
 8825SOL     OW27373   2.211   2.919   0.476  0.0050  0.2743  0.1510
 8825SOL    HW127374   2.191   2.903   0.380  0.6501 -0.5201  0.1335
 8825SOL    HW227375   2.149   2.865   0.533  0.9954 -0.9594  0.1221
 8826SOL     OW27376   5.671   6.876   0.022 -0.0552 -0.5836  0.0623
 8826SOL    HW127377   5.585   6.825   0.025  0.1495 -0.9122  0.6974
 8826SOL    HW227378   5.661   6.956  -0.037 -0.1082 -1.8599 -1.7532
 8827SOL     OW27379   4.887   0.038   5.458  0.0134  0.2146 -0.3371
 8827SOL    HW127380   4.924   0.130   5.454 -0.1624  0.2467 -1.7062
 8827SOL    HW227381   4.865   0.006   5.366  0.1132 -1.2181  0.1028
 8828SOL     OW27382   3.149   5.927   3.952  0.2015  0.3204  0.0659
 8828SOL    HW127383   3.082   5.928   4.026 -0.5250  0.9582 -0.5875
 8828SOL    HW227384   3.185   6.019   3.938  0.0603  0.2769 -0.6216
 8829SOL     OW27385   4.822   0.777   1.144  0.2292  0.1379  0.0434
 8829SOL    HW127386   4.771   0.765   1.229 -0.2472 -2.4779 -0.5209
 8829SOL    HW227387   4.762   0.816   1.074 -1.1821 -2.9109 -0.6174
 8830SOL     OW27388   1.019   2.261   1.798  0.6874 -0.0927  0.4163
 8830SOL    HW127389   1.119   2.262   1.795  0.7300 -0.4164 -3.1883
 8830SOL    HW227390   0.983   2.331   1.737 -1.2612 -0.6769  0.8305
 8831SOL     OW27391   1.750   0.878   0.869 -0.6850  0.1204  0.7849
 8831SOL    HW127392   1.806   0.799   0.847 -0.2003  0.2879  1.4036
 8831SOL    HW227393   1.696   0.859   0.951 -0.0660  0.6699  1.3284
 8832SOL     OW27394   1.004   0.818   1.693 -0.7294  0.0153 -0.0974
 8832SOL    HW127395   0.923   0.865   1.727 -0.3290  0.5101  0.1912
 8832SOL    HW227396   1.078   0.884   1.681 -0.4014 -0.4126 -0.4627
 8833SOL     OW27397   0.415   6.794   2.560 -0.2824 -0.2503  0.0584
 8833SOL    HW127398   0.340   6.800   2.494 -1.2771  2.0430  1.2964
 8833SOL    HW227399   0.464   6.708   2.546 -3.1568 -1.8967 -0.7190
 8834SOL     OW27400   5.582   3.974   5.085 -0.1406  0.1032 -0.2953
 8834SOL    HW127401   5.608   3.889   5.040 -0.9807  0.7115 -2.0293
 8834SOL    HW227402   5.507   3.956   5.149 -1.1257 -0.3254 -1.5092
 8835SOL     OW27403   1.098   0.554   1.410 -0.3431  0.1194 -0.1227
 8835SOL    HW127404   1.063   0.551   1.503  0.7686  0.1925  0.3155
 8835SOL    HW227405   1.075   0.641   1.368 -0.8730  0.0753  0.0664
 8836SOL     OW27406   6.088   1.728   0.491 -0.0147 -0.3738 -0.3229
 8836SOL    HW127407   6.017   1.786   0.531 -0.0358  0.3380 -1.3614
 8836SOL    HW227408   6.178   1.769   0.508 -0.0979  0.6241 -2.0432
 8837SOL     OW27409   0.724   2.691   3.572  0.1265 -0.1121  0.3089
 8837SOL    HW127410   0.775   2.641   3.503 -1.3622 -2.8289  1.0449
 8837SOL    HW227411   0.647   2.739   3.529  1.4866  1.5418 -0.3825
 8838SOL     OW27412   2.004   5.624   4.250  0.1946  0.1567 -0.1992
 8838SOL    HW127413   1.921   5.608   4.197 -0.3574  0.3953  0.5894
 8838SOL    HW227414   1.981   5.653   4.343  1.1516 -0.0403  0.1202
 8839SOL     OW27415   5.244   5.857   5.430 -0.3335 -0.4663 -0.0034
 8839SOL    HW127416   5.176   5.925   5.403 -1.0789 -1.0645  0.3269
 8839SOL    HW227417   5.215   5.766   5.400 -2.2906 -1.5374  4.3083
 8840SOL     OW27418   3.938   3.122   1.659  0.5051  0.0765  0.0812
 8840SOL    HW127419   3.857   3.063   1.654  0.2897  0.3951 -0.2871
 8840SOL    HW227420   3.985   3.107   1.746 -0.2375  0.2567  0.5258
 8841SOL     OW27421   4.931   0.711   2.846  0.7500 -0.1407  0.0916
 8841SOL    HW127422   4.877   0.663   2.915  1.3839  0.6887  1.2079
 8841SOL    HW227423   4.871   0.739   2.771 -0.0765 -0.5695  0.5709
 8842SOL     OW27424   1.696   3.905   0.172  0.4075 -0.4211  0.5857
 8842SOL    HW127425   1.642   3.926   0.254 -2.6593 -0.5381 -1.2654
 8842SOL    HW227426   1.749   3.986   0.146 -0.2809  0.3428  1.4570
 8843SOL     OW27427   5.953   1.185   2.933 -0.2420  0.8288 -0.3506
 8843SOL    HW127428   5.977   1.165   2.838 -0.7570 -1.3765 -0.0637
 8843SOL    HW227429   5.908   1.274   2.938 -1.3168  0.4539 -2.3483
 8844SOL     OW27430   6.151   0.680   2.153 -0.2767  0.3973  0.4863
 8844SOL    HW127431   6.154   0.738   2.234 -2.4367  2.0681 -0.5334
 8844SOL    HW227432   6.056   0.665   2.126  0.3752 -0.2740 -1.6106
 8845SOL     OW27433   4.585   4.768   6.739 -0.4151  0.1112  0.4329
 8845SOL    HW127434   4.542   4.692   6.786 -0.2299  0.3449  0.9995
 8845SOL    HW227435   4.646   4.734   6.668 -1.6525 -0.2104 -0.4847
 8846SOL     OW27436   2.662   6.145   5.145 -0.6264 -0.1147  0.3435
 8846SOL    HW127437   2.596   6.199   5.093 -0.3377 -1.5667 -1.6956
 8846SOL    HW227438   2.639   6.048   5.136  1.5492 -0.6423 -0.1561
 8847SOL     OW27439   3.564   0.473   4.272  0.1223 -0.0653  0.2158
 8847SOL    HW127440   3.560   0.570   4.247  0.9932  0.2375  1.1920
 8847SOL    HW227441   3.598   0.421   4.194 -2.8133 -0.0083 -1.2541
 8848SOL     OW27442   0.160   1.211   2.646 -0.0354  0.2408  0.1303
 8848SOL    HW127443   0.221   1.141   2.685 -0.5449 -0.8023 -0.8750
 8848SOL    HW227444   0.068   1.173   2.638 -0.6856  1.5882  1.0390
 8849SOL     OW27445   3.710   6.395   2.144  0.6387 -0.0442  0.0557
 8849SOL    HW127446   3.776   6.334   2.100  0.8663  0.3677 -0.1738
 8849SOL    HW227447   3.640   6.340   2.190  0.6919 -0.4811 -0.3733
 8850SOL     OW27448   4.862   0.502   1.029  0.1719 -0.3755  0.2297
 8850SOL    HW127449   4.844   0.569   1.101  0.7269  0.3326 -0.2717
 8850SOL    HW227450   4.783   0.442   1.018 -0.0525 -0.2694  1.1882
 8851SOL     OW27451   3.778   4.199   0.093  0.0788 -0.1398  0.2234
 8851SOL    HW127452   3.761   4.168  -0.000 -1.2913 -2.1017  1.0483
 8851SOL    HW227453   3.693   4.233   0.133 -0.1096 -2.0635  1.6500
 8852SOL     OW27454   1.220   3.766   5.228 -1.0083  0.0651 -0.0326
 8852SOL    HW127455   1.142   3.782   5.289  0.1479  2.0712  1.0619
 8852SOL    HW227456   1.300   3.740   5.282 -0.0459  1.5176 -0.6839
 8853SOL     OW27457   6.576   0.340   0.234 -0.7101 -0.4846  0.0164
 8853SOL    HW127458   6.614   0.294   0.313 -1.1549  1.0896  1.1981
 8853SOL    HW227459   6.618   0.431   0.225 -2.4828  0.3759 -0.0132
 8854SOL     OW27460   6.882   1.677   4.481  0.5269 -0.3938  0.0804
 8854SOL    HW127461   6.873   1.578   4.470 -1.5986 -0.1726 -0.5439
 8854SOL    HW227462   6.845   1.704   4.570  2.2924 -0.2614  0.8199
 8855SOL     OW27463   4.680   4.293   6.824  0.6921 -0.3838  0.1401
 8855SOL    HW127464   4.756   4.272   6.763 -0.1480 -0.1163 -1.0363
 8855SOL    HW227465   4.598   4.246   6.791 -0.7510  2.8440 -1.3366
 8856SOL     OW27466   0.740   2.582   6.449  0.1099  0.6138  0.0250
 8856SOL    HW127467   0.719   2.565   6.352 -2.1002  1.2041  0.3345
 8856SOL    HW227468   0.661   2.556   6.505  0.9167  1.3452  1.5556
 8857SOL     OW27469   6.942   2.231   0.642  0.5642 -0.0849 -0.0740
 8857SOL    HW127470   6.915   2.225   0.546  1.8863 -0.1317 -0.4725
 8857SOL    HW227471   7.039   2.257   0.647  0.2312  0.9728  1.2750
 8858SOL     OW27472   3.999   3.680   6.898  0.5534 -0.0580  0.7007
 8858SOL    HW127473   3.905   3.716   6.900  0.4068 -0.3936  0.0904
 8858SOL    HW227474   3.997   3.582   6.876  1.1660  0.4619 -2.0147
 8859SOL     OW27475   6.528   0.211   2.033  0.0795  0.1725 -0.2098
 8859SOL    HW127476   6.505   0.302   2.000  1.6543  0.2313 -1.2355
 8859SOL    HW227477   6.579   0.218   2.119 -0.4927  0.2043  0.1337
 8860SOL     OW27478   6.591   1.984   2.802 -0.0045  0.2848 -0.4372
 8860SOL    HW127479   6.631   1.894   2.786 -0.4203  0.4334 -2.7070
 8860SOL    HW227480   6.510   1.976   2.859  0.0721 -0.7493 -0.4692
 8861SOL     OW27481   2.548   3.094   5.876  0.4305 -0.1734  0.7556
 8861SOL    HW127482   2.584   3.002   5.896 -0.2916 -1.1248 -1.8486
 8861SOL    HW227483   2.469   3.085   5.815  1.4823  2.2629 -1.0870
 8862SOL     OW27484   5.363   5.072   3.862  0.4832  0.0515  0.7791
 8862SOL    HW127485   5.362   5.170   3.881 -0.8864  0.3674 -0.7339
 8862SOL    HW227486   5.280   5.030   3.901  0.0153 -0.1175 -0.3721
 8863SOL     OW27487   1.522   3.106   1.800 -0.1842 -0.5758  0.7802
 8863SOL    HW127488   1.603   3.064   1.841  1.1457  1.1923  0.0980
 8863SOL    HW227489   1.531   3.106   1.701  0.4565  2.2250  0.7452
 8864SOL     OW27490   5.304   2.041   4.741  0.4150  0.0905  0.1457
 8864SOL    HW127491   5.327   2.024   4.645 -2.4505  1.5044 -0.9036
 8864SOL    HW227492   5.301   1.955   4.791  0.2570 -0.8726 -1.4643
 8865SOL     OW27493   1.474   1.517   0.618 -0.4369  0.4710 -0.1298
 8865SOL    HW127494   1.454   1.426   0.655 -1.7071  1.1145  0.8350
 8865SOL    HW227495   1.446   1.587   0.683  0.3900  1.5788 -0.9162
 8866SOL     OW27496   5.806   0.847   1.527 -0.7374 -0.1205  0.0031
 8866SOL    HW127497   5.763   0.785   1.461 -1.7266 -0.3800  0.8787
 8866SOL    HW227498   5.736   0.889   1.584  0.0903  0.3091  0.7213
 8867SOL     OW27499   4.876   3.280   4.794  0.4386  0.2766  0.0829
 8867SOL    HW127500   4.957   3.325   4.757  0.8859 -0.7263 -0.2084
 8867SOL    HW227501   4.806   3.348   4.817 -0.0049  0.9548 -2.9110
 8868SOL     OW27502   0.290   2.369   2.801 -0.0705 -0.1129 -0.3116
 8868SOL    HW127503   0.339   2.336   2.720 -2.1229 -1.4373 -1.0956
 8868SOL    HW227504   0.337   2.449   2.838  2.0539 -0.6824 -1.5953
 8869SOL     OW27505   4.198   1.071   3.796  0.0203  0.0487  0.8219
 8869SOL    HW127506   4.190   0.996   3.863  0.1465 -0.9248 -0.2225
 8869SOL    HW227507   4.257   1.142   3.834 -1.7878  0.6349  2.6977
 8870SOL     OW27508   0.698   1.530   1.318  0.1746  0.0117 -0.0427
 8870SOL    HW127509   0.710   1.628   1.332  0.7711  0.3437 -2.4640
 8870SOL    HW227510   0.704   1.509   1.220 -3.0535 -2.0204  0.0300
 8871SOL     OW27511   0.240   0.677   1.355  0.2994  0.4717 -0.4054
 8871SOL    HW127512   0.260   0.732   1.274 -0.1794 -0.4311 -1.1573
 8871SOL    HW227513   0.144   0.648   1.353  0.4947 -0.2384  0.0524
 8872SOL     OW27514   5.244   6.982   4.316  0.2939  0.1000 -0.2369
 8872SOL    HW127515   5.247   6.898   4.261 -2.4022 -0.2260  0.0067
 8872SOL    HW227516   5.316   7.044   4.285  1.8488 -1.9435 -0.9619
 8873SOL     OW27517   0.029   2.300   2.886 -0.0101 -0.3709  0.4460
 8873SOL    HW127518   0.119   2.336   2.864  0.0536 -0.0189  1.2543
 8873SOL    HW227519  -0.040   2.372   2.875  0.0730 -0.0811  1.7275
 8874SOL     OW27520   4.587   5.168   6.959 -0.0720  0.3452  0.0542
 8874SOL    HW127521   4.590   5.260   6.999 -2.9922  0.7403 -0.4181
 8874SOL    HW227522   4.606   5.174   6.861  1.9151  0.0826  0.3815
 8875SOL     OW27523   0.224   0.263   2.858 -0.4920 -0.0336 -0.3703
 8875SOL    HW127524   0.277   0.219   2.785 -0.4853 -1.8259  0.6477
 8875SOL    HW227525   0.267   0.243   2.946 -1.1647  1.0833  0.2315
 8876SOL     OW27526   5.381   6.219   0.498 -0.2541 -0.3129 -0.4614
 8876SOL    HW127527   5.414   6.125   0.488  1.1069  0.2471 -1.5055
 8876SOL    HW227528   5.417   6.276   0.424 -1.3730  0.9694 -0.0799
 8877SOL     OW27529   2.490   5.219   2.751 -0.2607  0.2078 -0.3819
 8877SOL    HW127530   2.464   5.305   2.796 -0.8510 -0.5680  0.8118
 8877SOL    HW227531   2.447   5.215   2.661  0.6477  1.6327 -0.9093
 8878SOL     OW27532   4.704   5.190   1.449  0.0566 -0.4328 -0.3251
 8878SOL    HW127533   4.637   5.201   1.522  1.5115 -0.0666  1.0184
 8878SOL    HW227534   4.709   5.274   1.395 -0.3907 -0.3794 -0.2846
 8879SOL     OW27535   6.404   4.847   3.672 -0.1524  0.3196  0.0313
 8879SOL    HW127536   6.339   4.780   3.636 -0.9996  1.8584 -1.4934
 8879SOL    HW227537   6.359   4.902   3.743  0.9367 -1.4792  2.2267
 8880SOL     OW27538   4.359   1.128   1.751 -0.0487 -0.3628  0.1438
 8880SOL    HW127539   4.281   1.164   1.803  0.8707  0.0902  1.2332
 8880SOL    HW227540   4.351   1.157   1.656  0.3503  2.2971  0.8553
 8881SOL     OW27541   4.003   6.544   1.880 -0.1857 -0.1942 -0.3857
 8881SOL    HW127542   3.933   6.551   1.809 -0.5796 -1.6063 -0.1702
 8881SOL    HW227543   4.063   6.624   1.876 -1.5914  0.8848 -0.8026
 8882SOL     OW27544   4.687   2.023   5.599  0.1825 -0.0476  0.9912
 8882SOL    HW127545   4.726   1.932   5.611 -0.2679 -0.4559 -0.4162
 8882SOL    HW227546   4.756   2.084   5.559 -0.2936 -0.5194 -0.6155
 8883SOL     OW27547   0.769   5.990   4.312  0.1626 -0.3498  0.2631
 8883SOL    HW127548   0.746   5.931   4.389  0.3321  1.7380  2.0125
 8883SOL    HW227549   0.685   6.019   4.265 -0.0550 -0.4308  0.6065
 8884SOL     OW27550   5.109   0.898   4.435  0.2025  0.1992 -0.1318
 8884SOL    HW127551   5.098   0.896   4.336  0.2120  1.2442 -0.1604
 8884SOL    HW227552   5.204   0.875   4.459  0.8021  2.1129 -0.5090
 8885SOL     OW27553   6.227   6.689   6.488 -0.3104  0.6028  0.5121
 8885SOL    HW127554   6.177   6.772   6.513 -1.0507 -0.0112  1.1176
 8885SOL    HW227555   6.321   6.694   6.522  0.1914  1.9207 -0.9335
 8886SOL     OW27556   4.916   1.409   6.607  0.5183 -0.3764 -0.4563
 8886SOL    HW127557   4.856   1.354   6.665 -0.3532  2.2510  1.2982
 8886SOL    HW227558   4.861   1.469   6.549  1.4469 -1.1882 -2.2652
 8887SOL     OW27559   4.123   6.800   0.776 -0.5675  0.4791  0.2703
 8887SOL    HW127560   4.127   6.865   0.700 -0.7194  0.0151 -0.1400
 8887SOL    HW227561   4.191   6.825   0.845  1.5425 -0.6209 -1.2697
 8888SOL     OW27562   3.338   4.128   1.843 -0.3941  0.4299  0.2684
 8888SOL    HW127563   3.336   4.029   1.837 -1.7813  0.4820 -0.5294
 8888SOL    HW227564   3.407   4.156   1.909 -0.9787 -1.1057  1.5980
 8889SOL     OW27565   1.296   4.991   0.487  0.3434  0.1806 -0.0157
 8889SOL    HW127566   1.345   5.038   0.560  1.4307  0.3193 -0.8061
 8889SOL    HW227567   1.332   4.898   0.477 -0.9399 -0.4089  0.7126
 8890SOL     OW27568   2.040   5.959   0.689  0.0748 -0.3162  0.0909
 8890SOL    HW127569   2.108   5.925   0.624  1.1058  2.4662 -0.4619
 8890SOL    HW227570   2.087   5.998   0.769 -0.9342  0.2697  0.4224
 8891SOL     OW27571   4.112   4.214   5.289  0.5556 -0.0821  0.5956
 8891SOL    HW127572   4.162   4.291   5.250  2.1250 -2.1287 -1.7746
 8891SOL    HW227573   4.065   4.243   5.372  1.2258  3.3183 -0.0697
 8892SOL     OW27574   2.919   4.488   0.408 -0.0406  0.0507 -0.0741
 8892SOL    HW127575   2.874   4.460   0.493  1.7761 -0.8342  0.6370
 8892SOL    HW227576   3.000   4.432   0.392  0.3065  0.9648 -1.8071
 8893SOL     OW27577   0.513   3.293   3.335 -0.2611 -0.1906 -1.0121
 8893SOL    HW127578   0.524   3.217   3.270 -0.3256  0.9489 -2.4104
 8893SOL    HW227579   0.471   3.371   3.288 -0.6607  0.5523  0.5177
 8894SOL     OW27580   6.284   3.759   6.917 -0.0394  0.1755  0.3036
 8894SOL    HW127581   6.295   3.833   6.850 -0.9394  0.1685  0.1382
 8894SOL    HW227582   6.368   3.750   6.970  0.4493  0.6209 -0.3813
 8895SOL     OW27583   6.301   2.494   3.180 -0.2934 -0.1947  0.3329
 8895SOL    HW127584   6.216   2.542   3.158 -1.3349 -0.6763  2.8667
 8895SOL    HW227585   6.379   2.556   3.168 -0.9618  0.3104 -1.8603
 8896SOL     OW27586   6.580   1.505   4.797 -0.0831  0.1222 -0.5830
 8896SOL    HW127587   6.670   1.492   4.757 -0.5752 -1.3151 -1.2578
 8896SOL    HW227588   6.580   1.589   4.853  1.9844 -0.4660  0.3797
 8897SOL     OW27589   2.556   5.805   5.259 -0.1618  0.5690  0.1843
 8897SOL    HW127590   2.646   5.829   5.294  1.5098 -1.8348 -2.0858
 8897SOL    HW227591   2.554   5.817   5.160 -2.4443  0.7449  0.1867
 8898SOL     OW27592   5.472   6.783   1.365 -0.3453 -0.1715 -0.3718
 8898SOL    HW127593   5.546   6.723   1.335 -0.4275 -0.1703 -0.5793
 8898SOL    HW227594   5.392   6.728   1.388  0.6095 -0.4721  2.7060
 8899SOL     OW27595   3.269   4.541   7.013  0.1509  0.2554  0.5230
 8899SOL    HW127596   3.207   4.507   7.084 -0.1465 -0.4085 -0.0427
 8899SOL    HW227597   3.298   4.634   7.036 -0.5491  0.3379  1.1257
 8900SOL     OW27598   4.590   2.556   6.036 -0.0934  0.3005  0.5521
 8900SOL    HW127599   4.595   2.552   6.135 -0.5817  1.6494  0.6609
 8900SOL    HW227600   4.506   2.604   6.009  0.2326  0.3108 -0.5016
 8901SOL     OW27601   1.118   5.647   6.967 -0.3872 -0.6256 -0.8164
 8901SOL    HW127602   1.062   5.568   6.994  0.1335 -1.2580 -1.5541
 8901SOL    HW227603   1.214   5.619   6.960 -0.1531  0.1521 -0.7848
 8902SOL     OW27604   6.412   4.610   5.821 -0.4359 -0.3821  0.1934
 8902SOL    HW127605   6.326   4.580   5.779  1.3023 -3.0048 -1.9172
 8902SOL    HW227606   6.465   4.662   5.754  0.6720 -1.0284  0.5456
 8903SOL     OW27607   6.945   0.313   3.092  0.1896  0.4562  0.5912
 8903SOL    HW127608   6.954   0.213   3.095  0.5113  0.4227 -0.8633
 8903SOL    HW227609   6.849   0.338   3.078  0.0620  0.3660  1.2867
 8904SOL     OW27610   4.938   5.857   3.497  0.4676 -0.4456 -0.1998
 8904SOL    HW127611   4.872   5.919   3.540  1.6250  0.4568  0.3117
 8904SOL    HW227612   4.935   5.868   3.398 -0.9704 -1.2691 -0.2759
 8905SOL     OW27613   1.273   4.680   6.295 -0.7842 -0.3104 -0.1039
 8905SOL    HW127614   1.281   4.611   6.223  0.1485  0.6406 -0.9556
 8905SOL    HW227615   1.341   4.662   6.366  1.5442  1.3049 -1.7613
 8906SOL     OW27616   4.280   6.968   0.960 -0.6381  0.1042 -0.1796
 8906SOL    HW127617   4.300   7.066   0.967  2.3649 -0.5258  1.4733
 8906SOL    HW227618   4.235   6.937   1.044 -0.6848 -0.1307 -0.2910
 8907SOL     OW27619   1.368   3.569   5.588 -0.3781  0.5037  0.0941
 8907SOL    HW127620   1.280   3.569   5.636  0.9095 -1.1997  2.6930
 8907SOL    HW227621   1.406   3.661   5.589 -2.3126  1.4011 -1.5941
 8908SOL     OW27622   2.100   5.521   6.086 -0.3747 -0.4351  0.4862
 8908SOL    HW127623   2.023   5.579   6.061 -1.1718 -0.8864  1.7932
 8908SOL    HW227624   2.182   5.552   6.038 -1.2486  0.3753 -0.5282
 8909SOL     OW27625   3.413   6.975   1.517 -0.5533 -0.0666 -0.0649
 8909SOL    HW127626   3.346   7.041   1.551 -0.5514 -0.6155  1.0531
 8909SOL    HW227627   3.461   7.013   1.438 -0.7107  1.1684  0.4245
 8910SOL     OW27628   0.962   0.102   4.032 -0.1474  0.1716  0.3835
 8910SOL    HW127629   0.973   0.202   4.032 -0.8355  0.2575  0.7455
 8910SOL    HW227630   0.958   0.069   3.938 -0.5802  0.5773  0.2509
 8911SOL     OW27631   4.858   0.686   4.078 -0.4088  0.2886  0.2005
 8911SOL    HW127632   4.842   0.719   4.172  1.3141  1.0455  0.2798
 8911SOL    HW227633   4.957   0.674   4.064 -0.5023  1.5391 -1.9429
 8912SOL     OW27634   3.221   3.910   3.759 -0.2735  0.6013 -0.0328
 8912SOL    HW127635   3.273   3.966   3.694  0.5995 -0.2288 -0.0848
 8912SOL    HW227636   3.283   3.876   3.830 -0.4652 -1.4414 -0.7856
 8913SOL     OW27637   5.401   5.837   2.253 -0.5331 -0.3006 -0.0891
 8913SOL    HW127638   5.432   5.752   2.296 -1.7814 -0.9721 -0.4875
 8913SOL    HW227639   5.457   5.913   2.287  0.6004 -1.2646  0.2740
 8914SOL     OW27640   6.160   4.561   5.703  0.0479  0.0517  0.0560
 8914SOL    HW127641   6.109   4.646   5.714  0.4732  0.4784 -1.0633
 8914SOL    HW227642   6.146   4.525   5.611  0.9807 -0.3402  0.0465
 8915SOL     OW27643   2.586   1.432   2.569  0.5528  0.5715  0.0587
 8915SOL    HW127644   2.501   1.440   2.518  0.2262  1.3769  0.7018
 8915SOL    HW227645   2.610   1.336   2.579  0.2650  0.3743 -1.0038
 8916SOL     OW27646   6.741   0.507   3.314 -0.5395 -0.2281 -0.6767
 8916SOL    HW127647   6.712   0.480   3.406  0.2090 -1.2552 -0.7197
 8916SOL    HW227648   6.766   0.603   3.313  0.7001 -0.5086  0.5280
 8917SOL     OW27649   4.620   4.230   5.170  0.1491 -0.0720  0.7255
 8917SOL    HW127650   4.539   4.181   5.201 -0.1761 -1.3696 -1.9221
 8917SOL    HW227651   4.637   4.308   5.231 -2.0605 -0.7257  2.3167
 8918SOL     OW27652   2.101   3.536   4.323 -0.3359 -0.2124 -0.0673
 8918SOL    HW127653   2.103   3.580   4.413 -0.6641 -0.2068 -0.0618
 8918SOL    HW227654   2.144   3.597   4.255 -0.1829 -0.1727  0.0644
 8919SOL     OW27655   6.544   2.903   2.414  0.0626 -0.2710  0.5178
 8919SOL    HW127656   6.462   2.962   2.408 -0.3565 -0.9442 -0.8361
 8919SOL    HW227657   6.589   2.902   2.325  0.4829 -1.4153  0.7412
 8920SOL     OW27658   1.828   0.990   6.363 -0.0969 -0.0428 -0.3684
 8920SOL    HW127659   1.756   0.974   6.430  1.1777  0.5358  1.2083
 8920SOL    HW227660   1.846   1.088   6.356  0.3069 -0.1516 -1.0203
 8921SOL     OW27661   1.371   6.622   3.568 -0.0278  0.3442 -0.0516
 8921SOL    HW127662   1.409   6.555   3.631 -0.8076  0.1413  0.2135
 8921SOL    HW227663   1.365   6.582   3.476  0.1887  0.3059 -0.0499
 8922SOL     OW27664   3.751   4.851   3.724  0.6880 -0.1803  0.0735
 8922SOL    HW127665   3.772   4.755   3.709 -0.7622 -0.5507  0.2898
 8922SOL    HW227666   3.809   4.887   3.797  0.6534 -1.1175  0.5789
 8923SOL     OW27667   1.664   2.688   3.383  0.1617  0.6042 -0.2621
 8923SOL    HW127668   1.629   2.683   3.476  2.5467  2.1869  0.8353
 8923SOL    HW227669   1.637   2.775   3.342 -0.2448  0.2427 -0.7622
 8924SOL     OW27670   0.011   4.944   5.028 -0.4167 -0.2947 -0.4419
 8924SOL    HW127671  -0.038   4.857   5.032  0.3221 -0.7770 -1.4219
 8924SOL    HW227672   0.016   4.976   4.934 -0.2123  0.5460 -0.1598
 8925SOL     OW27673   2.046   5.501   3.151 -0.6158  0.4221 -0.0875
 8925SOL    HW127674   2.064   5.588   3.105  0.6169  0.3057  0.1562
 8925SOL    HW227675   1.947   5.487   3.158 -0.8285  1.0528 -1.5289
 8926SOL     OW27676   5.615   3.463   7.005  0.5023  0.8519 -0.3779
 8926SOL    HW127677   5.583   3.406   6.929 -2.0825  0.9212  0.5280
 8926SOL    HW227678   5.657   3.404   7.075 -1.7247 -0.0063  0.3423
 8927SOL     OW27679   1.998   0.558   0.586  0.3623 -0.1478 -0.0550
 8927SOL    HW127680   2.031   0.473   0.544 -1.6958 -1.2992  0.4912
 8927SOL    HW227681   1.991   0.629   0.517  2.8025 -0.1492 -0.3939
 8928SOL     OW27682   6.358   6.665   3.375  0.4108  0.4148 -0.6728
 8928SOL    HW127683   6.311   6.753   3.374  0.7372  0.6046  0.1781
 8928SOL    HW227684   6.457   6.679   3.370  0.4058  0.0153 -2.5097
 8929SOL     OW27685   5.908   2.021   2.770  0.9757 -0.0956 -0.0006
 8929SOL    HW127686   5.969   2.054   2.697  1.3460  1.8274  1.1051
 8929SOL    HW227687   5.939   1.932   2.801  2.3656  0.1966 -0.4638
 8930SOL     OW27688   3.537   4.892   3.022  0.3845  0.3313 -0.0810
 8930SOL    HW127689   3.545   4.929   2.929 -0.0458 -0.9541 -0.6508
 8930SOL    HW227690   3.623   4.848   3.047 -0.0304 -0.7564 -0.5248
 8931SOL     OW27691   4.930   2.994   5.768 -0.2326  0.7404 -0.3471
 8931SOL    HW127692   4.888   2.984   5.678  0.7582  1.4704 -0.9005
 8931SOL    HW227693   5.017   2.945   5.771  0.8242  2.5379 -0.5363
 8932SOL     OW27694   0.473   3.464   2.152 -0.3194  0.1623  0.0544
 8932SOL    HW127695   0.436   3.509   2.234 -1.9932 -2.3923  0.8321
 8932SOL    HW227696   0.567   3.435   2.169 -0.6790 -0.4222  1.1606
 8933SOL     OW27697   4.735   3.392   6.513 -0.1616 -0.5485 -0.3916
 8933SOL    HW127698   4.736   3.315   6.450 -0.0437 -1.3380  0.5642
 8933SOL    HW227699   4.784   3.469   6.473  0.5863 -1.3011 -0.9315
 8934SOL     OW27700   3.755   5.296   1.103  0.1704 -0.3709  0.5363
 8934SOL    HW127701   3.699   5.238   1.162  1.7871 -0.2300  2.2908
 8934SOL    HW227702   3.731   5.392   1.119 -0.5799 -0.4012 -0.3346
 8935SOL     OW27703   0.506   5.329   5.277  0.0315  0.2501 -0.3277
 8935SOL    HW127704   0.506   5.276   5.192  0.2937  0.1253 -0.2541
 8935SOL    HW227705   0.435   5.399   5.274  0.9216  1.1534 -1.2245
 8936SOL     OW27706   2.489   2.787   0.978  0.3984 -0.1400 -0.5188
 8936SOL    HW127707   2.520   2.840   1.057  0.8202  0.5087 -1.1067
 8936SOL    HW227708   2.509   2.838   0.894 -3.3171  0.9178 -0.9284
 8937SOL     OW27709   1.266   1.351   6.367  0.5200 -0.0753  0.2356
 8937SOL    HW127710   1.290   1.409   6.444  1.2106  1.1507 -0.8606
 8937SOL    HW227711   1.173   1.374   6.335  1.9264  2.9363 -2.2604
 8938SOL     OW27712   4.712   5.504   2.916 -0.0146  0.0342  0.0450
 8938SOL    HW127713   4.755   5.525   2.828  2.5186 -0.2367  1.1434
 8938SOL    HW227714   4.741   5.414   2.947 -1.4562 -0.1827  0.8521
 8939SOL     OW27715   6.050   1.646   6.240  0.1257  0.3195 -0.0667
 8939SOL    HW127716   5.980   1.590   6.196  0.9633  0.1450 -1.2228
 8939SOL    HW227717   6.117   1.586   6.284 -1.5052  0.4701  2.9250
 8940SOL     OW27718   4.591   6.978   1.084 -1.0194  0.5849 -0.1236
 8940SOL    HW127719   4.565   6.984   1.181  0.7576  0.2129  0.4156
 8940SOL    HW227720   4.544   7.050   1.033 -1.3723  1.3157  1.1761
 8941SOL     OW27721   4.028   2.877   6.768  0.1373 -0.1272  0.1401
 8941SOL    HW127722   3.987   2.840   6.684  0.3346  1.8260 -0.8890
 8941SOL    HW227723   4.127   2.870   6.763  0.1545  0.0889  0.1428
 8942SOL     OW27724   0.428   0.866   6.946 -0.4631  0.0104 -0.0473
 8942SOL    HW127725   0.399   0.815   6.864  1.4656 -0.5919 -0.4058
 8942SOL    HW227726   0.393   0.959   6.941 -0.8603 -0.1808 -1.2853
 8943SOL     OW27727   5.149   5.257   0.165 -0.6491  0.3969 -0.1354
 8943SOL    HW127728   5.074   5.321   0.178 -1.0699 -0.3770  1.5835
 8943SOL    HW227729   5.113   5.167   0.140 -0.3324  0.0107  0.7340
 8944SOL     OW27730   5.157   5.354   0.675  0.0757  0.3326  0.1533
 8944SOL    HW127731   5.192   5.329   0.585  0.7081 -1.1396  0.7782
 8944SOL    HW227732   5.058   5.341   0.676 -0.0746  1.2878 -0.6027
 8945SOL     OW27733   2.582   0.642   3.969 -0.2643  0.0069  0.0269
 8945SOL    HW127734   2.556   0.613   3.877 -1.4824  1.7449 -0.2304
 8945SOL    HW227735   2.674   0.681   3.967 -0.1856 -0.1920 -0.4125
 8946SOL     OW27736   4.896   5.534   4.630 -0.3491  0.2030  0.4862
 8946SOL    HW127737   4.935   5.626   4.625  1.3996 -0.3939  1.9457
 8946SOL    HW227738   4.920   5.493   4.718 -3.8619 -0.4755  1.2794
 8947SOL     OW27739   3.337   2.129   6.759  0.5747  0.3131  0.5087
 8947SOL    HW127740   3.314   2.216   6.718 -1.6662 -0.6673 -0.4833
 8947SOL    HW227741   3.355   2.061   6.687 -0.3665 -0.6792  1.1796
 8948SOL     OW27742   6.479   4.524   3.485  0.5394  0.2011  0.3145
 8948SOL    HW127743   6.486   4.435   3.531 -0.6288 -0.3549 -0.5575
 8948SOL    HW227744   6.530   4.521   3.400  0.6804  0.4463  0.3898
 8949SOL     OW27745   1.417   4.907   5.155 -0.0323  0.0244 -0.4940
 8949SOL    HW127746   1.462   4.920   5.066  2.2200 -0.0933  0.5487
 8949SOL    HW227747   1.357   4.985   5.173  0.9622  1.0141 -1.2868
 8950SOL     OW27748   5.543   2.137   4.750  0.6324  0.4490 -0.3286
 8950SOL    HW127749   5.533   2.168   4.656  2.7873  0.9016 -0.4484
 8950SOL    HW227750   5.469   2.072   4.772 -0.3157  0.8860 -2.0584
 8951SOL     OW27751   0.858   1.452   4.827 -0.0015 -0.2243  0.4311
 8951SOL    HW127752   0.854   1.536   4.880 -0.3294  1.2854 -1.8604
 8951SOL    HW227753   0.950   1.413   4.831  0.2379  0.4274  1.2425
 8952SOL     OW27754   5.348   6.159   3.298  0.3329  0.2996  0.5343
 8952SOL    HW127755   5.446   6.159   3.278 -0.0683 -0.2447 -1.7619
 8952SOL    HW227756   5.312   6.253   3.291  0.5833  0.4247  0.8868
 8953SOL     OW27757   3.995   5.224   6.189 -0.3569  0.1510  0.1282
 8953SOL    HW127758   4.023   5.154   6.254 -0.9797  0.0715  0.3155
 8953SOL    HW227759   3.895   5.229   6.186 -0.3876 -0.7838 -1.8181
 8954SOL     OW27760   2.936   5.413   6.360 -0.4264  0.3282 -0.0646
 8954SOL    HW127761   2.847   5.375   6.334 -0.3989  0.9218 -1.0785
 8954SOL    HW227762   2.952   5.498   6.309  1.3771 -0.5421 -1.0256
 8955SOL     OW27763   0.542   3.828   5.014 -0.5146  0.2358  0.1245
 8955SOL    HW127764   0.500   3.798   4.929 -2.8375 -1.4262  1.7293
 8955SOL    HW227765   0.525   3.926   5.027 -0.7644  0.3455 -0.9498
 8956SOL     OW27766   3.870   1.796   6.199 -0.5184  0.2368  0.2229
 8956SOL    HW127767   3.816   1.778   6.281 -2.1072  1.4476 -0.5028
 8956SOL    HW227768   3.872   1.894   6.181 -0.4467 -0.0156 -1.3229
 8957SOL     OW27769   2.801   5.969   1.756 -0.4092  0.4952 -0.0382
 8957SOL    HW127770   2.707   5.944   1.777 -1.2311  0.5387 -3.1656
 8957SOL    HW227771   2.833   5.915   1.677  1.3447  2.1196 -0.5153
 8958SOL     OW27772   3.041   1.220   6.172 -0.0265 -0.9092 -0.1940
 8958SOL    HW127773   3.016   1.136   6.125 -1.0517 -0.7995  0.1399
 8958SOL    HW227774   2.960   1.262   6.211  0.7631 -0.9609  1.6182
 8959SOL     OW27775   4.281   5.027   5.035  0.1065  0.0675  0.2125
 8959SOL    HW127776   4.258   4.941   5.081 -1.4051  0.5705  0.4379
 8959SOL    HW227777   4.356   5.011   4.971 -0.5493 -1.5379 -0.1999
 8960SOL     OW27778   6.311   6.080   1.607 -0.2369 -0.7282 -0.1147
 8960SOL    HW127779   6.305   6.003   1.671 -0.7986 -0.3760  0.2722
 8960SOL    HW227780   6.317   6.166   1.658 -1.5354 -0.3766 -0.5042
 8961SOL     OW27781   6.585   1.743   3.529  0.0129 -0.1599  0.0751
 8961SOL    HW127782   6.683   1.759   3.537 -0.0440  1.0232 -1.3282
 8961SOL    HW227783   6.563   1.652   3.565  1.8187 -1.0212 -0.8759
 8962SOL     OW27784   4.343   0.403   3.470 -0.5789 -0.1248 -0.8168
 8962SOL    HW127785   4.273   0.462   3.430 -1.6494  0.3731  1.5907
 8962SOL    HW227786   4.312   0.370   3.559  2.2164  0.1267  0.3750
 8963SOL     OW27787   0.773   0.538   5.451  0.2128 -0.3456  0.1987
 8963SOL    HW127788   0.773   0.541   5.351  1.6592  0.4823  0.1923
 8963SOL    HW227789   0.711   0.608   5.486  0.3828 -0.0251 -0.1295
 8964SOL     OW27790   2.310   1.556   2.845  0.6077 -0.1937 -0.0058
 8964SOL    HW127791   2.326   1.632   2.782 -0.4915 -0.8544 -1.1231
 8964SOL    HW227792   2.289   1.592   2.936 -1.2937  0.9227 -0.8310
 8965SOL     OW27793   1.917   4.834   1.497  0.1668 -0.2819  0.5883
 8965SOL    HW127794   1.891   4.800   1.588 -1.0616  1.1482  0.8069
 8965SOL    HW227795   1.853   4.905   1.468  0.7551 -0.4554 -1.2625
 8966SOL     OW27796   3.584   1.815   3.977 -0.0105  0.3143 -0.0141
 8966SOL    HW127797   3.656   1.748   3.996 -1.4652 -1.3998 -0.3909
 8966SOL    HW227798   3.578   1.879   4.053 -0.2885 -1.5447  1.6019
 8967SOL     OW27799   5.078   6.502   1.269 -0.0479 -0.2007 -0.4241
 8967SOL    HW127800   5.062   6.442   1.348 -1.8368  4.3471  3.1135
 8967SOL    HW227801   4.996   6.505   1.212 -0.4560 -0.1309  0.1537
 8968SOL     OW27802   6.625   4.062   3.146 -0.0772  0.2906  0.2066
 8968SOL    HW127803   6.564   4.090   3.072  2.0879  1.1377 -1.3665
 8968SOL    HW227804   6.653   3.967   3.131  2.3865  1.2088 -1.6674
 8969SOL     OW27805   5.983   1.304   4.666  0.1852  0.1213 -0.4737
 8969SOL    HW127806   5.958   1.227   4.607 -0.5118 -0.5584  0.6763
 8969SOL    HW227807   5.917   1.312   4.741 -1.1718  3.3504 -1.8633
 8970SOL     OW27808   4.094   2.215   0.518  0.3707 -0.3611 -0.5034
 8970SOL    HW127809   4.022   2.155   0.553 -0.5904  0.8562 -0.3187
 8970SOL    HW227810   4.121   2.185   0.427  1.8050 -2.6426  0.5722
 8971SOL     OW27811   2.664   6.998   1.794 -0.1419 -0.0220 -1.0362
 8971SOL    HW127812   2.718   7.023   1.714  0.9207  0.8312 -0.0874
 8971SOL    HW227813   2.719   6.942   1.856 -0.1214  1.3054  0.2055
 8972SOL     OW27814   5.768   5.934   4.837 -0.0348 -0.3331  0.2496
 8972SOL    HW127815   5.772   5.997   4.914  0.3573  0.3979 -0.3531
 8972SOL    HW227816   5.751   5.842   4.870  0.4003 -0.0746  1.2311
 8973SOL     OW27817   1.958   2.931   0.983 -0.5705  0.1867  0.8885
 8973SOL    HW127818   2.029   2.864   1.001 -0.8800 -0.5114 -0.3847
 8973SOL    HW227819   1.999   3.020   0.964  0.2701 -0.8589 -3.0312
 8974SOL     OW27820   5.688   1.855   2.469 -0.6793 -0.3308  0.1910
 8974SOL    HW127821   5.610   1.803   2.433 -2.4253  2.9025 -1.0871
 8974SOL    HW227822   5.665   1.892   2.558  0.3953 -1.2858  0.8994
 8975SOL     OW27823   4.242   1.215   6.638  0.4345  0.5522 -0.3269
 8975SOL    HW127824   4.250   1.219   6.538  0.2752 -1.4420 -0.4526
 8975SOL    HW227825   4.156   1.169   6.662 -0.1336  2.0965  0.7742
 8976SOL     OW27826   2.534   5.246   5.287 -0.0874 -0.6835  0.5806
 8976SOL    HW127827   2.622   5.215   5.320 -0.0507  0.6327  1.8029
 8976SOL    HW227828   2.461   5.215   5.348 -0.7336 -3.1028 -1.2376
 8977SOL     OW27829   6.535   3.120   0.373  0.1075 -0.4904  0.4111
 8977SOL    HW127830   6.441   3.102   0.342  0.0970  0.0164  0.1424
 8977SOL    HW227831   6.539   3.108   0.472 -0.0790 -1.1866  0.3422
 8978SOL     OW27832   4.807   5.736   6.692 -0.1181  0.2738 -0.2057
 8978SOL    HW127833   4.857   5.773   6.770  1.3235 -1.2956 -0.3357
 8978SOL    HW227834   4.846   5.770   6.607  2.3360 -2.5770 -0.4031
 8979SOL     OW27835   0.492   3.142   6.173  0.1024 -0.1683 -0.2100
 8979SOL    HW127836   0.427   3.067   6.161 -0.2687  0.2010 -0.5527
 8979SOL    HW227837   0.455   3.225   6.132  0.0666  0.4579  1.0265
 8980SOL     OW27838   2.638   3.502   5.333 -0.7048  0.2787 -0.1789
 8980SOL    HW127839   2.544   3.470   5.332 -0.4177 -0.6384  0.5573
 8980SOL    HW227840   2.644   3.591   5.379 -1.0976 -0.0578  0.5341
 8981SOL     OW27841   3.634   3.515   5.144  1.0896  0.0735  0.6626
 8981SOL    HW127842   3.705   3.470   5.198 -0.1341 -1.2138  1.2456
 8981SOL    HW227843   3.609   3.457   5.066  1.3888  0.9969 -0.1491
 8982SOL     OW27844   4.544   5.391   6.466  0.4347 -0.7505 -0.2151
 8982SOL    HW127845   4.621   5.440   6.506  0.3277 -1.0626  0.3960
 8982SOL    HW227846   4.460   5.444   6.479  0.2931 -1.1587  0.5913
 8983SOL     OW27847   5.893   4.185   1.791 -0.2565 -0.2089 -0.6101
 8983SOL    HW127848   5.817   4.200   1.728  0.7292  1.3654 -1.4773
 8983SOL    HW227849   5.978   4.215   1.749  0.5653  0.0100  1.1242
 8984SOL     OW27850   1.184   5.514   2.573 -0.1232 -0.1873 -0.5047
 8984SOL    HW127851   1.263   5.527   2.513 -0.5686  2.8767 -0.5994
 8984SOL    HW227852   1.101   5.543   2.525 -0.7302  0.5647  0.9322
 8985SOL     OW27853   4.118   3.563   6.217 -0.5615  0.0608 -0.2323
 8985SOL    HW127854   4.151   3.473   6.246  2.4478  1.3045  0.6315
 8985SOL    HW227855   4.064   3.604   6.291 -1.4994 -0.7603 -0.4304
 8986SOL     OW27856   2.904   6.774   0.541 -0.9454  0.2726  0.0413
 8986SOL    HW127857   2.921   6.825   0.626 -0.5509 -1.1756  0.8649
 8986SOL    HW227858   2.816   6.728   0.547 -0.1020 -1.3413  0.4651
 8987SOL     OW27859   5.507   5.595   2.267 -0.4117 -0.5734  0.4356
 8987SOL    HW127860   5.586   5.599   2.206 -0.2348  0.0222  0.7020
 8987SOL    HW227861   5.481   5.499   2.281  0.0095 -0.7515  0.0268
 8988SOL     OW27862   1.060   2.851   4.624  0.4441  0.4443 -0.1765
 8988SOL    HW127863   1.130   2.780   4.631 -0.4272 -0.5182 -0.9428
 8988SOL    HW227864   0.995   2.842   4.700  0.8670  1.0539  0.2754
 8989SOL     OW27865   4.078   2.281   0.885  0.0967  0.0128 -0.3449
 8989SOL    HW127866   4.094   2.213   0.814 -1.7396  0.2231 -0.9878
 8989SOL    HW227867   4.070   2.236   0.974  2.3223 -0.2545 -0.2071
 8990SOL     OW27868   1.022   4.214   3.238 -0.0075 -0.1784 -0.3573
 8990SOL    HW127869   1.065   4.304   3.234 -2.0541  0.9485  1.1192
 8990SOL    HW227870   0.938   4.214   3.183  0.2773 -1.3961 -0.8318
 8991SOL     OW27871   1.755   0.811   5.298 -0.0628  0.6198  0.1839
 8991SOL    HW127872   1.757   0.826   5.397 -1.1594  0.3951  0.2599
 8991SOL    HW227873   1.678   0.862   5.259 -0.1081  0.0887 -0.4400
 8992SOL     OW27874   5.169   0.781   1.933  1.1262  0.1495  0.4376
 8992SOL    HW127875   5.257   0.828   1.931  1.6767 -0.8723  0.2964
 8992SOL    HW227876   5.141   0.759   1.839  0.6528  0.5700  0.4707
 8993SOL     OW27877   4.953   1.214   0.483  0.1174  0.0794 -0.3260
 8993SOL    HW127878   5.034   1.182   0.434 -0.2528 -0.9303 -0.3041
 8993SOL    HW227879   4.947   1.169   0.571  0.2211  1.1237  0.2322
 8994SOL     OW27880   1.852   5.026   2.263  0.1970  0.0248 -0.7024
 8994SOL    HW127881   1.950   5.033   2.246  0.5552  0.9343  1.4628
 8994SOL    HW227882   1.811   4.963   2.196  2.5500 -1.8592 -0.4995
 8995SOL     OW27883   5.858   1.535   0.941  0.1569  0.5399  0.4703
 8995SOL    HW127884   5.932   1.600   0.961 -0.6727  1.8916 -0.6641
 8995SOL    HW227885   5.774   1.565   0.984  0.0352 -0.4963  0.9852
 8996SOL     OW27886   4.800   6.329   6.899 -0.1253 -0.3806 -0.0402
 8996SOL    HW127887   4.785   6.255   6.834  0.1652 -0.7495  0.3057
 8996SOL    HW227888   4.848   6.293   6.979  1.3391  0.4889 -0.5032
 8997SOL     OW27889   5.398   5.857   4.202  0.1432 -0.5173  0.5094
 8997SOL    HW127890   5.319   5.814   4.160  0.0373 -2.2162  2.2939
 8997SOL    HW227891   5.460   5.787   4.236  0.3351  0.7047  2.8867
 8998SOL     OW27892   1.212   3.977   4.623  0.5382 -0.6623  0.1602
 8998SOL    HW127893   1.271   4.029   4.684  0.4361 -1.8462  1.3065
 8998SOL    HW227894   1.267   3.914   4.567  0.6399  0.4677 -1.0719
 8999SOL     OW27895   5.005   5.762   6.377  0.4566  0.0460 -0.1245
 8999SOL    HW127896   4.996   5.667   6.410 -0.0070  0.5744  1.3680
 8999SOL    HW227897   4.994   5.764   6.278 -0.0926 -1.3995 -0.1209
 9000SOL     OW27898   0.556   4.841   0.817 -0.1051 -0.2840 -0.3766
 9000SOL    HW127899   0.593   4.929   0.787  0.0699 -0.4981 -0.7836
 9000SOL    HW227900   0.573   4.829   0.915 -0.8598  0.5097 -0.1312
 9001SOL     OW27901   0.169   6.274   1.806  0.5473 -0.2934  0.5753
 9001SOL    HW127902   0.101   6.201   1.801 -1.8878  1.8154  0.4481
 9001SOL    HW227903   0.166   6.328   1.722 -0.8254  2.4220  2.2353
 9002SOL     OW27904   5.089   5.670   0.515 -0.2124  0.1018 -0.5427
 9002SOL    HW127905   5.165   5.688   0.578  0.0914 -1.0465 -0.5542
 9002SOL    HW227906   5.011   5.635   0.567 -0.4782  0.5753 -0.6231
 9003SOL     OW27907   3.011   5.132   2.229  0.1625 -0.0898 -0.0342
 9003SOL    HW127908   3.107   5.125   2.203  0.0872  0.7836 -0.6294
 9003SOL    HW227909   2.989   5.228   2.248 -0.1499 -0.5180  1.9026
 9004SOL     OW27910   5.625   4.868   2.429  0.0214  0.1131  0.7894
 9004SOL    HW127911   5.546   4.913   2.469 -2.3601 -1.2585 -1.9999
 9004SOL    HW227912   5.641   4.903   2.337  2.4892  0.0725  1.1156
 9005SOL     OW27913   4.885   6.874   4.625 -0.0689 -0.6999  0.3217
 9005SOL    HW127914   4.860   6.961   4.582 -1.9330 -0.7679  1.1667
 9005SOL    HW227915   4.904   6.889   4.722 -0.1864 -1.1981  0.4234
 9006SOL     OW27916   3.499   0.473   6.327  0.1915 -0.1465  0.4438
 9006SOL    HW127917   3.470   0.567   6.343  0.4881 -0.0598  0.4720
 9006SOL    HW227918   3.577   0.452   6.385  0.3769 -0.2828  0.1489
 9007SOL     OW27919   5.572   0.770   4.271 -0.6024  0.0337 -0.0086
 9007SOL    HW127920   5.626   0.686   4.256  0.2096  0.7333 -1.1872
 9007SOL    HW227921   5.548   0.809   4.183  0.2422  1.8035  0.5087
 9008SOL     OW27922   6.503   0.007   3.397 -0.1870  0.0714  0.0825
 9008SOL    HW127923   6.576   0.024   3.331 -1.9217  2.3611 -1.3908
 9008SOL    HW227924   6.432  -0.048   3.354 -0.5038  0.0138  0.6721
 9009SOL     OW27925   3.309   5.183   0.655  0.5014 -0.2671  0.3198
 9009SOL    HW127926   3.406   5.162   0.650  0.3516 -0.7019 -2.0674
 9009SOL    HW227927   3.296   5.282   0.653  0.8827 -0.2044  0.7788
 9010SOL     OW27928   1.014   3.224   3.721 -0.0727  0.3595 -0.2281
 9010SOL    HW127929   1.028   3.255   3.816  0.1638  0.1740 -0.2013
 9010SOL    HW227930   1.090   3.166   3.694 -0.8030 -0.7031 -0.0710
 9011SOL     OW27931   2.066   2.881   2.296  0.4314  0.3467 -0.0235
 9011SOL    HW127932   1.982   2.856   2.345  1.3097  2.4138  2.8491
 9011SOL    HW227933   2.106   2.800   2.253 -2.1258 -0.9888 -0.0669
 9012SOL     OW27934   2.930   4.948   6.941  0.2851  0.6840 -0.0608
 9012SOL    HW127935   2.941   4.851   6.918 -0.8149  0.1478  1.4501
 9012SOL    HW227936   2.852   4.985   6.891  0.7654  0.8390 -0.7149
 9013SOL     OW27937   1.861   0.987   5.042  0.5698  0.4359 -0.0193
 9013SOL    HW127938   1.934   1.028   5.097  3.3686 -1.2553 -2.2144
 9013SOL    HW227939   1.834   0.900   5.083  1.2046  0.1384 -0.2221
 9014SOL     OW27940   5.343   3.789   1.744  0.1580  0.5588 -0.0207
 9014SOL    HW127941   5.423   3.848   1.736  1.4832 -1.1070  0.1749
 9014SOL    HW227942   5.350   3.735   1.828 -1.7222  1.1150  0.5345
 9015SOL     OW27943   3.305   0.168   0.462  0.0745 -0.2559 -0.1951
 9015SOL    HW127944   3.255   0.240   0.415  0.5127 -0.3173 -0.7600
 9015SOL    HW227945   3.401   0.171   0.436 -0.0490 -1.5571 -0.8675
 9016SOL     OW27946   2.784   4.275   6.495 -0.3485 -0.2199  0.2449
 9016SOL    HW127947   2.735   4.239   6.415 -1.4497 -0.4553  1.0055
 9016SOL    HW227948   2.872   4.313   6.466 -0.7691 -0.2226 -1.0878
 9017SOL     OW27949   1.157   0.224   6.077  0.2645 -0.6323 -0.1881
 9017SOL    HW127950   1.159   0.238   6.175  2.7872  0.0504 -0.2448
 9017SOL    HW227951   1.128   0.131   6.057 -0.9082 -0.5786  1.1419
 9018SOL     OW27952   3.988   6.447   6.265 -0.2227 -0.3581 -0.2555
 9018SOL    HW127953   4.031   6.358   6.254 -1.3987 -1.2471  1.7288
 9018SOL    HW227954   4.033   6.498   6.339 -1.0862 -0.3824  0.3167
 9019SOL     OW27955   1.324   4.885   6.616  0.1754  0.2044 -0.2531
 9019SOL    HW127956   1.227   4.874   6.596 -0.5014  3.2151  0.8532
 9019SOL    HW227957   1.344   4.981   6.635  3.6906 -0.0364 -1.8668
 9020SOL     OW27958   5.774   6.338   5.018  0.4718 -0.1757  0.3233
 9020SOL    HW127959   5.867   6.363   4.988 -0.3326 -0.1867 -2.5340
 9020SOL    HW227960   5.709   6.406   4.982 -0.8226 -1.3029  0.4715
 9021SOL     OW27961   0.468   1.007   6.624 -0.1474  0.5386  0.6386
 9021SOL    HW127962   0.479   0.909   6.636 -1.1665  0.6271  2.5857
 9021SOL    HW227963   0.495   1.032   6.530  0.0764 -1.5725  0.0898
 9022SOL     OW27964   4.409   3.278   5.654 -0.0003  0.2229 -0.3023
 9022SOL    HW127965   4.383   3.230   5.570 -1.5020 -1.5350  1.0796
 9022SOL    HW227966   4.343   3.351   5.672 -0.3339 -0.1207 -0.1028
 9023SOL     OW27967   6.573   5.789   0.565  0.3250  0.0199 -0.1514
 9023SOL    HW127968   6.597   5.774   0.469  2.0404 -1.6644  0.4830
 9023SOL    HW227969   6.483   5.750   0.584  0.0955  0.1194 -0.9848
 9024SOL     OW27970   2.189   3.792   6.999  0.2850 -0.5643 -0.3603
 9024SOL    HW127971   2.237   3.710   6.970  0.2102 -0.5222 -0.6068
 9024SOL    HW227972   2.206   3.809   7.096  0.7659 -0.5524 -0.4457
 9025SOL     OW27973   6.632   5.602   2.980  0.1614  0.0601  0.2175
 9025SOL    HW127974   6.581   5.516   2.977  2.3326 -1.2526 -2.5128
 9025SOL    HW227975   6.600   5.662   2.907  1.0678  0.0980 -0.1524
 9026SOL     OW27976   6.823   0.808   0.247 -0.0697 -0.0920 -0.1779
 9026SOL    HW127977   6.739   0.814   0.302  0.3834  0.6371  0.4684
 9026SOL    HW227978   6.827   0.885   0.184 -1.4668 -1.8730 -2.5935
 9027SOL     OW27979   6.182   3.605   3.136  0.1430 -0.2467 -0.5517
 9027SOL    HW127980   6.083   3.612   3.144  0.1410 -2.1104  3.4388
 9027SOL    HW227981   6.225   3.678   3.190  0.9386  0.0675 -1.5904
 9028SOL     OW27982   3.191   6.129   6.209 -0.0704 -1.0472 -0.1332
 9028SOL    HW127983   3.202   6.228   6.206 -0.8934 -0.8982  1.0453
 9028SOL    HW227984   3.095   6.106   6.190  0.1504 -1.6417 -0.5738
 9029SOL     OW27985   5.710   0.001   3.218 -0.2756 -0.2614  0.0701
 9029SOL    HW127986   5.620  -0.030   3.250  1.0558 -2.2268  2.2880
 9029SOL    HW227987   5.728  -0.038   3.128 -0.8514 -1.5574  0.4892
 9030SOL     OW27988   0.680   2.280   4.237  0.2230  0.3300 -0.3871
 9030SOL    HW127989   0.607   2.335   4.278  2.2222  2.5696  0.4729
 9030SOL    HW227990   0.697   2.311   4.144 -0.5787 -0.9123 -0.9698
 9031SOL     OW27991   4.897   0.545   5.052  0.3051 -0.0591  0.1543
 9031SOL    HW127992   4.853   0.625   5.093  0.4229 -0.1911  0.5460
 9031SOL    HW227993   4.995   0.546   5.074  0.2766 -0.3969  0.3047
 9032SOL     OW27994   5.361   4.620   0.381 -0.0827 -0.2574  0.7376
 9032SOL    HW127995   5.375   4.607   0.480  0.0401 -0.1751  0.7315
 9032SOL    HW227996   5.280   4.676   0.366  1.0350  1.4931  0.8665
 9033SOL     OW27997   3.300   6.585   2.781 -0.7840  0.1222  0.9619
 9033SOL    HW127998   3.358   6.644   2.837 -1.2668  1.3730  0.1863
 9033SOL    HW227999   3.247   6.641   2.717  0.3363 -1.2760 -1.3171
 9034SOL     OW28000   1.599   0.714   5.011  0.1984 -0.5343 -0.5871
 9034SOL    HW128001   1.546   0.680   4.934  0.3626 -0.2296 -0.8389
 9034SOL    HW228002   1.554   0.794   5.050 -0.4622 -1.3375  0.3358
 9035SOL     OW28003   0.603   5.040   5.939  0.9534  0.1988 -0.3342
 9035SOL    HW128004   0.551   4.981   5.877  2.4224 -0.7508 -0.7137
 9035SOL    HW228005   0.568   5.029   6.032  0.3557 -0.2649 -0.6028
 9036SOL     OW28006   0.922   5.031   2.694  0.3974 -0.3194  0.1603
 9036SOL    HW128007   0.949   5.094   2.766  0.3847 -1.3875  1.1231
 9036SOL    HW228008   0.939   4.937   2.723 -2.7541 -0.9996  0.1774
 9037SOL     OW28009   6.776   6.885   1.231 -0.1325 -0.4633  0.0993
 9037SOL    HW128010   6.746   6.851   1.321  0.4197  1.4277  1.0559
 9037SOL    HW228011   6.710   6.952   1.198 -0.8955 -1.9159 -1.4701
 9038SOL     OW28012   3.478   5.241   5.472  1.0858 -0.4428 -0.0416
 9038SOL    HW128013   3.383   5.210   5.471  0.3879  1.1885  3.1175
 9038SOL    HW228014   3.534   5.175   5.522  0.4004  1.1127  3.0286
 9039SOL     OW28015   6.430   6.987   0.030  0.2019  0.6973 -0.3513
 9039SOL    HW128016   6.524   7.015   0.051  0.1374  0.0338  0.9715
 9039SOL    HW228017   6.422   6.966  -0.067  1.7890 -0.5312 -0.2615
 9040SOL     OW28018   0.598   2.675   1.786  0.4349 -0.0838 -0.0937
 9040SOL    HW128019   0.649   2.743   1.733  0.1378 -0.1825 -0.5075
 9040SOL    HW228020   0.519   2.644   1.733  0.8399 -1.1184 -0.1108
 9041SOL     OW28021   6.687   2.905   3.607  0.3253 -0.9575 -0.4407
 9041SOL    HW128022   6.644   2.958   3.680 -0.5514  0.6688 -2.0506
 9041SOL    HW228023   6.616   2.857   3.555  0.8603 -1.4994 -0.6768
 9042SOL     OW28024   5.756   5.965   5.781 -0.0465  0.0598 -0.3613
 9042SOL    HW128025   5.761   6.065   5.783  3.1047  0.0565 -1.4586
 9042SOL    HW228026   5.793   5.928   5.866  0.9750 -0.1136 -0.8591
 9043SOL     OW28027   2.790   3.395   1.883 -0.0862  0.2193  0.2202
 9043SOL    HW128028   2.814   3.385   1.979  0.4090 -2.8571 -0.1139
 9043SOL    HW228029   2.690   3.403   1.873 -0.1975 -0.2003  0.9685
 9044SOL     OW28030   1.770   0.368   6.605 -0.2982  0.2345 -0.4873
 9044SOL    HW128031   1.720   0.424   6.539  0.3232  0.9018 -0.4024
 9044SOL    HW228032   1.730   0.381   6.696  0.2911  1.1294 -0.3379
 9045SOL     OW28033   4.295   2.046   4.803  0.2054  0.2252  0.1327
 9045SOL    HW128034   4.245   1.968   4.766  0.2177  0.9588 -1.5345
 9045SOL    HW228035   4.332   2.100   4.727 -1.6980  3.0790  1.0862
 9046SOL     OW28036   3.495   4.155   4.809  0.0401 -0.3196 -0.4693
 9046SOL    HW128037   3.485   4.150   4.709  2.7362  2.1757 -1.0178
 9046SOL    HW228038   3.454   4.240   4.842  3.0245  1.2053 -0.2867
 9047SOL     OW28039   1.241   4.141   5.838  0.2451 -0.2255  0.4652
 9047SOL    HW128040   1.164   4.204   5.839  1.2238  1.0174  2.1994
 9047SOL    HW228041   1.304   4.167   5.764 -1.2241 -1.6414 -1.3879
 9048SOL     OW28042   0.744   1.857   3.279  0.3080  0.8917 -0.6938
 9048SOL    HW128043   0.731   1.946   3.321 -1.6560  0.8833 -1.1953
 9048SOL    HW228044   0.783   1.793   3.346  0.5838  1.7889  0.0140
 9049SOL     OW28045   0.433   0.453   0.503 -0.7159  0.0649  0.1523
 9049SOL    HW128046   0.349   0.508   0.500  0.8278  2.6167  0.1256
 9049SOL    HW228047   0.512   0.514   0.504  1.1713 -2.2377  0.3865
 9050SOL     OW28048   1.871   3.759   6.988  0.2091  0.1795 -0.0794
 9050SOL    HW128049   1.950   3.807   7.027  0.6373 -1.1028  0.7124
 9050SOL    HW228050   1.787   3.794   7.030  0.5326  0.0819  0.6755
 9051SOL     OW28051   2.848   1.635   0.159  0.5046 -0.5070  0.0852
 9051SOL    HW128052   2.755   1.633   0.121  0.8584 -1.7853 -0.7845
 9051SOL    HW228053   2.903   1.700   0.107  0.0897  0.2983  0.6399
 9052SOL     OW28054   2.297   2.003   6.470 -0.4885  0.4957  0.9669
 9052SOL    HW128055   2.328   1.988   6.564 -0.2412 -0.2035  0.7790
 9052SOL    HW228056   2.205   2.042   6.471 -0.8305 -0.3130  1.4880
 9053SOL     OW28057   0.299   1.802   6.608  0.1811  0.4376  0.0224
 9053SOL    HW128058   0.208   1.767   6.587  0.1426  0.1156  0.6881
 9053SOL    HW228059   0.368   1.750   6.558  0.0933 -0.2922  0.6498
 9054SOL     OW28060   1.017   6.037   3.302  0.1526 -0.1326 -0.3546
 9054SOL    HW128061   1.072   5.967   3.257  0.4569 -0.1432  0.0264
 9054SOL    HW228062   0.926   6.041   3.260 -0.8205 -2.5960  1.3153
 9055SOL     OW28063   1.661   2.341   6.547  0.4304  0.7085  0.0348
 9055SOL    HW128064   1.597   2.340   6.624 -0.0925  3.0709 -0.3013
 9055SOL    HW228065   1.632   2.273   6.479 -2.2348  2.1950 -0.4411
 9056SOL     OW28066   4.147   0.394   2.136 -0.2517 -0.1971 -0.0903
 9056SOL    HW128067   4.078   0.460   2.105 -1.0977 -1.4387 -0.9325
 9056SOL    HW228068   4.238   0.436   2.129 -0.6917  0.6369 -1.3422
 9057SOL     OW28069   3.521   6.979   1.892  0.5070  0.6813 -0.2910
 9057SOL    HW128070   3.508   7.011   1.987  0.5825 -0.1162 -0.0094
 9057SOL    HW228071   3.555   7.055   1.837 -0.3416  1.3911  0.1243
 9058SOL     OW28072   0.755   5.724   0.498  0.3861  0.1438 -0.0988
 9058SOL    HW128073   0.735   5.820   0.479 -1.9709 -0.1936  0.2438
 9058SOL    HW228074   0.774   5.676   0.413 -0.6511  0.5088 -0.5650
 9059SOL     OW28075   0.599   2.932   3.002  0.2425 -0.0917 -0.2754
 9059SOL    HW128076   0.601   2.851   2.942  0.8912 -1.6909  1.7975
 9059SOL    HW228077   0.686   2.940   3.050 -0.7770  0.2268  1.5972
 9060SOL     OW28078   5.017   0.493   6.757 -0.3255 -0.1441  0.3034
 9060SOL    HW128079   5.069   0.578   6.746  1.0601 -1.1355 -1.4921
 9060SOL    HW228080   4.951   0.503   6.830 -0.7744  2.7562 -0.3953
 9061SOL     OW28081   2.027   4.950   3.417  0.5357 -0.3550  0.7019
 9061SOL    HW128082   2.116   4.910   3.436  0.8689 -0.7827 -1.4925
 9061SOL    HW228083   1.960   4.877   3.400  0.3786 -0.0348 -0.1277
 9062SOL     OW28084   1.181   0.324   2.668 -0.5852  0.2638 -0.5994
 9062SOL    HW128085   1.174   0.384   2.748 -0.4350  0.2271 -0.5587
 9062SOL    HW228086   1.158   0.231   2.694 -0.5469  0.2539 -0.6006
 9063SOL     OW28087   2.817   2.280   2.344  0.2648  0.1116  0.2934
 9063SOL    HW128088   2.829   2.181   2.336  0.7813  0.0901  1.1651
 9063SOL    HW228089   2.862   2.326   2.268  2.4529 -0.1966  1.3246
 9064SOL     OW28090   4.233   3.604   0.501 -0.1339 -0.3867  0.5326
 9064SOL    HW128091   4.311   3.544   0.481  1.1311  1.3491  0.0942
 9064SOL    HW228092   4.162   3.591   0.432  0.3914 -0.9153  0.0787
 9065SOL     OW28093   1.677   0.330   0.229 -0.2511 -0.6473  0.0098
 9065SOL    HW128094   1.768   0.288   0.219 -0.4593 -0.8708 -1.0188
 9065SOL    HW228095   1.645   0.317   0.323  1.0723  0.0435  0.5943
 9066SOL     OW28096   5.408   0.473   0.935  0.1419 -0.1860 -0.2038
 9066SOL    HW128097   5.447   0.385   0.962  1.3360  0.6943  1.0097
 9066SOL    HW228098   5.367   0.464   0.844  0.4281 -1.9313 -0.1936
 9067SOL     OW28099   1.492   1.810   3.309  0.1524 -0.0511  0.9784
 9067SOL    HW128100   1.590   1.828   3.318  0.0620 -0.2096  2.5911
 9067SOL    HW228101   1.454   1.869   3.238  1.1320  1.1978  1.4364
 9068SOL     OW28102   0.100   6.316   5.681  0.1193 -0.2510 -0.0113
 9068SOL    HW128103   0.051   6.404   5.681  2.2128  1.0147 -1.6393
 9068SOL    HW228104   0.198   6.332   5.693  0.6666 -2.2800 -1.2075
 9069SOL     OW28105   1.234   2.878   6.344  0.3208 -0.0729  0.6140
 9069SOL    HW128106   1.287   2.800   6.312  0.3053 -0.3361  1.2215
 9069SOL    HW228107   1.240   2.952   6.277  0.5413 -0.5007  0.1539
 9070SOL     OW28108   2.925   4.353   5.453  0.1425  0.3363  0.1844
 9070SOL    HW128109   2.905   4.393   5.364 -2.3169  0.9178  0.9278
 9070SOL    HW228110   2.889   4.412   5.525 -2.9888 -2.6550  1.3626
 9071SOL     OW28111   6.578   6.644   0.231 -0.1108 -0.0401 -0.4136
 9071SOL    HW128112   6.511   6.638   0.158 -1.0848  2.0750  0.2515
 9071SOL    HW228113   6.531   6.646   0.320  0.7179  2.2283  0.0348
 9072SOL     OW28114   6.241   4.485   6.823  0.3861  0.1771 -0.4992
 9072SOL    HW128115   6.335   4.454   6.840 -0.0453 -0.0141  1.7423
 9072SOL    HW228116   6.177   4.411   6.842 -0.5007  1.6292  2.7501
 9073SOL     OW28117   1.739   0.588   2.527  0.3036 -0.0464 -0.5246
 9073SOL    HW128118   1.831   0.627   2.520 -0.2008  1.6474  1.3868
 9073SOL    HW228119   1.745   0.495   2.562  1.3023 -0.1228 -0.8679
 9074SOL     OW28120   2.105   1.278   1.553 -0.2003 -0.3826 -0.4481
 9074SOL    HW128121   2.011   1.261   1.582  0.1295  0.0708  0.9579
 9074SOL    HW228122   2.105   1.305   1.457 -1.4174 -1.1321 -0.6905
 9075SOL     OW28123   6.558   0.822   0.382 -0.0592 -0.6268 -0.2678
 9075SOL    HW128124   6.488   0.891   0.368  0.3422  0.1993  1.5619
 9075SOL    HW228125   6.536   0.767   0.463  1.1740 -0.6259  0.0962
 9076SOL     OW28126   1.816   1.419   4.998  0.0094  0.0860 -0.3557
 9076SOL    HW128127   1.725   1.379   5.012  1.3889 -3.0375  0.8391
 9076SOL    HW228128   1.812   1.488   4.926 -3.4508  0.7929  0.3544
 9077SOL     OW28129   6.594   5.144   1.234  0.0114  0.0911  0.2621
 9077SOL    HW128130   6.673   5.092   1.200  1.3303 -0.0721  3.2299
 9077SOL    HW228131   6.521   5.081   1.260 -0.0453  0.0442 -0.0080
 9078SOL     OW28132   4.694   1.881   4.253  0.8418 -0.2614  0.5140
 9078SOL    HW128133   4.673   1.871   4.350 -0.3356  0.8735  0.3995
 9078SOL    HW228134   4.710   1.790   4.213 -0.2776 -0.8894  1.4209
 9079SOL     OW28135   0.981   6.079   6.148  0.1255 -0.3277  0.1540
 9079SOL    HW128136   1.075   6.064   6.117  0.8819 -0.6942  2.4333
 9079SOL    HW228137   0.918   6.025   6.091  1.4486 -1.2641 -0.4736
 9080SOL     OW28138   3.660   1.699   1.675 -0.2526 -0.0727 -0.0173
 9080SOL    HW128139   3.575   1.740   1.645 -0.6561 -1.0085 -0.1985
 9080SOL    HW228140   3.679   1.726   1.770 -1.0039 -0.2303  0.1874
 9081SOL     OW28141   3.437   6.342   3.072  0.3687 -0.0716 -0.2066
 9081SOL    HW128142   3.505   6.269   3.067 -1.2050 -1.5175 -2.6280
 9081SOL    HW228143   3.346   6.303   3.080 -0.3855  1.7714  1.0787
 9082SOL     OW28144   3.431   0.375   2.931 -0.2649  0.6874 -0.3289
 9082SOL    HW128145   3.446   0.465   2.889 -1.9473  1.3838  0.4563
 9082SOL    HW228146   3.519   0.335   2.956  0.6507  1.1841 -2.5349
 9083SOL     OW28147   3.214   5.311   3.813  0.5379  0.0228  0.1241
 9083SOL    HW128148   3.298   5.364   3.801  0.5338  0.1204  0.5116
 9083SOL    HW228149   3.186   5.272   3.725 -0.5086  2.2374 -0.5880
 9084SOL     OW28150   3.805   3.769   4.803 -0.6297  0.0967  0.0508
 9084SOL    HW128151   3.817   3.703   4.877  0.0635 -2.0344 -1.8628
 9084SOL    HW228152   3.851   3.855   4.826 -2.7854  0.5853  3.2533
 9085SOL     OW28153   3.241   1.471   0.663 -0.5091  0.2306  0.0108
 9085SOL    HW128154   3.215   1.559   0.622 -1.6741  0.9786  2.1888
 9085SOL    HW228155   3.283   1.488   0.752 -0.9436 -1.4585  0.5567
 9086SOL     OW28156   1.514   3.019   1.479  0.5028 -0.1875 -0.2696
 9086SOL    HW128157   1.474   3.036   1.389 -1.3328 -3.1729 -0.1543
 9086SOL    HW228158   1.611   3.045   1.479  0.1607  1.2886 -2.5814
 9087SOL     OW28159   6.585   4.576   0.754 -0.1326  0.6025 -0.0241
 9087SOL    HW128160   6.646   4.538   0.684 -1.1783  1.8931 -1.7464
 9087SOL    HW228161   6.553   4.666   0.724 -2.3129  0.2880  1.1340
 9088SOL     OW28162   6.356   5.757   0.958  0.0022 -0.1174 -0.0615
 9088SOL    HW128163   6.319   5.732   1.048  0.8318 -0.3514  0.2168
 9088SOL    HW228164   6.453   5.778   0.966 -0.0146  0.2800 -0.8333
 9089SOL     OW28165   5.153   0.990   5.718  0.1963  0.0876  0.2459
 9089SOL    HW128166   5.136   1.022   5.811 -1.1914 -1.7226  0.6641
 9089SOL    HW228167   5.068   0.956   5.677  0.4618  2.0930 -2.2342
 9090SOL     OW28168   5.483   1.212   2.825 -0.5804 -0.2737 -0.2461
 9090SOL    HW128169   5.576   1.220   2.790 -0.5395  1.7310  0.2193
 9090SOL    HW228170   5.481   1.145   2.900  0.9106  0.9760  0.9890
 9091SOL     OW28171   4.065   3.717   5.846 -0.0832  0.1192  0.1154
 9091SOL    HW128172   4.053   3.798   5.902 -1.7537  0.7995 -1.1468
 9091SOL    HW228173   4.107   3.742   5.758 -1.6923 -0.1561 -0.7602
 9092SOL     OW28174   6.093   4.536   0.267 -0.7268 -0.0034  0.0733
 9092SOL    HW128175   5.994   4.529   0.279 -0.4789 -2.7639  1.1564
 9092SOL    HW228176   6.113   4.572   0.176 -2.6501  3.5531  0.8475
 9093SOL     OW28177   2.444   5.378   5.083 -0.6703  0.3505 -0.1417
 9093SOL    HW128178   2.491   5.336   5.159  0.7654  0.1172 -1.1300
 9093SOL    HW228179   2.368   5.434   5.117  0.5433  1.0390  1.5098
 9094SOL     OW28180   2.107   3.123   1.957 -0.3802  0.2047  0.1395
 9094SOL    HW128181   2.035   3.101   1.891  0.1722 -2.6508  0.3456
 9094SOL    HW228182   2.176   3.051   1.956  1.8727  2.2218  0.8633
 9095SOL     OW28183   0.984   0.678   3.870 -0.1489  0.0538  0.1495
 9095SOL    HW128184   0.902   0.631   3.837  0.3333 -0.2345 -0.6700
 9095SOL    HW228185   0.961   0.772   3.894 -0.5579  0.2115 -0.8422
 9096SOL     OW28186   5.840   4.437   2.084 -0.1955  1.0398  0.0224
 9096SOL    HW128187   5.757   4.490   2.102 -1.2189 -0.5571  0.1291
 9096SOL    HW228188   5.818   4.359   2.026  0.9325 -0.2754  1.2857
 9097SOL     OW28189   2.469   3.260   6.495  0.2474  0.2446 -0.0902
 9097SOL    HW128190   2.390   3.200   6.504  0.8433 -1.1928 -3.0608
 9097SOL    HW228191   2.546   3.222   6.547 -0.2055  0.0662  0.4563
 9098SOL     OW28192   2.230   5.056   5.674  0.3581 -0.0224  0.2614
 9098SOL    HW128193   2.230   5.148   5.713  1.5530  0.0731  0.0740
 9098SOL    HW228194   2.288   4.996   5.730  0.3441 -0.4253 -0.1461
 9099SOL     OW28195   2.094   0.771   6.420 -0.2617 -0.3487 -0.3642
 9099SOL    HW128196   2.172   0.729   6.466  0.0943  0.0042 -0.6369
 9099SOL    HW228197   2.049   0.703   6.363 -0.0414 -0.5113 -0.3464
 9100SOL     OW28198   0.703   5.462   3.325 -0.4456  0.0569  0.1258
 9100SOL    HW128199   0.794   5.476   3.285 -2.0149  0.8188 -3.5244
 9100SOL    HW228200   0.696   5.517   3.409  2.9600 -1.4481  1.6151
 9101SOL     OW28201   4.484   2.605   1.570  0.2099  0.0931  0.5564
 9101SOL    HW128202   4.526   2.590   1.481  0.8338 -1.4776  1.0822
 9101SOL    HW228203   4.526   2.686   1.613  0.6404  0.2463 -0.1320
 9102SOL     OW28204   4.300   6.161   4.460 -0.9758 -0.2766 -0.4073
 9102SOL    HW128205   4.275   6.170   4.557 -1.9185  0.8129 -0.7403
 9102SOL    HW228206   4.321   6.251   4.422 -1.8038 -0.5443 -1.5278
 9103SOL     OW28207   4.645   6.877   1.754 -0.1541 -0.0152 -0.1313
 9103SOL    HW128208   4.720   6.832   1.803 -0.6729 -0.9695 -0.1891
 9103SOL    HW228209   4.600   6.811   1.694  0.6391  1.1800 -2.1433
 9104SOL     OW28210   4.872   3.365   5.538  0.4086  0.0238 -0.7834
 9104SOL    HW128211   4.817   3.343   5.619  3.8213  0.5494  1.8550
 9104SOL    HW228212   4.873   3.464   5.524  1.8559  0.1543  0.1280
 9105SOL     OW28213   1.487   6.000   0.467  0.4000  0.3412 -0.2778
 9105SOL    HW128214   1.398   5.955   0.465  1.6616 -2.5194  1.3524
 9105SOL    HW228215   1.545   5.963   0.394  1.1548 -0.0189  0.4810
 9106SOL     OW28216   1.708   3.629   0.504 -0.3156 -0.0929  0.0639
 9106SOL    HW128217   1.719   3.603   0.408  0.1099 -0.2878  0.1626
 9106SOL    HW228218   1.616   3.665   0.519  0.0099  1.1073 -0.6877
 9107SOL     OW28219   2.183   2.359   2.715 -0.0670  0.1729  0.1401
 9107SOL    HW128220   2.139   2.447   2.696 -1.2184 -0.3864  0.1479
 9107SOL    HW228221   2.148   2.323   2.801  0.8812 -0.0003  0.4624
 9108SOL     OW28222   3.805   6.857   5.835  0.4788 -0.3803  0.2534
 9108SOL    HW128223   3.824   6.949   5.800 -0.0037  0.3866  1.9365
 9108SOL    HW228224   3.848   6.844   5.924 -0.6164 -1.2694  0.6917
 9109SOL     OW28225   6.854   3.490   2.755 -0.0413 -0.1325 -0.0848
 9109SOL    HW128226   6.943   3.517   2.719 -1.3800  2.6362 -1.6136
 9109SOL    HW228227   6.802   3.443   2.683 -1.1407  1.6064 -0.4899
 9110SOL     OW28228   5.756   6.486   1.406  0.0049 -0.6130 -0.3554
 9110SOL    HW128229   5.845   6.440   1.406 -1.2349 -3.2219 -2.1453
 9110SOL    HW228230   5.766   6.578   1.369  2.3715  0.3042  2.1903
 9111SOL     OW28231   5.855   3.325   0.049  0.1472 -0.2467 -0.0624
 9111SOL    HW128232   5.925   3.292  -0.014  0.3718 -1.2333  0.6717
 9111SOL    HW228233   5.835   3.254   0.116 -0.5537  0.5442  0.5885
 9112SOL     OW28234   2.470   5.110   1.529 -0.3722  0.4209 -0.5497
 9112SOL    HW128235   2.478   5.024   1.579 -1.3448 -0.3577 -1.6924
 9112SOL    HW228236   2.375   5.139   1.527 -0.3850  0.3302 -2.1073
 9113SOL     OW28237   1.839   6.618   0.013  0.2248  0.4859  0.2991
 9113SOL    HW128238   1.840   6.689   0.084  1.1727  1.1178 -0.3215
 9113SOL    HW228239   1.760   6.633  -0.047  1.4245  2.1743 -0.9365
 9114SOL     OW28240   6.970   1.564   4.041 -0.7063  0.4275  0.4626
 9114SOL    HW128241   6.893   1.597   3.986 -1.0186  0.2310  0.7762
 9114SOL    HW228242   6.970   1.464   4.042  1.0344  0.3403 -1.6182
 9115SOL     OW28243   6.265   3.148   4.045 -0.4698 -0.3911 -0.1746
 9115SOL    HW128244   6.317   3.228   4.016 -0.1522 -0.0735  1.2120
 9115SOL    HW228245   6.203   3.121   3.972  0.0077  0.6070 -0.9830
 9116SOL     OW28246   1.228   5.549   2.227 -0.1913 -0.1111  0.5863
 9116SOL    HW128247   1.205   5.499   2.143  0.6649 -0.2305  0.4191
 9116SOL    HW228248   1.261   5.484   2.296  1.6021  0.2914  0.1340
 9117SOL     OW28249   1.889   5.173   1.237  0.7806  0.2539  0.1559
 9117SOL    HW128250   1.967   5.224   1.272  2.3519 -2.4206  0.8057
 9117SOL    HW228251   1.835   5.137   1.313 -0.2288  0.7705 -0.2881
 9118SOL     OW28252   0.983   3.826   1.924 -0.1241 -0.1421 -0.7361
 9118SOL    HW128253   0.903   3.882   1.901 -0.5576  0.0131  0.9705
 9118SOL    HW228254   1.062   3.858   1.873 -1.3039 -0.8757 -3.1758
 9119SOL     OW28255   3.578   2.670   6.097  0.1146  0.1244  0.2169
 9119SOL    HW128256   3.632   2.596   6.056  1.7811  0.2364  2.0648
 9119SOL    HW228257   3.481   2.646   6.092  0.3760 -0.7566 -1.9053
 9120SOL     OW28258   6.851   3.558   4.304  0.2951  0.6578  0.4203
 9120SOL    HW128259   6.769   3.512   4.337  0.9334 -0.7478  0.1295
 9120SOL    HW228260   6.870   3.529   4.210  1.2148  0.8253  0.5429
 9121SOL     OW28261   4.178   6.091   4.221  0.0273 -1.3820  0.3793
 9121SOL    HW128262   4.141   6.000   4.203 -0.3361 -1.3164  0.7672
 9121SOL    HW228263   4.213   6.094   4.315 -2.1273 -0.4335  1.2132
 9122SOL     OW28264   0.359   2.805   0.832 -0.1829  0.1885 -0.7867
 9122SOL    HW128265   0.319   2.896   0.845 -0.6088 -0.1075  0.0103
 9122SOL    HW228266   0.445   2.799   0.882  1.1499  0.9658 -2.8303
 9123SOL     OW28267   1.228   4.406   4.711 -0.3186 -0.8062 -0.4857
 9123SOL    HW128268   1.228   4.363   4.801 -0.9250 -0.9394 -0.5490
 9123SOL    HW228269   1.181   4.494   4.716  1.6800  0.3095 -0.1533
 9124SOL     OW28270   4.933   4.157   6.299  0.2958 -0.4403  0.4021
 9124SOL    HW128271   5.011   4.173   6.239  0.0871  0.0874  0.2635
 9124SOL    HW228272   4.856   4.216   6.271 -0.3233 -1.3184  0.2222
 9125SOL     OW28273   5.309   0.112   2.210  0.2638  0.2936 -0.3171
 9125SOL    HW128274   5.317   0.108   2.110  0.3819 -1.0174 -0.2667
 9125SOL    HW228275   5.327   0.022   2.249  0.7207  0.8995  0.9359
 9126SOL     OW28276   3.754   6.976   6.808 -0.4729  0.2099 -0.0524
 9126SOL    HW128277   3.674   6.986   6.867 -0.4285  1.3229 -0.1685
 9126SOL    HW228278   3.726   6.934   6.722 -1.4752  2.8340 -1.1180
 9127SOL     OW28279   4.459   4.759   5.431 -0.1732 -0.1654  0.0709
 9127SOL    HW128280   4.374   4.789   5.388  1.1256  0.4804 -2.2519
 9127SOL    HW228281   4.439   4.701   5.510 -2.7519  2.1859  1.3047
 9128SOL     OW28282   5.574   4.573   0.939  0.1502 -0.2080 -1.0196
 9128SOL    HW128283   5.532   4.643   0.881 -1.6636  0.1009  0.5978
 9128SOL    HW228284   5.600   4.613   1.027 -2.4301 -1.8052  0.5892
 9129SOL     OW28285   1.118   3.615   0.738 -0.5895  0.4875 -0.0196
 9129SOL    HW128286   1.135   3.519   0.720 -0.3139  0.3423  0.9242
 9129SOL    HW228287   1.056   3.653   0.669 -0.7620 -0.3825 -0.3448
 9130SOL     OW28288   3.024   4.069   6.302  0.7532 -0.2898  0.2059
 9130SOL    HW128289   3.089   4.057   6.227  0.5746 -0.5002  0.0849
 9130SOL    HW228290   2.962   4.144   6.282  1.4611  0.4383  0.6746
 9131SOL     OW28291   0.185   1.580   1.205  0.4734  0.3946 -0.0004
 9131SOL    HW128292   0.189   1.657   1.141  1.9157  0.2689 -0.0965
 9131SOL    HW228293   0.245   1.599   1.283  1.1938 -0.8062 -0.2446
 9132SOL     OW28294   0.140   4.434   4.462 -0.0720  0.0531  0.9407
 9132SOL    HW128295   0.122   4.419   4.365  1.0778 -0.7877  0.8375
 9132SOL    HW228296   0.100   4.359   4.515 -0.5313  0.4094  1.0993
 9133SOL     OW28297   6.400   6.000   2.822 -0.4425 -0.6495 -0.1184
 9133SOL    HW128298   6.466   6.066   2.787 -0.3714  0.0494  1.2503
 9133SOL    HW228299   6.330   5.982   2.753 -0.1212  0.4027 -0.7349
 9134SOL     OW28300   3.655   3.033   0.353 -0.6191 -0.0646 -0.0848
 9134SOL    HW128301   3.633   2.962   0.421 -0.1201  0.7245  0.9296
 9134SOL    HW228302   3.647   3.123   0.395  0.2649  0.4182 -0.9146
 9135SOL     OW28303   5.087   5.940   3.743  0.1526 -0.0862 -0.2386
 9135SOL    HW128304   5.051   5.853   3.777 -0.6762  0.5072  0.4560
 9135SOL    HW228305   5.130   5.926   3.654  0.8011 -1.3626  0.2551
 9136SOL     OW28306   0.360   2.495   5.792  0.0793 -0.1642  0.4141
 9136SOL    HW128307   0.350   2.489   5.891  0.5847  0.1920  0.4902
 9136SOL    HW228308   0.456   2.482   5.767 -0.2146 -1.5372 -0.1340
 9137SOL     OW28309   6.310   6.582   5.360  0.3155 -0.4720  0.3912
 9137SOL    HW128310   6.235   6.615   5.418  1.8531 -1.0853  2.8837
 9137SOL    HW228311   6.349   6.659   5.308  0.3062  0.5759  1.8787
 9138SOL     OW28312   2.880   2.277   6.109  0.1728 -0.6961  0.1584
 9138SOL    HW128313   2.805   2.300   6.170 -1.1331  0.3085 -1.7200
 9138SOL    HW228314   2.844   2.256   6.018  2.1203 -1.0501 -0.5831
 9139SOL     OW28315   1.311   6.544   1.333 -0.1774 -0.1714 -0.0134
 9139SOL    HW128316   1.220   6.504   1.325  0.7865 -2.7453  0.7452
 9139SOL    HW228317   1.307   6.628   1.387 -1.9868 -0.6005  0.5678
 9140SOL     OW28318   0.859   5.827   3.028 -0.2054 -0.1193  0.1847
 9140SOL    HW128319   0.775   5.788   2.991 -0.5763  0.5713  0.2857
 9140SOL    HW228320   0.837   5.891   3.100  0.3293  1.0102 -0.6273
 9141SOL     OW28321   0.737   5.066   4.498  0.2226 -0.5248  0.2180
 9141SOL    HW128322   0.750   4.985   4.556 -0.5010 -0.1461  0.9231
 9141SOL    HW228323   0.715   5.036   4.405 -1.2937 -1.1803  0.7448
 9142SOL     OW28324   2.394   6.156   1.585  0.4834  0.0297  0.5903
 9142SOL    HW128325   2.408   6.087   1.513 -3.4095 -0.9922  0.5954
 9142SOL    HW228326   2.413   6.246   1.547  1.4863 -0.6931 -0.7643
 9143SOL     OW28327   4.972   4.429   2.917  0.3381 -0.5689 -0.0882
 9143SOL    HW128328   4.982   4.513   2.864 -0.0601 -2.2346 -2.9865
 9143SOL    HW228329   5.063   4.390   2.934  0.4105 -0.6569 -0.6578
 9144SOL     OW28330   2.407   4.806   5.939 -0.3147 -0.1562  0.0759
 9144SOL    HW128331   2.315   4.809   5.977 -0.0861  3.9222  0.7852
 9144SOL    HW228332   2.408   4.744   5.860 -4.6927  2.2127 -2.2338
 9145SOL     OW28333   3.429   5.734   0.080 -0.1435 -0.0029  0.4240
 9145SOL    HW128334   3.378   5.647   0.077  0.0776 -0.1097 -0.3962
 9145SOL    HW228335   3.510   5.727   0.021  0.4289  0.4160  1.1505
 9146SOL     OW28336   4.798   0.344   3.608 -0.1060  0.4898  0.3484
 9146SOL    HW128337   4.703   0.325   3.635  0.1307  0.7452  1.4315
 9146SOL    HW228338   4.860   0.304   3.676  0.5011  2.1052  0.7924
 9147SOL     OW28339   3.278   1.614   5.961  0.3778 -0.3888  0.4132
 9147SOL    HW128340   3.196   1.579   6.009  0.7320 -1.0999  0.5129
 9147SOL    HW228341   3.264   1.608   5.863 -0.4882  1.3882  0.3830
 9148SOL     OW28342   3.256   6.242   0.939  0.2288 -0.7078  0.1661
 9148SOL    HW128343   3.278   6.246   0.841  0.6293 -1.0766  0.2386
 9148SOL    HW228344   3.192   6.166   0.956 -0.0507 -0.4773  0.1535
 9149SOL     OW28345   1.424   5.457   1.428  0.4638  0.0244 -0.6124
 9149SOL    HW128346   1.439   5.402   1.510  2.2509 -0.5756 -1.3101
 9149SOL    HW228347   1.337   5.505   1.437  0.1443 -0.7890  1.1958
 9150SOL     OW28348   2.395   3.346   5.614  0.0612  0.1134 -0.2631
 9150SOL    HW128349   2.387   3.249   5.638 -0.8204  0.1482 -0.3644
 9150SOL    HW228350   2.391   3.356   5.514  1.0191  0.1896 -0.3008
 9151SOL     OW28351   2.536   5.617   2.677  0.6862 -0.7261  0.0936
 9151SOL    HW128352   2.497   5.567   2.754 -0.3723 -0.9290 -0.5609
 9151SOL    HW228353   2.535   5.715   2.697 -0.6487 -0.6804 -0.1072
 9152SOL     OW28354   2.639   5.258   1.666  0.3503  0.1702  0.1378
 9152SOL    HW128355   2.680   5.217   1.748  1.6790  1.4232  0.1366
 9152SOL    HW228356   2.576   5.193   1.624  1.1770 -1.2464  1.0240
 9153SOL     OW28357   6.845   2.194   0.872  0.3408 -0.8113  0.3328
 9153SOL    HW128358   6.870   2.217   0.778 -0.1288  0.6713  0.5483
 9153SOL    HW228359   6.921   2.145   0.915  1.5263  0.5841 -0.0940
 9154SOL     OW28360   4.342   5.428   2.308  0.0079 -0.1445 -0.4155
 9154SOL    HW128361   4.391   5.482   2.240 -1.2145  0.4968 -0.7942
 9154SOL    HW228362   4.249   5.411   2.277  0.5231 -3.0977 -0.6554
 9155SOL     OW28363   5.737   6.792   3.442 -0.7228 -0.0642 -0.6835
 9155SOL    HW128364   5.739   6.699   3.403  0.1849 -0.2343 -0.2505
 9155SOL    HW228365   5.770   6.857   3.373  0.9945 -0.3803 -0.1992
 9156SOL     OW28366   1.288   3.861   5.848 -0.3245  0.0840 -0.1939
 9156SOL    HW128367   1.269   3.958   5.840  0.2865  0.1053 -1.7278
 9156SOL    HW228368   1.345   3.844   5.929 -1.7685  0.7567  1.0201
 9157SOL     OW28369   3.281   6.207   4.585 -0.5903 -0.0203 -0.1596
 9157SOL    HW128370   3.292   6.264   4.666 -0.4141  0.0984 -0.2652
 9157SOL    HW228371   3.202   6.146   4.597 -0.0833 -0.5783  0.4377
 9158SOL     OW28372   5.834   2.443   3.060  0.2830  0.1603  0.1762
 9158SOL    HW128373   5.757   2.506   3.055 -0.6083 -0.7544  1.6275
 9158SOL    HW228374   5.854   2.407   2.969 -1.5708 -0.2188 -0.1259
 9159SOL     OW28375   0.861   6.332   3.066  0.7107 -0.1374  0.5677
 9159SOL    HW128376   0.862   6.286   3.155  0.3828 -0.1904  0.5464
 9159SOL    HW228377   0.768   6.364   3.046  0.5445 -1.0336 -0.2150
 9160SOL     OW28378   2.623   1.856   0.122  0.2546 -0.0681 -0.2064
 9160SOL    HW128379   2.688   1.917   0.168  0.8361  0.7569 -2.0036
 9160SOL    HW228380   2.588   1.788   0.187  0.8688  1.1394  1.4444
 9161SOL     OW28381   6.008   3.871   1.823  0.1036 -0.0698  0.0685
 9161SOL    HW128382   5.988   3.869   1.921 -1.6010  0.4764 -0.2202
 9161SOL    HW228383   5.949   3.805   1.776  0.9021 -0.3237 -0.5902
 9162SOL     OW28384   5.805   4.178   1.379 -0.1998  0.6849 -0.3042
 9162SOL    HW128385   5.841   4.138   1.295 -0.9466 -1.0621  0.1716
 9162SOL    HW228386   5.864   4.153   1.456 -1.6495 -1.1559  0.2842
 9163SOL     OW28387   0.702   2.465   3.044 -0.0483  0.2351  0.7485
 9163SOL    HW128388   0.694   2.439   3.140 -0.8960 -1.2743  0.3029
 9163SOL    HW228389   0.773   2.409   3.001 -0.4647  0.0982  0.2385
 9164SOL     OW28390   4.668   0.823   0.710  0.1144 -0.2809  0.5814
 9164SOL    HW128391   4.763   0.836   0.741  0.2983  1.7881 -0.6896
 9164SOL    HW228392   4.622   0.758   0.771  2.3765 -1.4823  1.1326
 9165SOL     OW28393   6.777   0.859   1.408  0.1911  0.8246 -0.0905
 9165SOL    HW128394   6.706   0.930   1.407  0.3516  1.0026  0.7942
 9165SOL    HW228395   6.757   0.793   1.480 -1.7801 -1.9324 -2.8770
 9166SOL     OW28396   3.708   5.638   2.931  0.1667 -0.5601 -0.2379
 9166SOL    HW128397   3.627   5.589   2.963 -1.3540 -0.3069 -3.2932
 9166SOL    HW228398   3.692   5.737   2.936  0.4826 -0.4966 -0.4141
 9167SOL     OW28399   6.530   2.324   4.759 -0.0883  0.2407  0.0898
 9167SOL    HW128400   6.487   2.256   4.700 -0.0912  1.1813 -1.0510
 9167SOL    HW228401   6.602   2.281   4.813 -1.3752 -1.0373  0.8509
 9168SOL     OW28402   6.008   6.690   3.601 -0.2873  0.5142 -0.1105
 9168SOL    HW128403   6.009   6.593   3.579  0.7371  0.6262 -0.6501
 9168SOL    HW228404   5.938   6.736   3.547 -0.3930  0.1686 -0.2683
 9169SOL     OW28405   6.949   6.100   0.103 -0.0576  0.9059 -0.2851
 9169SOL    HW128406   6.912   6.120   0.193 -1.5161  0.7423 -0.8232
 9169SOL    HW228407   6.908   6.160   0.035 -0.0484  0.0881 -1.0438
 9170SOL     OW28408   1.871   5.048   5.043 -0.7491 -0.1216 -0.0573
 9170SOL    HW128409   1.807   5.063   4.968 -0.9825  0.1293  0.1874
 9170SOL    HW228410   1.889   4.950   5.053 -1.6173 -0.2604  0.2903
 9171SOL     OW28411   5.563   5.221   5.987  0.3748 -0.0752 -0.3177
 9171SOL    HW128412   5.571   5.121   5.996  0.8367  0.0469  0.7871
 9171SOL    HW228413   5.497   5.255   6.053 -2.3589  0.0305 -2.9078
 9172SOL     OW28414   4.845   0.329   5.433  0.7442 -0.0996  0.2633
 9172SOL    HW128415   4.904   0.346   5.512 -1.6611 -0.7924  2.3401
 9172SOL    HW228416   4.764   0.386   5.438 -0.4478 -1.6149 -0.5836
 9173SOL     OW28417   5.703   2.992   5.720  0.1953 -0.0710  0.4895
 9173SOL    HW128418   5.771   2.948   5.662 -0.0900 -2.9844  2.2027
 9173SOL    HW228419   5.674   3.078   5.677  4.0208  0.7368 -0.8685
 9174SOL     OW28420   0.029   5.011   5.524 -0.2650  0.3485 -0.6757
 9174SOL    HW128421   0.037   5.086   5.459 -1.7110  0.3851 -0.8370
 9174SOL    HW228422  -0.010   4.931   5.478 -1.0946  0.3052  0.0790
 9175SOL     OW28423   1.135   1.270   2.740  0.2103  0.0469 -0.1362
 9175SOL    HW128424   1.221   1.219   2.746 -0.9876 -2.0593 -0.0414
 9175SOL    HW228425   1.086   1.244   2.657 -0.3615  1.2334 -0.1961
 9176SOL     OW28426   1.138   6.266   4.152 -0.2322  0.4136  0.3614
 9176SOL    HW128427   1.067   6.231   4.213  1.3924 -0.2068  2.0169
 9176SOL    HW228428   1.172   6.192   4.094 -1.9031  1.0427 -1.5421
 9177SOL     OW28429   7.022   5.169   2.877  0.3046  0.3453 -0.0479
 9177SOL    HW128430   6.978   5.216   2.800 -0.8050 -0.1265  0.2781
 9177SOL    HW228431   7.054   5.080   2.847  0.9708  0.6521 -0.2626
 9178SOL     OW28432   0.139   2.653   1.196  0.5256  0.2789  0.6951
 9178SOL    HW128433   0.057   2.604   1.226  1.0533 -0.3560  1.1268
 9178SOL    HW228434   0.129   2.679   1.100  1.5264 -3.5290 -0.6238
 9179SOL     OW28435   2.131   6.766   3.445  0.2649  0.0065  0.2936
 9179SOL    HW128436   2.191   6.794   3.521 -0.8071 -0.0591  1.1882
 9179SOL    HW228437   2.052   6.828   3.441  0.0712 -0.2811 -0.4773
 9180SOL     OW28438   0.622   0.378   4.132  0.4162  0.1134 -0.0642
 9180SOL    HW128439   0.647   0.444   4.061  0.9486  1.5518  1.3688
 9180SOL    HW228440   0.551   0.418   4.190 -1.4284 -1.8054 -0.8834
 9181SOL     OW28441   3.318   6.526   0.716  0.2973  0.1352  0.0169
 9181SOL    HW128442   3.298   6.610   0.768  2.3657  1.5609 -1.3148
 9181SOL    HW228443   3.244   6.509   0.651  0.4481  1.7799 -0.6465
 9182SOL     OW28444   5.857   1.507   2.454  0.0527 -0.1014  0.5093
 9182SOL    HW128445   5.880   1.572   2.527  1.3161  1.6369 -1.3090
 9182SOL    HW228446   5.912   1.424   2.465  1.0034  0.5680  0.9917
 9183SOL     OW28447   2.896   6.948   0.235 -0.4372 -0.2521  0.2551
 9183SOL    HW128448   2.880   6.977   0.141  0.5334  2.0728  0.7371
 9183SOL    HW228449   2.979   6.893   0.240  0.5026  1.1218 -0.0135
 9184SOL     OW28450   2.615   6.363   1.814  0.0601 -0.4886 -0.4013
 9184SOL    HW128451   2.637   6.446   1.865 -2.3952  0.0830 -0.1447
 9184SOL    HW228452   2.699   6.315   1.791  1.5279  1.7383 -0.0249
 9185SOL     OW28453   0.519   1.870   4.738  0.0645 -0.1629 -0.3501
 9185SOL    HW128454   0.535   1.948   4.678 -0.9319  0.3377  0.0177
 9185SOL    HW228455   0.460   1.804   4.692  1.4525 -1.0466 -0.9242
 9186SOL     OW28456   5.943   1.665   6.507  0.0388 -0.1753 -0.2806
 9186SOL    HW128457   5.980   1.601   6.439 -0.2134  0.7922 -1.3557
 9186SOL    HW228458   5.866   1.715   6.469  0.5409  1.1469  0.3385
 9187SOL     OW28459   3.631   2.702   1.315 -0.4254 -0.2027  0.1807
 9187SOL    HW128460   3.557   2.635   1.308 -2.0077  1.5027 -0.2614
 9187SOL    HW228461   3.695   2.689   1.239  0.1101 -2.0667  0.8879
 9188SOL     OW28462   3.196   1.679   2.486  0.5442  0.1243 -0.0114
 9188SOL    HW128463   3.289   1.713   2.496  0.6767 -0.0558 -0.6194
 9188SOL    HW228464   3.196   1.579   2.496  0.1079  0.2948  2.1243
 9189SOL     OW28465   3.272   6.338   6.715  0.2391  0.2951 -0.3491
 9189SOL    HW128466   3.356   6.390   6.699  0.4017 -0.5422 -2.5931
 9189SOL    HW228467   3.232   6.312   6.627 -2.5778  0.9345  0.6482
 9190SOL     OW28468   4.377   2.708   6.062 -0.6778 -0.2625 -0.7716
 9190SOL    HW128469   4.437   2.787   6.072 -0.4127 -0.5121 -0.3602
 9190SOL    HW228470   4.308   2.727   5.992 -0.8307  0.4638 -0.4368
 9191SOL     OW28471   3.869   0.305   1.857  0.1295  0.0165 -0.2040
 9191SOL    HW128472   3.893   0.349   1.770  0.0874 -0.8179 -0.6461
 9191SOL    HW228473   3.907   0.213   1.859 -0.9525 -0.4389  0.1163
 9192SOL     OW28474   5.765   3.737   2.647  0.7462 -0.4680  0.7307
 9192SOL    HW128475   5.858   3.703   2.633  1.4837  0.8427  2.1310
 9192SOL    HW228476   5.751   3.757   2.744 -0.2855  1.3368  0.2578
 9193SOL     OW28477   3.163   3.270   2.336  0.2123 -0.2753  0.0639
 9193SOL    HW128478   3.136   3.361   2.304 -0.4334 -0.9245 -1.3549
 9193SOL    HW228479   3.146   3.263   2.435 -1.7816  0.4667 -0.1677
 9194SOL     OW28480   3.089   5.318   4.584  0.4646 -0.3869  0.2804
 9194SOL    HW128481   3.095   5.401   4.638  0.4895 -0.3399  0.2044
 9194SOL    HW228482   3.031   5.251   4.631 -1.3742  0.4578 -0.6706
 9195SOL     OW28483   6.805   3.225   3.093  0.2216 -0.3707  0.1713
 9195SOL    HW128484   6.875   3.207   3.024  0.4958 -1.4181  0.7047
 9195SOL    HW228485   6.790   3.143   3.148  0.7139  0.7203  2.0164
 9196SOL     OW28486   5.367   4.665   5.173  0.1690 -0.1430  0.4133
 9196SOL    HW128487   5.312   4.593   5.131  1.4597 -1.4506  0.9197
 9196SOL    HW228488   5.442   4.625   5.225  0.1575  1.5300  1.8019
 9197SOL     OW28489   5.249   1.841   0.093  0.0983  0.0840  0.5870
 9197SOL    HW128490   5.303   1.833   0.010 -2.4935  0.4371 -1.2660
 9197SOL    HW228491   5.258   1.934   0.130  0.0387  0.4219 -0.2286
 9198SOL     OW28492   6.873   2.316   5.123  0.4154  0.6625 -0.3811
 9198SOL    HW128493   6.826   2.403   5.139  0.1712  0.8916 -2.1103
 9198SOL    HW228494   6.971   2.332   5.115  0.8643  0.2359  2.8394
 9199SOL     OW28495   0.697   4.184   6.366 -0.7061  0.1392  0.1772
 9199SOL    HW128496   0.775   4.132   6.332 -0.4358  1.8016 -1.9864
 9199SOL    HW228497   0.651   4.133   6.438  1.1015 -1.8332  0.0108
 9200SOL     OW28498   4.628   1.168   1.819 -0.3881  0.1589 -0.1550
 9200SOL    HW128499   4.531   1.149   1.801 -0.3489 -1.0597  0.8015
 9200SOL    HW228500   4.665   1.097   1.879  0.3712  2.1599  1.8631
 9201SOL     OW28501   1.294   3.782   1.297  0.0048  0.0601 -0.2125
 9201SOL    HW128502   1.350   3.818   1.371  1.4738  0.5960 -1.5351
 9201SOL    HW228503   1.232   3.712   1.333  2.7657 -1.9231  1.0664
 9202SOL     OW28504   1.190   5.782   3.285  0.6429  0.1124 -0.1200
 9202SOL    HW128505   1.245   5.798   3.203  1.4590  1.6091  0.6697
 9202SOL    HW228506   1.250   5.770   3.364 -0.0988 -2.5257  0.1136
 9203SOL     OW28507   0.259   1.619   6.904 -0.2165  0.2206 -0.0565
 9203SOL    HW128508   0.312   1.592   6.985  2.4966  2.0095 -1.0626
 9203SOL    HW228509   0.305   1.585   6.822 -3.4246 -2.3833 -0.9782
 9204SOL     OW28510   5.412   4.667   1.782  0.0672 -0.2825  0.3091
 9204SOL    HW128511   5.405   4.754   1.733  2.8744 -0.4843 -0.6091
 9204SOL    HW228512   5.417   4.685   1.880 -1.1264  0.4278  0.2616
 9205SOL     OW28513   3.572   1.688   0.284 -0.8529  0.1362 -0.5818
 9205SOL    HW128514   3.563   1.772   0.232 -0.0743 -0.4830 -1.7703
 9205SOL    HW228515   3.668   1.675   0.311 -1.2955  0.6550  1.4274
 9206SOL     OW28516   1.418   2.249   4.321  0.5164 -0.4472  0.1724
 9206SOL    HW128517   1.463   2.174   4.272 -0.2313 -0.5075 -0.4392
 9206SOL    HW228518   1.333   2.216   4.362 -0.8469  0.4586 -1.7408
 9207SOL     OW28519   5.876   6.972   0.204 -0.0823 -0.2559  0.7659
 9207SOL    HW128520   5.823   6.953   0.287 -0.9089 -0.9395  0.0942
 9207SOL    HW228521   5.837   6.922   0.127  0.0082  1.1976 -0.2818
 9208SOL     OW28522   0.099   5.337   1.729 -0.1695 -0.5395  0.5397
 9208SOL    HW128523   0.024   5.403   1.722 -0.0890 -0.6016 -1.4300
 9208SOL    HW228524   0.078   5.271   1.802 -0.8125  0.9007  1.7215
 9209SOL     OW28525   4.209   0.028   3.883 -0.2877 -0.1824 -0.9662
 9209SOL    HW128526   4.168   0.101   3.828 -0.9847 -1.0700 -1.6442
 9209SOL    HW228527   4.290   0.064   3.930 -0.4554  0.9543 -1.5059
 9210SOL     OW28528   2.285   4.142   6.640 -0.4877  0.5485  0.0943
 9210SOL    HW128529   2.257   4.058   6.687 -0.6927  0.4858 -0.1380
 9210SOL    HW228530   2.310   4.121   6.546  1.0905  0.4799  0.5140
 9211SOL     OW28531   6.549   1.732   6.962  0.2171  0.1721  0.0315
 9211SOL    HW128532   6.641   1.767   6.941  1.4400 -3.0527 -0.5879
 9211SOL    HW228533   6.551   1.683   7.049 -1.2178  0.9416  0.5264
 9212SOL     OW28534   5.382   3.856   6.809  0.0620  0.3997  0.2384
 9212SOL    HW128535   5.438   3.775   6.825 -1.1988 -0.8519 -1.4033
 9212SOL    HW228536   5.312   3.863   6.880 -0.6937 -0.7625 -0.3727
 9213SOL     OW28537   0.280   5.787   3.575 -0.1930 -0.5381 -0.4057
 9213SOL    HW128538   0.242   5.752   3.661  0.0363 -1.8357 -0.8183
 9213SOL    HW228539   0.297   5.711   3.512  1.0590  0.2339 -1.0457
 9214SOL     OW28540   0.862   1.028   4.741  0.8015  0.3488 -0.0827
 9214SOL    HW128541   0.921   0.982   4.807 -0.4561  0.5888  1.2802
 9214SOL    HW228542   0.818   1.107   4.786 -0.9721 -0.1506 -0.8480
 9215SOL     OW28543   6.862   3.692   3.917  0.1789 -0.3947 -0.0523
 9215SOL    HW128544   6.784   3.701   3.980  0.8105 -0.6632  0.7912
 9215SOL    HW228545   6.911   3.608   3.938  1.0779  0.0984 -0.1423
 9216SOL     OW28546   1.824   0.654   4.920  0.0737  0.4475  0.2588
 9216SOL    HW128547   1.904   0.712   4.936  0.1354  1.3889 -2.8962
 9216SOL    HW228548   1.749   0.684   4.980  1.6386  0.2931  2.4296
 9217SOL     OW28549   2.650   1.681   1.171 -0.4918 -0.4506 -0.0269
 9217SOL    HW128550   2.598   1.696   1.087  3.0695 -0.9975 -2.5653
 9217SOL    HW228551   2.691   1.768   1.201 -0.1704 -0.6082 -0.0059
 9218SOL     OW28552   5.327   6.453   6.436  0.0608  0.1102 -0.1593
 9218SOL    HW128553   5.357   6.540   6.475  4.1232 -0.6745 -1.0533
 9218SOL    HW228554   5.370   6.440   6.347  1.3125 -3.6263  0.8179
 9219SOL     OW28555   1.470   2.375   6.804 -0.0942  0.4028  0.1257
 9219SOL    HW128556   1.461   2.388   6.903 -1.1819 -0.3866  0.1486
 9219SOL    HW228557   1.388   2.409   6.759  0.3851  0.7259 -0.5058
 9220SOL     OW28558   0.374   0.786   4.727  0.4896 -0.0130  0.1728
 9220SOL    HW128559   0.433   0.835   4.790  2.1122  1.0424 -2.0497
 9220SOL    HW228560   0.406   0.692   4.717  3.1152  1.0105 -2.3800
 9221SOL     OW28561   3.347   1.814   2.856 -0.0171 -0.4018 -0.1549
 9221SOL    HW128562   3.406   1.895   2.851  2.2499 -1.9367  0.4030
 9221SOL    HW228563   3.259   1.840   2.896  1.5303  1.3486  2.4364
 9222SOL     OW28564   3.328   4.637   1.129  0.1688 -0.3912  0.3146
 9222SOL    HW128565   3.287   4.633   1.220  2.1979  0.9107  1.3647
 9222SOL    HW228566   3.392   4.714   1.124  0.6059 -0.8129 -2.0188
 9223SOL     OW28567   4.855   4.275   3.721 -0.6240 -0.0030 -0.7400
 9223SOL    HW128568   4.851   4.194   3.780  1.4483  0.9278  0.8329
 9223SOL    HW228569   4.772   4.329   3.733 -1.3012 -1.0464 -0.5578
 9224SOL     OW28570   1.603   5.736   2.268  0.0742  0.1399 -0.6928
 9224SOL    HW128571   1.613   5.728   2.367  1.8916  0.4243 -0.8228
 9224SOL    HW228572   1.595   5.644   2.228  1.5398 -0.1201 -0.4527
 9225SOL     OW28573   0.922   5.053   5.350 -0.2269 -0.3316  0.3636
 9225SOL    HW128574   0.869   5.059   5.435  0.7606 -0.8849  1.0373
 9225SOL    HW228575   0.973   5.138   5.337  0.2668 -0.5552  0.7782
 9226SOL     OW28576   6.329   5.724   4.962 -0.1224  0.0964 -0.0952
 9226SOL    HW128577   6.233   5.751   4.966 -0.8613 -2.0350 -1.5502
 9226SOL    HW228578   6.374   5.774   4.887  0.3446  2.1395  1.4603
 9227SOL     OW28579   4.864   2.767   5.032 -0.0807  0.0152 -0.0452
 9227SOL    HW128580   4.925   2.846   5.022  1.1220 -0.7112  1.1379
 9227SOL    HW228581   4.774   2.788   4.993  0.5031  1.6216 -0.5804
 9228SOL     OW28582   3.262   4.142   3.960 -0.2192 -0.2546  0.1148
 9228SOL    HW128583   3.241   4.167   3.865  0.8506  1.9835  0.3979
 9228SOL    HW228584   3.189   4.085   3.996 -1.4713  0.2023 -1.5431
 9229SOL     OW28585   0.399   1.391   1.065 -0.0797 -0.0192 -0.2487
 9229SOL    HW128586   0.345   1.474   1.077 -1.9362 -1.2721  0.7409
 9229SOL    HW228587   0.358   1.335   0.992  0.0932 -0.8219  0.2530
 9230SOL     OW28588   2.927   5.664   6.250  0.3998 -0.1239  0.2364
 9230SOL    HW128589   3.005   5.706   6.204  1.4656 -0.9372  1.2375
 9230SOL    HW228590   2.893   5.726   6.321  0.2628  0.1381 -0.0530
 9231SOL     OW28591   6.549   5.372   1.509 -0.3840  0.2969 -0.4661
 9231SOL    HW128592   6.501   5.289   1.483  1.7542 -0.7897 -1.2355
 9231SOL    HW228593   6.546   5.437   1.433  1.4721 -0.8220 -1.5866
 9232SOL     OW28594   0.453   4.609   2.527 -0.4543  0.0507  0.0519
 9232SOL    HW128595   0.504   4.662   2.594 -0.1037 -0.4839  0.2137
 9232SOL    HW228596   0.499   4.614   2.438  0.9794 -1.9462  0.6031
 9233SOL     OW28597   6.492   0.439   5.734 -0.2563  0.5342 -0.0658
 9233SOL    HW128598   6.451   0.360   5.780  1.9712 -2.6613 -3.0632
 9233SOL    HW228599   6.579   0.462   5.779 -0.1917  0.2856 -0.0611
 9234SOL     OW28600   1.107   5.889   0.273  0.1746  0.7948  0.1896
 9234SOL    HW128601   1.158   5.917   0.193 -1.5981 -1.0912 -1.7395
 9234SOL    HW228602   1.170   5.867   0.348  1.9858  0.9880 -1.2337
 9235SOL     OW28603   0.920   0.756   4.295  0.8175  0.0647  0.0808
 9235SOL    HW128604   1.017   0.748   4.275  0.3753 -1.1151 -1.7975
 9235SOL    HW228605   0.895   0.853   4.299  1.8056  0.3792 -0.8951
 9236SOL     OW28606   1.140   3.478   4.799  0.3193 -0.4065  0.4208
 9236SOL    HW128607   1.088   3.412   4.745 -0.2791  0.4138 -0.0324
 9236SOL    HW228608   1.098   3.488   4.889  0.3502 -0.5493  0.4526
 9237SOL     OW28609   6.967   4.730   4.104 -0.5187 -0.3446 -0.1180
 9237SOL    HW128610   7.006   4.792   4.036 -1.8535  1.0398  0.3097
 9237SOL    HW228611   7.023   4.731   4.187 -0.8765  0.8282  0.1252
 9238SOL     OW28612   1.157   0.391   6.770  0.1177  0.2834  0.3432
 9238SOL    HW128613   1.223   0.449   6.818  0.1942 -1.3120  2.2963
 9238SOL    HW228614   1.071   0.388   6.822 -0.5323  0.0936 -0.6982
 9239SOL     OW28615   2.772   5.270   0.669 -0.1501  0.2319 -0.1972
 9239SOL    HW128616   2.856   5.239   0.715 -0.4018  1.0370  0.8438
 9239SOL    HW228617   2.762   5.221   0.583  0.6935 -0.8549  0.2880
 9240SOL     OW28618   2.328   0.791   4.806 -0.5679  0.3684 -0.2530
 9240SOL    HW128619   2.366   0.779   4.714 -0.0633 -1.8577  0.1930
 9240SOL    HW228620   2.402   0.808   4.871 -0.6991 -0.3004  0.0725
 9241SOL     OW28621   6.662   6.022   1.869  0.1193  0.1340 -0.1379
 9241SOL    HW128622   6.596   5.949   1.853 -0.3075  0.5246 -0.1632
 9241SOL    HW228623   6.727   6.026   1.793  0.4981 -0.5945  0.1381
 9242SOL     OW28624   1.570   4.210   0.491 -0.1130  0.3381  1.4319
 9242SOL    HW128625   1.480   4.223   0.533 -0.2387  0.4619  1.1246
 9242SOL    HW228626   1.571   4.124   0.441 -0.7537  1.3158 -0.3347
 9243SOL     OW28627   0.612   6.273   0.727 -0.0337 -0.2512  0.4791
 9243SOL    HW128628   0.604   6.364   0.686 -0.1333 -1.1239 -1.5743
 9243SOL    HW228629   0.705   6.259   0.760 -0.1510  0.7650  1.2499
 9244SOL     OW28630   2.313   0.636   5.269 -0.7742  0.6847 -0.3762
 9244SOL    HW128631   2.263   0.720   5.246  0.7739  1.7788  0.0763
 9244SOL    HW228632   2.410   0.657   5.275 -0.2268 -1.4120 -1.3607
 9245SOL     OW28633   6.598   3.564   3.153 -0.3343 -0.0972 -0.1721
 9245SOL    HW128634   6.690   3.547   3.117 -1.1681 -1.7365 -1.6838
 9245SOL    HW228635   6.537   3.490   3.124 -2.3935  1.5174 -0.1788
 9246SOL     OW28636   6.402   2.576   6.692  0.2012  0.0506 -0.0717
 9246SOL    HW128637   6.391   2.544   6.598  0.4489 -1.6153  0.4269
 9246SOL    HW228638   6.312   2.587   6.735  0.1076 -1.8400  0.3011
 9247SOL     OW28639   3.704   5.656   7.014  0.1113 -0.4208  0.3683
 9247SOL    HW128640   3.670   5.574   7.059  2.0098 -1.0759  0.6902
 9247SOL    HW228641   3.801   5.646   6.994 -0.3206  0.3479 -2.7631
 9248SOL     OW28642   2.691   6.763   2.164  0.0372 -0.2023 -0.0016
 9248SOL    HW128643   2.777   6.801   2.199 -0.7344  0.3935  1.3314
 9248SOL    HW228644   2.654   6.699   2.232 -0.4150 -0.7178 -0.7202
 9249SOL     OW28645   1.461   0.692   6.392 -0.0046 -0.4335  0.3669
 9249SOL    HW128646   1.373   0.654   6.364 -0.0964 -0.5319  0.7844
 9249SOL    HW228647   1.450   0.744   6.476  0.6627 -1.9987  1.4659
 9250SOL     OW28648   1.139   6.686   1.035  0.0890  0.4942 -0.0055
 9250SOL    HW128649   1.056   6.664   0.984 -1.4740  2.6195  1.4320
 9250SOL    HW228650   1.119   6.685   1.133  2.2610 -0.6619  0.4898
 9251SOL     OW28651   1.681   1.852   1.328 -0.3371 -0.5401 -0.5204
 9251SOL    HW128652   1.739   1.924   1.364 -1.7575  0.4027 -0.0245
 9251SOL    HW228653   1.630   1.810   1.403 -1.3805 -0.3374 -1.0944
 9252SOL     OW28654   6.523   3.148   6.544  0.1931  0.2082  0.4629
 9252SOL    HW128655   6.538   3.133   6.642 -1.7027  0.4407  0.8482
 9252SOL    HW228656   6.606   3.128   6.493  0.6853 -1.7769  1.9242
 9253SOL     OW28657   4.111   6.661   2.873 -0.0316  0.1247 -0.3135
 9253SOL    HW128658   4.149   6.675   2.782 -1.5748 -0.7379 -1.1246
 9253SOL    HW228659   4.017   6.626   2.865 -0.3818  0.5325  1.6016
 9254SOL     OW28660   5.805   5.363   1.728 -0.7058 -0.0781 -0.3101
 9254SOL    HW128661   5.741   5.365   1.805 -0.0661 -1.6293  0.3036
 9254SOL    HW228662   5.870   5.438   1.738 -1.9269  1.0413 -0.5268
 9255SOL     OW28663   0.869   3.027   0.783  0.2570 -0.0220  0.2760
 9255SOL    HW128664   0.857   3.126   0.777 -0.7667 -0.1419  0.1727
 9255SOL    HW228665   0.964   3.007   0.806  0.8694  0.9347 -1.2338
 9256SOL     OW28666   0.101   6.176   6.648  0.1345  0.2318 -0.4054
 9256SOL    HW128667   0.161   6.099   6.670 -1.6751 -0.9747  0.4920
 9256SOL    HW228668   0.047   6.153   6.567 -2.0532 -0.4671  1.1714
 9257SOL     OW28669   0.438   6.723   6.926  0.1819 -0.0009 -0.6171
 9257SOL    HW128670   0.458   6.656   6.997  1.3619  0.5301 -0.4264
 9257SOL    HW228671   0.340   6.720   6.905 -1.0410  2.2076  3.5512
 9258SOL     OW28672   5.380   4.491   3.302 -0.1132  0.3663 -0.2482
 9258SOL    HW128673   5.334   4.428   3.365  1.3433  0.0340  0.5264
 9258SOL    HW228674   5.474   4.507   3.333 -0.6314  3.5069 -0.0386
 9259SOL     OW28675   1.547   3.259   6.552  0.1888  0.4462 -0.1525
 9259SOL    HW128676   1.532   3.270   6.454 -1.4324 -0.0480  0.0062
 9259SOL    HW228677   1.461   3.272   6.601 -0.3197 -4.2964  0.7368
 9260SOL     OW28678   6.253   5.215   4.745  0.0420  0.3824  0.1460
 9260SOL    HW128679   6.159   5.191   4.768  0.2254 -0.5449 -0.0444
 9260SOL    HW228680   6.315   5.148   4.785  0.6392  1.0579  0.3755
 9261SOL     OW28681   0.779   2.488   1.882  0.4488 -0.6654 -0.6713
 9261SOL    HW128682   0.745   2.408   1.832 -0.4968  0.0669 -1.2374
 9261SOL    HW228683   0.723   2.568   1.860  1.5000  0.2165 -0.2896
 9262SOL     OW28684   4.772   6.105   5.572  0.4494  0.2016 -0.1455
 9262SOL    HW128685   4.813   6.158   5.498  2.7119 -0.2986  0.6700
 9262SOL    HW228686   4.784   6.007   5.554  0.4402  0.0597  0.5820
 9263SOL     OW28687   2.160   3.283   3.380 -0.6567 -0.7127 -0.1267
 9263SOL    HW128688   2.243   3.229   3.371 -1.9218 -2.5287 -1.5975
 9263SOL    HW228689   2.115   3.291   3.291 -0.6911  2.6454  0.0476
 9264SOL     OW28690   5.170   3.534   3.227 -0.0324  0.4155  0.1547
 9264SOL    HW128691   5.185   3.616   3.172  0.6105  0.2311  0.0458
 9264SOL    HW228692   5.255   3.481   3.232 -0.4260 -0.2167  0.2701
 9265SOL     OW28693   3.703   1.368   2.461  0.2120 -0.1758  0.7261
 9265SOL    HW128694   3.627   1.396   2.402 -0.6552  0.7044  2.1924
 9265SOL    HW228695   3.746   1.449   2.501  1.4344 -0.7069  0.5417
 9266SOL     OW28696   0.440   2.647   1.274  0.4992  0.8411 -0.0420
 9266SOL    HW128697   0.463   2.745   1.282  1.3369  0.7018 -0.6344
 9266SOL    HW228698   0.359   2.636   1.217  0.4190  1.1834  0.0013
 9267SOL     OW28699   6.283   1.102   3.125  0.3276 -0.4376  0.2768
 9267SOL    HW128700   6.353   1.136   3.063  2.5295  0.1429  2.8697
 9267SOL    HW228701   6.214   1.173   3.139  1.1473  0.3828  0.3137
 9268SOL     OW28702   6.779   1.892   1.090  0.7703 -0.4925  0.2251
 9268SOL    HW128703   6.712   1.948   1.139  0.1223 -0.2631 -0.8912
 9268SOL    HW228704   6.864   1.945   1.078  0.7641 -0.3783  0.6707
 9269SOL     OW28705   1.918   6.058   1.807 -0.3231 -0.3298 -0.8844
 9269SOL    HW128706   1.894   5.962   1.788 -2.4542 -0.2024  0.7199
 9269SOL    HW228707   1.835   6.113   1.807  0.8104  1.4448 -1.2201
 9270SOL     OW28708   1.567   0.359   6.207 -1.0378  0.0606  0.0651
 9270SOL    HW128709   1.624   0.411   6.270 -1.5519 -1.1409  1.5880
 9270SOL    HW228710   1.481   0.408   6.192  0.0546  1.5576 -1.7265
 9271SOL     OW28711   3.243   4.663   5.723 -0.2182  0.0656 -0.0106
 9271SOL    HW128712   3.265   4.602   5.646  0.6931  4.1462 -3.3569
 9271SOL    HW228713   3.144   4.669   5.733 -0.4008  0.2588 -1.6542
 9272SOL     OW28714   0.511   0.844   0.652 -0.0768 -0.2408 -0.0209
 9272SOL    HW128715   0.525   0.762   0.596  0.2273 -0.4530  0.3601
 9272SOL    HW228716   0.524   0.820   0.748  1.4581  0.5667 -0.0006
 9273SOL     OW28717   6.353   2.811   4.078 -0.6949 -0.3644 -0.4642
 9273SOL    HW128718   6.386   2.744   4.145 -2.1641 -1.7615 -1.0521
 9273SOL    HW228719   6.345   2.900   4.121  0.8513 -0.6533  0.4877
 9274SOL     OW28720   0.398   2.155   0.586  0.3279 -1.0430  0.0780
 9274SOL    HW128721   0.438   2.234   0.633 -1.1581 -0.8429  1.0456
 9274SOL    HW228722   0.451   2.137   0.502  2.2518 -0.6364  1.1434
 9275SOL     OW28723   2.802   2.359   0.449  0.0119  0.3188 -0.1658
 9275SOL    HW128724   2.870   2.383   0.518  1.1983 -0.7697 -0.9141
 9275SOL    HW228725   2.727   2.309   0.492  0.2229  0.5524  0.4866
 9276SOL     OW28726   1.579   2.728   0.625  0.5544  0.5011 -0.1066
 9276SOL    HW128727   1.661   2.698   0.575  0.6046  1.0561 -0.3660
 9276SOL    HW228728   1.607   2.787   0.701  0.3771  1.1451 -0.5250
 9277SOL     OW28729   4.708   4.761   3.213 -0.3699  0.5431 -0.2725
 9277SOL    HW128730   4.797   4.775   3.172 -1.1753  1.0032 -1.9455
 9277SOL    HW228731   4.648   4.838   3.192 -1.1019  0.3654  1.0332
 9278SOL     OW28732   1.088   5.687   4.572  0.3064  0.1630 -0.2363
 9278SOL    HW128733   1.183   5.713   4.557  0.8100 -1.3100  0.1977
 9278SOL    HW228734   1.054   5.637   4.493 -0.4833  1.6235 -0.8524
 9279SOL     OW28735   3.954   6.036   3.544  0.4737 -0.6006 -0.2611
 9279SOL    HW128736   3.937   5.996   3.634  0.4535 -0.6499 -0.2867
 9279SOL    HW228737   3.970   5.963   3.478  0.6191 -0.5610 -0.2706
 9280SOL     OW28738   1.301   4.040   2.502 -0.2552  0.1203 -0.5311
 9280SOL    HW128739   1.344   4.127   2.527  0.0249 -0.7206  2.2633
 9280SOL    HW228740   1.202   4.049   2.511 -0.1664 -0.1275  0.9382
 9281SOL     OW28741   2.108   4.339   6.719 -0.2163 -0.1126 -0.4465
 9281SOL    HW128742   2.026   4.296   6.757 -0.6074  0.2232 -0.8973
 9281SOL    HW228743   2.175   4.268   6.696  0.7412 -0.2378  2.4010
 9282SOL     OW28744   0.825   6.478   5.181  0.6919  0.1115 -0.7089
 9282SOL    HW128745   0.924   6.466   5.178  1.0940  3.0013 -1.8823
 9282SOL    HW228746   0.793   6.515   5.094 -1.3189  0.0324 -0.0637
 9283SOL     OW28747   5.652   5.434   4.647 -0.3060  0.4135 -0.2973
 9283SOL    HW128748   5.609   5.480   4.570 -0.4349 -0.8765 -1.0240
 9283SOL    HW228749   5.582   5.404   4.712 -0.3236  0.2361 -0.3973
 9284SOL     OW28750   3.537   4.157   6.672 -0.5964  0.2962  0.0653
 9284SOL    HW128751   3.575   4.186   6.584  0.8193  1.0501  0.9021
 9284SOL    HW228752   3.606   4.166   6.743 -1.4771 -1.0395  1.1420
 9285SOL     OW28753   0.289   6.072   2.371 -0.6578 -0.2029 -0.5001
 9285SOL    HW128754   0.247   6.086   2.460 -0.7130  1.2132 -0.7374
 9285SOL    HW228755   0.245   6.130   2.303  0.1698 -0.3817 -1.2106
 9286SOL     OW28756   3.615   6.135   0.939  0.2882 -0.1105 -0.0362
 9286SOL    HW128757   3.608   6.077   1.021  0.7837 -0.9936 -0.5929
 9286SOL    HW228758   3.548   6.104   0.871  0.1672  0.3449 -0.1233
 9287SOL     OW28759   6.103   5.182   0.473  0.0205 -0.4207  0.0285
 9287SOL    HW128760   6.118   5.217   0.565  1.6722 -1.8488  0.3481
 9287SOL    HW228761   6.189   5.183   0.422 -0.9544  0.7369 -1.6629
 9288SOL     OW28762   3.604   0.354   4.023 -0.2267 -0.1048  0.1129
 9288SOL    HW128763   3.536   0.287   4.053  0.1783 -0.4828  0.1997
 9288SOL    HW228764   3.686   0.306   3.994  0.0615  0.3580  0.1650
 9289SOL     OW28765   4.834   5.626   1.736 -0.0345 -0.4877  0.3137
 9289SOL    HW128766   4.862   5.607   1.642 -0.0700  1.3491 -0.1134
 9289SOL    HW228767   4.783   5.712   1.739  1.8341  0.6533  2.2727
 9290SOL     OW28768   5.467   6.762   3.465 -0.1477 -0.6688  0.4735
 9290SOL    HW128769   5.564   6.779   3.451  0.0696 -2.2196 -0.0547
 9290SOL    HW228770   5.427   6.725   3.381 -1.0841 -0.5694  0.8575
 9291SOL     OW28771   0.182   3.874   0.920  0.2244  0.6086 -0.2844
 9291SOL    HW128772   0.155   3.945   0.855  0.2005  0.5792 -0.3062
 9291SOL    HW228773   0.101   3.821   0.947  0.5427 -0.7169 -1.7885
 9292SOL     OW28774   1.690   1.816   0.048 -0.2881 -0.6171  0.5392
 9292SOL    HW128775   1.664   1.877   0.122  0.4208  2.9070 -1.8334
 9292SOL    HW228776   1.783   1.781   0.064 -0.4123 -0.4753  1.6154
 9293SOL     OW28777   4.503   0.807   0.480 -0.6561  0.3270 -0.4152
 9293SOL    HW128778   4.434   0.735   0.493  1.2545 -1.5227 -0.0643
 9293SOL    HW228779   4.546   0.829   0.568  1.2936 -0.7643 -1.0513
 9294SOL     OW28780   4.647   1.813   3.927  0.0139  0.1055  0.0316
 9294SOL    HW128781   4.562   1.825   3.979 -0.8810 -0.1970 -1.2889
 9294SOL    HW228782   4.724   1.850   3.979 -0.7399 -0.6788  1.7950
 9295SOL     OW28783   6.221   6.912   3.383  0.2100  0.1144 -0.0494
 9295SOL    HW128784   6.183   6.935   3.472 -0.0680 -1.5446  0.3005
 9295SOL    HW228785   6.147   6.903   3.316  0.4185  1.3669 -0.4710
 9296SOL     OW28786   1.461   1.507   6.275  0.0634 -0.5518 -0.0754
 9296SOL    HW128787   1.445   1.600   6.241  0.8853 -0.5348 -0.4425
 9296SOL    HW228788   1.374   1.458   6.281 -0.2122 -0.2388 -1.3076
 9297SOL     OW28789   0.373   5.840   1.169  0.5758  0.1955 -0.5099
 9297SOL    HW128790   0.287   5.791   1.151  0.4578 -0.2348  1.0514
 9297SOL    HW228791   0.445   5.774   1.191  0.7728  0.6461  0.2432
 9298SOL     OW28792   5.571   5.342   5.483  0.0542 -0.9888  0.0567
 9298SOL    HW128793   5.633   5.421   5.478 -1.3623  0.1077 -1.4376
 9298SOL    HW228794   5.477   5.375   5.490 -0.4482 -2.6047  1.2784
 9299SOL     OW28795   4.957   2.708   2.210 -0.1320 -0.0267 -0.3950
 9299SOL    HW128796   4.916   2.791   2.248  1.0894 -0.0178  0.9659
 9299SOL    HW228797   4.929   2.699   2.114 -2.4656  0.4872  0.1677
 9300SOL     OW28798   2.656   5.962   2.353 -0.0768 -0.0416 -0.4544
 9300SOL    HW128799   2.731   5.987   2.414 -0.7855 -0.7725  0.7674
 9300SOL    HW228800   2.663   5.865   2.330  0.8450  0.4764 -2.5298
 9301SOL     OW28801   5.973   3.841   2.084 -0.1519 -0.0442  0.1174
 9301SOL    HW128802   5.967   3.881   2.175  1.5982 -2.7412  1.5364
 9301SOL    HW228803   5.899   3.776   2.070  0.7427 -1.1653  0.4726
 9302SOL     OW28804   4.095   6.128   3.925  0.6616 -0.2029  0.7889
 9302SOL    HW128805   4.057   6.053   3.870 -1.6503 -0.5119  2.6336
 9302SOL    HW228806   4.026   6.199   3.936  1.6787  0.6559  1.8284
 9303SOL     OW28807   3.418   4.128   6.290 -0.1488 -0.6097  0.0840
 9303SOL    HW128808   3.324   4.113   6.259  0.0769 -0.5281 -0.6643
 9303SOL    HW228809   3.480   4.071   6.236  0.2755 -0.3239  0.2675
 9304SOL     OW28810   4.925   6.561   6.806  0.4327 -0.0729  0.3000
 9304SOL    HW128811   4.875   6.479   6.833  0.2184 -0.5250 -1.3185
 9304SOL    HW228812   4.979   6.541   6.724  2.9219  0.5473  1.7012
 9305SOL     OW28813   2.402   7.013   1.851  0.8414  0.0939  0.2803
 9305SOL    HW128814   2.412   6.949   1.927 -0.4148  0.1582  0.5173
 9305SOL    HW228815   2.487   7.015   1.798  0.8150 -2.0369  0.0523
 9306SOL     OW28816   5.331   6.357   4.595 -0.4705 -0.5270  0.2495
 9306SOL    HW128817   5.427   6.339   4.573 -0.3088 -1.5329  1.6215
 9306SOL    HW228818   5.275   6.281   4.562 -0.7860 -0.0290 -0.3864
 9307SOL     OW28819   2.946   4.334   1.509 -0.0595 -0.2111  0.2015
 9307SOL    HW128820   3.006   4.254   1.504 -2.2326 -2.0009  1.2989
 9307SOL    HW228821   2.990   4.405   1.564  2.0215 -0.4911 -1.0035
 9308SOL     OW28822   1.552   2.454   2.105  0.5822 -0.0446 -0.0097
 9308SOL    HW128823   1.542   2.394   2.185  0.6773 -0.5970 -0.4009
 9308SOL    HW228824   1.469   2.448   2.049  0.1940  0.9516  0.4541
 9309SOL     OW28825   1.997   3.467   6.028 -0.5644  0.0655  0.5145
 9309SOL    HW128826   2.062   3.395   5.999 -0.5203 -0.5863  2.1484
 9309SOL    HW228827   2.039   3.523   6.099 -1.6760 -0.1776  1.3842
 9310SOL     OW28828   5.361   0.134   5.859 -0.6340 -0.0585 -0.1745
 9310SOL    HW128829   5.303   0.213   5.837 -1.6772 -0.7690 -0.0441
 9310SOL    HW228830   5.414   0.154   5.942 -0.9270  0.4795 -0.1096
 9311SOL     OW28831   6.496   3.470   4.211 -0.9078  0.1938 -0.6987
 9311SOL    HW128832   6.560   3.393   4.207 -0.8453  0.2015  0.0531
 9311SOL    HW228833   6.443   3.466   4.295  0.3479  1.9544  0.2404
 9312SOL     OW28834   6.064   2.963   2.487  0.4535  0.0434 -0.3127
 9312SOL    HW128835   6.018   2.920   2.564 -1.2391  0.6901 -0.9254
 9312SOL    HW228836   6.060   3.062   2.497  0.0075  0.1364 -1.3423
 9313SOL     OW28837   1.428   6.887   1.829  0.1125  0.8415  0.4130
 9313SOL    HW128838   1.505   6.854   1.775  0.3916  1.9847  0.0765
 9313SOL    HW228839   1.414   6.984   1.811  1.4115  1.7992  3.7399
 9314SOL     OW28840   5.650   4.857   1.110  0.3681 -0.2464 -0.4834
 9314SOL    HW128841   5.659   4.764   1.145  0.3835 -1.2363 -2.8907
 9314SOL    HW228842   5.692   4.921   1.174 -0.3008 -1.7820  1.5912
 9315SOL     OW28843   5.691   6.083   5.063  0.0851 -0.1469 -0.1084
 9315SOL    HW128844   5.738   6.067   5.150 -0.3340 -1.3443 -0.0887
 9315SOL    HW228845   5.694   6.180   5.042  2.1834 -0.1129  0.1113
 9316SOL     OW28846   0.335   0.196   1.210  0.7557 -0.4176  0.4092
 9316SOL    HW128847   0.277   0.224   1.287  1.6923 -0.1907  1.0465
 9316SOL    HW228848   0.335   0.267   1.140  1.1602  0.0803  0.9139
 9317SOL     OW28849   1.799   6.379   3.978 -0.2018  0.4943  0.1904
 9317SOL    HW128850   1.820   6.443   3.905  2.1675 -0.4035 -0.0233
 9317SOL    HW228851   1.884   6.340   4.013 -1.3100  0.2866  2.9033
 9318SOL     OW28852   2.447   6.649   4.845  0.3313 -0.4896 -0.1340
 9318SOL    HW128853   2.484   6.726   4.792  1.1992 -0.7166  0.1218
 9318SOL    HW228854   2.347   6.651   4.841  0.2844  1.2182  0.6741
 9319SOL     OW28855   3.279   2.804   0.266  0.3266  0.2618  0.0005
 9319SOL    HW128856   3.203   2.769   0.212  0.5099  2.9452 -2.2615
 9319SOL    HW228857   3.338   2.728   0.295 -1.5349 -1.5747 -0.8154
 9320SOL     OW28858   0.132   1.630   0.257 -0.2803  0.5193 -0.3660
 9320SOL    HW128859   0.211   1.681   0.225 -1.0538  1.5781 -0.6427
 9320SOL    HW228860   0.141   1.534   0.231  1.1508  0.5188  0.0780
 9321SOL     OW28861   6.141   2.057   1.313 -0.5879  0.0666 -0.0829
 9321SOL    HW128862   6.123   2.152   1.288 -2.0947 -0.3904 -0.8633
 9321SOL    HW228863   6.056   2.013   1.341  0.2421 -0.8281  1.1341
 9322SOL     OW28864   5.067   2.763   6.648 -0.5623 -0.8507  0.4165
 9322SOL    HW128865   5.138   2.703   6.612 -3.1598 -2.1995 -2.9548
 9322SOL    HW228866   5.054   2.841   6.586 -0.4341  0.7647  2.2871
 9323SOL     OW28867   6.683   2.865   4.222 -0.1436  0.4879 -0.2882
 9323SOL    HW128868   6.696   2.899   4.129  1.3512  0.6348 -0.0469
 9323SOL    HW228869   6.649   2.940   4.280  0.6977  0.9114 -0.3212
 9324SOL     OW28870   1.163   3.236   6.966 -0.3088 -0.5924 -0.8067
 9324SOL    HW128871   1.250   3.193   6.991  0.5069  0.7672 -1.2074
 9324SOL    HW228872   1.100   3.166   6.933  0.3469 -1.7174  0.2203
 9325SOL     OW28873   4.915   4.038   2.814 -0.0715 -0.2283  0.2595
 9325SOL    HW128874   4.953   3.948   2.836 -0.1568 -0.2006  0.5313
 9325SOL    HW228875   4.985   4.094   2.770  0.0780 -0.3200  0.3791
 9326SOL     OW28876   4.210   3.973   1.422 -0.7242 -0.6789 -0.1585
 9326SOL    HW128877   4.113   3.997   1.422 -0.8392 -1.1340 -0.8371
 9326SOL    HW228878   4.228   3.906   1.494 -0.6450  0.3978  0.8694
 9327SOL     OW28879   1.029   1.575   2.749  0.1427 -0.3165  0.2496
 9327SOL    HW128880   1.089   1.496   2.740  0.7471  0.2674 -1.0814
 9327SOL    HW228881   1.078   1.658   2.724 -0.3793  0.5563  1.9617
 9328SOL     OW28882   0.591   6.400   3.046 -0.6891  0.2834 -0.2025
 9328SOL    HW128883   0.629   6.483   3.005 -0.2229 -0.9034 -2.3276
 9328SOL    HW228884   0.492   6.411   3.058 -0.6126  1.1862 -0.3400
 9329SOL     OW28885   6.715   5.227   5.841  0.4448 -0.0943  0.1983
 9329SOL    HW128886   6.725   5.151   5.906 -1.8637  1.5055  2.6054
 9329SOL    HW228887   6.642   5.205   5.776  0.5140 -0.3504  0.2039
 9330SOL     OW28888   6.153   6.691   0.688 -0.1425  0.2038  0.1170
 9330SOL    HW128889   6.155   6.593   0.667 -2.4950  0.3816 -1.3191
 9330SOL    HW228890   6.131   6.704   0.784  0.2027 -0.6740  0.3228
 9331SOL     OW28891   0.675   5.445   4.120  0.0625  0.6624  0.3480
 9331SOL    HW128892   0.639   5.538   4.113  0.9515  0.9397 -0.8632
 9331SOL    HW228893   0.604   5.379   4.094 -0.4968  1.0027  0.9876
 9332SOL     OW28894   5.870   1.823   1.151 -0.3656 -0.2611  0.1484
 9332SOL    HW128895   5.832   1.910   1.122 -0.9615 -1.1386 -1.9019
 9332SOL    HW228896   5.795   1.758   1.167  0.1112 -0.9361 -0.2740
 9333SOL     OW28897   1.562   5.792   2.750 -0.2666  0.7792 -0.4850
 9333SOL    HW128898   1.604   5.746   2.828 -1.2859 -0.5600 -0.6866
 9333SOL    HW228899   1.599   5.754   2.665 -1.5002 -0.0951 -0.6589
 9334SOL     OW28900   6.688   6.504   6.475 -0.1793 -0.2443 -0.2312
 9334SOL    HW128901   6.738   6.421   6.499  0.4371  0.5854  1.5356
 9334SOL    HW228902   6.608   6.513   6.534 -1.4364 -0.6410 -1.8402
 9335SOL     OW28903   0.900   2.736   2.250 -0.0245  0.1049 -0.4879
 9335SOL    HW128904   0.858   2.671   2.187 -1.3378 -1.0688  1.4828
 9335SOL    HW228905   0.985   2.771   2.210 -0.2319 -1.4020 -2.4075
 9336SOL     OW28906   4.436   5.775   5.261 -0.5695  0.0297 -0.6521
 9336SOL    HW128907   4.493   5.839   5.312 -2.3794 -0.1447  1.7822
 9336SOL    HW228908   4.364   5.739   5.321 -0.5039 -3.2376 -2.2744
 9337SOL     OW28909   3.114   1.897   6.029  0.2701  0.1388  0.3164
 9337SOL    HW128910   3.212   1.886   6.010  0.0635 -0.9045 -0.2385
 9337SOL    HW228911   3.066   1.814   6.002 -0.6836  0.3770  1.2392
 9338SOL     OW28912   4.077   0.980   0.107  0.4773 -0.3469  0.2088
 9338SOL    HW128913   4.106   0.970   0.202 -0.0954  0.6332  0.4921
 9338SOL    HW228914   4.126   0.913   0.050  1.6233 -0.2198  1.0193
 9339SOL     OW28915   6.975   1.522   3.706  0.1103 -0.2893 -0.1323
 9339SOL    HW128916   7.013   1.614   3.712 -0.5935 -0.0817  1.3828
 9339SOL    HW228917   6.875   1.527   3.702 -0.0106 -1.0126  1.3607
 9340SOL     OW28918   3.663   5.108   3.780 -0.1166  0.0099  0.2908
 9340SOL    HW128919   3.676   5.016   3.742  1.0069 -0.4079  1.5830
 9340SOL    HW228920   3.578   5.147   3.744 -0.7167 -1.6000 -0.1530
 9341SOL     OW28921   3.395   4.976   1.412  0.3088  0.1223  0.3126
 9341SOL    HW128922   3.302   4.998   1.440  0.0911  0.3441 -0.5612
 9341SOL    HW228923   3.441   4.927   1.485 -0.5006 -0.0037  0.7452
 9342SOL     OW28924   2.474   1.584   5.467  0.2192  0.2196 -0.6413
 9342SOL    HW128925   2.404   1.540   5.411 -1.0146  0.1575  0.8683
 9342SOL    HW228926   2.517   1.658   5.415 -0.9267  0.2169 -1.6407
 9343SOL     OW28927   5.208   3.631   0.616 -0.7337 -0.0348 -0.5385
 9343SOL    HW128928   5.120   3.677   0.605 -0.2768  0.7853 -0.8158
 9343SOL    HW228929   5.218   3.560   0.546 -0.6136  0.7749 -1.3576
 9344SOL     OW28930   5.131   6.590   2.635  0.4433 -0.2207 -0.2911
 9344SOL    HW128931   5.201   6.632   2.693  0.4384 -0.4206 -0.1424
 9344SOL    HW228932   5.109   6.499   2.670 -1.6436  0.7586  1.1124
 9345SOL     OW28933   0.786   5.189   6.282 -0.1118 -0.5426  0.2896
 9345SOL    HW128934   0.805   5.144   6.195  1.4446  1.2347 -0.3610
 9345SOL    HW228935   0.854   5.160   6.350  0.9058  0.7332 -0.1358
 9346SOL     OW28936   4.615   3.500   1.361 -0.0750 -0.3687 -0.1461
 9346SOL    HW128937   4.535   3.518   1.304 -0.2832  0.9803  0.5337
 9346SOL    HW228938   4.658   3.587   1.386  0.4008 -0.9711  1.1840
 9347SOL     OW28939   4.484   1.358   3.726  0.1629  0.2357 -0.0839
 9347SOL    HW128940   4.459   1.294   3.653  1.0777  0.1115 -0.2976
 9347SOL    HW228941   4.427   1.440   3.719 -0.4097 -0.1734 -0.3501
 9348SOL     OW28942   4.243   4.235   1.549  0.5539 -0.1154 -0.1028
 9348SOL    HW128943   4.154   4.276   1.567  0.7112  0.1430  0.1008
 9348SOL    HW228944   4.290   4.218   1.636  0.4966 -0.7156 -0.1876
 9349SOL     OW28945   1.155   2.857   6.812 -0.1396 -0.1161 -0.3799
 9349SOL    HW128946   1.212   2.845   6.894  0.5662  0.6396 -0.7499
 9349SOL    HW228947   1.208   2.903   6.741 -0.9323 -0.2407 -1.0644
 9350SOL     OW28948   6.416   0.678   0.633 -0.0712  0.5362  0.0106
 9350SOL    HW128949   6.460   0.654   0.719  0.0965  1.4235  0.1751
 9350SOL    HW228950   6.382   0.594   0.589 -2.1973  0.2387  2.0149
 9351SOL     OW28951   2.635   3.492   6.795 -0.5155  0.0321  0.0651
 9351SOL    HW128952   2.644   3.393   6.785  0.0967  0.0401  0.5182
 9351SOL    HW228953   2.646   3.535   6.705  1.9423 -0.1140  0.2337
 9352SOL     OW28954   3.041   0.570   1.012 -0.5948 -0.3335 -0.9239
 9352SOL    HW128955   2.946   0.591   1.034 -0.7972 -1.6538 -0.4219
 9352SOL    HW228956   3.077   0.640   0.951 -1.7944  0.3487 -0.8877
 9353SOL     OW28957   1.008   2.704   2.496  0.1599  0.0186 -0.6779
 9353SOL    HW128958   1.063   2.783   2.523  1.3395 -0.2406 -2.1366
 9353SOL    HW228959   0.972   2.718   2.404  0.0462 -0.9657 -0.7958
 9354SOL     OW28960   5.597   2.127   0.661  0.0401 -0.1235  0.0192
 9354SOL    HW128961   5.588   2.072   0.578 -1.5725  1.9531 -1.2789
 9354SOL    HW228962   5.635   2.217   0.638 -1.2682  0.8234  1.3517
 9355SOL     OW28963   0.866   1.016   1.866  0.0052 -0.4485 -0.0314
 9355SOL    HW128964   0.767   1.011   1.852  0.2052 -1.1646 -1.3135
 9355SOL    HW228965   0.885   1.074   1.946 -1.4581 -0.7792  0.5938
 9356SOL     OW28966   4.900   2.321   1.336  0.3122 -0.0848 -0.2445
 9356SOL    HW128967   4.956   2.252   1.290 -0.0250 -0.5677  0.0774
 9356SOL    HW228968   4.930   2.412   1.306 -0.2305 -0.3950 -1.8131
 9357SOL     OW28969   0.583   5.266   5.532  0.3762 -0.2147 -0.1331
 9357SOL    HW128970   0.553   5.283   5.438 -1.7743  2.1300  0.8546
 9357SOL    HW228971   0.510   5.219   5.583 -0.1827  2.0401  1.3033
 9358SOL     OW28972   6.531   4.015   3.808 -0.1176 -0.0829 -0.0768
 9358SOL    HW128973   6.499   3.921   3.794 -0.5450  0.0931 -0.3055
 9358SOL    HW228974   6.616   4.029   3.758 -0.5185 -0.0944 -0.7786
 9359SOL     OW28975   5.150   4.524   6.483  0.2491 -0.1739  0.4952
 9359SOL    HW128976   5.232   4.486   6.440 -0.8073 -1.4276 -0.4918
 9359SOL    HW228977   5.077   4.532   6.415 -0.2049  1.8055  1.1340
 9360SOL     OW28978   2.606   1.035   6.852  0.1210  0.2032  0.4210
 9360SOL    HW128979   2.549   1.060   6.774  0.8748  2.5977  0.5300
 9360SOL    HW228980   2.588   0.941   6.878 -1.2453 -0.1913 -1.6794
 9361SOL     OW28981   1.104   1.780   1.899  0.3071 -0.1729  0.1423
 9361SOL    HW128982   1.073   1.780   1.805  1.4101  0.9813 -0.2492
 9361SOL    HW228983   1.026   1.793   1.960 -0.3914 -0.7525 -0.6065
 9362SOL     OW28984   6.795   1.950   3.220 -0.1128 -0.0054 -0.1666
 9362SOL    HW128985   6.873   1.887   3.225  1.6504  1.6285 -3.5382
 9362SOL    HW228986   6.813   2.030   3.277  0.8461  0.4178 -1.0147
 9363SOL     OW28987   2.320   6.339   2.294  0.7385  0.4881 -0.9349
 9363SOL    HW128988   2.279   6.281   2.224  1.9105  1.0276 -2.0958
 9363SOL    HW228989   2.269   6.329   2.379 -1.2256  0.4502 -2.0695
 9364SOL     OW28990   4.912   4.749   0.389  0.0561 -0.0605 -0.9507
 9364SOL    HW128991   4.991   4.750   0.450  0.6585 -0.3463 -1.7138
 9364SOL    HW228992   4.887   4.654   0.368  1.4787 -0.0262 -3.1773
 9365SOL     OW28993   3.576   1.289   4.704  0.5174  0.2351  0.4190
 9365SOL    HW128994   3.572   1.341   4.618 -0.1370 -1.3089 -0.5332
 9365SOL    HW228995   3.565   1.351   4.781 -1.0479  1.4253 -0.6947
 9366SOL     OW28996   1.629   0.895   2.946  0.4924  0.4164 -0.4412
 9366SOL    HW128997   1.627   0.806   2.992 -2.3365  0.2477 -0.7398
 9366SOL    HW228998   1.635   0.881   2.847  0.4582  0.5732 -0.4653
 9367SOL     OW28999   0.082   4.334   4.234 -0.2867 -0.2256  0.6742
 9367SOL    HW129000   0.048   4.398   4.165  1.6243  0.7185  0.5587
 9367SOL    HW229001   0.022   4.254   4.237 -0.4662 -0.2929 -2.0643
 9368SOL     OW29002   5.374   4.226   0.380  0.2606 -0.2464 -0.2034
 9368SOL    HW129003   5.336   4.184   0.463  0.4743 -0.1796 -0.0714
 9368SOL    HW229004   5.463   4.267   0.401  1.3365 -2.0573 -0.9141
 9369SOL     OW29005   0.431   3.206   4.981  0.2434 -0.0815  0.3709
 9369SOL    HW129006   0.453   3.285   4.923  0.8481 -1.0205 -0.7340
 9369SOL    HW229007   0.510   3.186   5.040  0.2108 -0.0626  0.4213
 9370SOL     OW29008   5.715   4.100   2.816 -0.7307 -0.1389 -0.3878
 9370SOL    HW129009   5.618   4.091   2.836 -1.1278  0.7967 -1.8269
 9370SOL    HW229010   5.731   4.089   2.718  0.4366  1.0622 -0.3600
 9371SOL     OW29011   1.415   6.893   0.151  0.1228 -0.4658  0.0414
 9371SOL    HW129012   1.442   6.986   0.126  0.7977 -0.9263 -1.0322
 9371SOL    HW229013   1.389   6.843   0.068 -0.5275 -1.1466  0.6441
 9372SOL     OW29014   5.373   3.870   5.869  0.0154  0.3388 -0.2111
 9372SOL    HW129015   5.463   3.826   5.874  0.0296  0.2460 -1.1489
 9372SOL    HW229016   5.325   3.858   5.956  1.6447  2.0154  0.9774
 9373SOL     OW29017   5.552   2.851   4.318 -0.3288  0.4182 -0.1244
 9373SOL    HW129018   5.456   2.845   4.345 -0.3157 -3.0046 -0.3894
 9373SOL    HW229019   5.560   2.838   4.219  0.4352 -0.0570 -0.0118
 9374SOL     OW29020   4.667   4.033   6.511  0.0941  0.1235  0.4436
 9374SOL    HW129021   4.670   4.042   6.411 -3.1339  0.6837  0.3008
 9374SOL    HW229022   4.641   3.940   6.535  0.9815 -0.0427  0.8160
 9375SOL     OW29023   5.472   4.399   4.446 -0.2147 -0.1716  1.0096
 9375SOL    HW129024   5.508   4.322   4.497  0.1639 -0.5998  0.1157
 9375SOL    HW229025   5.385   4.428   4.486 -0.0264 -0.6216  1.7590
 9376SOL     OW29026   3.548   4.813   1.608 -0.0460  0.2624 -0.1195
 9376SOL    HW129027   3.579   4.748   1.677  1.8373 -0.0546 -1.1796
 9376SOL    HW229028   3.621   4.879   1.590 -1.8997  2.7628  0.9479
 9377SOL     OW29029   6.650   4.929   3.776  0.2613 -0.7126 -0.0434
 9377SOL    HW129030   6.579   4.890   3.718 -1.3281 -0.9909  1.9469
 9377SOL    HW229031   6.686   4.858   3.837  0.1909  0.0555  0.9135
 9378SOL     OW29032   4.862   5.635   1.421  0.3770 -0.0970  0.7856
 9378SOL    HW129033   4.767   5.618   1.393 -0.0767  1.6743  1.1678
 9378SOL    HW229034   4.917   5.660   1.341  0.2650 -0.0243  0.7321
 9379SOL     OW29035   5.582   4.743   5.989 -0.0466  0.5798 -0.2152
 9379SOL    HW129036   5.545   4.814   6.050 -0.4550 -0.4513  0.7599
 9379SOL    HW229037   5.531   4.658   6.002  0.4980  0.0693 -1.3096
 9380SOL     OW29038   1.262   4.751   4.765 -0.1249 -0.2287 -0.0869
 9380SOL    HW129039   1.332   4.780   4.700  0.2166  1.6275  1.0393
 9380SOL    HW229040   1.306   4.718   4.849 -0.5466  0.9994  0.6522
 9381SOL     OW29041   1.194   2.123   6.664 -0.1010  0.3529 -0.2130
 9381SOL    HW129042   1.165   2.028   6.648  0.7821 -0.0597  0.5437
 9381SOL    HW229043   1.274   2.124   6.724  0.5399  1.5391 -1.0479
 9382SOL     OW29044   6.175   1.416   3.812 -0.4565 -0.5337 -0.1942
 9382SOL    HW129045   6.188   1.503   3.764  1.4125 -2.0435 -2.7102
 9382SOL    HW229046   6.196   1.427   3.909  0.2604  1.6807 -0.5523
 9383SOL     OW29047   6.929   4.812   6.053  0.1917  0.0062 -0.5685
 9383SOL    HW129048   6.990   4.887   6.081 -1.5616  1.3334 -0.0948
 9383SOL    HW229049   6.935   4.798   5.955 -0.1715  1.4926 -0.8273
 9384SOL     OW29050   3.047   6.440   1.027  0.3345 -0.4224 -0.3797
 9384SOL    HW129051   3.136   6.404   0.998  0.3590  0.6140 -1.6689
 9384SOL    HW229052   2.983   6.438   0.949  0.1670  1.7136 -0.3655
 9385SOL     OW29053   4.233   0.574   4.026 -0.4966  0.1334 -0.8464
 9385SOL    HW129054   4.244   0.576   4.126 -0.9714 -0.7459 -0.7666
 9385SOL    HW229055   4.145   0.532   4.003 -1.8788  3.2094 -1.5855
 9386SOL     OW29056   4.876   1.414   3.859 -0.2798 -0.3894 -0.0504
 9386SOL    HW129057   4.860   1.316   3.851 -1.7749 -0.2127  0.4643
 9386SOL    HW229058   4.825   1.462   3.788  1.0700 -0.0102 -0.7975
 9387SOL     OW29059   3.544   5.982   1.155 -0.3789  0.5583  0.0342
 9387SOL    HW129060   3.455   5.987   1.200 -0.9564 -0.7215 -0.9051
 9387SOL    HW229061   3.615   5.960   1.222 -1.0173 -0.0134  0.5196
 9388SOL     OW29062   4.953   6.869   2.253 -0.0082 -0.2897 -0.2539
 9388SOL    HW129063   4.914   6.860   2.161 -2.6213 -0.1862  0.7466
 9388SOL    HW229064   4.956   6.965   2.279 -2.8552 -0.4268  1.0491
 9389SOL     OW29065   2.667   1.900   1.523 -0.2530 -0.0782 -0.3584
 9389SOL    HW129066   2.601   1.939   1.586  2.6126  1.7404  1.7442
 9389SOL    HW229067   2.645   1.803   1.508 -2.0266 -0.1444  2.0523
 9390SOL     OW29068   3.483   1.184   0.960  0.0655  0.3627  0.0740
 9390SOL    HW129069   3.572   1.142   0.975  0.2872  0.3880 -1.0802
 9390SOL    HW229070   3.492   1.284   0.964 -0.0133  0.3595  0.4279
 9391SOL     OW29071   4.051   0.739   4.355  0.3026 -0.2770 -0.3237
 9391SOL    HW129072   4.133   0.682   4.352 -0.2434 -1.1785  1.0665
 9391SOL    HW229073   4.003   0.724   4.441 -1.2018  0.4145 -1.0078
 9392SOL     OW29074   7.005   6.727   4.211  0.3464 -0.2725 -0.6394
 9392SOL    HW129075   6.941   6.698   4.140 -0.0587  0.8348 -0.7457
 9392SOL    HW229076   6.956   6.743   4.297  0.4660  0.5303 -0.7082
 9393SOL     OW29077   4.831   0.493   4.639  0.0199 -0.2943 -0.8047
 9393SOL    HW129078   4.835   0.467   4.542  3.0615 -1.5033 -0.4829
 9393SOL    HW229079   4.917   0.537   4.665 -1.5664  2.0230  0.9136
 9394SOL     OW29080   1.608   1.137   3.316  0.2304 -0.1583 -0.1841
 9394SOL    HW129081   1.537   1.136   3.387  0.5873  2.5085  0.3130
 9394SOL    HW229082   1.680   1.201   3.342  0.6751  0.4551 -2.6505
 9395SOL     OW29083   1.853   2.271   6.177  0.1474 -0.2952 -0.0238
 9395SOL    HW129084   1.882   2.309   6.265 -0.7563 -0.5444  0.3956
 9395SOL    HW229085   1.874   2.174   6.173  1.4042 -0.0231 -0.6361
 9396SOL     OW29086   1.281   6.815   5.873 -0.2365 -0.4450  0.3102
 9396SOL    HW129087   1.310   6.816   5.969 -0.5406 -0.7312  0.4064
 9396SOL    HW229088   1.359   6.835   5.814 -0.1433  0.2145  0.6430
 9397SOL     OW29089   1.403   2.670   6.309 -0.2872  0.3520 -0.1103
 9397SOL    HW129090   1.445   2.650   6.220 -1.5359 -0.2834 -0.5856
 9397SOL    HW229091   1.470   2.715   6.368  0.7638  0.2050 -1.1451
 9398SOL     OW29092   3.578   0.934   0.519 -0.2985 -0.7054  0.2122
 9398SOL    HW129093   3.634   1.014   0.495  0.9651 -1.2311  1.2628
 9398SOL    HW229094   3.498   0.964   0.571 -0.3463 -0.0347 -0.2364
 9399SOL     OW29095   1.378   0.610   5.760 -0.9136  0.0128 -0.0811
 9399SOL    HW129096   1.475   0.604   5.735 -0.8039 -0.0221  0.3516
 9399SOL    HW229097   1.346   0.522   5.794 -1.8708 -0.8549 -2.9195
 9400SOL     OW29098   2.904   1.397   4.792 -0.5168  0.5162 -0.4157
 9400SOL    HW129099   2.804   1.396   4.779 -0.6148 -0.6644  0.2672
 9400SOL    HW229100   2.947   1.346   4.718 -0.5413 -0.2092  0.0605
 9401SOL     OW29101   3.531   6.397   5.254 -0.8122  0.0245 -0.1655
 9401SOL    HW129102   3.488   6.378   5.342 -1.4656 -0.6081 -0.6126
 9401SOL    HW229103   3.547   6.496   5.246 -1.4701  0.1794  0.3360
 9402SOL     OW29104   1.283   4.007   6.191 -0.3589 -0.4638  0.3896
 9402SOL    HW129105   1.345   4.075   6.231 -0.0359 -0.1083 -0.6582
 9402SOL    HW229106   1.331   3.958   6.118 -1.1707 -0.5038 -0.1248
 9403SOL     OW29107   0.676   0.042   3.660 -0.0730  0.5139 -0.4777
 9403SOL    HW129108   0.646   0.003   3.573  1.5582 -2.1714  0.0541
 9403SOL    HW229109   0.602   0.039   3.726 -0.7977  0.9552 -1.2527
 9404SOL     OW29110   2.333   4.415   4.515 -0.0585  0.0008  0.3600
 9404SOL    HW129111   2.249   4.469   4.514 -0.7293 -1.0193  0.4130
 9404SOL    HW229112   2.311   4.319   4.530  1.0587 -0.4089 -0.4961
 9405SOL     OW29113   1.635   1.278   1.415 -0.0057  0.3797  0.2885
 9405SOL    HW129114   1.546   1.307   1.451 -0.1966 -0.1884  0.2801
 9405SOL    HW229115   1.630   1.182   1.387  0.8603  0.0697  1.1415
 9406SOL     OW29116   5.450   2.738   3.270 -0.2519 -0.0518 -0.0219
 9406SOL    HW129117   5.461   2.695   3.360 -1.0976 -0.5140 -0.1360
 9406SOL    HW229118   5.418   2.832   3.282 -2.3201 -0.7378  0.1236
 9407SOL     OW29119   2.899   6.327   4.535 -0.0657  0.2108  0.6575
 9407SOL    HW129120   2.946   6.252   4.487  1.1077  2.8887 -2.7241
 9407SOL    HW229121   2.904   6.310   4.634  1.0318 -3.5908  0.1284
 9408SOL     OW29122   3.153   1.069   0.950  0.8832  0.2299  0.2250
 9408SOL    HW129123   3.214   1.119   0.888  1.6270 -0.4704  0.3731
 9408SOL    HW229124   3.182   1.085   1.044  0.2241  0.6763  0.3591
 9409SOL     OW29125   0.232   2.587   3.689  0.0691  0.4118  0.2340
 9409SOL    HW129126   0.182   2.560   3.606 -0.1242  0.1365  0.4328
 9409SOL    HW229127   0.283   2.671   3.672 -1.0927  1.1542  0.2470
 9410SOL     OW29128   2.412   0.507   1.988 -0.4314 -0.1856 -0.3425
 9410SOL    HW129129   2.501   0.535   2.024 -0.6874 -0.7189  0.7430
 9410SOL    HW229130   2.369   0.585   1.942  0.5463  0.0993 -0.8068
 9411SOL     OW29131   5.333   5.414   2.734  0.0850 -0.3787 -0.0902
 9411SOL    HW129132   5.283   5.353   2.795  0.4501  1.2985  2.0327
 9411SOL    HW229133   5.397   5.361   2.679  0.2192 -1.9418  1.4741
 9412SOL     OW29134   6.953   1.572   2.583  0.1966  0.0233 -0.4152
 9412SOL    HW129135   6.947   1.579   2.682  1.0867  1.3464 -0.4386
 9412SOL    HW229136   7.028   1.510   2.559 -0.0678 -0.3578 -0.2755
 9413SOL     OW29137   4.712   5.811   4.958  0.0133 -0.1309  0.4298
 9413SOL    HW129138   4.697   5.790   4.862  0.3466 -1.8959  0.7367
 9413SOL    HW229139   4.627   5.797   5.009 -0.1632  0.7984  0.4143
 9414SOL     OW29140   2.094   0.572   1.563  0.3889 -0.4663 -0.1297
 9414SOL    HW129141   2.018   0.632   1.538  0.1267 -0.5791  0.3847
 9414SOL    HW229142   2.060   0.496   1.618  0.7009 -1.1657 -0.8927
 9415SOL     OW29143   1.100   6.954   2.082 -0.4315  0.0291  0.5099
 9415SOL    HW129144   1.041   6.899   2.141 -0.9325  0.3561  0.3154
 9415SOL    HW229145   1.048   6.986   2.003  0.7235 -2.1962 -1.2968
 9416SOL     OW29146   0.562   4.001   2.773 -0.1835 -0.1108 -0.1817
 9416SOL    HW129147   0.467   4.025   2.754 -0.2822 -0.0843  0.3270
 9416SOL    HW229148   0.623   4.052   2.713 -0.3853  1.3674  0.8207
 9417SOL     OW29149   2.334   0.428   4.355 -0.1375 -0.4459  0.3131
 9417SOL    HW129150   2.249   0.478   4.340  0.4007  0.0603 -1.1866
 9417SOL    HW229151   2.318   0.355   4.422 -2.2543 -1.6114 -1.3292
 9418SOL     OW29152   4.359   2.924   0.348  0.2798 -0.2846  0.0060
 9418SOL    HW129153   4.376   2.827   0.332  0.8514 -0.3564  0.9615
 9418SOL    HW229154   4.261   2.940   0.356  0.0424 -0.4550 -2.0424
 9419SOL     OW29155   1.910   0.194   4.323  0.1175  0.0034  0.2565
 9419SOL    HW129156   1.986   0.166   4.382  1.5476  0.2274 -1.4307
 9419SOL    HW229157   1.824   0.183   4.374  1.1880 -0.8463  1.9977
 9420SOL     OW29158   6.918   0.701   3.544 -0.6943  0.9762  0.2257
 9420SOL    HW129159   6.925   0.610   3.502 -0.5975  0.8864  0.4363
 9420SOL    HW229160   6.821   0.725   3.555 -0.7226  0.6734  0.6554
 9421SOL     OW29161   3.600   4.790   5.679  0.5763  0.3589 -0.3236
 9421SOL    HW129162   3.590   4.728   5.602 -1.3243  1.0569 -0.6927
 9421SOL    HW229163   3.590   4.739   5.765 -1.5358  0.1947 -0.6313
 9422SOL     OW29164   2.905   6.911   2.361  0.4835  0.4278  0.0444
 9422SOL    HW129165   2.945   6.825   2.329  0.0706  0.1491  0.2685
 9422SOL    HW229166   2.812   6.895   2.394  0.9322  0.6923  1.4743
 9423SOL     OW29167   4.959   0.643   5.330  0.7622  0.2511  0.5248
 9423SOL    HW129168   4.984   0.547   5.325  2.7384  0.7618 -0.9606
 9423SOL    HW229169   5.007   0.694   5.258 -1.3534  2.1287  0.3034
 9424SOL     OW29170   2.064   5.658   3.888  0.5229 -0.0665 -0.1283
 9424SOL    HW129171   2.017   5.710   3.960  2.1675 -0.3742  1.2227
 9424SOL    HW229172   2.030   5.564   3.888 -0.7289  0.3606 -0.9629
 9425SOL     OW29173   6.629   6.677   3.392 -0.4911 -0.2376 -0.2902
 9425SOL    HW129174   6.699   6.743   3.366 -0.4982  0.1607  0.6464
 9425SOL    HW229175   6.660   6.627   3.474 -0.8363 -0.8208 -0.5089
 9426SOL     OW29176   4.354   4.529   5.618  0.1820 -0.1924  0.0335
 9426SOL    HW129177   4.326   4.456   5.555  0.9818 -2.0768  1.7582
 9426SOL    HW229178   4.279   4.550   5.680 -1.3429  3.0640 -2.5585
 9427SOL     OW29179   4.017   5.585   4.605  0.6050 -0.9595  0.4974
 9427SOL    HW129180   4.049   5.664   4.658 -1.4068 -0.4924  1.1109
 9427SOL    HW229181   3.936   5.546   4.650 -0.9398 -0.8044 -1.9397
 9428SOL     OW29182   3.789   6.946   3.401  0.0141 -0.0400 -0.1756
 9428SOL    HW129183   3.884   6.915   3.404  0.3657  0.8435 -1.3781
 9428SOL    HW229184   3.732   6.875   3.358  0.0972 -0.6217  0.6596
 9429SOL     OW29185   0.794   1.832   2.998 -0.1121 -0.4942  0.2584
 9429SOL    HW129186   0.798   1.845   3.097 -0.1952  2.3591 -0.0232
 9429SOL    HW229187   0.875   1.872   2.956 -1.1392  0.3600 -0.9741
 9430SOL     OW29188   4.884   1.808   1.074 -0.1155  0.6497 -0.5100
 9430SOL    HW129189   4.785   1.803   1.087 -0.2367 -2.1646 -1.8200
 9430SOL    HW229190   4.930   1.783   1.159 -0.5552  0.9006 -0.1977
 9431SOL     OW29191   1.177   4.372   6.910 -0.1813  0.3601 -0.2418
 9431SOL    HW129192   1.216   4.290   6.868  0.3375  1.0093 -1.0642
 9431SOL    HW229193   1.077   4.364   6.914 -0.4235  0.9035 -3.0733
 9432SOL     OW29194   5.268   6.453   2.369 -0.4643  0.1635  0.0234
 9432SOL    HW129195   5.202   6.379   2.351 -0.8550  0.1927  1.2419
 9432SOL    HW229196   5.227   6.519   2.432  0.7587  0.1410  0.8640
 9433SOL     OW29197   1.416   5.008   3.840 -0.3635  0.1828  0.1517
 9433SOL    HW129198   1.323   5.019   3.806  0.6884  0.1418 -3.0239
 9433SOL    HW229199   1.460   4.932   3.793  1.1628 -0.1450  1.9838
 9434SOL     OW29200   6.253   4.666   3.542  0.0622  0.1613  0.0919
 9434SOL    HW129201   6.321   4.593   3.541 -0.7056 -0.6069  1.4083
 9434SOL    HW229202   6.161   4.626   3.543 -0.4064  1.1694 -0.7401
 9435SOL     OW29203   1.172   2.094   4.376  0.2213 -0.3917 -0.6434
 9435SOL    HW129204   1.113   2.169   4.407  0.9752  0.5657 -1.4420
 9435SOL    HW229205   1.132   2.053   4.294  0.0628 -0.5200 -0.5010
 9436SOL     OW29206   3.466   4.104   5.160  0.8776 -0.6971 -0.4749
 9436SOL    HW129207   3.413   4.029   5.119  0.2562 -0.7130  0.3489
 9436SOL    HW229208   3.553   4.113   5.111  0.0668 -0.5647 -1.9516
 9437SOL     OW29209   0.585   4.180   3.918 -0.4423 -0.7979 -0.1041
 9437SOL    HW129210   0.599   4.212   3.824  0.2846  0.0841  0.2912
 9437SOL    HW229211   0.494   4.210   3.949 -0.5368 -0.7768 -0.3922
 9438SOL     OW29212   0.724   0.409   2.059 -0.0871 -0.4701 -0.0841
 9438SOL    HW129213   0.725   0.374   2.152 -2.0187 -2.6170 -0.7644
 9438SOL    HW229214   0.631   0.439   2.036 -0.4414 -2.8335 -2.2067
 9439SOL     OW29215   0.787   2.384   1.027  0.2313  0.0949  0.2870
 9439SOL    HW129216   0.868   2.332   1.000 -0.1081 -0.1533 -0.2836
 9439SOL    HW229217   0.764   2.363   1.122 -1.4183 -2.9208 -0.6178
 9440SOL     OW29218   2.727   5.162   2.375 -0.0017 -0.1909  0.1256
 9440SOL    HW129219   2.720   5.180   2.473 -0.9506 -1.7550  0.3803
 9440SOL    HW229220   2.822   5.147   2.350  0.0962 -1.4624  1.1609
 9441SOL     OW29221   1.577   4.373   6.270  0.2779  0.8359 -0.1313
 9441SOL    HW129222   1.600   4.465   6.238  2.4971  0.8437  1.2777
 9441SOL    HW229223   1.536   4.321   6.195 -0.5261  2.7806 -1.1102
 9442SOL     OW29224   1.157   1.731   0.371  0.2019 -0.4868 -0.6249
 9442SOL    HW129225   1.086   1.684   0.318 -1.0624  1.6871 -0.9817
 9442SOL    HW229226   1.221   1.774   0.308  0.2667 -0.1724 -0.3445
 9443SOL     OW29227   0.786   2.463   1.607 -0.6161  0.0794  0.0625
 9443SOL    HW129228   0.742   2.537   1.555 -4.5998 -1.7230  0.4664
 9443SOL    HW229229   0.879   2.490   1.630 -0.6006  3.3724 -2.9233
 9444SOL     OW29230   2.338   4.268   4.131 -0.1799 -0.2770  0.2268
 9444SOL    HW129231   2.335   4.282   4.032 -0.4851 -1.9597 -0.0300
 9444SOL    HW229232   2.426   4.298   4.166 -0.0125  0.1934 -0.5746
 9445SOL     OW29233   6.014   0.956   3.061 -0.0828  0.7009  0.6960
 9445SOL    HW129234   6.017   1.049   3.025 -1.9758  0.8616  0.8576
 9445SOL    HW229235   5.943   0.949   3.131 -1.0599 -1.2011 -0.3796
 9446SOL     OW29236   5.665   5.733   0.347 -0.1795  0.0149 -0.1393
 9446SOL    HW129237   5.627   5.737   0.254  1.2213  0.0375 -0.7430
 9446SOL    HW229238   5.605   5.678   0.405 -0.3991 -1.1507 -1.4182
 9447SOL     OW29239   5.100   0.188   0.817 -0.0666  0.2884 -0.3689
 9447SOL    HW129240   5.177   0.139   0.858  0.2297 -0.2234 -1.5023
 9447SOL    HW229241   5.131   0.235   0.735 -0.6820  1.2039 -0.0929
 9448SOL     OW29242   6.991   1.029   1.290  0.4089 -0.0810  0.2311
 9448SOL    HW129243   7.031   1.044   1.380  2.5546 -1.5570 -0.3919
 9448SOL    HW229244   6.920   0.959   1.297  1.1668 -0.8272  0.6635
 9449SOL     OW29245   6.254   4.051   4.561  0.0535  0.0247 -0.0457
 9449SOL    HW129246   6.245   4.067   4.659 -0.3867 -1.2216  0.1316
 9449SOL    HW229247   6.164   4.062   4.518 -0.4122 -2.3649  0.1738
 9450SOL     OW29248   0.789   6.748   5.262 -0.5468 -0.1030 -0.5107
 9450SOL    HW129249   0.794   6.650   5.247  1.2706  0.0726 -1.4008
 9450SOL    HW229250   0.793   6.768   5.360 -1.3854 -0.9161 -0.3030
 9451SOL     OW29251   3.850   3.446   4.071  0.6900 -0.5577 -0.0012
 9451SOL    HW129252   3.831   3.464   3.974 -0.1648  0.2229  0.2971
 9451SOL    HW229253   3.923   3.378   4.079  1.9407  0.6058 -1.1821
 9452SOL     OW29254   4.610   3.901   1.049 -0.2173 -0.2864  0.5040
 9452SOL    HW129255   4.566   3.859   0.970 -0.2371  1.1994 -0.3154
 9452SOL    HW229256   4.702   3.864   1.060  0.0377 -0.0181 -0.6448
 9453SOL     OW29257   3.787   6.064   2.370  0.0136  0.0604 -0.7462
 9453SOL    HW129258   3.746   5.992   2.425  0.8719  0.2831  0.2145
 9453SOL    HW229259   3.717   6.103   2.309 -1.8062  1.7909  2.2185
 9454SOL     OW29260   1.117   1.407   4.879 -0.2449 -0.2836  0.1947
 9454SOL    HW129261   1.085   1.321   4.920 -0.7461 -0.5477 -0.7271
 9454SOL    HW229262   1.151   1.467   4.951 -1.4173 -0.5992  1.0464
 9455SOL     OW29263   0.705   0.921   1.552  0.9047  0.1956  0.0189
 9455SOL    HW129264   0.726   1.016   1.575 -1.8089  0.6920  0.7944
 9455SOL    HW229265   0.689   0.914   1.453  1.5486  0.4415 -0.1068
 9456SOL     OW29266   2.078   4.445   6.423  0.4218  0.7230  0.0933
 9456SOL    HW129267   1.996   4.397   6.454 -0.1292  1.0527 -0.8103
 9456SOL    HW229268   2.159   4.397   6.456 -0.1328 -0.0109  0.4142
 9457SOL     OW29269   6.882   4.813   5.728  0.7225 -0.2322  0.2347
 9457SOL    HW129270   6.884   4.718   5.696  0.0615  0.1383 -1.0090
 9457SOL    HW229271   6.974   4.852   5.722  1.1703 -1.0320  1.5820
 9458SOL     OW29272   1.442   3.249   4.046 -0.4273  0.2562  0.1053
 9458SOL    HW129273   1.537   3.241   4.016 -0.2428  0.0018  0.7268
 9458SOL    HW229274   1.440   3.291   4.137 -0.8499 -0.3828  0.3994
 9459SOL     OW29275   2.869   4.843   0.228  0.6964  0.3978 -0.0051
 9459SOL    HW129276   2.941   4.807   0.286  0.6914  1.0151  0.4001
 9459SOL    HW229277   2.899   4.930   0.188 -0.2075  1.2177  1.0298
 9460SOL     OW29278   1.249   2.475   6.668 -0.4628  0.6568 -0.0642
 9460SOL    HW129279   1.154   2.502   6.680 -0.1349  1.7313  0.1711
 9460SOL    HW229280   1.273   2.479   6.570 -0.2915  1.6698  0.0144
 9461SOL     OW29281   7.000   0.233   3.835 -0.1086  0.1659  0.3309
 9461SOL    HW129282   6.965   0.192   3.751  1.3772  1.5771 -1.0609
 9461SOL    HW229283   6.938   0.307   3.863 -0.6453 -0.3513  0.5374
 9462SOL     OW29284   0.974   4.450   3.519  0.9142  0.4796 -0.3827
 9462SOL    HW129285   1.065   4.485   3.496 -0.1925  4.2377  0.2129
 9462SOL    HW229286   0.906   4.493   3.459 -0.5943 -1.4633 -0.1535
 9463SOL     OW29287   6.455   1.776   6.403  0.1467 -0.1475  0.3241
 9463SOL    HW129288   6.398   1.731   6.472 -1.8403  0.0625 -1.0849
 9463SOL    HW229289   6.400   1.843   6.353  1.7781  0.3999 -0.8114
 9464SOL     OW29290   3.383   5.320   6.445  0.3645  0.0786 -0.2167
 9464SOL    HW129291   3.334   5.400   6.408  0.0116  0.1005  0.2919
 9464SOL    HW229292   3.320   5.265   6.499  0.5656 -0.6418 -0.7010
 9465SOL     OW29293   4.472   5.947   4.791 -0.3616 -0.6269  0.4621
 9465SOL    HW129294   4.514   5.857   4.780  0.6460 -0.1430  0.2168
 9465SOL    HW229295   4.377   5.945   4.759  0.5146 -0.8824 -2.3629
 9466SOL     OW29296   2.946   0.472   0.207  1.0124  0.4197 -0.1358
 9466SOL    HW129297   2.913   0.561   0.174 -0.1799 -0.5312 -1.6732
 9466SOL    HW229298   2.902   0.399   0.154  3.2164 -1.0600 -0.0601
 9467SOL     OW29299   6.470   3.093   1.947 -0.5053 -0.5016 -0.0164
 9467SOL    HW129300   6.371   3.083   1.955 -0.3110 -1.2002  2.1936
 9467SOL    HW229301   6.492   3.179   1.901 -2.1340 -0.3717 -0.5784
 9468SOL     OW29302   0.105   2.888   6.791  0.6309 -0.6933  0.8096
 9468SOL    HW129303   0.202   2.874   6.768  0.8901 -1.4742  2.2448
 9468SOL    HW229304   0.051   2.886   6.707  1.8482 -0.2407 -0.0280
 9469SOL     OW29305   1.690   5.702   1.300  0.5041  0.2391  0.0775
 9469SOL    HW129306   1.657   5.676   1.209 -0.1054  0.8291  0.1243
 9469SOL    HW229307   1.778   5.658   1.317  0.0780 -0.8092 -0.3284
 9470SOL     OW29308   5.025   4.345   0.429 -0.2079  0.7030 -0.1314
 9470SOL    HW129309   5.109   4.291   0.420 -1.4683 -1.6235  1.0746
 9470SOL    HW229310   4.985   4.360   0.338  0.1622 -0.4842 -0.5106
 9471SOL     OW29311   1.232   2.651   4.716 -0.0529 -0.0254  0.0714
 9471SOL    HW129312   1.295   2.663   4.793  0.0317  0.2180 -0.0332
 9471SOL    HW229313   1.258   2.569   4.665  0.4487  0.3067 -0.2171
 9472SOL     OW29314   5.981   2.843   4.606  0.1533  0.2156  0.6037
 9472SOL    HW129315   5.891   2.862   4.565  0.1576  0.2252  0.5985
 9472SOL    HW229316   6.017   2.758   4.569  0.1224  0.1841  0.6456
 9473SOL     OW29317   2.776   3.221   5.738 -0.0250  0.1445 -0.4198
 9473SOL    HW129318   2.700   3.180   5.789 -1.1383  0.7250 -1.5251
 9473SOL    HW229319   2.741   3.253   5.649  1.2303  1.6850 -0.3880
 9474SOL     OW29320   1.532   5.909   5.447  0.7948 -0.4699 -0.3662
 9474SOL    HW129321   1.499   5.991   5.399 -0.4340 -1.2771 -0.9348
 9474SOL    HW229322   1.464   5.836   5.438  1.8064 -1.5036  0.2774
 9475SOL     OW29323   3.131   3.519   1.448 -0.2097 -0.1779  0.1463
 9475SOL    HW129324   3.042   3.531   1.405 -1.1905 -2.0211  1.4989
 9475SOL    HW229325   3.124   3.447   1.518  1.3441  2.3128  3.0860
 9476SOL     OW29326   1.400   3.307   6.307 -0.0196  0.3024  0.1030
 9476SOL    HW129327   1.377   3.223   6.258 -1.2298  0.9484 -0.4815
 9476SOL    HW229328   1.450   3.369   6.245 -0.7255  0.7371 -0.0460
 9477SOL     OW29329   1.891   3.547   2.145 -0.3037  0.0259 -0.3292
 9477SOL    HW129330   1.940   3.625   2.107  1.3415 -0.3052  1.0269
 9477SOL    HW229331   1.950   3.466   2.146 -0.1153  0.0463  2.9882
 9478SOL     OW29332   0.248   1.254   5.880 -0.3449 -0.6737 -0.0696
 9478SOL    HW129333   0.272   1.329   5.818  1.6656  0.7976  2.2887
 9478SOL    HW229334   0.232   1.170   5.827 -0.2124  0.8050 -2.6107
 9479SOL     OW29335   5.981   3.836   3.079 -0.2853  0.2666 -0.8203
 9479SOL    HW129336   6.080   3.824   3.088  0.1467  1.2744 -3.3624
 9479SOL    HW229337   5.944   3.874   3.164  2.1657  3.3611 -0.9472
 9480SOL     OW29338   6.291   3.011   5.795 -0.6022 -0.2223 -0.1943
 9480SOL    HW129339   6.359   3.047   5.730  0.2603 -0.9161  0.3152
 9480SOL    HW229340   6.308   2.914   5.811 -2.3726 -0.6963 -0.8692
 9481SOL     OW29341   6.911   3.171   1.620  0.3261  0.5477 -0.1172
 9481SOL    HW129342   6.821   3.168   1.575 -0.6717 -0.0844  1.8045
 9481SOL    HW229343   6.920   3.257   1.671 -0.0078 -0.1812  1.2213
 9482SOL     OW29344   4.850   1.967   2.187  0.2542  0.1583  0.0658
 9482SOL    HW129345   4.887   1.963   2.280  0.3236 -0.6867  0.0034
 9482SOL    HW229346   4.787   2.045   2.181 -0.4459 -0.3029  1.0729
 9483SOL     OW29347   1.958   1.973   0.175  0.0223  0.6123  0.4131
 9483SOL    HW129348   2.017   2.050   0.198  0.6056  0.2815  0.0624
 9483SOL    HW229349   1.971   1.949   0.079 -0.3157  0.2158  0.4632
 9484SOL     OW29350   5.600   6.102   2.980 -0.0933 -0.2991 -0.1797
 9484SOL    HW129351   5.619   6.011   2.944 -0.0813 -0.0211 -0.8818
 9484SOL    HW229352   5.588   6.167   2.905 -0.0855  0.2868  0.3094
 9485SOL     OW29353   7.019   5.296   4.992  0.0837 -0.1528 -0.5577
 9485SOL    HW129354   7.009   5.235   5.071 -2.7915 -0.4883 -1.0739
 9485SOL    HW229355   7.017   5.391   5.022  2.7445 -0.2202  0.0658
 9486SOL     OW29356   3.551   6.100   2.580 -0.0516  0.8353  0.1946
 9486SOL    HW129357   3.547   6.001   2.592 -0.4367  1.0370  2.2220
 9486SOL    HW229358   3.539   6.144   2.669  0.3749  2.7064 -0.6289
 9487SOL     OW29359   2.913   3.383   4.245 -0.4380 -0.0133 -0.0724
 9487SOL    HW129360   2.997   3.343   4.209 -0.7767 -0.9660  0.1724
 9487SOL    HW229361   2.841   3.377   4.176 -0.4288  0.4147 -0.1250
 9488SOL     OW29362   2.055   0.967   3.392  0.0490 -0.4426 -0.4477
 9488SOL    HW129363   1.966   0.932   3.364 -1.1849  1.4614  0.9201
 9488SOL    HW229364   2.063   1.064   3.370  1.0807 -0.1538  1.0323
 9489SOL     OW29365   5.368   5.098   0.522 -0.1058 -0.0380 -0.1890
 9489SOL    HW129366   5.377   5.196   0.510  1.6949 -0.0657  0.7158
 9489SOL    HW229367   5.376   5.053   0.433 -2.0874  0.6570 -0.7730
 9490SOL     OW29368   4.177   2.125   0.228 -0.0571 -0.2977  0.4598
 9490SOL    HW129369   4.254   2.077   0.186 -0.2073 -1.6156  1.6150
 9490SOL    HW229370   4.172   2.218   0.192  0.8135 -0.8368 -1.1568
 9491SOL     OW29371   0.454   5.393   4.662  0.5422  0.2934  0.1779
 9491SOL    HW129372   0.475   5.471   4.720  0.5551 -0.6499  1.4726
 9491SOL    HW229373   0.528   5.379   4.597  0.3497  1.5898 -0.3571
 9492SOL     OW29374   3.558   4.555   0.426 -0.2345 -0.4056 -0.2922
 9492SOL    HW129375   3.602   4.569   0.514 -0.2046 -0.6702 -0.2670
 9492SOL    HW229376   3.614   4.596   0.354 -0.4030  0.0675 -0.1573
 9493SOL     OW29377   4.853   5.354   3.461  0.5664 -0.0986  0.1948
 9493SOL    HW129378   4.778   5.303   3.503  0.7256 -2.2713 -1.9175
 9493SOL    HW229379   4.816   5.422   3.397  0.3805  0.0654  0.4785
 9494SOL     OW29380   4.736   3.332   6.778  0.0296  0.1743 -0.3683
 9494SOL    HW129381   4.723   3.369   6.686 -0.7214  1.1885  0.1265
 9494SOL    HW229382   4.650   3.291   6.810  0.7544 -1.7339 -0.7703
 9495SOL     OW29383   5.689   2.817   3.131  0.2025 -0.3986  0.1599
 9495SOL    HW129384   5.628   2.851   3.060  0.8903 -1.0139 -0.7444
 9495SOL    HW229385   5.642   2.819   3.219 -0.1726  1.7412 -0.0538
 9496SOL     OW29386   0.534   3.692   6.589 -0.4113  0.7678  0.3886
 9496SOL    HW129387   0.581   3.727   6.508  2.7577 -0.2580  1.6500
 9496SOL    HW229388   0.531   3.764   6.659 -0.0217  0.5974  0.5812
 9497SOL     OW29389   1.738   6.643   6.096 -1.0556  0.1104  0.2174
 9497SOL    HW129390   1.699   6.682   6.180  0.8687  1.8085  0.3995
 9497SOL    HW229391   1.821   6.592   6.118 -0.6938  0.3261 -0.6056
 9498SOL     OW29392   1.031   5.926   6.544 -0.2437  0.3736  0.2884
 9498SOL    HW129393   0.997   6.015   6.515  0.2646  0.9594  1.4034
 9498SOL    HW229394   1.112   5.902   6.492 -1.9038 -0.7280 -1.9275
 9499SOL     OW29395   4.676   3.319   5.731  0.6215  0.5650 -0.4586
 9499SOL    HW129396   4.694   3.342   5.827  1.6718 -0.2365 -0.4486
 9499SOL    HW229397   4.578   3.329   5.712  0.2888  0.0356  0.8823
 9500SOL     OW29398   5.052   6.361   1.494 -0.2423 -0.4568  0.1238
 9500SOL    HW129399   5.102   6.300   1.556  0.5675  1.1040  1.0612
 9500SOL    HW229400   4.958   6.372   1.527 -0.0824 -0.3531  0.5443
 9501SOL     OW29401   4.725   1.078   5.519  0.2657 -0.6619 -0.4155
 9501SOL    HW129402   4.752   1.173   5.531  0.6792 -0.4816 -2.4639
 9501SOL    HW229403   4.627   1.073   5.500 -0.0929 -0.8259  1.2920
 9502SOL     OW29404   5.813   2.530   6.552 -0.5862  0.4352  0.0948
 9502SOL    HW129405   5.851   2.595   6.616 -0.0667  1.7851 -1.5046
 9502SOL    HW229406   5.719   2.556   6.528 -0.1614  1.0173 -1.0317
 9503SOL     OW29407   1.384   0.220   6.579 -0.2583  0.3507  0.1697
 9503SOL    HW129408   1.414   0.137   6.531  1.1841  0.3752  0.9689
 9503SOL    HW229409   1.324   0.273   6.519 -2.0658 -1.7294 -0.0181
 9504SOL     OW29410   0.605   3.856   6.067  0.0522  0.2576  0.5838
 9504SOL    HW129411   0.702   3.836   6.058 -0.0005 -0.0844  0.7317
 9504SOL    HW229412   0.590   3.918   6.144  0.0787 -0.3612  1.1036
 9505SOL     OW29413   4.871   3.267   4.410  0.4155  0.2228 -0.2370
 9505SOL    HW129414   4.941   3.332   4.436  0.4912  0.3226 -0.6811
 9505SOL    HW229415   4.880   3.183   4.464 -0.6484  1.1556  1.4645
 9506SOL     OW29416   4.664   1.173   1.475  0.1411  0.3941  0.0631
 9506SOL    HW129417   4.626   1.130   1.556  2.6067  2.3960  2.4857
 9506SOL    HW229418   4.751   1.129   1.451  0.5547  1.2675 -0.0840
 9507SOL     OW29419   2.848   3.808   0.064 -0.0743  0.0024 -0.1084
 9507SOL    HW129420   2.923   3.850   0.115 -0.1144  2.6069 -1.9568
 9507SOL    HW229421   2.882   3.731   0.010 -0.0091 -2.7692  3.5080
 9508SOL     OW29422   4.492   0.311   6.496 -0.3852 -0.5495 -0.4769
 9508SOL    HW129423   4.544   0.258   6.428 -0.6652 -0.5198 -0.7154
 9508SOL    HW229424   4.484   0.257   6.581 -1.9417 -1.5404 -1.2053
 9509SOL     OW29425   3.880   0.445   4.920 -0.2849 -0.0662  0.4021
 9509SOL    HW129426   3.812   0.518   4.914  0.6822  0.7763 -0.6196
 9509SOL    HW229427   3.862   0.389   5.002 -2.3027  0.0127  0.0627
 9510SOL     OW29428   0.286   4.473   1.228  0.1597 -0.1407 -0.3987
 9510SOL    HW129429   0.257   4.381   1.202 -2.4208 -0.5975  3.3346
 9510SOL    HW229430   0.210   4.537   1.216  1.3415  1.1707 -1.2160
 9511SOL     OW29431   1.755   2.297   1.990  0.2145 -0.7142  0.5452
 9511SOL    HW129432   1.692   2.348   2.048  1.1332 -1.0647  1.8964
 9511SOL    HW229433   1.818   2.361   1.944 -0.3500 -0.4544  0.1247
 9512SOL     OW29434   1.346   3.245   6.720 -0.4479  0.0155 -0.7442
 9512SOL    HW129435   1.285   3.325   6.721 -0.6211 -0.1154  0.2736
 9512SOL    HW229436   1.293   3.163   6.698 -0.5200 -0.0020 -0.5103
 9513SOL     OW29437   1.487   4.806   3.688  0.5208 -0.2037  0.2221
 9513SOL    HW129438   1.564   4.783   3.748 -0.0727 -0.9141  0.7302
 9513SOL    HW229439   1.422   4.730   3.687 -0.9753  1.0197  1.0650
 9514SOL     OW29440   3.017   2.880   6.500 -0.1355  0.1423 -0.4217
 9514SOL    HW129441   3.039   2.783   6.507  0.3964  0.2806 -0.1197
 9514SOL    HW229442   3.046   2.915   6.411  0.1901  0.1520 -0.3129
 9515SOL     OW29443   1.591   5.431   5.601  0.1659  0.1370 -0.3429
 9515SOL    HW129444   1.555   5.474   5.685  0.2900  1.5258 -0.9681
 9515SOL    HW229445   1.566   5.334   5.600  0.0011  0.1337  1.2069
 9516SOL     OW29446   5.951   4.547   3.847  0.1519  0.3239 -0.7259
 9516SOL    HW129447   5.976   4.596   3.930 -1.3254 -0.1554  0.0457
 9516SOL    HW229448   5.896   4.607   3.788 -2.1622 -0.4752  0.4868
 9517SOL     OW29449   6.700   3.818   3.075  0.2853 -0.3126  0.1859
 9517SOL    HW129450   6.691   3.825   2.976 -2.2354 -0.7354  0.3113
 9517SOL    HW229451   6.662   3.731   3.106 -1.3483  0.8523  1.7041
 9518SOL     OW29452   6.737   3.032   5.094  0.1022  0.3964  0.7800
 9518SOL    HW129453   6.774   3.071   5.178  0.0233  0.3638  0.8290
 9518SOL    HW229454   6.802   3.049   5.019  1.0994 -1.2660  1.2272
 9519SOL     OW29455   3.082   3.723   2.664 -0.2532 -0.1540  0.6051
 9519SOL    HW129456   3.088   3.664   2.745 -1.5436 -2.0523 -0.5965
 9519SOL    HW229457   3.058   3.667   2.584 -0.1990  1.8389 -0.8721
 9520SOL     OW29458   6.481   3.623   5.512  0.0546  0.3345  0.1836
 9520SOL    HW129459   6.477   3.550   5.443 -0.5812  0.3618  0.1911
 9520SOL    HW229460   6.577   3.639   5.537  0.2158 -0.3473  0.0238
 9521SOL     OW29461   3.023   0.133   2.453 -1.0915  0.2221 -0.4101
 9521SOL    HW129462   3.083   0.132   2.374 -0.6427 -0.3605 -0.0672
 9521SOL    HW229463   2.953   0.062   2.444 -0.0655 -0.9402  0.4406
 9522SOL     OW29464   3.336   5.560   0.335  0.0830  0.2515 -0.5150
 9522SOL    HW129465   3.263   5.604   0.387  1.1090  1.7419 -0.2611
 9522SOL    HW229466   3.369   5.480   0.384 -1.2666 -0.3869 -0.5847
 9523SOL     OW29467   2.097   5.366   3.946 -0.0625 -0.2136  0.4467
 9523SOL    HW129468   2.114   5.363   4.044 -0.3756  0.7081  0.5411
 9523SOL    HW229469   2.002   5.340   3.927 -0.0784 -0.1276  0.4089
 9524SOL     OW29470   0.909   3.162   0.234 -0.3481  0.3536  0.2890
 9524SOL    HW129471   0.905   3.215   0.319  1.6491  0.6103  0.2657
 9524SOL    HW229472   0.887   3.221   0.157 -0.8318  0.4620  0.5098
 9525SOL     OW29473   3.418   2.615   6.690 -0.1591 -0.2720  0.2176
 9525SOL    HW129474   3.403   2.621   6.591  0.2101 -0.5224  0.1434
 9525SOL    HW229475   3.496   2.555   6.708  0.6637  0.8866  0.5973
 9526SOL     OW29476   5.974   4.897   5.136 -0.2072 -0.3109  0.0455
 9526SOL    HW129477   5.938   4.839   5.209  0.4090 -0.3253  0.3482
 9526SOL    HW229478   6.073   4.884   5.130 -0.0999  0.5286 -0.0472
 9527SOL     OW29479   3.157   0.033   5.002 -0.3648 -0.1927  0.6868
 9527SOL    HW129480   3.160   0.033   4.902 -0.8770  0.1171  0.6708
 9527SOL    HW229481   3.240  -0.010   5.038  1.3978  2.4986  0.1494
 9528SOL     OW29482   6.027   2.624   0.274 -0.1304 -0.4770 -0.4943
 9528SOL    HW129483   6.044   2.721   0.262 -1.7709  0.0654  1.2019
 9528SOL    HW229484   6.082   2.572   0.208  1.4721  1.5163 -0.8176
 9529SOL     OW29485   6.096   7.007   1.642 -0.2092  0.1386  0.1815
 9529SOL    HW129486   6.081   7.098   1.606 -0.1035  0.3384  0.6345
 9529SOL    HW229487   6.187   6.975   1.614  1.1408  1.4832  2.6546
 9530SOL     OW29488   1.743   4.897   2.938 -0.7049  0.1281  0.8705
 9530SOL    HW129489   1.719   4.908   3.034  0.0624  0.6414  1.0157
 9530SOL    HW229490   1.838   4.865   2.931 -1.0110 -0.6830  0.2964
 9531SOL     OW29491   5.544   5.273   2.667 -0.2628  0.1212 -0.1604
 9531SOL    HW129492   5.589   5.257   2.579 -1.2655  1.9946 -1.0852
 9531SOL    HW229493   5.606   5.322   2.728 -0.0788  0.1966 -0.4045
 9532SOL     OW29494   0.992   4.620   4.276  0.1281 -0.0487 -0.2600
 9532SOL    HW129495   1.061   4.662   4.216  0.3362  0.9938  0.6753
 9532SOL    HW229496   0.953   4.540   4.231  3.0933 -1.6801 -0.1542
 9533SOL     OW29497   1.678   3.520   4.083  0.2570 -0.3538  0.5115
 9533SOL    HW129498   1.661   3.539   3.986  0.0182  0.3427  0.6866
 9533SOL    HW229499   1.594   3.531   4.135  0.9571  2.1969  1.2389
 9534SOL     OW29500   6.253   1.597   5.762  0.0827 -0.3274  0.4525
 9534SOL    HW129501   6.196   1.553   5.830 -0.8989  1.5247  0.8977
 9534SOL    HW229502   6.301   1.675   5.803  2.4576 -1.4152 -0.0733
 9535SOL     OW29503   6.701   0.400   3.034 -0.7684  0.4499 -0.7598
 9535SOL    HW129504   6.606   0.377   3.014 -0.8244 -0.8680  0.7766
 9535SOL    HW229505   6.703   0.479   3.095 -1.0975 -1.1867  1.5116
 9536SOL     OW29506   3.049   3.969   4.664 -0.3258  0.2911 -0.9565
 9536SOL    HW129507   3.093   4.052   4.629 -0.8621  0.1941 -1.8784
 9536SOL    HW229508   3.003   3.921   4.590 -1.1185 -0.1605 -0.1968
 9537SOL     OW29509   6.956   1.390   4.356  0.0769  0.2358  0.0896
 9537SOL    HW129510   6.863   1.369   4.325  1.0213 -2.0912 -1.4518
 9537SOL    HW229511   7.010   1.424   4.279  0.4398  2.0262  1.0763
 9538SOL     OW29512   0.377   1.303   2.927 -0.8247 -0.2379 -0.1652
 9538SOL    HW129513   0.304   1.364   2.895 -2.2161 -1.5802  0.3658
 9538SOL    HW229514   0.343   1.245   3.001  1.0052 -0.4207  0.6000
 9539SOL     OW29515   3.327   3.357   3.269 -0.5879 -0.4646  0.4175
 9539SOL    HW129516   3.282   3.443   3.295  0.5543  0.3925 -0.3474
 9539SOL    HW229517   3.414   3.349   3.318 -0.0489 -0.5119 -0.5249
 9540SOL     OW29518   5.951   5.964   4.572  0.4195 -0.4024  0.0855
 9540SOL    HW129519   5.891   5.948   4.493  0.4967 -0.4881  0.0449
 9540SOL    HW229520   5.896   5.966   4.656  0.3064 -0.0919  0.0075
 9541SOL     OW29521   2.310   5.250   4.853 -0.4096 -0.3025  0.2736
 9541SOL    HW129522   2.228   5.224   4.902 -0.6959  1.5839  0.8927
 9541SOL    HW229523   2.369   5.305   4.913  2.1863 -3.0391  0.4322
 9542SOL     OW29524   5.556   3.862   3.010 -0.2973 -0.2541 -0.1010
 9542SOL    HW129525   5.569   3.886   3.107  1.5435  0.4492 -0.4861
 9542SOL    HW229526   5.480   3.914   2.973  0.6121  1.4686  0.3353
 9543SOL     OW29527   3.348   2.080   6.202  0.2818 -0.7400 -0.5597
 9543SOL    HW129528   3.362   1.992   6.157 -0.9477 -0.5636 -1.3614
 9543SOL    HW229529   3.344   2.152   6.133  0.7428 -0.1287  0.0445
 9544SOL     OW29530   0.067   1.267   3.777 -0.3817 -1.0219  0.3115
 9544SOL    HW129531   0.052   1.185   3.722  2.9854 -1.4535 -0.1353
 9544SOL    HW229532   0.015   1.343   3.736  0.7457 -1.6842 -2.6320
 9545SOL     OW29533   5.580   3.729   6.216 -0.2177 -0.0420  0.1647
 9545SOL    HW129534   5.674   3.696   6.223 -0.3428 -0.3357  0.5492
 9545SOL    HW229535   5.523   3.680   6.282 -0.4075  0.9624  0.7702
 9546SOL     OW29536   5.399   3.591   0.822  0.3973  0.5036 -0.3582
 9546SOL    HW129537   5.344   3.611   0.741  0.4051  0.0101 -0.4859
 9546SOL    HW229538   5.392   3.668   0.886 -0.3749  0.4789 -0.4030
 9547SOL     OW29539   3.184   0.580   3.432 -0.6744 -0.4322  0.8955
 9547SOL    HW129540   3.136   0.498   3.399 -0.7224  0.2190 -0.7211
 9547SOL    HW229541   3.234   0.557   3.516  1.8261 -2.9817 -1.1118
 9548SOL     OW29542   0.268   3.062   4.171 -0.1536  0.2870 -0.0584
 9548SOL    HW129543   0.329   3.122   4.222  0.8037  0.0942 -0.9225
 9548SOL    HW229544   0.318   3.023   4.093 -1.4726  0.3534 -0.9765
 9549SOL     OW29545   3.746   2.114   1.438 -0.3009  0.3621 -0.5200
 9549SOL    HW129546   3.808   2.187   1.467 -0.8167  1.1659 -1.3793
 9549SOL    HW229547   3.792   2.026   1.447  0.0143  0.6768  1.4436
 9550SOL     OW29548   6.590   2.943   2.154 -0.0473 -0.3847 -0.3557
 9550SOL    HW129549   6.529   2.988   2.088 -1.7979 -0.5214  1.0882
 9550SOL    HW229550   6.681   2.934   2.114 -0.5770  1.1360 -2.0685
 9551SOL     OW29551   0.322   3.069   5.768 -0.6434 -0.3350  0.4294
 9551SOL    HW129552   0.264   3.093   5.690 -0.7482 -2.0948 -0.0987
 9551SOL    HW229553   0.416   3.098   5.749 -0.9493  0.6131  0.3352
 9552SOL     OW29554   3.745   2.187   5.659 -0.0276  0.0481 -0.0810
 9552SOL    HW129555   3.731   2.142   5.571  1.1652  0.6084 -0.5834
 9552SOL    HW229556   3.824   2.248   5.653 -0.6677  1.0363  1.0248
 9553SOL     OW29557   5.375   1.661   6.119 -0.5343  0.2786  0.3735
 9553SOL    HW129558   5.403   1.642   6.213 -0.4050  0.6090  0.4040
 9553SOL    HW229559   5.435   1.612   6.055 -0.8187 -0.1994  0.4646
 9554SOL     OW29560   2.291   0.689   4.094 -0.4445  0.3544  0.0177
 9554SOL    HW129561   2.261   0.690   4.189  0.0226 -1.5011  0.2270
 9554SOL    HW229562   2.211   0.682   4.034 -0.6659  0.1364  0.3356
 9555SOL     OW29563   6.484   1.804   2.193 -0.2331 -0.4631 -0.0874
 9555SOL    HW129564   6.520   1.770   2.280 -1.0421  1.9154  1.2679
 9555SOL    HW229565   6.416   1.741   2.158  0.0428 -1.4295  1.0402
 9556SOL     OW29566   4.252   4.465   0.327 -0.4250 -0.6946 -0.7749
 9556SOL    HW129567   4.334   4.464   0.386 -1.1964  1.9675  0.4955
 9556SOL    HW229568   4.178   4.416   0.373 -0.8385  0.8290  0.2282
 9557SOL     OW29569   4.395   1.730   0.694  0.4791  0.0882 -0.3605
 9557SOL    HW129570   4.419   1.741   0.598  0.6935  0.4717 -0.2702
 9557SOL    HW229571   4.479   1.719   0.748  0.4202  0.7036 -0.1253
 9558SOL     OW29572   5.937   6.258   5.218 -0.2110 -0.4094 -0.1690
 9558SOL    HW129573   6.019   6.309   5.194 -0.8055  0.3578 -0.6423
 9558SOL    HW229574   5.866   6.275   5.149 -0.7336 -1.1395  0.1733
 9559SOL     OW29575   2.769   2.714   6.198  0.2114 -0.4006  0.0176
 9559SOL    HW129576   2.718   2.701   6.283  0.5137  1.4425  0.5256
 9559SOL    HW229577   2.867   2.699   6.216  0.1629 -1.1847 -0.3103
 9560SOL     OW29578   3.071   0.201   3.134  0.6644  0.0290 -0.1632
 9560SOL    HW129579   3.087   0.238   3.043  1.9911  0.2837  0.1567
 9560SOL    HW229580   3.078   0.101   3.132  1.9306  0.1104 -0.1144
 9561SOL     OW29581   6.922   3.015   6.936 -0.6226  0.0139  0.0149
 9561SOL    HW129582   6.859   2.937   6.943 -0.1131 -0.3495  0.7435
 9561SOL    HW229583   7.011   2.983   6.904 -0.3977  0.2804  0.3627
 9562SOL     OW29584   2.670   5.697   2.261  0.0938 -0.6560 -0.2888
 9562SOL    HW129585   2.581   5.662   2.290  0.1790  0.0628  0.9271
 9562SOL    HW229586   2.742   5.634   2.288 -0.0525 -1.3582 -1.4940
 9563SOL     OW29587   6.261   4.447   0.462  0.3340 -0.0963  0.1039
 9563SOL    HW129588   6.209   4.481   0.383 -0.0536  0.7358  0.6999
 9563SOL    HW229589   6.354   4.483   0.458 -0.0710  1.0677  0.7241
 9564SOL     OW29590   2.421   3.375   5.947 -0.0638  0.1249  0.2389
 9564SOL    HW129591   2.478   3.302   5.983  0.7710 -1.4904 -3.7599
 9564SOL    HW229592   2.477   3.457   5.930 -0.0588  0.2520  0.8676
 9565SOL     OW29593   1.914   0.880   3.888 -0.1334  0.7041 -0.0871
 9565SOL    HW129594   1.972   0.958   3.865  0.4404  0.5184  0.6852
 9565SOL    HW229595   1.972   0.799   3.901 -0.7351  0.1091 -1.0397
 9566SOL     OW29596   3.222   6.420   6.181  0.2875 -0.7515 -0.1708
 9566SOL    HW129597   3.164   6.481   6.128  0.5557 -1.0885 -0.8647
 9566SOL    HW229598   3.282   6.474   6.241 -0.3037 -0.3857  0.0979
 9567SOL     OW29599   1.003   4.507   1.184 -0.1240  0.2230 -0.5062
 9567SOL    HW129600   0.962   4.578   1.241 -0.9182 -0.3953 -0.2767
 9567SOL    HW229601   0.951   4.500   1.098  0.3890  0.4002 -0.8352
 9568SOL     OW29602   3.334   3.867   6.498 -0.0078 -1.0276  0.3991
 9568SOL    HW129603   3.411   3.839   6.556 -1.9709 -3.5599  2.0183
 9568SOL    HW229604   3.318   3.965   6.509  2.5148 -0.5652  0.5104
 9569SOL     OW29605   0.160   1.408   1.820  0.0206 -0.0190  0.2119
 9569SOL    HW129606   0.134   1.475   1.750 -0.5058 -0.0469  0.3761
 9569SOL    HW229607   0.089   1.338   1.826 -0.5139  0.6085  1.5789
 9570SOL     OW29608   0.496   5.253   2.538 -0.0550  0.3242  0.8675
 9570SOL    HW129609   0.481   5.155   2.520 -0.7671  0.7241 -1.0045
 9570SOL    HW229610   0.586   5.265   2.579  1.1562 -0.9513 -1.2160
 9571SOL     OW29611   1.512   2.792   5.380  0.0136  0.1988  0.5870
 9571SOL    HW129612   1.568   2.822   5.303  0.7968  0.2466  1.1693
 9571SOL    HW229613   1.418   2.776   5.348  0.1729  0.8401 -0.2390
 9572SOL     OW29614   3.554   5.798   5.089  0.1483 -0.2039 -0.5705
 9572SOL    HW129615   3.521   5.871   5.029 -2.1646 -0.4495  0.2937
 9572SOL    HW229616   3.605   5.731   5.036 -0.6392  0.3034 -2.0220
 9573SOL     OW29617   4.943   5.724   3.889  0.0248 -0.0294  0.0563
 9573SOL    HW129618   4.909   5.772   3.970 -0.4834 -0.3473  0.0344
 9573SOL    HW229619   4.871   5.666   3.852  0.6523 -0.8809  0.1369
 9574SOL     OW29620   4.914   4.364   0.186 -0.0128  0.0335  0.2045
 9574SOL    HW129621   5.000   4.341   0.140  0.3968 -1.4602  1.6230
 9574SOL    HW229622   4.846   4.392   0.117  0.8501 -1.1741 -1.2044
 9575SOL     OW29623   4.106   0.873   1.072  0.0224  0.1285  0.3497
 9575SOL    HW129624   4.082   0.926   0.991  2.2280 -0.3109 -0.6609
 9575SOL    HW229625   4.084   0.926   1.154  1.1800  2.1960 -0.5979
 9576SOL     OW29626   3.055   1.839   5.703  0.0804 -0.6477  0.1521
 9576SOL    HW129627   3.002   1.831   5.618  0.6350  0.7890 -0.3620
 9576SOL    HW229628   3.015   1.779   5.772 -0.1939 -2.1052 -1.2007
 9577SOL     OW29629   1.024   6.514   3.358 -0.1423 -0.2859  0.1557
 9577SOL    HW129630   1.053   6.426   3.322 -0.5757 -1.2729  2.0591
 9577SOL    HW229631   1.101   6.558   3.405 -0.0106  0.2011 -0.5128
 9578SOL     OW29632   0.677   1.948   2.630 -0.0349  0.3240  0.3768
 9578SOL    HW129633   0.688   1.884   2.554 -0.3943  1.9715 -1.1238
 9578SOL    HW229634   0.653   1.897   2.713  0.4480 -1.5314 -0.5526
 9579SOL     OW29635   4.927   6.245   2.804  0.3322  0.2009 -0.2940
 9579SOL    HW129636   5.007   6.279   2.755 -0.0226 -1.7055 -2.3360
 9579SOL    HW229637   4.846   6.296   2.776  0.3773  0.1732 -0.4738
 9580SOL     OW29638   4.642   4.447   3.074 -0.2279 -0.4080 -0.7724
 9580SOL    HW129639   4.709   4.520   3.091 -0.2616 -0.6199  0.3418
 9580SOL    HW229640   4.666   4.400   2.989  1.7848 -1.2842  0.2002
 9581SOL     OW29641   4.788   0.746   5.778 -0.0008  0.1280  0.4527
 9581SOL    HW129642   4.733   0.679   5.727  0.9053  0.2818 -0.7728
 9581SOL    HW229643   4.876   0.705   5.803  0.5667  0.8402 -0.3236
 9582SOL     OW29644   3.879   0.645   4.587  0.2184 -0.0097  0.5037
 9582SOL    HW129645   3.826   0.566   4.557  1.3765 -2.5623  4.3379
 9582SOL    HW229646   3.824   0.700   4.650  0.1660  0.9911 -0.3901
 9583SOL     OW29647   3.757   5.540   2.665  0.4383  0.2246  0.8108
 9583SOL    HW129648   3.719   5.584   2.746 -2.0688  0.0663 -0.1879
 9583SOL    HW229649   3.706   5.456   2.646  1.0792  0.1646 -0.8373
 9584SOL     OW29650   1.815   5.349   4.410 -0.3737  0.3343 -0.3536
 9584SOL    HW129651   1.891   5.299   4.451 -0.4525  1.9313  1.9219
 9584SOL    HW229652   1.729   5.308   4.439 -0.4099  0.6866  0.0508
 9585SOL     OW29653   3.648   6.178   1.442  0.0882  0.3718  0.4841
 9585SOL    HW129654   3.597   6.119   1.505  0.0366 -1.6141 -1.3368
 9585SOL    HW229655   3.584   6.239   1.394 -0.2603 -0.2536  0.1423
 9586SOL     OW29656   3.611   4.642   1.404  0.7293  0.1917 -0.4071
 9586SOL    HW129657   3.561   4.716   1.449  3.2927  0.7161  1.8613
 9586SOL    HW229658   3.573   4.628   1.312 -2.8161  1.1404  0.7260
 9587SOL     OW29659   5.247   6.806   0.316  0.1525 -0.2908  0.1979
 9587SOL    HW129660   5.217   6.891   0.273  1.3429 -0.3976 -0.8957
 9587SOL    HW229661   5.172   6.741   0.316 -0.4216  0.3540 -0.0249
 9588SOL     OW29662   6.388   5.490   2.425 -0.4549 -0.5849  0.7260
 9588SOL    HW129663   6.307   5.486   2.483 -1.1953 -1.8953 -0.3467
 9588SOL    HW229664   6.438   5.575   2.443 -1.9332  0.1376  1.5720
 9589SOL     OW29665   0.570   1.403   5.125  0.4515  0.2366 -0.3259
 9589SOL    HW129666   0.520   1.325   5.162  1.5504 -1.5326 -2.4125
 9589SOL    HW229667   0.505   1.477   5.104 -0.7057 -0.3921  0.8585
 9590SOL     OW29668   3.206   0.373   1.089 -0.4345  0.1011  0.4120
 9590SOL    HW129669   3.155   0.455   1.062 -0.5609  0.8685  2.7339
 9590SOL    HW229670   3.303   0.396   1.095 -0.5139  0.2225  1.4329
 9591SOL     OW29671   5.054   0.576   0.808 -0.2269 -0.0152 -0.7115
 9591SOL    HW129672   5.026   0.562   0.903 -0.6317  0.8442 -0.6937
 9591SOL    HW229673   5.130   0.514   0.786 -0.0606 -0.1516  0.2015
 9592SOL     OW29674   0.603   4.649   4.921  1.0248 -0.1617  0.4057
 9592SOL    HW129675   0.695   4.688   4.921  1.0564 -0.2349  0.0024
 9592SOL    HW229676   0.604   4.562   4.872  0.9146 -0.5763  1.1292
 9593SOL     OW29677   3.727   2.636   5.792 -0.0172 -0.3921 -0.0476
 9593SOL    HW129678   3.670   2.553   5.792 -1.0106  0.2433  1.3396
 9593SOL    HW229679   3.700   2.694   5.715 -1.3456 -0.0769  0.6146
 9594SOL     OW29680   6.921   6.399   5.017 -0.3380 -0.0537  0.3943
 9594SOL    HW129681   6.921   6.310   5.064 -1.1573 -0.2782 -0.0074
 9594SOL    HW229682   7.000   6.452   5.047 -0.4326 -0.4834  1.4685
 9595SOL     OW29683   6.378   4.510   1.192 -0.6892 -0.2527 -0.0693
 9595SOL    HW129684   6.374   4.446   1.268 -0.5597 -0.2242 -0.0390
 9595SOL    HW229685   6.451   4.483   1.129 -1.0714 -0.5200 -0.4006
 9596SOL     OW29686   0.810   0.242   1.678  0.1500  0.3877 -0.3024
 9596SOL    HW129687   0.744   0.316   1.673 -0.7383 -0.2911  0.8760
 9596SOL    HW229688   0.771   0.165   1.729  1.0499 -0.8921 -1.4549
 9597SOL     OW29689   1.095   3.298   2.566  0.4938  0.8072 -0.3981
 9597SOL    HW129690   1.002   3.284   2.600  0.6411  0.8341  0.0214
 9597SOL    HW229691   1.109   3.395   2.546  0.2331  0.7146 -1.0607
 9598SOL     OW29692   2.412   4.852   2.509 -0.1292 -0.2140  0.3004
 9598SOL    HW129693   2.313   4.867   2.506 -0.3234 -1.5130 -2.7451
 9598SOL    HW229694   2.460   4.939   2.498 -0.8190  0.5987  2.9580
 9599SOL     OW29695   4.010   0.657   5.798 -0.0263  0.1013  0.2054
 9599SOL    HW129696   3.929   0.602   5.778  0.1889 -0.6085  1.1995
 9599SOL    HW229697   4.087   0.625   5.744  0.0540 -0.4855  0.6573
 9600SOL     OW29698   2.668   1.628   1.521  0.4673  0.1102 -0.3505
 9600SOL    HW129699   2.752   1.588   1.484  2.5040  2.3309  1.5096
 9600SOL    HW229700   2.655   1.598   1.615  0.1167  1.0495 -0.0845
 9601SOL     OW29701   2.552   3.523   0.451  0.2582  0.4545  0.0476
 9601SOL    HW129702   2.601   3.547   0.367  0.4949  0.2471  0.1232
 9601SOL    HW229703   2.539   3.605   0.506 -0.1821  0.6493 -0.3350
 9602SOL     OW29704   2.739   4.893   5.457 -0.1583 -0.3832  0.1875
 9602SOL    HW129705   2.652   4.867   5.416  0.3989 -0.0529 -1.2803
 9602SOL    HW229706   2.809   4.825   5.433 -0.0644 -0.8376  1.6451
 9603SOL     OW29707   5.033   6.857   6.035 -0.3519  0.5616  0.3003
 9603SOL    HW129708   5.089   6.844   6.117  0.6201  1.6747 -0.1512
 9603SOL    HW229709   5.085   6.910   5.968 -1.0259 -0.5570 -1.1498
 9604SOL     OW29710   5.100   6.247   0.595  0.2228 -0.1634 -0.0394
 9604SOL    HW129711   5.099   6.151   0.565 -0.5699 -0.2702  0.3011
 9604SOL    HW229712   5.193   6.273   0.619  0.5586 -0.6492 -0.7606
 9605SOL     OW29713   4.624   5.680   3.542 -0.4026 -0.4618 -0.5455
 9605SOL    HW129714   4.584   5.763   3.505  1.1327 -0.1572 -1.6125
 9605SOL    HW229715   4.669   5.628   3.469  0.2540 -1.2866  0.4078
 9606SOL     OW29716   1.875   0.085   5.314 -0.1640  0.0471  0.2823
 9606SOL    HW129717   1.917   0.160   5.262  0.9751 -1.2979 -0.8316
 9606SOL    HW229718   1.781   0.072   5.285 -0.0148  0.3228 -0.3358
 9607SOL     OW29719   2.319   1.670   0.693  0.1402  0.0689 -0.4327
 9607SOL    HW129720   2.233   1.653   0.644  0.3262  1.0026 -1.1153
 9607SOL    HW229721   2.356   1.759   0.666  1.8237 -0.7279 -0.8649
 9608SOL     OW29722   6.243   2.432   5.614  0.8128 -0.2899 -0.2129
 9608SOL    HW129723   6.261   2.334   5.630  1.8579  0.1800  1.8025
 9608SOL    HW229724   6.145   2.449   5.620  0.8251 -0.7666  2.6722
 9609SOL     OW29725   0.174   3.306   6.262 -0.2442 -0.1236 -0.1927
 9609SOL    HW129726   0.149   3.287   6.167 -0.4834 -0.4135 -0.0732
 9609SOL    HW229727   0.269   3.338   6.266 -0.6467  1.1866 -0.6687
 9610SOL     OW29728   6.111   5.243   2.198  0.2449  0.6813 -0.2970
 9610SOL    HW129729   6.101   5.182   2.276 -0.3563  0.9636 -0.1468
 9610SOL    HW229730   6.170   5.201   2.130  0.0740  0.0602 -0.0657
 9611SOL     OW29731   2.472   0.912   1.546  0.3692 -0.7920 -0.0440
 9611SOL    HW129732   2.545   0.981   1.541 -1.2338  1.0029 -0.1551
 9611SOL    HW229733   2.408   0.937   1.619 -0.4911 -1.9401 -0.3852
 9612SOL     OW29734   0.426   0.289   5.799 -0.2132  0.2281  0.2498
 9612SOL    HW129735   0.385   0.372   5.836  1.3516  0.7638  0.8617
 9612SOL    HW229736   0.356   0.236   5.752 -2.0483  0.1431  2.8406
 9613SOL     OW29737   1.267   4.988   3.439  0.1852 -0.0210  1.0608
 9613SOL    HW129738   1.215   4.930   3.502 -1.0207 -1.5472 -1.1948
 9613SOL    HW229739   1.356   4.947   3.423 -0.9500 -1.8572 -1.1349
 9614SOL     OW29740   4.295   1.997   3.211 -0.1135  0.4177 -0.4028
 9614SOL    HW129741   4.373   1.995   3.149 -0.1882 -1.6068 -0.5037
 9614SOL    HW229742   4.253   2.088   3.210  1.1279  1.0043 -1.7244
 9615SOL     OW29743   3.033   2.723   6.910  0.1309  0.2166  0.2386
 9615SOL    HW129744   3.065   2.784   6.837 -2.2126  3.4641  1.6624
 9615SOL    HW229745   2.944   2.685   6.885  1.2280 -2.1904 -0.2972
 9616SOL     OW29746   3.794   4.302   6.274 -0.7434  0.0381 -0.1871
 9616SOL    HW129747   3.784   4.308   6.175  0.1780 -0.6757 -0.3433
 9616SOL    HW229748   3.742   4.223   6.308 -0.0016 -0.5077 -0.2916
 9617SOL     OW29749   2.219   5.482   1.735 -0.0539 -0.6047 -0.5271
 9617SOL    HW129750   2.172   5.538   1.666  0.8609 -1.2770 -1.7371
 9617SOL    HW229751   2.186   5.507   1.826 -0.6993  0.8944 -1.1332
 9618SOL     OW29752   1.271   2.997   1.605  0.1403 -0.5701  0.5250
 9618SOL    HW129753   1.313   2.949   1.682 -0.4606  1.1343  1.9776
 9618SOL    HW229754   1.343   3.030   1.544  0.8301  0.2770  1.7335
 9619SOL     OW29755   3.301   5.548   6.267  0.1643  0.0076 -0.4817
 9619SOL    HW129756   3.226   5.547   6.201  0.5543 -0.3244 -0.9286
 9619SOL    HW229757   3.312   5.640   6.304 -1.7994 -0.3387  1.1375
 9620SOL     OW29758   5.675   0.880   4.881 -0.4882 -0.0269  0.1923
 9620SOL    HW129759   5.644   0.936   4.803  0.2606 -1.3167 -1.0857
 9620SOL    HW229760   5.774   0.890   4.891 -0.2876 -1.3339 -0.2744
 9621SOL     OW29761   2.106   3.804   3.313 -0.3086 -0.3977  0.3847
 9621SOL    HW129762   2.131   3.719   3.358  0.7042 -0.8675 -0.9766
 9621SOL    HW229763   2.108   3.879   3.378 -1.1665 -1.3870  1.5973
 9622SOL     OW29764   4.848   6.180   2.104 -0.3142  0.3857 -0.2422
 9622SOL    HW129765   4.889   6.091   2.088  0.1422  0.3104  1.1860
 9622SOL    HW229766   4.783   6.201   2.031 -1.3040 -1.6237  0.0079
 9623SOL     OW29767   6.608   2.915   5.491 -0.7441  0.5865 -0.4816
 9623SOL    HW129768   6.631   2.969   5.573 -1.8794  1.6061 -0.7973
 9623SOL    HW229769   6.528   2.955   5.447 -0.5174 -0.3214 -1.7645
 9624SOL     OW29770   6.868   2.815   3.337  0.1477 -0.6367 -0.2102
 9624SOL    HW129771   6.791   2.769   3.382  0.9324 -1.6582  0.1293
 9624SOL    HW229772   6.857   2.914   3.346 -0.7175 -0.7798  0.5277
 9625SOL     OW29773   5.360   4.161   1.951 -0.2283  0.1580 -0.3842
 9625SOL    HW129774   5.269   4.163   1.910 -0.3330  1.7626 -0.1305
 9625SOL    HW229775   5.371   4.075   2.002 -1.9550  0.3313  0.3708
 9626SOL     OW29776   4.645   6.532   1.228 -0.5196  0.0374  0.6961
 9626SOL    HW129777   4.702   6.563   1.304 -1.1253  0.7720  0.8696
 9626SOL    HW229778   4.571   6.474   1.262 -0.1836 -0.4913  0.5352
 9627SOL     OW29779   1.310   6.781   2.067  0.0157 -0.3623 -0.8372
 9627SOL    HW129780   1.373   6.799   1.991  0.3519  0.8009 -0.3114
 9627SOL    HW229781   1.225   6.833   2.053  0.1045 -0.0899 -0.3973
 9628SOL     OW29782   4.730   0.375   6.860 -0.1442  0.1532  0.2096
 9628SOL    HW129783   4.697   0.384   6.955 -0.1636  0.5734  0.1639
 9628SOL    HW229784   4.752   0.280   6.842  0.2511  0.1356  0.7692
 9629SOL     OW29785   3.161   6.022   2.429  0.3646  0.2271  0.1033
 9629SOL    HW129786   3.144   5.954   2.357 -0.1449  1.4511 -0.9701
 9629SOL    HW229787   3.188   5.975   2.513  0.6236 -1.2645 -0.7756
 9630SOL     OW29788   6.987   2.083   5.792 -0.5509 -0.0399  0.4383
 9630SOL    HW129789   7.055   2.103   5.722  0.0337  0.5796  1.1601
 9630SOL    HW229790   6.960   1.987   5.787  0.5464 -0.3490  0.2874
 9631SOL     OW29791   0.632   5.683   1.175 -0.2678 -0.5085 -0.1743
 9631SOL    HW129792   0.686   5.712   1.254 -0.3193 -3.3193  1.0060
 9631SOL    HW229793   0.686   5.622   1.118 -1.2801 -1.1311 -0.4906
 9632SOL     OW29794   2.359   5.291   1.241  0.0079  0.0799  0.2309
 9632SOL    HW129795   2.372   5.297   1.143 -0.3731 -0.2199  0.1604
 9632SOL    HW229796   2.328   5.199   1.266 -0.7711  0.4118  0.5224
 9633SOL     OW29797   1.485   5.914   1.194 -0.1279  0.1728  0.0407
 9633SOL    HW129798   1.512   5.825   1.158  1.4003  1.4467 -2.1415
 9633SOL    HW229799   1.424   5.900   1.272  0.7303 -2.7639  0.3208
 9634SOL     OW29800   1.503   5.533   5.887  0.3586  0.2175  0.2197
 9634SOL    HW129801   1.469   5.561   5.977  1.1463 -2.1993  1.3534
 9634SOL    HW229802   1.577   5.466   5.899 -0.2403 -0.9783 -2.2269
 9635SOL     OW29803   6.396   6.962   5.021  0.0162 -0.8534 -0.0285
 9635SOL    HW129804   6.305   6.929   4.994  0.2160  0.0762 -2.0026
 9635SOL    HW229805   6.387   7.051   5.066  0.0179  0.1214 -1.8529
 9636SOL     OW29806   4.335   1.729   5.845  0.2811 -0.3070  0.1345
 9636SOL    HW129807   4.347   1.687   5.755  3.9850 -1.0939  0.8288
 9636SOL    HW229808   4.355   1.827   5.838  1.6121 -0.5579  0.2472
 9637SOL     OW29809   1.585   0.300   5.949  0.1868  0.0270 -0.4426
 9637SOL    HW129810   1.586   0.306   6.049 -2.9793  0.5579 -0.3498
 9637SOL    HW229811   1.653   0.233   5.919  0.9657 -0.4110  2.0636
 9638SOL     OW29812   5.899   2.929   5.278  0.1002  0.3231 -0.4050
 9638SOL    HW129813   5.877   2.992   5.352  1.5968  0.2583  0.1357
 9638SOL    HW229814   5.842   2.847   5.285  2.6081 -1.3862  2.9637
 9639SOL     OW29815   2.568   1.409   3.061 -0.1513 -0.6877  0.1903
 9639SOL    HW129816   2.533   1.501   3.045 -1.1349 -0.8400  1.3320
 9639SOL    HW229817   2.538   1.349   2.986  0.5886 -0.0773 -0.6154
 9640SOL     OW29818   6.963   2.807   2.406 -0.6518  0.2219  0.2692
 9640SOL    HW129819   6.917   2.724   2.436  1.4056 -0.9542  0.3974
 9640SOL    HW229820   7.039   2.827   2.467 -0.2638  1.4184 -0.5604
 9641SOL     OW29821   5.987   6.621   6.967 -0.1845  0.1846  0.2909
 9641SOL    HW129822   6.014   6.528   6.992 -1.1249  0.4257  2.3078
 9641SOL    HW229823   6.047   6.686   7.013  0.4800  0.6274 -1.1267
 9642SOL     OW29824   3.045   5.950   3.245 -0.8800 -0.1300  0.0169
 9642SOL    HW129825   3.004   5.862   3.270 -1.6907  0.4148  0.6499
 9642SOL    HW229826   3.059   5.953   3.146 -0.5923 -1.0693  0.0141
 9643SOL     OW29827   3.978   4.324   1.574 -0.5907  0.4104 -0.0385
 9643SOL    HW129828   3.927   4.248   1.613 -0.6007 -1.4859 -3.3584
 9643SOL    HW229829   3.919   4.405   1.568 -2.4950 -0.9910 -1.4748
 9644SOL     OW29830   1.307   6.297   6.946 -0.5272  0.1055 -0.8354
 9644SOL    HW129831   1.216   6.273   6.980  0.1197  1.2708  2.0754
 9644SOL    HW229832   1.373   6.228   6.975 -0.2874 -0.1951 -2.0338
 9645SOL     OW29833   2.453   6.251   6.962 -0.1287 -0.2187  0.0219
 9645SOL    HW129834   2.461   6.260   7.061 -0.5735 -1.9224  0.2507
 9645SOL    HW229835   2.542   6.224   6.924 -0.3060 -1.0293  0.1651
 9646SOL     OW29836   3.429   5.659   5.557 -0.5777 -0.4479 -0.1459
 9646SOL    HW129837   3.500   5.593   5.534  0.6475  0.6906  0.3036
 9646SOL    HW229838   3.442   5.691   5.651 -1.3635  0.1941 -0.2470
 9647SOL     OW29839   4.714   2.858   4.200  0.5280 -0.0041 -0.1163
 9647SOL    HW129840   4.716   2.873   4.299 -1.7247  1.4163 -0.2200
 9647SOL    HW229841   4.760   2.934   4.154  1.0130 -0.3429 -0.1980
 9648SOL     OW29842   2.441   3.719   6.351 -0.2088 -0.7167  0.0228
 9648SOL    HW129843   2.417   3.728   6.255 -0.9865  0.1156  0.2742
 9648SOL    HW229844   2.494   3.799   6.380 -0.4628 -0.6861  0.4175
 9649SOL     OW29845   2.593   5.627   0.483 -0.3235 -0.2551  0.4842
 9649SOL    HW129846   2.627   5.719   0.462 -0.7796 -0.2592 -0.3025
 9649SOL    HW229847   2.494   5.630   0.496 -0.2573 -0.5322  1.0802
 9650SOL     OW29848   3.559   6.469   0.604 -0.8505 -0.6138  0.3375
 9650SOL    HW129849   3.622   6.442   0.677 -1.2819  1.3627  1.5154
 9650SOL    HW229850   3.470   6.491   0.643 -1.4844 -0.7668 -0.9707
 9651SOL     OW29851   2.738   1.115   1.087 -0.2450  0.1466 -0.1971
 9651SOL    HW129852   2.759   1.021   1.115 -0.1501  0.6989  1.6815
 9651SOL    HW229853   2.646   1.117   1.047  0.0957 -0.8837 -1.0967
 9652SOL     OW29854   3.015   3.741   6.815 -0.4272 -1.4767 -0.2551
 9652SOL    HW129855   2.977   3.649   6.819 -4.0700 -0.1307  1.6489
 9652SOL    HW229856   2.966   3.795   6.747  1.0745 -0.6851 -0.7602
 9653SOL     OW29857   0.070   0.200   4.104  0.6367 -0.2938 -0.0142
 9653SOL    HW129858   0.019   0.208   4.019 -0.8367  0.3009  0.8912
 9653SOL    HW229859   0.167   0.221   4.087  0.0391  1.7642 -1.1701
 9654SOL     OW29860   2.349   2.412   1.504 -0.2755 -0.3699 -0.0365
 9654SOL    HW129861   2.297   2.441   1.585  0.5712  1.3936 -0.0832
 9654SOL    HW229862   2.401   2.329   1.526 -0.0321  0.0947  1.2518
 9655SOL     OW29863   6.781   3.666   0.229  0.1902  0.0388  0.0230
 9655SOL    HW129864   6.750   3.571   0.228  1.9297 -0.5651 -0.8895
 9655SOL    HW229865   6.800   3.697   0.136  0.7570  0.9012  0.4053
 9656SOL     OW29866   1.180   2.637   2.202 -0.2590 -0.5146 -0.2008
 9656SOL    HW129867   1.202   2.597   2.113  1.0477  1.7697 -0.9982
 9656SOL    HW229868   1.231   2.589   2.274  0.0149 -1.2791 -0.8916
 9657SOL     OW29869   1.291   6.582   4.470  0.8798  0.4041 -0.9232
 9657SOL    HW129870   1.250   6.626   4.550  0.1691  0.7240 -1.4427
 9657SOL    HW229871   1.390   6.596   4.471  1.1841 -1.4798  1.0330
 9658SOL     OW29872   6.301   2.305   1.618  0.9867  0.1690  0.3511
 9658SOL    HW129873   6.249   2.318   1.702  2.0588 -1.7593  1.4001
 9658SOL    HW229874   6.267   2.367   1.547 -2.7415 -0.9782  0.9179
 9659SOL     OW29875   2.934   6.078   6.150  0.2595 -0.1116 -0.0771
 9659SOL    HW129876   2.886   6.144   6.207  1.7254 -0.5302  1.7341
 9659SOL    HW229877   2.936   6.111   6.055  0.7782  2.3483  0.7196
 9660SOL     OW29878   0.173   5.746   5.915 -0.2548 -0.4482  0.1405
 9660SOL    HW129879   0.131   5.689   5.845  1.1684 -0.6162 -0.6079
 9660SOL    HW229880   0.152   5.709   6.005 -1.1051 -0.9227 -0.2439
 9661SOL     OW29881   2.936   0.559   1.920  0.1387  0.1736  0.5402
 9661SOL    HW129882   2.981   0.603   1.843  0.4453  0.6889  1.0112
 9661SOL    HW229883   2.852   0.513   1.889  0.5143 -0.0295 -0.1775
 9662SOL     OW29884   5.327   2.585   4.063 -0.4768  0.3310  0.0664
 9662SOL    HW129885   5.346   2.524   3.986 -0.6174 -1.5510  1.4567
 9662SOL    HW229886   5.234   2.568   4.096 -0.3091  0.8941  0.8520
 9663SOL     OW29887   2.826   5.509   2.570 -0.1384 -0.7913 -0.0962
 9663SOL    HW129888   2.796   5.416   2.551 -1.0546 -0.2271 -1.6297
 9663SOL    HW229889   2.775   5.546   2.647 -2.7692 -0.2353 -1.9582
 9664SOL     OW29890   3.345   6.411   2.051  0.0094 -0.2545  0.8247
 9664SOL    HW129891   3.437   6.450   2.052  0.5540 -1.3255 -1.3384
 9664SOL    HW229892   3.285   6.471   1.998  0.2148 -0.9938 -0.2780
 9665SOL     OW29893   6.883   4.787   2.662  0.4903  0.1528  0.1002
 9665SOL    HW129894   6.945   4.850   2.709  0.5577  0.5574 -0.5146
 9665SOL    HW229895   6.864   4.822   2.570 -1.1305  0.3482  0.4824
 9666SOL     OW29896   0.030   5.137   5.238 -0.8871 -0.6154  0.1407
 9666SOL    HW129897   0.124   5.145   5.270 -0.6408  0.0567 -0.7243
 9666SOL    HW229898   0.024   5.060   5.174 -0.8335 -0.3927 -0.1315
 9667SOL     OW29899   3.568   4.024   2.700  0.2077 -0.3541  0.3544
 9667SOL    HW129900   3.543   3.973   2.782  2.6275  0.4629  1.7233
 9667SOL    HW229901   3.486   4.050   2.650 -1.4687  0.0564  3.1118
 9668SOL     OW29902   5.258   2.547   5.938 -0.2424  0.1034 -0.1192
 9668SOL    HW129903   5.220   2.454   5.943  1.4489 -0.5495  1.9459
 9668SOL    HW229904   5.328   2.550   5.867  1.0057 -0.7562  1.0378
 9669SOL     OW29905   2.487   5.490   1.628 -0.3369 -0.8010 -0.3731
 9669SOL    HW129906   2.402   5.503   1.679 -1.4533  0.7376 -2.4421
 9669SOL    HW229907   2.538   5.414   1.667 -3.4115 -2.8572  0.0185
 9670SOL     OW29908   0.994   3.689   6.458  0.0300  0.1716 -0.0150
 9670SOL    HW129909   1.069   3.754   6.470  0.5786 -0.8289  2.3014
 9670SOL    HW229910   1.030   3.599   6.435 -0.5268 -0.1352  0.2945
 9671SOL     OW29911   6.771   3.288   0.417 -0.7795 -0.3186  0.3839
 9671SOL    HW129912   6.762   3.351   0.340  0.9679  0.2493  0.6086
 9671SOL    HW229913   6.715   3.206   0.399  0.1970 -0.5676 -1.8659
 9672SOL     OW29914   0.974   0.803   0.092 -0.1572  0.0811  0.3158
 9672SOL    HW129915   0.949   0.729   0.029  0.4710  1.9307 -2.2601
 9672SOL    HW229916   0.893   0.857   0.113  0.1755  1.7519 -2.1872
 9673SOL     OW29917   1.800   2.999   5.655 -0.3125  0.1240 -0.6046
 9673SOL    HW129918   1.833   3.047   5.737  1.0229 -1.5280 -0.1064
 9673SOL    HW229919   1.752   2.916   5.683 -1.8038  0.6737 -1.4676
 9674SOL     OW29920   2.948   5.171   0.881  0.3889 -0.2342  0.3727
 9674SOL    HW129921   2.900   5.112   0.946  0.4183 -0.9778 -0.2639
 9674SOL    HW229922   2.958   5.262   0.920  1.7288 -1.0300  2.0754
 9675SOL     OW29923   4.696   4.195   1.255 -0.1424 -0.3584  0.1855
 9675SOL    HW129924   4.660   4.269   1.312  1.7319  1.8311 -1.2761
 9675SOL    HW229925   4.633   4.177   1.180 -0.4533  0.0456  0.3413
 9676SOL     OW29926   6.942   2.521   4.019  0.0539  0.2670  0.4636
 9676SOL    HW129927   6.995   2.605   4.027 -0.0553  0.3478  0.3334
 9676SOL    HW229928   6.996   2.452   3.970 -0.2565  0.5996 -0.3562
 9677SOL     OW29929   1.017   2.637   6.736 -0.1472  0.3576 -0.7128
 9677SOL    HW129930   0.934   2.675   6.694 -1.3134  0.0262  1.1890
 9677SOL    HW229931   1.079   2.712   6.761 -0.4198  0.6914 -1.0130
 9678SOL     OW29932   3.938   3.256   2.189  0.5140 -0.0992  0.1876
 9678SOL    HW129933   3.890   3.180   2.232  0.2471 -1.0313 -1.6988
 9678SOL    HW229934   3.884   3.291   2.112  1.4445  0.8504 -0.0541
 9679SOL     OW29935   0.462   3.730   0.306  0.3922  0.1494 -0.5051
 9679SOL    HW129936   0.510   3.657   0.355  0.6027  0.7398  0.1907
 9679SOL    HW229937   0.372   3.698   0.278 -0.8946  0.5923  2.6849
 9680SOL     OW29938   4.180   4.688   0.198  0.3767  0.4913 -0.5565
 9680SOL    HW129939   4.083   4.680   0.176  0.6559 -0.6196 -1.4577
 9680SOL    HW229940   4.213   4.603   0.240  0.5459  1.5259  1.5627
 9681SOL     OW29941   5.362   0.835   4.758 -0.0309  0.1809 -0.0495
 9681SOL    HW129942   5.309   0.897   4.817 -0.6297 -0.3917  0.0209
 9681SOL    HW229943   5.457   0.867   4.754 -0.0198  0.3408  1.0724
 9682SOL     OW29944   1.531   1.768   2.083  0.2534  0.1725 -0.7073
 9682SOL    HW129945   1.464   1.725   2.022  0.0201  0.1213 -0.4188
 9682SOL    HW229946   1.490   1.847   2.127 -0.3956 -1.1277  1.1850
 9683SOL     OW29947   3.903   6.875   1.791 -0.2516  0.2205 -0.3138
 9683SOL    HW129948   3.825   6.910   1.842 -0.8781  1.3493 -1.9756
 9683SOL    HW229949   3.881   6.784   1.755 -0.6942  0.4217 -0.5513
 9684SOL     OW29950   2.194   4.621   3.317  0.0280 -0.0798 -0.5072
 9684SOL    HW129951   2.126   4.554   3.345  0.3963  0.0346  0.7263
 9684SOL    HW229952   2.158   4.676   3.242 -1.6994  0.7553  0.8776
 9685SOL     OW29953   3.654   2.471   6.749 -0.0097  0.2180 -0.3354
 9685SOL    HW129954   3.736   2.514   6.790  0.4710 -0.3763 -0.6626
 9685SOL    HW229955   3.654   2.374   6.770 -1.4622  0.4605  0.9931
 9686SOL     OW29956   0.219   3.894   1.229  0.1018 -0.3223  0.6547
 9686SOL    HW129957   0.172   3.831   1.290  1.4249 -1.2839  0.7283
 9686SOL    HW229958   0.181   3.886   1.137  1.8080 -3.1027  0.0805
 9687SOL     OW29959   2.539   1.154   5.488  0.2633 -0.6702 -0.5734
 9687SOL    HW129960   2.549   1.227   5.556  0.5373 -0.1205 -1.1860
 9687SOL    HW229961   2.624   1.102   5.482 -0.6591 -2.5551  1.5190
 9688SOL     OW29962   5.176   3.857   2.297  0.3314  0.6141  0.0118
 9688SOL    HW129963   5.209   3.779   2.245  0.9165  0.2711  0.8763
 9688SOL    HW229964   5.208   3.942   2.255 -0.6678  0.4256 -1.1804
 9689SOL     OW29965   2.415   4.571   6.973 -1.0026  0.8469  0.6191
 9689SOL    HW129966   2.463   4.598   6.890  0.2006  0.5162  1.1709
 9689SOL    HW229967   2.450   4.624   7.050 -0.3326 -0.5298  1.3090
 9690SOL     OW29968   6.487   4.176   6.749 -0.0918 -0.1318  0.0019
 9690SOL    HW129969   6.398   4.172   6.704 -0.2908  0.6987  0.3056
 9690SOL    HW229970   6.499   4.266   6.791  1.1640 -0.0134 -0.5888
 9691SOL     OW29971   1.032   4.477   6.643  0.0627 -0.3768 -0.3546
 9691SOL    HW129972   0.960   4.433   6.696 -1.4195  2.4974  0.2377
 9691SOL    HW229973   1.082   4.541   6.702  3.4454 -2.4821 -0.6514
 9692SOL     OW29974   3.945   5.294   1.363  1.3507 -0.1860  0.0414
 9692SOL    HW129975   3.885   5.264   1.438  1.1728  0.3912  0.1404
 9692SOL    HW229976   3.897   5.284   1.276  0.8536  0.8764  0.1770
 9693SOL     OW29977   0.191   6.209   2.153 -0.2105 -0.0089 -0.1233
 9693SOL    HW129978   0.247   6.189   2.073 -0.6201  0.5479 -0.5599
 9693SOL    HW229979   0.171   6.307   2.157 -1.7302 -0.2796 -0.3757
 9694SOL     OW29980   6.806   7.004   6.577  0.4069 -0.0708  0.6507
 9694SOL    HW129981   6.734   6.991   6.646 -0.8935  0.5769 -0.5287
 9694SOL    HW229982   6.788   6.945   6.499  1.4189 -0.2098  0.5083
 9695SOL     OW29983   5.959   5.207   6.778  0.8387 -0.2055  0.2412
 9695SOL    HW129984   5.964   5.140   6.852 -2.9725  0.8384  1.6857
 9695SOL    HW229985   5.923   5.294   6.814  0.1467  0.7931 -2.5833
 9696SOL     OW29986   3.886   2.835   5.906  0.4713 -0.1402  0.1468
 9696SOL    HW129987   3.842   2.908   5.959  0.4281 -0.0160 -0.0601
 9696SOL    HW229988   3.816   2.778   5.864  0.5057 -0.3000  0.3047
 9697SOL     OW29989   1.723   5.509   5.390 -0.2802 -0.1466  0.5661
 9697SOL    HW129990   1.815   5.471   5.400 -0.4287 -0.2913  1.4102
 9697SOL    HW229991   1.674   5.501   5.476 -1.8188 -1.9784 -0.4003
 9698SOL     OW29992   5.156   2.332   6.507  0.0238 -0.0274  0.0462
 9698SOL    HW129993   5.069   2.350   6.554  0.3912  1.2025  0.2943
 9698SOL    HW229994   5.165   2.394   6.429  1.8855  1.8531  1.6409
 9699SOL     OW29995   1.516   2.656   6.042  0.3379 -0.0755 -0.4615
 9699SOL    HW129996   1.433   2.616   6.003  0.0247  0.6163 -0.5111
 9699SOL    HW229997   1.587   2.586   6.048 -1.2799 -1.6261  2.8127
 9700SOL     OW29998   3.578   3.181   3.875 -0.6230  0.9493 -0.1513
 9700SOL    HW129999   3.573   3.222   3.966  1.5224  1.5604 -0.2580
 9700SOL    HW230000   3.655   3.117   3.871  1.1494  3.0299 -2.2546
 9701SOL     OW30001   2.470   4.580   3.978  0.3495  0.2261 -0.6429
 9701SOL    HW130002   2.453   4.662   4.033 -1.8379 -0.3959 -0.2950
 9701SOL    HW230003   2.468   4.499   4.037 -2.2349 -0.4747 -1.5600
 9702SOL     OW30004   4.819   1.591   0.643  0.4646 -0.1858 -0.1228
 9702SOL    HW130005   4.918   1.604   0.648  0.3750  0.1746  1.1585
 9702SOL    HW230006   4.798   1.496   0.623  1.0906 -0.9255  2.3599
 9703SOL     OW30007   1.915   5.691   5.986 -0.3856  0.0496 -0.1900
 9703SOL    HW130008   1.824   5.730   5.996 -0.4558 -0.2304  0.2833
 9703SOL    HW230009   1.908   5.599   5.948 -0.2365  0.3720 -1.0372
 9704SOL     OW30010   2.511   6.693   5.123 -0.2024 -0.8055  0.2249
 9704SOL    HW130011   2.506   6.594   5.139 -0.9233 -0.6665  0.9394
 9704SOL    HW230012   2.490   6.712   5.027 -0.7811 -1.3040  0.2412
 9705SOL     OW30013   3.493   4.150   1.345  0.3621 -0.4590  0.5997
 9705SOL    HW130014   3.586   4.187   1.342  0.1816 -0.0281  0.0506
 9705SOL    HW230015   3.430   4.221   1.378  0.2818 -0.8707  1.3436
 9706SOL     OW30016   6.601   0.831   4.184  0.0502  0.2612  0.3327
 9706SOL    HW130017   6.508   0.865   4.197  0.4308  1.1668  0.7645
 9706SOL    HW230018   6.611   0.797   4.091 -0.9609 -0.6538  0.5421
 9707SOL     OW30019   2.054   5.624   6.735  0.2831  0.1901 -0.5285
 9707SOL    HW130020   2.013   5.673   6.658 -1.3622 -0.2162  0.0426
 9707SOL    HW230021   2.092   5.689   6.801 -0.9656  0.6810 -0.2720
 9708SOL     OW30022   1.300   2.777   1.351 -0.3589 -0.0956 -0.5598
 9708SOL    HW130023   1.291   2.686   1.390 -1.5437  0.2814  0.0841
 9708SOL    HW230024   1.214   2.826   1.358  0.7536  1.7965  0.9382
 9709SOL     OW30025   0.696   5.823   4.540  0.1506  0.6540 -0.0177
 9709SOL    HW130026   0.713   5.726   4.528 -1.4579  0.5805 -2.2366
 9709SOL    HW230027   0.608   5.836   4.586 -1.3391  0.9775 -2.7687
 9710SOL     OW30028   2.456   6.517   2.812 -0.1714  0.1889  0.0832
 9710SOL    HW130029   2.549   6.484   2.795  0.1353 -2.3275  4.8145
 9710SOL    HW230030   2.458   6.580   2.890 -2.4159  0.3595  0.0467
 9711SOL     OW30031   2.659   4.015   5.282  0.3202  0.1718 -0.5941
 9711SOL    HW130032   2.713   3.950   5.230 -1.2101 -2.1358  0.5499
 9711SOL    HW230033   2.565   4.016   5.248  0.0195  0.8388  0.2196
 9712SOL     OW30034   5.069   4.301   5.171  0.3420 -0.3774 -0.3697
 9712SOL    HW130035   5.114   4.256   5.093 -0.8669 -1.6013 -0.4013
 9712SOL    HW230036   4.996   4.242   5.206  0.8025  0.1825  1.6587
 9713SOL     OW30037   0.182   5.393   4.285 -0.2098 -0.6306 -0.2366
 9713SOL    HW130038   0.237   5.445   4.351  0.3800  0.0346 -1.2252
 9713SOL    HW230039   0.093   5.372   4.326  0.1760 -0.3258  0.8057
 9714SOL     OW30040   0.961   0.935   3.918 -0.0633  0.1893  0.7530
 9714SOL    HW130041   0.998   0.951   3.826  0.6194  0.1976  1.0230
 9714SOL    HW230042   1.031   0.957   3.986  0.0044 -1.4065  1.2222
 9715SOL     OW30043   5.320   6.860   3.891 -0.4535  0.4132 -0.0441
 9715SOL    HW130044   5.415   6.853   3.920 -0.3290  0.3132 -0.4681
 9715SOL    HW230045   5.301   6.789   3.823 -1.3426 -0.7936  1.3937
 9716SOL     OW30046   4.312   6.833   6.389  0.7054  0.2971  0.2902
 9716SOL    HW130047   4.249   6.866   6.319 -0.1990 -1.0650  0.4256
 9716SOL    HW230048   4.339   6.909   6.448 -0.1939  1.0548 -0.2473
 9717SOL     OW30049   1.142   5.134   1.766 -0.7059  0.5652 -0.5244
 9717SOL    HW130050   1.052   5.168   1.737 -2.2231 -0.9013  2.0160
 9717SOL    HW230051   1.146   5.036   1.751 -1.0694 -0.0408  2.6204
 9718SOL     OW30052   5.864   1.647   2.719  0.3180  0.6321  0.3588
 9718SOL    HW130053   5.926   1.714   2.760  0.6090  0.9763 -0.6252
 9718SOL    HW230054   5.773   1.656   2.760  0.9807 -0.1425  2.1021
 9719SOL     OW30055   2.091   6.938   0.144  0.5764  0.4381 -0.5308
 9719SOL    HW130056   2.087   6.910   0.240  1.3714  0.0799 -0.5981
 9719SOL    HW230057   2.092   6.857   0.085 -1.5278  0.6370 -0.9477
 9720SOL     OW30058   2.891   0.153   1.010 -0.1173  0.6514  0.2316
 9720SOL    HW130059   2.982   0.162   1.050 -0.2625  1.3474  0.4256
 9720SOL    HW230060   2.896   0.172   0.912  0.3352 -1.6030 -0.2340
 9721SOL     OW30061   6.714   0.459   4.239 -0.7849  0.0114 -0.1954
 9721SOL    HW130062   6.631   0.426   4.194 -0.1361 -0.7603 -0.8781
 9721SOL    HW230063   6.764   0.382   4.277 -0.6216  0.5240  0.6383
 9722SOL     OW30064   6.123   7.009   5.564  0.2485 -0.2750  0.2423
 9722SOL    HW130065   6.164   7.099   5.555  1.2696 -0.7453  0.0499
 9722SOL    HW230066   6.097   6.993   5.659  0.9207 -0.1407  0.4507
 9723SOL     OW30067   4.660   0.263   4.492 -0.0748 -0.3232  0.1760
 9723SOL    HW130068   4.671   0.314   4.577 -1.0791 -2.7186  1.8764
 9723SOL    HW230069   4.601   0.314   4.429  0.2975  1.2908  1.1054
 9724SOL     OW30070   4.739   3.651   0.920 -0.3008  0.2921 -0.3610
 9724SOL    HW130071   4.647   3.646   0.880 -0.1115  0.2904 -0.8023
 9724SOL    HW230072   4.768   3.560   0.948  0.5360 -0.1502 -2.4554
 9725SOL     OW30073   4.370   2.412   6.350 -0.2429  0.4239 -0.1049
 9725SOL    HW130074   4.354   2.416   6.251 -0.2192 -2.5099 -0.3017
 9725SOL    HW230075   4.311   2.342   6.390  1.8916 -0.5678  1.4460
 9726SOL     OW30076   4.664   6.356   5.667 -0.4144  0.2950 -0.3880
 9726SOL    HW130077   4.659   6.382   5.763  1.3771  0.7999 -0.3785
 9726SOL    HW230078   4.701   6.263   5.659  1.7377  1.1066 -0.5817
 9727SOL     OW30079   0.369   2.136   1.647 -0.5268 -0.1460 -0.2131
 9727SOL    HW130080   0.316   2.085   1.715 -1.2765  0.7317 -0.1067
 9727SOL    HW230081   0.306   2.190   1.591  0.3098  2.0346  0.8223
 9728SOL     OW30082   1.096   6.094   6.772 -0.2225 -0.2824 -0.2335
 9728SOL    HW130083   1.158   6.172   6.766  0.1030 -0.5981 -1.1807
 9728SOL    HW230084   1.109   6.034   6.693 -1.2968 -0.6836 -0.1362
 9729SOL     OW30085   3.231   5.547   2.488 -0.4654 -0.7281 -0.4684
 9729SOL    HW130086   3.147   5.567   2.438 -0.2830 -0.2649 -0.5939
 9729SOL    HW230087   3.221   5.460   2.536 -2.2581  0.7938  2.1751
 9730SOL     OW30088   5.619   4.598   2.114  0.5565 -0.1821  0.5290
 9730SOL    HW130089   5.551   4.535   2.075  0.2863  0.4655 -0.0600
 9730SOL    HW230090   5.639   4.670   2.048  0.5212  0.6190  1.3695
 9731SOL     OW30091   4.118   5.239   5.031 -0.1175  0.3982  0.5725
 9731SOL    HW130092   4.171   5.154   5.041  0.1347  0.6771  1.7104
 9731SOL    HW230093   4.033   5.219   4.982  0.2579 -0.3737  0.2102
 9732SOL     OW30094   3.006   6.941   5.538 -0.1853 -1.1194  0.1362
 9732SOL    HW130095   3.062   6.997   5.477  0.9305 -1.9270  0.3930
 9732SOL    HW230096   2.964   7.000   5.607 -1.7024 -0.1529 -1.5462
 9733SOL     OW30097   5.099   4.319   3.981 -0.0841 -0.0863  0.1299
 9733SOL    HW130098   5.014   4.292   3.936  1.6895 -2.7619 -1.9804
 9733SOL    HW230099   5.138   4.398   3.934  0.2461 -0.9952 -1.1807
 9734SOL     OW30100   5.789   2.452   4.481  0.6876  0.1920 -0.3753
 9734SOL    HW130101   5.868   2.400   4.449  0.5780  0.0734 -0.4561
 9734SOL    HW230102   5.711   2.391   4.494  0.3490  0.4306 -1.1705
 9735SOL     OW30103   4.331   0.218   1.095  0.3125  0.8569  0.2252
 9735SOL    HW130104   4.243   0.245   1.055 -0.3316 -2.5557 -1.0136
 9735SOL    HW230105   4.318   0.191   1.190 -0.1049  0.0082 -0.0600
 9736SOL     OW30106   3.063   3.046   1.922 -0.0523  0.1036 -0.1868
 9736SOL    HW130107   3.051   2.950   1.897  3.3124 -0.2698 -0.8585
 9736SOL    HW230108   3.102   3.053   2.014 -0.8168  0.8954  0.0983
 9737SOL     OW30109   4.663   1.627   4.622 -0.3987 -0.2229 -0.1893
 9737SOL    HW130110   4.571   1.593   4.641 -0.8445  1.1110  0.1268
 9737SOL    HW230111   4.728   1.552   4.631 -1.6493 -1.6940 -2.4024
 9738SOL     OW30112   1.680   5.769   3.317 -0.6753  0.0492 -0.0395
 9738SOL    HW130113   1.598   5.803   3.363 -1.3258 -0.4982 -0.7707
 9738SOL    HW230114   1.701   5.827   3.239 -0.8826 -0.3191 -0.3720
 9739SOL     OW30115   6.183   6.428   2.628  0.1247 -0.4031 -0.0722
 9739SOL    HW130116   6.270   6.411   2.581  1.1868  1.3269  1.1138
 9739SOL    HW230117   6.181   6.523   2.660 -2.6857 -0.0618 -0.9736
 9740SOL     OW30118   6.630   2.760   2.656 -0.2303 -0.3662 -0.3133
 9740SOL    HW130119   6.661   2.667   2.638 -1.1342 -0.8220  0.4021
 9740SOL    HW230120   6.571   2.791   2.580  0.2849 -0.2618 -0.6797
 9741SOL     OW30121   2.629   2.096   4.387  0.0968 -0.7247  0.6749
 9741SOL    HW130122   2.665   2.189   4.385  0.1151 -0.7365  0.4963
 9741SOL    HW230123   2.546   2.094   4.442 -0.8330 -0.2779 -0.6684
 9742SOL     OW30124   3.546   0.616   3.395  0.5398  0.0688  0.1215
 9742SOL    HW130125   3.455   0.627   3.357  0.4168  0.9180  0.6390
 9742SOL    HW230126   3.552   0.528   3.443  0.5353 -0.7617 -1.3599
 9743SOL     OW30127   0.858   1.231   6.060  0.1278 -0.4390 -0.2585
 9743SOL    HW130128   0.901   1.150   6.100  0.3034 -0.3698 -0.3062
 9743SOL    HW230129   0.786   1.203   5.996 -0.4902 -0.5480  0.4711
 9744SOL     OW30130   0.916   6.682   2.349  0.4182  0.4042  0.2101
 9744SOL    HW130131   0.981   6.671   2.424  0.4627 -0.4909  0.0577
 9744SOL    HW230132   0.869   6.595   2.333 -0.2582  0.8313 -0.1934
 9745SOL     OW30133   0.118   1.189   4.879 -0.3263 -0.3708  0.1295
 9745SOL    HW130134   0.067   1.165   4.796  1.0043 -0.5539 -0.6585
 9745SOL    HW230135   0.174   1.112   4.908  0.8612  0.4012 -0.0544
 9746SOL     OW30136   5.432   6.399   5.242 -0.0850 -0.0710 -0.1418
 9746SOL    HW130137   5.435   6.300   5.229  0.0102 -0.2532  1.1812
 9746SOL    HW230138   5.336   6.429   5.247 -0.1094 -0.2598  0.5870
 9747SOL     OW30139   0.363   1.821   0.254  0.2996  0.2416 -0.4193
 9747SOL    HW130140   0.451   1.867   0.268  0.4078 -0.6825  2.9421
 9747SOL    HW230141   0.295   1.887   0.223  1.6602  1.4553 -0.8997
 9748SOL     OW30142   1.414   5.217   4.032  0.3212 -0.4340 -0.0222
 9748SOL    HW130143   1.415   5.144   3.964 -1.1892 -1.3569  0.8940
 9748SOL    HW230144   1.322   5.227   4.069  1.0043  0.3774  1.5371
 9749SOL     OW30145   6.496   4.884   0.144  0.2354 -0.2184  0.7999
 9749SOL    HW130146   6.414   4.882   0.086  1.3073 -1.4209 -0.7527
 9749SOL    HW230147   6.563   4.946   0.105  0.6739 -0.4255  1.2172
 9750SOL     OW30148   2.713   6.468   2.079  0.2152  0.2674 -0.2035
 9750SOL    HW130149   2.666   6.554   2.101  1.0537  0.4064  1.2381
 9750SOL    HW230150   2.680   6.396   2.140  0.0230 -0.2565 -0.9280
 9751SOL     OW30151   2.047   0.773   2.089 -0.7477  0.2560  0.1598
 9751SOL    HW130152   2.099   0.736   2.012 -0.8649  0.9307 -0.2552
 9751SOL    HW230153   2.110   0.810   2.157 -0.6059 -1.1624  0.8389
 9752SOL     OW30154   1.411   0.674   5.470 -0.4152  0.8578 -0.5951
 9752SOL    HW130155   1.372   0.757   5.430 -0.5740  2.4054  2.4586
 9752SOL    HW230156   1.347   0.637   5.538  0.3740 -0.8422 -0.7388
 9753SOL     OW30157   6.835   6.200   6.488  0.4375  0.2961 -0.3267
 9753SOL    HW130158   6.878   6.188   6.398  1.0358  0.6130 -0.0912
 9753SOL    HW230159   6.757   6.138   6.497 -0.1153  0.8199 -1.3671
 9754SOL     OW30160   0.536   2.826   6.487 -0.0827 -0.0523  0.2274
 9754SOL    HW130161   0.578   2.910   6.453 -0.1124 -0.8234 -1.8123
 9754SOL    HW230162   0.602   2.775   6.542  0.2365  0.8264  0.6730
 9755SOL     OW30163   1.937   5.909   6.261 -0.4422  0.0917  0.0102
 9755SOL    HW130164   1.944   5.989   6.202 -0.3331 -0.6508 -1.0172
 9755SOL    HW230165   1.851   5.911   6.311 -0.9568  0.3063 -0.8541
 9756SOL     OW30166   4.781   4.044   6.966  0.3069 -0.6309  0.0917
 9756SOL    HW130167   4.823   4.104   6.898  0.3340  0.1061  0.7510
 9756SOL    HW230168   4.705   3.995   6.924  1.1812 -1.2437 -0.8496
 9757SOL     OW30169   5.875   5.831   4.261 -0.1784 -0.8516  0.2857
 9757SOL    HW130170   5.943   5.758   4.269  0.6378 -0.0241  1.2491
 9757SOL    HW230171   5.867   5.860   4.166  1.2706 -0.5571  0.2429
 9758SOL     OW30172   2.816   1.206   0.307  0.3423 -0.8928  0.2532
 9758SOL    HW130173   2.811   1.170   0.214 -0.1276 -0.0125 -0.0811
 9758SOL    HW230174   2.863   1.294   0.306 -0.7332 -0.2914  0.6522
 9759SOL     OW30175   3.400   5.062   3.968  0.4547 -0.2704 -0.6518
 9759SOL    HW130176   3.437   5.006   3.894 -1.4453 -1.5058 -0.7385
 9759SOL    HW230177   3.300   5.053   3.970  0.3076  1.2380  0.8723
 9760SOL     OW30178   3.397   3.943   4.948  0.2128  0.3684  0.1712
 9760SOL    HW130179   3.303   3.971   4.968 -0.8658 -1.9377 -1.2199
 9760SOL    HW230180   3.440   4.013   4.891 -0.9221  1.1121  0.1830
 9761SOL     OW30181   5.034   6.350   2.214  0.1715 -0.5005 -0.0493
 9761SOL    HW130182   4.972   6.284   2.173 -1.5500 -0.5639  2.4258
 9761SOL    HW230183   5.061   6.418   2.145 -2.8776 -0.3063 -1.2061
 9762SOL     OW30184   5.517   0.498   1.742 -0.3589  0.4502 -0.0324
 9762SOL    HW130185   5.520   0.593   1.710 -1.0512  0.6768  0.5575
 9762SOL    HW230186   5.556   0.438   1.672 -0.1235  1.1447 -0.5038
 9763SOL     OW30187   1.743   2.772   1.263  0.0696  0.0349  0.4585
 9763SOL    HW130188   1.671   2.839   1.246  0.7083  0.4586 -0.6217
 9763SOL    HW230189   1.829   2.819   1.281  0.0224 -0.4601  2.1906
 9764SOL     OW30190   2.052   3.371   5.400 -0.1730 -0.3120  0.1497
 9764SOL    HW130191   2.096   3.444   5.349  0.6715 -1.6576 -1.1303
 9764SOL    HW230192   2.011   3.306   5.336 -0.5184 -1.2010  1.2334
 9765SOL     OW30193   5.432   3.705   4.311  0.4486 -0.2040 -0.1739
 9765SOL    HW130194   5.440   3.799   4.343  1.5350 -0.5968  0.7916
 9765SOL    HW230195   5.336   3.682   4.298  0.2183  1.4424 -1.7421
 9766SOL     OW30196   3.037   2.134   1.563  0.2536 -0.0426  0.1873
 9766SOL    HW130197   3.022   2.041   1.529 -0.3493 -0.0957  0.5846
 9766SOL    HW230198   3.008   2.140   1.658  1.3946  0.2558  0.5368
 9767SOL     OW30199   3.213   5.669   3.823 -0.2070 -0.0262  0.2676
 9767SOL    HW130200   3.210   5.585   3.769  1.0075 -0.6706  1.1365
 9767SOL    HW230201   3.288   5.727   3.790  1.1893 -0.8668  1.7995
 9768SOL     OW30202   4.867   3.846   2.420 -0.4580 -0.6153 -0.2918
 9768SOL    HW130203   4.965   3.826   2.424 -0.7018 -1.7472  1.9430
 9768SOL    HW230204   4.833   3.829   2.328  1.5337  0.4592 -1.3025
 9769SOL     OW30205   0.064   1.148   6.046  0.0628 -0.3919  0.0891
 9769SOL    HW130206   0.054   1.130   6.144  0.4822  0.9998  0.4073
 9769SOL    HW230207   0.156   1.180   6.027 -0.2178  0.0097 -0.6507
 9770SOL     OW30208   0.121   2.242   4.893  0.9742  0.5197  0.5673
 9770SOL    HW130209   0.054   2.271   4.825  0.7256 -1.6716 -0.2098
 9770SOL    HW230210   0.092   2.271   4.984 -1.1752 -0.6055  0.2848
 9771SOL     OW30211   1.238   4.560   2.528  0.0030  0.1829 -0.7144
 9771SOL    HW130212   1.189   4.537   2.444 -0.0516  0.1084 -0.6629
 9771SOL    HW230213   1.215   4.653   2.555  1.2035  0.7708 -1.6173
 9772SOL     OW30214   5.810   5.902   2.109 -0.3978  1.0983 -0.2223
 9772SOL    HW130215   5.716   5.906   2.073 -0.4205  0.7905 -0.2041
 9772SOL    HW230216   5.867   5.850   2.045 -0.6830 -0.4140  0.6918
 9773SOL     OW30217   6.726   4.223   4.438 -0.2464  0.3544  0.3566
 9773SOL    HW130218   6.749   4.185   4.528 -3.6061  0.7878  1.5417
 9773SOL    HW230219   6.648   4.174   4.400 -0.6086  1.9483 -1.0849
 9774SOL     OW30220   5.006   0.212   5.154 -0.3830  0.5453  0.1223
 9774SOL    HW130221   4.934   0.257   5.207 -1.2942  0.0844 -0.7060
 9774SOL    HW230222   4.984   0.216   5.057 -0.7682 -2.1141  0.0435
 9775SOL     OW30223   3.815   0.818   7.016  0.6390  0.5619  0.0814
 9775SOL    HW130224   3.809   0.792   6.920  3.6291 -1.2418  0.2621
 9775SOL    HW230225   3.894   0.877   7.030 -0.6598  2.1137  1.2450
 9776SOL     OW30226   2.494   4.588   4.662 -0.0443  0.4162  0.0779
 9776SOL    HW130227   2.446   4.520   4.608 -0.2336  1.8299 -1.6175
 9776SOL    HW230228   2.435   4.668   4.675  0.7776  0.9634  0.5244
 9777SOL     OW30229   5.734   0.151   5.923  0.5559 -0.2717  0.0889
 9777SOL    HW130230   5.810   0.126   5.862 -0.3350 -2.1220 -0.3409
 9777SOL    HW230231   5.769   0.163   6.016  1.5564  0.1699 -0.3270
 9778SOL     OW30232   2.599   1.439   5.665  0.1542  0.1117  0.0730
 9778SOL    HW130233   2.671   1.388   5.617 -1.1240 -1.8231  0.0961
 9778SOL    HW230234   2.553   1.500   5.600 -0.3406 -1.1121 -0.7652
 9779SOL     OW30235   3.661   0.492   0.698 -0.1445  0.6170  0.2624
 9779SOL    HW130236   3.605   0.568   0.731 -0.9953  0.8156 -1.5222
 9779SOL    HW230237   3.602   0.418   0.665  0.6218  0.5439 -1.0262
 9780SOL     OW30238   2.562   2.408   0.060 -0.6362  0.5565  0.0153
 9780SOL    HW130239   2.591   2.318   0.092  0.5492  0.2798 -1.6903
 9780SOL    HW230240   2.590   2.477   0.127 -0.8549 -0.2466  0.9658
 9781SOL     OW30241   6.628   6.270   5.240  0.3396 -0.3221  0.6070
 9781SOL    HW130242   6.651   6.364   5.265  1.4773 -0.9389  2.0342
 9781SOL    HW230243   6.665   6.207   5.309  0.0726 -1.8663 -0.6008
 9782SOL     OW30244   3.815   1.839   1.431  0.1799 -1.0866 -0.9117
 9782SOL    HW130245   3.831   1.827   1.528  1.7491  0.7408 -0.8895
 9782SOL    HW230246   3.717   1.853   1.415 -0.2060 -2.2420  0.2602
 9783SOL     OW30247   6.545   0.607   3.764  0.1526  0.6857  0.0978
 9783SOL    HW130248   6.574   0.530   3.706  2.3005  0.7918  0.9174
 9783SOL    HW230249   6.446   0.618   3.758  0.3020  1.2347 -4.1834
 9784SOL     OW30250   5.780   1.428   6.569  0.1252  0.1728  0.5698
 9784SOL    HW130251   5.861   1.486   6.578  0.4207 -0.1121 -0.1996
 9784SOL    HW230252   5.722   1.440   6.650 -0.4028  2.4166 -0.0645
 9785SOL     OW30253   3.151   4.031   0.513  0.1639 -0.4979  0.3789
 9785SOL    HW130254   3.185   3.943   0.480  0.2419 -0.0315 -0.8502
 9785SOL    HW230255   3.052   4.034   0.505  0.0743 -0.7900  1.2587
 9786SOL     OW30256   2.278   6.854   4.526 -0.0948 -0.1766  0.1748
 9786SOL    HW130257   2.307   6.852   4.621 -1.0337  0.9383  0.5036
 9786SOL    HW230258   2.289   6.763   4.486  0.9151 -0.5002  1.1508
 9787SOL     OW30259   5.089   4.108   0.571  0.1312  1.1811 -0.5496
 9787SOL    HW130260   5.032   4.144   0.645  0.2845  0.7118 -0.2057
 9787SOL    HW230261   5.183   4.097   0.602 -0.2618 -1.3458 -0.0113
 9788SOL     OW30262   5.353   1.211   6.125  0.5508 -0.1760 -0.1686
 9788SOL    HW130263   5.352   1.157   6.040 -0.1802  0.3246 -0.4917
 9788SOL    HW230264   5.318   1.155   6.200  0.5291 -0.3978 -0.3419
 9789SOL     OW30265   1.889   3.189   4.461 -0.0676 -0.1111 -0.1509
 9789SOL    HW130266   1.850   3.249   4.531 -0.8245  0.1830 -0.8136
 9789SOL    HW230267   1.981   3.221   4.437 -0.0438  0.1434  0.2738
 9790SOL     OW30268   6.610   0.209   5.035 -0.1602 -0.1371 -0.7380
 9790SOL    HW130269   6.661   0.144   5.091  0.9535 -0.2925 -1.8633
 9790SOL    HW230270   6.668   0.289   5.016 -1.3977  1.0723  0.3753
 9791SOL     OW30271   2.195   2.812   6.595 -0.0042  0.1137 -0.2362
 9791SOL    HW130272   2.204   2.769   6.505 -0.5663  0.5326 -0.4988
 9791SOL    HW230273   2.106   2.857   6.602  0.2486  0.5431  0.3346
 9792SOL     OW30274   4.326   6.267   4.719  0.6276 -0.2644 -0.1780
 9792SOL    HW130275   4.365   6.298   4.632  1.1247 -0.4806 -0.0348
 9792SOL    HW230276   4.307   6.345   4.777  1.4671 -0.1907  0.0120
 9793SOL     OW30277   4.807   5.368   1.839 -0.7204  1.0105 -0.1338
 9793SOL    HW130278   4.798   5.459   1.798 -2.5912  1.0417  0.2597
 9793SOL    HW230279   4.750   5.304   1.789 -1.9495  0.7519  1.5218
 9794SOL     OW30280   4.796   4.943   5.698 -0.3625  0.0199  0.2502
 9794SOL    HW130281   4.812   5.035   5.732  2.7350 -0.0251 -0.7167
 9794SOL    HW230282   4.775   4.882   5.775 -1.7512  1.3664  0.9795
 9795SOL     OW30283   2.717   5.229   3.671 -0.6067  1.1255  0.8942
 9795SOL    HW130284   2.665   5.210   3.755  0.8349 -0.6970  1.4323
 9795SOL    HW230285   2.653   5.258   3.599 -2.4851 -1.3054  1.4193
 9796SOL     OW30286   4.770   6.590   0.218 -0.1697 -0.4693  0.1900
 9796SOL    HW130287   4.742   6.526   0.289  0.5342 -0.3114  0.6197
 9796SOL    HW230288   4.732   6.681   0.237  0.7113 -0.2269  0.8365
 9797SOL     OW30289   6.473   2.451   5.132  0.4481  0.0837  0.0398
 9797SOL    HW130290   6.442   2.505   5.053  1.5416  0.0033 -0.4676
 9797SOL    HW230291   6.564   2.482   5.159  0.5325 -0.6215  0.5920
 9798SOL     OW30292   4.034   2.683   1.423  0.3207 -0.2450 -0.0347
 9798SOL    HW130293   3.967   2.725   1.484  0.0861 -0.5306 -0.0885
 9798SOL    HW230294   4.000   2.686   1.329 -0.0194 -1.1482  0.0414
 9799SOL     OW30295   3.784   3.436   1.705 -0.0880  0.0589  0.0464
 9799SOL    HW130296   3.834   3.470   1.625 -0.9610 -1.2295 -1.0938
 9799SOL    HW230297   3.695   3.401   1.676 -1.4931  1.8185  1.9505
 9800SOL     OW30298   4.906   5.962   0.325  0.2255 -0.5117  0.1894
 9800SOL    HW130299   4.954   5.981   0.410  2.7521 -0.1296 -1.2094
 9800SOL    HW230300   4.853   5.878   0.334  2.0634 -1.5936  1.5474
 9801SOL     OW30301   4.364   5.809   2.030 -0.5050 -0.6718  0.0183
 9801SOL    HW130302   4.450   5.860   2.024 -0.3514 -0.7855  1.0626
 9801SOL    HW230303   4.367   5.731   1.967  0.8630 -1.6529  1.2155
 9802SOL     OW30304   1.523   5.809   1.772  0.4243 -0.6196 -0.1901
 9802SOL    HW130305   1.568   5.749   1.705 -0.5761  1.9494 -3.4652
 9802SOL    HW230306   1.432   5.833   1.739  0.2050  1.4581  1.7040
 9803SOL     OW30307   3.378   5.190   6.159 -0.1324 -0.2735  0.0046
 9803SOL    HW130308   3.377   5.258   6.232 -0.7146 -0.1555 -0.1048
 9803SOL    HW230309   3.285   5.177   6.124  0.2450  0.2153 -1.2296
 9804SOL     OW30310   2.839   6.354   3.549  0.1027 -0.0022 -0.6524
 9804SOL    HW130311   2.837   6.448   3.584  0.2729 -0.6922  1.3523
 9804SOL    HW230312   2.930   6.335   3.511  0.4477  0.3041 -0.0102
 9805SOL     OW30313   4.040   3.875   0.431  0.4072  0.5222  0.1297
 9805SOL    HW130314   4.006   3.843   0.520 -1.3018  0.5851 -0.4698
 9805SOL    HW230315   4.030   3.803   0.363  1.7120  0.4742 -0.0312
 9806SOL     OW30316   6.945   0.044   3.067  0.8983  0.6288  0.2578
 9806SOL    HW130317   7.020   0.020   3.128  1.2715  1.7078  0.2387
 9806SOL    HW230318   6.951  -0.011   2.983  0.1694 -1.1405  1.2969
 9807SOL     OW30319   2.162   3.282   1.698 -0.0076 -0.3609  0.1073
 9807SOL    HW130320   2.221   3.314   1.773 -0.4049  2.2006 -0.6119
 9807SOL    HW230321   2.072   3.258   1.734  0.4087 -1.0919  0.7074
 9808SOL     OW30322   2.253   1.258   3.874  0.4730  0.7705 -0.3713
 9808SOL    HW130323   2.340   1.210   3.866 -0.8018 -1.8355  0.0998
 9808SOL    HW230324   2.234   1.278   3.970  0.0751  0.3298 -0.3533
 9809SOL     OW30325   0.384   1.261   5.454 -0.1402 -0.3256  0.1746
 9809SOL    HW130326   0.418   1.347   5.491  1.3946 -0.4396 -0.8497
 9809SOL    HW230327   0.300   1.277   5.403 -1.3395  0.0963  2.1838
 9810SOL     OW30328   3.988   0.817   2.850 -0.3924  0.1820 -0.5251
 9810SOL    HW130329   3.979   0.771   2.761  3.1521 -0.0614 -0.8732
 9810SOL    HW230330   4.026   0.908   2.836  0.3941  0.0626  0.7622
 9811SOL     OW30331   2.259   6.415   2.615 -0.0880  0.1147 -0.4175
 9811SOL    HW130332   2.303   6.426   2.704 -0.7796 -0.4091 -0.0079
 9811SOL    HW230333   2.221   6.323   2.607  0.0535  0.1207 -1.2984
 9812SOL     OW30334   7.019   1.629   6.252  1.0345  0.0098 -0.6407
 9812SOL    HW130335   6.982   1.702   6.195  1.7803 -0.6974 -2.0675
 9812SOL    HW230336   6.949   1.559   6.267  0.7763  0.2958 -0.5029
 9813SOL     OW30337   6.962   3.937   0.099  0.0550 -0.0030  0.1835
 9813SOL    HW130338   6.878   3.985   0.076 -1.1307 -0.8108  2.4665
 9813SOL    HW230339   6.989   3.959   0.193  1.1846 -1.4378  0.2405
 9814SOL     OW30340   0.224   0.977   5.300  0.0542  0.0679 -0.0088
 9814SOL    HW130341   0.229   0.940   5.393  1.0463  0.4656  0.1127
 9814SOL    HW230342   0.131   1.005   5.280 -0.4545 -1.2711  0.3714
 9815SOL     OW30343   0.631   5.074   1.473  0.0756 -0.1469 -0.6824
 9815SOL    HW130344   0.656   5.017   1.396  1.3674  1.7406 -1.7500
 9815SOL    HW230345   0.610   5.167   1.441 -2.0272  0.0176  0.9561
 9816SOL     OW30346   6.626   3.285   4.642  0.1785  0.2500 -0.2532
 9816SOL    HW130347   6.722   3.267   4.626  0.2626  0.6003 -0.1555
 9816SOL    HW230348   6.611   3.300   4.740 -0.0944 -0.5021 -0.1712
 9817SOL     OW30349   3.463   1.581   6.901 -0.0378 -0.0022  0.6765
 9817SOL    HW130350   3.497   1.491   6.873 -0.5290 -0.2883  0.9710
 9817SOL    HW230351   3.447   1.581   7.000  0.2443  0.5061  0.7207
 9818SOL     OW30352   0.960   0.620   3.078  0.8663 -0.5083  0.6463
 9818SOL    HW130353   1.020   0.571   3.141  1.9582  0.7460  0.6331
 9818SOL    HW230354   1.007   0.632   2.990 -0.4678 -1.8632 -0.2990
 9819SOL     OW30355   4.373   1.000   5.208  0.0831 -0.1661  0.0107
 9819SOL    HW130356   4.317   0.964   5.133 -0.1566 -0.5600  0.3746
 9819SOL    HW230357   4.326   1.078   5.250 -0.0580 -0.3101  0.1232
 9820SOL     OW30358   3.621   0.577   5.415  0.4406 -0.1559  0.5415
 9820SOL    HW130359   3.681   0.570   5.335 -0.5943  0.3057 -0.2941
 9820SOL    HW230360   3.669   0.624   5.488  1.7747 -1.4873  0.5805
 9821SOL     OW30361   5.874   4.933   3.873 -0.4918 -0.1133  0.3792
 9821SOL    HW130362   5.878   4.902   3.968  0.8174 -0.8410  0.1108
 9821SOL    HW230363   5.779   4.933   3.841 -0.9702  0.3685  1.7484
 9822SOL     OW30364   2.138   5.686   3.479 -0.3120 -0.4656  0.1137
 9822SOL    HW130365   2.085   5.602   3.460 -1.2910  0.2527 -0.4281
 9822SOL    HW230366   2.083   5.766   3.454  1.6441  0.3143 -2.0977
 9823SOL     OW30367   4.193   0.472   4.331  0.2411 -0.3277 -0.2281
 9823SOL    HW130368   4.239   0.443   4.415  1.5011  1.1955 -0.3364
 9823SOL    HW230369   4.101   0.432   4.328  0.7630 -1.7412  1.0504
 9824SOL     OW30370   2.109   4.782   6.035 -0.6292  0.2929 -0.4755
 9824SOL    HW130371   2.011   4.761   6.031 -0.3640 -0.9043 -0.9721
 9824SOL    HW230372   2.141   4.772   6.130 -0.7826 -0.3003 -0.4844
 9825SOL     OW30373   6.700   4.794   4.023  0.1224 -0.2206  0.0552
 9825SOL    HW130374   6.795   4.814   4.049 -0.0601  2.8320 -1.2106
 9825SOL    HW230375   6.698   4.710   3.968  2.3445  0.4534 -1.1969
 9826SOL     OW30376   0.439   5.072   4.015 -0.1985 -0.1386 -0.4916
 9826SOL    HW130377   0.392   4.991   4.048  0.8673 -0.9156 -0.8245
 9826SOL    HW230378   0.382   5.118   3.946 -1.1271 -0.1688  0.2351
 9827SOL     OW30379   1.500   5.118   0.694  0.8364 -0.6067  0.4127
 9827SOL    HW130380   1.517   5.157   0.785  1.8790  0.2887 -0.1277
 9827SOL    HW230381   1.547   5.030   0.686 -1.3110 -1.9450  1.5522
 9828SOL     OW30382   5.257   2.240   3.883 -0.2458 -0.1588  0.2477
 9828SOL    HW130383   5.320   2.207   3.953 -1.3445  0.2041  1.4622
 9828SOL    HW230384   5.292   2.326   3.844  1.0773 -1.0878 -0.7086
 9829SOL     OW30385   5.722   2.853   4.526 -0.2540  0.2746  1.0302
 9829SOL    HW130386   5.667   2.811   4.597  0.2115  0.9665  1.8116
 9829SOL    HW230387   5.666   2.870   4.445 -0.8425 -0.2938  1.3166
 9830SOL     OW30388   6.629   5.713   3.803 -0.1838  0.3000 -0.9015
 9830SOL    HW130389   6.604   5.800   3.759  1.4688  0.4105 -1.7120
 9830SOL    HW230390   6.713   5.726   3.856 -0.7193 -0.4847  0.1713
 9831SOL     OW30391   0.104   5.725   1.189 -0.5114 -0.4071  0.4208
 9831SOL    HW130392   0.016   5.768   1.166 -0.4811 -1.4200 -1.8458
 9831SOL    HW230393   0.090   5.658   1.261 -1.0025  1.5348  2.2287
 9832SOL     OW30394   4.844   5.675   5.847  0.0281  0.0199 -0.0720
 9832SOL    HW130395   4.919   5.657   5.784  0.8287 -0.8024  1.0993
 9832SOL    HW230396   4.843   5.773   5.870  0.6998  0.0473 -0.1386
 9833SOL     OW30397   3.432   2.851   3.133 -0.1153  0.7580 -0.3546
 9833SOL    HW130398   3.349   2.884   3.088 -0.3086  0.8030  0.0296
 9833SOL    HW230399   3.510   2.863   3.072 -0.3214  1.1214 -0.5513
 9834SOL     OW30400   3.169   0.406   5.339  0.3805  0.1187 -0.1169
 9834SOL    HW130401   3.151   0.361   5.252  0.1549 -0.3144  0.1446
 9834SOL    HW230402   3.133   0.349   5.413  0.1931  0.6813  0.2308
 9835SOL     OW30403   3.300   4.118   3.094  0.3158  0.1024 -0.3851
 9835SOL    HW130404   3.278   4.215   3.095 -1.4833 -0.2424 -1.4587
 9835SOL    HW230405   3.220   4.066   3.063  1.0315 -1.7847  0.7534
 9836SOL     OW30406   6.635   3.394   5.700 -0.3093  0.7460  0.0872
 9836SOL    HW130407   6.662   3.477   5.651  1.6459 -0.0092 -0.1912
 9836SOL    HW230408   6.610   3.418   5.794  1.5557  1.5322  0.4395
 9837SOL     OW30409   4.647   2.710   3.790  0.2098 -0.7554  0.1316
 9837SOL    HW130410   4.619   2.782   3.854  1.1556 -1.3273  1.2174
 9837SOL    HW230411   4.732   2.669   3.821  0.3222 -1.5314 -1.1390
 9838SOL     OW30412   6.624   0.159   0.044  0.5967  0.3611 -0.2428
 9838SOL    HW130413   6.611   0.246   0.091  0.3199  0.2783 -0.1621
 9838SOL    HW230414   6.689   0.103   0.094 -2.2997 -1.1944  2.0999
 9839SOL     OW30415   4.674   5.951   4.045  0.6642 -0.3891 -0.3579
 9839SOL    HW130416   4.770   5.950   4.074  0.6585 -0.6663 -0.3428
 9839SOL    HW230417   4.645   5.857   4.025  0.0396 -0.4784  0.8295
 9840SOL     OW30418   0.628   4.235   4.810 -0.2385  0.1200  0.4839
 9840SOL    HW130419   0.571   4.310   4.843  0.0421 -0.2999  2.0093
 9840SOL    HW230420   0.721   4.268   4.793 -0.2815  0.2511  0.5015
 9841SOL     OW30421   6.352   5.191   3.633 -0.0119 -0.1929  0.2214
 9841SOL    HW130422   6.355   5.099   3.594  2.0358 -0.2858  0.5062
 9841SOL    HW230423   6.351   5.258   3.560 -1.3115 -0.4142  0.0126
 9842SOL     OW30424   3.444   0.129   0.984 -0.1326 -0.1370  0.0694
 9842SOL    HW130425   3.349   0.116   0.954 -0.0358 -0.5460 -0.0710
 9842SOL    HW230426   3.462   0.070   1.063 -0.8490  2.0756  1.9904
 9843SOL     OW30427   0.349   1.892   1.392  0.1149  0.3635  0.0238
 9843SOL    HW130428   0.376   1.798   1.414 -2.1182 -0.3879 -0.1958
 9843SOL    HW230429   0.344   1.903   1.293  1.4882  1.0891  0.0140
 9844SOL     OW30430   5.202   6.772   3.584  0.2656 -0.4756 -0.1856
 9844SOL    HW130431   5.166   6.865   3.577 -0.3736 -0.7529 -0.6170
 9844SOL    HW230432   5.292   6.768   3.540  0.9852  0.2852  1.1511
 9845SOL     OW30433   6.248   3.853   2.058 -0.1845 -0.0532  0.5217
 9845SOL    HW130434   6.296   3.775   2.017 -0.7503  0.1086 -0.4881
 9845SOL    HW230435   6.150   3.833   2.063 -0.2498  0.3392  0.8780
 9846SOL     OW30436   4.319   2.000   1.327 -0.4800  0.7539 -0.8528
 9846SOL    HW130437   4.418   1.997   1.338 -0.5012 -0.6991 -0.8907
 9846SOL    HW230438   4.291   1.933   1.257 -1.6304 -0.1006  0.3718
 9847SOL     OW30439   3.569   2.781   6.331 -0.3188  0.2554 -0.0296
 9847SOL    HW130440   3.572   2.880   6.318 -0.4776  0.1941 -0.5535
 9847SOL    HW230441   3.589   2.735   6.245 -2.6359 -0.1567 -0.4250
 9848SOL     OW30442   2.665   2.724   0.589  0.2970 -0.0583  0.4305
 9848SOL    HW130443   2.595   2.652   0.588  1.6349 -1.4300  0.9333
 9848SOL    HW230444   2.631   2.803   0.538 -1.1933 -1.0718 -0.2654
 9849SOL     OW30445   0.793   2.441   2.162 -0.3046  0.3155 -0.5163
 9849SOL    HW130446   0.793   2.442   2.062  2.2732  1.9735 -0.5931
 9849SOL    HW230447   0.703   2.472   2.195 -1.2984 -0.5376 -2.2774
 9850SOL     OW30448   2.206   6.584   4.680 -0.4781  0.1919 -0.0639
 9850SOL    HW130449   2.252   6.545   4.601 -0.5893 -0.4619  0.1830
 9850SOL    HW230450   2.139   6.519   4.715 -0.4180  0.4606  0.5768
 9851SOL     OW30451   3.729   6.341   4.868  0.1377 -0.2703  0.1382
 9851SOL    HW130452   3.751   6.331   4.965  0.0078  0.0437  0.1995
 9851SOL    HW230453   3.743   6.253   4.822  0.5950 -0.3153  0.3600
 9852SOL     OW30454   2.817   4.701   6.762  0.5094  0.3076  0.2572
 9852SOL    HW130455   2.798   4.687   6.859 -0.6315 -1.2039 -0.1367
 9852SOL    HW230456   2.907   4.664   6.740 -0.9624 -3.5612 -0.0156
 9853SOL     OW30457   1.001   1.413   3.459  0.1011  0.1938  0.3780
 9853SOL    HW130458   1.025   1.481   3.390  0.6968  0.4259  0.8051
 9853SOL    HW230459   0.919   1.364   3.430  0.6776 -0.1291 -0.7875
 9854SOL     OW30460   0.598   4.160   6.966  0.3390  0.1070 -0.5269
 9854SOL    HW130461   0.696   4.154   6.945  0.9137  0.8387  1.7019
 9854SOL    HW230462   0.573   4.087   7.029 -0.3172  0.5491 -0.2669
 9855SOL     OW30463   6.573   2.294   1.769 -0.1490  0.7715  0.2916
 9855SOL    HW130464   6.513   2.271   1.692 -0.0546 -1.9853  0.9430
 9855SOL    HW230465   6.658   2.333   1.735  1.3313 -3.4097 -1.4537
 9856SOL     OW30466   4.380   4.553   3.161  0.0092  0.2342  0.2140
 9856SOL    HW130467   4.310   4.580   3.094 -0.6209 -1.0571  0.3189
 9856SOL    HW230468   4.463   4.526   3.113  0.1213  0.8640  0.0419
 9857SOL     OW30469   4.395   6.060   6.192  0.0061 -0.1396  0.6317
 9857SOL    HW130470   4.411   5.999   6.271  0.6593  0.2756  0.8258
 9857SOL    HW230471   4.358   6.007   6.116 -0.4102 -0.5916  1.1424
 9858SOL     OW30472   6.708   5.255   2.558  0.4589  0.5927 -0.7455
 9858SOL    HW130473   6.690   5.205   2.643  1.3423 -0.6398 -1.2583
 9858SOL    HW230474   6.630   5.245   2.496  1.0140 -1.0363 -1.2328
 9859SOL     OW30475   0.406   5.171   3.726 -0.2314  0.1673 -0.4988
 9859SOL    HW130476   0.358   5.171   3.638 -1.3518 -0.5579  0.0831
 9859SOL    HW230477   0.503   5.155   3.711 -0.4577 -0.3151 -1.5824
 9860SOL     OW30478   0.711   2.566   4.812  0.4393  0.8314  0.4627
 9860SOL    HW130479   0.699   2.501   4.886 -1.8577  0.5720 -0.0558
 9860SOL    HW230480   0.779   2.531   4.747 -0.4471 -0.8711  0.4095
 9861SOL     OW30481   2.311   2.486   3.991  0.5936 -0.0012  0.1786
 9861SOL    HW130482   2.290   2.427   4.069  1.3755 -1.3596 -0.5815
 9861SOL    HW230483   2.331   2.429   3.911  0.8065  1.3300 -0.7567
 9862SOL     OW30484   1.287   2.562   5.882  0.5916 -0.0641 -0.0880
 9862SOL    HW130485   1.294   2.635   5.814 -1.2400 -0.6310 -0.9465
 9862SOL    HW230486   1.224   2.491   5.849 -0.0910 -0.5335  2.0401
 9863SOL     OW30487   4.084   6.209   2.446  0.0908  0.0422  0.2158
 9863SOL    HW130488   4.123   6.145   2.380 -1.0084 -1.3144  0.8288
 9863SOL    HW230489   4.018   6.162   2.503  1.9012  0.8348  3.1903
 9864SOL     OW30490   3.514   6.006   4.923  0.1762 -0.3791 -0.5178
 9864SOL    HW130491   3.479   6.086   4.972  0.7593 -1.0891  1.1243
 9864SOL    HW230492   3.467   5.999   4.834  0.2932  1.8961 -0.8287
 9865SOL     OW30493   2.384   3.687   5.966 -0.6247 -0.5107  0.3047
 9865SOL    HW130494   2.449   3.649   6.032 -0.6833 -1.2134 -0.0310
 9865SOL    HW230495   2.413   3.778   5.939 -0.0275 -0.6401  0.5055
 9866SOL     OW30496   5.759   3.468   2.449  0.3521 -0.5330  0.6506
 9866SOL    HW130497   5.755   3.568   2.450 -0.8044 -0.5419 -0.7617
 9866SOL    HW230498   5.855   3.439   2.455  0.8497  0.7089 -0.7682
 9867SOL     OW30499   6.527   1.153   1.843 -0.6196 -0.3281 -0.1346
 9867SOL    HW130500   6.608   1.206   1.817 -0.2933 -0.0231  1.3659
 9867SOL    HW230501   6.445   1.196   1.805 -0.3381  1.1530  0.8370
 9868SOL     OW30502   2.768   5.080   3.010  0.0711 -0.3336 -0.2197
 9868SOL    HW130503   2.703   5.052   3.080  0.0337 -0.8574 -0.4541
 9868SOL    HW230504   2.831   5.004   2.990  0.4281 -0.0074 -0.3611
 9869SOL     OW30505   5.550   2.579   2.342  0.1096 -0.6025 -0.0072
 9869SOL    HW130506   5.503   2.509   2.396 -0.0204  0.2338  1.0016
 9869SOL    HW230507   5.638   2.543   2.310  0.5357 -0.9006  1.3942
 9870SOL     OW30508   1.991   2.041   2.321  0.5268  0.5621 -1.1070
 9870SOL    HW130509   1.994   2.082   2.230 -0.8127  0.7065 -1.1051
 9870SOL    HW230510   2.065   1.975   2.330  0.9732  0.8956 -2.1200
 9871SOL     OW30511   5.156   4.419   2.580  0.6497  0.3752 -0.6860
 9871SOL    HW130512   5.102   4.437   2.498 -1.1451  0.5554  0.4679
 9871SOL    HW230513   5.125   4.479   2.654 -0.5818 -2.3992  1.2329
 9872SOL     OW30514   0.333   0.174   4.761 -0.4549  0.4314  0.0239
 9872SOL    HW130515   0.258   0.144   4.703 -0.6398  2.1974 -0.7090
 9872SOL    HW230516   0.385   0.246   4.714  0.5590  0.5485  1.2722
 9873SOL     OW30517   0.345   0.789   5.501 -0.1846 -0.3137  0.1518
 9873SOL    HW130518   0.356   0.762   5.597  1.8017  0.5543  0.2175
 9873SOL    HW230519   0.418   0.748   5.446 -0.9100 -0.2562 -0.8763
 9874SOL     OW30520   5.550   0.261   2.157  0.1317 -0.0291 -0.1030
 9874SOL    HW130521   5.452   0.242   2.149 -0.1683  1.2085  0.4250
 9874SOL    HW230522   5.601   0.176   2.145 -0.9371 -0.5236 -1.4901
 9875SOL     OW30523   6.483   5.805   1.467 -0.0655  0.0827  0.2113
 9875SOL    HW130524   6.540   5.734   1.426 -0.4398 -0.3251  0.3822
 9875SOL    HW230525   6.443   5.861   1.394 -1.3102 -1.0896 -0.0554
 9876SOL     OW30526   0.184   5.584   3.396  0.6562 -0.5700  0.7192
 9876SOL    HW130527   0.085   5.590   3.386  0.3933  0.3711  3.2310
 9876SOL    HW230528   0.214   5.489   3.381 -0.2799 -0.5119 -2.0796
 9877SOL     OW30529   2.455   0.785   4.564  0.3889  0.1498  0.1418
 9877SOL    HW130530   2.471   0.708   4.503  0.7519  0.4130 -0.1009
 9877SOL    HW230531   2.471   0.871   4.515  1.8831  0.3502  0.9224
 9878SOL     OW30532   3.899   3.265   0.417  0.3453  0.0205 -0.3500
 9878SOL    HW130533   3.946   3.282   0.330  0.0665 -0.3573 -0.5791
 9878SOL    HW230534   3.817   3.322   0.422  1.4242  1.5661  0.5681
 9879SOL     OW30535   6.085   3.413   4.164  0.3494  0.2551  0.0362
 9879SOL    HW130536   6.106   3.315   4.163  0.7198  0.2641 -3.0364
 9879SOL    HW230537   5.986   3.427   4.164  0.2778 -0.1859 -0.9253
 9880SOL     OW30538   0.684   6.545   6.358 -0.1766 -0.1773  0.4943
 9880SOL    HW130539   0.704   6.447   6.359 -1.4218 -0.4823  2.7875
 9880SOL    HW230540   0.605   6.563   6.298  2.4862  0.1209 -3.2576
 9881SOL     OW30541   5.215   6.737   4.912  0.2649  0.3664 -0.0094
 9881SOL    HW130542   5.273   6.705   4.837  1.2294  1.2357  0.3327
 9881SOL    HW230543   5.195   6.834   4.899 -0.8443  0.1605  0.0658
 9882SOL     OW30544   3.416   4.430   6.007 -0.0424  0.1641 -0.6023
 9882SOL    HW130545   3.319   4.439   5.984 -0.0919 -0.9081 -0.8439
 9882SOL    HW230546   3.431   4.347   6.061  0.6050  0.8260  0.2673
 9883SOL     OW30547   1.442   6.481   4.164  0.5193 -0.0168 -0.4290
 9883SOL    HW130548   1.355   6.500   4.209 -0.2679 -1.9021 -1.0628
 9883SOL    HW230549   1.458   6.549   4.092  0.4607  1.3690  0.8068
 9884SOL     OW30550   4.517   4.180   5.779  0.2082 -0.4809  0.5226
 9884SOL    HW130551   4.592   4.118   5.755  1.6230  1.5377 -0.6196
 9884SOL    HW230552   4.446   4.176   5.709  0.3632 -0.7142  0.3795
 9885SOL     OW30553   5.005   2.168   3.855  0.1655 -0.0199  0.0189
 9885SOL    HW130554   5.099   2.187   3.884 -0.3532 -0.2369  1.9491
 9885SOL    HW230555   5.006   2.093   3.788  1.3000 -0.5287  0.5761
 9886SOL     OW30556   3.211   5.238   3.256  0.7700  0.1234  0.5472
 9886SOL    HW130557   3.138   5.170   3.268  0.6616  0.3814  1.4715
 9886SOL    HW230558   3.292   5.208   3.306  1.4421 -0.3537 -0.8046
 9887SOL     OW30559   5.901   0.220   0.228 -0.1264 -0.3079  0.0519
 9887SOL    HW130560   5.951   0.263   0.152 -1.8671  0.0403 -0.9400
 9887SOL    HW230561   5.893   0.122   0.212  1.0168 -0.5207  0.6863
 9888SOL     OW30562   1.366   6.099   5.327 -0.3336 -0.0197  0.0178
 9888SOL    HW130563   1.341   6.003   5.314  3.2639 -0.9548 -1.3194
 9888SOL    HW230564   1.317   6.156   5.261 -0.3928 -1.3537 -1.1250
 9889SOL     OW30565   0.920   4.447   1.651  0.5622 -0.0180  0.3060
 9889SOL    HW130566   0.922   4.384   1.573  1.8583 -0.0424  0.3246
 9889SOL    HW230567   0.852   4.416   1.717  0.4647 -0.8223 -0.1525
 9890SOL     OW30568   1.301   2.301   2.819 -0.4730 -0.4068 -0.1795
 9890SOL    HW130569   1.328   2.216   2.865  1.2188 -0.9416 -2.0638
 9890SOL    HW230570   1.322   2.379   2.879 -3.4861 -1.2448  2.2633
 9891SOL     OW30571   2.607   0.623   1.494 -0.9046  0.6176 -0.0909
 9891SOL    HW130572   2.520   0.574   1.496 -1.0631  0.8721  1.9293
 9891SOL    HW230573   2.604   0.700   1.558  0.1514  1.8619 -1.4535
 9892SOL     OW30574   2.349   5.329   3.814  0.2063 -0.0673 -0.3852
 9892SOL    HW130575   2.400   5.244   3.832 -0.7126 -0.4867  0.3370
 9892SOL    HW230576   2.253   5.316   3.840  0.0949  1.2644 -0.0621
 9893SOL     OW30577   5.841   4.371   4.656  0.3617  0.5565 -0.5138
 9893SOL    HW130578   5.830   4.386   4.754  0.2145 -0.0361 -0.4317
 9893SOL    HW230579   5.809   4.451   4.606 -2.4160 -0.2554 -0.2062
 9894SOL     OW30580   4.691   3.148   6.313 -0.3464 -0.1452  0.3843
 9894SOL    HW130581   4.604   3.099   6.314 -1.5197  1.7224 -1.6858
 9894SOL    HW230582   4.766   3.082   6.318 -1.8529 -1.9446  0.4181
 9895SOL     OW30583   4.868   2.946   6.224  0.1447 -0.6725  0.4345
 9895SOL    HW130584   4.865   2.849   6.248 -3.1877 -0.4159  1.4494
 9895SOL    HW230585   4.842   2.958   6.128  0.8058 -0.7490  0.2352
 9896SOL     OW30586   2.971   3.846   5.381 -0.4099 -0.1735  0.0649
 9896SOL    HW130587   2.922   3.836   5.294 -0.6656 -0.3926  0.2297
 9896SOL    HW230588   2.987   3.943   5.400  1.1746 -0.1814 -1.0581
 9897SOL     OW30589   1.804   1.785   5.352 -0.6606  0.4605  0.6520
 9897SOL    HW130590   1.846   1.793   5.442  0.2147 -2.6145  0.6257
 9897SOL    HW230591   1.871   1.804   5.281 -0.4654 -0.2092  0.6493
 9898SOL     OW30592   0.419   3.427   6.304 -0.3418 -0.1497  0.1061
 9898SOL    HW130593   0.509   3.469   6.286 -0.5569  0.5657  0.6360
 9898SOL    HW230594   0.427   3.364   6.382 -0.2816 -0.1383  0.1092
 9899SOL     OW30595   5.829   6.084   1.273 -0.2721 -0.0889  0.0075
 9899SOL    HW130596   5.868   6.156   1.331  0.0406 -2.1675  2.5750
 9899SOL    HW230597   5.731   6.079   1.290 -0.9524  1.8158 -2.6961
 9900SOL     OW30598   3.111   6.439   4.753 -0.7041  0.1776  0.2473
 9900SOL    HW130599   3.088   6.532   4.780 -0.7794 -0.1087  1.2043
 9900SOL    HW230600   3.209   6.423   4.766 -0.6233  0.2380 -0.2737
 9901SOL     OW30601   2.197   0.164   0.058  0.2977  0.1400  0.6269
 9901SOL    HW130602   2.178   0.078   0.104 -0.5139 -0.4956 -0.8226
 9901SOL    HW230603   2.272   0.211   0.104  0.3193 -1.0236  1.8264
 9902SOL     OW30604   5.594   6.573   6.780 -0.0584 -0.4741  0.2862
 9902SOL    HW130605   5.684   6.581   6.737  0.3712  1.2916  1.4497
 9902SOL    HW230606   5.546   6.660   6.773 -0.6753 -0.6660  1.8453
 9903SOL     OW30607   4.299   1.757   2.174 -0.2383 -0.3504  0.2403
 9903SOL    HW130608   4.332   1.721   2.087 -1.3802  1.0687 -0.8298
 9903SOL    HW230609   4.217   1.706   2.202  0.5262 -1.2652  0.8717
 9904SOL     OW30610   6.653   5.170   2.194 -0.0451  0.1386 -0.0446
 9904SOL    HW130611   6.748   5.149   2.220 -0.0530 -1.8444 -1.3703
 9904SOL    HW230612   6.627   5.112   2.116 -2.0876  1.2451 -0.2314
 9905SOL     OW30613   0.860   5.241   0.949 -0.2796  0.2530  0.2812
 9905SOL    HW130614   0.835   5.333   0.920 -1.5251 -0.2571 -0.3183
 9905SOL    HW230615   0.847   5.232   1.048  0.8694  1.0131  0.5297
 9906SOL     OW30616   4.075   1.989   5.883 -0.4319  0.6341  0.4520
 9906SOL    HW130617   4.172   1.989   5.908 -0.3238 -1.0388  0.1432
 9906SOL    HW230618   4.020   2.009   5.964  0.1409  1.0726  0.7413
 9907SOL     OW30619   0.085   0.496   2.931  0.4000 -0.0376 -0.6965
 9907SOL    HW130620   0.025   0.423   2.962 -0.2735  0.7694 -0.0332
 9907SOL    HW230621   0.168   0.457   2.892  0.0746 -1.1439 -0.3240
 9908SOL     OW30622   0.227   1.390   6.114 -0.1755  0.0783  0.2048
 9908SOL    HW130623   0.215   1.488   6.130 -0.2934  0.2677 -0.9902
 9908SOL    HW230624   0.249   1.374   6.018  0.1160 -1.0492  0.4472
 9909SOL     OW30625   2.024   5.953   2.798 -0.5221  0.5480  0.8088
 9909SOL    HW130626   2.119   5.922   2.807 -0.5865  0.5190  1.4492
 9909SOL    HW230627   2.023   6.052   2.783 -0.4247  0.7915  2.2534
 9910SOL     OW30628   0.952   6.981   0.518  0.2127  0.0506  0.3626
 9910SOL    HW130629   0.901   7.063   0.495 -0.5026 -0.8879 -1.6434
 9910SOL    HW230630   0.890   6.911   0.552  0.4568 -0.3994 -0.0910
 9911SOL     OW30631   3.100   2.165   1.268  0.6826 -0.3301  0.1849
 9911SOL    HW130632   3.195   2.144   1.244  0.8906  0.0772  0.6293
 9911SOL    HW230633   3.083   2.141   1.363  0.3212 -0.4452  0.0952
 9912SOL     OW30634   6.323   0.126   6.682  0.1596 -0.4232 -0.3023
 9912SOL    HW130635   6.230   0.158   6.698 -0.0954  0.1777 -2.5693
 9912SOL    HW230636   6.385   0.167   6.749 -0.8438  1.2214 -0.3211
 9913SOL     OW30637   6.865   2.295   0.385 -0.3151  0.0824 -0.1334
 9913SOL    HW130638   6.842   2.392   0.395 -1.8935 -0.2322 -0.5142
 9913SOL    HW230639   6.888   2.276   0.289 -0.1916  0.0436 -0.0958
 9914SOL     OW30640   3.378   5.791   2.274 -0.3880 -0.5572 -0.2733
 9914SOL    HW130641   3.400   5.887   2.259 -0.0589 -0.3615  1.2666
 9914SOL    HW230642   3.280   5.776   2.258 -0.0985 -0.4380 -2.5124
 9915SOL     OW30643   0.852   4.894   5.721  0.1626 -0.3500  0.2349
 9915SOL    HW130644   0.949   4.904   5.741  0.0660  0.8828  0.2208
 9915SOL    HW230645   0.821   4.975   5.670 -1.0571 -0.2774  1.0514
 9916SOL     OW30646   1.181   3.106   0.226 -0.6097  0.1983 -0.2233
 9916SOL    HW130647   1.082   3.120   0.228 -0.6034  0.2685 -0.3799
 9916SOL    HW230648   1.201   3.008   0.237 -0.5830  0.4397  2.8838
 9917SOL     OW30649   2.517   5.601   4.185  0.2359 -0.0154 -0.2814
 9917SOL    HW130650   2.420   5.625   4.192  0.2639 -0.0826  0.3299
 9917SOL    HW230651   2.555   5.641   4.101 -0.2514  0.2342 -0.3876
 9918SOL     OW30652   3.291   1.359   4.198  0.9319 -0.1149 -0.0393
 9918SOL    HW130653   3.221   1.291   4.174  1.7021 -1.1755  0.5858
 9918SOL    HW230654   3.302   1.424   4.124 -1.4374  0.7224  0.2501
 9919SOL     OW30655   6.965   0.448   0.416 -0.1100 -0.4556  0.7521
 9919SOL    HW130656   7.050   0.459   0.365 -0.5562 -1.1276 -0.1722
 9919SOL    HW230657   6.887   0.470   0.357 -0.5756  0.5629  1.7060
 9920SOL     OW30658   3.811   1.456   1.640  0.2498 -0.2709 -0.3508
 9920SOL    HW130659   3.766   1.388   1.697 -2.2852 -0.5727 -2.5273
 9920SOL    HW230660   3.766   1.545   1.653  1.9371  0.4958  0.6315
 9921SOL     OW30661   5.020   1.680   3.292  0.5231  0.1758 -0.2364
 9921SOL    HW130662   4.955   1.618   3.338 -0.1724  0.9606 -0.1415
 9921SOL    HW230663   5.012   1.668   3.193 -0.3243  0.7991 -0.2574
 9922SOL     OW30664   5.717   1.157   3.571  0.1774 -0.0317  0.6990
 9922SOL    HW130665   5.749   1.104   3.650 -1.0498 -0.4828  0.9245
 9922SOL    HW230666   5.728   1.254   3.589  0.7352 -0.1611  1.0624
 9923SOL     OW30667   6.481   1.654   3.270 -0.0326 -0.0271 -0.0526
 9923SOL    HW130668   6.471   1.555   3.263  1.0325 -0.2825  1.5276
 9923SOL    HW230669   6.496   1.680   3.365  3.9602  1.1810 -0.8352
 9924SOL     OW30670   5.142   1.105   3.843 -0.2052 -0.3607  0.4370
 9924SOL    HW130671   5.046   1.134   3.839  0.1997  1.0526  0.3699
 9924SOL    HW230672   5.149   1.010   3.814 -1.9734 -1.5139  3.2970
 9925SOL     OW30673   5.041   2.179   4.708 -0.0449  0.0077  0.1427
 9925SOL    HW130674   5.022   2.234   4.789 -0.8578 -0.3257  0.1840
 9925SOL    HW230675   5.137   2.150   4.709 -0.2695 -0.7465  1.4445
 9926SOL     OW30676   1.130   2.096   5.439  0.3495  0.0364 -0.0174
 9926SOL    HW130677   1.112   2.162   5.512 -0.4706  1.8756 -1.7752
 9926SOL    HW230678   1.055   2.029   5.435 -0.1833  0.6154  0.1241
 9927SOL     OW30679   1.804   5.065   3.798  0.3598 -0.2754  0.3636
 9927SOL    HW130680   1.818   5.114   3.884  0.5342 -0.2050  0.2951
 9927SOL    HW230681   1.723   5.100   3.752  0.2086 -0.3808  0.5474
 9928SOL     OW30682   5.859   3.105   2.264 -0.2517  0.2592  0.0030
 9928SOL    HW130683   5.877   3.159   2.346 -1.0999  0.0655  0.3189
 9928SOL    HW230684   5.945   3.065   2.231  0.5980  2.5805 -0.8093
 9929SOL     OW30685   1.464   5.008   5.886 -0.0092 -0.4736  0.4685
 9929SOL    HW130686   1.443   5.072   5.812  1.8289 -1.4062 -0.9569
 9929SOL    HW230687   1.562   4.991   5.888 -0.4235 -3.4840  0.5204
 9930SOL     OW30688   5.345   0.401   5.726  0.3928 -0.3215  0.1341
 9930SOL    HW130689   5.296   0.359   5.650  0.1286 -0.1597  0.2139
 9930SOL    HW230690   5.321   0.498   5.732 -0.2719 -0.5290  0.9626
 9931SOL     OW30691   1.181   2.420   6.315  0.3218  0.1446  0.8860
 9931SOL    HW130692   1.228   2.336   6.292  1.5084  0.9199  0.3919
 9931SOL    HW230693   1.248   2.494   6.325 -0.8942  1.6996 -1.6280
 9932SOL     OW30694   4.049   1.061   6.499 -0.0823  0.6002 -0.5451
 9932SOL    HW130695   4.108   1.101   6.429  0.5240 -2.0128 -1.6743
 9932SOL    HW230696   4.105   1.004   6.560 -1.1655 -0.6496 -0.6691
 9933SOL     OW30697   0.263   1.877   3.337 -0.2356 -0.2546  0.3624
 9933SOL    HW130698   0.223   1.801   3.286  1.4146 -0.6968 -0.3234
 9933SOL    HW230699   0.359   1.886   3.313  0.1945  0.5362  2.2278
 9934SOL     OW30700   3.920   0.085   0.409 -0.1233 -0.5317 -0.4562
 9934SOL    HW130701   3.925   0.182   0.434  0.6464 -0.8988  0.9899
 9934SOL    HW230702   3.999   0.061   0.353 -1.1200 -0.0095 -2.1418
 9935SOL     OW30703   5.006   2.998   6.472 -0.0077 -0.2536 -0.0192
 9935SOL    HW130704   4.971   2.966   6.384  0.8855  1.2663 -0.9716
 9935SOL    HW230705   4.931   3.040   6.524 -0.2592  0.1728 -0.7078
 9936SOL     OW30706   5.253   6.001   0.788 -0.3839 -0.8138  0.3713
 9936SOL    HW130707   5.200   5.962   0.863  0.3677 -1.6327  0.4826
 9936SOL    HW230708   5.259   6.101   0.800 -1.7357 -0.7183  0.4425
 9937SOL     OW30709   0.180   6.710   6.204  0.3953  0.2112 -0.1251
 9937SOL    HW130710   0.201   6.705   6.107  2.6127  0.8471  0.2490
 9937SOL    HW230711   0.081   6.713   6.218  0.0510  1.7662 -2.4336
 9938SOL     OW30712   2.021   1.282   3.320  0.1984 -1.1380 -0.5579
 9938SOL    HW130713   2.011   1.357   3.386  1.3036  0.5882 -2.2359
 9938SOL    HW230714   1.941   1.280   3.260 -1.1327 -3.1442  1.1341
 9939SOL     OW30715   2.622   4.050   5.827  0.1593 -0.2895  0.0321
 9939SOL    HW130716   2.630   3.956   5.793  0.7278  0.0013 -0.6790
 9939SOL    HW230717   2.582   4.108   5.755 -2.0489 -0.3421  1.1269
 9940SOL     OW30718   0.442   0.043   2.487  0.0220  0.1794  0.2299
 9940SOL    HW130719   0.417   0.040   2.390 -0.7622  1.5780  0.3577
 9940SOL    HW230720   0.428  -0.047   2.528  0.0041 -0.3312 -0.8658
 9941SOL     OW30721   3.899   2.956   6.249  0.3331 -0.0144  0.5795
 9941SOL    HW130722   3.872   2.981   6.342  0.8413  1.9650  0.2262
 9941SOL    HW230723   3.830   2.989   6.184  0.0504 -1.2659  0.2091
 9942SOL     OW30724   5.651   5.971   4.115  0.2551 -0.0306  0.1922
 9942SOL    HW130725   5.726   6.037   4.126  1.8795 -1.7814  0.2246
 9942SOL    HW230726   5.614   5.948   4.205  0.8669 -0.4407  0.3452
 9943SOL     OW30727   1.454   4.840   6.132  0.0584  0.0410  0.1227
 9943SOL    HW130728   1.468   4.887   6.219 -3.9107  0.4118  0.7445
 9943SOL    HW230729   1.453   4.907   6.058  1.1775 -0.0071  0.0387
 9944SOL     OW30730   2.930   6.575   1.269  0.3570  0.5717  0.3363
 9944SOL    HW130731   2.933   6.513   1.191 -1.0780 -1.2229  1.6131
 9944SOL    HW230732   2.946   6.669   1.238  3.7848 -0.4464 -1.5220
 9945SOL     OW30733   0.554   2.777   4.446  0.0486  0.2074  0.0486
 9945SOL    HW130734   0.516   2.762   4.537  1.0120 -2.9999  0.0200
 9945SOL    HW230735   0.480   2.783   4.379 -0.5830  0.2631  0.7399
 9946SOL     OW30736   4.925   2.541   1.227 -0.5486 -0.1444  0.0702
 9946SOL    HW130737   4.854   2.545   1.158  0.2410 -0.0630 -0.7546
 9946SOL    HW230738   4.904   2.606   1.300 -0.3330  1.3119 -1.1269
 9947SOL     OW30739   0.915   0.205   3.668  0.4612 -0.6781 -0.0988
 9947SOL    HW130740   0.990   0.141   3.684 -1.2666 -3.0756 -0.8516
 9947SOL    HW230741   0.828   0.158   3.685 -0.9215  1.4560 -0.8886
 9948SOL     OW30742   5.191   0.244   6.385 -0.1820 -0.8873 -0.1843
 9948SOL    HW130743   5.209   0.196   6.299 -0.6684 -0.8495 -0.3067
 9948SOL    HW230744   5.093   0.259   6.396 -0.0305  0.4216 -0.3439
 9949SOL     OW30745   5.493   2.374   3.248  0.0883  0.2149  0.0427
 9949SOL    HW130746   5.519   2.277   3.242 -0.8217 -0.0293 -0.0975
 9949SOL    HW230747   5.555   2.428   3.191  1.9288  0.0017  1.7392
 9950SOL     OW30748   0.201   4.569   6.022 -0.2446 -0.2682 -0.1393
 9950SOL    HW130749   0.170   4.560   5.927  0.9083 -1.5462 -0.4205
 9950SOL    HW230750   0.252   4.655   6.032 -0.6547  0.0350 -0.5846
 9951SOL     OW30751   6.702   3.574   1.538  0.0438  0.0176 -0.0506
 9951SOL    HW130752   6.651   3.611   1.616 -0.2307 -1.1400  0.3365
 9951SOL    HW230753   6.793   3.546   1.569  1.1079  2.3712 -0.8016
 9952SOL     OW30754   2.673   5.686   0.879  0.0393  0.5199 -0.4897
 9952SOL    HW130755   2.650   5.713   0.972  0.1751 -1.4521  0.1802
 9952SOL    HW230756   2.681   5.586   0.875  0.5977  0.6021 -2.4974
 9953SOL     OW30757   5.982   3.872   5.275 -0.3970  0.2149  0.3422
 9953SOL    HW130758   5.936   3.926   5.346 -0.3414  0.1442  0.4324
 9953SOL    HW230759   6.010   3.931   5.200 -2.1065  0.0265 -0.4887
 9954SOL     OW30760   5.048   5.074   0.446 -0.0621 -0.4980 -0.1250
 9954SOL    HW130761   5.126   5.101   0.390  0.2628 -1.6713 -0.2774
 9954SOL    HW230762   5.080   5.037   0.533 -0.5665  1.2940  0.8721
 9955SOL     OW30763   6.013   3.093   3.903  0.2442  0.2660  0.6342
 9955SOL    HW130764   5.954   3.137   3.835  0.9752  0.3173  0.0265
 9955SOL    HW230765   5.968   3.097   3.992 -1.3958 -1.0459 -0.0568
 9956SOL     OW30766   1.773   5.186   2.926  0.1903  0.1378 -0.0109
 9956SOL    HW130767   1.748   5.092   2.902 -0.7626  0.0519  1.2372
 9956SOL    HW230768   1.873   5.194   2.929  0.2832 -1.0300  0.5443
 9957SOL     OW30769   3.587   6.629   0.402 -0.0830  0.0373 -0.1402
 9957SOL    HW130770   3.679   6.665   0.414  1.0754 -1.0934 -4.1804
 9957SOL    HW230771   3.573   6.551   0.463  1.9184 -0.1977  0.0794
 9958SOL     OW30772   4.411   0.076   5.839  0.4701  0.0807  0.4771
 9958SOL    HW130773   4.328   0.086   5.784  0.0733 -1.0915  0.8261
 9958SOL    HW230774   4.488   0.118   5.791  0.1747 -1.0611 -1.0846
 9959SOL     OW30775   0.178   4.879   5.699  0.3010  0.4149  0.2482
 9959SOL    HW130776   0.129   4.938   5.635 -0.1233  0.6257  0.7614
 9959SOL    HW230777   0.226   4.807   5.649 -0.1577  0.4849 -0.2957
 9960SOL     OW30778   4.622   6.201   4.801  0.0460  0.4121  1.3254
 9960SOL    HW130779   4.613   6.102   4.788  0.2579  0.4212  1.1128
 9960SOL    HW230780   4.530   6.242   4.802 -0.0155  0.6098 -1.7006
 9961SOL     OW30781   3.854   1.254   6.556  0.0435  0.1889 -0.2672
 9961SOL    HW130782   3.920   1.189   6.520 -0.9253  0.5553 -2.9496
 9961SOL    HW230783   3.888   1.347   6.544  0.8825  0.3134  2.4218
 9962SOL     OW30784   4.744   1.578   2.612 -0.0787 -0.0631  0.0890
 9962SOL    HW130785   4.647   1.564   2.634 -0.0060  0.1423  0.5533
 9962SOL    HW230786   4.794   1.494   2.633 -0.3439 -0.5892 -1.3085
 9963SOL     OW30787   6.829   7.006   5.508 -0.2761  0.6110 -0.8922
 9963SOL    HW130788   6.906   7.059   5.473 -0.4635  1.2756 -0.3336
 9963SOL    HW230789   6.781   6.962   5.432 -0.2907  1.4974 -1.4141
 9964SOL     OW30790   4.952   5.008   6.132 -0.2449 -0.1403  0.2668
 9964SOL    HW130791   4.924   5.063   6.054  0.2351 -0.9359 -0.4925
 9964SOL    HW230792   4.958   5.065   6.214 -0.1257  0.8412 -0.4177
 9965SOL     OW30793   3.337   6.836   6.500  0.1291 -0.7695  0.2906
 9965SOL    HW130794   3.344   6.819   6.598  0.5113 -1.3463  0.1669
 9965SOL    HW230795   3.336   6.749   6.451  0.3821 -0.4783 -0.2431
 9966SOL     OW30796   3.725   5.213   2.084  0.6146  0.2146 -0.2213
 9966SOL    HW130797   3.817   5.247   2.067  0.2356  0.7438 -1.3345
 9966SOL    HW230798   3.659   5.287   2.071  0.1580  0.4970  2.9317
 9967SOL     OW30799   0.084   2.592   1.480  0.3390  0.1937  0.6431
 9967SOL    HW130800  -0.009   2.610   1.446  0.9166  0.6627 -0.7702
 9967SOL    HW230801   0.093   2.495   1.501  0.3956 -0.4799 -2.1317
 9968SOL     OW30802   5.521   6.362   0.250 -0.1908 -0.0395 -0.0038
 9968SOL    HW130803   5.468   6.320   0.177 -0.0860  0.9031 -0.6428
 9968SOL    HW230804   5.588   6.296   0.286 -1.8031 -1.2663  0.8723
 9969SOL     OW30805   0.311   6.389   3.476 -0.4961  0.2947  0.3455
 9969SOL    HW130806   0.316   6.338   3.391 -1.1629  1.4938 -0.4509
 9969SOL    HW230807   0.364   6.343   3.547 -1.5705 -1.8006 -0.1558
 9970SOL     OW30808   6.496   4.573   0.429 -0.2075 -0.5057  0.3531
 9970SOL    HW130809   6.590   4.541   0.446  1.0533  2.3750 -0.5115
 9970SOL    HW230810   6.479   4.657   0.482 -2.1686 -0.7399  0.1646
 9971SOL     OW30811   6.234   5.181   4.041 -0.0892 -0.4405  0.2656
 9971SOL    HW130812   6.291   5.226   4.110  1.3041 -1.6658 -0.0236
 9971SOL    HW230813   6.223   5.242   3.962 -0.3297  0.3401  0.8917
 9972SOL     OW30814   3.527   3.731   5.965 -0.1926 -0.3665  0.5510
 9972SOL    HW130815   3.534   3.632   5.979 -2.6779 -0.6634  0.2257
 9972SOL    HW230816   3.598   3.761   5.901 -0.5965 -2.3239 -0.9103
 9973SOL     OW30817   2.352   2.261   2.378  0.1470 -0.3174 -0.2063
 9973SOL    HW130818   2.428   2.325   2.373  0.1216 -0.3168 -0.5559
 9973SOL    HW230819   2.344   2.227   2.472 -1.0972  1.7209  0.4910
 9974SOL     OW30820   2.300   4.236   4.813 -0.2959 -0.1587  0.1507
 9974SOL    HW130821   2.309   4.169   4.887  0.6838 -2.6039 -2.0483
 9974SOL    HW230822   2.390   4.255   4.774 -1.0438 -1.0565 -2.1557
 9975SOL     OW30823   1.923   4.282   6.908 -0.2406  0.0409 -0.1268
 9975SOL    HW130824   2.018   4.267   6.934 -0.3498 -1.4585 -0.4525
 9975SOL    HW230825   1.895   4.375   6.931  0.8050 -0.0217  1.5113
 9976SOL     OW30826   5.321   5.199   6.501 -0.1584  0.2199 -0.0305
 9976SOL    HW130827   5.313   5.123   6.566 -1.6847  0.0091 -0.4349
 9976SOL    HW230828   5.230   5.235   6.481  0.1821 -0.2426 -2.6753
 9977SOL     OW30829   3.213   0.794   6.249  0.2829 -0.3058  0.0499
 9977SOL    HW130830   3.216   0.858   6.325  0.9439  1.0220 -1.0401
 9977SOL    HW230831   3.126   0.805   6.200  1.1860  1.2418 -1.3075
 9978SOL     OW30832   0.908   1.662   5.000  0.6779  0.1464  0.2625
 9978SOL    HW130833   0.981   1.719   5.037  1.2084  0.2732 -0.9551
 9978SOL    HW230834   0.825   1.718   4.989  1.0062  0.5218 -0.3184
 9979SOL     OW30835   3.604   4.116   3.372  0.3106 -0.3763  0.6616
 9979SOL    HW130836   3.696   4.125   3.411  0.1161 -0.2861  1.1012
 9979SOL    HW230837   3.610   4.123   3.272  0.6543  0.7324  0.7485
 9980SOL     OW30838   6.403   6.360   5.740 -1.0065  0.2212 -0.5442
 9980SOL    HW130839   6.460   6.277   5.736 -2.5582 -0.8768 -1.0950
 9980SOL    HW230840   6.407   6.399   5.831 -0.0804 -0.3424 -0.3341
 9981SOL     OW30841   4.537   6.040   1.976 -0.0390 -0.1713 -1.0582
 9981SOL    HW130842   4.597   6.108   1.933 -0.1225  0.2831 -0.4741
 9981SOL    HW230843   4.501   6.078   2.061  0.6989 -1.3202 -0.2105
 9982SOL     OW30844   2.596   0.610   0.139  0.3678 -0.4583 -0.2672
 9982SOL    HW130845   2.507   0.650   0.115  0.8413  1.0024  0.2483
 9982SOL    HW230846   2.592   0.511   0.131 -0.7932 -0.3166 -1.9285
 9983SOL     OW30847   0.775   2.956   1.418 -0.3486  0.0270 -0.4535
 9983SOL    HW130848   0.693   2.930   1.367 -0.3556  0.9641 -0.9432
 9983SOL    HW230849   0.772   2.915   1.509 -1.6726  0.5429 -0.2415
 9984SOL     OW30850   1.313   5.329   0.824 -0.2083 -0.3856 -0.5141
 9984SOL    HW130851   1.237   5.265   0.838 -0.1927 -0.3001 -0.0026
 9984SOL    HW230852   1.291   5.390   0.749 -0.1475 -1.1078 -1.1282
 9985SOL     OW30853   4.805   4.764   4.691  0.1142  0.2117 -0.3149
 9985SOL    HW130854   4.765   4.836   4.635 -2.4132  0.2875  1.4057
 9985SOL    HW230855   4.807   4.793   4.787  0.8501 -1.2734  0.1568
 9986SOL     OW30856   5.663   5.011   0.890 -0.4261  0.4049  0.6771
 9986SOL    HW130857   5.759   5.029   0.868 -0.6634  0.4523 -0.3645
 9986SOL    HW230858   5.658   4.945   0.964  0.4610 -2.5040 -1.6658
 9987SOL     OW30859   3.870   2.142   1.791 -0.1647 -0.2356 -0.3781
 9987SOL    HW130860   3.813   2.179   1.865  0.6836 -1.6403  1.0490
 9987SOL    HW230861   3.950   2.201   1.778 -0.4064  0.1160 -0.2820
 9988SOL     OW30862   5.295   5.677   3.449  0.2234  0.2216 -0.1362
 9988SOL    HW130863   5.311   5.634   3.360 -0.7614 -0.2676 -0.0837
 9988SOL    HW230864   5.214   5.638   3.491  0.6140  0.5359  0.9365
 9989SOL     OW30865   0.854   5.534   1.802 -0.3738 -0.4709 -0.2668
 9989SOL    HW130866   0.941   5.524   1.754  0.1821  0.3449  0.5447
 9989SOL    HW230867   0.871   5.547   1.900 -1.5013 -2.4559  0.2351
 9990SOL     OW30868   6.360   6.906   1.618 -0.2094 -0.5441  0.0565
 9990SOL    HW130869   6.413   6.821   1.623 -0.6074 -0.7259  2.1017
 9990SOL    HW230870   6.401   6.974   1.679 -0.2410  0.5676 -1.1126
 9991SOL     OW30871   2.159   2.615   1.638 -0.2051 -0.3325  0.1237
 9991SOL    HW130872   2.087   2.675   1.674 -0.8730 -1.2452  0.3446
 9991SOL    HW230873   2.167   2.534   1.696 -0.6100 -1.3518 -1.1995
 9992SOL     OW30874   1.992   3.786   0.241 -0.2715  0.6896 -0.0435
 9992SOL    HW130875   1.966   3.767   0.336 -1.4853  0.7631 -0.3483
 9992SOL    HW230876   2.017   3.883   0.233 -0.3100  0.7181  0.1670
 9993SOL     OW30877   4.274   1.399   5.237  0.1250 -0.2005  0.1557
 9993SOL    HW130878   4.214   1.451   5.175  0.8619 -0.3908 -0.7360
 9993SOL    HW230879   4.367   1.400   5.201  0.7636  0.4539  1.7522
 9994SOL     OW30880   6.069   4.108   4.813  0.0649  0.2844  0.2605
 9994SOL    HW130881   6.082   4.177   4.741  1.4066  0.6101  0.7889
 9994SOL    HW230882   5.974   4.108   4.842 -0.1705  1.2204 -0.4528
 9995SOL     OW30883   4.766   2.316   6.465 -0.6824 -0.0126  0.4726
 9995SOL    HW130884   4.728   2.236   6.419 -0.9746  0.0558  0.5925
 9995SOL    HW230885   4.738   2.399   6.417 -0.4398  0.0256  0.3914
 9996SOL     OW30886   3.661   4.572   0.679  0.6083  0.3127  0.2151
 9996SOL    HW130887   3.741   4.537   0.728 -0.2283  0.0889  1.4675
 9996SOL    HW230888   3.578   4.527   0.714  0.0502 -0.6186 -2.1113
 9997SOL     OW30889   0.262   6.079   4.189 -0.2201  0.7888  0.0473
 9997SOL    HW130890   0.222   6.080   4.280  0.1899  2.6114  0.2531
 9997SOL    HW230891   0.201   6.126   4.125 -0.8463 -1.0887 -0.8274
 9998SOL     OW30892   6.164   3.144   1.369  0.0871 -0.6148  0.0254
 9998SOL    HW130893   6.114   3.174   1.450 -0.6099 -2.1860  0.2188
 9998SOL    HW230894   6.100   3.130   1.293  0.0824 -3.0566  0.3972
 9999SOL     OW30895   0.123   0.754   5.004 -0.3325  0.5417  0.3520
 9999SOL    HW130896   0.039   0.731   4.955 -0.9619 -0.2221  1.7520
 9999SOL    HW230897   0.190   0.681   4.992 -0.2581  0.6416  0.1445
10000SOL     OW30898   3.761   3.714   2.832  0.8376  0.3386 -0.4506
10000SOL    HW130899   3.787   3.794   2.886  0.4960  0.4443 -0.4400
10000SOL    HW230900   3.822   3.705   2.754  1.4432  0.0874  0.0432
10001SOL     OW30901   4.296   5.348   1.948 -0.6561  0.4011  0.2602
10001SOL    HW130902   4.383   5.373   1.990 -1.3576  0.2685  1.9061
10001SOL    HW230903   4.275   5.253   1.970 -2.2852  1.0818  1.9483
10002SOL     OW30904   2.949   0.776   5.126 -0.3711 -0.2802 -0.4640
10002SOL    HW130905   2.921   0.681   5.111  1.6501 -1.3074  1.4844
10002SOL    HW230906   3.040   0.790   5.087 -0.1980  0.5220  0.1972
10003SOL     OW30907   1.997   2.503   4.576 -0.2493 -0.2061  0.0921
10003SOL    HW130908   1.974   2.570   4.507  0.4112  0.4214  0.4692
10003SOL    HW230909   2.043   2.548   4.653  3.1424 -1.4743 -1.0299
10004SOL     OW30910   0.190   2.787   1.669 -0.0033  0.3161  0.4058
10004SOL    HW130911   0.133   2.739   1.603 -0.6854  1.1132  0.4030
10004SOL    HW230912   0.146   2.873   1.695  2.3318  2.2254 -1.4926
10005SOL     OW30913   1.160   5.792   1.613  0.0575 -0.1824 -0.4057
10005SOL    HW130914   1.165   5.859   1.686 -0.2605 -0.1476 -0.4127
10005SOL    HW230915   1.064   5.766   1.598  0.1535 -0.4489 -0.5714
10006SOL     OW30916   4.924   3.511   6.335  0.1405  0.1280 -0.0355
10006SOL    HW130917   4.880   3.444   6.275 -1.2185  0.1776  0.8481
10006SOL    HW230918   4.899   3.603   6.307 -3.1828  0.1332  2.3722
10007SOL     OW30919   0.284   4.865   4.104 -0.0116  0.0641  0.0678
10007SOL    HW130920   0.304   4.900   4.196 -0.4559  1.0583 -0.2026
10007SOL    HW230921   0.326   4.775   4.093 -1.3776 -0.8804  1.8588
10008SOL     OW30922   2.860   1.184   6.500  0.1919  0.1440  0.4043
10008SOL    HW130923   2.770   1.220   6.473 -0.6137 -0.9688  1.4980
10008SOL    HW230924   2.851   1.131   6.584  1.2412 -2.7983 -1.1843
10009SOL     OW30925   0.159   6.067   4.451 -0.3875  0.4575  0.1983
10009SOL    HW130926   0.254   6.073   4.480 -0.6157  0.5893  0.9356
10009SOL    HW230927   0.113   5.993   4.501 -0.7383  0.5695  0.0456
10010SOL     OW30928   4.604   6.047   0.372  0.1173  0.7891  0.4374
10010SOL    HW130929   4.547   6.115   0.325 -0.0181  0.6412  0.3872
10010SOL    HW230930   4.700   6.066   0.354  0.2286  2.4189  2.3421
10011SOL     OW30931   3.119   4.093   6.669 -0.4077 -0.6555  0.1139
10011SOL    HW130932   3.048   4.023   6.660 -2.4903  0.9194  2.9712
10011SOL    HW230933   3.171   4.078   6.753 -0.8127  1.1178  0.7205
10012SOL     OW30934   5.953   3.422   1.829 -0.6885  0.3388  0.0414
10012SOL    HW130935   5.870   3.366   1.826 -1.6822  1.7658 -2.6422
10012SOL    HW230936   5.928   3.519   1.822  1.1616  0.8400 -0.1528
10013SOL     OW30937   6.654   6.765   6.461 -0.1949 -0.1486 -0.4021
10013SOL    HW130938   6.602   6.775   6.376 -1.1744 -2.3051 -0.1024
10013SOL    HW230939   6.716   6.687   6.454 -0.1615 -0.2511  0.8237
10014SOL     OW30940   5.966   1.211   4.084 -0.5620  0.7903  0.1593
10014SOL    HW130941   5.868   1.200   4.069 -0.1809 -0.7085 -1.4745
10014SOL    HW230942   5.991   1.307   4.071 -1.9678  1.4458  1.8451
10015SOL     OW30943   4.493   0.335   0.743  0.1156 -0.3897 -0.1196
10015SOL    HW130944   4.405   0.305   0.709 -0.2507  0.6604 -0.1245
10015SOL    HW230945   4.539   0.390   0.674 -0.0414  0.6196  0.5697
10016SOL     OW30946   1.841   1.687   3.580  0.1020 -0.6346 -0.4615
10016SOL    HW130947   1.859   1.589   3.586  0.7161 -0.4896  0.1890
10016SOL    HW230948   1.910   1.737   3.632 -1.1837  0.0474  0.6593
10017SOL     OW30949   3.249   1.539   2.966  0.2188 -0.4832  0.4310
10017SOL    HW130950   3.252   1.603   2.889 -2.7332 -0.7029  0.0219
10017SOL    HW230951   3.280   1.586   3.049 -0.3681  0.9961 -0.1532
10018SOL     OW30952   6.759   4.399   4.225 -0.4060 -0.6279 -0.3262
10018SOL    HW130953   6.785   4.364   4.315  2.5378 -0.8908 -1.1895
10018SOL    HW230954   6.732   4.495   4.233 -0.1784 -0.6518  0.8250
10019SOL     OW30955   6.262   4.022   3.023 -0.1888 -0.4159 -0.0759
10019SOL    HW130956   6.174   4.059   3.051 -1.1616 -0.3177 -2.9474
10019SOL    HW230957   6.286   3.946   3.084 -3.3649 -1.9257 -0.4779
10020SOL     OW30958   0.516   1.685   1.720 -0.0235  0.3740  0.5715
10020SOL    HW130959   0.616   1.681   1.717  0.0051  0.8836  0.8590
10020SOL    HW230960   0.482   1.621   1.789  0.0926  0.0764  0.3563
10021SOL     OW30961   2.200   4.026   1.542 -0.2066  0.0619 -0.2970
10021SOL    HW130962   2.113   4.062   1.508 -0.1627  1.1650  0.6931
10021SOL    HW230963   2.270   4.038   1.472 -0.2237  1.8412 -0.0472
10022SOL     OW30964   0.435   0.598   5.285 -0.1458 -0.5736 -0.5647
10022SOL    HW130965   0.368   0.592   5.212  1.1743 -0.6330 -1.8099
10022SOL    HW230966   0.405   0.541   5.362 -1.3869 -0.7867 -1.1820
10023SOL     OW30967   0.920   6.967   3.365 -0.2253  0.3776 -0.2381
10023SOL    HW130968   0.915   7.044   3.302 -1.2450  0.3790 -0.1782
10023SOL    HW230969   0.832   6.957   3.412 -0.1385 -0.8827 -0.3145
10024SOL     OW30970   0.950   2.624   3.352 -0.4974 -0.3531 -0.3180
10024SOL    HW130971   1.028   2.662   3.401 -1.8131  2.3439 -0.1050
10024SOL    HW230972   0.963   2.634   3.253  0.0901 -1.3991 -0.3579
10025SOL     OW30973   0.728   3.594   0.646 -0.2487 -1.0263 -0.1626
10025SOL    HW130974   0.699   3.683   0.611 -0.0751 -1.4374 -1.4097
10025SOL    HW230975   0.794   3.607   0.720 -0.9087 -0.1268  0.2826
10026SOL     OW30976   5.379   0.037   3.434 -0.9365 -0.0469  0.1351
10026SOL    HW130977   5.461   0.087   3.463 -0.0602  0.5704 -3.0249
10026SOL    HW230978   5.384  -0.057   3.467 -0.1004  0.5558  1.8594
10027SOL     OW30979   4.183   1.706   6.684  0.3506 -0.2992  0.6987
10027SOL    HW130980   4.178   1.711   6.784 -0.7105 -1.3211  0.7240
10027SOL    HW230981   4.104   1.655   6.650  0.6896  0.0605 -0.6719
10028SOL     OW30982   3.735   5.926   1.328  0.2407 -0.5973 -0.2592
10028SOL    HW130983   3.731   6.019   1.366  1.5240 -0.4369 -0.4588
10028SOL    HW230984   3.738   5.860   1.403 -0.3668 -0.4691 -0.1145
10029SOL     OW30985   2.512   4.592   2.386 -0.7451  0.7104  0.2183
10029SOL    HW130986   2.600   4.605   2.340  0.3645  0.9791  2.2973
10029SOL    HW230987   2.486   4.677   2.432 -0.9673 -0.0100  1.4572
10030SOL     OW30988   3.090   6.551   3.557  0.1530 -0.7839  0.0682
10030SOL    HW130989   3.187   6.548   3.533  0.2722 -3.5786  0.6292
10030SOL    HW230990   3.080   6.585   3.650  0.8126 -2.2914  0.7235
10031SOL     OW30991   0.378   0.907   4.254 -0.6170  0.3787 -0.0174
10031SOL    HW130992   0.456   0.965   4.276  0.7696 -1.6985  0.9361
10031SOL    HW230993   0.296   0.962   4.245  1.0049  2.7211 -1.4826
10032SOL     OW30994   1.817   5.757   4.026  0.4162 -0.3183  0.3037
10032SOL    HW130995   1.777   5.666   4.026 -0.8505  0.2192  0.2045
10032SOL    HW230996   1.747   5.825   4.049  1.0721  0.7298 -0.6485
10033SOL     OW30997   2.807   1.983   4.002  0.1719  0.1522 -0.2369
10033SOL    HW130998   2.793   1.887   3.980  0.4625 -0.1271  0.7630
10033SOL    HW230999   2.905   2.003   4.007  0.1283  0.1414  1.0011
10034SOL     OW31000   1.845   0.326   2.895 -0.5589 -0.0753  1.0240
10034SOL    HW131001   1.926   0.268   2.897 -0.3279  0.2170  0.2455
10034SOL    HW231002   1.784   0.300   2.970 -0.8484 -1.9044  0.2186
10035SOL     OW31003   0.378   3.646   0.928  0.0632 -0.5114 -0.5721
10035SOL    HW131004   0.350   3.741   0.911  2.8120  0.4404 -0.2157
10035SOL    HW231005   0.335   3.614   1.012 -0.6549  0.4977 -0.5239
10036SOL     OW31006   1.344   1.534   6.714  0.5244  0.0416 -0.3761
10036SOL    HW131007   1.382   1.621   6.680 -0.3063 -0.3373 -2.4545
10036SOL    HW231008   1.402   1.459   6.685  1.4577 -0.1246  1.7650
10037SOL     OW31009   6.258   0.211   0.959 -0.4694  0.5137 -0.3891
10037SOL    HW131010   6.254   0.139   0.889 -0.5767  0.4595 -0.3280
10037SOL    HW231011   6.353   0.237   0.974 -0.5330  1.7184 -1.7680
10038SOL     OW31012   4.316   2.023   6.747 -0.0306 -0.0174 -0.3510
10038SOL    HW131013   4.284   1.968   6.669  1.2187  0.6161 -1.3599
10038SOL    HW231014   4.363   2.105   6.712 -0.4301  0.8652  1.1007
10039SOL     OW31015   0.003   5.550   6.799 -0.3037  0.5869  0.2657
10039SOL    HW131016  -0.059   5.620   6.834 -0.1220  0.8863 -0.0082
10039SOL    HW231017   0.086   5.593   6.766 -1.0242  0.4743 -1.8275
10040SOL     OW31018   2.929   1.240   0.925  0.1334  0.4231  0.0785
10040SOL    HW131019   3.007   1.179   0.909  0.5586  0.7451  0.8803
10040SOL    HW231020   2.860   1.192   0.980 -0.7612 -0.2457 -1.5396
10041SOL     OW31021   6.921   6.531   0.402  0.4226 -0.4410 -0.5776
10041SOL    HW131022   6.851   6.479   0.354  0.2353 -0.4117 -0.3405
10041SOL    HW231023   6.980   6.468   0.453 -1.8022 -0.3342  2.4535
10042SOL     OW31024   4.907   6.163   3.493 -0.2669  0.1556  0.2902
10042SOL    HW131025   4.908   6.077   3.442  2.8499 -0.3939  1.1134
10042SOL    HW231026   4.882   6.145   3.588 -0.8627  0.3938  0.1866
10043SOL     OW31027   5.844   0.608   5.335 -0.0469  0.4214 -0.3762
10043SOL    HW131028   5.854   0.561   5.247 -1.3679  0.5055 -0.5953
10043SOL    HW231029   5.933   0.615   5.379  0.1660 -2.9453  0.0031
10044SOL     OW31030   3.896   2.910   0.609  0.1597 -0.0312  0.2800
10044SOL    HW131031   3.812   2.963   0.599 -0.0149 -0.3681 -0.0827
10044SOL    HW231032   3.967   2.967   0.650 -0.1661  0.3375  0.3346
10045SOL     OW31033   3.267   6.198   3.923 -0.1136 -0.0540 -0.6946
10045SOL    HW131034   3.314   6.283   3.898 -0.3554  0.5138  0.6720
10045SOL    HW231035   3.208   6.215   4.003 -0.6087 -1.3734 -0.7555
10046SOL     OW31036   1.092   1.532   6.644  0.2840  0.1027 -0.0207
10046SOL    HW131037   1.190   1.539   6.665  0.4322 -0.1670 -0.5858
10046SOL    HW231038   1.059   1.442   6.671 -0.1711  0.7211  1.5630
10047SOL     OW31039   0.191   1.665   3.157  0.0527  0.0762  0.0430
10047SOL    HW131040   0.214   1.684   3.061  0.6597 -0.3084  0.1079
10047SOL    HW231041   0.259   1.603   3.196  0.7013  1.4298  1.1715
10048SOL     OW31042   3.058   2.818   1.772  0.2009  0.1216  0.3425
10048SOL    HW131043   3.008   2.743   1.729  0.0601  1.2668 -1.6159
10048SOL    HW231044   3.146   2.784   1.806  0.2064 -0.9118 -0.6293
10049SOL     OW31045   0.947   3.448   5.905 -0.2138  0.2420  0.5561
10049SOL    HW131046   0.894   3.467   5.988 -0.9568  0.9870 -0.0697
10049SOL    HW231047   1.027   3.507   5.903 -0.3060  0.3730  0.6512
10050SOL     OW31048   6.359   1.821   4.769  0.5405  0.0498 -0.0830
10050SOL    HW131049   6.283   1.885   4.774  0.3875 -0.1039 -0.3745
10050SOL    HW231050   6.409   1.836   4.683  0.2256 -0.5220 -0.3737
10051SOL     OW31051   5.511   1.834   1.385  0.2927  0.4837  0.2052
10051SOL    HW131052   5.562   1.919   1.398 -0.9577  0.9393  2.8898
10051SOL    HW231053   5.418   1.855   1.358 -0.5154  0.1844  2.4866
10052SOL     OW31054   3.385   5.974   6.629  0.2802 -0.5092 -0.7749
10052SOL    HW131055   3.476   5.955   6.664  0.4430 -3.6374 -2.5751
10052SOL    HW231056   3.319   5.912   6.671 -1.0885  1.6408  0.4366
10053SOL     OW31057   2.137   5.020   3.750 -0.4765  0.2931 -0.1091
10053SOL    HW131058   2.080   5.077   3.810 -0.0113 -0.1168  0.7470
10053SOL    HW231059   2.156   5.069   3.665 -1.9566  0.4948 -0.3352
10054SOL     OW31060   6.034   3.627   2.623  0.1569 -0.4495 -0.4261
10054SOL    HW131061   6.087   3.636   2.707  0.1047 -0.1127 -0.4290
10054SOL    HW231062   6.081   3.673   2.548  0.4627 -1.1938 -0.7033
10055SOL     OW31063   5.671   3.959   0.136 -0.4259 -0.0080 -0.1902
10055SOL    HW131064   5.739   3.982   0.066  0.5137  3.3585  1.6017
10055SOL    HW231065   5.579   3.976   0.100 -0.3297 -2.5553 -1.9258
10056SOL     OW31066   6.528   5.333   0.456  0.2333  0.9013 -0.1343
10056SOL    HW131067   6.511   5.363   0.550  0.0791  0.3720  0.0110
10056SOL    HW231068   6.625   5.346   0.434  0.4163  0.3816  0.3401
10057SOL     OW31069   6.560   4.105   1.558 -0.3138  0.3941  0.6407
10057SOL    HW131070   6.605   4.191   1.533  0.5263 -0.3330 -0.4101
10057SOL    HW231071   6.622   4.050   1.614 -0.1908 -0.2390 -0.0941
10058SOL     OW31072   2.120   4.710   3.639  0.0497 -0.1586 -0.2590
10058SOL    HW131073   2.175   4.702   3.556  4.0778  1.4826  1.9505
10058SOL    HW231074   2.100   4.806   3.656 -3.0856 -0.6556 -0.5657
10059SOL     OW31075   2.679   5.702   1.643 -0.1371 -0.0759 -0.5620
10059SOL    HW131076   2.618   5.624   1.636 -1.4519  0.8421  0.1919
10059SOL    HW231077   2.681   5.750   1.556 -1.0731  0.2809 -0.4011
10060SOL     OW31078   0.990   2.956   2.843  0.5267 -0.0674 -0.2440
10060SOL    HW131079   1.000   3.042   2.894 -0.3178 -1.4774  2.4837
10060SOL    HW231080   1.074   2.903   2.850 -0.1003 -0.9382  1.1007
10061SOL     OW31081   6.390   2.532   4.703 -0.4319  0.3514 -0.4795
10061SOL    HW131082   6.302   2.523   4.749 -0.1538  1.3910  0.2795
10061SOL    HW231083   6.443   2.448   4.716 -1.4024 -0.3932 -1.1813
10062SOL     OW31084   0.787   6.669   2.701 -0.4549 -0.1286 -0.0243
10062SOL    HW131085   0.801   6.762   2.667 -0.8098 -0.8204 -2.2483
10062SOL    HW231086   0.875   6.626   2.717 -0.1966 -0.2856 -1.6846
10063SOL     OW31087   0.776   1.581   2.890 -0.1094  0.0862  0.2747
10063SOL    HW131088   0.771   1.673   2.930  1.6043 -0.6282  2.2685
10063SOL    HW231089   0.868   1.566   2.853 -0.7340 -0.4372 -1.1518
10064SOL     OW31090   5.211   5.737   5.173 -0.1816 -0.6121 -0.0842
10064SOL    HW131091   5.114   5.717   5.158 -0.0151 -2.4008  0.9275
10064SOL    HW231092   5.230   5.831   5.145 -2.3081 -0.0416  0.1899
10065SOL     OW31093   0.494   5.399   3.138  0.1541 -0.6095  0.3328
10065SOL    HW131094   0.552   5.341   3.080  0.2211 -2.8193  2.4304
10065SOL    HW231095   0.550   5.439   3.211 -0.1344  1.2179 -0.3952
10066SOL     OW31096   6.432   1.280   3.773  0.5655 -0.5151  0.3870
10066SOL    HW131097   6.435   1.180   3.767  0.5819 -0.5338  0.6664
10066SOL    HW231098   6.337   1.310   3.778  0.5711 -0.6311  1.8867
10067SOL     OW31099   3.756   5.259   4.617  0.4893  0.6580  0.0018
10067SOL    HW131100   3.811   5.261   4.533  0.6524  2.5739  0.1216
10067SOL    HW231101   3.725   5.165   4.633  2.1849 -0.1400 -1.0529
10068SOL     OW31102   4.981   3.433   0.310 -0.3066  0.1701 -0.4076
10068SOL    HW131103   4.943   3.468   0.224  0.2123  1.1214 -0.2624
10068SOL    HW231104   5.041   3.355   0.291 -0.2635  0.3206 -0.8993
10069SOL     OW31105   4.131   6.830   5.479  0.3228 -0.1305  0.3471
10069SOL    HW131106   4.071   6.775   5.537  0.6628  0.4110  1.2208
10069SOL    HW231107   4.226   6.802   5.493  0.4496  0.3168  0.3975
10070SOL     OW31108   1.361   6.702   5.217  0.2924 -0.2080 -0.4982
10070SOL    HW131109   1.434   6.730   5.155 -0.5328 -1.8139 -2.3037
10070SOL    HW231110   1.273   6.737   5.184 -0.0767 -0.5216  0.1338
10071SOL     OW31111   4.056   3.961   5.143  0.0075 -0.0528 -0.1801
10071SOL    HW131112   3.977   3.993   5.091  0.1029 -0.2321 -0.4392
10071SOL    HW231113   4.086   4.032   5.206 -1.3145 -0.5425  1.0308
10072SOL     OW31114   0.691   6.960   2.388 -0.1351 -0.2722 -0.0173
10072SOL    HW131115   0.670   7.013   2.306  0.9632  0.3718  0.0932
10072SOL    HW231116   0.606   6.924   2.427 -0.9290  1.3943 -0.1116
10073SOL     OW31117   1.852   0.358   5.716  0.1797  0.5242 -0.0140
10073SOL    HW131118   1.900   0.388   5.798  0.8851  0.3457 -0.3614
10073SOL    HW231119   1.817   0.438   5.666  1.0676  0.7159 -0.3358
10074SOL     OW31120   3.391   5.276   5.007 -0.0071  0.3548 -0.2939
10074SOL    HW131121   3.368   5.220   4.928 -0.2154 -0.2338  0.1836
10074SOL    HW231122   3.483   5.254   5.038 -0.0132  0.4246 -0.2257
10075SOL     OW31123   1.124   1.521   4.637 -0.2783  0.3609 -0.4076
10075SOL    HW131124   1.133   1.456   4.713  0.2185  1.6273  0.6624
10075SOL    HW231125   1.030   1.519   4.603 -0.3478 -0.6857 -0.1932
10076SOL     OW31126   5.896   6.933   4.651  0.1490  0.6361  0.0684
10076SOL    HW131127   5.897   6.967   4.557 -1.1424 -1.0223 -0.6025
10076SOL    HW231128   5.801   6.932   4.684  0.0927 -2.2368  0.0166
10077SOL     OW31129   3.057   0.822   0.249  0.4502 -0.0680 -0.1226
10077SOL    HW131130   3.093   0.915   0.240 -2.4652  1.2211  0.2732
10077SOL    HW231131   2.959   0.823   0.229  0.4063 -3.1825 -0.5246
10078SOL     OW31132   5.531   4.389   4.962  0.4945  0.2166 -0.0688
10078SOL    HW131133   5.599   4.421   4.896  1.6464 -0.7088  0.6189
10078SOL    HW231134   5.485   4.307   4.925  0.1347  0.5193 -0.3009
10079SOL     OW31135   4.825   3.315   6.166 -0.1141 -0.3662  0.0661
10079SOL    HW131136   4.758   3.248   6.198 -0.5554  0.8596  1.8885
10079SOL    HW231137   4.903   3.268   6.126 -1.3609 -1.8834 -0.6977
10080SOL     OW31138   0.976   1.262   4.267 -0.1063  0.0583 -0.1373
10080SOL    HW131139   0.935   1.186   4.316  2.1189 -0.3674  1.2098
10080SOL    HW231140   0.946   1.348   4.308 -1.7659 -0.0984 -0.9627
10081SOL     OW31141   0.622   2.236   6.634  0.1108 -0.2545 -0.3010
10081SOL    HW131142   0.660   2.169   6.570 -1.3965 -1.7183  0.2709
10081SOL    HW231143   0.652   2.215   6.726 -0.2512 -0.0570 -0.1342
10082SOL     OW31144   1.017   0.154   1.510 -0.0250  0.5154 -0.2735
10082SOL    HW131145   0.946   0.179   1.576  0.9065  4.0890 -0.4243
10082SOL    HW231146   1.020   0.222   1.437  3.7353  0.7327 -0.0924
10083SOL     OW31147   6.083   1.799   2.834 -0.0014  0.0310  0.1444
10083SOL    HW131148   6.166   1.800   2.778 -0.3604  2.5201 -0.4653
10083SOL    HW231149   6.108   1.820   2.929  0.0582  1.0599 -0.0900
10084SOL     OW31150   1.949   0.241   0.199 -0.1349 -0.1602  0.5576
10084SOL    HW131151   2.001   0.179   0.257 -2.6832 -2.2868  0.7512
10084SOL    HW231152   1.997   0.253   0.112  1.2107 -1.0585  1.1344
10085SOL     OW31153   2.364   6.259   1.090  0.0070  0.5083 -0.1304
10085SOL    HW131154   2.274   6.303   1.087  0.4553  1.4066 -1.1634
10085SOL    HW231155   2.404   6.260   0.999  0.6105 -0.8746  0.1084
10086SOL     OW31156   6.396   4.005   0.789 -0.6278 -0.8959  0.4831
10086SOL    HW131157   6.409   4.102   0.769  0.5794 -1.1956 -0.2687
10086SOL    HW231158   6.364   3.995   0.884  1.2837  0.1339  1.2812
10087SOL     OW31159   2.405   2.714   4.046 -0.6380 -0.0771 -0.1217
10087SOL    HW131160   2.395   2.615   4.034  1.7481 -0.5134  1.0036
10087SOL    HW231161   2.471   2.749   3.979  0.7160  0.2141  1.3211
10088SOL     OW31162   4.348   6.463   4.510  0.4046 -0.2784 -0.1380
10088SOL    HW131163   4.355   6.546   4.566  1.5655  0.2301 -1.0060
10088SOL    HW231164   4.312   6.487   4.420  3.1853 -0.2090 -1.3328
10089SOL     OW31165   2.062   2.269   0.624 -0.2239  0.7163 -0.3790
10089SOL    HW131166   1.974   2.313   0.606  0.0721  0.8157 -1.7186
10089SOL    HW231167   2.046   2.181   0.669 -1.0128  0.7900 -0.4967
10090SOL     OW31168   1.733   5.294   2.256 -0.0437 -0.4356 -0.2932
10090SOL    HW131169   1.716   5.293   2.355 -0.3749  0.5458 -0.3292
10090SOL    HW231170   1.791   5.217   2.231 -0.9465 -1.3970  0.4910
10091SOL     OW31171   0.721   0.603   3.754  0.5218  0.0663  0.0424
10091SOL    HW131172   0.759   0.533   3.694  2.2584  1.4399 -0.5582
10091SOL    HW231173   0.636   0.570   3.795  0.0384 -1.4562 -2.0441
10092SOL     OW31174   2.090   2.390   3.692 -0.2312 -0.2021  0.3980
10092SOL    HW131175   2.053   2.478   3.663  0.3527  0.1406  0.6880
10092SOL    HW231176   2.084   2.383   3.791  0.3357 -0.2145  0.4310
10093SOL     OW31177   5.691   5.681   3.647  0.3332 -0.0522 -0.1550
10093SOL    HW131178   5.685   5.709   3.743  1.6993 -0.0663 -0.0432
10093SOL    HW231179   5.705   5.762   3.590 -0.1331 -0.0784 -0.3091
10094SOL     OW31180   2.474   6.897   1.238 -0.0599  0.7800 -0.1218
10094SOL    HW131181   2.398   6.837   1.214  0.5513 -0.0448 -0.0550
10094SOL    HW231182   2.451   6.992   1.214 -0.4927  0.3386 -1.5579
10095SOL     OW31183   0.794   2.641   4.441  0.0328  0.5006 -0.5004
10095SOL    HW131184   0.720   2.709   4.435  0.5234  1.3155  1.5883
10095SOL    HW231185   0.805   2.613   4.536  0.5121 -1.8337 -1.1769
10096SOL     OW31186   5.824   6.106   2.372 -0.5142  0.3479 -0.1607
10096SOL    HW131187   5.904   6.083   2.316 -0.8264  1.0917 -0.9292
10096SOL    HW231188   5.832   6.060   2.461 -0.0725 -0.9485 -0.8447
10097SOL     OW31189   1.707   4.691   6.337 -0.3019  0.5188 -0.5398
10097SOL    HW131190   1.741   4.677   6.244 -2.1621  2.6579 -1.6610
10097SOL    HW231191   1.641   4.766   6.336 -1.0906 -0.0435  2.3780
10098SOL     OW31192   2.419   5.750   6.345  0.2198 -0.2017 -0.0108
10098SOL    HW131193   2.331   5.742   6.299 -0.0506  0.2127  0.4221
10098SOL    HW231194   2.481   5.679   6.311 -0.2095 -0.3632 -0.4694
10099SOL     OW31195   2.408   4.304   3.001  0.0167 -0.0364  0.4050
10099SOL    HW131196   2.422   4.206   2.987 -0.8169 -0.0701 -0.2701
10099SOL    HW231197   2.386   4.321   3.097 -1.8864 -0.7809  0.1372
10100SOL     OW31198   5.151   6.108   6.400  0.4943 -0.2811 -0.4298
10100SOL    HW131199   5.184   6.158   6.320 -0.4284  0.3707 -0.4193
10100SOL    HW231200   5.196   6.019   6.404  0.8227 -0.1785 -1.4693
10101SOL     OW31201   6.609   4.052   3.429  0.1430 -0.2464 -0.1920
10101SOL    HW131202   6.678   3.986   3.460  1.0799  0.7830 -0.0335
10101SOL    HW231203   6.628   4.080   3.335  0.2231  0.3885  0.0063
10102SOL     OW31204   3.124   1.580   4.896 -0.2749  0.2342  0.3837
10102SOL    HW131205   3.197   1.526   4.937  2.2610  1.8151 -1.6977
10102SOL    HW231206   3.059   1.519   4.851  2.9586 -1.3129 -2.6964
10103SOL     OW31207   6.667   2.787   0.844  0.0991  0.4434  0.5895
10103SOL    HW131208   6.690   2.883   0.825  2.4080  0.2337  1.9701
10103SOL    HW231209   6.589   2.783   0.906 -1.7221  1.3005 -1.5107
10104SOL     OW31210   3.857   1.625   5.722 -0.4032 -0.2156  0.1991
10104SOL    HW131211   3.789   1.596   5.655 -2.2475 -0.0480  1.8966
10104SOL    HW231212   3.871   1.724   5.714 -0.8428 -0.1468  0.2570
10105SOL     OW31213   4.395   0.515   6.351 -0.1022 -0.4600  0.1140
10105SOL    HW131214   4.470   0.543   6.291 -0.8620 -1.4117 -1.3352
10105SOL    HW231215   4.420   0.430   6.398  0.9359  0.8376  2.0961
10106SOL     OW31216   5.379   6.009   1.792 -0.2117  0.4282  0.1983
10106SOL    HW131217   5.451   5.977   1.730 -1.5656  0.7417 -1.6173
10106SOL    HW231218   5.332   5.930   1.831 -0.1612  0.2175 -0.1604
10107SOL     OW31219   5.493   2.215   6.718 -0.4521  0.7483 -0.2058
10107SOL    HW131220   5.482   2.116   6.707 -1.7226  0.8192  0.3085
10107SOL    HW231221   5.568   2.246   6.659  0.0386 -0.5251 -0.3049
10108SOL     OW31222   5.814   0.793   6.920 -0.2242 -0.1480  0.0290
10108SOL    HW131223   5.876   0.770   6.845  0.5150 -1.4516  0.9982
10108SOL    HW231224   5.840   0.882   6.958 -1.5552  1.2614 -2.1824
10109SOL     OW31225   5.733   4.915   2.671  0.1400 -0.5672 -0.1074
10109SOL    HW131226   5.719   4.877   2.579 -1.0075 -1.5395  0.4357
10109SOL    HW231227   5.749   5.013   2.664  0.7274 -0.7352 -1.3914
10110SOL     OW31228   0.868   3.368   6.197 -0.6148 -0.2798  0.1188
10110SOL    HW131229   0.867   3.273   6.166 -0.9216  0.2916 -1.7213
10110SOL    HW231230   0.961   3.392   6.225 -0.5223 -1.0866  0.5639
10111SOL     OW31231   4.297   3.425   0.724  0.0653 -0.9322  0.6097
10111SOL    HW131232   4.313   3.357   0.652  1.1852  1.5928 -1.7118
10111SOL    HW231233   4.221   3.484   0.698  0.7818  0.3163  1.2496
10112SOL     OW31234   5.059   5.038   4.842 -0.6655  0.0428  0.0393
10112SOL    HW131235   5.066   4.940   4.826  0.0471 -0.0689  0.8870
10112SOL    HW231236   5.030   5.054   4.937 -0.8830  0.6473 -0.1247
10113SOL     OW31237   4.879   6.194   0.123  0.1441 -0.2216  0.4735
10113SOL    HW131238   4.925   6.119   0.170  2.3918  1.7349  1.6261
10113SOL    HW231239   4.841   6.257   0.191  0.0446  0.6758 -0.3960
10114SOL     OW31240   4.568   2.804   1.250  0.0566  0.0351 -0.1149
10114SOL    HW131241   4.581   2.810   1.348 -0.3481  0.1174 -0.0636
10114SOL    HW231242   4.484   2.853   1.224  0.9131  1.2469 -0.6883
10115SOL     OW31243   0.170   2.996   3.572 -0.1572  0.2597 -0.4901
10115SOL    HW131244   0.251   2.985   3.629 -0.5792 -0.6876 -0.0463
10115SOL    HW231245   0.131   2.906   3.552 -1.0757  0.6951 -0.7243
10116SOL     OW31246   6.888   1.487   2.138 -0.0741 -0.3292  0.1727
10116SOL    HW131247   6.867   1.585   2.139 -1.6338 -0.6181 -0.6600
10116SOL    HW231248   6.985   1.474   2.116 -0.3930  0.9911 -2.4868
10117SOL     OW31249   2.109   6.154   5.755 -0.0196  0.0587  0.1037
10117SOL    HW131250   2.206   6.146   5.774 -0.3386 -0.1213  1.8434
10117SOL    HW231251   2.060   6.076   5.794 -0.8965  0.2754 -0.5100
10118SOL     OW31252   6.027   4.655   2.147 -0.3024 -0.2132 -0.2062
10118SOL    HW131253   6.122   4.651   2.116 -1.1390  2.6287 -3.9398
10118SOL    HW231254   5.968   4.613   2.078 -1.9138  0.2695  0.8280
10119SOL     OW31255   3.564   0.922   6.671  0.3728 -0.3508 -0.5953
10119SOL    HW131256   3.629   0.855   6.705  3.3974  1.6653 -2.0186
10119SOL    HW231257   3.612   0.993   6.620 -3.0257  1.0855 -2.1279
10120SOL     OW31258   5.475   1.062   3.045  0.3559 -0.4216 -0.0432
10120SOL    HW131259   5.564   1.029   3.013  1.6938  1.8087  1.1683
10120SOL    HW231260   5.465   1.042   3.142 -0.0160  0.2326  0.0564
10121SOL     OW31261   1.025   1.966   2.936 -0.2914  0.2219  0.1402
10121SOL    HW131262   1.042   2.044   2.997 -0.6031 -0.1419  0.7048
10121SOL    HW231263   1.077   1.887   2.968 -1.2927 -0.2737  0.5859
10122SOL     OW31264   4.375   2.990   1.229  0.0812 -0.0535 -0.2403
10122SOL    HW131265   4.340   3.008   1.321 -0.4452  0.6944 -0.5740
10122SOL    HW231266   4.312   2.928   1.181 -1.1209  1.6700 -1.0086
10123SOL     OW31267   6.686   6.913   5.294  0.2010 -0.1321 -0.1668
10123SOL    HW131268   6.737   6.834   5.262  0.1026  0.0815 -0.8534
10123SOL    HW231269   6.727   6.997   5.259 -0.6614  0.0378 -0.8125
10124SOL     OW31270   2.702   4.829   1.283  0.6837  1.1845  1.1264
10124SOL    HW131271   2.690   4.737   1.320  1.3147  1.2649  1.5410
10124SOL    HW231272   2.667   4.831   1.189  0.1239  0.6810  1.3158
10125SOL     OW31273   2.619   6.535   1.308  0.5188  0.5601  0.2518
10125SOL    HW131274   2.619   6.442   1.344 -1.7888 -0.2840 -1.5894
10125SOL    HW231275   2.597   6.599   1.381 -0.7251 -0.6831  1.0220
10126SOL     OW31276   6.931   5.820   5.365  0.2812  0.3675 -0.0155
10126SOL    HW131277   6.989   5.821   5.447  0.3032  0.6521 -0.0355
10126SOL    HW231278   6.872   5.739   5.368 -0.1248  0.6718  0.5733
10127SOL     OW31279   5.022   5.443   4.865 -0.2472 -0.4094  0.0914
10127SOL    HW131280   4.958   5.437   4.941 -0.0324  0.7207  0.3907
10127SOL    HW231281   5.113   5.468   4.900 -1.0549  4.9417 -0.7387
10128SOL     OW31282   1.416   1.150   3.509 -0.4104  0.0542 -0.3743
10128SOL    HW131283   1.387   1.180   3.600 -0.3642  0.2695 -0.4304
10128SOL    HW231284   1.354   1.079   3.477 -0.4034 -0.0510 -0.1574
10129SOL     OW31285   5.284   4.023   3.753 -0.7519 -0.1264  0.1631
10129SOL    HW131286   5.308   4.100   3.812 -0.4334 -0.8912  1.0544
10129SOL    HW231287   5.248   4.057   3.666 -0.6468  1.0197  0.5588
10130SOL     OW31288   6.359   0.713   2.737  0.0623  0.6683  0.6626
10130SOL    HW131289   6.390   0.807   2.724  0.1297  0.4444 -1.0219
10130SOL    HW231290   6.278   0.712   2.795 -0.2815  1.8103  0.2274
10131SOL     OW31291   1.423   5.115   1.439  0.0679 -0.0540  0.5928
10131SOL    HW131292   1.433   5.174   1.519 -0.6881  1.0700 -0.1156
10131SOL    HW231293   1.429   5.170   1.356 -2.5895 -0.5973 -0.0734
10132SOL     OW31294   2.838   6.374   2.406 -0.2659  0.4069  0.1482
10132SOL    HW131295   2.749   6.361   2.362  0.5089  0.2942 -1.4283
10132SOL    HW231296   2.844   6.316   2.487 -1.5985  0.3917  0.2636
10133SOL     OW31297   6.262   4.752   3.269 -0.0985  0.3849 -0.0658
10133SOL    HW131298   6.258   4.710   3.360 -0.1552  4.3440  1.9847
10133SOL    HW231299   6.355   4.782   3.250  0.1459 -1.3615 -1.9020
10134SOL     OW31300   1.095   2.016   0.441  0.1415  0.2638  0.2106
10134SOL    HW131301   1.144   1.929   0.436  1.2547  0.7849  1.5332
10134SOL    HW231302   1.076   2.049   0.348  3.0730  0.4408 -0.4145
10135SOL     OW31303   4.119   1.015   3.065  0.5633 -0.0055  0.4348
10135SOL    HW131304   4.186   1.086   3.042 -0.8519  1.0727 -0.5301
10135SOL    HW231305   4.028   1.045   3.037 -0.2731 -1.6444  1.2664
10136SOL     OW31306   4.122   6.043   2.996 -0.0451 -0.1840 -0.0283
10136SOL    HW131307   4.221   6.048   2.985  0.2900 -0.5968  2.2189
10136SOL    HW231308   4.096   6.085   3.084 -1.5423 -2.2311  0.5851
10137SOL     OW31309   5.726   2.061   5.091  0.7050  0.2766 -0.5023
10137SOL    HW131310   5.730   1.962   5.102 -0.0075  0.4222  1.3626
10137SOL    HW231311   5.819   2.096   5.075  1.5479 -0.3678  2.4085
10138SOL     OW31312   4.619   3.135   5.302  1.1398 -0.6503 -1.0049
10138SOL    HW131313   4.674   3.051   5.303  1.9970 -0.1002  0.4205
10138SOL    HW231314   4.680   3.214   5.298  0.5458  0.0037  1.3199
10139SOL     OW31315   3.212   3.078   2.150  0.1666  0.8287  0.1108
10139SOL    HW131316   3.206   3.156   2.213 -0.0872  1.6990 -0.9570
10139SOL    HW231317   3.283   3.016   2.181  0.3958  1.5019  0.9783
10140SOL     OW31318   6.723   4.332   3.980  0.4828  0.1118  0.4696
10140SOL    HW131319   6.714   4.350   4.078 -0.0197 -0.1155  0.4668
10140SOL    HW231320   6.735   4.234   3.966 -1.6053 -0.1357  0.1691
10141SOL     OW31321   2.590   6.904   3.880  0.4845 -0.2486 -0.0428
10141SOL    HW131322   2.498   6.930   3.907 -0.3631 -2.2057 -0.8437
10141SOL    HW231323   2.597   6.905   3.780  0.0123 -3.8584 -0.2436
10142SOL     OW31324   6.055   4.789   6.460  0.5650  0.5529 -0.2558
10142SOL    HW131325   5.961   4.815   6.482  0.5819 -0.1408  0.7186
10142SOL    HW231326   6.069   4.791   6.361 -1.7490 -3.4101 -0.8671
10143SOL     OW31327   4.527   5.388   2.606  0.1621  0.0839 -0.5437
10143SOL    HW131328   4.617   5.386   2.563 -0.1705 -0.2109 -1.2415
10143SOL    HW231329   4.517   5.308   2.664  0.9348  0.9122  0.7860
10144SOL     OW31330   3.556   5.337   3.287  0.3361 -0.7600 -0.4070
10144SOL    HW131331   3.470   5.327   3.336 -0.5931 -0.8560 -1.9832
10144SOL    HW231332   3.605   5.250   3.286  0.8384 -0.5253  1.1192
10145SOL     OW31333   3.964   5.700   6.684 -0.2286  0.1262  0.0831
10145SOL    HW131334   3.871   5.726   6.658 -0.4500  0.7872  1.4413
10145SOL    HW231335   3.965   5.607   6.719 -0.2867 -0.0645 -0.4274
10146SOL     OW31336   5.058   4.769   3.685  0.1021  0.9404 -0.3022
10146SOL    HW131337   4.980   4.707   3.675  0.4612  0.8517 -3.5625
10146SOL    HW231338   5.030   4.848   3.740 -0.9007 -1.0822  2.3635
10147SOL     OW31339   5.832   3.789   3.861  0.3324  0.3722  0.1243
10147SOL    HW131340   5.749   3.741   3.833  1.2705 -2.4615  1.8185
10147SOL    HW231341   5.812   3.846   3.941  0.5011 -2.9433  2.7511
10148SOL     OW31342   5.258   6.620   1.435  0.2253 -0.2284 -0.2094
10148SOL    HW131343   5.305   6.554   1.493 -0.9154  0.4356  1.5595
10148SOL    HW231344   5.186   6.573   1.383  0.4475 -0.6321 -0.1533
10149SOL     OW31345   3.484   2.494   1.230 -0.2377 -0.3284 -0.1374
10149SOL    HW131346   3.532   2.407   1.240  0.9210  0.5128  2.4152
10149SOL    HW231347   3.523   2.545   1.153  0.2542 -1.3497 -0.5750
10150SOL     OW31348   5.823   5.629   0.675  0.2334  0.0247  0.3762
10150SOL    HW131349   5.764   5.562   0.720  1.1765 -2.2557 -1.5881
10150SOL    HW231350   5.774   5.717   0.669 -0.6239 -0.0148  4.0029
10151SOL     OW31351   6.862   5.866   1.191  0.2017  0.0079  0.6274
10151SOL    HW131352   6.812   5.791   1.148 -0.0325  0.8002 -0.5139
10151SOL    HW231353   6.830   5.877   1.285  0.6943 -1.7194  1.0252
10152SOL     OW31354   1.128   4.984   4.988 -0.3307  0.0043 -0.2952
10152SOL    HW131355   1.077   5.066   4.963 -1.9276 -0.5005  1.0441
10152SOL    HW231356   1.142   4.927   4.907 -0.2680  1.0338 -1.0190
10153SOL     OW31357   5.555   4.178   4.603  0.0766  0.3237  0.2636
10153SOL    HW131358   5.571   4.079   4.607  0.3860  0.3021 -1.0489
10153SOL    HW231359   5.496   4.206   4.679 -0.7301 -0.9974  0.1384
10154SOL     OW31360   0.152   1.332   0.205  0.0435  0.1877  0.0866
10154SOL    HW131361   0.107   1.320   0.293  3.0214  1.9450  2.0053
10154SOL    HW231362   0.222   1.261   0.193 -0.9179 -0.5674 -1.3329
10155SOL     OW31363   3.567   2.057   4.135  0.4410 -0.0947  0.4649
10155SOL    HW131364   3.666   2.064   4.145  0.4264  0.2994  0.3546
10155SOL    HW231365   3.522   2.110   4.206  0.3174  0.3942  0.0275
10156SOL     OW31366   1.393   1.264   0.714 -0.4913 -0.3106 -0.6514
10156SOL    HW131367   1.348   1.276   0.803 -0.0087  2.0349 -0.6491
10156SOL    HW231368   1.460   1.190   0.720 -1.0891 -0.7862  0.6714
10157SOL     OW31369   3.036   0.679   3.752  0.2259 -0.0305  0.3427
10157SOL    HW131370   3.011   0.698   3.657  0.0036  2.1527  0.7861
10157SOL    HW231371   2.962   0.710   3.812  0.0619 -2.0137  1.2361
10158SOL     OW31372   4.576   2.359   5.553  0.0130 -0.3619 -0.0442
10158SOL    HW131373   4.584   2.451   5.592  0.7064  0.0693 -1.1351
10158SOL    HW231374   4.646   2.300   5.593  0.2299 -0.1323 -0.0803
10159SOL     OW31375   1.777   0.184   4.728 -0.1149  0.4764  1.2627
10159SOL    HW131376   1.804   0.262   4.785  1.9448  0.3485  0.5443
10159SOL    HW231377   1.740   0.112   4.786  1.9727  0.3300  2.5206
10160SOL     OW31378   0.677   6.374   3.739 -0.4804 -0.2779 -0.5552
10160SOL    HW131379   0.757   6.351   3.796  0.4749  0.3338 -1.6135
10160SOL    HW231380   0.707   6.387   3.645 -1.1824  3.6909 -0.3774
10161SOL     OW31381   2.740   6.865   4.942  0.4271 -0.3899  0.2472
10161SOL    HW131382   2.649   6.891   4.977  0.3875 -1.4018  0.9348
10161SOL    HW231383   2.810   6.919   4.989  0.1138  1.9019 -1.7430
10162SOL     OW31384   0.739   1.994   0.246 -0.0075  0.0518 -0.5115
10162SOL    HW131385   0.803   2.070   0.254  1.3144 -0.8225 -2.0213
10162SOL    HW231386   0.719   1.978   0.149 -2.0219 -0.1325 -0.1043
10163SOL     OW31387   6.287   1.336   4.092  0.5983  0.5703  0.1070
10163SOL    HW131388   6.266   1.255   4.146  0.3735  0.0999 -0.6614
10163SOL    HW231389   6.295   1.416   4.152  0.4713  0.0449  0.8314
10164SOL     OW31390   3.115   1.511   6.129 -0.0582  0.3804 -0.5099
10164SOL    HW131391   3.024   1.470   6.132 -0.0565  0.3970 -0.2182
10164SOL    HW231392   3.170   1.475   6.205 -0.5328  2.0596  0.6896
10165SOL     OW31393   0.107   0.837   3.357 -0.0307  0.3255 -0.1035
10165SOL    HW131394   0.027   0.826   3.417 -0.6872  1.8543 -0.6360
10165SOL    HW231395   0.105   0.768   3.285  1.5506 -2.5116  2.3538
10166SOL     OW31396   1.129   1.285   1.420  0.2924 -0.2272 -0.0093
10166SOL    HW131397   1.101   1.227   1.496 -2.7604 -1.2970 -1.7672
10166SOL    HW231398   1.125   1.233   1.335 -0.2235  1.8876 -1.3681
10167SOL     OW31399   4.732   1.672   1.389 -0.7389  0.1643 -0.1324
10167SOL    HW131400   4.719   1.703   1.482  0.4393 -0.8389  0.3943
10167SOL    HW231401   4.716   1.573   1.385 -1.2274  0.2676 -1.0968
10168SOL     OW31402   4.617   2.771   4.905 -0.0469 -0.1450 -0.6062
10168SOL    HW131403   4.539   2.776   4.968  0.1226  0.5743 -0.4417
10168SOL    HW231404   4.587   2.730   4.819  0.5283 -4.7320  1.1140
10169SOL     OW31405   6.175   4.481   4.940 -0.2111 -0.1492  0.0803
10169SOL    HW131406   6.269   4.502   4.913 -0.5376 -0.2873 -1.2395
10169SOL    HW231407   6.140   4.407   4.882 -1.5863  0.8051 -0.3361
10170SOL     OW31408   1.450   2.326   3.827 -0.7472 -0.2316  0.4508
10170SOL    HW131409   1.496   2.299   3.743  0.5421  0.4085  0.9149
10170SOL    HW231410   1.351   2.324   3.813 -0.8198 -4.7583  0.3642
10171SOL     OW31411   6.532   3.265   5.170 -0.3386  0.1451  0.4758
10171SOL    HW131412   6.552   3.172   5.203  0.0383 -0.0642 -0.3318
10171SOL    HW231413   6.438   3.268   5.137 -0.0700 -0.2017 -0.3461
10172SOL     OW31414   4.742   6.483   5.250  0.5504  0.0892 -0.2987
10172SOL    HW131415   4.776   6.447   5.163  2.1801  1.8942 -0.4457
10172SOL    HW231416   4.644   6.501   5.241  0.9338  1.5600 -2.2613
10173SOL     OW31417   0.746   2.901   3.889  0.1615  0.2305 -0.2723
10173SOL    HW131418   0.687   2.821   3.896  0.0960  0.4164  2.4698
10173SOL    HW231419   0.691   2.983   3.871 -0.2036  0.1435  0.4348
10174SOL     OW31420   0.066   6.044   1.164 -0.0764 -0.7510 -0.2742
10174SOL    HW131421   0.055   6.078   1.070  0.9573  2.3692  0.6186
10174SOL    HW231422  -0.020   6.004   1.195 -1.2344  0.5043 -1.6959
10175SOL     OW31423   4.418   2.502   5.355  0.2713 -0.0257 -1.3106
10175SOL    HW131424   4.491   2.475   5.417 -0.3517  0.7688 -0.1890
10175SOL    HW231425   4.330   2.469   5.391  0.0264 -0.8030 -2.5335
10176SOL     OW31426   3.336   4.096   6.863  0.5809 -0.8287 -0.6845
10176SOL    HW131427   3.342   4.154   6.944 -2.5062 -0.2636 -0.7495
10176SOL    HW231428   3.407   4.122   6.798  1.0169  0.9807  0.4567
10177SOL     OW31429   0.687   6.946   0.082  0.0632  0.3181 -0.5151
10177SOL    HW131430   0.599   6.993   0.092 -0.6282 -0.7240 -1.5237
10177SOL    HW231431   0.762   7.012   0.097 -0.8639  1.1519  0.6654
10178SOL     OW31432   3.575   3.173   5.400  0.0119 -0.2749 -0.2482
10178SOL    HW131433   3.604   3.198   5.308 -1.7498 -1.3313 -1.1598
10178SOL    HW231434   3.488   3.125   5.395 -0.8282  0.8346  2.1074
10179SOL     OW31435   0.641   3.798   6.972  0.3866  0.1482  0.1120
10179SOL    HW131436   0.738   3.811   6.949 -0.0002  0.3210 -1.5995
10179SOL    HW231437   0.627   3.704   7.004  0.9521 -0.2767 -0.8185
10180SOL     OW31438   1.788   6.797   0.231  0.0394 -0.7445  0.0049
10180SOL    HW131439   1.835   6.729   0.288 -1.4547  0.0777  2.3727
10180SOL    HW231440   1.760   6.874   0.288 -3.0104 -0.6075 -1.5190
10181SOL     OW31441   6.222   4.611   1.627 -0.1431  0.2240  0.0504
10181SOL    HW131442   6.280   4.537   1.592 -1.3665 -0.8449  0.2162
10181SOL    HW231443   6.144   4.572   1.675 -0.4032  1.6528  0.8313
10182SOL     OW31444   4.679   2.762   2.558 -0.4252 -0.5954 -0.1188
10182SOL    HW131445   4.737   2.681   2.558 -0.5475 -0.6922  1.0550
10182SOL    HW231446   4.605   2.751   2.624 -1.1111  0.0066 -0.7649
10183SOL     OW31447   3.799   1.131   5.792  0.1397  0.4966  0.1440
10183SOL    HW131448   3.866   1.170   5.854 -0.4408  0.9052  0.5293
10183SOL    HW231449   3.736   1.203   5.762 -1.8125 -0.3569  1.9575
10184SOL     OW31450   3.085   6.488   0.557  0.0655  0.0594  0.4017
10184SOL    HW131451   3.048   6.577   0.585  0.6581  0.8224 -1.1538
10184SOL    HW231452   3.034   6.455   0.478 -0.4498 -1.2336  1.2436
10185SOL     OW31453   4.430   1.988   0.143 -0.0762 -0.1463  0.0074
10185SOL    HW131454   4.444   1.895   0.110 -0.1833  0.0961 -0.7330
10185SOL    HW231455   4.497   2.008   0.215  1.0038 -0.2518 -0.9418
10186SOL     OW31456   5.142   2.260   2.298 -0.1163 -0.2442  0.0376
10186SOL    HW131457   5.061   2.314   2.322 -0.4763 -1.5450  2.0192
10186SOL    HW231458   5.123   2.203   2.219 -0.8437  0.0811 -0.0271
10187SOL     OW31459   5.597   3.422   1.616 -0.0488  0.0019  0.5149
10187SOL    HW131460   5.515   3.404   1.671  0.0587  0.8824  0.9764
10187SOL    HW231461   5.599   3.518   1.590  1.5595  0.3230  1.6997
10188SOL     OW31462   3.845   5.951   0.009  0.3689 -0.4509  0.0025
10188SOL    HW131463   3.816   5.855   0.013  0.4590 -0.4567  0.9052
10188SOL    HW231464   3.775   6.009   0.050  0.2489 -0.1065 -0.6763
10189SOL     OW31465   0.514   1.109   6.103  0.3447  0.3099  0.0338
10189SOL    HW131466   0.527   1.204   6.072 -1.3504  0.8519  0.8799
10189SOL    HW231467   0.441   1.066   6.050 -1.0711  0.5379  1.7029
10190SOL     OW31468   6.811   3.027   0.541 -0.5412  0.3959  0.0482
10190SOL    HW131469   6.775   3.055   0.630  0.7576 -1.5132  1.2435
10190SOL    HW231470   6.825   3.108   0.484 -3.1986  1.5313  0.8056
10191SOL     OW31471   5.917   5.577   6.512  0.5771  0.1421  0.0241
10191SOL    HW131472   5.821   5.575   6.540  0.3007  1.0806 -0.7781
10191SOL    HW231473   5.976   5.582   6.592 -0.1260  1.4952  0.4695
10192SOL     OW31474   4.163   1.715   6.944  0.1696  0.1116  0.0639
10192SOL    HW131475   4.213   1.637   6.982  0.6861 -0.0755 -0.9580
10192SOL    HW231476   4.089   1.741   7.006  0.7050 -0.4587  0.9623
10193SOL     OW31477   6.466   5.374   0.118 -0.1707  0.1085  0.1284
10193SOL    HW131478   6.489   5.354   0.023 -1.2424  2.3334 -0.6759
10193SOL    HW231479   6.549   5.378   0.173  0.4444 -1.4259 -0.6358
10194SOL     OW31480   5.068   3.303   6.490 -0.9166  0.3613 -0.0977
10194SOL    HW131481   5.014   3.383   6.465 -1.8423 -0.3495 -0.4788
10194SOL    HW231482   5.012   3.221   6.477 -0.4764 -0.2435  1.6470
10195SOL     OW31483   4.625   5.110   2.017 -0.4351 -0.0551  0.4519
10195SOL    HW131484   4.563   5.034   2.035  1.0043 -1.2738  0.5257
10195SOL    HW231485   4.715   5.074   1.992 -0.1845  1.6259 -1.3165
10196SOL     OW31486   6.460   2.203   5.263  0.0277 -0.0719  0.2496
10196SOL    HW131487   6.471   2.292   5.217 -0.5382 -0.5553 -0.8756
10196SOL    HW231488   6.528   2.194   5.336  0.0861  1.2876  0.3849
10197SOL     OW31489   6.007   1.251   1.077  0.7515 -0.1859 -0.2065
10197SOL    HW131490   5.966   1.338   1.102  1.0168  0.1648 -0.9557
10197SOL    HW231491   5.958   1.213   0.998  1.0369 -0.4008 -0.2830
10198SOL     OW31492   3.409   6.627   3.479 -0.3683  0.1945 -0.1668
10198SOL    HW131493   3.368   6.713   3.511 -1.5905 -0.3727 -0.1380
10198SOL    HW231494   3.477   6.596   3.544 -1.7446 -0.1651  1.1598
10199SOL     OW31495   0.117   3.235   4.501  0.0804 -0.3427 -0.6002
10199SOL    HW131496   0.217   3.228   4.494  0.2290  0.3741  0.6913
10199SOL    HW231497   0.076   3.150   4.467  1.1565 -0.9710 -0.3794
10200SOL     OW31498   5.702   3.327   2.969  0.0220  0.3492  0.3498
10200SOL    HW131499   5.631   3.314   2.899 -1.1607 -2.2678  1.8697
10200SOL    HW231500   5.659   3.326   3.060  1.9535 -1.1890  1.3230
10201SOL     OW31501   2.007   4.473   1.056 -0.6853  0.2300  0.0144
10201SOL    HW131502   2.097   4.484   1.097 -0.5634 -0.1295 -0.1534
10201SOL    HW231503   1.984   4.555   1.004 -0.9827  0.8298  1.0607
10202SOL     OW31504   3.912   0.161   2.115 -0.0099 -0.3863 -0.5083
10202SOL    HW131505   3.832   0.191   2.062  0.0238 -0.0823 -0.3898
10202SOL    HW231506   3.974   0.238   2.128 -0.8410  0.0046  1.4630
10203SOL     OW31507   0.996   3.368   5.448 -1.0155 -0.2964  0.2600
10203SOL    HW131508   1.091   3.357   5.475 -0.8332  0.8467  0.1217
10203SOL    HW231509   0.984   3.336   5.354 -0.6270  0.1378  0.0579
10204SOL     OW31510   4.634   4.496   5.326 -0.6599  0.1715 -0.1445
10204SOL    HW131511   4.693   4.543   5.391  1.0103 -1.1236 -0.6608
10204SOL    HW231512   4.626   4.551   5.243  0.1501  0.2001 -0.2152
10205SOL     OW31513   6.407   1.060   0.950 -0.0428  0.0607  0.1174
10205SOL    HW131514   6.462   1.106   0.881  0.8595 -0.8988  0.1673
10205SOL    HW231515   6.341   0.999   0.904 -2.1940  2.3154 -0.0094
10206SOL     OW31516   2.394   1.103   0.051 -0.8283  0.3306  0.0627
10206SOL    HW131517   2.458   1.091   0.127  0.4248  0.2330 -0.9633
10206SOL    HW231518   2.300   1.095   0.084 -0.3973  2.4951  1.9866
10207SOL     OW31519   3.911   2.627   6.080 -0.5611 -0.4086 -0.0974
10207SOL    HW131520   3.925   2.667   6.170 -1.1413 -0.9370  0.2249
10207SOL    HW231521   3.907   2.701   6.012 -1.0045  0.0484  0.4148
10208SOL     OW31522   0.411   0.693   5.795  0.4954 -0.2241 -0.2820
10208SOL    HW131523   0.350   0.635   5.849 -0.3390  0.9496  0.1083
10208SOL    HW231524   0.501   0.651   5.788  0.2714 -0.9744  1.0150
10209SOL     OW31525   6.513   1.691   0.488 -0.2232  0.3616  0.2032
10209SOL    HW131526   6.576   1.767   0.472 -1.3940  1.1371 -1.0005
10209SOL    HW231527   6.456   1.712   0.568 -1.2662  1.2826 -0.7535
10210SOL     OW31528   1.088   0.558   2.820  0.1776  0.2316  0.1899
10210SOL    HW131529   1.107   0.627   2.749  1.2327 -0.6742 -0.4353
10210SOL    HW231530   1.164   0.555   2.885 -0.1599  0.0971  0.5800
10211SOL     OW31531   6.713   5.350   5.508  0.1879  0.2818  0.5520
10211SOL    HW131532   6.634   5.290   5.517  1.6457 -1.6823  0.9067
10211SOL    HW231533   6.758   5.334   5.420  1.3507 -0.1551  1.1991
10212SOL     OW31534   1.624   6.705   0.882 -0.4157 -0.3281 -0.0614
10212SOL    HW131535   1.531   6.677   0.858 -0.7393  0.5421  0.1546
10212SOL    HW231536   1.678   6.719   0.799 -0.9872  0.8450 -0.2596
10213SOL     OW31537   6.096   2.329   1.839 -0.1356 -0.3347 -0.2233
10213SOL    HW131538   6.055   2.241   1.864 -0.2917  0.0230  0.8152
10213SOL    HW231539   6.035   2.378   1.776 -1.2618  0.1283  1.1907
10214SOL     OW31540   1.002   4.023   1.286  0.1017 -0.2014  0.0912
10214SOL    HW131541   1.100   4.033   1.304 -0.3061  1.7043  1.5798
10214SOL    HW231542   0.952   4.024   1.373 -1.4550  1.8688 -0.7614
10215SOL     OW31543   4.437   3.573   0.882  0.3505  0.4013 -0.1549
10215SOL    HW131544   4.436   3.663   0.839 -0.3693  1.2579  1.5736
10215SOL    HW231545   4.396   3.506   0.819  0.5947  1.3276 -1.3300
10216SOL     OW31546   2.095   0.846   2.737 -0.1062  0.6250 -0.3359
10216SOL    HW131547   2.055   0.918   2.792  2.4821 -0.8650  3.9866
10216SOL    HW231548   2.045   0.760   2.752  0.1781  0.3392 -0.9518
10217SOL     OW31549   2.517   0.479   5.843 -0.0756 -0.1705  0.1236
10217SOL    HW131550   2.585   0.451   5.775 -0.3659 -0.1554 -0.1773
10217SOL    HW231551   2.563   0.516   5.923  0.2517  0.4411 -0.3418
10218SOL     OW31552   0.763   3.196   2.440 -0.3320  0.1302  0.0988
10218SOL    HW131553   0.766   3.292   2.467  0.2129  0.1174  0.1021
10218SOL    HW231554   0.686   3.151   2.484 -0.0517  0.3518  0.8354
10219SOL     OW31555   1.245   4.732   1.304  0.5107 -0.6448 -0.0422
10219SOL    HW131556   1.303   4.652   1.318  0.4987 -0.7901 -0.7764
10219SOL    HW231557   1.247   4.759   1.207  0.2273  0.0200  0.1278
10220SOL     OW31558   2.639   4.255   0.904 -0.0918 -0.0049  0.1429
10220SOL    HW131559   2.615   4.282   0.811  0.4204  0.0648  0.0247
10220SOL    HW231560   2.731   4.289   0.925 -0.4837  0.5970  0.9220
10221SOL     OW31561   6.857   5.909   3.649  0.4006 -0.3728  0.5266
10221SOL    HW131562   6.795   5.972   3.602  1.4534  0.3178  0.0252
10221SOL    HW231563   6.860   5.822   3.600  0.0783 -0.3007  0.3744
10222SOL     OW31564   2.994   3.485   4.791  0.4074 -0.4037 -0.5457
10222SOL    HW131565   2.968   3.430   4.711 -1.6663  0.8923 -0.8544
10222SOL    HW231566   3.031   3.573   4.760  1.3445 -0.6115 -0.0543
10223SOL     OW31567   2.069   2.117   0.926 -0.0688  0.7993 -0.1489
10223SOL    HW131568   2.105   2.204   0.960 -0.2494  0.9809 -0.4189
10223SOL    HW231569   1.970   2.114   0.941  0.0826  0.1850  0.8490
10224SOL     OW31570   5.071   1.578   2.218 -0.2668  0.0378 -0.2487
10224SOL    HW131571   4.995   1.579   2.283 -0.3209 -1.0513 -0.2777
10224SOL    HW231572   5.041   1.620   2.132 -1.0361 -0.8877 -0.4544
10225SOL     OW31573   3.253   4.356   6.628 -0.2403 -0.2731 -0.3864
10225SOL    HW131574   3.255   4.263   6.664  0.2815 -0.1904 -0.1967
10225SOL    HW231575   3.193   4.413   6.685  1.3695  0.1167  1.0157
10226SOL     OW31576   3.378   5.520   4.868  0.1130 -0.2265  0.2831
10226SOL    HW131577   3.368   5.425   4.898 -0.9666  0.3600  1.9091
10226SOL    HW231578   3.296   5.548   4.819  0.5825 -0.2184 -0.5170
10227SOL     OW31579   6.789   4.682   6.282 -0.1354  0.5607 -0.4764
10227SOL    HW131580   6.853   4.626   6.230 -1.0413  1.6164 -2.8815
10227SOL    HW231581   6.801   4.779   6.258  0.1680  1.2784  2.2083
10228SOL     OW31582   5.335   6.469   5.719  0.0870  0.0323 -0.0215
10228SOL    HW131583   5.390   6.545   5.681 -0.8406  0.7387  0.0135
10228SOL    HW231584   5.257   6.507   5.768 -2.0859 -0.9383 -2.4927
10229SOL     OW31585   6.267   3.284   5.053  0.0240 -0.7751  0.1572
10229SOL    HW131586   6.233   3.211   4.994 -0.1432  0.0338 -0.7894
10229SOL    HW231587   6.293   3.363   4.996  0.6739 -0.2848  1.1086
10230SOL     OW31588   5.592   6.664   0.924  0.1430 -0.6955  0.3246
10230SOL    HW131589   5.516   6.706   0.972  1.3100  0.6380  1.0927
10230SOL    HW231590   5.614   6.717   0.842  1.6429  0.3003  1.3126
10231SOL     OW31591   6.270   4.084   0.032  0.2174  0.5517  0.1567
10231SOL    HW131592   6.322   4.051   0.110  0.5944  0.4161 -0.1504
10231SOL    HW231593   6.175   4.055   0.040  0.3030  0.3556  0.4547
10232SOL     OW31594   3.952   5.119   0.992 -0.0341 -0.2062  0.5761
10232SOL    HW131595   3.886   5.184   1.031  1.7537  1.6896  0.5649
10232SOL    HW231596   4.045   5.150   1.011  0.9170 -2.7933  0.5447
10233SOL     OW31597   3.102   3.193   0.359 -0.4144 -0.3426 -0.6907
10233SOL    HW131598   3.181   3.134   0.345 -0.6169 -1.0057  0.8459
10233SOL    HW231599   3.101   3.264   0.288  1.5233 -0.3314 -0.7533
10234SOL     OW31600   1.893   1.163   3.613 -0.2928  0.4695 -0.1929
10234SOL    HW131601   1.918   1.167   3.516 -1.9117  1.0232 -0.6112
10234SOL    HW231602   1.809   1.110   3.623 -0.9452  1.6292  0.7165
10235SOL     OW31603   1.757   5.527   3.160  0.2981  0.5614 -0.0940
10235SOL    HW131604   1.727   5.587   3.234  1.4055  1.3889 -0.2951
10235SOL    HW231605   1.727   5.563   3.072  0.6195  0.5993 -0.1884
10236SOL     OW31606   1.342   0.473   3.246 -0.0290 -0.2742 -0.3245
10236SOL    HW131607   1.352   0.561   3.292 -3.7457 -0.4237  1.0603
10236SOL    HW231608   1.344   0.400   3.313 -1.5356 -0.8336 -0.8503
10237SOL     OW31609   5.889   3.387   4.672 -0.2244 -0.0161 -0.2855
10237SOL    HW131610   5.825   3.370   4.747 -0.0159  0.7617  0.0851
10237SOL    HW231611   5.866   3.329   4.594  0.4153 -1.9083  0.8581
10238SOL     OW31612   2.001   0.169   1.971  0.6289 -0.5116 -0.1885
10238SOL    HW131613   2.068   0.210   2.032  1.3003 -1.5205 -0.2276
10238SOL    HW231614   1.927   0.129   2.025  2.0535 -2.9063  0.1451
10239SOL     OW31615   0.494   1.627   4.038  0.3470 -0.4911  0.8066
10239SOL    HW131616   0.499   1.533   4.071 -0.7836 -1.1196 -0.6731
10239SOL    HW231617   0.405   1.666   4.063 -0.5304 -0.9790 -1.2985
10240SOL     OW31618   1.188   6.666   6.717  0.7145 -0.6290  0.2414
10240SOL    HW131619   1.090   6.686   6.719  0.5373 -1.5481  1.5422
10240SOL    HW231620   1.229   6.711   6.637 -1.2316 -2.3811 -1.8775
10241SOL     OW31621   4.469   3.204   1.688 -0.4787 -0.0927  0.1122
10241SOL    HW131622   4.523   3.245   1.614 -0.8801  0.6969  0.2403
10241SOL    HW231623   4.530   3.154   1.750 -0.0818 -0.3818 -0.5034
10242SOL     OW31624   1.209   5.358   1.982  0.2748 -0.1490  0.0510
10242SOL    HW131625   1.298   5.399   1.965  0.3167 -0.2555  0.0144
10242SOL    HW231626   1.215   5.259   1.971  0.3948 -0.2604  1.0221
10243SOL     OW31627   3.846   5.542   3.500  0.0826 -0.1346  0.2585
10243SOL    HW131628   3.754   5.579   3.484 -0.4907 -1.4671  0.4056
10243SOL    HW231629   3.889   5.522   3.412  0.9230  2.0368  0.1072
10244SOL     OW31630   2.145   5.253   2.462 -0.4798 -0.1559  0.0464
10244SOL    HW131631   2.127   5.345   2.427 -2.7609 -0.4325  0.3403
10244SOL    HW231632   2.177   5.258   2.556  1.8549  0.4061 -0.7157
10245SOL     OW31633   6.332   5.524   2.144 -0.4092  0.0175 -0.1632
10245SOL    HW131634   6.419   5.554   2.104 -0.3924  1.9279  1.1771
10245SOL    HW231635   6.349   5.488   2.237 -0.9472 -0.5145 -0.2652
10246SOL     OW31636   3.575   2.697   1.592  0.2619 -0.6456  0.0190
10246SOL    HW131637   3.528   2.696   1.503  0.0588 -0.9360  0.1256
10246SOL    HW231638   3.518   2.651   1.660  0.1259  0.1493  0.4540
10247SOL     OW31639   0.069   2.677   5.070 -0.2283  0.3136 -0.5363
10247SOL    HW131640   0.156   2.721   5.051  0.4253 -1.0933 -0.8933
10247SOL    HW231641   0.001   2.706   5.003  1.0117 -1.5547 -2.7512
10248SOL     OW31642   0.236   1.516   2.816 -0.1414  0.1325  0.1266
10248SOL    HW131643   0.221   1.501   2.718 -3.2061  0.9561  0.3744
10248SOL    HW231644   0.238   1.614   2.834 -1.9163  0.0116  1.1315
10249SOL     OW31645   2.926   3.216   6.666  1.2308  0.5489  0.0415
10249SOL    HW131646   3.005   3.155   6.659  1.0189  0.3614 -0.8509
10249SOL    HW231647   2.926   3.279   6.588  1.1200  1.3054  0.6393
10250SOL     OW31648   3.341   2.065   6.472  0.1245 -0.4029 -0.2072
10250SOL    HW131649   3.359   2.049   6.375  1.6931 -2.8066  0.3879
10250SOL    HW231650   3.393   2.145   6.503  2.4418 -1.6129 -0.6802
10251SOL     OW31651   2.119   1.707   4.949 -0.2103  0.3817 -0.2109
10251SOL    HW131652   2.056   1.677   4.878 -0.9492  1.0609  0.1433
10251SOL    HW231653   2.161   1.794   4.922  1.8965 -0.8745 -1.2215
10252SOL     OW31654   6.277   5.236   5.950 -0.0242  0.8237 -0.4181
10252SOL    HW131655   6.230   5.215   6.036  2.2133 -0.8190  0.4838
10252SOL    HW231656   6.277   5.156   5.891 -0.9553  1.7387 -1.7142
10253SOL     OW31657   5.155   5.031   0.678  0.3533  0.1720 -0.0232
10253SOL    HW131658   5.239   5.055   0.630 -0.2994  2.9483  0.0546
10253SOL    HW231659   5.160   5.063   0.773 -0.1532 -1.2071  0.5062
10254SOL     OW31660   5.937   2.256   5.817 -0.4650  0.0042  0.0980
10254SOL    HW131661   5.947   2.317   5.738  2.1643  0.6552  0.8555
10254SOL    HW231662   5.908   2.308   5.897  1.8776  0.3821  0.7703
10255SOL     OW31663   4.185   4.416   1.332 -0.3827 -0.6622  0.1207
10255SOL    HW131664   4.226   4.347   1.393 -0.1282 -1.6745 -1.1337
10255SOL    HW231665   4.246   4.495   1.325  1.7933 -2.3778 -2.1469
10256SOL     OW31666   0.870   6.707   4.635  0.4933 -0.5802  0.3138
10256SOL    HW131667   0.800   6.775   4.658  2.0009  0.6058  1.5908
10256SOL    HW231668   0.914   6.733   4.549  0.4258 -0.4789  0.3089
10257SOL     OW31669   4.433   1.425   4.283 -0.3753  0.5073  0.5754
10257SOL    HW131670   4.360   1.361   4.263  0.0843 -0.0233  0.5590
10257SOL    HW231671   4.516   1.399   4.233 -0.6480  2.1268 -0.8263
10258SOL     OW31672   3.819   2.890   0.955 -0.6376 -0.2698  0.4608
10258SOL    HW131673   3.883   2.894   1.032 -0.1767  0.3445  0.0537
10258SOL    HW231674   3.746   2.824   0.976  0.0412 -0.8684  0.9862
10259SOL     OW31675   2.190   5.256   2.775 -0.2452  0.6880  0.0679
10259SOL    HW131676   2.287   5.239   2.792  0.3114  2.2417 -1.2698
10259SOL    HW231677   2.135   5.194   2.831  1.4969  0.1357  1.2598
10260SOL     OW31678   0.533   1.165   5.235  0.1837 -0.1836  0.1186
10260SOL    HW131679   0.549   1.066   5.241  1.7576  0.1104  1.3134
10260SOL    HW231680   0.481   1.196   5.314  2.2080  0.3477  1.3171
10261SOL     OW31681   4.851   5.427   6.934 -0.2690  0.4097  0.8252
10261SOL    HW131682   4.935   5.374   6.932 -0.6538 -0.2055 -0.9322
10261SOL    HW231683   4.862   5.511   6.880 -0.3145  1.1243  1.8880
10262SOL     OW31684   4.073   1.633   2.202  0.3959  0.3640  0.7539
10262SOL    HW131685   4.045   1.576   2.125  3.1326  0.7088 -0.6057
10262SOL    HW231686   4.001   1.698   2.223 -0.8049 -0.3662 -0.8919
10263SOL     OW31687   4.344   7.016   2.078  0.1394 -0.0467  0.1986
10263SOL    HW131688   4.388   6.953   2.142  0.1706  0.4916  0.7199
10263SOL    HW231689   4.396   7.102   2.075 -0.6764  0.4679  0.5531
10264SOL     OW31690   6.260   3.365   5.701  0.3853  0.3748  0.3638
10264SOL    HW131691   6.309   3.369   5.788  0.1962 -0.2263  0.5020
10264SOL    HW231692   6.272   3.452   5.652  1.7658  0.1757  0.3023
10265SOL     OW31693   6.239   1.557   4.254  0.4633  0.0267 -0.3031
10265SOL    HW131694   6.166   1.520   4.311  0.6214 -1.4850 -1.0137
10265SOL    HW231695   6.327   1.541   4.297  0.5308 -0.4069 -0.5959
10266SOL     OW31696   2.908   3.973   1.732 -0.9955  0.4266  0.4651
10266SOL    HW131697   2.968   3.894   1.716  0.0577  1.5402 -1.4133
10266SOL    HW231698   2.814   3.949   1.706 -0.6485 -0.1334 -0.3072
10267SOL     OW31699   0.535   1.674   6.487  0.3537 -0.1776  1.1043
10267SOL    HW131700   0.503   1.619   6.564 -0.4211 -0.2907  0.7101
10267SOL    HW231701   0.506   1.632   6.401 -0.5116  0.9817  0.8024
10268SOL     OW31702   5.298   5.717   4.523  0.0133 -0.0963 -0.0615
10268SOL    HW131703   5.337   5.778   4.591  1.6304 -0.7124 -0.3834
10268SOL    HW231704   5.256   5.771   4.450 -2.9141  0.5875  1.9550
10269SOL     OW31705   3.137   2.151   5.912  0.0206 -0.3921  0.0585
10269SOL    HW131706   3.119   2.072   5.971  0.0210  0.6209  1.4618
10269SOL    HW231707   3.150   2.120   5.818 -0.7276 -1.9829  0.4456
10270SOL     OW31708   1.488   5.286   2.588 -0.5618  0.0971  0.0142
10270SOL    HW131709   1.568   5.344   2.605  0.0155 -0.1484 -1.6658
10270SOL    HW231710   1.474   5.226   2.666  0.3033  0.8217  0.7588
10271SOL     OW31711   2.410   1.633   6.725 -0.1446 -0.4506  0.6142
10271SOL    HW131712   2.353   1.680   6.793 -0.0494  0.9754 -0.2616
10271SOL    HW231713   2.376   1.654   6.633 -0.9879 -3.2614  0.1879
10272SOL     OW31714   6.687   4.871   5.043 -0.6045 -0.1464  0.2695
10272SOL    HW131715   6.601   4.830   5.075 -0.5204 -1.5644 -1.1825
10272SOL    HW231716   6.752   4.799   5.020  0.7957  0.9038  0.8089
10273SOL     OW31717   2.623   4.993   2.201  0.0365 -0.4854  0.9235
10273SOL    HW131718   2.670   4.905   2.211 -0.3530 -0.6515  1.3566
10273SOL    HW231719   2.658   5.057   2.269  1.3357  0.1643 -0.3019
10274SOL     OW31720   2.392   4.385   6.388 -0.3178 -0.8086  0.1010
10274SOL    HW131721   2.370   4.289   6.369 -0.4820 -0.8319  0.4039
10274SOL    HW231722   2.437   4.425   6.308  0.8260 -1.4708  0.3834
10275SOL     OW31723   0.707   6.491   2.269 -0.2141 -0.5791  0.0437
10275SOL    HW131724   0.616   6.451   2.268 -0.8477  0.5710 -4.1450
10275SOL    HW231725   0.776   6.418   2.265 -1.2184 -1.4974 -2.9124
10276SOL     OW31726   4.670   6.544   4.494 -0.8632 -0.6315  0.3368
10276SOL    HW131727   4.619   6.569   4.576  1.5865 -1.7794  2.3396
10276SOL    HW231728   4.628   6.588   4.414 -2.6397  1.5067  2.3005
10277SOL     OW31729   0.004   5.074   4.325 -0.2282  0.3237 -0.0714
10277SOL    HW131730   0.042   4.989   4.363  0.5603  0.5151 -0.4091
10277SOL    HW231731  -0.026   5.058   4.231 -3.5604 -0.5514  0.9918
10278SOL     OW31732   0.105   5.762   2.746 -0.0214  0.2940 -0.8456
10278SOL    HW131733   0.156   5.832   2.695 -0.1793  0.0359 -1.3656
10278SOL    HW231734   0.009   5.788   2.751 -0.4210 -0.7066 -2.5538
10279SOL     OW31735   1.765   3.350   4.625 -0.1055  0.0682  0.1136
10279SOL    HW131736   1.764   3.447   4.600 -0.2586  0.1915  0.5866
10279SOL    HW231737   1.671   3.319   4.640 -0.1313 -0.3768 -0.8540
10280SOL     OW31738   0.470   6.553   1.140 -0.4176 -0.1743  0.8229
10280SOL    HW131739   0.437   6.479   1.082  2.2701 -1.4352  0.7386
10280SOL    HW231740   0.484   6.519   1.233  1.3393 -0.0046  0.6662
10281SOL     OW31741   6.470   0.027   4.287  0.3448 -0.3456  0.0735
10281SOL    HW131742   6.406  -0.031   4.237 -0.6074  2.2687 -2.0016
10281SOL    HW231743   6.560   0.021   4.245  0.0457  0.2432 -0.6837
10282SOL     OW31744   5.295   1.147   2.657  0.1685  0.1252 -0.5130
10282SOL    HW131745   5.307   1.061   2.608  1.0265  0.1092 -0.2906
10282SOL    HW231746   5.374   1.164   2.715 -0.3807  0.6444  0.1000
10283SOL     OW31747   1.349   2.140   1.293 -0.1385  0.0179 -0.8009
10283SOL    HW131748   1.390   2.201   1.225  1.9977  2.8145  2.5981
10283SOL    HW231749   1.254   2.166   1.308  0.1309  1.1652 -0.9532
10284SOL     OW31750   2.116   4.122   4.211 -0.7207 -0.1658 -0.2241
10284SOL    HW131751   2.054   4.199   4.197  1.1211  1.4768  0.2911
10284SOL    HW231752   2.210   4.150   4.193  0.1296 -2.0206  0.9777
10285SOL     OW31753   6.546   0.346   1.026  0.3704 -0.6444 -0.1973
10285SOL    HW131754   6.616   0.319   0.960 -0.9743 -0.8301 -1.6058
10285SOL    HW231755   6.511   0.437   1.003 -0.5614 -0.9744 -0.1322
10286SOL     OW31756   1.753   2.362   1.007 -0.3032 -0.5025  0.2480
10286SOL    HW131757   1.687   2.391   0.937 -0.9941 -0.2892  0.9816
10286SOL    HW231758   1.779   2.267   0.989 -1.6931 -0.9757  0.6001
10287SOL     OW31759   0.914   6.277   3.857  0.3736 -0.6573 -0.0432
10287SOL    HW131760   0.963   6.273   3.770  0.7469  0.3918  0.1069
10287SOL    HW231761   0.934   6.194   3.910 -0.3347 -1.5820 -1.1864
10288SOL     OW31762   4.027   6.817   3.396 -0.2587  0.6416  0.1261
10288SOL    HW131763   4.098   6.779   3.454 -0.9576 -1.5222 -0.3505
10288SOL    HW231764   4.020   6.763   3.312 -0.7876  2.3327 -0.9681
10289SOL     OW31765   4.490   5.509   0.753 -0.4895  0.3784  0.4518
10289SOL    HW131766   4.393   5.523   0.767 -0.5628  0.8647 -0.4409
10289SOL    HW231767   4.532   5.473   0.837 -1.4086  0.2640  0.8692
10290SOL     OW31768   3.773   2.892   2.074  0.1306  0.1130  0.0193
10290SOL    HW131769   3.674   2.893   2.086 -0.0447 -0.7693 -1.1750
10290SOL    HW231770   3.817   2.922   2.159 -1.1153 -0.9199  1.0739
10291SOL     OW31771   2.458   2.109   2.149 -0.7493 -1.0930  0.4067
10291SOL    HW131772   2.558   2.102   2.153 -0.5829  0.7016 -0.0233
10291SOL    HW231773   2.424   2.140   2.237 -0.8294 -0.6389  0.2140
10292SOL     OW31774   1.150   6.593   6.066  0.2079 -0.6953  0.1861
10292SOL    HW131775   1.236   6.644   6.059 -0.3142  0.2117  0.2993
10292SOL    HW231776   1.130   6.550   5.978 -0.2157  0.7227 -0.4269
10293SOL     OW31777   0.840   3.264   7.022  0.3969 -0.4344 -0.1170
10293SOL    HW131778   0.894   3.225   6.947  1.4055 -0.1263  0.4219
10293SOL    HW231779   0.829   3.362   7.006 -1.5368 -0.7638 -1.1134
10294SOL     OW31780   0.012   6.020   2.214  0.3625  0.3918  0.1290
10294SOL    HW131781   0.073   6.097   2.197 -1.0016  1.4422 -0.1309
10294SOL    HW231782  -0.067   6.050   2.268  0.0163 -0.9114  0.3870
10295SOL     OW31783   2.298   1.101   1.284 -0.4707  0.3506 -0.1794
10295SOL    HW131784   2.366   1.139   1.347  0.3802 -0.0070 -0.8761
10295SOL    HW231785   2.216   1.158   1.286 -0.6037  0.1609  1.5153
10296SOL     OW31786   5.105   0.935   5.354  0.0761  0.0221  0.2695
10296SOL    HW131787   5.056   0.918   5.439  1.0472 -2.1912  0.4604
10296SOL    HW231788   5.195   0.891   5.358  0.0915 -0.2831 -1.9482
10297SOL     OW31789   3.102   0.810   0.874 -0.2817  0.1573  0.4773
10297SOL    HW131790   3.098   0.830   0.776 -2.7900  0.1853  0.5053
10297SOL    HW231791   3.119   0.894   0.925  0.0452  0.3152  0.1063
10298SOL     OW31792   2.078   0.636   3.946  0.0427 -0.1109 -0.1722
10298SOL    HW131793   1.990   0.593   3.967  0.5709 -0.8026  0.6920
10298SOL    HW231794   2.132   0.574   3.889  0.4551 -0.2277  0.3386
10299SOL     OW31795   4.195   0.555   2.612  0.0082  0.4994 -0.1621
10299SOL    HW131796   4.236   0.641   2.581 -0.1467  1.4830  2.1773
10299SOL    HW231797   4.096   0.562   2.608 -0.0023 -0.0644 -1.1627
10300SOL     OW31798   1.297   1.188   0.461  0.3972 -0.1810 -0.2217
10300SOL    HW131799   1.298   1.192   0.561  1.5901 -1.9821 -0.1114
10300SOL    HW231800   1.385   1.222   0.426  0.4308 -0.6319 -0.5795
10301SOL     OW31801   4.671   0.838   3.207  0.2073  0.7062  0.1423
10301SOL    HW131802   4.674   0.840   3.107 -2.0507 -0.3836 -0.0145
10301SOL    HW231803   4.751   0.788   3.241 -0.4117 -1.4714 -1.3387
10302SOL     OW31804   3.194   0.408   0.089  0.5229  0.0542  0.4810
10302SOL    HW131805   3.102   0.446   0.101  0.3875  0.0924 -0.5485
10302SOL    HW231806   3.206   0.329   0.149  0.1691  0.6317  1.3339
10303SOL     OW31807   1.019   4.856   4.412  0.0521 -0.3330  0.2044
10303SOL    HW131808   1.006   4.763   4.377  2.0136 -0.0909 -1.3506
10303SOL    HW231809   1.071   4.910   4.345  0.6349  1.3308  1.9123
10304SOL     OW31810   5.918   3.754   6.712 -0.4592  0.0759 -0.5915
10304SOL    HW131811   5.854   3.802   6.652  0.6118 -0.5889 -2.3393
10304SOL    HW231812   5.925   3.658   6.685  0.3572 -0.1597  0.3569
10305SOL     OW31813   4.063   3.410   4.439 -0.0579 -0.5408  0.0171
10305SOL    HW131814   4.012   3.333   4.477  1.0573 -1.3848 -0.1354
10305SOL    HW231815   4.108   3.460   4.513 -0.0517 -0.5787  0.0387
10306SOL     OW31816   3.452   2.079   2.538  0.6267 -0.8696 -0.7749
10306SOL    HW131817   3.495   2.100   2.450 -0.1452  0.1882 -0.9160
10306SOL    HW231818   3.353   2.085   2.530  0.5753  1.1326  0.5972
10307SOL     OW31819   1.080   5.498   4.811  0.1191  0.4510 -0.2668
10307SOL    HW131820   1.041   5.549   4.734 -2.4623 -1.9119 -0.6816
10307SOL    HW231821   1.015   5.497   4.887  1.9248  1.3219  1.3667
10308SOL     OW31822   4.153   3.570   2.168 -0.2278  0.7571 -0.1225
10308SOL    HW131823   4.107   3.507   2.106 -0.7393  0.8327  0.1781
10308SOL    HW231824   4.214   3.630   2.115 -0.8257  0.9718 -0.5778
10309SOL     OW31825   0.917   0.797   5.634  0.4698 -0.5259  0.9211
10309SOL    HW131826   0.818   0.797   5.622  0.4067 -2.0463  1.2810
10309SOL    HW231827   0.949   0.704   5.647  2.0191 -0.1059  0.3503
10310SOL     OW31828   1.880   5.180   6.546  0.3780  0.6808  0.4310
10310SOL    HW131829   1.858   5.176   6.448  2.1177  0.3788  0.0073
10310SOL    HW231830   1.959   5.121   6.564  0.4979  1.2653  1.9055
10311SOL     OW31831   5.284   6.229   1.145  0.0586  0.1141 -0.0257
10311SOL    HW131832   5.255   6.205   1.052 -0.3971  0.5027  0.0072
10311SOL    HW231833   5.356   6.298   1.140  0.3412 -0.1851 -0.0969
10312SOL     OW31834   2.858   0.564   2.199 -0.5203  0.3899  0.0291
10312SOL    HW131835   2.907   0.577   2.113  0.0369 -1.2747  0.0678
10312SOL    HW231836   2.910   0.501   2.257  0.8608  3.8718  2.9775
10313SOL     OW31837   5.398   0.509   3.898  0.9219  0.1755  0.5221
10313SOL    HW131838   5.363   0.504   3.992  1.3559 -0.4134  0.6533
10313SOL    HW231839   5.492   0.477   3.896  0.9931  0.4245 -0.0769
10314SOL     OW31840   0.596   1.063   2.497  0.2516 -0.6317 -0.1456
10314SOL    HW131841   0.629   1.157   2.495  0.4701 -0.7170 -0.9704
10314SOL    HW231842   0.527   1.053   2.569 -1.8170  0.8252 -1.8139
10315SOL     OW31843   4.668   6.093   4.547  0.0972  0.5590 -0.1376
10315SOL    HW131844   4.662   6.167   4.481 -1.2872  1.8539  1.3508
10315SOL    HW231845   4.576   6.067   4.576  0.6393 -0.5365  0.6797
10316SOL     OW31846   2.341   0.476   1.488 -0.1785  0.2943  0.2606
10316SOL    HW131847   2.254   0.519   1.512  0.5350  1.1783  1.3697
10316SOL    HW231848   2.336   0.440   1.395 -0.5835  3.4343 -1.0446
10317SOL     OW31849   2.465   6.014   6.445  0.3839 -0.6198  0.2443
10317SOL    HW131850   2.376   6.039   6.482  0.4920 -1.0050  0.7711
10317SOL    HW231851   2.463   5.919   6.414  0.3813 -0.3918 -0.4823
10318SOL     OW31852   4.537   1.194   0.048  0.1617 -0.2348 -0.4769
10318SOL    HW131853   4.459   1.254   0.066  0.3850 -0.2096  0.4897
10318SOL    HW231854   4.579   1.168   0.135  0.5105 -1.2019 -0.9192
10319SOL     OW31855   2.007   3.997   1.880  0.5119  0.1994 -0.1858
10319SOL    HW131856   2.106   4.012   1.886  0.8258 -1.5444 -0.4398
10319SOL    HW231857   1.971   3.976   1.971  0.5039  0.1880 -0.1915
10320SOL     OW31858   0.342   6.065   3.752  0.4252 -0.1584  0.0491
10320SOL    HW131859   0.283   5.994   3.713  0.9232  0.0807 -1.1638
10320SOL    HW231860   0.437   6.046   3.728  0.6734  0.3393  0.6278
10321SOL     OW31861   6.944   0.709   2.800 -1.0345  0.0143 -0.9585
10321SOL    HW131862   7.022   0.653   2.829 -0.4088  1.5834  0.5772
10321SOL    HW231863   6.859   0.667   2.832 -0.5549  0.0920  0.4857
10322SOL     OW31864   4.519   4.702   5.162  0.2999 -0.3772  0.1596
10322SOL    HW131865   4.490   4.773   5.226 -0.3032  0.8398 -1.4093
10322SOL    HW231866   4.439   4.662   5.117  0.7587 -0.5785 -0.4961
10323SOL     OW31867   2.538   4.661   6.736  0.6377  0.0441 -0.1269
10323SOL    HW131868   2.631   4.698   6.733  0.5714  0.3138  0.7653
10323SOL    HW231869   2.531   4.583   6.674  1.9085 -0.9803  0.9663
10324SOL     OW31870   2.463   1.904   1.721  0.0326  0.1772 -0.6264
10324SOL    HW131871   2.377   1.922   1.768  0.0733 -0.3107 -0.3553
10324SOL    HW231872   2.462   1.811   1.684  0.7408 -0.1086  0.0498
10325SOL     OW31873   5.172   0.583   5.127  0.0269 -0.2316  0.1951
10325SOL    HW131874   5.212   0.511   5.070 -0.1716  0.3641 -0.7054
10325SOL    HW231875   5.212   0.578   5.219  1.5434 -0.2065 -0.4273
10326SOL     OW31876   5.066   5.299   5.535  0.2143  0.0898  0.1331
10326SOL    HW131877   4.968   5.318   5.541  0.3010  0.9728 -0.9983
10326SOL    HW231878   5.086   5.252   5.449  0.8059  0.0544  0.2840
10327SOL     OW31879   1.704   5.983   0.297 -0.5958  0.0873 -0.4696
10327SOL    HW131880   1.753   6.035   0.366 -1.9642  1.1992 -0.2884
10327SOL    HW231881   1.769   5.951   0.227  0.6196 -0.0284  0.6765
10328SOL     OW31882   0.731   1.019   1.043  0.3159 -0.9270 -0.2363
10328SOL    HW131883   0.651   1.079   1.033  0.9899  0.2239  0.9017
10328SOL    HW231884   0.749   1.004   1.141  2.9839  1.0183 -0.3130
10329SOL     OW31885   1.964   1.063   2.008  0.5629  0.2140  0.2340
10329SOL    HW131886   1.911   1.037   1.927  0.1683  1.2041  0.1609
10329SOL    HW231887   1.969   0.986   2.071  0.4800 -0.4210 -0.5212
10330SOL     OW31888   4.668   6.692   2.951 -0.1472  0.5953 -0.1048
10330SOL    HW131889   4.589   6.634   2.970  0.6201 -1.1481 -1.8817
10330SOL    HW231890   4.647   6.755   2.877 -0.8350  2.4039  1.5336
10331SOL     OW31891   4.933   0.236   6.660  0.3584  0.1628 -0.0866
10331SOL    HW131892   4.915   0.230   6.562  0.2889  2.6432 -0.2917
10331SOL    HW231893   4.948   0.332   6.686 -2.1669 -0.0575  2.7794
10332SOL     OW31894   0.979   1.863   5.383  0.4293  0.7037  0.4915
10332SOL    HW131895   0.940   1.775   5.410 -2.4096  1.3352 -1.1125
10332SOL    HW231896   0.997   1.862   5.285  1.2611  1.6032  0.6249
10333SOL     OW31897   0.789   2.155   3.568 -0.6438  0.3350 -0.6523
10333SOL    HW131898   0.833   2.202   3.491  1.5990  1.2953  1.0862
10333SOL    HW231899   0.830   2.065   3.580  1.2404  1.3416  1.1485
10334SOL     OW31900   2.440   1.245   4.581  0.7169  0.0732 -0.2792
10334SOL    HW131901   2.403   1.159   4.617  1.6133 -0.7435 -1.2414
10334SOL    HW231902   2.464   1.233   4.485 -0.7147  1.9161 -0.9250
10335SOL     OW31903   1.468   4.035   4.088 -0.0873  0.2411 -0.0851
10335SOL    HW131904   1.393   4.037   4.022 -0.3018  1.9999  0.1781
10335SOL    HW231905   1.549   3.993   4.045 -1.0771 -1.3150 -0.4892
10336SOL     OW31906   5.906   5.940   3.097 -0.1020 -0.3049  0.5197
10336SOL    HW131907   5.811   5.926   3.067 -0.0063 -1.1344  0.5929
10336SOL    HW231908   5.966   5.880   3.045  0.5661  1.1841 -0.4992
10337SOL     OW31909   0.012   0.009   6.784 -0.2949 -0.4110  0.2058
10337SOL    HW131910  -0.004  -0.044   6.701  1.3012 -1.0699  0.2801
10337SOL    HW231911   0.093   0.066   6.773 -0.2624 -0.2436  1.1800
10338SOL     OW31912   5.019   0.093   2.284 -0.2592 -0.8412  0.1451
10338SOL    HW131913   5.116   0.103   2.260 -0.3194 -0.9041 -0.1272
10338SOL    HW231914   4.967   0.168   2.244 -0.1367 -0.0561  1.3874
10339SOL     OW31915   4.409   3.676   5.576 -0.3617  0.7542 -0.0926
10339SOL    HW131916   4.465   3.644   5.501 -0.6617 -1.1640  0.4552
10339SOL    HW231917   4.467   3.714   5.648  0.4156 -1.9773  0.8438
10340SOL     OW31918   2.942   1.690   5.925  0.1174 -0.2499  0.6971
10340SOL    HW131919   2.924   1.645   6.012  0.6865 -1.9354  0.0067
10340SOL    HW231920   2.856   1.715   5.881 -0.1753  0.4551  1.6392
10341SOL     OW31921   2.914   5.434   3.664 -0.1331  0.4922 -0.3823
10341SOL    HW131922   2.925   5.441   3.763 -2.3609 -1.6031  0.1167
10341SOL    HW231923   2.858   5.354   3.642 -0.1180  1.1607 -3.3299
10342SOL     OW31924   6.594   6.684   4.591  0.6444 -0.1469  0.3269
10342SOL    HW131925   6.633   6.648   4.506  1.6803 -0.7134  1.0121
10342SOL    HW231926   6.577   6.782   4.581 -0.9629 -0.5120 -1.1235
10343SOL     OW31927   4.095   5.854   1.571 -0.5794 -0.1087 -0.0257
10343SOL    HW131928   4.034   5.930   1.593 -0.1198  0.8449 -1.8681
10343SOL    HW231929   4.067   5.813   1.484  1.9011  0.9393 -1.3973
10344SOL     OW31930   4.732   6.148   6.654  0.6656  0.2515 -0.1348
10344SOL    HW131931   4.776   6.078   6.599 -1.2894  0.0847 -1.5967
10344SOL    HW231932   4.710   6.227   6.596  1.0440  1.2665  1.0487
10345SOL     OW31933   1.555   4.073   3.584  0.6103  0.5747 -0.4824
10345SOL    HW131934   1.489   3.998   3.588  0.8494  0.4326  1.9036
10345SOL    HW231935   1.545   4.121   3.497 -1.8166 -0.1800 -0.6961
10346SOL     OW31936   0.187   2.604   6.215  0.6780 -0.0964  0.0394
10346SOL    HW131937   0.192   2.585   6.117  1.2080  0.0802  0.0287
10346SOL    HW231938   0.222   2.525   6.266  0.7402 -0.0487  0.0714
10347SOL     OW31939   1.393   1.302   5.689  0.1212 -0.0207 -0.1386
10347SOL    HW131940   1.483   1.333   5.719  1.0723 -2.8059  0.1481
10347SOL    HW231941   1.324   1.367   5.719  1.9178  1.6706  0.5253
10348SOL     OW31942   1.183   5.548   0.421 -0.2132  0.0206  0.2362
10348SOL    HW131943   1.117   5.558   0.496  0.8541  3.8142  0.8796
10348SOL    HW231944   1.273   5.526   0.458  0.3721  2.1430  0.2108
10349SOL     OW31945   0.361   1.897   6.945 -0.2950 -0.0026 -0.0384
10349SOL    HW131946   0.312   1.834   6.885 -1.5157  0.9084 -0.0216
10349SOL    HW231947   0.303   1.922   7.022  0.4314  0.6190  0.3245
10350SOL     OW31948   6.878   0.798   6.903  0.2035  0.3684  0.2343
10350SOL    HW131949   6.847   0.859   6.976  0.0464  0.9217 -0.2817
10350SOL    HW231950   6.803   0.781   6.839  0.2064 -0.4916  0.4527
10351SOL     OW31951   4.480   5.163   5.147 -0.3425  0.2151 -0.1393
10351SOL    HW131952   4.445   5.256   5.156 -1.4445 -0.3363  1.8633
10351SOL    HW231953   4.407   5.103   5.114 -0.7045 -0.5072  1.8031
10352SOL     OW31954   5.027   3.905   5.556  0.1719 -0.1836 -0.3280
10352SOL    HW131955   4.999   3.867   5.468  0.3336  0.4759 -0.6680
10352SOL    HW231956   5.073   3.992   5.542  0.5875 -0.2823  0.3815
10353SOL     OW31957   1.760   3.804   4.948  0.1422 -0.1806  0.1246
10353SOL    HW131958   1.856   3.805   4.920  0.7722  0.0848  2.1720
10353SOL    HW231959   1.723   3.712   4.932  1.0476 -0.5930  0.2947
10354SOL     OW31960   5.866   2.289   1.047 -0.4792  0.0966  0.2919
10354SOL    HW131961   5.810   2.334   0.977 -1.6752  1.6241  2.1194
10354SOL    HW231962   5.928   2.356   1.088  1.9464 -1.3135 -0.8660
10355SOL     OW31963   1.603   3.635   2.179  0.3901  0.2048 -0.7483
10355SOL    HW131964   1.563   3.569   2.116 -0.3399  0.6051 -0.7170
10355SOL    HW231965   1.702   3.639   2.165  0.5746 -1.5311 -0.1325
10356SOL     OW31966   0.761   4.123   2.094 -0.2669  0.3290 -0.0864
10356SOL    HW131967   0.737   4.075   2.010 -1.4573  2.0300 -0.7726
10356SOL    HW231968   0.830   4.070   2.144  0.3766 -0.7834 -2.0369
10357SOL     OW31969   2.178   2.428   6.608  0.0642 -0.3743  0.5632
10357SOL    HW131970   2.179   2.448   6.510 -0.2576  0.9899  0.8093
10357SOL    HW231971   2.251   2.363   6.630  1.5792  0.9643 -0.2756
10358SOL     OW31972   1.850   1.278   2.630 -0.1583  0.3393 -0.3595
10358SOL    HW131973   1.896   1.323   2.707  0.4519 -0.6010 -0.1590
10358SOL    HW231974   1.761   1.321   2.614 -0.1309  0.7815  0.6341
10359SOL     OW31975   0.191   2.073   6.024 -0.0278 -0.1637  0.3042
10359SOL    HW131976   0.279   2.053   5.980  0.1226  0.7688  0.1601
10359SOL    HW231977   0.117   2.064   5.957  0.1284  0.5860  0.0249
10360SOL     OW31978   2.075   4.525   4.448  0.1198  0.4353 -0.4637
10360SOL    HW131979   2.028   4.481   4.524 -0.3110  2.3112  0.4377
10360SOL    HW231980   2.053   4.623   4.448  2.3951  1.0155 -1.2741
10361SOL     OW31981   3.019   5.434   0.938 -0.1352  0.2348 -0.2781
10361SOL    HW131982   3.118   5.445   0.927 -0.0987 -1.1476 -1.5638
10361SOL    HW231983   2.983   5.511   0.990  1.1403  2.4559 -2.4813
10362SOL     OW31984   1.188   3.081   4.611  0.0821 -0.0448 -0.6453
10362SOL    HW131985   1.287   3.072   4.599  0.1927  1.4851 -1.0905
10362SOL    HW231986   1.147   2.990   4.619  1.6780 -0.6710  0.9601
10363SOL     OW31987   3.196   6.876   4.376  0.0099 -0.1595 -0.6084
10363SOL    HW131988   3.114   6.867   4.320  0.3474 -0.1707 -1.1069
10363SOL    HW231989   3.223   6.786   4.410  0.6341 -0.3697 -1.6312
10364SOL     OW31990   2.018   2.869   1.757  0.1865  0.1921  0.0122
10364SOL    HW131991   2.060   2.910   1.675 -1.2413  1.9016  0.0851
10364SOL    HW231992   2.088   2.860   1.828  0.8026  1.5283 -0.3768
10365SOL     OW31993   3.697   0.000   5.501 -0.0776  0.5488 -0.3364
10365SOL    HW131994   3.764  -0.007   5.574  0.6569  1.1034 -0.9442
10365SOL    HW231995   3.688   0.096   5.473 -0.8957  0.4413 -0.4752
10366SOL     OW31996   3.546   1.577   3.553 -0.1276  0.4274  0.4124
10366SOL    HW131997   3.517   1.644   3.485  0.1682  0.6689  0.5172
10366SOL    HW231998   3.615   1.516   3.513  0.3551  0.8313  0.6070
10367SOL     OW31999   5.824   2.293   3.715 -0.0539 -0.2650 -0.1081
10367SOL    HW132000   5.817   2.227   3.640 -0.3862 -1.0401  0.5811
10367SOL    HW232001   5.737   2.340   3.727 -0.2814 -0.7922  0.3588
10368SOL     OW32002   2.203   1.315   2.705 -0.5061  0.3666 -0.0507
10368SOL    HW132003   2.248   1.377   2.769  1.4757 -0.4422 -0.5605
10368SOL    HW232004   2.156   1.368   2.635  0.3150  1.3097  0.0803
10369SOL     OW32005   4.394   2.505   6.796  0.5631 -0.2424 -0.3288
10369SOL    HW132006   4.310   2.455   6.815 -0.0326  1.6922  2.9755
10369SOL    HW232007   4.472   2.443   6.800 -0.4844 -1.6062 -0.6916
10370SOL     OW32008   2.823   0.052   6.393 -0.5483 -0.0674  0.0446
10370SOL    HW132009   2.786  -0.027   6.344 -0.0347 -1.1593  1.3627
10370SOL    HW232010   2.918   0.067   6.367 -0.0446 -1.1001  1.1726
10371SOL     OW32011   5.138   6.562   5.927  0.0097  0.4468  0.3299
10371SOL    HW132012   5.064   6.616   5.888 -0.2587  0.0573  0.2951
10371SOL    HW232013   5.107   6.467   5.941  0.3343  0.4047  0.7959
10372SOL     OW32014   0.637   6.949   3.418 -0.4387 -0.3452 -0.1398
10372SOL    HW132015   0.640   6.863   3.469  0.2400 -1.1294 -1.4609
10372SOL    HW232016   0.568   6.943   3.346 -0.4014  0.2228 -0.2274
10373SOL     OW32017   1.601   4.537   5.856 -0.0336  0.1520  0.5364
10373SOL    HW132018   1.615   4.450   5.808  1.4331  1.9143 -2.4708
10373SOL    HW232019   1.522   4.584   5.818 -0.4650  0.4601  1.7489
10374SOL     OW32020   2.837   1.369   4.134  0.3157 -0.1876  0.0727
10374SOL    HW132021   2.900   1.391   4.059  0.6253  0.1815  0.4333
10374SOL    HW232022   2.790   1.453   4.162  0.6537 -0.2028  0.6954
10375SOL     OW32023   5.331   2.132   6.477 -0.2684  0.1758 -0.1317
10375SOL    HW132024   5.419   2.179   6.486 -0.1014 -0.1898  0.1239
10375SOL    HW232025   5.257   2.195   6.502  0.0170 -0.0033  1.1920
10376SOL     OW32026   0.053   6.839   4.863 -0.0025  0.3562  0.2887
10376SOL    HW132027  -0.029   6.889   4.834 -0.2670 -0.6708 -0.7846
10376SOL    HW232028   0.097   6.797   4.784 -1.2801 -3.3639  1.3427
10377SOL     OW32029   0.195   6.556   4.220 -0.4604  0.5795  0.1950
10377SOL    HW132030   0.112   6.612   4.210 -0.3834  0.5774 -0.5588
10377SOL    HW232031   0.275   6.614   4.204 -0.4006  0.1422 -1.2162
10378SOL     OW32032   1.266   0.015   5.566 -0.2069 -0.1536 -0.6371
10378SOL    HW132033   1.296   0.074   5.491  0.0202 -0.5876 -0.8939
10378SOL    HW232034   1.345  -0.031   5.606 -0.3694 -0.1968 -0.3631
10379SOL     OW32035   4.198   0.968   0.456 -0.2173 -0.0229 -0.7406
10379SOL    HW132036   4.242   0.923   0.534 -0.3822 -0.4172 -0.8699
10379SOL    HW232037   4.099   0.950   0.459 -0.2773  0.2833 -0.8286
10380SOL     OW32038   4.035   1.486   4.266 -0.2155 -0.0969 -0.0489
10380SOL    HW132039   4.046   1.585   4.275  1.3759 -0.2030 -0.5732
10380SOL    HW232040   3.980   1.466   4.185 -0.3658  0.3569 -0.0591
10381SOL     OW32041   4.176   5.780   6.265  0.6242  0.2623  0.3356
10381SOL    HW132042   4.266   5.746   6.235  0.5659  1.4966 -1.3915
10381SOL    HW232043   4.188   5.848   6.337  1.1564  0.8851 -0.3193
10382SOL     OW32044   0.500   5.492   2.434 -0.2490  0.2124 -0.1485
10382SOL    HW132045   0.494   5.400   2.472  0.0750  0.7310  1.2185
10382SOL    HW232046   0.441   5.553   2.487 -0.3618  0.8205 -0.9601
10383SOL     OW32047   5.709   5.384   1.459  0.0385 -0.2031  0.4107
10383SOL    HW132048   5.794   5.425   1.427 -0.2500 -1.3654 -2.0679
10383SOL    HW232049   5.722   5.347   1.551  2.0454  0.1105  0.2961
10384SOL     OW32050   3.882   1.297   0.579 -0.2215 -0.4175  1.1885
10384SOL    HW132051   3.973   1.304   0.539 -0.5627 -0.8345  0.3120
10384SOL    HW232052   3.881   1.343   0.668  0.4277  0.9559  0.5171
10385SOL     OW32053   5.493   3.289   6.814  0.2697 -0.0738  0.0515
10385SOL    HW132054   5.440   3.352   6.758  0.3179  0.2499  0.3655
10385SOL    HW232055   5.527   3.213   6.758 -0.5081 -0.2739 -0.1602
10386SOL     OW32056   6.879   1.840   5.682  0.7612 -0.2914 -0.5635
10386SOL    HW132057   6.782   1.827   5.659  1.0589 -0.2873 -1.8880
10386SOL    HW232058   6.929   1.756   5.663  0.9755 -0.4067  0.4514
10387SOL     OW32059   1.681   5.583   2.910 -0.1649  0.0732 -0.8044
10387SOL    HW132060   1.685   5.524   2.829 -0.1853 -1.6725  0.4041
10387SOL    HW232061   1.587   5.588   2.944  0.1625 -0.9959  0.3325
10388SOL     OW32062   2.299   4.792   6.742 -0.4371  0.1843  0.3378
10388SOL    HW132063   2.373   4.726   6.732  1.0864  1.8114  0.2131
10388SOL    HW232064   2.264   4.789   6.835  0.8865  0.4106  0.8762
10389SOL     OW32065   1.715   4.644   2.270 -0.3782 -0.0160 -0.1740
10389SOL    HW132066   1.814   4.644   2.283 -0.7460 -1.2261  3.8765
10389SOL    HW232067   1.682   4.549   2.266 -1.6294  0.2314  2.3733
10390SOL     OW32068   1.676   3.707   2.944  0.3068  0.4286 -0.4251
10390SOL    HW132069   1.670   3.655   2.859 -1.8532  1.9220 -1.2618
10390SOL    HW232070   1.766   3.692   2.986  0.6682 -1.9551 -1.8742
10391SOL     OW32071   3.407   4.991   4.613  0.5987 -0.2777 -0.1457
10391SOL    HW132072   3.323   5.002   4.560  0.5864  0.7158  0.0699
10391SOL    HW232073   3.391   5.023   4.707  1.3463  0.3600 -0.2268
10392SOL     OW32074   0.517   6.477   7.015  0.0704 -0.6374 -0.3481
10392SOL    HW132075   0.612   6.483   7.047 -0.4170  2.4722  0.7890
10392SOL    HW232076   0.515   6.485   6.916  1.0036 -1.2395 -0.4291
10393SOL     OW32077   6.529   1.623   3.877  0.4148  0.0025  0.4514
10393SOL    HW132078   6.554   1.533   3.911  0.0800 -0.0375  0.5860
10393SOL    HW232079   6.611   1.669   3.841  0.6654 -0.1692  0.8043
10394SOL     OW32080   4.012   5.553   1.517  0.3921 -0.3721  0.5361
10394SOL    HW132081   3.938   5.620   1.505  0.7251 -0.0766  0.1051
10394SOL    HW232082   4.001   5.479   1.450  0.1348 -0.6465  0.8833
10395SOL     OW32083   2.188   0.010   4.965 -0.1519  0.0284 -0.3657
10395SOL    HW132084   2.282   0.009   4.930  0.1895 -0.8728  0.5600
10395SOL    HW232085   2.134  -0.061   4.919 -0.4984  0.7892 -1.1669
10396SOL     OW32086   5.577   1.063   4.650 -0.0772  0.2096 -0.1969
10396SOL    HW132087   5.591   1.064   4.551 -0.7106 -0.7179 -0.3107
10396SOL    HW232088   5.501   1.124   4.674  0.2232  0.6087 -0.2510
10397SOL     OW32089   4.216   4.705   2.949 -0.3144  0.7979  0.2361
10397SOL    HW132090   4.175   4.737   2.864  0.7907 -0.7701 -0.9360
10397SOL    HW232091   4.315   4.702   2.939 -0.1714  0.5403  1.5687
10398SOL     OW32092   1.932   2.601   2.137 -0.0823  0.0988 -0.0297
10398SOL    HW132093   1.848   2.655   2.135 -0.4780 -0.5333 -0.8915
10398SOL    HW232094   1.955   2.571   2.044  2.0315  1.6887 -0.1054
10399SOL     OW32095   4.684   3.768   6.472  0.3661  0.1136  0.5915
10399SOL    HW132096   4.723   3.736   6.558  2.0197  0.8121  0.1445
10399SOL    HW232097   4.757   3.777   6.404 -0.7328  0.6722 -0.5554
10400SOL     OW32098   2.103   5.670   1.610  0.6294 -0.5077  0.5144
10400SOL    HW132099   2.043   5.706   1.681  0.1405  0.7378 -0.4884
10400SOL    HW232100   2.056   5.674   1.521  1.6879 -0.8129 -0.0792
10401SOL     OW32101   1.489   6.173   1.086  0.4121 -0.1213 -0.1488
10401SOL    HW132102   1.453   6.085   1.119 -2.0394  0.4458 -1.1134
10401SOL    HW232103   1.490   6.239   1.161  1.7579 -0.7714  0.4491
10402SOL     OW32104   0.695   2.441   2.677 -0.2757  0.0853 -0.3218
10402SOL    HW132105   0.628   2.407   2.612 -0.2776 -1.0009  0.2263
10402SOL    HW232106   0.785   2.447   2.633  0.1956 -2.7237  0.0967
10403SOL     OW32107   4.831   2.243   2.492  0.2837 -0.3561  0.0927
10403SOL    HW132108   4.741   2.234   2.448 -0.2373 -0.3722  1.1261
10403SOL    HW232109   4.876   2.154   2.494  0.7389 -0.1733 -1.2641
10404SOL     OW32110   0.501   0.918   5.266  0.9824 -0.1763 -0.2872
10404SOL    HW132111   0.503   0.859   5.185  0.7206 -0.8826  0.2094
10404SOL    HW232112   0.405   0.939   5.288  0.9969 -0.9002  0.4855
10405SOL     OW32113   6.449   0.969   6.545  0.2517 -0.3910  0.0487
10405SOL    HW132114   6.372   1.009   6.595  0.7833  0.8230 -0.0529
10405SOL    HW232115   6.439   0.870   6.542 -1.2320 -0.2657  0.1462
10406SOL     OW32116   1.435   5.997   4.894 -0.6104 -0.1355  0.3015
10406SOL    HW132117   1.489   6.020   4.975  0.8484  2.1944 -1.1993
10406SOL    HW232118   1.348   6.046   4.897 -0.1995  0.6262  0.0981
10407SOL     OW32119   4.973   6.025   5.935  0.0660 -0.2574 -0.3451
10407SOL    HW132120   5.048   6.016   5.870  0.3537 -0.3935  0.0025
10407SOL    HW232121   4.967   6.120   5.966 -0.0376 -0.2035 -0.5320
10408SOL     OW32122   2.361   0.254   4.612  0.0762 -0.1584  0.4179
10408SOL    HW132123   2.425   0.253   4.688  0.7863 -2.0334 -0.1504
10408SOL    HW232124   2.267   0.259   4.647  0.4426  0.6441  1.3201
10409SOL     OW32125   0.855   5.075   6.044  0.5938  0.3757 -0.1701
10409SOL    HW132126   0.773   5.068   5.987 -0.4865 -0.7648  1.4337
10409SOL    HW232127   0.903   4.988   6.043  0.6243  0.3836  0.5577
10410SOL     OW32128   5.281   5.654   0.960 -0.1404  0.0101 -0.4628
10410SOL    HW132129   5.326   5.738   0.990 -0.5815  0.5329 -1.2353
10410SOL    HW232130   5.273   5.654   0.860 -2.1417  0.1161 -0.3469
10411SOL     OW32131   3.408   4.904   2.609 -0.0374  0.2306  0.1798
10411SOL    HW132132   3.485   4.920   2.547 -0.4518  0.0993 -0.3811
10411SOL    HW232133   3.327   4.882   2.555 -0.5613  0.7525  0.7476
10412SOL     OW32134   0.835   5.299   6.680  0.1142 -0.2133 -0.2772
10412SOL    HW132135   0.771   5.222   6.687  0.6877 -0.7439 -0.6828
10412SOL    HW232136   0.795   5.370   6.623  0.2242 -0.9160 -1.2600
10413SOL     OW32137   7.013   1.592   4.927 -0.2252 -0.1344 -0.4384
10413SOL    HW132138   7.085   1.524   4.911 -1.8651 -1.7349 -1.3397
10413SOL    HW232139   6.963   1.608   4.843 -0.1963  1.8803 -0.1109
10414SOL     OW32140   3.208   6.387   5.078 -0.3114  0.3750  0.2812
10414SOL    HW132141   3.127   6.409   5.024 -0.2830  0.8652  0.4353
10414SOL    HW232142   3.195   6.419   5.171  0.1416  0.6407  0.2549
10415SOL     OW32143   4.976   3.692   4.032 -0.1411 -0.1552  0.4302
10415SOL    HW132144   5.019   3.658   4.116 -0.1498  0.1118  0.5437
10415SOL    HW232145   5.020   3.777   4.004 -0.6022  0.1235  0.5519
10416SOL     OW32146   5.877   2.347   0.228  0.1942 -0.3189  0.5689
10416SOL    HW132147   5.933   2.410   0.282 -1.3407 -0.8272  2.8603
10416SOL    HW232148   5.831   2.398   0.155  2.4727  0.3404 -0.5023
10417SOL     OW32149   4.887   3.655   3.768  0.0648 -0.2670 -0.1640
10417SOL    HW132150   4.887   3.563   3.728  1.7858 -0.7180  0.7512
10417SOL    HW232151   4.934   3.653   3.856 -0.7485  1.3179  0.3402
10418SOL     OW32152   6.240   3.222   6.102  0.0375  0.1103 -0.1396
10418SOL    HW132153   6.266   3.161   6.027 -1.6931 -1.1666  0.2463
10418SOL    HW232154   6.207   3.169   6.179 -0.8936  1.5055  0.4697
10419SOL     OW32155   1.558   6.408   6.788 -0.0882 -0.1668 -0.5527
10419SOL    HW132156   1.516   6.371   6.871 -0.4546  0.8382 -0.2734
10419SOL    HW232157   1.631   6.347   6.758 -1.6550 -1.9099 -0.9992
10420SOL     OW32158   5.563   3.930   3.673 -0.6126 -0.0903 -0.2934
10420SOL    HW132159   5.476   3.977   3.688 -0.1311  0.2239  1.7795
10420SOL    HW232160   5.557   3.836   3.705 -0.0766  0.0607  0.2783
10421SOL     OW32161   1.113   1.841   4.755 -0.4812 -0.4861  0.5536
10421SOL    HW132162   1.063   1.755   4.742 -0.9387 -0.0479 -0.7424
10421SOL    HW232163   1.210   1.821   4.770 -0.3561 -1.2120 -0.9892
10422SOL     OW32164   6.764   4.129   4.727 -0.0501  0.1234  0.1067
10422SOL    HW132165   6.685   4.115   4.788  0.3907 -1.4843  0.3590
10422SOL    HW232166   6.816   4.044   4.720  0.7072  0.6780 -1.4287
10423SOL     OW32167   4.515   5.686   1.492  0.5013  0.3786 -0.2679
10423SOL    HW132168   4.570   5.769   1.485 -0.6722  1.0359 -4.0601
10423SOL    HW232169   4.418   5.710   1.483  0.0886 -1.3314 -0.7857
10424SOL     OW32170   3.515   0.355   1.103  0.3202 -0.2304 -1.1105
10424SOL    HW132171   3.480   0.271   1.062 -1.5470 -0.0275 -0.0487
10424SOL    HW232172   3.594   0.387   1.051  0.8380 -2.4046 -1.7640
10425SOL     OW32173   6.796   6.077   1.585 -0.8952  0.2593  0.2476
10425SOL    HW132174   6.836   6.168   1.598 -0.4702  0.4462 -1.8762
10425SOL    HW232175   6.867   6.014   1.554 -1.5984 -0.2312 -0.4161
10426SOL     OW32176   6.772   3.632   5.599  0.3398 -0.3164 -0.6816
10426SOL    HW132177   6.827   3.654   5.680  1.6684 -1.0448 -1.3533
10426SOL    HW232178   6.832   3.599   5.526 -0.9582 -0.7019 -1.6088
10427SOL     OW32179   6.934   1.034   3.398  0.0085  0.1059 -0.1948
10427SOL    HW132180   6.911   0.938   3.389  0.3750  0.1286 -1.4987
10427SOL    HW232181   7.018   1.053   3.348  0.7795  0.8026  1.3023
10428SOL     OW32182   2.856   6.010   6.761 -0.0404  0.6904 -0.1302
10428SOL    HW132183   2.954   5.991   6.747  0.1690  0.5787  1.3200
10428SOL    HW232184   2.803   5.965   6.689  0.7484 -2.0192  0.8810
10429SOL     OW32185   1.288   4.899   2.031  0.3195 -0.2736 -0.0379
10429SOL    HW132186   1.303   4.805   2.061 -0.9169 -0.5207 -0.1285
10429SOL    HW232187   1.218   4.901   1.959 -0.5856  0.8127  0.8143
10430SOL     OW32188   2.303   1.501   4.535  0.2880 -0.5107 -0.0608
10430SOL    HW132189   2.206   1.502   4.560 -0.3157  0.9598 -2.1705
10430SOL    HW232190   2.344   1.414   4.563 -0.8759 -0.0855  3.4001
10431SOL     OW32191   4.785   3.273   1.789  0.3950  0.0131  0.1560
10431SOL    HW132192   4.733   3.274   1.704  0.9133 -0.7955 -0.1791
10431SOL    HW232193   4.760   3.194   1.843  0.9393 -0.1414  0.1941
10432SOL     OW32194   2.378   3.922   0.310 -0.3058  0.0749  0.4705
10432SOL    HW132195   2.417   3.948   0.221 -1.6949  0.8528  0.0665
10432SOL    HW232196   2.452   3.913   0.377  0.7055  0.0996 -0.6024
10433SOL     OW32197   4.909   6.373   5.040 -0.0382 -0.1261 -0.5777
10433SOL    HW132198   4.876   6.384   4.947  0.8006  1.6936 -0.7092
10433SOL    HW232199   4.993   6.427   5.052 -1.5922  1.9569  1.9643
10434SOL     OW32200   2.211   2.371   0.961 -0.0977 -0.3277  0.1052
10434SOL    HW132201   2.205   2.401   0.866 -1.2521  1.1328  0.6165
10434SOL    HW232202   2.265   2.437   1.013  0.0829 -0.8481  0.5804
10435SOL     OW32203   2.723   0.449   1.745 -0.1665 -0.8409 -0.0710
10435SOL    HW132204   2.654   0.381   1.768  0.1531 -0.8937  0.7642
10435SOL    HW232205   2.725   0.463   1.646 -3.0606  0.9773  0.0264
10436SOL     OW32206   2.987   1.862   4.785  0.0648 -0.6526 -0.4516
10436SOL    HW132207   2.940   1.928   4.726  0.5065 -1.0911 -1.3204
10436SOL    HW232208   2.940   1.774   4.780  0.4963 -0.8716 -0.6779
10437SOL     OW32209   6.822   0.088   5.189 -0.6327 -0.4316 -0.0514
10437SOL    HW132210   6.824   0.182   5.221 -0.4258 -0.3225 -0.3812
10437SOL    HW232211   6.914   0.060   5.161 -0.6456 -0.8132  0.2798
10438SOL     OW32212   1.442   0.153   0.682 -0.0256  0.1833 -0.2420
10438SOL    HW132213   1.369   0.099   0.725  1.3748 -2.0856 -0.5451
10438SOL    HW232214   1.412   0.184   0.592 -0.9032 -0.0007 -0.0245
10439SOL     OW32215   6.060   6.467   5.775  0.1220 -0.1912  0.7598
10439SOL    HW132216   6.129   6.400   5.748  0.2552 -0.1352  0.9558
10439SOL    HW232217   6.068   6.485   5.873 -0.4474 -0.5003  0.8708
10440SOL     OW32218   6.310   3.369   1.020  0.0700 -0.3593 -0.0245
10440SOL    HW132219   6.220   3.326   1.011  0.8587 -1.8698 -0.8521
10440SOL    HW232220   6.349   3.346   1.109  0.4255 -1.2244 -0.4054
10441SOL     OW32221   4.439   4.390   6.177 -0.3643  0.0688  0.2279
10441SOL    HW132222   4.350   4.415   6.215 -0.8360 -0.1401 -0.7032
10441SOL    HW232223   4.464   4.456   6.106  0.0183 -0.1371  0.1708
10442SOL     OW32224   3.974   0.018   0.888  0.2559  0.2234  0.0664
10442SOL    HW132225   3.996  -0.080   0.885  2.4192  0.6941 -0.7977
10442SOL    HW232226   3.919   0.042   0.808  0.5328 -0.1037 -0.2252
10443SOL     OW32227   1.395   2.620   4.433  0.1353 -0.2344  0.0242
10443SOL    HW132228   1.454   2.697   4.456  2.0371 -1.1164 -1.6146
10443SOL    HW232229   1.432   2.537   4.474 -1.0005 -0.5489  0.4499
10444SOL     OW32230   4.132   5.730   2.184 -0.2148 -0.0114 -0.2840
10444SOL    HW132231   4.135   5.639   2.142  2.6441 -0.7127  1.2224
10444SOL    HW232232   4.212   5.782   2.156 -0.5918  1.1548  0.7317
10445SOL     OW32233   2.750   2.353   4.610 -0.0916  0.4306  0.0818
10445SOL    HW132234   2.679   2.331   4.677  0.7344 -0.5810  0.6514
10445SOL    HW232235   2.840   2.329   4.648  0.6165  2.2105 -0.4064
10446SOL     OW32236   2.495   5.639   6.597  0.0065 -0.1560 -0.7136
10446SOL    HW132237   2.504   5.667   6.501 -0.0798  1.4942 -0.2668
10446SOL    HW232238   2.581   5.601   6.629  0.2439 -0.0671 -1.2421
10447SOL     OW32239   1.968   0.619   2.780  0.5063  0.4805 -0.6463
10447SOL    HW132240   1.875   0.621   2.817  1.0581  0.3163  0.8320
10447SOL    HW232241   1.973   0.549   2.708 -0.7725  1.2688 -1.5514
10448SOL     OW32242   1.738   5.548   3.512 -0.5051  0.0200  0.4432
10448SOL    HW132243   1.729   5.630   3.456  1.3905 -1.3479 -2.0678
10448SOL    HW232244   1.826   5.549   3.560 -1.3182  0.3077  1.9992
10449SOL     OW32245   3.323   0.224   6.378  0.4796  0.3449 -0.4177
10449SOL    HW132246   3.377   0.145   6.348  2.0258  2.4704 -3.8674
10449SOL    HW232247   3.366   0.308   6.345 -3.0174  2.4314 -0.1536
10450SOL     OW32248   0.721   2.616   5.244 -0.2154 -0.2941  0.7926
10450SOL    HW132249   0.692   2.639   5.337 -4.1385  3.7105 -1.0276
10450SOL    HW232250   0.669   2.537   5.212 -2.0609  0.8643  0.7727
10451SOL     OW32251   2.232   2.718   6.347 -0.2328  0.3202  0.0799
10451SOL    HW132252   2.244   2.761   6.257  1.2886 -0.0324  0.0958
10451SOL    HW232253   2.245   2.619   6.338 -2.2513 -0.0154  0.3148
10452SOL     OW32254   6.688   2.581   3.838  0.7425 -0.4342  0.4694
10452SOL    HW132255   6.651   2.505   3.891  1.7429 -1.8310 -0.7457
10452SOL    HW232256   6.763   2.625   3.889 -0.7356  0.6985  1.7754
10453SOL     OW32257   1.618   4.259   4.550 -0.6479 -0.4213  0.2959
10453SOL    HW132258   1.611   4.228   4.455  1.7364  0.2626 -0.1567
10453SOL    HW232259   1.574   4.348   4.559  0.7630  0.3971 -0.6466
10454SOL     OW32260   0.649   3.219   6.654 -0.0137  0.4917 -0.2459
10454SOL    HW132261   0.745   3.189   6.647 -0.3292 -0.2618 -1.6777
10454SOL    HW232262   0.646   3.317   6.672  1.0278  0.3205  0.9912
10455SOL     OW32263   6.310   6.278   2.062 -0.1510 -0.6145  0.2203
10455SOL    HW132264   6.320   6.230   2.150 -1.3667  0.0082  0.7287
10455SOL    HW232265   6.259   6.221   1.999 -0.3287 -0.5802  0.3319
10456SOL     OW32266   0.630   0.178   4.881 -0.2553 -0.1649 -0.1165
10456SOL    HW132267   0.664   0.236   4.956 -0.6145 -2.3695  1.8915
10456SOL    HW232268   0.530   0.176   4.884 -0.2347 -1.6702  0.5707
10457SOL     OW32269   3.726   2.927   2.558 -0.7792  0.1580 -0.2856
10457SOL    HW132270   3.822   2.940   2.584 -0.5137 -0.5216 -0.8701
10457SOL    HW232271   3.667   2.969   2.626 -0.1133 -1.4388  1.3655
10458SOL     OW32272   2.202   5.458   6.932  0.4275  0.1636 -0.2803
10458SOL    HW132273   2.152   5.496   6.855  4.1441  1.9054 -2.0445
10458SOL    HW232274   2.199   5.522   7.009 -2.3665 -1.0963  0.7963
10459SOL     OW32275   6.064   6.583   3.020  0.4845  0.0601 -0.4588
10459SOL    HW132276   6.038   6.489   2.998 -0.9941  0.4559 -0.4864
10459SOL    HW232277   6.104   6.586   3.112 -1.7261 -0.2583  0.5581
10460SOL     OW32278   6.041   2.790   6.289 -0.2147 -0.2810 -0.1898
10460SOL    HW132279   5.950   2.820   6.261  0.3604  0.8090 -0.9500
10460SOL    HW232280   6.073   2.719   6.226  0.3840  0.9678 -1.3281
10461SOL     OW32281   6.042   4.784   5.786 -0.2027 -0.1575 -0.5272
10461SOL    HW132282   5.977   4.739   5.847 -0.4699 -0.4114 -0.9891
10461SOL    HW232283   6.064   4.875   5.820 -1.6210  0.3454 -0.9222
10462SOL     OW32284   3.213   4.384   5.556  1.1932 -0.4431  0.2121
10462SOL    HW132285   3.128   4.342   5.524  0.5386  1.4417 -0.6480
10462SOL    HW232286   3.258   4.431   5.480  1.5578  0.9409  1.2448
10463SOL     OW32287   5.299   2.631   6.963  0.0869  0.3230  0.1096
10463SOL    HW132288   5.237   2.706   6.986  0.3147  0.9941 -1.3077
10463SOL    HW232289   5.333   2.644   6.870  0.9858 -0.9774  0.2276
10464SOL     OW32290   5.422   4.183   5.926  0.5935 -0.4374 -0.2033
10464SOL    HW132291   5.428   4.110   5.858  1.3253  0.6146 -1.3424
10464SOL    HW232292   5.500   4.246   5.913  0.4574  0.0713  1.2888
10465SOL     OW32293   5.107   4.217   6.797  0.3588  0.1041  0.1987
10465SOL    HW132294   5.141   4.307   6.771 -0.3331  0.2074 -0.3755
10465SOL    HW232295   5.027   4.194   6.742 -0.5595 -0.0953  1.5621
10466SOL     OW32296   6.408   5.669   4.693  0.5506  0.1526  0.3996
10466SOL    HW132297   6.380   5.588   4.641 -0.5792 -0.0082  1.2071
10466SOL    HW232298   6.352   5.747   4.666 -0.8646 -0.1990  2.1259
10467SOL     OW32299   6.806   2.238   4.433 -0.3784  0.2630 -0.3962
10467SOL    HW132300   6.770   2.313   4.489 -2.6711 -0.9624 -0.0953
10467SOL    HW232301   6.737   2.209   4.367 -0.2233 -2.5625  0.5220
10468SOL     OW32302   3.411   5.854   4.717 -0.0074  0.0118 -0.1341
10468SOL    HW132303   3.354   5.847   4.798  0.1219  1.1142  0.0690
10468SOL    HW232304   3.355   5.844   4.635 -0.3542  0.2306  0.0769
10469SOL     OW32305   1.729   1.863   3.862 -0.4263  0.3010  0.6266
10469SOL    HW132306   1.694   1.773   3.835 -1.3196  0.2342  1.9095
10469SOL    HW232307   1.704   1.880   3.957 -0.5933  2.0730  0.2876
10470SOL     OW32308   1.240   4.243   0.166 -0.6456 -0.4492 -0.2212
10470SOL    HW132309   1.299   4.319   0.194 -1.1864  0.4382 -1.3841
10470SOL    HW232310   1.198   4.264   0.078 -1.1429 -1.9362 -0.3684
10471SOL     OW32311   0.935   3.855   4.202 -0.4916  0.0462  0.6802
10471SOL    HW132312   0.860   3.912   4.168 -0.5309  0.3727  1.3034
10471SOL    HW232313   0.921   3.837   4.300 -0.2798 -0.7162  0.5761
10472SOL     OW32314   5.951   5.188   5.796 -0.7752  0.3171 -0.3262
10472SOL    HW132315   5.852   5.177   5.804 -0.6189 -0.6873  0.4029
10472SOL    HW232316   5.974   5.285   5.796 -1.7793  0.5671 -0.8600
10473SOL     OW32317   6.119   6.306   0.419 -0.3940  0.5150 -0.7690
10473SOL    HW132318   6.047   6.327   0.485  0.5334  0.6716  0.2212
10473SOL    HW232319   6.133   6.385   0.360 -0.7294  0.6471 -0.6763
10474SOL     OW32320   3.276   6.516   3.903 -0.2863  0.4987 -0.0790
10474SOL    HW132321   3.220   6.574   3.845 -2.7429 -0.4551  1.2096
10474SOL    HW232322   3.257   6.536   3.999  0.5327 -0.8511  0.3950
10475SOL     OW32323   6.751   6.568   3.898  0.3006 -0.3808 -0.1360
10475SOL    HW132324   6.751   6.611   3.807  1.2486 -1.2698 -0.5793
10475SOL    HW232325   6.667   6.515   3.910  0.7483 -1.3346 -1.0447
10476SOL     OW32326   6.736   5.932   0.741 -0.5346 -0.1587  0.0604
10476SOL    HW132327   6.783   5.851   0.778 -2.0712 -0.7266  0.8737
10476SOL    HW232328   6.654   5.902   0.692 -0.0264  0.7943 -1.3993
10477SOL     OW32329   6.203   5.124   2.420  0.3005 -0.0340  0.2701
10477SOL    HW132330   6.263   5.044   2.428  0.4264  0.0868  0.5481
10477SOL    HW232331   6.255   5.200   2.381  0.0235 -0.2564 -0.5368
10478SOL     OW32332   1.277   0.914   2.260  0.0810  0.3172  0.0390
10478SOL    HW132333   1.258   0.856   2.339 -1.3591  2.3862  1.3169
10478SOL    HW232334   1.361   0.966   2.275  1.0968 -1.0067 -0.8821
10479SOL     OW32335   0.590   5.970   1.342  1.1938  0.4795  0.4265
10479SOL    HW132336   0.566   5.998   1.435 -0.0586 -0.6197  0.4689
10479SOL    HW232337   0.559   5.876   1.327 -1.3944  1.5771 -2.0548
10480SOL     OW32338   3.830   1.672   4.072  0.1484  0.2265  0.7518
10480SOL    HW132339   3.829   1.667   4.172 -2.4948  2.2917  0.9485
10480SOL    HW232340   3.838   1.580   4.034 -1.0467 -0.8420  2.9178
10481SOL     OW32341   4.735   0.986   2.018  0.4772  0.0419 -0.6745
10481SOL    HW132342   4.781   0.907   1.977  1.4461 -0.8073  1.8495
10481SOL    HW232343   4.802   1.044   2.064 -0.6348  0.3289  0.6565
10482SOL     OW32344   6.833   4.600   5.306 -0.1877 -0.2971 -0.6651
10482SOL    HW132345   6.894   4.638   5.376  0.6951 -3.1276  0.2331
10482SOL    HW232346   6.745   4.579   5.347  0.8446 -3.4807  0.1805
10483SOL     OW32347   5.142   2.810   0.039  0.0013 -0.8752  0.0835
10483SOL    HW132348   5.123   2.815   0.137 -1.6663 -1.3404 -0.1954
10483SOL    HW232349   5.090   2.882  -0.008  3.8408  2.1094 -0.1218
10484SOL     OW32350   4.404   5.721   2.331 -0.0115 -0.2107 -0.5499
10484SOL    HW132351   4.398   5.795   2.397 -0.3405 -1.8044  1.3033
10484SOL    HW232352   4.469   5.745   2.259  0.5414  1.4786  0.4667
10485SOL     OW32353   5.349   3.224   5.854  0.1696  0.7499 -0.9236
10485SOL    HW132354   5.299   3.266   5.778  2.5795  0.3860 -2.8463
10485SOL    HW232355   5.429   3.280   5.876 -0.2099  0.5732  1.0496
10486SOL     OW32356   5.390   3.709   2.808 -0.2597  0.1946 -0.0696
10486SOL    HW132357   5.431   3.728   2.719 -2.2651  0.7719 -0.9334
10486SOL    HW232358   5.437   3.763   2.879  1.4094 -0.3392 -0.7166
10487SOL     OW32359   2.858   0.702   3.279  0.5634 -0.2600  0.0790
10487SOL    HW132360   2.784   0.689   3.213  0.3409 -1.2370  0.5062
10487SOL    HW232361   2.888   0.613   3.313  1.3854  0.1788  0.5184
10488SOL     OW32362   2.952   4.682   5.785 -0.4455 -0.3527  0.4158
10488SOL    HW132363   2.908   4.592   5.789  0.3032 -0.7078  0.8569
10488SOL    HW232364   2.884   4.751   5.760 -1.3501 -0.8227  1.4920
10489SOL     OW32365   1.224   4.551   3.436 -0.2044 -0.3607  0.2145
10489SOL    HW132366   1.171   4.543   3.352  0.0541  2.1547 -0.2760
10489SOL    HW232367   1.310   4.598   3.416  0.0646 -0.1362  1.8086
10490SOL     OW32368   5.651   6.965   4.791  0.6505  0.3675 -0.4264
10490SOL    HW132369   5.563   6.960   4.744  0.2594 -2.1557  0.4081
10490SOL    HW232370   5.636   6.993   4.886  0.3894 -1.9516  0.2940
10491SOL     OW32371   0.674   4.273   3.506 -0.3251 -0.5104 -0.6303
10491SOL    HW132372   0.762   4.226   3.505 -0.1327 -0.1879  0.4495
10491SOL    HW232373   0.633   4.269   3.414 -0.0299 -2.2186 -0.7231
10492SOL     OW32374   5.445   3.408   5.318  0.7257 -0.5538 -0.6714
10492SOL    HW132375   5.479   3.456   5.237 -0.5395  1.3467 -0.1447
10492SOL    HW232376   5.455   3.467   5.398 -1.5403 -0.8702 -0.1056
10493SOL     OW32377   3.586   1.199   0.003  0.2743  0.1904 -0.5297
10493SOL    HW132378   3.539   1.115  -0.025 -0.5297  1.2852 -2.7528
10493SOL    HW232379   3.536   1.242   0.078  0.4531 -1.0483  0.3344
10494SOL     OW32380   4.571   0.078   6.355 -0.1249 -0.1719  0.7256
10494SOL    HW132381   4.655   0.032   6.326  0.8799  0.6146  2.2848
10494SOL    HW232382   4.495   0.012   6.356  0.3142 -0.7584 -1.2466
10495SOL     OW32383   0.291   0.502   5.941  0.1765  0.1753  0.2701
10495SOL    HW132384   0.197   0.513   5.971  0.4451  1.8178  0.6183
10495SOL    HW232385   0.350   0.489   6.021  0.5771  2.0878  0.3485
10496SOL     OW32386   1.525   0.933   5.197 -0.2200  0.1246  0.2635
10496SOL    HW132387   1.450   0.914   5.259 -1.1148 -1.0265 -1.1190
10496SOL    HW232388   1.500   1.008   5.136 -0.8841 -1.1970 -1.1558
10497SOL     OW32389   1.636   1.931   6.809 -0.8479 -0.1861 -0.0304
10497SOL    HW132390   1.705   1.894   6.871 -1.1168 -0.9642 -0.1811
10497SOL    HW232391   1.568   1.982   6.862 -1.7630 -1.8869  0.4978
10498SOL     OW32392   5.054   4.803   6.705 -0.1622  0.2773 -0.3507
10498SOL    HW132393   5.027   4.747   6.783 -0.4405  1.7214  0.6290
10498SOL    HW232394   5.111   4.749   6.643  0.4473 -0.7796  1.0756
10499SOL     OW32395   3.032   5.668   1.147 -0.2646 -0.1904 -0.5738
10499SOL    HW132396   3.119   5.630   1.179 -0.1340 -1.8881 -2.6970
10499SOL    HW232397   3.051   5.747   1.088 -0.3007  0.6473  0.5152
10500SOL     OW32398   3.350   0.612   0.972  0.2421  0.5091 -0.1052
10500SOL    HW132399   3.333   0.661   1.057  1.4494  2.2752 -0.8193
10500SOL    HW232400   3.310   0.663   0.895 -1.0735 -1.1927 -0.6222
10501SOL     OW32401   0.308   4.196   2.171 -0.4905 -0.0667  0.4660
10501SOL    HW132402   0.267   4.136   2.240 -0.0920  0.5156  1.2238
10501SOL    HW232403   0.287   4.160   2.080 -1.6001 -0.4817  0.8561
10502SOL     OW32404   2.165   6.885   5.574 -0.4988  0.0096  0.6827
10502SOL    HW132405   2.177   6.802   5.629 -1.9401 -0.1966  0.7297
10502SOL    HW232406   2.253   6.929   5.560  0.5105 -2.1282 -0.2770
10503SOL     OW32407   2.664   2.369   6.283  0.1895 -0.5096  0.8497
10503SOL    HW132408   2.604   2.306   6.331 -1.3473  0.5016  0.3266
10503SOL    HW232409   2.658   2.460   6.325 -1.5430  0.5163 -1.4283
10504SOL     OW32410   2.069   1.649   0.549 -0.1010  0.1649  0.4704
10504SOL    HW132411   1.986   1.599   0.525  0.2002  0.4628 -1.3242
10504SOL    HW232412   2.046   1.745   0.566  0.0180  0.5895 -1.5032
10505SOL     OW32413   0.538   5.027   5.321  0.1231  0.3558  0.0763
10505SOL    HW132414   0.545   4.944   5.265  0.2109  0.3105  0.1547
10505SOL    HW232415   0.611   5.027   5.389  1.3775  1.4306 -1.1905
10506SOL     OW32416   6.248   1.211   5.741 -0.1130  0.3776  0.6222
10506SOL    HW132417   6.206   1.139   5.685 -2.1406  0.0904  2.3680
10506SOL    HW232418   6.335   1.178   5.778  1.1574  0.4918 -2.0551
10507SOL     OW32419   4.074   0.891   4.783 -0.3907  0.3108 -0.1492
10507SOL    HW132420   3.988   0.841   4.782 -0.6765  0.8029 -0.6066
10507SOL    HW232421   4.058   0.986   4.754 -0.1509  1.1510  2.2853
10508SOL     OW32422   5.687   6.828   3.007 -0.4115 -0.1998  0.2055
10508SOL    HW132423   5.589   6.846   2.995 -0.2335  0.5057 -0.2748
10508SOL    HW232424   5.727   6.805   2.918 -0.1432 -0.5102  0.4072
10509SOL     OW32425   2.389   2.262   6.679 -0.5957  0.5198 -0.4028
10509SOL    HW132426   2.487   2.283   6.676 -0.3848 -0.4636 -1.7037
10509SOL    HW232427   2.375   2.175   6.725 -1.0389  1.3859  1.1617
10510SOL     OW32428   5.509   0.782   6.161 -0.1673 -0.5042  0.4761
10510SOL    HW132429   5.485   0.720   6.087 -2.4146 -0.4700  1.1119
10510SOL    HW232430   5.535   0.871   6.122 -1.0841 -0.5531 -0.2790
10511SOL     OW32431   4.963   1.310   1.499 -0.0564 -0.5074  0.2341
10511SOL    HW132432   4.965   1.214   1.470  0.1375  0.1219 -2.0066
10511SOL    HW232433   4.988   1.369   1.422 -1.0777  1.4169  1.2940
10512SOL     OW32434   2.235   0.355   1.220 -0.0098 -0.4933 -0.4395
10512SOL    HW132435   2.157   0.356   1.158  0.2418 -0.4311 -0.7574
10512SOL    HW232436   2.318   0.381   1.170  0.0698  0.3314  0.1044
10513SOL     OW32437   6.593   2.604   0.267 -0.1834 -0.0862  0.1313
10513SOL    HW132438   6.526   2.675   0.292 -1.3307 -1.1124  0.0314
10513SOL    HW232439   6.672   2.648   0.225  0.1866  1.3592  2.1856
10514SOL     OW32440   1.676   3.349   6.794 -0.0071 -0.7429 -0.2197
10514SOL    HW132441   1.652   3.330   6.699 -3.3282  0.2305  0.3155
10514SOL    HW232442   1.736   3.429   6.797 -2.0553  0.9591 -1.4721
10515SOL     OW32443   6.520   2.418   2.773  0.1042 -0.4913  0.0995
10515SOL    HW132444   6.463   2.382   2.847  1.3455  0.9274  1.8266
10515SOL    HW232445   6.613   2.434   2.806  0.4307  1.2047 -1.4616
10516SOL     OW32446   0.922   5.665   5.457  0.2028  0.2595 -0.2985
10516SOL    HW132447   0.861   5.587   5.445  1.1946 -1.2202  3.0447
10516SOL    HW232448   0.869   5.745   5.486 -0.4380 -0.1898 -0.2236
10517SOL     OW32449   5.382   1.630   3.824  0.5302  0.2367  0.2269
10517SOL    HW132450   5.363   1.725   3.847 -0.5863  0.3831 -1.1444
10517SOL    HW232451   5.296   1.579   3.821  0.8149 -0.2067 -1.5609
10518SOL     OW32452   4.840   4.618   3.644  0.2499  0.4904 -0.2070
10518SOL    HW132453   4.814   4.590   3.552  1.4375  0.3128 -0.5078
10518SOL    HW232454   4.759   4.620   3.703 -0.1483 -2.1575 -0.5415
10519SOL     OW32455   3.346   3.508   4.481  0.1235  0.0237 -0.5847
10519SOL    HW132456   3.386   3.580   4.424 -2.7850  2.0174 -0.3746
10519SOL    HW232457   3.358   3.532   4.577 -0.8309  0.2330 -0.5111
10520SOL     OW32458   2.818   0.438   6.329 -0.2988 -0.1163 -0.2841
10520SOL    HW132459   2.880   0.382   6.383 -2.6376 -1.3500  1.2870
10520SOL    HW232460   2.871   0.500   6.271  2.4223 -3.1658 -1.3814
10521SOL     OW32461   5.349   4.822   2.916  0.2333  0.6875 -0.1220
10521SOL    HW132462   5.391   4.771   2.991 -0.5617  0.7075  0.3579
10521SOL    HW232463   5.348   4.919   2.938  0.4002  0.7438 -0.3609
10522SOL     OW32464   6.913   5.543   3.010  0.4473  0.3768 -0.5225
10522SOL    HW132465   6.824   5.587   2.999  0.7905  1.3245  0.3978
10522SOL    HW232466   6.980   5.588   2.951  0.8255  1.2119  0.5095
10523SOL     OW32467   0.938   2.159   6.049 -0.0505  0.2293 -0.0604
10523SOL    HW132468   0.964   2.138   6.143 -0.3580 -0.4319 -0.1150
10523SOL    HW232469   0.954   2.256   6.031  4.4828 -0.4275 -0.7733
10524SOL     OW32470   4.850   2.397   6.082 -0.1164  0.9646  0.4612
10524SOL    HW132471   4.810   2.305   6.086 -1.5835  1.4793 -1.1287
10524SOL    HW232472   4.777   2.465   6.096  0.5865  1.9168 -0.3771
10525SOL     OW32473   4.071   0.558   6.808  0.0914 -0.1697 -0.2409
10525SOL    HW132474   4.085   0.487   6.877 -0.6038  0.4758  0.5870
10525SOL    HW232475   3.987   0.538   6.757 -1.0910  0.9428  1.1760
10526SOL     OW32476   4.528   5.730   2.651  0.4179  0.1228  0.0713
10526SOL    HW132477   4.524   5.755   2.748  0.4860 -1.0258  0.3843
10526SOL    HW232478   4.501   5.809   2.596 -1.6145  0.2178  1.0973
10527SOL     OW32479   1.794   2.747   5.042 -0.5248 -0.1385 -0.3410
10527SOL    HW132480   1.715   2.697   5.006 -1.0649  1.0973 -0.9258
10527SOL    HW232481   1.850   2.781   4.966  0.2575 -0.5068  0.0611
10528SOL     OW32482   0.318   5.843   6.377 -0.0574 -1.1086 -0.0248
10528SOL    HW132483   0.415   5.865   6.366 -0.3959  0.1580 -0.5383
10528SOL    HW232484   0.296   5.838   6.474  0.3789 -0.7909  0.0918
10529SOL     OW32485   6.818   5.752   6.172 -0.4194 -0.4965 -0.2724
10529SOL    HW132486   6.843   5.746   6.269 -1.4283  0.1940  0.0423
10529SOL    HW232487   6.880   5.816   6.126  0.5245 -1.3731 -0.2624
10530SOL     OW32488   5.830   1.536   4.922 -0.0864  0.2217 -0.0368
10530SOL    HW132489   5.753   1.554   4.861 -0.7044 -0.7485  0.4360
10530SOL    HW232490   5.804   1.467   4.989  1.3243 -0.4080 -0.1024
10531SOL     OW32491   2.846   1.460   3.618  0.1881 -0.0534  0.5130
10531SOL    HW132492   2.855   1.383   3.555  1.1384 -0.5978  1.2855
10531SOL    HW232493   2.908   1.533   3.591  0.0827  0.0021  0.4180
10532SOL     OW32494   3.319   3.550   3.827  0.3971  0.7105 -0.0439
10532SOL    HW132495   3.292   3.524   3.920  0.1663 -0.9505 -0.5294
10532SOL    HW232496   3.413   3.584   3.828  0.1641  1.3631  0.8835
10533SOL     OW32497   3.370   2.613   6.396 -0.2436  0.7901 -0.0808
10533SOL    HW132498   3.373   2.525   6.349 -1.5989 -0.6209  2.2772
10533SOL    HW232499   3.452   2.665   6.374  1.2608 -1.6144 -0.5715
10534SOL     OW32500   5.936   5.496   1.355 -0.4799  0.2234 -0.3918
10534SOL    HW132501   5.942   5.585   1.311 -0.3298  0.5957  0.3538
10534SOL    HW232502   5.969   5.425   1.293  0.6662  0.8449 -0.5248
10535SOL     OW32503   6.143   1.150   1.912  0.1866 -0.2316  0.5032
10535SOL    HW132504   6.180   1.149   1.819  1.4889  2.1367  0.9196
10535SOL    HW232505   6.052   1.191   1.913  0.5012  0.4693  0.3689
10536SOL     OW32506   5.614   6.279   1.800  0.3070  0.0914 -0.8129
10536SOL    HW132507   5.639   6.208   1.733 -0.7365  0.1617 -1.2913
10536SOL    HW232508   5.641   6.249   1.891  0.4154 -0.6633 -1.0817
10537SOL     OW32509   1.629   4.316   1.367  0.5241  0.3384  0.0142
10537SOL    HW132510   1.680   4.316   1.280  0.3753 -0.9523 -0.0998
10537SOL    HW232511   1.564   4.240   1.366  1.2836 -0.3672  1.6959
10538SOL     OW32512   5.439   4.819   4.666 -0.1090  0.0381 -0.2961
10538SOL    HW132513   5.496   4.796   4.744  0.7706  3.4961  0.2577
10538SOL    HW232514   5.468   4.907   4.629 -3.1197  0.4417 -1.9924
10539SOL     OW32515   2.180   5.179   6.333 -0.3945 -0.2439  0.3757
10539SOL    HW132516   2.268   5.157   6.375 -0.2001  1.0056  0.6409
10539SOL    HW232517   2.145   5.098   6.285  2.8023  0.2294 -3.2410
10540SOL     OW32518   3.273   1.256   6.301 -0.3161 -0.2770 -0.0536
10540SOL    HW132519   3.348   1.211   6.253  1.1606  3.3884 -1.5825
10540SOL    HW232520   3.190   1.248   6.246 -0.0845 -1.0647 -0.3045
10541SOL     OW32521   2.936   2.701   0.801  0.3111  0.2364 -0.2526
10541SOL    HW132522   2.854   2.667   0.847 -0.0388  1.5865  0.1705
10541SOL    HW232523   2.909   2.759   0.724  0.8307  1.7729  0.6910
10542SOL     OW32524   1.335   1.284   0.996  0.0048 -0.0264 -0.1409
10542SOL    HW132525   1.409   1.325   1.050 -0.2386  0.0085  0.1635
10542SOL    HW232526   1.358   1.189   0.977  0.5833  0.2472 -0.8708
10543SOL     OW32527   3.136   6.943   3.138  0.0186 -0.1775 -0.4843
10543SOL    HW132528   3.062   6.876   3.138 -0.4119  0.2922 -0.7462
10543SOL    HW232529   3.210   6.911   3.197 -0.8407 -0.1623  0.6294
10544SOL     OW32530   6.751   2.009   0.356 -0.2972 -0.3042  0.0158
10544SOL    HW132531   6.739   1.958   0.441 -0.4344  0.0483  0.2104
10544SOL    HW232532   6.775   2.103   0.377  0.3604 -0.3877 -0.3498
10545SOL     OW32533   4.393   6.222   2.826  0.1242  0.2421 -0.1323
10545SOL    HW132534   4.294   6.233   2.828  0.1895  0.8905 -0.3003
10545SOL    HW232535   4.424   6.212   2.732  0.1678 -0.5334 -0.0479
10546SOL     OW32536   5.116   1.301   6.750 -0.5485 -0.6238  0.3283
10546SOL    HW132537   5.114   1.206   6.717 -1.0379 -0.5757  0.2281
10546SOL    HW232538   5.063   1.359   6.690  0.2433 -0.1674  0.0506
10547SOL     OW32539   4.280   5.698   1.657 -0.0953 -0.0166 -0.2052
10547SOL    HW132540   4.204   5.761   1.637  0.4046 -0.2109 -2.9945
10547SOL    HW232541   4.248   5.604   1.648  0.3087 -0.1023 -0.7809
10548SOL     OW32542   3.696   2.773   6.947 -0.1274  0.0875  0.2695
10548SOL    HW132543   3.611   2.809   6.986 -0.7958 -0.6183 -0.4980
10548SOL    HW232544   3.773   2.828   6.979 -0.8310  0.5448  1.2358
10549SOL     OW32545   6.751   1.202   2.481  0.1324 -0.1549  0.3075
10549SOL    HW132546   6.813   1.168   2.551  0.7942  0.3283 -0.0439
10549SOL    HW232547   6.732   1.129   2.415  1.4693  0.1110 -0.3880
10550SOL     OW32548   4.965   6.621   5.359  0.0892 -0.4947 -0.0918
10550SOL    HW132549   4.970   6.657   5.453  0.8548  1.4120 -0.8140
10550SOL    HW232550   4.882   6.567   5.348  0.0256 -0.8182  1.7009
10551SOL     OW32551   0.770   3.062   5.497 -0.1548 -0.0683 -0.2752
10551SOL    HW132552   0.758   3.073   5.398  2.6248 -1.6783 -0.8780
10551SOL    HW232553   0.828   3.135   5.533  1.2364 -1.0658 -0.4240
10552SOL     OW32554   3.217   0.654   4.113  0.3719  0.4065 -0.3152
10552SOL    HW132555   3.290   0.713   4.080  0.8850 -0.0218  0.0420
10552SOL    HW232556   3.197   0.675   4.209  0.3317  0.2245 -0.2817
10553SOL     OW32557   2.590   2.922   5.511  0.2714 -0.4485 -0.6175
10553SOL    HW132558   2.645   2.839   5.500  0.5321 -0.3715  0.0611
10553SOL    HW232559   2.623   2.992   5.448 -0.5152 -1.1253 -1.8406
10554SOL     OW32560   6.029   5.734   3.968  0.3395  0.0922  0.0883
10554SOL    HW132561   6.030   5.805   3.898 -0.5208  0.6826  0.6497
10554SOL    HW232562   5.986   5.651   3.932 -3.2011  1.4312  0.8135
10555SOL     OW32563   3.732   2.438   6.119  0.2732 -0.4835 -0.7145
10555SOL    HW132564   3.734   2.373   6.044 -0.4067 -0.3669 -0.8449
10555SOL    HW232565   3.804   2.506   6.107  1.8732 -1.9590  0.1279
10556SOL     OW32566   2.253   5.610   5.157 -0.1709  0.2243  0.0850
10556SOL    HW132567   2.323   5.664   5.110 -2.0589  1.1440 -1.8317
10556SOL    HW232568   2.227   5.657   5.241  1.1022  0.1488  0.5442
10557SOL     OW32569   4.585   1.301   3.424 -0.1595 -0.4959  0.6433
10557SOL    HW132570   4.583   1.387   3.473 -1.1338 -0.0966 -0.0634
10557SOL    HW232571   4.579   1.225   3.488 -0.4029 -0.0090  1.1974
10558SOL     OW32572   0.033   6.076   6.307 -0.4778 -0.0502  0.1392
10558SOL    HW132573   0.119   6.126   6.306 -0.6925  0.3289 -0.9285
10558SOL    HW232574   0.009   6.048   6.213 -1.3116 -0.5015  0.4691
10559SOL     OW32575   5.594   3.698   1.524  0.7788 -0.3554 -0.2842
10559SOL    HW132576   5.536   3.779   1.520  0.0525 -0.8394  0.1801
10559SOL    HW232577   5.648   3.692   1.440  1.1173  0.7985 -0.1674
10560SOL     OW32578   5.509   3.116   3.264 -0.0281  0.3637  0.2670
10560SOL    HW132579   5.470   3.065   3.188  0.5872  1.4059 -0.7777
10560SOL    HW232580   5.516   3.056   3.344 -0.5881 -0.7829 -0.5116
10561SOL     OW32581   0.950   4.237   1.115 -0.2360  0.5352  0.0257
10561SOL    HW132582   0.977   4.162   1.176  1.6195  1.0363 -0.1243
10561SOL    HW232583   0.976   4.324   1.156  1.1116  0.8789 -1.4733
10562SOL     OW32584   4.213   3.130   6.770  0.1318 -0.1387  0.1485
10562SOL    HW132585   4.302   3.088   6.752  1.3077  0.8985  2.9666
10562SOL    HW232586   4.186   3.113   6.865 -2.0953  0.6437 -0.2766
10563SOL     OW32587   0.295   1.391   3.843 -0.3855  0.5332  0.3161
10563SOL    HW132588   0.205   1.361   3.812 -0.1146  0.1903 -0.1638
10563SOL    HW232589   0.343   1.436   3.767  0.9391 -1.7811 -0.3063
10564SOL     OW32590   5.669   1.555   2.244 -0.4314 -0.6803  0.0610
10564SOL    HW132591   5.740   1.540   2.313  0.1110  0.3986 -0.2435
10564SOL    HW232592   5.595   1.609   2.284 -0.8037 -1.2843  0.2014
10565SOL     OW32593   4.256   2.294   3.299 -0.1675  0.5301  0.3593
10565SOL    HW132594   4.268   2.310   3.200 -0.4220  0.7571  0.3638
10565SOL    HW232595   4.161   2.270   3.317 -0.0217  0.0522  0.4941
10566SOL     OW32596   3.967   5.631   1.039  0.3853  0.1307 -0.4503
10566SOL    HW132597   3.908   5.602   1.114  0.5457 -0.1317 -0.4269
10566SOL    HW232598   4.019   5.712   1.066 -0.8652  1.1239 -0.8828
10567SOL     OW32599   2.799   5.144   5.382 -0.2385 -0.0903  0.3272
10567SOL    HW132600   2.870   5.148   5.311 -0.5995  0.2110 -0.0194
10567SOL    HW232601   2.788   5.050   5.413 -2.0259 -0.7527 -2.0275
10568SOL     OW32602   3.528   0.388   4.715  0.2337  0.7808  0.1351
10568SOL    HW132603   3.463   0.355   4.647  1.5580  0.3824 -1.0019
10568SOL    HW232604   3.543   0.317   4.784 -0.5634  0.8983  0.4315
10569SOL     OW32605   5.789   1.043   3.312  0.4276  0.3356 -0.6693
10569SOL    HW132606   5.839   1.058   3.397 -0.7342  0.3423  0.0304
10569SOL    HW232607   5.775   1.130   3.266 -0.1688  0.5180 -0.1537
10570SOL     OW32608   0.013   3.578   0.616 -0.0916  0.0336  0.1779
10570SOL    HW132609  -0.063   3.513   0.605 -0.4302  0.4765 -0.1298
10570SOL    HW232610   0.018   3.637   0.536 -0.5578  1.1901  0.9606
10571SOL     OW32611   6.293   0.156   5.445  0.3932 -0.3897  0.0561
10571SOL    HW132612   6.244   0.240   5.426  1.6116  0.8123  1.8861
10571SOL    HW232613   6.371   0.147   5.383 -0.9086 -1.2714 -1.5070
10572SOL     OW32614   6.755   4.672   1.309 -0.9321 -0.3453  0.4552
10572SOL    HW132615   6.792   4.580   1.318  0.9790  0.2086 -1.0424
10572SOL    HW232616   6.716   4.684   1.218 -0.5478  0.5138  0.3864
10573SOL     OW32617   0.352   3.489   3.196 -0.6020  0.4732  0.2302
10573SOL    HW132618   0.290   3.564   3.173  0.4995  1.3197 -0.0541
10573SOL    HW232619   0.325   3.407   3.145 -1.4630  0.8234  0.0963
10574SOL     OW32620   6.843   4.094   2.142 -0.0078  0.6676 -0.2359
10574SOL    HW132621   6.786   4.070   2.220  1.0184  0.1538  0.3808
10574SOL    HW232622   6.855   4.194   2.139  0.5157  0.6498  0.7031
10575SOL     OW32623   1.681   0.454   6.846 -0.8367  0.8756  0.0694
10575SOL    HW132624   1.622   0.376   6.867 -0.1865  0.4351  0.2922
10575SOL    HW232625   1.729   0.483   6.928 -0.2954  0.8437 -0.2297
10576SOL     OW32626   0.415   3.833   4.729 -0.3372 -0.6770 -0.3600
10576SOL    HW132627   0.355   3.770   4.681 -0.4875 -0.7659 -0.0559
10576SOL    HW232628   0.506   3.831   4.687  0.2836 -2.6971  0.9453
10577SOL     OW32629   1.248   3.824   6.992  0.2683 -0.1572 -0.6294
10577SOL    HW132630   1.280   3.729   6.994  1.1260  0.0718 -1.9434
10577SOL    HW232631   1.299   3.875   6.922 -0.8521  1.0354 -0.6174
10578SOL     OW32632   4.455   5.211   5.414 -0.5564  0.1229  0.0034
10578SOL    HW132633   4.458   5.311   5.414  1.0308  0.1148 -1.4894
10578SOL    HW232634   4.475   5.177   5.322 -1.8631 -1.5755  0.2984
10579SOL     OW32635   5.399   5.266   6.244  0.5146 -0.3706 -0.3500
10579SOL    HW132636   5.433   5.358   6.263  1.6680 -0.7086 -0.6678
10579SOL    HW232637   5.362   5.226   6.327  2.8812 -0.7623  0.5979
10580SOL     OW32638   3.587   5.408   0.045 -0.2926  0.2841 -0.1474
10580SOL    HW132639   3.506   5.377  -0.005 -0.2474  0.5523 -0.3908
10580SOL    HW232640   3.658   5.339   0.039 -0.6834 -0.1898  0.5159
10581SOL     OW32641   4.823   1.602   2.354 -0.9850 -0.0402  0.0424
10581SOL    HW132642   4.820   1.597   2.454 -0.1381  0.6626  0.1130
10581SOL    HW232643   4.749   1.662   2.322 -1.4429 -0.5012  0.2150
10582SOL     OW32644   4.455   3.701   6.351 -0.0374  0.3285 -0.3069
10582SOL    HW132645   4.550   3.715   6.377 -0.1564  1.7862 -0.5551
10582SOL    HW232646   4.395   3.747   6.417 -0.4213  2.1500 -1.8252
10583SOL     OW32647   2.847   0.128   3.371  0.0931  0.1164  0.2863
10583SOL    HW132648   2.937   0.167   3.349  0.2441  0.3375  1.2556
10583SOL    HW232649   2.850   0.029   3.360 -0.0237  0.2681 -1.2877
10584SOL     OW32650   6.777   1.128   3.087  0.7346  0.0093  0.3032
10584SOL    HW132651   6.803   1.224   3.097  3.0999 -0.3175 -1.6482
10584SOL    HW232652   6.705   1.105   3.153  1.5883  2.5484  2.2695
10585SOL     OW32653   1.839   4.230   6.242 -0.7445 -0.1316  0.0121
10585SOL    HW132654   1.897   4.266   6.169 -0.2720  0.8211  0.8287
10585SOL    HW232655   1.756   4.287   6.250 -0.5944  0.0262  0.4849
10586SOL     OW32656   5.036   0.104   1.672  0.4076  0.6774 -0.3749
10586SOL    HW132657   5.051   0.036   1.601 -1.1336 -1.4295  1.1923
10586SOL    HW232658   4.954   0.157   1.651 -0.2606 -0.1982 -0.0029
10587SOL     OW32659   6.365   6.077   0.357  0.2647 -0.6234 -0.2630
10587SOL    HW132660   6.350   6.135   0.437 -1.8799 -1.4659 -0.0083
10587SOL    HW232661   6.387   5.984   0.388  1.5274 -0.4963 -0.6905
10588SOL     OW32662   2.035   5.490   5.075 -0.0041 -0.3314 -0.0373
10588SOL    HW132663   2.115   5.547   5.093  0.1890 -0.5973 -0.0575
10588SOL    HW232664   2.060   5.393   5.079 -0.3069 -0.4158 -0.1172
10589SOL     OW32665   2.745   0.797   5.841  0.1499 -0.4518  0.0310
10589SOL    HW132666   2.791   0.886   5.842 -1.9159  0.6658  0.8267
10589SOL    HW232667   2.794   0.735   5.779  1.9543  1.0291 -0.1159
10590SOL     OW32668   1.187   1.098   5.940  0.2082 -0.6119 -0.1410
10590SOL    HW132669   1.280   1.070   5.916  0.0279 -2.6779  1.2765
10590SOL    HW232670   1.122   1.029   5.908 -0.7934  0.4543 -0.4889
10591SOL     OW32671   1.971   0.286   6.429 -0.1003 -0.3965  1.1221
10591SOL    HW132672   2.060   0.331   6.439 -0.1355 -0.6757  3.1294
10591SOL    HW232673   1.907   0.325   6.495 -0.4073 -2.6658  2.2733
10592SOL     OW32674   5.645   2.787   6.728  0.1114 -0.4956 -0.0155
10592SOL    HW132675   5.693   2.775   6.815  1.7672 -4.0494 -1.2405
10592SOL    HW232676   5.546   2.793   6.746  0.4406 -0.5109  2.1431
10593SOL     OW32677   3.295   3.678   3.039  0.1945 -0.0176  0.1045
10593SOL    HW132678   3.233   3.625   2.982 -1.1749 -0.6615  2.0772
10593SOL    HW232679   3.375   3.623   3.062  0.5608  0.1073 -0.8373
10594SOL     OW32680   1.604   1.426   4.172 -0.1214 -0.4742  0.1455
10594SOL    HW132681   1.575   1.466   4.085  0.6140 -1.4356 -0.5690
10594SOL    HW232682   1.544   1.457   4.246  0.7014  2.3286 -0.2722
10595SOL     OW32683   1.551   5.369   4.697 -0.7161  1.2590  0.3256
10595SOL    HW132684   1.464   5.358   4.745 -0.7258  1.1224  0.2766
10595SOL    HW232685   1.554   5.458   4.653 -0.6641  1.4310  0.6719
10596SOL     OW32686   3.297   1.437   2.535 -0.0343 -0.1080  0.0746
10596SOL    HW132687   3.293   1.337   2.536 -0.0006 -0.2184 -2.5784
10596SOL    HW232688   3.375   1.467   2.479 -0.6425  1.3785 -0.0410
10597SOL     OW32689   3.374   1.415   3.715 -0.0487  0.1227 -0.3891
10597SOL    HW132690   3.284   1.406   3.670 -0.3919  0.9915  0.1014
10597SOL    HW232691   3.427   1.487   3.669  0.0730  0.1793 -0.1600
10598SOL     OW32692   4.381   2.490   0.713 -0.2223  0.2981 -0.2929
10598SOL    HW132693   4.351   2.480   0.808 -0.5477 -1.7140 -0.5586
10598SOL    HW232694   4.302   2.506   0.655 -0.2274 -0.1082 -0.4044
10599SOL     OW32695   5.305   0.517   5.352 -0.4980  0.1950 -0.2619
10599SOL    HW132696   5.371   0.526   5.426 -3.3342  0.3561  2.4390
10599SOL    HW232697   5.296   0.421   5.325  1.5485  0.2930 -1.4782
10600SOL     OW32698   2.442   3.784   5.333  0.0667  0.4687 -0.2155
10600SOL    HW132699   2.448   3.875   5.292  1.6169  0.0593 -0.9980
10600SOL    HW232700   2.533   3.743   5.336 -0.1626 -0.0188  2.6356
10601SOL     OW32701   5.419   5.622   5.339 -0.2552 -0.2418  0.1084
10601SOL    HW132702   5.353   5.687   5.300 -1.2839 -0.5023  1.3481
10601SOL    HW232703   5.372   5.560   5.401  0.9625 -1.2908  0.0267
10602SOL     OW32704   5.674   3.634   0.954  0.2893 -0.4497 -0.9795
10602SOL    HW132705   5.600   3.595   0.899 -2.1672  0.3790  1.5072
10602SOL    HW232706   5.687   3.578   1.036 -1.2011  2.1029  1.1473
10603SOL     OW32707   0.619   5.644   5.981 -0.1375 -0.0217  0.1142
10603SOL    HW132708   0.630   5.584   6.060  1.7796 -0.3503 -0.3469
10603SOL    HW232709   0.684   5.720   5.987 -0.5359  0.4028 -0.7436
10604SOL     OW32710   6.789   4.109   0.294 -0.1534  0.6091  0.1901
10604SOL    HW132711   6.698   4.111   0.252  0.0092  1.0107 -0.1525
10604SOL    HW232712   6.844   4.183   0.256  0.0722  0.8376  0.9545
10605SOL     OW32713   0.413   5.441   0.168  0.1737 -0.0452  0.0892
10605SOL    HW132714   0.410   5.537   0.141 -0.1148 -0.0473  0.1102
10605SOL    HW232715   0.498   5.400   0.135  0.6058  0.3852  0.6502
10606SOL     OW32716   2.959   6.311   2.019  0.9422 -0.6607 -0.2317
10606SOL    HW132717   2.939   6.257   1.938  1.8834 -1.2359 -0.0990
10606SOL    HW232718   2.890   6.382   2.030  0.6889 -0.7044 -1.4145
10607SOL     OW32719   6.768   5.244   1.030 -0.2924  0.6626  0.5224
10607SOL    HW132720   6.856   5.228   1.075 -0.3802  1.8390  1.1701
10607SOL    HW232721   6.703   5.280   1.097 -1.2382 -0.0848  0.0219
10608SOL     OW32722   4.708   6.172   3.133 -0.3030  0.4878  0.4125
10608SOL    HW132723   4.675   6.219   3.051 -0.1538  1.1591  0.7341
10608SOL    HW232724   4.707   6.235   3.210 -0.0571 -0.0279  0.8396
10609SOL     OW32725   2.048   6.761   3.179  0.0467 -0.1121 -0.4072
10609SOL    HW132726   2.045   6.739   3.277 -0.6168 -1.1814 -0.6501
10609SOL    HW232727   2.139   6.795   3.156 -0.2583  1.7184  0.8859
10610SOL     OW32728   2.350   5.445   5.547  0.7833  0.2643  0.2835
10610SOL    HW132729   2.293   5.419   5.625 -0.0340  0.6841 -0.1577
10610SOL    HW232730   2.378   5.541   5.556 -1.5019  1.1462 -1.1834
10611SOL     OW32731   4.871   2.189   5.495  0.3998  0.2259  0.5378
10611SOL    HW132732   4.852   2.249   5.416 -0.3174 -0.9123 -0.1784
10611SOL    HW232733   4.930   2.114   5.466 -2.1265 -1.8256  0.3026
10612SOL     OW32734   2.521   6.413   3.200  0.2731 -0.5263  0.1520
10612SOL    HW132735   2.532   6.435   3.296 -0.3948 -0.1328  0.1433
10612SOL    HW232736   2.490   6.494   3.150  0.9112 -0.6435 -0.4506
10613SOL     OW32737   0.984   6.971   1.169  0.5213  0.0113 -0.2616
10613SOL    HW132738   1.078   6.998   1.184  0.6667 -0.3841 -0.4430
10613SOL    HW232739   0.961   6.894   1.230  0.0238  0.7132  0.4635
10614SOL     OW32740   6.943   1.791   2.153 -0.8166  0.7023 -0.0567
10614SOL    HW132741   7.026   1.769   2.101 -0.7410  0.3080  0.2309
10614SOL    HW232742   6.965   1.797   2.250 -1.1327  0.5831  0.0206
10615SOL     OW32743   0.515   4.977   6.651  0.1336 -0.5259  0.2509
10615SOL    HW132744   0.424   5.010   6.676  0.0676  0.2626 -0.9811
10615SOL    HW232745   0.581   5.008   6.720 -0.2927  0.2540  0.3225
10616SOL     OW32746   4.812   4.774   2.301  0.0353  0.1597 -0.6743
10616SOL    HW132747   4.867   4.795   2.220  1.7883  2.6891  1.0003
10616SOL    HW232748   4.759   4.855   2.327  2.7067  0.9752  2.9540
10617SOL     OW32749   5.220   3.255   5.209  0.0550 -0.3066  0.2909
10617SOL    HW132750   5.299   3.304   5.246  0.3336 -0.3817 -0.1884
10617SOL    HW232751   5.247   3.160   5.188 -0.3938 -0.5718  0.9195
10618SOL     OW32752   6.462   3.720   6.046 -0.0860 -0.1280  0.1794
10618SOL    HW132753   6.420   3.811   6.042  1.4641  0.5645 -1.3542
10618SOL    HW232754   6.476   3.695   6.142  3.1582  3.1007  0.7616
10619SOL     OW32755   6.920   2.732   3.659  0.1904  0.0296  0.1655
10619SOL    HW132756   6.987   2.735   3.586 -0.1234  1.0558 -0.0969
10619SOL    HW232757   6.837   2.782   3.632 -1.0383 -1.9107  0.1503
10620SOL     OW32758   0.883   3.920   2.995  0.0320 -0.0006 -0.2259
10620SOL    HW132759   0.828   3.854   3.046 -0.0703  1.0124  1.0396
10620SOL    HW232760   0.978   3.915   3.025  0.0258  0.4172 -0.1308
10621SOL     OW32761   2.683   1.989   1.859  0.0131 -0.4348  0.0976
10621SOL    HW132762   2.756   1.932   1.823  0.3363  1.2547 -2.1627
10621SOL    HW232763   2.599   1.975   1.806  0.3403  1.6979 -1.1293
10622SOL     OW32764   5.434   3.841   0.398 -0.2034  0.7494  0.0704
10622SOL    HW132765   5.435   3.905   0.321 -1.5661  1.1736  0.3640
10622SOL    HW232766   5.361   3.774   0.384 -1.3515  1.6101  1.5416
10623SOL     OW32767   6.094   6.991   3.930 -0.2364 -0.4852 -0.6435
10623SOL    HW132768   6.091   6.895   3.957 -1.4960 -0.8095 -1.8134
10623SOL    HW232769   6.008   7.035   3.956  0.3169  0.3355 -0.1501
10624SOL     OW32770   2.681   2.404   3.603 -0.3449 -0.0050 -0.2574
10624SOL    HW132771   2.749   2.393   3.531 -0.9274  1.9462 -1.1879
10624SOL    HW232772   2.721   2.378   3.691  1.1028 -0.3412 -0.9871
10625SOL     OW32773   0.173   4.140   6.607  0.6589  0.2919 -0.1181
10625SOL    HW132774   0.260   4.138   6.657  0.5219 -1.2628  0.1115
10625SOL    HW232775   0.124   4.224   6.629  1.2501  0.3125  1.2417
10626SOL     OW32776   6.622   1.454   2.040 -0.0613  0.1970 -0.2705
10626SOL    HW132777   6.624   1.499   1.951  1.2321  1.2924  0.2726
10626SOL    HW232778   6.715   1.446   2.075 -0.4389 -1.2789  0.4831
10627SOL     OW32779   2.878   6.416   5.513  0.5575  0.3367  0.0588
10627SOL    HW132780   2.790   6.426   5.560 -0.5732 -0.4715 -1.7981
10627SOL    HW232781   2.923   6.505   5.507 -1.4421  1.3348 -1.3724
10628SOL     OW32782   5.977   0.937   6.329  0.1617  0.0156  0.0007
10628SOL    HW132783   5.877   0.930   6.324  0.2478 -0.4282 -2.3033
10628SOL    HW232784   6.002   1.018   6.381 -1.3198 -1.2605  2.9476
10629SOL     OW32785   3.973   3.948   6.212  0.6539 -0.1673  0.4144
10629SOL    HW132786   3.945   3.852   6.202  1.2763 -0.2406 -0.7675
10629SOL    HW232787   3.926   3.988   6.291  0.2956 -1.4068  0.8556
10630SOL     OW32788   4.548   1.339   2.023 -0.3588 -0.4771 -0.0257
10630SOL    HW132789   4.593   1.273   1.962 -2.6257 -1.6917 -0.4751
10630SOL    HW232790   4.502   1.290   2.097 -0.4841  0.7607  0.7451
10631SOL     OW32791   1.955   5.896   3.413 -0.4524 -0.2725 -0.5506
10631SOL    HW132792   1.958   5.918   3.316 -1.2657 -1.3523 -0.8365
10631SOL    HW232793   1.862   5.872   3.440  0.1034 -1.9855  0.0082
10632SOL     OW32794   6.764   2.831   0.326 -0.3474  0.1465  0.1283
10632SOL    HW132795   6.831   2.886   0.276  0.1131 -0.2370  0.3105
10632SOL    HW232796   6.745   2.874   0.414 -1.5678  1.1110 -0.5776
10633SOL     OW32797   3.266   5.965   0.717 -0.1001 -0.3511 -0.0138
10633SOL    HW132798   3.196   5.955   0.647  1.2460 -0.7858 -1.3395
10633SOL    HW232799   3.325   6.043   0.694 -1.2808  1.2902  2.1338
10634SOL     OW32800   1.872   6.198   1.403  0.5942  0.3563 -0.4873
10634SOL    HW132801   1.957   6.181   1.453 -1.1350 -0.3947  2.4109
10634SOL    HW232802   1.817   6.115   1.400 -0.5423  1.1012 -1.3528
10635SOL     OW32803   1.317   6.758   1.493  0.1547  0.2565  0.2641
10635SOL    HW132804   1.405   6.769   1.540  0.6574 -0.3194 -0.5172
10635SOL    HW232805   1.297   6.839   1.438 -0.6691  1.1446  1.8092
10636SOL     OW32806   4.464   2.272   4.587  1.2903 -0.3269  0.3123
10636SOL    HW132807   4.478   2.324   4.671  2.3941 -2.6204  1.6567
10636SOL    HW232808   4.549   2.268   4.535  1.2223 -0.7577  0.2262
10637SOL     OW32809   6.954   4.574   1.522 -0.1395 -0.1411 -0.6042
10637SOL    HW132810   6.876   4.601   1.579 -1.3590 -1.1291 -1.7217
10637SOL    HW232811   6.994   4.655   1.480  0.4917  0.5571  1.2356
10638SOL     OW32812   6.472   2.045   5.046  0.3257 -0.1540  0.3386
10638SOL    HW132813   6.397   2.077   4.988  1.6746  3.0366  0.2062
10638SOL    HW232814   6.472   2.097   5.131  2.5044  0.0872  0.2326
10639SOL     OW32815   3.037   0.326   6.456  0.6893  0.1770  0.0010
10639SOL    HW132816   3.005   0.280   6.539 -0.2300  0.8624  0.0438
10639SOL    HW232817   3.131   0.299   6.437  0.4451 -1.0629  0.4854
10640SOL     OW32818   0.371   0.514   1.566 -0.2428 -0.0681  0.2809
10640SOL    HW132819   0.437   0.449   1.527 -0.2664  0.9870 -1.6603
10640SOL    HW232820   0.327   0.564   1.492 -1.1308  1.2996  1.6769
10641SOL     OW32821   3.822   1.073   6.109 -0.4331 -0.2067 -0.0265
10641SOL    HW132822   3.912   1.052   6.071 -0.3876  0.1260 -0.1106
10641SOL    HW232823   3.757   1.085   6.034  0.1768  2.9079 -0.1941
10642SOL     OW32824   0.203   5.708   3.831  0.6810  0.9880 -0.1062
10642SOL    HW132825   0.260   5.738   3.908 -2.3117  3.5967  1.3181
10642SOL    HW232826   0.138   5.638   3.862  0.4380  0.9608 -0.6631
10643SOL     OW32827   4.629   4.501   0.379  0.3614  0.0103 -0.4181
10643SOL    HW132828   4.570   4.556   0.438  0.5952 -1.8283  1.6786
10643SOL    HW232829   4.638   4.545   0.290  1.2604  3.7817  1.3681
10644SOL     OW32830   3.693   1.517   5.547 -0.0264  0.3801  0.0539
10644SOL    HW132831   3.628   1.590   5.532 -0.1108  0.2281 -0.3337
10644SOL    HW232832   3.697   1.458   5.466 -0.1096 -0.1613  0.4361
10645SOL     OW32833   2.355   2.652   4.577  0.2440  0.6423 -0.5388
10645SOL    HW132834   2.336   2.684   4.485 -1.9816  1.0441  0.0172
10645SOL    HW232835   2.358   2.729   4.640  2.2076  0.4249 -0.2889
10646SOL     OW32836   1.656   3.831   0.873  0.3592 -0.2644  0.0134
10646SOL    HW132837   1.564   3.823   0.836 -0.2534  1.9727  0.9149
10646SOL    HW232838   1.712   3.886   0.811  0.8311 -0.8549 -0.0898
10647SOL     OW32839   4.644   6.416   2.145 -0.3086 -0.2753  0.5428
10647SOL    HW132840   4.733   6.457   2.126 -0.3295 -0.3661  0.2352
10647SOL    HW232841   4.656   6.320   2.170 -0.4123 -0.6741 -0.8563
10648SOL     OW32842   4.706   4.971   5.136 -0.4155  0.2733 -0.2396
10648SOL    HW132843   4.709   4.902   5.209 -0.9141 -0.1847 -0.6419
10648SOL    HW232844   4.635   5.038   5.156 -0.8439 -0.0960 -0.5138
10649SOL     OW32845   6.025   3.709   6.958 -0.1958 -0.6489  0.6786
10649SOL    HW132846   5.979   3.721   6.870 -2.0829  1.5367  1.8481
10649SOL    HW232847   6.123   3.727   6.948 -0.6912  1.7478 -0.6267
10650SOL     OW32848   2.484   6.956   0.188 -0.6836 -0.2617  0.3994
10650SOL    HW132849   2.454   6.868   0.152 -0.8596 -0.5422  1.1908
10650SOL    HW232850   2.552   6.941   0.260  2.3534  0.3965 -2.1147
10651SOL     OW32851   1.919   1.171   5.726  0.2214  0.3290 -0.5069
10651SOL    HW132852   1.951   1.264   5.744  0.7368  0.1078 -0.2791
10651SOL    HW232853   1.906   1.159   5.627  0.9129  0.3945 -0.6078
10652SOL     OW32854   4.346   6.585   1.688  0.1250 -0.6500 -0.5548
10652SOL    HW132855   4.326   6.537   1.602 -0.5386  0.7732 -1.2350
10652SOL    HW232856   4.272   6.650   1.707  0.3932 -0.7732  0.9791
10653SOL     OW32857   6.639   2.726   4.567  0.0966  0.3998  0.0348
10653SOL    HW132858   6.596   2.697   4.482  0.2840  0.5974 -0.1288
10653SOL    HW232859   6.569   2.739   4.637 -0.2743  1.9026 -0.5626
10654SOL     OW32860   6.118   6.558   1.148  0.0719  0.3762 -0.2772
10654SOL    HW132861   6.090   6.567   1.244 -3.4757  2.0662 -1.2909
10654SOL    HW232862   6.139   6.463   1.128 -1.8294 -0.5165  1.5679
10655SOL     OW32863   4.168   6.761   0.150 -0.0919 -0.0827 -0.3933
10655SOL    HW132864   4.248   6.703   0.171 -1.2359 -1.3209  0.7901
10655SOL    HW232865   4.101   6.708   0.098 -0.9629  0.3084  0.2967
10656SOL     OW32866   5.329   3.489   4.886 -0.3630  0.2808 -0.1675
10656SOL    HW132867   5.315   3.530   4.976  2.3669 -1.2859  1.0776
10656SOL    HW232868   5.412   3.527   4.845 -0.0663 -0.9727 -0.7810
10657SOL     OW32869   5.082   2.091   2.111  0.3916  0.2109  0.2576
10657SOL    HW132870   4.994   2.043   2.110 -0.4692  1.5043  2.8297
10657SOL    HW232871   5.156   2.024   2.111 -0.4409 -0.9075 -3.0744
10658SOL     OW32872   4.799   6.400   4.792  0.3685 -0.4650  0.7427
10658SOL    HW132873   4.723   6.342   4.763 -1.0292  1.3588  0.5387
10658SOL    HW232874   4.835   6.450   4.713  0.0133  0.6229  1.2406
10659SOL     OW32875   5.400   0.971   2.270  0.0498 -0.4185 -0.5812
10659SOL    HW132876   5.499   0.962   2.282  0.0003 -0.3195 -0.0722
10659SOL    HW232877   5.354   0.952   2.357 -0.3290  0.2816 -0.6158
10660SOL     OW32878   4.826   4.768   4.978  0.5855 -0.7984 -0.8587
10660SOL    HW132879   4.819   4.682   5.028  0.9681  0.3652  1.3517
10660SOL    HW232880   4.803   4.844   5.039  0.3643  0.6996 -2.6985
10661SOL     OW32881   0.465   1.170   3.217 -0.0062 -0.0836 -0.2584
10661SOL    HW132882   0.466   1.137   3.311  0.1717  0.3350 -0.1076
10661SOL    HW232883   0.506   1.102   3.157  0.4778 -0.0767  0.0627
10662SOL     OW32884   1.267   2.604   0.086  0.4520 -0.0778  0.0433
10662SOL    HW132885   1.185   2.554   0.058 -1.3930  2.5404  0.3740
10662SOL    HW232886   1.256   2.701   0.065  1.9783  0.9302  3.2088
10663SOL     OW32887   0.638   6.731   3.584 -0.7945 -0.1897 -0.0926
10663SOL    HW132888   0.665   6.773   3.670 -2.0175  2.7080 -0.9956
10663SOL    HW232889   0.695   6.651   3.566  1.1924  0.6120  2.1433
10664SOL     OW32890   3.026   6.078   5.700  0.2703 -0.0511  0.5298
10664SOL    HW132891   3.022   6.102   5.603 -0.0266  0.8778  0.7609
10664SOL    HW232892   3.009   5.980   5.711  1.1231 -0.3203 -0.4186
10665SOL     OW32893   4.476   2.699   5.142 -0.0587  0.1167  0.1259
10665SOL    HW132894   4.508   2.742   5.226 -0.3914  0.3972  0.1071
10665SOL    HW232895   4.449   2.604   5.161 -0.8838  0.4212  0.4918
10666SOL     OW32896   0.663   5.023   0.052 -0.4134  0.1136  0.5658
10666SOL    HW132897   0.689   5.020   0.148 -0.7437  0.2552  0.6608
10666SOL    HW232898   0.619   4.937   0.026 -0.2352  0.0374  0.5157
10667SOL     OW32899   4.604   2.601   5.660  0.1381  0.2178  0.0717
10667SOL    HW132900   4.646   2.575   5.747  0.6752 -1.5083 -0.6650
10667SOL    HW232901   4.560   2.691   5.669 -0.2157 -0.1309  2.2391
10668SOL     OW32902   2.098   6.747   6.714  0.0982 -0.4294  0.1576
10668SOL    HW132903   2.104   6.677   6.786 -1.1581  0.2860  0.9926
10668SOL    HW232904   2.126   6.835   6.752  0.0249 -0.1554 -0.4222
10669SOL     OW32905   3.722   4.647   0.234  0.5086  0.4070  0.9997
10669SOL    HW132906   3.785   4.570   0.236 -0.2735 -0.2435  2.1551
10669SOL    HW232907   3.771   4.731   0.258  1.3954  0.3084 -0.4074
10670SOL     OW32908   4.036   6.268   5.855 -0.1707 -0.0408  0.8649
10670SOL    HW132909   3.973   6.227   5.790  1.6628  2.1683 -2.6066
10670SOL    HW232910   4.054   6.363   5.829  3.3085 -0.0468  2.5904
10671SOL     OW32911   2.334   2.849   4.777 -0.1133 -0.0462  0.5185
10671SOL    HW132912   2.332   2.895   4.866 -3.0068  0.9049  0.0661
10671SOL    HW232913   2.322   2.917   4.705  1.8637 -0.8451 -0.6334
10672SOL     OW32914   6.244   3.068   0.269 -0.3791  1.0512  0.5000
10672SOL    HW132915   6.207   3.124   0.343 -1.7809  0.1914  0.4784
10672SOL    HW232916   6.256   3.125   0.187 -1.5220  1.4012  0.5570
10673SOL     OW32917   2.911   3.615   3.567  0.2678 -0.4284 -0.7117
10673SOL    HW132918   2.998   3.633   3.613  0.4251 -2.7176 -0.0104
10673SOL    HW232919   2.835   3.642   3.627  0.4891 -1.9799  0.3099
10674SOL     OW32920   1.642   1.470   2.076  0.3187  0.5732 -0.1572
10674SOL    HW132921   1.608   1.390   2.028  1.5110 -0.4917  0.6943
10674SOL    HW232922   1.621   1.552   2.024 -0.3045 -0.3439 -1.3961
10675SOL     OW32923   5.917   1.844   5.705 -0.1853  0.4387  0.3680
10675SOL    HW132924   5.962   1.776   5.648  1.2159  0.6199  1.2092
10675SOL    HW232925   5.889   1.922   5.649  0.5752  0.3287 -0.1757
10676SOL     OW32926   6.679   0.699   1.186  0.4049 -0.1928  0.2117
10676SOL    HW132927   6.709   0.700   1.090  1.9242 -3.3112  0.5136
10676SOL    HW232928   6.737   0.760   1.239  0.8410  0.0838 -0.5648
10677SOL     OW32929   6.183   0.853   5.260  0.2899 -0.6154  0.0639
10677SOL    HW132930   6.087   0.851   5.287  0.6003 -0.5201  1.2542
10677SOL    HW232931   6.204   0.772   5.204 -1.2780  1.0955 -3.2856
10678SOL     OW32932   2.572   6.171   2.723  0.0093 -0.1091  0.0055
10678SOL    HW132933   2.559   6.223   2.807  0.4769 -0.8657  0.5478
10678SOL    HW232934   2.661   6.193   2.683  0.7805 -1.4536  0.9340
10679SOL     OW32935   6.536   2.646   4.261  0.0552 -0.0588  0.1912
10679SOL    HW132936   6.578   2.737   4.267 -1.1135  0.6820 -1.8461
10679SOL    HW232937   6.594   2.586   4.206 -0.9147  0.6253 -1.6562
10680SOL     OW32938   5.960   1.487   4.038  0.5318 -0.5286 -0.0221
10680SOL    HW132939   5.965   1.548   4.117 -0.5481 -2.9147  2.0435
10680SOL    HW232940   5.905   1.530   3.966  2.5999  2.2440 -0.1245
10681SOL     OW32941   1.614   0.787   0.030 -0.1368 -0.4006 -0.2776
10681SOL    HW132942   1.610   0.689   0.049  2.0228 -0.3695  0.6649
10681SOL    HW232943   1.708   0.819   0.040 -0.9827  2.0298  0.6914
10682SOL     OW32944   6.184   3.589   1.351 -0.7312  0.0061 -0.4882
10682SOL    HW132945   6.233   3.503   1.367  0.5800  1.0285  1.3057
10682SOL    HW232946   6.228   3.663   1.403 -1.5495  1.8733 -2.3109
10683SOL     OW32947   1.588   5.080   4.215  0.0217 -0.3602  0.1114
10683SOL    HW132948   1.585   5.139   4.295 -2.0529  1.0513 -0.9388
10683SOL    HW232949   1.532   5.119   4.142 -0.6628 -3.1656 -0.9743
10684SOL     OW32950   4.381   6.369   1.254  0.0577  0.0387  0.0315
10684SOL    HW132951   4.413   6.294   1.197 -0.0286  0.8846 -1.1590
10684SOL    HW232952   4.377   6.339   1.350  2.2806 -0.7723 -0.0761
10685SOL     OW32953   6.139   1.530   3.484 -0.1530 -0.1158  0.4671
10685SOL    HW132954   6.179   1.547   3.394 -2.2852 -1.1381 -0.7615
10685SOL    HW232955   6.207   1.548   3.555  2.3365 -1.4486 -1.4320
10686SOL     OW32956   4.858   4.575   0.972  0.2198 -0.8865 -0.4655
10686SOL    HW132957   4.895   4.499   1.026 -0.1329 -2.1439 -1.9240
10686SOL    HW232958   4.932   4.635   0.944  1.1628 -2.9232 -2.6588
10687SOL     OW32959   1.676   5.187   1.960  0.2713  0.3574 -0.3698
10687SOL    HW132960   1.616   5.168   2.038  1.1400  1.4712  0.5991
10687SOL    HW232961   1.648   5.129   1.883 -0.3709 -1.0581  0.8512
10688SOL     OW32962   2.101   6.099   1.536 -0.0587  0.8017  0.3778
10688SOL    HW132963   2.136   6.031   1.471 -0.8863  0.3135  0.4257
10688SOL    HW232964   2.175   6.160   1.563  0.5384  0.3620 -0.2189
10689SOL     OW32965   0.556   6.569   2.545  0.2292  0.1126 -0.4313
10689SOL    HW132966   0.631   6.602   2.601  0.7097 -2.1758  0.3699
10689SOL    HW232967   0.589   6.551   2.452  0.5917 -0.4956 -0.1908
10690SOL     OW32968   3.200   0.409   2.012 -0.0142  0.5279  0.1333
10690SOL    HW132969   3.110   0.416   1.969  0.5342 -2.0426 -1.6672
10690SOL    HW232970   3.192   0.360   2.098 -0.5341  1.9198  0.9085
10691SOL     OW32971   3.836   1.877   0.978 -0.3344  0.9605  0.3033
10691SOL    HW132972   3.857   1.924   0.892  2.6886 -0.1891  0.3001
10691SOL    HW232973   3.737   1.859   0.982 -0.4733 -0.3003 -3.6911
10692SOL     OW32974   6.518   6.508   5.519 -0.2237 -0.0488  0.0714
10692SOL    HW132975   6.488   6.431   5.575 -2.0899  0.4384 -0.1826
10692SOL    HW232976   6.442   6.540   5.463  1.3212  0.0380 -2.1277
10693SOL     OW32977   4.430   1.951   5.548 -0.2746 -0.2311  0.9095
10693SOL    HW132978   4.528   1.970   5.545 -0.5590  1.2987 -1.2522
10693SOL    HW232979   4.413   1.856   5.523  0.5601  0.0879 -0.9866
10694SOL     OW32980   2.525   0.129   7.015  0.3269  0.1837  0.2967
10694SOL    HW132981   2.541   0.078   6.930 -1.0805  0.2526 -0.0351
10694SOL    HW232982   2.506   0.064   7.089 -0.9838  0.1835 -0.0192
10695SOL     OW32983   4.967   1.826   4.061  0.3224  0.0677  0.1257
10695SOL    HW132984   5.027   1.817   3.982  0.7597 -0.0212  0.4571
10695SOL    HW232985   5.023   1.833   4.144 -0.1265  0.1098  0.4301
10696SOL     OW32986   6.490   7.006   6.538 -0.1977  0.3667 -0.2518
10696SOL    HW132987   6.417   7.058   6.581  0.0340  0.2058  0.3456
10696SOL    HW232988   6.496   6.915   6.580  0.4258  0.4237 -0.2105
10697SOL     OW32989   4.419   6.193   3.836 -0.3886 -0.4976  0.1672
10697SOL    HW132990   4.456   6.269   3.783  0.7838 -0.4768  0.9683
10697SOL    HW232991   4.441   6.106   3.791  1.9411 -0.5744  1.2995
10698SOL     OW32992   3.456   6.103   3.560  0.2479 -0.1353 -0.2428
10698SOL    HW132993   3.486   6.090   3.655  1.6245 -0.9502 -0.7658
10698SOL    HW232994   3.530   6.145   3.507 -0.0219 -0.9248 -1.2695
10699SOL     OW32995   6.199   5.470   1.894  0.0864 -0.2579  0.4590
10699SOL    HW132996   6.236   5.489   1.984  0.3264  1.9962 -0.0588
10699SOL    HW232997   6.266   5.494   1.824 -1.1205  0.8217 -0.3895
10700SOL     OW32998   6.587   1.065   4.389  0.0128 -0.0585 -0.1665
10700SOL    HW132999   6.497   1.107   4.394  0.7300  1.5791 -0.5759
10700SOL    HW233000   6.581   0.979   4.338 -1.2044  0.2958 -0.6442
10701SOL     OW33001   2.047   6.264   3.993 -0.2429  0.3130  0.2117
10701SOL    HW133002   2.125   6.315   3.957 -1.4244  0.7127 -1.9906
10701SOL    HW233003   2.039   6.177   3.945 -1.0810  0.2390  0.4697
10702SOL     OW33004   5.373   2.669   1.016 -0.0034 -0.4553 -0.6045
10702SOL    HW133005   5.306   2.610   1.059 -0.2740  0.2583 -0.0408
10702SOL    HW233006   5.327   2.734   0.955  0.3934 -1.6952 -2.3107
10703SOL     OW33007   1.907   2.930   6.030 -0.1516  0.4284 -0.4801
10703SOL    HW133008   1.908   2.845   5.978  0.0082 -0.7285  1.3476
10703SOL    HW233009   1.871   3.004   5.972  0.9171 -0.5731 -2.4976
10704SOL     OW33010   6.896   6.320   6.994  0.2749  0.1219 -0.5815
10704SOL    HW133011   6.854   6.407   6.968  0.8121 -0.0381 -2.0656
10704SOL    HW233012   6.993   6.322   6.969  0.5085 -0.5753  0.2227
10705SOL     OW33013   1.610   2.868   6.412 -0.3619 -0.5103 -0.4659
10705SOL    HW133014   1.645   2.779   6.442  1.4733  0.3382  0.0405
10705SOL    HW233015   1.585   2.923   6.492 -1.8010 -0.6561 -0.7848
10706SOL     OW33016   4.130   3.350   0.235 -0.5823  0.1548  0.6992
10706SOL    HW133017   4.107   3.441   0.270 -0.5975  0.4745 -0.1369
10706SOL    HW233018   4.214   3.355   0.181 -0.8452 -0.2441  0.2546
10707SOL     OW33019   0.919   2.424   6.013  0.3668  0.3678 -0.2752
10707SOL    HW133020   0.921   2.455   5.918  1.9262  0.0762 -0.3636
10707SOL    HW233021   0.927   2.503   6.074  3.3888  0.3692 -0.4888
10708SOL     OW33022   4.451   4.312   0.471  0.0748  0.6969 -0.4759
10708SOL    HW133023   4.535   4.348   0.430  0.5650 -0.0339 -0.1530
10708SOL    HW233024   4.423   4.229   0.423  1.0307 -0.5558  1.0106
10709SOL     OW33025   0.030   0.133   5.392  0.1662  0.2086 -0.2380
10709SOL    HW133026   0.054   0.218   5.346  1.9989  0.3452  0.8467
10709SOL    HW233027   0.060   0.055   5.337  2.9817  0.3767  0.8788
10710SOL     OW33028   6.911   6.313   4.756  0.3991  0.5779  0.4629
10710SOL    HW133029   6.912   6.338   4.853 -1.9491  0.4128  0.5797
10710SOL    HW233030   6.820   6.328   4.718  0.8032 -1.0034 -1.2901
10711SOL     OW33031   3.025   5.006   5.078  0.0984 -0.2824  0.1640
10711SOL    HW133032   2.938   4.966   5.108 -0.3105 -1.9968 -2.9028
10711SOL    HW233033   3.051   4.967   4.990  1.8520  3.3054 -1.1061
10712SOL     OW33034   5.221   0.455   6.560  0.2910  0.4441  0.0378
10712SOL    HW133035   5.134   0.439   6.607  0.6997  0.6500  0.8887
10712SOL    HW233036   5.239   0.380   6.497  0.7836 -1.0422  1.8306
10713SOL     OW33037   2.519   6.275   0.215 -0.1509  0.2469 -0.0174
10713SOL    HW133038   2.502   6.280   0.313  1.0174  0.3739  0.1898
10713SOL    HW233039   2.566   6.190   0.193 -0.4545  0.1919 -0.4838
10714SOL     OW33040   5.934   5.136   5.228 -0.6310  0.2798 -0.6011
10714SOL    HW133041   5.944   5.036   5.220 -2.2999  0.1476 -1.4156
10714SOL    HW233042   5.928   5.161   5.324 -0.9671 -0.5062 -0.4069
10715SOL     OW33043   5.790   6.708   1.275 -0.2688 -0.0855 -0.1168
10715SOL    HW133044   5.847   6.764   1.335 -2.0079  0.9660  0.6350
10715SOL    HW233045   5.781   6.753   1.186 -0.1706 -0.1156 -0.1427
10716SOL     OW33046   2.999   0.546   2.640  0.2554  0.1392  0.3818
10716SOL    HW133047   2.912   0.515   2.601  0.2316 -2.1354  2.0464
10716SOL    HW233048   2.990   0.640   2.672 -1.8485 -0.2818  1.1695
10717SOL     OW33049   0.594   4.586   5.299 -0.1366  0.2059 -0.1403
10717SOL    HW133050   0.672   4.578   5.237  0.6502 -0.4022  0.9051
10717SOL    HW233051   0.601   4.671   5.351 -1.9044  1.8080 -2.3044
10718SOL     OW33052   0.530   4.084   5.691 -0.5260  0.1790  0.2623
10718SOL    HW133053   0.557   3.997   5.733 -0.9602 -0.1711 -0.1788
10718SOL    HW233054   0.439   4.075   5.651  0.1615  0.2797 -1.4044
10719SOL     OW33055   3.026   6.890   1.809 -0.1964 -0.9343  0.3204
10719SOL    HW133056   3.049   6.871   1.905 -2.1640 -0.9376  0.8418
10719SOL    HW233057   3.015   6.804   1.759 -1.6807 -1.0302  0.7681
10720SOL     OW33058   0.763   3.223   4.413  0.1111  0.6332 -0.7261
10720SOL    HW133059   0.739   3.127   4.422  1.7921  0.1602 -0.8967
10720SOL    HW233060   0.840   3.244   4.474 -0.2066  1.8613 -0.7114
10721SOL     OW33061   4.537   6.966   4.115  0.8936  0.3220  0.0745
10721SOL    HW133062   4.614   6.940   4.174  0.7717 -0.6487 -0.1713
10721SOL    HW233063   4.572   7.011   4.033  1.1781  0.1999  0.1259
10722SOL     OW33064   1.609   5.176   6.929 -0.7560 -0.8554 -0.3634
10722SOL    HW133065   1.662   5.092   6.943  1.7257  0.7425  0.5571
10722SOL    HW233066   1.591   5.219   7.017 -0.0105  0.6935 -0.9380
10723SOL     OW33067   6.666   5.048   3.498  0.5197  0.0354 -0.3099
10723SOL    HW133068   6.623   5.064   3.586  1.5534  1.5316 -0.0277
10723SOL    HW233069   6.610   4.986   3.443 -0.9486  0.3619  0.7773
10724SOL     OW33070   4.977   6.572   0.052 -0.8685 -0.4373 -0.3450
10724SOL    HW133071   4.956   6.563  -0.045 -2.4498 -0.1275 -0.0459
10724SOL    HW233072   4.893   6.586   0.104  0.1234  1.4963  0.8520
10725SOL     OW33073   6.681   6.388   4.598 -0.9662 -0.4002 -0.5081
10725SOL    HW133074   6.703   6.427   4.509 -0.0586 -2.3456 -1.1817
10725SOL    HW233075   6.604   6.438   4.638 -0.4406  1.4502 -1.6912
10726SOL     OW33076   0.049   0.708   5.525 -0.3519  0.3251  0.2913
10726SOL    HW133077   0.015   0.793   5.565 -0.8252  1.9907 -3.2730
10726SOL    HW233078   0.149   0.708   5.526 -0.3375  1.1947 -0.0745
10727SOL     OW33079   0.414   5.805   6.923  0.0855  0.0971  0.4152
10727SOL    HW133080   0.448   5.893   6.890 -0.5273  0.4906  0.8179
10727SOL    HW233081   0.456   5.785   7.012  2.1373 -1.2070 -0.7698
10728SOL     OW33082   5.765   5.979   5.469 -0.0825 -0.4984 -0.3593
10728SOL    HW133083   5.665   5.983   5.474 -0.0422  0.1360  0.0281
10728SOL    HW233084   5.803   5.975   5.561  0.2767 -0.1470 -0.4923
10729SOL     OW33085   4.499   2.201   3.614 -0.7686 -0.1500 -0.3025
10729SOL    HW133086   4.436   2.132   3.577  0.8577 -0.9394 -1.7399
10729SOL    HW233087   4.592   2.178   3.588  0.1630  0.9549  1.8342
10730SOL     OW33088   0.805   5.648   4.907  0.1377 -0.1236 -0.0306
10730SOL    HW133089   0.843   5.559   4.931 -1.2065 -0.7608 -0.1235
10730SOL    HW233090   0.877   5.708   4.876  1.1409 -1.0415  0.4542
10731SOL     OW33091   5.391   4.076   5.545 -0.0330 -0.4633 -0.5563
10731SOL    HW133092   5.376   3.979   5.560 -1.7167 -0.0842  0.4467
10731SOL    HW233093   5.311   4.115   5.499 -0.2105  0.7968  0.7682
10732SOL     OW33094   6.175   5.874   3.527 -0.5193 -0.5383 -0.4081
10732SOL    HW133095   6.081   5.878   3.491 -0.4134  0.6790 -0.5687
10732SOL    HW233096   6.239   5.904   3.457 -0.0671 -0.6594 -0.0511
10733SOL     OW33097   0.823   2.194   4.471 -0.2617 -0.2156 -0.2198
10733SOL    HW133098   0.751   2.227   4.410 -1.5006  1.0152  1.7830
10733SOL    HW233099   0.794   2.109   4.515 -0.7380  0.5117  0.9213
10734SOL     OW33100   4.513   0.632   4.409  0.5124  0.0292 -0.1204
10734SOL    HW133101   4.515   0.617   4.508 -2.2091  0.2854  0.0467
10734SOL    HW233102   4.515   0.543   4.362 -1.0181 -0.2640  0.3128
10735SOL     OW33103   1.540   5.636   1.077 -0.2947  0.3210 -1.0535
10735SOL    HW133104   1.463   5.579   1.106  0.1242  0.4150  0.3505
10735SOL    HW233105   1.607   5.581   1.028  0.3096 -0.5431  0.6587
10736SOL     OW33106   5.020   5.383   4.425  0.0160 -0.0923  0.2331
10736SOL    HW133107   4.983   5.466   4.466 -2.8165 -1.0598 -0.0855
10736SOL    HW233108   5.058   5.324   4.496  0.8184  0.8647  0.6227
10737SOL     OW33109   5.361   0.075   1.934  0.1575  0.2063  0.2226
10737SOL    HW133110   5.444   0.022   1.921 -0.4767 -0.2805 -2.5711
10737SOL    HW233111   5.377   0.170   1.908  0.1072  0.3481  0.7033
10738SOL     OW33112   5.608   0.643   2.224  0.3771  0.3606  0.1609
10738SOL    HW133113   5.618   0.610   2.129 -0.0778 -1.3252  0.6524
10738SOL    HW233114   5.660   0.583   2.285  0.6508  1.4224  1.0021
10739SOL     OW33115   4.065   1.987   2.773 -0.3762  0.3594  0.1065
10739SOL    HW133116   4.006   1.935   2.835  0.5345  0.2396  0.8877
10739SOL    HW233117   4.138   1.929   2.739 -0.8827  0.4105 -1.1442
10740SOL     OW33118   4.592   2.103   6.347 -0.1063  0.5097 -0.8770
10740SOL    HW133119   4.577   2.011   6.383  2.5952  0.3177 -0.0522
10740SOL    HW233120   4.513   2.130   6.291 -0.1232 -3.1450 -2.9394
10741SOL     OW33121   1.898   2.842   4.776 -0.0751  0.3192  0.4481
10741SOL    HW133122   1.882   2.744   4.763  0.8734  0.2410 -0.2604
10741SOL    HW233123   1.838   2.894   4.716  0.4608  0.1161 -0.2745
10742SOL     OW33124   6.445   1.220   2.932  0.1824 -1.1936 -0.8627
10742SOL    HW133125   6.381   1.228   2.855  0.3196 -0.5153 -0.9126
10742SOL    HW233126   6.537   1.200   2.897  0.1321 -1.4942 -0.8309
10743SOL     OW33127   4.436   3.085   6.379 -0.0216  0.5939  0.5048
10743SOL    HW133128   4.341   3.059   6.366 -0.5552  1.7711  1.8278
10743SOL    HW233129   4.462   3.073   6.475  0.8931  1.1230  0.3400
10744SOL     OW33130   1.725   2.244   6.872  0.0440  0.1422  0.2113
10744SOL    HW133131   1.776   2.245   6.958 -1.3859  0.0721  1.1017
10744SOL    HW233132   1.653   2.313   6.876  1.1625  1.4963 -1.7328
10745SOL     OW33133   5.008   5.574   2.279 -0.1686 -0.1018  0.5036
10745SOL    HW133134   5.021   5.486   2.326  0.6348 -1.4105 -1.9729
10745SOL    HW233135   4.988   5.645   2.346  0.3907 -1.9189  2.7298
10746SOL     OW33136   3.907   6.088   4.631  0.1911 -0.3053 -0.0054
10746SOL    HW133137   3.885   6.054   4.723  1.8364 -1.6440 -0.0587
10746SOL    HW233138   3.956   6.175   4.638  0.0846 -0.2738  0.3604
10747SOL     OW33139   0.975   0.260   1.966  0.3859  0.6617 -0.3959
10747SOL    HW133140   0.883   0.293   1.987  0.3363  1.4774 -1.7511
10747SOL    HW233141   0.976   0.222   1.873  1.5118  1.0384 -0.5501
10748SOL     OW33142   3.599   0.069   1.348  0.0243 -0.1687  0.2412
10748SOL    HW133143   3.589   0.038   1.254 -0.2573  0.3272  0.1057
10748SOL    HW233144   3.633   0.163   1.349  1.4698 -0.6708  0.6573
10749SOL     OW33145   3.999   0.899   3.401 -0.3585 -0.7808  0.1680
10749SOL    HW133146   3.975   0.981   3.351  1.0250 -0.9144 -0.7796
10749SOL    HW233147   4.054   0.839   3.343  2.5237 -0.3229  2.1903
10750SOL     OW33148   3.657   2.125   4.884  0.3971  0.1637 -0.0901
10750SOL    HW133149   3.579   2.125   4.947 -0.1992  1.4695 -0.7871
10750SOL    HW233150   3.625   2.102   4.792  0.7023  1.3990 -0.5163
10751SOL     OW33151   5.787   6.052   2.667  0.2947 -0.2592 -0.2983
10751SOL    HW133152   5.872   6.064   2.719  0.8496 -2.8807 -0.4770
10751SOL    HW233153   5.733   6.137   2.672  1.5421  0.5099  2.2791
10752SOL     OW33154   6.255   5.889   0.083 -0.4334 -0.0105  0.1529
10752SOL    HW133155   6.177   5.827   0.081 -0.2479 -0.2983  1.1930
10752SOL    HW233156   6.286   5.900   0.177 -0.3883  1.5750 -0.0226
10753SOL     OW33157   4.221   6.795   5.213  0.0833  0.6582  0.0632
10753SOL    HW133158   4.138   6.766   5.261  0.4976  2.0388  1.7300
10753SOL    HW233159   4.277   6.851   5.275  1.5635  0.9559 -1.4834
10754SOL     OW33160   6.603   4.796   3.392 -0.6335  0.3019 -0.0889
10754SOL    HW133161   6.619   4.763   3.299  0.9007  0.2711  0.1657
10754SOL    HW233162   6.527   4.745   3.433  0.7327 -1.9422 -0.2068
10755SOL     OW33163   1.494   1.669   2.909  0.2396  0.0554  0.2038
10755SOL    HW133164   1.436   1.588   2.915 -0.3166  0.5564  1.8089
10755SOL    HW233165   1.528   1.677   2.815 -3.0737  0.3109 -1.1174
10756SOL     OW33166   0.491   0.850   0.940  0.1636 -0.0817 -0.1227
10756SOL    HW133167   0.562   0.814   1.002 -0.0566  0.8652  0.7114
10756SOL    HW233168   0.507   0.947   0.925 -0.9376  0.1324  0.0508
10757SOL     OW33169   6.220   2.556   1.532  0.5217  0.2926 -0.0220
10757SOL    HW133170   6.279   2.608   1.470  0.4705  1.1414  0.6245
10757SOL    HW233171   6.131   2.602   1.540  0.3369 -0.1087  0.2506
10758SOL     OW33172   2.114   1.179   6.888 -0.4567  0.3528 -0.3984
10758SOL    HW133173   2.128   1.084   6.913 -0.2805  0.5532  0.2958
10758SOL    HW233174   2.197   1.215   6.845 -0.5176  0.2035 -0.6453
10759SOL     OW33175   3.940   4.554   0.575 -0.0649 -0.5426 -0.6814
10759SOL    HW133176   3.885   4.628   0.536 -0.6180 -0.8290 -0.4493
10759SOL    HW233177   3.886   4.470   0.578  0.1892 -0.6827  0.0960
10760SOL     OW33178   2.562   3.890   0.509 -0.1804 -0.0448 -0.1112
10760SOL    HW133179   2.573   3.979   0.464  1.6139 -0.6390 -0.9311
10760SOL    HW233180   2.542   3.904   0.606 -2.2573  1.2411 -0.6563
10761SOL     OW33181   2.697   4.993   6.744 -0.3543  0.1364 -0.2556
10761SOL    HW133182   2.692   4.942   6.659 -1.4093 -1.6942  0.8410
10761SOL    HW233183   2.611   5.043   6.758 -0.6461 -0.4855  0.2484
10762SOL     OW33184   2.443   6.593   3.601  0.3810  0.3383 -0.0721
10762SOL    HW133185   2.364   6.550   3.556 -0.2112  2.6580 -1.4414
10762SOL    HW233186   2.420   6.613   3.696  0.0854 -0.8051  0.1159
10763SOL     OW33187   5.207   1.531   1.578 -0.2217  0.2857  0.2025
10763SOL    HW133188   5.188   1.508   1.482 -0.4025  0.7085  0.1351
10763SOL    HW233189   5.299   1.569   1.585 -0.7272  1.5975 -0.0338
10764SOL     OW33190   5.435   6.929   4.642  0.4361  0.2339 -0.1675
10764SOL    HW133191   5.436   6.849   4.701  0.2207  0.2915 -0.0854
10764SOL    HW233192   5.345   6.939   4.599  0.1603  0.9546  0.5477
10765SOL     OW33193   0.999   2.231   0.901 -0.4573  0.5025  0.2361
10765SOL    HW133194   0.989   2.209   0.804 -0.8417  3.3761 -0.4694
10765SOL    HW233195   1.095   2.225   0.927 -0.1742  0.9979 -0.6658
10766SOL     OW33196   5.171   4.169   5.798 -0.0581  0.2735  0.1962
10766SOL    HW133197   5.138   4.254   5.755  1.7371  1.0049  0.1993
10766SOL    HW233198   5.270   4.165   5.792  0.0889 -0.6598  2.3693
10767SOL     OW33199   0.364   5.495   1.232 -0.3927 -0.7339  0.3440
10767SOL    HW133200   0.418   5.538   1.159  0.1937  0.6052  1.5121
10767SOL    HW233201   0.288   5.445   1.192 -1.4961  1.9171 -1.1223
10768SOL     OW33202   6.394   1.206   6.424 -0.0006 -0.2871  0.0756
10768SOL    HW133203   6.295   1.197   6.432 -0.2326  1.5971 -0.2490
10768SOL    HW233204   6.438   1.120   6.454 -1.6739 -0.8891  0.9397
10769SOL     OW33205   3.417   3.032   3.734  0.3687  0.0878 -0.2173
10769SOL    HW133206   3.338   3.065   3.682  0.8910  2.1051  0.1682
10769SOL    HW233207   3.451   3.105   3.793  2.0019 -1.0133  0.2821
10770SOL     OW33208   2.655   0.706   3.569  0.1622  0.2506 -0.0104
10770SOL    HW133209   2.714   0.776   3.528  0.8936  0.0782  0.7236
10770SOL    HW233210   2.623   0.644   3.498  0.2620  0.7820 -0.5316
10771SOL     OW33211   5.124   5.067   2.425  0.0913 -0.1853  0.2759
10771SOL    HW133212   5.063   5.031   2.495  0.3823  0.4866  0.8896
10771SOL    HW233213   5.218   5.067   2.460  0.3811 -0.7375 -0.4698
10772SOL     OW33214   4.569   2.628   4.180 -0.1323 -0.1625  0.3044
10772SOL    HW133215   4.610   2.720   4.178 -0.8527  0.1608 -0.9441
10772SOL    HW233216   4.469   2.637   4.182 -0.2689 -0.9232  3.7950
10773SOL     OW33217   0.573   2.737   6.902  0.2935 -0.3431 -0.1266
10773SOL    HW133218   0.619   2.807   6.957 -1.5061  0.6966  0.1576
10773SOL    HW233219   0.513   2.782   6.836 -1.7926 -1.5669  0.8222
10774SOL     OW33220   6.616   3.480   6.612  0.6813  0.7669  0.2192
10774SOL    HW133221   6.677   3.431   6.550  2.6778  1.5691  1.4455
10774SOL    HW233222   6.654   3.571   6.631 -0.9870  1.3572  0.9354
10775SOL     OW33223   1.160   3.979   5.557 -0.5423  0.3050  0.4549
10775SOL    HW133224   1.142   4.066   5.602 -1.4929  0.2126  0.2761
10775SOL    HW233225   1.170   3.907   5.626  1.7675  0.7783  0.6941
10776SOL     OW33226   6.468   3.857   2.240  0.0023  0.3985  0.3130
10776SOL    HW133227   6.438   3.854   2.336 -0.0774 -0.7038  0.2661
10776SOL    HW233228   6.388   3.854   2.180  0.1155 -2.1875  0.1920
10777SOL     OW33229   1.623   6.141   2.209 -0.1850  0.1197 -0.4173
10777SOL    HW133230   1.700   6.086   2.176 -1.1935 -1.5312 -0.1611
10777SOL    HW233231   1.605   6.119   2.305 -0.8916  0.5749 -0.4354
10778SOL     OW33232   4.143   1.506   4.763 -0.4711 -0.0545  0.2611
10778SOL    HW133233   4.157   1.464   4.852 -1.8970 -0.7606  0.1857
10778SOL    HW233234   4.072   1.576   4.770  0.7456  1.2474  0.0507
10779SOL     OW33235   5.353   3.890   5.267  0.4165 -0.0231 -0.3852
10779SOL    HW133236   5.431   3.894   5.329 -1.4125  0.9602  2.0140
10779SOL    HW233237   5.289   3.820   5.298  0.7447 -1.5467 -2.9081
10780SOL     OW33238   1.582   5.303   3.380  1.0713 -0.1627  0.3937
10780SOL    HW133239   1.642   5.301   3.300  1.6223  0.3699  0.7923
10780SOL    HW233240   1.626   5.353   3.454  0.4772 -0.4820  0.9697
10781SOL     OW33241   5.602   2.649   5.952 -0.1230 -0.0659  0.3066
10781SOL    HW133242   5.605   2.749   5.948  0.3143 -0.1102 -0.4935
10781SOL    HW233243   5.539   2.615   5.882  1.3446 -0.4401 -0.8738
10782SOL     OW33244   6.093   1.711   4.990 -0.2309  0.1570  0.0098
10782SOL    HW133245   6.012   1.703   4.932 -1.6086 -1.1436  1.9891
10782SOL    HW233246   6.146   1.626   4.982 -0.7503 -0.2785  1.0675
10783SOL     OW33247   0.902   2.544   3.966  0.5265  0.3692  0.1993
10783SOL    HW133248   0.933   2.573   4.057  1.0964 -1.0305  0.4845
10783SOL    HW233249   0.974   2.564   3.899  0.1917  1.2116  0.0851
10784SOL     OW33250   4.102   5.113   4.285  0.2232  0.2174 -0.4868
10784SOL    HW133251   4.187   5.118   4.336 -0.8423 -0.9359  1.5200
10784SOL    HW233252   4.057   5.026   4.303 -1.3188  0.7261 -1.6187
10785SOL     OW33253   1.549   4.867   1.465  0.1589 -0.2229 -0.1335
10785SOL    HW133254   1.558   4.817   1.379 -2.5620  0.0661 -0.6621
10785SOL    HW233255   1.479   4.938   1.455  0.7372  0.7192  1.9466
10786SOL     OW33256   5.197   2.089   4.288 -0.5124 -0.3143  0.6474
10786SOL    HW133257   5.248   2.136   4.215  0.7348 -0.6318  1.2837
10786SOL    HW233258   5.125   2.032   4.247 -0.2117 -0.0297 -0.2991
10787SOL     OW33259   1.844   0.635   3.501 -0.1964 -0.0813 -0.3250
10787SOL    HW133260   1.758   0.683   3.518 -0.9793 -1.8486  1.0338
10787SOL    HW233261   1.825   0.542   3.470  1.1539 -1.1129  1.7130
10788SOL     OW33262   3.055   2.667   6.184  0.2532  0.8487  0.2124
10788SOL    HW133263   3.076   2.570   6.178 -1.6464  0.3593  0.6537
10788SOL    HW233264   3.075   2.712   6.097  0.0378 -0.1889 -0.3802
10789SOL     OW33265   0.581   3.365   2.808 -0.4392  0.4778  0.1333
10789SOL    HW133266   0.575   3.287   2.870 -0.6509 -0.4533 -1.0294
10789SOL    HW233267   0.490   3.385   2.771  0.0315 -0.4148 -1.5852
10790SOL     OW33268   4.862   3.158   2.698 -0.1804  0.1063 -0.3230
10790SOL    HW133269   4.821   3.118   2.781  1.4700 -0.9197  0.0489
10790SOL    HW233270   4.849   3.095   2.621 -0.6931  0.5217 -0.5794
10791SOL     OW33271   1.032   1.755   3.409 -0.4033 -0.1113  0.2852
10791SOL    HW133272   1.105   1.688   3.422 -1.8483 -1.6236  0.9360
10791SOL    HW233273   1.057   1.817   3.335  1.0075 -1.3284 -0.3166
10792SOL     OW33274   2.014   1.638   2.013  0.5529  0.3117  0.5026
10792SOL    HW133275   1.919   1.655   1.988  0.8570  1.9119  0.3173
10792SOL    HW233276   2.023   1.637   2.112  0.3682  0.4031  0.5217
10793SOL     OW33277   3.966   1.133   2.802  0.5945 -0.0803 -0.3212
10793SOL    HW133278   3.933   1.222   2.832 -0.6761 -0.7231  0.2305
10793SOL    HW233279   3.965   1.129   2.702 -0.1177  0.2366 -0.3314
10794SOL     OW33280   4.230   3.909   5.574 -0.1306  0.1210 -0.1162
10794SOL    HW133281   4.264   4.003   5.576 -0.3428  0.3735 -3.2481
10794SOL    HW233282   4.298   3.849   5.533 -1.5351 -0.2757 -1.9866
10795SOL     OW33283   5.578   2.560   3.057 -0.2603 -0.0986  0.3358
10795SOL    HW133284   5.580   2.656   3.086  0.8170 -0.4650  1.6006
10795SOL    HW233285   5.490   2.540   3.013  0.2952  1.9990 -1.9473
10796SOL     OW33286   6.573   2.687   1.952  0.1556  0.0171  0.4870
10796SOL    HW133287   6.531   2.646   1.871 -2.4150 -1.0750  2.2512
10796SOL    HW233288   6.616   2.773   1.927 -1.6961  0.3783 -1.8065
10797SOL     OW33289   4.115   3.161   5.466  0.3498  0.0708  0.0810
10797SOL    HW133290   4.193   3.219   5.445  0.5652  0.4327  1.7142
10797SOL    HW233291   4.084   3.115   5.383  0.1606  2.5103 -1.3094
10798SOL     OW33292   2.003   0.156   5.597 -0.1475  0.7805  0.1646
10798SOL    HW133293   1.947   0.228   5.640  0.9562  1.0490  1.2016
10798SOL    HW233294   1.948   0.107   5.530 -1.6187  1.0615  1.1166
10799SOL     OW33295   0.242   0.154   3.529  0.4372 -0.5983 -0.2704
10799SOL    HW133296   0.174   0.219   3.495  0.8132 -0.7696 -1.3898
10799SOL    HW233297   0.241   0.155   3.629  1.8194  2.6482 -0.1577
10800SOL     OW33298   6.903   5.768   4.810 -0.1483  1.1408  0.8568
10800SOL    HW133299   6.812   5.811   4.806 -0.7190  0.0712 -4.0706
10800SOL    HW233300   6.964   5.813   4.745  1.4045 -1.0144  0.7170
10801SOL     OW33301   2.617   6.184   5.853 -0.1376  0.5100 -0.0914
10801SOL    HW133302   2.550   6.202   5.781  0.2440  0.9658 -0.3432
10801SOL    HW233303   2.577   6.125   5.923 -0.4787 -0.0257 -0.7324
10802SOL     OW33304   2.134   5.068   2.273  0.0609  0.1241  0.0530
10802SOL    HW133305   2.158   5.153   2.320  0.8186  0.4860 -0.9575
10802SOL    HW233306   2.170   5.070   2.180  0.5376 -1.5286  0.1727
10803SOL     OW33307   0.904   3.557   3.061  0.2221 -0.4321  0.5587
10803SOL    HW133308   0.808   3.532   3.050  0.0495 -1.4409  3.5775
10803SOL    HW233309   0.941   3.586   2.972 -3.0263  0.7261 -0.5703
10804SOL     OW33310   5.417   4.133   6.883  0.3974 -0.2423  0.7230
10804SOL    HW133311   5.317   4.136   6.883  0.4193  1.9621  0.0090
10804SOL    HW233312   5.448   4.045   6.848 -1.2948 -0.2588 -0.8522
10805SOL     OW33313   5.430   6.566   0.403 -0.3183 -0.0333 -0.0842
10805SOL    HW133314   5.485   6.511   0.340  0.2455  0.0404  0.3360
10805SOL    HW233315   5.380   6.636   0.352  0.9561  0.7051 -0.3468
10806SOL     OW33316   5.675   2.433   5.686  0.2517 -0.4736  0.1431
10806SOL    HW133317   5.730   2.516   5.701 -0.5995 -0.2910  2.7886
10806SOL    HW233318   5.689   2.401   5.592  1.6187  1.8996 -0.5701
10807SOL     OW33319   4.639   2.089   5.904 -0.1328 -0.2325  0.0770
10807SOL    HW133320   4.687   2.071   5.818 -1.3175  5.9696 -2.3871
10807SOL    HW233321   4.705   2.095   5.979  1.6144 -0.8250 -1.3457
10808SOL     OW33322   1.393   3.124   0.039 -0.5234  0.7393 -0.4419
10808SOL    HW133323   1.487   3.159   0.036 -0.4373  0.7944  1.5869
10808SOL    HW233324   1.348   3.155   0.122 -2.1138  0.0763 -1.0056
10809SOL     OW33325   1.037   5.953   2.860  0.6453  0.0919  0.1426
10809SOL    HW133326   0.976   5.923   2.934  2.1666 -0.2182  1.3316
10809SOL    HW233327   1.087   5.874   2.826 -0.6053  0.0853 -1.8336
10810SOL     OW33328   1.446   3.731   6.407  0.7122 -0.2652 -0.6618
10810SOL    HW133329   1.497   3.693   6.330  3.2520  0.0828  0.7577
10810SOL    HW233330   1.496   3.808   6.446 -1.3021  0.5966  0.3849
10811SOL     OW33331   6.103   3.634   6.244 -0.2040 -0.0803  0.3193
10811SOL    HW133332   6.079   3.726   6.211 -1.6952 -0.8470 -0.8884
10811SOL    HW233333   6.087   3.568   6.171 -0.3078 -1.4528  1.5476
10812SOL     OW33334   0.167   2.785   0.283  0.8543 -0.1526 -0.3957
10812SOL    HW133335   0.242   2.771   0.347  1.6140  2.6334 -0.5634
10812SOL    HW233336   0.092   2.831   0.329 -0.2026 -1.5730 -0.6189
10813SOL     OW33337   3.416   4.911   3.690  0.4972  0.3353 -0.1334
10813SOL    HW133338   3.461   4.913   3.600  1.7213 -0.2073  0.4501
10813SOL    HW233339   3.317   4.917   3.677  0.7246  1.8820 -1.4304
10814SOL     OW33340   2.531   0.504   4.905 -0.2699  0.2687 -0.0484
10814SOL    HW133341   2.546   0.533   4.999 -1.6180 -0.9192  0.5779
10814SOL    HW233342   2.433   0.507   4.885 -0.1293 -0.7337 -0.9763
10815SOL     OW33343   5.311   2.275   5.670  0.2736  0.2309 -0.4439
10815SOL    HW133344   5.345   2.335   5.597  0.5398  0.4883 -0.1103
10815SOL    HW233345   5.244   2.324   5.725 -0.6733 -0.2863 -1.1193
10816SOL     OW33346   1.471   3.544   1.456  0.0138  0.2546  0.6212
10816SOL    HW133347   1.477   3.575   1.361  1.8837  1.5489  1.0838
10816SOL    HW233348   1.530   3.465   1.469  0.4658  0.6263  0.8757
10817SOL     OW33349   5.347   2.784   2.658 -0.2752 -0.2176  0.8215
10817SOL    HW133350   5.251   2.758   2.648 -0.5438  1.1636 -0.5062
10817SOL    HW233351   5.355   2.883   2.658  1.2376 -0.3109  0.1243
10818SOL     OW33352   3.444   2.089   5.542  0.0231  0.1930 -0.1621
10818SOL    HW133353   3.503   2.063   5.465 -1.0614 -2.3206 -0.2370
10818SOL    HW233354   3.484   2.054   5.627 -0.0884  0.7057  0.1019
10819SOL     OW33355   2.265   2.379   4.824  0.4326  0.1549 -0.3040
10819SOL    HW133356   2.358   2.416   4.820  0.5477  0.0086  0.7146
10819SOL    HW233357   2.199   2.454   4.828  0.5039  0.2581 -0.9180
10820SOL     OW33358   0.233   4.367   3.439 -0.1472  0.7159  0.5681
10820SOL    HW133359   0.230   4.342   3.536 -2.3647  1.1640  0.6678
10820SOL    HW233360   0.206   4.288   3.384  1.6264  0.2973  0.2233
10821SOL     OW33361   0.224   0.750   0.834 -0.2658  0.2662 -0.0629
10821SOL    HW133362   0.230   0.749   0.734 -0.6349 -0.4750 -0.0847
10821SOL    HW233363   0.315   0.750   0.873 -0.0939 -1.1532 -0.4012
10822SOL     OW33364   1.016   5.506   6.448  0.4520 -0.1757  0.1338
10822SOL    HW133365   1.086   5.480   6.381  0.9076  2.4159 -0.4895
10822SOL    HW233366   1.056   5.567   6.516 -0.9846  0.6474  0.2768
10823SOL     OW33367   2.591   1.685   0.822  0.4905  0.2939 -0.1014
10823SOL    HW133368   2.537   1.741   0.885  0.2276  0.7985 -0.7602
10823SOL    HW233369   2.533   1.614   0.781  0.6430  0.0123  0.1693
10824SOL     OW33370   5.407   0.161   4.851  0.1063  0.5883  0.1657
10824SOL    HW133371   5.502   0.149   4.881  0.3431  1.9937  0.0468
10824SOL    HW233372   5.405   0.223   4.772 -0.7162 -1.2885 -1.3577
10825SOL     OW33373   3.440   1.019   1.858 -0.3994  0.2769  0.9538
10825SOL    HW133374   3.439   0.951   1.931  0.6366  0.3387  1.0274
10825SOL    HW233375   3.462   1.109   1.896 -0.5301  0.4358  0.6602
10826SOL     OW33376   0.573   3.840   5.800  0.3469  0.0352 -0.7880
10826SOL    HW133377   0.593   3.860   5.896 -0.3236 -1.7583 -0.2445
10826SOL    HW233378   0.625   3.760   5.771  0.4581  0.4929 -1.9060
10827SOL     OW33379   1.245   2.324   3.426 -0.0229  0.1245  0.0603
10827SOL    HW133380   1.213   2.414   3.455 -0.2075 -0.4458  1.7245
10827SOL    HW233381   1.205   2.254   3.485  0.1393 -1.0563 -1.1912
10828SOL     OW33382   4.545   3.133   1.052 -0.0625  0.0437  0.1675
10828SOL    HW133383   4.516   3.118   0.958 -0.4533  2.2019 -0.1175
10828SOL    HW233384   4.493   3.074   1.113 -0.1789 -1.0034 -0.9210
10829SOL     OW33385   1.783   4.249   0.822 -0.1520  0.5038  0.0662
10829SOL    HW133386   1.869   4.255   0.873 -0.7375 -1.0265  1.3190
10829SOL    HW233387   1.783   4.317   0.749  1.6479  1.2853  0.7291
10830SOL     OW33388   6.693   6.179   5.974  0.0523 -0.0735 -0.1734
10830SOL    HW133389   6.774   6.220   5.932 -1.0739  3.0334  0.4195
10830SOL    HW233390   6.629   6.152   5.902  0.0739  0.8817 -0.5608
10831SOL     OW33391   5.559   3.196   1.477 -0.7236  0.5142  0.0264
10831SOL    HW133392   5.535   3.126   1.545 -1.5594 -1.2726 -1.9844
10831SOL    HW233393   5.591   3.278   1.524 -3.6561  0.3260  2.6748
10832SOL     OW33394   2.149   2.364   2.167 -0.0362  0.6144  0.1190
10832SOL    HW133395   2.183   2.299   2.236  0.5044  0.3111 -0.4289
10832SOL    HW233396   2.068   2.325   2.124  0.7395 -0.0652 -0.7592
10833SOL     OW33397   2.378   0.338   6.222 -0.0261 -0.7410  0.5635
10833SOL    HW133398   2.319   0.324   6.302  1.5900 -0.9504  1.7824
10833SOL    HW233399   2.447   0.265   6.218  0.6922 -0.0475 -0.3018
10834SOL     OW33400   5.595   2.738   4.762  0.5305  0.0113  0.2238
10834SOL    HW133401   5.582   2.646   4.798  1.9986 -0.2381  0.1752
10834SOL    HW233402   5.615   2.801   4.837  1.6952 -0.1473  0.0702
10835SOL     OW33403   1.625   0.679   1.048 -0.5847 -0.7334 -0.6107
10835SOL    HW133404   1.705   0.647   1.099  0.4037 -0.0224 -1.6661
10835SOL    HW233405   1.600   0.610   0.980 -1.8741 -1.6611  0.7597
10836SOL     OW33406   0.266   0.283   2.104  0.4778  0.4608 -0.2101
10836SOL    HW133407   0.310   0.356   2.157 -0.0671  0.5121  0.1773
10836SOL    HW233408   0.247   0.316   2.012  0.1070  0.8589  0.0050
10837SOL     OW33409   2.589   4.101   6.662 -0.2422 -0.4378 -0.2781
10837SOL    HW133410   2.580   4.151   6.576 -0.0531 -2.1088 -1.2978
10837SOL    HW233411   2.499   4.072   6.693 -0.2861 -0.0342 -0.0157
10838SOL     OW33412   5.346   0.341   1.876  0.3545 -0.2222 -0.1025
10838SOL    HW133413   5.404   0.412   1.837  0.5714 -0.2729  0.1278
10838SOL    HW233414   5.271   0.383   1.927  2.3699 -0.0667  2.9874
10839SOL     OW33415   2.895   1.462   6.916  0.7586 -0.2174 -0.0850
10839SOL    HW133416   2.827   1.526   6.949 -0.1796 -1.0444 -0.3679
10839SOL    HW233417   2.857   1.408   6.841  0.2143 -3.5390  2.3462
10840SOL     OW33418   6.737   0.857   5.092  0.2760 -0.7544 -0.3370
10840SOL    HW133419   6.678   0.783   5.126  0.1715 -0.1344  0.8921
10840SOL    HW233420   6.680   0.934   5.064  0.4644  0.3179  1.9743
10841SOL     OW33421   3.351   3.128   5.765 -0.6042 -0.3160  0.2058
10841SOL    HW133422   3.438   3.175   5.776  0.0411 -1.6538  1.0597
10841SOL    HW233423   3.296   3.176   5.696  0.7559  0.5894 -0.3000
10842SOL     OW33424   6.548   1.524   2.763  0.2251 -0.3737 -0.1036
10842SOL    HW133425   6.471   1.566   2.811  0.1227 -0.7916  0.0959
10842SOL    HW233426   6.606   1.596   2.725 -1.1992 -0.0233 -1.7842
10843SOL     OW33427   1.810   2.052   0.587  0.2307 -0.0122 -0.1328
10843SOL    HW133428   1.733   2.057   0.650  0.4543  2.2293  0.0559
10843SOL    HW233429   1.787   1.995   0.509 -0.6356 -1.5233  1.1814
10844SOL     OW33430   3.618   5.897   2.891  0.7505 -0.0529 -0.0059
10844SOL    HW133431   3.676   5.978   2.880 -1.0282  1.3897  0.8541
10844SOL    HW233432   3.573   5.876   2.804  1.2972 -0.1921 -0.2581
10845SOL     OW33433   1.168   1.502   3.137  0.2929 -0.1909  0.2055
10845SOL    HW133434   1.248   1.466   3.184  1.2613  1.6382  0.0322
10845SOL    HW233435   1.120   1.427   3.091  3.5504 -0.9869 -2.1850
10846SOL     OW33436   1.472   2.635   3.597 -0.4405  0.4664  0.3063
10846SOL    HW133437   1.550   2.614   3.656  0.9586  0.4357 -1.4526
10846SOL    HW233438   1.457   2.733   3.594 -0.8434  0.4341  1.0838
10847SOL     OW33439   4.783   2.506   4.300 -0.2205  0.1222  0.1571
10847SOL    HW133440   4.825   2.472   4.216 -0.7910 -1.1408  0.3699
10847SOL    HW233441   4.696   2.551   4.277 -0.0589  0.3666  0.0117
10848SOL     OW33442   2.923   6.610   6.352  0.6836 -0.3026  0.0479
10848SOL    HW133443   2.904   6.560   6.267  1.9233  0.5509 -0.7713
10848SOL    HW233444   3.007   6.574   6.393  1.7521  1.2283 -0.7051
10849SOL     OW33445   0.324   4.704   5.038  0.2516  0.3893  0.0886
10849SOL    HW133446   0.404   4.667   4.989 -0.3732  0.2161 -0.8344
10849SOL    HW233447   0.326   4.804   5.034 -0.2733  0.3698 -1.1335
10850SOL     OW33448   6.426   6.328   2.796  0.7000 -0.3969  0.0084
10850SOL    HW133449   6.472   6.368   2.875 -0.9048  1.4344  0.0863
10850SOL    HW233450   6.340   6.286   2.825  0.8313 -1.0722 -0.5601
10851SOL     OW33451   5.720   4.632   0.565  0.1232  0.3561 -0.4748
10851SOL    HW133452   5.807   4.677   0.586  0.2445 -0.1020  0.0451
10851SOL    HW233453   5.645   4.696   0.578  0.2954  0.4229  0.2148
10852SOL     OW33454   6.612   2.882   6.147 -0.3164 -0.0310 -0.4646
10852SOL    HW133455   6.597   2.943   6.069 -0.2349 -0.4016 -0.7688
10852SOL    HW233456   6.526   2.837   6.171 -0.5477  0.7432  0.2223
10853SOL     OW33457   2.780   4.660   6.457  1.3028  0.0451 -0.2512
10853SOL    HW133458   2.725   4.618   6.530  0.4451  0.8709 -0.4020
10853SOL    HW233459   2.869   4.687   6.494  0.8709  0.4673  0.5063
10854SOL     OW33460   0.683   5.157   0.670  0.1458  0.3268 -0.0456
10854SOL    HW133461   0.663   5.225   0.599  3.3478 -0.0592 -1.4904
10854SOL    HW233462   0.762   5.188   0.724  0.7004 -1.5343  0.2628
10855SOL     OW33463   0.905   6.706   6.734 -0.1026 -0.0747 -0.5627
10855SOL    HW133464   0.830   6.749   6.784 -0.0386 -0.6828  0.0783
10855SOL    HW233465   0.885   6.706   6.636 -0.1859  1.2163 -0.5570
10856SOL     OW33466   5.563   0.138   0.567  0.1283 -0.0250 -0.5333
10856SOL    HW133467   5.514   0.056   0.534  0.6427  0.0915 -1.6285
10856SOL    HW233468   5.531   0.218   0.516 -0.8553  0.6010  0.9886
10857SOL     OW33469   6.219   0.354   5.228  0.6794  0.0469 -0.1291
10857SOL    HW133470   6.314   0.369   5.254  1.8922 -0.2830 -3.8236
10857SOL    HW233471   6.213   0.273   5.170 -2.3326 -1.4291  1.9853
10858SOL     OW33472   1.417   1.160   2.618 -0.2110 -0.0841  0.1182
10858SOL    HW133473   1.503   1.170   2.668  0.3267 -0.8388 -0.6359
10858SOL    HW233474   1.405   1.239   2.557  0.1327 -0.1523 -0.0420
10859SOL     OW33475   2.214   5.696   2.526 -0.3166 -0.9774 -0.5684
10859SOL    HW133476   2.189   5.645   2.609 -2.3687  1.7301  0.6443
10859SOL    HW233477   2.269   5.776   2.551 -1.4482  0.2085 -1.6886
10860SOL     OW33478   4.923   1.006   1.766  0.4796  0.2618  0.0731
10860SOL    HW133479   4.979   1.055   1.833 -0.2843  0.1821  0.7919
10860SOL    HW233480   4.904   0.913   1.800  0.5165  0.0401 -0.4975
10861SOL     OW33481   2.559   4.381   1.244  0.3317 -0.6130  0.2474
10861SOL    HW133482   2.571   4.449   1.171  0.2462 -1.7434 -0.8642
10861SOL    HW233483   2.467   4.343   1.238 -0.7631  1.3395  2.8281
10862SOL     OW33484   1.868   5.443   5.826 -0.7583 -0.1538  0.4947
10862SOL    HW133485   1.873   5.464   5.728 -0.7335  0.9854  0.7261
10862SOL    HW233486   1.881   5.345   5.840  1.3391 -0.0737 -0.5087
10863SOL     OW33487   0.807   6.542   4.838 -0.2927  0.2216 -0.3541
10863SOL    HW133488   0.812   6.442   4.828  0.1339  0.0857  1.0519
10863SOL    HW233489   0.843   6.585   4.755  0.3715 -0.7966 -0.6164
10864SOL     OW33490   3.823   3.374   3.257 -0.4595  0.7091 -0.0448
10864SOL    HW133491   3.911   3.370   3.304  0.6782  1.1076 -2.0405
10864SOL    HW233492   3.786   3.282   3.248  1.3953  0.0889 -2.0630
10865SOL     OW33493   3.983   0.857   1.533 -0.1420  0.3247 -0.8801
10865SOL    HW133494   4.067   0.806   1.518 -0.5070 -0.6838  0.3281
10865SOL    HW233495   3.934   0.867   1.446  0.2350 -0.8824 -1.2499
10866SOL     OW33496   0.288   2.793   4.367  0.0927 -0.1898  0.3052
10866SOL    HW133497   0.271   2.761   4.274  2.1032  4.3242 -1.9771
10866SOL    HW233498   0.201   2.802   4.416 -1.1097 -1.9760 -1.3640
10867SOL     OW33499   5.766   3.336   6.265 -0.0998 -0.4842  0.0551
10867SOL    HW133500   5.754   3.312   6.169  1.9640 -0.7492 -0.1810
10867SOL    HW233501   5.809   3.259   6.313 -1.5872 -0.5601  1.3226
10868SOL     OW33502   6.434   2.060   1.433 -0.0555  0.0597  0.7171
10868SOL    HW133503   6.445   2.159   1.434  0.4082  0.0676 -1.2464
10868SOL    HW233504   6.337   2.037   1.420  0.1268  0.3612 -1.6954
10869NA      NA33505   6.335   1.796   6.835  0.2475  0.6394  0.2831
10870NA      NA33506   5.888   4.290   3.772 -0.0787  0.5417  0.3010
10871NA      NA33507   2.148   4.083   2.639  0.4229  0.2156 -0.1704
10872NA      NA33508   5.978   2.557   2.247 -0.3171 -0.5559 -0.1877
10873NA      NA33509   4.369   2.311   5.172 -0.4024  0.4091  0.1175
10874NA      NA33510   3.289   1.393   6.492 -0.5970  0.2832 -0.1311
10875NA      NA33511   1.619   6.011   0.661 -0.0136 -0.0451  0.0610
10876NA      NA33512   4.395   4.110   1.434  0.8875 -0.1344  0.0561
10877NA      NA33513   6.082   3.743   0.528 -0.8148  0.6018  0.2141
10878NA      NA33514   2.696   1.833   0.659 -0.2145  0.1795  0.3720
10879NA      NA33515   4.377   5.550   2.520  0.4583  0.3413  0.1463
10880NA      NA33516   2.249   5.782   3.725  0.3662  0.4819 -0.4147
10881NA      NA33517   4.317   6.145   4.041  0.1234  0.0025 -0.2340
10882NA      NA33518   5.881   5.271   5.051 -0.8469  0.0601 -0.1468
   7.02216   7.02216   7.02216
